<event>
 4    1  0.6055396E+003  0.1044030E+03  0.7546771E-02  0.1271300E+00
         21   -1    0    0  504  501  0.00000000000E+00  0.00000000000E+00  0.39228585988E+02  0.39228585988E+02  0.00000000000E+00 0. -1.
         21   -1    0    0  503  502 -0.00000000000E+00 -0.00000000000E+00 -0.27957700427E+03  0.27957700427E+03  0.00000000000E+00 0. -1.
         21    1    1    2  503  501 -0.93318141418E+02 -0.46815739918E+02 -0.13267228585E+03  0.16882512981E+03  0.00000000000E+00 0. -1.
         21    1    1    2  504  502  0.93318141418E+02  0.46815739918E+02 -0.10767613243E+03  0.14998046045E+03  0.00000000000E+00 0. -1.
<mgrwt>
<rscale>  2 0.10440301E+03</rscale>
<asrwt>0</asrwt>
<pdfrwt beam="1">  1       21 0.60351674E-02 0.10440301E+03</pdfrwt>
<pdfrwt beam="2">  1       21 0.43011845E-01 0.10440301E+03</pdfrwt>
<totfact> 0.10142375E+06</totfact>
</mgrwt>
</event>
<event>
 4    1  0.6055396E+003  0.1533883E+03  0.7546771E-02  0.1196370E+00
         21   -1    0    0  503  501  0.00000000000E+00  0.00000000000E+00  0.67972414782E+02  0.67972414782E+02  0.00000000000E+00 0.  1.
         21   -1    0    0  504  502 -0.00000000000E+00 -0.00000000000E+00 -0.50879949686E+03  0.50879949686E+03  0.00000000000E+00 0.  1.
         21    1    1    2  503  502 -0.66686359453E+02  0.13813361307E+03 -0.57356107884E+02  0.16376107202E+03  0.00000000000E+00 0.  1.
         21    1    1    2  504  501  0.66686359453E+02 -0.13813361307E+03 -0.38347097420E+03  0.41301083963E+03  0.00000000000E+00 0.  1.
<mgrwt>
<rscale>  2 0.15338828E+03</rscale>
<asrwt>0</asrwt>
<pdfrwt beam="1">  1       21 0.10457295E-01 0.15338828E+03</pdfrwt>
<pdfrwt beam="2">  1       21 0.78276843E-01 0.15338828E+03</pdfrwt>
<totfact> 0.10998183E+05</totfact>
</mgrwt>
</event>
<event>
 4    1  0.6055396E+003  0.1315961E+03  0.7546771E-02  0.1225106E+00
         21   -1    0    0  502  501  0.00000000000E+00  0.00000000000E+00  0.20400090211E+02  0.20400090211E+02  0.00000000000E+00 0. -1.
         21   -1    0    0  503  502 -0.00000000000E+00 -0.00000000000E+00 -0.17230091307E+04  0.17230091307E+04  0.00000000000E+00 0. -1.
         21    1    1    2  503  504 -0.86697863103E+02 -0.99000051056E+02 -0.14721874003E+04  0.14780572625E+04  0.00000000000E+00 0. -1.
         21    1    1    2  504  501  0.86697863103E+02  0.99000051056E+02 -0.23042164020E+03  0.26535195844E+03  0.00000000000E+00 0. -1.
<mgrwt>
<rscale>  2 0.13159608E+03</rscale>
<asrwt>0</asrwt>
<pdfrwt beam="1">  1       21 0.31384742E-02 0.13159608E+03</pdfrwt>
<pdfrwt beam="2">  1       21 0.26507843E+00 0.13159608E+03</pdfrwt>
<totfact> 0.33805865E+04</totfact>
</mgrwt>
</event>
<event>
 4    1  0.6055396E+003  0.1523924E+03  0.7546771E-02  0.1197564E+00
         21   -1    0    0  504  501  0.00000000000E+00  0.00000000000E+00  0.10784964122E+03  0.10784964122E+03  0.00000000000E+00 0.  1.
         21   -1    0    0  503  502 -0.00000000000E+00 -0.00000000000E+00 -0.22512396167E+03  0.22512396167E+03  0.00000000000E+00 0.  1.
         21    1    1    2  503  501  0.47374432644E+02  0.14484166438E+03 -0.93359650132E+02  0.17871616849E+03  0.00000000000E+00 0.  1.
         21    1    1    2  504  502 -0.47374432644E+02 -0.14484166438E+03 -0.23914670321E+02  0.15425743439E+03  0.00000000000E+00 0.  1.
<mgrwt>
<rscale>  2 0.15239240E+03</rscale>
<asrwt>0</asrwt>
<pdfrwt beam="1">  1       21 0.16592253E-01 0.15239240E+03</pdfrwt>
<pdfrwt beam="2">  1       21 0.34634455E-01 0.15239240E+03</pdfrwt>
<totfact> 0.26469282E+05</totfact>
</mgrwt>
</event>
<event>
 4    1  0.6055396E+003  0.1036844E+03  0.7546771E-02  0.1272734E+00
         21   -1    0    0  502  501  0.00000000000E+00  0.00000000000E+00  0.29878560496E+03  0.29878560496E+03  0.00000000000E+00 0.  1.
         21   -1    0    0  504  502 -0.00000000000E+00 -0.00000000000E+00 -0.41426621210E+02  0.41426621210E+02  0.00000000000E+00 0.  1.
         21    1    1    2  503  501  0.90523277591E+02 -0.50556751260E+02  0.19035669810E+03  0.21676282291E+03  0.00000000000E+00 0.  1.
         21    1    1    2  504  503 -0.90523277591E+02  0.50556751260E+02  0.67002285654E+02  0.12344940327E+03  0.00000000000E+00 0.  1.
<mgrwt>
<rscale>  2 0.10368437E+03</rscale>
<asrwt>0</asrwt>
<pdfrwt beam="1">  1       21 0.45967015E-01 0.10368437E+03</pdfrwt>
<pdfrwt beam="2">  1       21 0.63733265E-02 0.10368437E+03</pdfrwt>
<totfact> 0.80893505E+05</totfact>
</mgrwt>
</event>
<event>
 4    1  0.6055396E+003  0.1022033E+03  0.7546771E-02  0.1275730E+00
         21   -1    0    0  502  501  0.00000000000E+00  0.00000000000E+00  0.59032468236E+03  0.59032468236E+03  0.00000000000E+00 0.  1.
         21   -1    0    0  504  502 -0.00000000000E+00 -0.00000000000E+00 -0.72558598350E+02  0.72558598350E+02  0.00000000000E+00 0.  1.
         21    1    1    2  503  501 -0.53456462406E+02  0.87108710198E+02  0.54709142705E+03  0.55655597231E+03  0.00000000000E+00 0.  1.
         21    1    1    2  504  503  0.53456462406E+02 -0.87108710198E+02 -0.29325343045E+02  0.10632730839E+03  0.00000000000E+00 0.  1.
<mgrwt>
<rscale>  2 0.10220333E+03</rscale>
<asrwt>0</asrwt>
<pdfrwt beam="1">  1       21 0.90819179E-01 0.10220333E+03</pdfrwt>
<pdfrwt beam="2">  1       21 0.11162862E-01 0.10220333E+03</pdfrwt>
<totfact> 0.71837295E+04</totfact>
</mgrwt>
</event>
<event>
 4    1  0.6055396E+003  0.1105651E+03  0.7546771E-02  0.1259527E+00
         21   -1    0    0  502  501  0.00000000000E+00  0.00000000000E+00  0.54944030775E+03  0.54944030775E+03  0.00000000000E+00 0. -1.
         21   -1    0    0  504  502 -0.00000000000E+00 -0.00000000000E+00 -0.24866507423E+02  0.24866507423E+02  0.00000000000E+00 0. -1.
         21    1    1    2  503  501 -0.27090236554E+02 -0.10719496024E+03  0.35544678556E+03  0.37224596409E+03  0.00000000000E+00 0. -1.
         21    1    1    2  504  503  0.27090236554E+02  0.10719496024E+03  0.16912701477E+03  0.20206085108E+03  0.00000000000E+00 0. -1.
<mgrwt>
<rscale>  2 0.11056510E+03</rscale>
<asrwt>0</asrwt>
<pdfrwt beam="1">  1       21 0.84529269E-01 0.11056510E+03</pdfrwt>
<pdfrwt beam="2">  1       21 0.38256169E-02 0.11056510E+03</pdfrwt>
<totfact> 0.51884084E+05</totfact>
</mgrwt>
</event>
<event>
 4    1  0.6055396E+003  0.1252028E+03  0.7546771E-02  0.1234753E+00
         21   -1    0    0  504  501  0.00000000000E+00  0.00000000000E+00  0.51008452596E+03  0.51008452596E+03  0.00000000000E+00 0.  1.
         21   -1    0    0  503  502 -0.00000000000E+00 -0.00000000000E+00 -0.32376681811E+03  0.32376681811E+03  0.00000000000E+00 0.  1.
         21    1    1    2  503  501  0.70075114427E+02 -0.10375553599E+03  0.48980418833E+03  0.50555303957E+03  0.00000000000E+00 0.  1.
         21    1    1    2  504  502 -0.70075114427E+02  0.10375553599E+03 -0.30348648047E+03  0.32829830450E+03  0.00000000000E+00 0.  1.
<mgrwt>
<rscale>  2 0.12520277E+03</rscale>
<asrwt>0</asrwt>
<pdfrwt beam="1">  1       21 0.78474542E-01 0.12520277E+03</pdfrwt>
<pdfrwt beam="2">  1       21 0.49810280E-01 0.12520277E+03</pdfrwt>
<totfact> 0.58518495E+03</totfact>
</mgrwt>
</event>
<event>
 4    1  0.6055396E+003  0.1129408E+03  0.7546771E-02  0.1255219E+00
         21   -1    0    0  504  501  0.00000000000E+00  0.00000000000E+00  0.99125638437E+02  0.99125638437E+02  0.00000000000E+00 0.  1.
         21   -1    0    0  503  502 -0.00000000000E+00 -0.00000000000E+00 -0.56840198890E+03  0.56840198890E+03  0.00000000000E+00 0.  1.
         21    1    1    2  503  501  0.11077419602E+03 -0.22015940021E+02 -0.52820019304E+03  0.54013985971E+03  0.00000000000E+00 0.  1.
         21    1    1    2  504  502 -0.11077419602E+03  0.22015940021E+02  0.58923842571E+02  0.12738776763E+03  0.00000000000E+00 0.  1.
<mgrwt>
<rscale>  2 0.11294080E+03</rscale>
<asrwt>0</asrwt>
<pdfrwt beam="1">  1       21 0.15250098E-01 0.11294080E+03</pdfrwt>
<pdfrwt beam="2">  1       21 0.87446459E-01 0.11294080E+03</pdfrwt>
<totfact> 0.44685670E+04</totfact>
</mgrwt>
</event>
<event>
 4    1  0.6055396E+003  0.1167352E+03  0.7546771E-02  0.1248582E+00
         21   -1    0    0  503  501  0.00000000000E+00  0.00000000000E+00  0.16325719332E+03  0.16325719332E+03  0.00000000000E+00 0.  1.
         21   -1    0    0  504  502 -0.00000000000E+00 -0.00000000000E+00 -0.93549898111E+02  0.93549898111E+02  0.00000000000E+00 0.  1.
         21    1    1    2  503  502 -0.10607370391E+03  0.48738867315E+02  0.77001891025E+02  0.13984419570E+03  0.00000000000E+00 0.  1.
         21    1    1    2  504  501  0.10607370391E+03 -0.48738867315E+02 -0.72945958185E+01  0.11696289573E+03  0.00000000000E+00 0.  1.
<mgrwt>
<rscale>  2 0.11673520E+03</rscale>
<asrwt>0</asrwt>
<pdfrwt beam="1">  1       21 0.25116491E-01 0.11673520E+03</pdfrwt>
<pdfrwt beam="2">  1       21 0.14392292E-01 0.11673520E+03</pdfrwt>
<totfact> 0.63853624E+05</totfact>
</mgrwt>
</event>
<event>
 4    1  0.6055396E+003  0.1140925E+03  0.7546771E-02  0.1253174E+00
         21   -1    0    0  504  501  0.00000000000E+00  0.00000000000E+00  0.69652236019E+03  0.69652236019E+03  0.00000000000E+00 0. -1.
         21   -1    0    0  501  502 -0.00000000000E+00 -0.00000000000E+00 -0.25669794950E+03  0.25669794950E+03  0.00000000000E+00 0.  1.
         21    1    1    2  503  502  0.66613894795E+02 -0.92626622606E+02 -0.23902049416E+03  0.26485448613E+03  0.00000000000E+00 0.  1.
         21    1    1    2  504  503 -0.66613894795E+02  0.92626622606E+02  0.67884490486E+03  0.68836582356E+03  0.00000000000E+00 0. -1.
<mgrwt>
<rscale>  2 0.11409252E+03</rscale>
<asrwt>0</asrwt>
<pdfrwt beam="1">  1       21 0.10715729E+00 0.11409252E+03</pdfrwt>
<pdfrwt beam="2">  1       21 0.39491993E-01 0.11409252E+03</pdfrwt>
<totfact> 0.46407104E+03</totfact>
</mgrwt>
</event>
<event>
 4    1  0.6055396E+003  0.1042446E+03  0.7546771E-02  0.1271615E+00
         21   -1    0    0  503  501  0.00000000000E+00  0.00000000000E+00  0.71598654970E+02  0.71598654970E+02  0.00000000000E+00 0. -1.
         21   -1    0    0  504  502 -0.00000000000E+00 -0.00000000000E+00 -0.34445377320E+03  0.34445377320E+03  0.00000000000E+00 0.  1.
         21    1    1    2  503  502 -0.43887770980E+02  0.94555840124E+02 -0.29201288129E+03  0.31006203602E+03  0.00000000000E+00 0.  1.
         21    1    1    2  504  501  0.43887770980E+02 -0.94555840124E+02  0.19157763055E+02  0.10599039215E+03  0.00000000000E+00 0. -1.
<mgrwt>
<rscale>  2 0.10424463E+03</rscale>
<asrwt>0</asrwt>
<pdfrwt beam="1">  1       21 0.11015178E-01 0.10424463E+03</pdfrwt>
<pdfrwt beam="2">  1       21 0.52992887E-01 0.10424463E+03</pdfrwt>
<totfact> 0.23588296E+05</totfact>
</mgrwt>
</event>
<event>
 4    1  0.6055396E+003  0.1002656E+03  0.7546771E-02  0.1279739E+00
         21   -1    0    0  503  501  0.00000000000E+00  0.00000000000E+00  0.44578200453E+03  0.44578200453E+03  0.00000000000E+00 0.  1.
         21   -1    0    0  504  502 -0.00000000000E+00 -0.00000000000E+00 -0.12085026536E+03  0.12085026536E+03  0.00000000000E+00 0.  1.
         21    1    1    2  503  502 -0.99312000483E+02 -0.13795191605E+02  0.41798351813E+03  0.42984113598E+03  0.00000000000E+00 0.  1.
         21    1    1    2  504  501  0.99312000483E+02  0.13795191605E+02 -0.93051778953E+02  0.13679113391E+03  0.00000000000E+00 0.  1.
<mgrwt>
<rscale>  2 0.10026555E+03</rscale>
<asrwt>0</asrwt>
<pdfrwt beam="1">  1       21 0.68581846E-01 0.10026555E+03</pdfrwt>
<pdfrwt beam="2">  1       21 0.18592349E-01 0.10026555E+03</pdfrwt>
<totfact> 0.53841560E+04</totfact>
</mgrwt>
</event>
<event>
 4    1  0.6055396E+003  0.1504087E+03  0.7546771E-02  0.1199972E+00
         21   -1    0    0  503  501  0.00000000000E+00  0.00000000000E+00  0.43137634278E+02  0.43137634278E+02  0.00000000000E+00 0. -1.
         21   -1    0    0  504  502 -0.00000000000E+00 -0.00000000000E+00 -0.52813903713E+03  0.52813903713E+03  0.00000000000E+00 0. -1.
         21    1    1    2  503  502  0.69786991198E+02  0.13323868190E+03 -0.21857107601E+03  0.26532260695E+03  0.00000000000E+00 0. -1.
         21    1    1    2  504  501 -0.69786991198E+02 -0.13323868190E+03 -0.26643032685E+03  0.30595406446E+03  0.00000000000E+00 0. -1.
<mgrwt>
<rscale>  2 0.15040868E+03</rscale>
<asrwt>0</asrwt>
<pdfrwt beam="1">  1       21 0.66365589E-02 0.15040868E+03</pdfrwt>
<pdfrwt beam="2">  1       21 0.81252163E-01 0.15040868E+03</pdfrwt>
<totfact> 0.22294408E+05</totfact>
</mgrwt>
</event>
<event>
 4    1  0.6055396E+003  0.1016828E+03  0.7546771E-02  0.1276797E+00
         21   -1    0    0  504  501  0.00000000000E+00  0.00000000000E+00  0.59149943933E+03  0.59149943933E+03  0.00000000000E+00 0.  1.
         21   -1    0    0  501  502 -0.00000000000E+00 -0.00000000000E+00 -0.37126204343E+02  0.37126204343E+02  0.00000000000E+00 0.  1.
         21    1    1    2  503  502 -0.10108613486E+03 -0.10998979377E+02  0.48541655541E+02  0.11267509277E+03  0.00000000000E+00 0.  1.
         21    1    1    2  504  503  0.10108613486E+03  0.10998979377E+02  0.50583157945E+03  0.51595055090E+03  0.00000000000E+00 0.  1.
<mgrwt>
<rscale>  2 0.10168276E+03</rscale>
<asrwt>0</asrwt>
<pdfrwt beam="1">  1       21 0.90999907E-01 0.10168276E+03</pdfrwt>
<pdfrwt beam="2">  1       21 0.57117242E-02 0.10168276E+03</pdfrwt>
<totfact> 0.22564642E+05</totfact>
</mgrwt>
</event>
<event>
 4    1  0.6055396E+003  0.2050903E+03  0.7546771E-02  0.1145514E+00
         21   -1    0    0  504  501  0.00000000000E+00  0.00000000000E+00  0.26071076163E+03  0.26071076163E+03  0.00000000000E+00 0.  1.
         21   -1    0    0  503  502 -0.00000000000E+00 -0.00000000000E+00 -0.25568991066E+03  0.25568991066E+03  0.00000000000E+00 0.  1.
         21    1    1    2  503  501 -0.20233648941E+03 -0.33495865341E+02 -0.15433793772E+03  0.25667533376E+03  0.00000000000E+00 0.  1.
         21    1    1    2  504  502  0.20233648941E+03  0.33495865341E+02  0.15935878869E+03  0.25972533853E+03  0.00000000000E+00 0.  1.
<mgrwt>
<rscale>  2 0.20509029E+03</rscale>
<asrwt>0</asrwt>
<pdfrwt beam="1">  1       21 0.40109348E-01 0.20509029E+03</pdfrwt>
<pdfrwt beam="2">  1       21 0.39336909E-01 0.20509029E+03</pdfrwt>
<totfact> 0.37079371E+04</totfact>
</mgrwt>
</event>
<event>
 4    1  0.6055396E+003  0.1445090E+03  0.7546771E-02  0.1207387E+00
         21   -1    0    0  503  501  0.00000000000E+00  0.00000000000E+00  0.10960746914E+03  0.10960746914E+03  0.00000000000E+00 0. -1.
         21   -1    0    0  504  502 -0.00000000000E+00 -0.00000000000E+00 -0.64179214860E+03  0.64179214860E+03  0.00000000000E+00 0.  1.
         21    1    1    2  503  502 -0.21336319441E+02 -0.14292524717E+03  0.48944298887E+02  0.15257263581E+03  0.00000000000E+00 0. -1.
         21    1    1    2  504  501  0.21336319441E+02  0.14292524717E+03 -0.58112897834E+03  0.59882698192E+03  0.00000000000E+00 0.  1.
<mgrwt>
<rscale>  2 0.14450905E+03</rscale>
<asrwt>0</asrwt>
<pdfrwt beam="1">  1       21 0.16862688E-01 0.14450905E+03</pdfrwt>
<pdfrwt beam="2">  1       21 0.98737253E-01 0.14450905E+03</pdfrwt>
<totfact> 0.27584682E+04</totfact>
</mgrwt>
</event>
<event>
 4    1  0.6055396E+003  0.1045074E+03  0.7546771E-02  0.1271093E+00
         21   -1    0    0  504  501  0.00000000000E+00  0.00000000000E+00  0.26043692045E+03  0.26043692045E+03  0.00000000000E+00 0. -1.
         21   -1    0    0  501  502 -0.00000000000E+00 -0.00000000000E+00 -0.88803865256E+02  0.88803865256E+02  0.00000000000E+00 0. -1.
         21    1    1    2  503  502  0.81619991656E+02 -0.65268520782E+02 -0.41040483666E+02  0.11227699739E+03  0.00000000000E+00 0. -1.
         21    1    1    2  504  503 -0.81619991656E+02  0.65268520782E+02  0.21267353886E+03  0.23696378831E+03  0.00000000000E+00 0. -1.
<mgrwt>
<rscale>  2 0.10450743E+03</rscale>
<asrwt>0</asrwt>
<pdfrwt beam="1">  1       21 0.40067218E-01 0.10450743E+03</pdfrwt>
<pdfrwt beam="2">  1       21 0.13662133E-01 0.10450743E+03</pdfrwt>
<totfact> 0.28429818E+05</totfact>
</mgrwt>
</event>
<event>
 4    1  0.6055396E+003  0.1892672E+03  0.7546771E-02  0.1159124E+00
         21   -1    0    0  504  501  0.00000000000E+00  0.00000000000E+00  0.33218912536E+03  0.33218912536E+03  0.00000000000E+00 0.  1.
         21   -1    0    0  503  502 -0.00000000000E+00 -0.00000000000E+00 -0.10801652960E+03  0.10801652960E+03  0.00000000000E+00 0. -1.
         21    1    1    2  503  501 -0.81503173523E+02 -0.17081956219E+03  0.10309889643E+03  0.21552603687E+03  0.00000000000E+00 0.  1.
         21    1    1    2  504  502  0.81503173523E+02  0.17081956219E+03  0.12107369933E+03  0.22467961810E+03  0.00000000000E+00 0. -1.
<mgrwt>
<rscale>  2 0.18926725E+03</rscale>
<asrwt>0</asrwt>
<pdfrwt beam="1">  1       21 0.51106019E-01 0.18926725E+03</pdfrwt>
<pdfrwt beam="2">  1       21 0.16617928E-01 0.18926725E+03</pdfrwt>
<totfact> 0.11855441E+05</totfact>
</mgrwt>
</event>
<event>
 4    1  0.6055396E+003  0.1396245E+03  0.7546771E-02  0.1213835E+00
         21   -1    0    0  504  501  0.00000000000E+00  0.00000000000E+00  0.67012188440E+02  0.67012188440E+02  0.00000000000E+00 0.  1.
         21   -1    0    0  503  502 -0.00000000000E+00 -0.00000000000E+00 -0.31276000859E+03  0.31276000859E+03  0.00000000000E+00 0.  1.
         21    1    1    2  503  501 -0.63826919810E+02  0.12418178591E+03 -0.17305531079E+03  0.22235811710E+03  0.00000000000E+00 0.  1.
         21    1    1    2  504  502  0.63826919810E+02 -0.12418178591E+03 -0.72692509354E+02  0.15741407993E+03  0.00000000000E+00 0.  1.
<mgrwt>
<rscale>  2 0.13962447E+03</rscale>
<asrwt>0</asrwt>
<pdfrwt beam="1">  1       21 0.10309567E-01 0.13962447E+03</pdfrwt>
<pdfrwt beam="2">  1       21 0.48116924E-01 0.13962447E+03</pdfrwt>
<totfact> 0.32087051E+05</totfact>
</mgrwt>
</event>
<event>
 4    1  0.6055396E+003  0.1359976E+03  0.7546771E-02  0.1218818E+00
         21   -1    0    0  504  501  0.00000000000E+00  0.00000000000E+00  0.73633044480E+02  0.73633044480E+02  0.00000000000E+00 0.  1.
         21   -1    0    0  503  502 -0.00000000000E+00 -0.00000000000E+00 -0.29720596127E+03  0.29720596127E+03  0.00000000000E+00 0.  1.
         21    1    1    2  503  501  0.76201886968E+02 -0.11264381129E+03 -0.18475149093E+03  0.22940895623E+03  0.00000000000E+00 0.  1.
         21    1    1    2  504  502 -0.76201886968E+02  0.11264381129E+03 -0.38821425863E+02  0.14143004952E+03  0.00000000000E+00 0.  1.
<mgrwt>
<rscale>  2 0.13599763E+03</rscale>
<asrwt>0</asrwt>
<pdfrwt beam="1">  1       21 0.11328161E-01 0.13599763E+03</pdfrwt>
<pdfrwt beam="2">  1       21 0.45723993E-01 0.13599763E+03</pdfrwt>
<totfact> 0.30192972E+05</totfact>
</mgrwt>
</event>
<event>
 4    1  0.6055396E+003  0.1295979E+03  0.7546771E-02  0.1228054E+00
         21   -1    0    0  503  501  0.00000000000E+00  0.00000000000E+00  0.32155888589E+03  0.32155888589E+03  0.00000000000E+00 0. -1.
         21   -1    0    0  504  502 -0.00000000000E+00 -0.00000000000E+00 -0.69167647816E+02  0.69167647816E+02  0.00000000000E+00 0. -1.
         21    1    1    2  503  502 -0.15406167491E+02  0.12867891141E+03  0.22286620819E+03  0.25780798861E+03  0.00000000000E+00 0. -1.
         21    1    1    2  504  501  0.15406167491E+02 -0.12867891141E+03  0.29525029883E+02  0.13291854509E+03  0.00000000000E+00 0. -1.
<mgrwt>
<rscale>  2 0.12959789E+03</rscale>
<asrwt>0</asrwt>
<pdfrwt beam="1">  1       21 0.49470597E-01 0.12959789E+03</pdfrwt>
<pdfrwt beam="2">  1       21 0.10641177E-01 0.12959789E+03</pdfrwt>
<totfact> 0.28720935E+05</totfact>
</mgrwt>
</event>
<event>
 4    1  0.6055396E+003  0.1128191E+03  0.7546771E-02  0.1255437E+00
         21   -1    0    0  503  501  0.00000000000E+00  0.00000000000E+00  0.14962822546E+02  0.14962822546E+02  0.00000000000E+00 0. -1.
         21   -1    0    0  504  502 -0.00000000000E+00 -0.00000000000E+00 -0.14919780042E+04  0.14919780042E+04  0.00000000000E+00 0. -1.
         21    1    1    2  503  502  0.21472229685E+02 -0.11075688225E+03 -0.12325050033E+04  0.12376577583E+04  0.00000000000E+00 0. -1.
         21    1    1    2  504  501 -0.21472229685E+02  0.11075688225E+03 -0.24451017834E+03  0.26928306840E+03  0.00000000000E+00 0. -1.
<mgrwt>
<rscale>  2 0.11281907E+03</rscale>
<asrwt>0</asrwt>
<pdfrwt beam="1">  1       21 0.23019727E-02 0.11281907E+03</pdfrwt>
<pdfrwt beam="2">  1       21 0.22953507E+00 0.11281907E+03</pdfrwt>
<totfact> 0.91441076E+04</totfact>
</mgrwt>
</event>
<event>
 4    1  0.6055396E+003  0.1045715E+03  0.7546771E-02  0.1270966E+00
         21   -1    0    0  503  501  0.00000000000E+00  0.00000000000E+00  0.80282555036E+02  0.80282555036E+02  0.00000000000E+00 0. -1.
         21   -1    0    0  504  502 -0.00000000000E+00 -0.00000000000E+00 -0.14406508220E+03  0.14406508220E+03  0.00000000000E+00 0. -1.
         21    1    1    2  503  502  0.10284279105E+03 -0.18935380583E+02 -0.58086445845E+02  0.11962116660E+03  0.00000000000E+00 0. -1.
         21    1    1    2  504  501 -0.10284279105E+03  0.18935380583E+02 -0.56960813209E+01  0.10472647063E+03  0.00000000000E+00 0. -1.
<mgrwt>
<rscale>  2 0.10457145E+03</rscale>
<asrwt>0</asrwt>
<pdfrwt beam="1">  1       21 0.12351162E-01 0.10457145E+03</pdfrwt>
<pdfrwt beam="2">  1       21 0.22163859E-01 0.10457145E+03</pdfrwt>
<totfact> 0.10582392E+06</totfact>
</mgrwt>
</event>
<event>
 4    1  0.6055396E+003  0.1157713E+03  0.7546771E-02  0.1250241E+00
         21   -1    0    0  504  501  0.00000000000E+00  0.00000000000E+00  0.14675650196E+03  0.14675650196E+03  0.00000000000E+00 0. -1.
         21   -1    0    0  503  502 -0.00000000000E+00 -0.00000000000E+00 -0.94146637583E+02  0.94146637583E+02  0.00000000000E+00 0. -1.
         21    1    1    2  503  501 -0.87509725437E+02  0.75796019513E+02  0.54636707090E+01  0.11590013079E+03  0.00000000000E+00 0. -1.
         21    1    1    2  504  502  0.87509725437E+02 -0.75796019513E+02  0.47146193671E+02  0.12500300875E+03  0.00000000000E+00 0. -1.
<mgrwt>
<rscale>  2 0.11577128E+03</rscale>
<asrwt>0</asrwt>
<pdfrwt beam="1">  1       21 0.22577923E-01 0.11577128E+03</pdfrwt>
<pdfrwt beam="2">  1       21 0.14484098E-01 0.11577128E+03</pdfrwt>
<totfact> 0.77091337E+05</totfact>
</mgrwt>
</event>
<event>
 4    1  0.6055396E+003  0.1127752E+03  0.7546771E-02  0.1255515E+00
         21   -1    0    0  504  501  0.00000000000E+00  0.00000000000E+00  0.71630288761E+03  0.71630288761E+03  0.00000000000E+00 0.  1.
         21   -1    0    0  503  502 -0.00000000000E+00 -0.00000000000E+00 -0.30723274517E+02  0.30723274517E+02  0.00000000000E+00 0. -1.
         21    1    1    2  503  501 -0.11272186979E+03 -0.34689932052E+01  0.58545430371E+03  0.59621723857E+03  0.00000000000E+00 0.  1.
         21    1    1    2  504  502  0.11272186979E+03  0.34689932052E+01  0.10012530939E+03  0.15080892355E+03  0.00000000000E+00 0. -1.
<mgrwt>
<rscale>  2 0.11277524E+03</rscale>
<asrwt>0</asrwt>
<pdfrwt beam="1">  1       21 0.11020043E+00 0.11277524E+03</pdfrwt>
<pdfrwt beam="2">  1       21 0.47266582E-02 0.11277524E+03</pdfrwt>
<totfact> 0.19767050E+05</totfact>
</mgrwt>
</event>
<event>
 4    1  0.6055396E+003  0.1453418E+03  0.7546771E-02  0.1206317E+00
         21   -1    0    0  503  501  0.00000000000E+00  0.00000000000E+00  0.25076643635E+03  0.25076643635E+03  0.00000000000E+00 0.  1.
         21   -1    0    0  504  502 -0.00000000000E+00 -0.00000000000E+00 -0.47241868683E+03  0.47241868683E+03  0.00000000000E+00 0.  1.
         21    1    1    2  503  502 -0.69645118977E+01  0.14517485848E+03 -0.43859862433E+03  0.46205302425E+03  0.00000000000E+00 0.  1.
         21    1    1    2  504  501  0.69645118977E+01 -0.14517485848E+03  0.21694637385E+03  0.26113209892E+03  0.00000000000E+00 0.  1.
<mgrwt>
<rscale>  2 0.14534182E+03</rscale>
<asrwt>0</asrwt>
<pdfrwt beam="1">  1       21 0.38579452E-01 0.14534182E+03</pdfrwt>
<pdfrwt beam="2">  1       21 0.72679797E-01 0.14534182E+03</pdfrwt>
<totfact> 0.11431486E+04</totfact>
</mgrwt>
</event>
<event>
 4    1  0.6055396E+003  0.1076682E+03  0.7546771E-02  0.1264950E+00
         21   -1    0    0  504  501  0.00000000000E+00  0.00000000000E+00  0.10248451211E+03  0.10248451211E+03  0.00000000000E+00 0.  1.
         21   -1    0    0  503  502 -0.00000000000E+00 -0.00000000000E+00 -0.11528922840E+03  0.11528922840E+03  0.00000000000E+00 0.  1.
         21    1    1    2  503  501  0.99818756516E+02  0.40356756175E+02 -0.21358351031E+02  0.10976625656E+03  0.00000000000E+00 0.  1.
         21    1    1    2  504  502 -0.99818756516E+02 -0.40356756175E+02  0.85536347396E+01  0.10800748395E+03  0.00000000000E+00 0.  1.
<mgrwt>
<rscale>  2 0.10766825E+03</rscale>
<asrwt>0</asrwt>
<pdfrwt beam="1">  1       21 0.15766848E-01 0.10766825E+03</pdfrwt>
<pdfrwt beam="2">  1       21 0.17736804E-01 0.10766825E+03</pdfrwt>
<totfact> 0.10316855E+06</totfact>
</mgrwt>
</event>
<event>
 4    1  0.6055396E+003  0.1162036E+03  0.7546771E-02  0.1249495E+00
         21   -1    0    0  503  501  0.00000000000E+00  0.00000000000E+00  0.23705086911E+03  0.23705086911E+03  0.00000000000E+00 0.  1.
         21   -1    0    0  504  502 -0.00000000000E+00 -0.00000000000E+00 -0.61411048647E+02  0.61411048647E+02  0.00000000000E+00 0.  1.
         21    1    1    2  503  502 -0.11603615945E+03 -0.62356973772E+01  0.12797961000E+03  0.17286426697E+03  0.00000000000E+00 0.  1.
         21    1    1    2  504  501  0.11603615945E+03  0.62356973772E+01  0.47660210466E+02  0.12559765078E+03  0.00000000000E+00 0.  1.
<mgrwt>
<rscale>  2 0.11620359E+03</rscale>
<asrwt>0</asrwt>
<pdfrwt beam="1">  1       21 0.36469364E-01 0.11620359E+03</pdfrwt>
<pdfrwt beam="2">  1       21 0.94478538E-02 0.11620359E+03</pdfrwt>
<totfact> 0.65415821E+05</totfact>
</mgrwt>
</event>
<event>
 4    1  0.6055396E+003  0.1038337E+03  0.7546771E-02  0.1272435E+00
         21   -1    0    0  504  501  0.00000000000E+00  0.00000000000E+00  0.81293097172E+02  0.81293097172E+02  0.00000000000E+00 0.  1.
         21   -1    0    0  501  502 -0.00000000000E+00 -0.00000000000E+00 -0.31057132112E+03  0.31057132112E+03  0.00000000000E+00 0. -1.
         21    1    1    2  503  502  0.10236172113E+03  0.17421603874E+02 -0.26294917167E+03  0.28270780166E+03  0.00000000000E+00 0. -1.
         21    1    1    2  504  503 -0.10236172113E+03 -0.17421603874E+02  0.33670947725E+02  0.10915661663E+03  0.00000000000E+00 0.  1.
<mgrwt>
<rscale>  2 0.10383369E+03</rscale>
<asrwt>0</asrwt>
<pdfrwt beam="1">  1       21 0.12506630E-01 0.10383369E+03</pdfrwt>
<pdfrwt beam="2">  1       21 0.47780203E-01 0.10383369E+03</pdfrwt>
<totfact> 0.23337157E+05</totfact>
</mgrwt>
</event>
<event>
 4    1  0.6055396E+003  0.1465076E+03  0.7546771E-02  0.1204831E+00
         21   -1    0    0  504  501  0.00000000000E+00  0.00000000000E+00  0.29730731208E+03  0.29730731208E+03  0.00000000000E+00 0. -1.
         21   -1    0    0  503  502 -0.00000000000E+00 -0.00000000000E+00 -0.11619265104E+03  0.11619265104E+03  0.00000000000E+00 0. -1.
         21    1    1    2  503  501 -0.32562427251E+02  0.14284309893E+03  0.21778011562E+03  0.26247407746E+03  0.00000000000E+00 0. -1.
         21    1    1    2  504  502  0.32562427251E+02 -0.14284309893E+03 -0.36665454586E+02  0.15102588566E+03  0.00000000000E+00 0. -1.
<mgrwt>
<rscale>  2 0.14650755E+03</rscale>
<asrwt>0</asrwt>
<pdfrwt beam="1">  1       21 0.45739586E-01 0.14650755E+03</pdfrwt>
<pdfrwt beam="2">  1       21 0.17875793E-01 0.14650755E+03</pdfrwt>
<totfact> 0.13239496E+05</totfact>
</mgrwt>
</event>
<event>
 4    1  0.6055396E+003  0.1115807E+03  0.7546771E-02  0.1257670E+00
         21   -1    0    0  502  501  0.00000000000E+00  0.00000000000E+00  0.10078958095E+02  0.10078958095E+02  0.00000000000E+00 0. -1.
         21   -1    0    0  504  502 -0.00000000000E+00 -0.00000000000E+00 -0.12758345434E+04  0.12758345434E+04  0.00000000000E+00 0. -1.
         21    1    1    2  503  501  0.16574208911E+02 -0.11034282519E+03 -0.51823331294E+03  0.53010943221E+03  0.00000000000E+00 0. -1.
         21    1    1    2  504  503 -0.16574208911E+02  0.11034282519E+03 -0.74752227235E+03  0.75580406928E+03  0.00000000000E+00 0. -1.
<mgrwt>
<rscale>  2 0.11158066E+03</rscale>
<asrwt>0</asrwt>
<pdfrwt beam="1">  1       21 0.15506104E-02 0.11158066E+03</pdfrwt>
<pdfrwt beam="2">  1       21 0.19628206E+00 0.11158066E+03</pdfrwt>
<totfact> 0.27428736E+05</totfact>
</mgrwt>
</event>
<event>
 4    1  0.6055396E+003  0.1133852E+03  0.7546771E-02  0.1254426E+00
         21   -1    0    0  502  501  0.00000000000E+00  0.00000000000E+00  0.24146180072E+03  0.24146180072E+03  0.00000000000E+00 0.  1.
         21   -1    0    0  504  502 -0.00000000000E+00 -0.00000000000E+00 -0.53917665050E+02  0.53917665050E+02  0.00000000000E+00 0.  1.
         21    1    1    2  503  501  0.63987825403E+02  0.93604284432E+02  0.11029008592E+03  0.15817745388E+03  0.00000000000E+00 0.  1.
         21    1    1    2  504  503 -0.63987825403E+02 -0.93604284432E+02  0.77254049750E+02  0.13720201189E+03  0.00000000000E+00 0.  1.
<mgrwt>
<rscale>  2 0.11338520E+03</rscale>
<asrwt>0</asrwt>
<pdfrwt beam="1">  1       21 0.37147969E-01 0.11338520E+03</pdfrwt>
<pdfrwt beam="2">  1       21 0.82950255E-02 0.11338520E+03</pdfrwt>
<totfact> 0.79008156E+05</totfact>
</mgrwt>
</event>
<event>
 4    1  0.6055396E+003  0.1406199E+03  0.7546771E-02  0.1212497E+00
         21   -1    0    0  503  501  0.00000000000E+00  0.00000000000E+00  0.69561354143E+02  0.69561354143E+02  0.00000000000E+00 0.  1.
         21   -1    0    0  504  502 -0.00000000000E+00 -0.00000000000E+00 -0.38560309092E+03  0.38560309092E+03  0.00000000000E+00 0.  1.
         21    1    1    2  503  502 -0.13845449946E+03 -0.24582614170E+02 -0.41352932647E+02  0.14657427598E+03  0.00000000000E+00 0.  1.
         21    1    1    2  504  501  0.13845449946E+03  0.24582614170E+02 -0.27468880413E+03  0.30859016908E+03  0.00000000000E+00 0.  1.
<mgrwt>
<rscale>  2 0.14061989E+03</rscale>
<asrwt>0</asrwt>
<pdfrwt beam="1">  1       21 0.10701747E-01 0.14061989E+03</pdfrwt>
<pdfrwt beam="2">  1       21 0.59323552E-01 0.14061989E+03</pdfrwt>
<totfact> 0.19397870E+05</totfact>
</mgrwt>
</event>
<event>
 4    1  0.6055396E+003  0.1577778E+03  0.7546771E-02  0.1191229E+00
         21   -1    0    0  504  501  0.00000000000E+00  0.00000000000E+00  0.19408674397E+03  0.19408674397E+03  0.00000000000E+00 0. -1.
         21   -1    0    0  503  502 -0.00000000000E+00 -0.00000000000E+00 -0.15533200537E+03  0.15533200537E+03  0.00000000000E+00 0.  1.
         21    1    1    2  503  501 -0.11245825643E+03  0.11066602026E+03 -0.53557487206E+02  0.16662002256E+03  0.00000000000E+00 0.  1.
         21    1    1    2  504  502  0.11245825643E+03 -0.11066602026E+03  0.92312225810E+02  0.18279872679E+03  0.00000000000E+00 0. -1.
<mgrwt>
<rscale>  2 0.15777778E+03</rscale>
<asrwt>0</asrwt>
<pdfrwt beam="1">  1       21 0.29859499E-01 0.15777778E+03</pdfrwt>
<pdfrwt beam="2">  1       21 0.23897231E-01 0.15777778E+03</pdfrwt>
<totfact> 0.17941591E+05</totfact>
</mgrwt>
</event>
<event>
 4    1  0.6055396E+003  0.1279386E+03  0.7546771E-02  0.1230547E+00
         21   -1    0    0  504  501  0.00000000000E+00  0.00000000000E+00  0.15020275262E+04  0.15020275262E+04  0.00000000000E+00 0. -1.
         21   -1    0    0  501  502 -0.00000000000E+00 -0.00000000000E+00 -0.26444478207E+03  0.26444478207E+03  0.00000000000E+00 0. -1.
         21    1    1    2  503  502 -0.12631948490E+03 -0.20290029764E+02 -0.24605475265E+03  0.27732875595E+03  0.00000000000E+00 0. -1.
         21    1    1    2  504  503  0.12631948490E+03  0.20290029764E+02  0.14836374968E+04  0.14891435524E+04  0.00000000000E+00 0. -1.
<mgrwt>
<rscale>  2 0.12793865E+03</rscale>
<asrwt>0</asrwt>
<pdfrwt beam="1">  1       21 0.23108115E+00 0.12793865E+03</pdfrwt>
<pdfrwt beam="2">  1       21 0.40683814E-01 0.12793865E+03</pdfrwt>
<totfact> 0.55310968E+02</totfact>
</mgrwt>
</event>
<event>
 4    1  0.6055396E+003  0.1234952E+03  0.7546771E-02  0.1237440E+00
         21   -1    0    0  504  501  0.00000000000E+00  0.00000000000E+00  0.26893983777E+03  0.26893983777E+03  0.00000000000E+00 0.  1.
         21   -1    0    0  501  502 -0.00000000000E+00 -0.00000000000E+00 -0.13203202925E+03  0.13203202925E+03  0.00000000000E+00 0.  1.
         21    1    1    2  503  502 -0.31431719227E+02 -0.11942829423E+03 -0.82975671916E+02  0.14878182875E+03  0.00000000000E+00 0.  1.
         21    1    1    2  504  503  0.31431719227E+02  0.11942829423E+03  0.21988348043E+03  0.25219003827E+03  0.00000000000E+00 0.  1.
<mgrwt>
<rscale>  2 0.12349522E+03</rscale>
<asrwt>0</asrwt>
<pdfrwt beam="1">  1       21 0.41375360E-01 0.12349522E+03</pdfrwt>
<pdfrwt beam="2">  1       21 0.20312620E-01 0.12349522E+03</pdfrwt>
<totfact> 0.12918892E+05</totfact>
</mgrwt>
</event>
<event>
 4    1  0.6055396E+003  0.1083594E+03  0.7546771E-02  0.1263638E+00
         21   -1    0    0  503  501  0.00000000000E+00  0.00000000000E+00  0.67080412002E+03  0.67080412002E+03  0.00000000000E+00 0.  1.
         21   -1    0    0  504  502 -0.00000000000E+00 -0.00000000000E+00 -0.14069948226E+03  0.14069948226E+03  0.00000000000E+00 0.  1.
         21    1    1    2  503  502  0.10967232790E+02 -0.10780298785E+03  0.64472694489E+03  0.65376952962E+03  0.00000000000E+00 0.  1.
         21    1    1    2  504  501 -0.10967232790E+02  0.10780298785E+03 -0.11462230714E+03  0.15773407266E+03  0.00000000000E+00 0.  1.
<mgrwt>
<rscale>  2 0.10835942E+03</rscale>
<asrwt>0</asrwt>
<pdfrwt beam="1">  1       21 0.10320063E+00 0.10835942E+03</pdfrwt>
<pdfrwt beam="2">  1       21 0.21646075E-01 0.10835942E+03</pdfrwt>
<totfact> 0.16161309E+04</totfact>
</mgrwt>
</event>
<event>
 4    1  0.6055396E+003  0.1299585E+03  0.7546771E-02  0.1227517E+00
         21   -1    0    0  504  501  0.00000000000E+00  0.00000000000E+00  0.10499784162E+02  0.10499784162E+02  0.00000000000E+00 0. -1.
         21   -1    0    0  503  502 -0.00000000000E+00 -0.00000000000E+00 -0.22198742963E+04  0.22198742963E+04  0.00000000000E+00 0. -1.
         21    1    1    2  503  501 -0.17037296842E+02 -0.12883690319E+03 -0.16899171187E+04  0.16949068072E+04  0.00000000000E+00 0. -1.
         21    1    1    2  504  502  0.17037296842E+02  0.12883690319E+03 -0.51945739347E+03  0.53546727327E+03  0.00000000000E+00 0. -1.
<mgrwt>
<rscale>  2 0.12995852E+03</rscale>
<asrwt>0</asrwt>
<pdfrwt beam="1">  1       21 0.16153513E-02 0.12995852E+03</pdfrwt>
<pdfrwt beam="2">  1       21 0.34151915E+00 0.12995852E+03</pdfrwt>
<totfact> 0.36798242E+04</totfact>
</mgrwt>
</event>
<event>
 4    1  0.6055396E+003  0.1128891E+03  0.7546771E-02  0.1255311E+00
         21   -1    0    0  503  501  0.00000000000E+00  0.00000000000E+00  0.33559525413E+03  0.33559525413E+03  0.00000000000E+00 0.  1.
         21   -1    0    0  504  502 -0.00000000000E+00 -0.00000000000E+00 -0.23984378423E+03  0.23984378423E+03  0.00000000000E+00 0. -1.
         21    1    1    2  503  502 -0.99128193427E+02 -0.54014255529E+02 -0.21608577816E+03  0.24379705096E+03  0.00000000000E+00 0. -1.
         21    1    1    2  504  501  0.99128193427E+02  0.54014255529E+02  0.31183724805E+03  0.33164198740E+03  0.00000000000E+00 0.  1.
<mgrwt>
<rscale>  2 0.11288905E+03</rscale>
<asrwt>0</asrwt>
<pdfrwt beam="1">  1       21 0.51630039E-01 0.11288905E+03</pdfrwt>
<pdfrwt beam="2">  1       21 0.36899044E-01 0.11288905E+03</pdfrwt>
<totfact> 0.26545599E+04</totfact>
</mgrwt>
</event>
<event>
 4    1  0.6055396E+003  0.1369958E+03  0.7546771E-02  0.1217429E+00
         21   -1    0    0  504  501  0.00000000000E+00  0.00000000000E+00  0.54784756260E+02  0.54784756260E+02  0.00000000000E+00 0.  1.
         21   -1    0    0  503  502 -0.00000000000E+00 -0.00000000000E+00 -0.41343042303E+03  0.41343042303E+03  0.00000000000E+00 0.  1.
         21    1    1    2  503  501  0.14188812297E+02  0.13625901565E+03 -0.82405064881E+02  0.15987006117E+03  0.00000000000E+00 0.  1.
         21    1    1    2  504  502 -0.14188812297E+02 -0.13625901565E+03 -0.27624060189E+03  0.30834511813E+03  0.00000000000E+00 0.  1.
<mgrwt>
<rscale>  2 0.13699577E+03</rscale>
<asrwt>0</asrwt>
<pdfrwt beam="1">  1       21 0.84284242E-02 0.13699577E+03</pdfrwt>
<pdfrwt beam="2">  1       21 0.63604679E-01 0.13699577E+03</pdfrwt>
<totfact> 0.25388351E+05</totfact>
</mgrwt>
</event>
<event>
 4    1  0.6055396E+003  0.1212251E+03  0.7546771E-02  0.1241090E+00
         21   -1    0    0  503  501  0.00000000000E+00  0.00000000000E+00  0.95283113499E+02  0.95283113499E+02  0.00000000000E+00 0. -1.
         21   -1    0    0  504  502 -0.00000000000E+00 -0.00000000000E+00 -0.15440459302E+03  0.15440459302E+03  0.00000000000E+00 0. -1.
         21    1    1    2  503  502  0.49795451118E+02 -0.11052578623E+03 -0.33756068734E+02  0.12583723039E+03  0.00000000000E+00 0. -1.
         21    1    1    2  504  501 -0.49795451118E+02  0.11052578623E+03 -0.25365410790E+02  0.12385047614E+03  0.00000000000E+00 0. -1.
<mgrwt>
<rscale>  2 0.12122515E+03</rscale>
<asrwt>0</asrwt>
<pdfrwt beam="1">  1       21 0.14658941E-01 0.12122515E+03</pdfrwt>
<pdfrwt beam="2">  1       21 0.23754553E-01 0.12122515E+03</pdfrwt>
<totfact> 0.68614475E+05</totfact>
</mgrwt>
</event>
<event>
 4    1  0.6055396E+003  0.2228256E+03  0.7546771E-02  0.1131794E+00
         21   -1    0    0  504  501  0.00000000000E+00  0.00000000000E+00  0.21985214659E+03  0.21985214659E+03  0.00000000000E+00 0. -1.
         21   -1    0    0  501  502 -0.00000000000E+00 -0.00000000000E+00 -0.78296651751E+03  0.78296651751E+03  0.00000000000E+00 0. -1.
         21    1    1    2  503  502  0.31413804609E+02 -0.22060009606E+03 -0.70451597088E+03  0.73891405638E+03  0.00000000000E+00 0. -1.
         21    1    1    2  504  503 -0.31413804609E+02  0.22060009606E+03  0.14140159996E+03  0.26390460772E+03  0.00000000000E+00 0. -1.
<mgrwt>
<rscale>  2 0.22282556E+03</rscale>
<asrwt>0</asrwt>
<pdfrwt beam="1">  1       21 0.33823407E-01 0.22282556E+03</pdfrwt>
<pdfrwt beam="2">  1       21 0.12045639E+00 0.22282556E+03</pdfrwt>
<totfact> 0.43013499E+03</totfact>
</mgrwt>
</event>
<event>
 4    1  0.6055396E+003  0.2231703E+03  0.7546771E-02  0.1131541E+00
         21   -1    0    0  502  501  0.00000000000E+00  0.00000000000E+00  0.12021488735E+03  0.12021488735E+03  0.00000000000E+00 0.  1.
         21   -1    0    0  504  502 -0.00000000000E+00 -0.00000000000E+00 -0.42248480193E+03  0.42248480193E+03  0.00000000000E+00 0. -1.
         21    1    1    2  503  501  0.45844458504E+02  0.21841074149E+03 -0.11336541853E+03  0.25031317283E+03  0.00000000000E+00 0.  1.
         21    1    1    2  504  503 -0.45844458504E+02 -0.21841074149E+03 -0.18890449605E+03  0.29238651645E+03  0.00000000000E+00 0. -1.
<mgrwt>
<rscale>  2 0.22317026E+03</rscale>
<asrwt>0</asrwt>
<pdfrwt beam="1">  1       21 0.18494598E-01 0.22317026E+03</pdfrwt>
<pdfrwt beam="2">  1       21 0.64997662E-01 0.22317026E+03</pdfrwt>
<totfact> 0.57389646E+04</totfact>
</mgrwt>
</event>
<event>
 4    1  0.6055396E+003  0.1352671E+03  0.7546771E-02  0.1219843E+00
         21   -1    0    0  503  501  0.00000000000E+00  0.00000000000E+00  0.32602330811E+03  0.32602330811E+03  0.00000000000E+00 0.  1.
         21   -1    0    0  504  502 -0.00000000000E+00 -0.00000000000E+00 -0.13345129039E+03  0.13345129039E+03  0.00000000000E+00 0.  1.
         21    1    1    2  503  502 -0.28134603074E+02  0.13230884442E+03 -0.78594424610E+02  0.15644254467E+03  0.00000000000E+00 0.  1.
         21    1    1    2  504  501  0.28134603074E+02 -0.13230884442E+03  0.27116644233E+03  0.30303205383E+03  0.00000000000E+00 0.  1.
<mgrwt>
<rscale>  2 0.13526709E+03</rscale>
<asrwt>0</asrwt>
<pdfrwt beam="1">  1       21 0.50157432E-01 0.13526709E+03</pdfrwt>
<pdfrwt beam="2">  1       21 0.20530968E-01 0.13526709E+03</pdfrwt>
<totfact> 0.85194599E+04</totfact>
</mgrwt>
</event>
<event>
 4    1  0.6055396E+003  0.1158551E+03  0.7546771E-02  0.1250096E+00
         21   -1    0    0  502  501  0.00000000000E+00  0.00000000000E+00  0.22294451086E+03  0.22294451086E+03  0.00000000000E+00 0. -1.
         21   -1    0    0  504  502 -0.00000000000E+00 -0.00000000000E+00 -0.65144430519E+02  0.65144430519E+02  0.00000000000E+00 0. -1.
         21    1    1    2  503  501 -0.18137803228E+02  0.11442650000E+03  0.11856349711E+03  0.16577004149E+03  0.00000000000E+00 0. -1.
         21    1    1    2  504  503  0.18137803228E+02 -0.11442650000E+03  0.39236583227E+02  0.12231889989E+03  0.00000000000E+00 0. -1.
<mgrwt>
<rscale>  2 0.11585510E+03</rscale>
<asrwt>0</asrwt>
<pdfrwt beam="1">  1       21 0.34299155E-01 0.11585510E+03</pdfrwt>
<pdfrwt beam="2">  1       21 0.10022220E-01 0.11585510E+03</pdfrwt>
<totfact> 0.66574080E+05</totfact>
</mgrwt>
</event>
<event>
 4    1  0.6055396E+003  0.1069187E+03  0.7546771E-02  0.1266385E+00
         21   -1    0    0  503  501  0.00000000000E+00  0.00000000000E+00  0.15470677340E+03  0.15470677340E+03  0.00000000000E+00 0.  1.
         21   -1    0    0  504  502 -0.00000000000E+00 -0.00000000000E+00 -0.11422824857E+03  0.11422824857E+03  0.00000000000E+00 0. -1.
         21    1    1    2  503  502  0.95655911189E+02  0.47765601290E+02  0.10014498869E+03  0.14649445304E+03  0.00000000000E+00 0.  1.
         21    1    1    2  504  501 -0.95655911189E+02 -0.47765601290E+02 -0.59666463854E+02  0.12244056893E+03  0.00000000000E+00 0. -1.
<mgrwt>
<rscale>  2 0.10691869E+03</rscale>
<asrwt>0</asrwt>
<pdfrwt beam="1">  1       21 0.23801042E-01 0.10691869E+03</pdfrwt>
<pdfrwt beam="2">  1       21 0.17573577E-01 0.10691869E+03</pdfrwt>
<totfact> 0.49282407E+05</totfact>
</mgrwt>
</event>
<event>
 4    1  0.6055396E+003  0.1274865E+03  0.7546771E-02  0.1231234E+00
         21   -1    0    0  503  501  0.00000000000E+00  0.00000000000E+00  0.63261957513E+03  0.63261957513E+03  0.00000000000E+00 0.  1.
         21   -1    0    0  501  502 -0.00000000000E+00 -0.00000000000E+00 -0.25036757009E+03  0.25036757009E+03  0.00000000000E+00 0.  1.
         21    1    1    2  503  504  0.32697079702E+02  0.12322217172E+03  0.60935484156E+03  0.62254809096E+03  0.00000000000E+00 0.  1.
         21    1    1    2  504  502 -0.32697079702E+02 -0.12322217172E+03 -0.22710283652E+03  0.26043905425E+03  0.00000000000E+00 0.  1.
<mgrwt>
<rscale>  2 0.12748648E+03</rscale>
<asrwt>0</asrwt>
<pdfrwt beam="1">  1       21 0.97326088E-01 0.12748648E+03</pdfrwt>
<pdfrwt beam="2">  1       21 0.38518088E-01 0.12748648E+03</pdfrwt>
<totfact> 0.60218763E+03</totfact>
</mgrwt>
</event>
<event>
 4    1  0.6055396E+003  0.2715745E+03  0.7546771E-02  0.1100382E+00
         21   -1    0    0  503  501  0.00000000000E+00  0.00000000000E+00  0.18955044896E+03  0.18955044896E+03  0.00000000000E+00 0.  1.
         21   -1    0    0  504  502 -0.00000000000E+00 -0.00000000000E+00 -0.44704569651E+03  0.44704569651E+03  0.00000000000E+00 0.  1.
         21    1    1    2  503  502 -0.19779791682E+03  0.18608785920E+03 -0.24335056804E+03  0.36465354270E+03  0.00000000000E+00 0.  1.
         21    1    1    2  504  501  0.19779791682E+03 -0.18608785920E+03 -0.14144679508E+02  0.27194260276E+03  0.00000000000E+00 0.  1.
<mgrwt>
<rscale>  2 0.27157450E+03</rscale>
<asrwt>0</asrwt>
<pdfrwt beam="1">  1       21 0.29161608E-01 0.27157450E+03</pdfrwt>
<pdfrwt beam="2">  1       21 0.68776260E-01 0.27157450E+03</pdfrwt>
<totfact> 0.20817848E+04</totfact>
</mgrwt>
</event>
<event>
 4    1  0.6055396E+003  0.1570342E+03  0.7546771E-02  0.1192086E+00
         21   -1    0    0  504  501  0.00000000000E+00  0.00000000000E+00  0.46149835279E+03  0.46149835279E+03  0.00000000000E+00 0. -1.
         21   -1    0    0  503  502 -0.00000000000E+00 -0.00000000000E+00 -0.77737941897E+02  0.77737941897E+02  0.00000000000E+00 0. -1.
         21    1    1    2  503  501 -0.84912663680E+02  0.13209687561E+03  0.34263465752E+03  0.37690616012E+03  0.00000000000E+00 0. -1.
         21    1    1    2  504  502  0.84912663680E+02 -0.13209687561E+03  0.41125753367E+02  0.16233013457E+03  0.00000000000E+00 0. -1.
<mgrwt>
<rscale>  2 0.15703422E+03</rscale>
<asrwt>0</asrwt>
<pdfrwt beam="1">  1       21 0.70999745E-01 0.15703422E+03</pdfrwt>
<pdfrwt beam="2">  1       21 0.11959684E-01 0.15703422E+03</pdfrwt>
<totfact> 0.10751331E+05</totfact>
</mgrwt>
</event>
<event>
 4    1  0.6055396E+003  0.1018596E+03  0.7546771E-02  0.1276433E+00
         21   -1    0    0  504  501  0.00000000000E+00  0.00000000000E+00  0.13817437107E+03  0.13817437107E+03  0.00000000000E+00 0. -1.
         21   -1    0    0  503  502 -0.00000000000E+00 -0.00000000000E+00 -0.16385334164E+03  0.16385334164E+03  0.00000000000E+00 0. -1.
         21    1    1    2  503  501  0.83757257867E+02 -0.57966399080E+02  0.98310216778E+02  0.14156369729E+03  0.00000000000E+00 0. -1.
         21    1    1    2  504  502 -0.83757257867E+02  0.57966399080E+02 -0.12398918734E+03  0.16046401542E+03  0.00000000000E+00 0. -1.
<mgrwt>
<rscale>  2 0.10185962E+03</rscale>
<asrwt>0</asrwt>
<pdfrwt beam="1">  1       21 0.21257595E-01 0.10185962E+03</pdfrwt>
<pdfrwt beam="2">  1       21 0.25208207E-01 0.10185962E+03</pdfrwt>
<totfact> 0.31237609E+05</totfact>
</mgrwt>
</event>
<event>
 4    1  0.6055396E+003  0.1023443E+03  0.7546771E-02  0.1275442E+00
         21   -1    0    0  504  501  0.00000000000E+00  0.00000000000E+00  0.34819652818E+03  0.34819652818E+03  0.00000000000E+00 0.  1.
         21   -1    0    0  503  502 -0.00000000000E+00 -0.00000000000E+00 -0.54219954733E+02  0.54219954733E+02  0.00000000000E+00 0. -1.
         21    1    1    2  503  501  0.69046549863E+02  0.75544242779E+02  0.12736915148E+02  0.10313383379E+03  0.00000000000E+00 0. -1.
         21    1    1    2  504  502 -0.69046549863E+02 -0.75544242779E+02  0.28123965830E+03  0.29928264912E+03  0.00000000000E+00 0.  1.
<mgrwt>
<rscale>  2 0.10234431E+03</rscale>
<asrwt>0</asrwt>
<pdfrwt beam="1">  1       21 0.53568695E-01 0.10234431E+03</pdfrwt>
<pdfrwt beam="2">  1       21 0.83415317E-02 0.10234431E+03</pdfrwt>
<totfact> 0.37373148E+05</totfact>
</mgrwt>
</event>
<event>
 4    1  0.6055396E+003  0.1768696E+03  0.7546771E-02  0.1170868E+00
         21   -1    0    0  502  501  0.00000000000E+00  0.00000000000E+00  0.99195796545E+02  0.99195796545E+02  0.00000000000E+00 0. -1.
         21   -1    0    0  504  502 -0.00000000000E+00 -0.00000000000E+00 -0.92090115887E+03  0.92090115887E+03  0.00000000000E+00 0.  1.
         21    1    1    2  503  501  0.11824052883E+03  0.13153713982E+03  0.27421793744E+01  0.17689081762E+03  0.00000000000E+00 0. -1.
         21    1    1    2  504  503 -0.11824052883E+03 -0.13153713982E+03 -0.82444754170E+03  0.84320613780E+03  0.00000000000E+00 0.  1.
<mgrwt>
<rscale>  2 0.17686956E+03</rscale>
<asrwt>0</asrwt>
<pdfrwt beam="1">  1       21 0.15260893E-01 0.17686956E+03</pdfrwt>
<pdfrwt beam="2">  1       21 0.14167709E+00 0.17686956E+03</pdfrwt>
<totfact> 0.13341338E+04</totfact>
</mgrwt>
</event>
<event>
 4    1  0.6055396E+003  0.1090113E+03  0.7546771E-02  0.1262412E+00
         21   -1    0    0  502  501  0.00000000000E+00  0.00000000000E+00  0.94654902532E+03  0.94654902532E+03  0.00000000000E+00 0. -1.
         21   -1    0    0  503  502 -0.00000000000E+00 -0.00000000000E+00 -0.43636688478E+02  0.43636688478E+02  0.00000000000E+00 0.  1.
         21    1    1    2  503  504  0.85201695911E+01  0.10867782760E+03  0.33609964444E+02  0.11407494560E+03  0.00000000000E+00 0.  1.
         21    1    1    2  504  501 -0.85201695911E+01 -0.10867782760E+03  0.86930237240E+03  0.87611076820E+03  0.00000000000E+00 0. -1.
<mgrwt>
<rscale>  2 0.10901130E+03</rscale>
<asrwt>0</asrwt>
<pdfrwt beam="1">  1       21 0.14562291E+00 0.10901130E+03</pdfrwt>
<pdfrwt beam="2">  1       21 0.67133374E-02 0.10901130E+03</pdfrwt>
<totfact> 0.55276982E+04</totfact>
</mgrwt>
</event>
<event>
 4    1  0.6055396E+003  0.1563615E+03  0.7546771E-02  0.1192867E+00
         21   -1    0    0  503  501  0.00000000000E+00  0.00000000000E+00  0.39127272475E+03  0.39127272475E+03  0.00000000000E+00 0. -1.
         21   -1    0    0  504  502 -0.00000000000E+00 -0.00000000000E+00 -0.88037715286E+02  0.88037715286E+02  0.00000000000E+00 0. -1.
         21    1    1    2  503  502  0.21754900059E+02  0.15484068018E+03  0.28072929998E+03  0.32133759783E+03  0.00000000000E+00 0. -1.
         21    1    1    2  504  501 -0.21754900059E+02 -0.15484068018E+03  0.22505709486E+02  0.15797284220E+03  0.00000000000E+00 0. -1.
<mgrwt>
<rscale>  2 0.15636148E+03</rscale>
<asrwt>0</asrwt>
<pdfrwt beam="1">  1       21 0.60195803E-01 0.15636148E+03</pdfrwt>
<pdfrwt beam="2">  1       21 0.13544264E-01 0.15636148E+03</pdfrwt>
<totfact> 0.12310120E+05</totfact>
</mgrwt>
</event>
<event>
 4    1  0.6055396E+003  0.1033482E+03  0.7546771E-02  0.1273409E+00
         21   -1    0    0  503  501  0.00000000000E+00  0.00000000000E+00  0.33196957350E+03  0.33196957350E+03  0.00000000000E+00 0.  1.
         21   -1    0    0  501  502 -0.00000000000E+00 -0.00000000000E+00 -0.11022702334E+03  0.11022702334E+03  0.00000000000E+00 0. -1.
         21    1    1    2  503  504 -0.10167993141E+03 -0.18494423813E+02  0.29692385498E+03  0.31439565490E+03  0.00000000000E+00 0.  1.
         21    1    1    2  504  502  0.10167993141E+03  0.18494423813E+02 -0.75181304830E+02  0.12780094194E+03  0.00000000000E+00 0. -1.
<mgrwt>
<rscale>  2 0.10334821E+03</rscale>
<asrwt>0</asrwt>
<pdfrwt beam="1">  1       21 0.51072242E-01 0.10334821E+03</pdfrwt>
<pdfrwt beam="2">  1       21 0.16958004E-01 0.10334821E+03</pdfrwt>
<totfact> 0.11815192E+05</totfact>
</mgrwt>
</event>
<event>
 4    1  0.6055396E+003  0.1237847E+03  0.7546771E-02  0.1236981E+00
         21   -1    0    0  503  501  0.00000000000E+00  0.00000000000E+00  0.22485125818E+03  0.22485125818E+03  0.00000000000E+00 0. -1.
         21   -1    0    0  501  502 -0.00000000000E+00 -0.00000000000E+00 -0.12350682681E+03  0.12350682681E+03  0.00000000000E+00 0. -1.
         21    1    1    2  503  504 -0.11833902346E+03 -0.36311493986E+02  0.16728678982E+03  0.20810458697E+03  0.00000000000E+00 0. -1.
         21    1    1    2  504  502  0.11833902346E+03  0.36311493986E+02 -0.65942358448E+02  0.14025349802E+03  0.00000000000E+00 0. -1.
<mgrwt>
<rscale>  2 0.12378469E+03</rscale>
<asrwt>0</asrwt>
<pdfrwt beam="1">  1       21 0.34592501E-01 0.12378469E+03</pdfrwt>
<pdfrwt beam="2">  1       21 0.19001050E-01 0.12378469E+03</pdfrwt>
<totfact> 0.20832910E+05</totfact>
</mgrwt>
</event>
<event>
 4    1  0.6055396E+003  0.1222704E+03  0.7546771E-02  0.1239398E+00
         21   -1    0    0  503  501  0.00000000000E+00  0.00000000000E+00  0.58104217274E+03  0.58104217274E+03  0.00000000000E+00 0.  1.
         21   -1    0    0  501  502 -0.00000000000E+00 -0.00000000000E+00 -0.12651978137E+03  0.12651978137E+03  0.00000000000E+00 0. -1.
         21    1    1    2  503  504  0.52895886914E+02  0.11023644728E+03  0.54302629544E+03  0.55662160100E+03  0.00000000000E+00 0.  1.
         21    1    1    2  504  502 -0.52895886914E+02 -0.11023644728E+03 -0.88503904073E+02  0.15094035311E+03  0.00000000000E+00 0. -1.
<mgrwt>
<rscale>  2 0.12227039E+03</rscale>
<asrwt>0</asrwt>
<pdfrwt beam="1">  1       21 0.89391102E-01 0.12227039E+03</pdfrwt>
<pdfrwt beam="2">  1       21 0.19464582E-01 0.12227039E+03</pdfrwt>
<totfact> 0.27088611E+04</totfact>
</mgrwt>
</event>
<event>
 4    1  0.6055396E+003  0.1291373E+03  0.7546771E-02  0.1228741E+00
         21   -1    0    0  503  501  0.00000000000E+00  0.00000000000E+00  0.52226013955E+02  0.52226013955E+02  0.00000000000E+00 0.  1.
         21   -1    0    0  504  502 -0.00000000000E+00 -0.00000000000E+00 -0.34008540917E+03  0.34008540917E+03  0.00000000000E+00 0.  1.
         21    1    1    2  503  502 -0.12562088703E+02  0.12852482869E+03 -0.19240850199E+03  0.23172714407E+03  0.00000000000E+00 0.  1.
         21    1    1    2  504  501  0.12562088703E+02 -0.12852482869E+03 -0.95450893231E+02  0.16058427906E+03  0.00000000000E+00 0.  1.
<mgrwt>
<rscale>  2 0.12913728E+03</rscale>
<asrwt>0</asrwt>
<pdfrwt beam="1">  1       21 0.80347713E-02 0.12913728E+03</pdfrwt>
<pdfrwt beam="2">  1       21 0.52320833E-01 0.12913728E+03</pdfrwt>
<totfact> 0.41712998E+05</totfact>
</mgrwt>
</event>
<event>
 4    1  0.6055396E+003  0.1081977E+03  0.7546771E-02  0.1263944E+00
         21   -1    0    0  502  501  0.00000000000E+00  0.00000000000E+00  0.21115718923E+03  0.21115718923E+03  0.00000000000E+00 0. -1.
         21   -1    0    0  504  502 -0.00000000000E+00 -0.00000000000E+00 -0.26188367512E+03  0.26188367512E+03  0.00000000000E+00 0.  1.
         21    1    1    2  503  501  0.24645007114E+02  0.10535356297E+03  0.18463432728E+03  0.21400136546E+03  0.00000000000E+00 0. -1.
         21    1    1    2  504  503 -0.24645007114E+02 -0.10535356297E+03 -0.23536081317E+03  0.25903949889E+03  0.00000000000E+00 0.  1.
<mgrwt>
<rscale>  2 0.10819773E+03</rscale>
<asrwt>0</asrwt>
<pdfrwt beam="1">  1       21 0.32485721E-01 0.10819773E+03</pdfrwt>
<pdfrwt beam="2">  1       21 0.40289796E-01 0.10819773E+03</pdfrwt>
<totfact> 0.56475972E+04</totfact>
</mgrwt>
</event>
<event>
 4    1  0.6055396E+003  0.1619174E+03  0.7546771E-02  0.1186549E+00
         21   -1    0    0  503  501  0.00000000000E+00  0.00000000000E+00  0.21312360185E+03  0.21312360185E+03  0.00000000000E+00 0.  1.
         21   -1    0    0  504  502 -0.00000000000E+00 -0.00000000000E+00 -0.12349440630E+03  0.12349440630E+03  0.00000000000E+00 0.  1.
         21    1    1    2  503  502 -0.11230011685E+03 -0.11664452081E+03  0.55308370227E+02  0.17110311598E+03  0.00000000000E+00 0.  1.
         21    1    1    2  504  501  0.11230011685E+03  0.11664452081E+03  0.34320825324E+02  0.16551489218E+03  0.00000000000E+00 0.  1.
<mgrwt>
<rscale>  2 0.16191745E+03</rscale>
<asrwt>0</asrwt>
<pdfrwt beam="1">  1       21 0.32788246E-01 0.16191745E+03</pdfrwt>
<pdfrwt beam="2">  1       21 0.18999139E-01 0.16191745E+03</pdfrwt>
<totfact> 0.22935442E+05</totfact>
</mgrwt>
</event>
<event>
 4    1  0.6055396E+003  0.1604707E+03  0.7546771E-02  0.1188166E+00
         21   -1    0    0  503  501  0.00000000000E+00  0.00000000000E+00  0.43620828780E+02  0.43620828780E+02  0.00000000000E+00 0.  1.
         21   -1    0    0  501  502 -0.00000000000E+00 -0.00000000000E+00 -0.10321480220E+04  0.10321480220E+04  0.00000000000E+00 0.  1.
         21    1    1    2  503  504  0.10807162053E+03  0.11862282880E+03 -0.14234857044E+03  0.21450866226E+03  0.00000000000E+00 0.  1.
         21    1    1    2  504  502 -0.10807162053E+03 -0.11862282880E+03 -0.84617862278E+03  0.86126018851E+03  0.00000000000E+00 0.  1.
<mgrwt>
<rscale>  2 0.16047072E+03</rscale>
<asrwt>0</asrwt>
<pdfrwt beam="1">  1       21 0.67108970E-02 0.16047072E+03</pdfrwt>
<pdfrwt beam="2">  1       21 0.15879200E+00 0.16047072E+03</pdfrwt>
<totfact> 0.42638395E+04</totfact>
</mgrwt>
</event>
<event>
 4    1  0.6055396E+003  0.1313487E+03  0.7546771E-02  0.1225468E+00
         21   -1    0    0  503  501  0.00000000000E+00  0.00000000000E+00  0.48183535137E+03  0.48183535137E+03  0.00000000000E+00 0. -1.
         21   -1    0    0  501  502 -0.00000000000E+00 -0.00000000000E+00 -0.88139763523E+02  0.88139763523E+02  0.00000000000E+00 0. -1.
         21    1    1    2  503  504 -0.19147693650E+02 -0.12994556218E+03  0.41644758270E+03  0.43667043916E+03  0.00000000000E+00 0. -1.
         21    1    1    2  504  502  0.19147693650E+02  0.12994556218E+03 -0.22751994846E+02  0.13330467574E+03  0.00000000000E+00 0. -1.
<mgrwt>
<rscale>  2 0.13134871E+03</rscale>
<asrwt>0</asrwt>
<pdfrwt beam="1">  1       21 0.74128514E-01 0.13134871E+03</pdfrwt>
<pdfrwt beam="2">  1       21 0.13559964E-01 0.13134871E+03</pdfrwt>
<totfact> 0.78966619E+04</totfact>
</mgrwt>
</event>
<event>
 4    1  0.6055396E+003  0.1076528E+03  0.7546771E-02  0.1264979E+00
         21   -1    0    0  503  501  0.00000000000E+00  0.00000000000E+00  0.32856720844E+02  0.32856720844E+02  0.00000000000E+00 0. -1.
         21   -1    0    0  504  502 -0.00000000000E+00 -0.00000000000E+00 -0.39444419156E+03  0.39444419156E+03  0.00000000000E+00 0. -1.
         21    1    1    2  503  502  0.97706296466E+02 -0.45195085899E+02 -0.11130380722E+03  0.15484719455E+03  0.00000000000E+00 0. -1.
         21    1    1    2  504  501 -0.97706296466E+02  0.45195085899E+02 -0.25028366350E+03  0.27245371786E+03  0.00000000000E+00 0. -1.
<mgrwt>
<rscale>  2 0.10765276E+03</rscale>
<asrwt>0</asrwt>
<pdfrwt beam="1">  1       21 0.50548799E-02 0.10765276E+03</pdfrwt>
<pdfrwt beam="2">  1       21 0.60683725E-01 0.10765276E+03</pdfrwt>
<totfact> 0.67250252E+05</totfact>
</mgrwt>
</event>
<event>
 4    1  0.6055396E+003  0.1121717E+03  0.7546771E-02  0.1256600E+00
         21   -1    0    0  503  501  0.00000000000E+00  0.00000000000E+00  0.31059912644E+03  0.31059912644E+03  0.00000000000E+00 0.  1.
         21   -1    0    0  504  502 -0.00000000000E+00 -0.00000000000E+00 -0.16189706162E+03  0.16189706162E+03  0.00000000000E+00 0. -1.
         21    1    1    2  503  502  0.10890032008E+03 -0.26892434065E+02 -0.13021540595E+03  0.17186778252E+03  0.00000000000E+00 0. -1.
         21    1    1    2  504  501 -0.10890032008E+03  0.26892434065E+02  0.27891747077E+03  0.30062840555E+03  0.00000000000E+00 0.  1.
<mgrwt>
<rscale>  2 0.11217167E+03</rscale>
<asrwt>0</asrwt>
<pdfrwt beam="1">  1       21 0.47784481E-01 0.11217167E+03</pdfrwt>
<pdfrwt beam="2">  1       21 0.24907240E-01 0.11217167E+03</pdfrwt>
<totfact> 0.66332223E+04</totfact>
</mgrwt>
</event>
<event>
 4    1  0.6055396E+003  0.1167202E+03  0.7546771E-02  0.1248608E+00
         21   -1    0    0  502  501  0.00000000000E+00  0.00000000000E+00  0.31768469537E+03  0.31768469537E+03  0.00000000000E+00 0.  1.
         21   -1    0    0  504  502 -0.00000000000E+00 -0.00000000000E+00 -0.10693845012E+03  0.10693845012E+03  0.00000000000E+00 0.  1.
         21    1    1    2  503  501 -0.10958482328E+03 -0.40184308504E+02  0.26968961182E+03  0.29386408230E+03  0.00000000000E+00 0.  1.
         21    1    1    2  504  503  0.10958482328E+03  0.40184308504E+02 -0.58943366562E+02  0.13075906319E+03  0.00000000000E+00 0.  1.
<mgrwt>
<rscale>  2 0.11672023E+03</rscale>
<asrwt>0</asrwt>
<pdfrwt beam="1">  1       21 0.48874568E-01 0.11672023E+03</pdfrwt>
<pdfrwt beam="2">  1       21 0.16452069E-01 0.11672023E+03</pdfrwt>
<totfact> 0.13587533E+05</totfact>
</mgrwt>
</event>
<event>
 4    1  0.6055396E+003  0.1174883E+03  0.7546771E-02  0.1247299E+00
         21   -1    0    0  502  501  0.00000000000E+00  0.00000000000E+00  0.10531098770E+04  0.10531098770E+04  0.00000000000E+00 0.  1.
         21   -1    0    0  504  502 -0.00000000000E+00 -0.00000000000E+00 -0.68080863752E+02  0.68080863752E+02  0.00000000000E+00 0. -1.
         21    1    1    2  503  501  0.10474387105E+03  0.53218555158E+02  0.99626290280E+03  0.10031666186E+04  0.00000000000E+00 0.  1.
         21    1    1    2  504  503 -0.10474387105E+03 -0.53218555158E+02 -0.11233889573E+02  0.11802412215E+03  0.00000000000E+00 0. -1.
<mgrwt>
<rscale>  2 0.11748827E+03</rscale>
<asrwt>0</asrwt>
<pdfrwt beam="1">  1       21 0.16201689E+00 0.11748827E+03</pdfrwt>
<pdfrwt beam="2">  1       21 0.10473980E-01 0.11748827E+03</pdfrwt>
<totfact> 0.19319414E+04</totfact>
</mgrwt>
</event>
<event>
 4    1  0.6055396E+003  0.1110536E+03  0.7546771E-02  0.1258631E+00
         21   -1    0    0  502  501  0.00000000000E+00  0.00000000000E+00  0.36263649171E+03  0.36263649171E+03  0.00000000000E+00 0.  1.
         21   -1    0    0  504  502 -0.00000000000E+00 -0.00000000000E+00 -0.20344338697E+03  0.20344338697E+03  0.00000000000E+00 0.  1.
         21    1    1    2  503  501  0.11084873470E+03 -0.67423044420E+01  0.33789793152E+03  0.35567950852E+03  0.00000000000E+00 0.  1.
         21    1    1    2  504  503 -0.11084873470E+03  0.67423044420E+01 -0.17870482677E+03  0.21040037016E+03  0.00000000000E+00 0.  1.
<mgrwt>
<rscale>  2 0.11105359E+03</rscale>
<asrwt>0</asrwt>
<pdfrwt beam="1">  1       21 0.55790229E-01 0.11105359E+03</pdfrwt>
<pdfrwt beam="2">  1       21 0.31298983E-01 0.11105359E+03</pdfrwt>
<totfact> 0.31195799E+04</totfact>
</mgrwt>
</event>
<event>
 4    1  0.6055396E+003  0.1241073E+03  0.7546771E-02  0.1236471E+00
         21   -1    0    0  504  501  0.00000000000E+00  0.00000000000E+00  0.34429619228E+02  0.34429619228E+02  0.00000000000E+00 0.  1.
         21   -1    0    0  501  502 -0.00000000000E+00 -0.00000000000E+00 -0.84914707714E+03  0.84914707714E+03  0.00000000000E+00 0.  1.
         21    1    1    2  503  502  0.68630484894E+02  0.10340440744E+03 -0.71124980510E+03  0.72199646827E+03  0.00000000000E+00 0.  1.
         21    1    1    2  504  503 -0.68630484894E+02 -0.10340440744E+03 -0.10346765281E+03  0.16158022810E+03  0.00000000000E+00 0.  1.
<mgrwt>
<rscale>  2 0.12410727E+03</rscale>
<asrwt>0</asrwt>
<pdfrwt beam="1">  1       21 0.52968643E-02 0.12410727E+03</pdfrwt>
<pdfrwt beam="2">  1       21 0.13063802E+00 0.12410727E+03</pdfrwt>
<totfact> 0.10746124E+05</totfact>
</mgrwt>
</event>
<event>
 4    1  0.6055396E+003  0.1058341E+03  0.7546771E-02  0.1268485E+00
         21   -1    0    0  503  501  0.00000000000E+00  0.00000000000E+00  0.13756694718E+03  0.13756694718E+03  0.00000000000E+00 0. -1.
         21   -1    0    0  504  502 -0.00000000000E+00 -0.00000000000E+00 -0.81421185247E+02  0.81421185247E+02  0.00000000000E+00 0. -1.
         21    1    1    2  503  502 -0.61455743369E+02  0.86162933008E+02  0.28142069146E+02  0.10951180518E+03  0.00000000000E+00 0. -1.
         21    1    1    2  504  501  0.61455743369E+02 -0.86162933008E+02  0.28003692784E+02  0.10947632725E+03  0.00000000000E+00 0. -1.
<mgrwt>
<rscale>  2 0.10583411E+03</rscale>
<asrwt>0</asrwt>
<pdfrwt beam="1">  1       21 0.21164146E-01 0.10583411E+03</pdfrwt>
<pdfrwt beam="2">  1       21 0.12526336E-01 0.10583411E+03</pdfrwt>
<totfact> 0.11246326E+06</totfact>
</mgrwt>
</event>
<event>
 4    1  0.6055396E+003  0.1170367E+03  0.7546771E-02  0.1248067E+00
         21   -1    0    0  503  501  0.00000000000E+00  0.00000000000E+00  0.16301136715E+04  0.16301136715E+04  0.00000000000E+00 0.  1.
         21   -1    0    0  504  502 -0.00000000000E+00 -0.00000000000E+00 -0.12945635607E+02  0.12945635607E+02  0.00000000000E+00 0.  1.
         21    1    1    2  503  502 -0.95357045134E+02 -0.67857398593E+02  0.12952409478E+04  0.13005178605E+04  0.00000000000E+00 0.  1.
         21    1    1    2  504  501  0.95357045134E+02  0.67857398593E+02  0.32192708808E+03  0.34254144660E+03  0.00000000000E+00 0.  1.
<mgrwt>
<rscale>  2 0.11703671E+03</rscale>
<asrwt>0</asrwt>
<pdfrwt beam="1">  1       21 0.25078656E+00 0.11703671E+03</pdfrwt>
<pdfrwt beam="2">  1       21 0.19916375E-02 0.11703671E+03</pdfrwt>
<totfact> 0.86756542E+04</totfact>
</mgrwt>
</event>
<event>
 4    1  0.6055396E+003  0.1131917E+03  0.7546771E-02  0.1254771E+00
         21   -1    0    0  504  501  0.00000000000E+00  0.00000000000E+00  0.56778429308E+02  0.56778429308E+02  0.00000000000E+00 0. -1.
         21   -1    0    0  501  502 -0.00000000000E+00 -0.00000000000E+00 -0.24508329751E+03  0.24508329751E+03  0.00000000000E+00 0. -1.
         21    1    1    2  503  502  0.87909235334E+02  0.71304399728E+02 -0.13664722487E+03  0.17743960985E+03  0.00000000000E+00 0. -1.
         21    1    1    2  504  503 -0.87909235334E+02 -0.71304399728E+02 -0.51657643333E+02  0.12442211697E+03  0.00000000000E+00 0. -1.
<mgrwt>
<rscale>  2 0.11319166E+03</rscale>
<asrwt>0</asrwt>
<pdfrwt beam="1">  1       21 0.87351432E-02 0.11319166E+03</pdfrwt>
<pdfrwt beam="2">  1       21 0.37705122E-01 0.11319166E+03</pdfrwt>
<totfact> 0.70175108E+05</totfact>
</mgrwt>
</event>
<event>
 4    1  0.6055396E+003  0.1876913E+03  0.7546771E-02  0.1160560E+00
         21   -1    0    0  504  501  0.00000000000E+00  0.00000000000E+00  0.10983702161E+04  0.10983702161E+04  0.00000000000E+00 0. -1.
         21   -1    0    0  503  502 -0.00000000000E+00 -0.00000000000E+00 -0.37197127206E+02  0.37197127206E+02  0.00000000000E+00 0. -1.
         21    1    1    2  503  501  0.89315482116E+02 -0.16507803763E+03  0.74132252569E+03  0.76471373791E+03  0.00000000000E+00 0. -1.
         21    1    1    2  504  502 -0.89315482116E+02  0.16507803763E+03  0.31985056319E+03  0.37085360538E+03  0.00000000000E+00 0. -1.
<mgrwt>
<rscale>  2 0.18769127E+03</rscale>
<asrwt>0</asrwt>
<pdfrwt beam="1">  1       21 0.16898001E+00 0.18769127E+03</pdfrwt>
<pdfrwt beam="2">  1       21 0.57226358E-02 0.18769127E+03</pdfrwt>
<totfact> 0.46518488E+04</totfact>
</mgrwt>
</event>
<event>
 4    1  0.6055396E+003  0.1403763E+03  0.7546771E-02  0.1212823E+00
         21   -1    0    0  503  501  0.00000000000E+00  0.00000000000E+00  0.96400303642E+02  0.96400303642E+02  0.00000000000E+00 0.  1.
         21   -1    0    0  501  502 -0.00000000000E+00 -0.00000000000E+00 -0.71641928038E+03  0.71641928038E+03  0.00000000000E+00 0. -1.
         21    1    1    2  503  504 -0.18328458499E+02 -0.13917466246E+03  0.33562684963E+02  0.14433285448E+03  0.00000000000E+00 0.  1.
         21    1    1    2  504  502  0.18328458499E+02  0.13917466246E+03 -0.65358166170E+03  0.66848672954E+03  0.00000000000E+00 0. -1.
<mgrwt>
<rscale>  2 0.14037635E+03</rscale>
<asrwt>0</asrwt>
<pdfrwt beam="1">  1       21 0.14830816E-01 0.14037635E+03</pdfrwt>
<pdfrwt beam="2">  1       21 0.11021835E+00 0.14037635E+03</pdfrwt>
<totfact> 0.26895741E+04</totfact>
</mgrwt>
</event>
<event>
 4    1  0.6055396E+003  0.1171734E+03  0.7546771E-02  0.1247834E+00
         21   -1    0    0  503  501  0.00000000000E+00  0.00000000000E+00  0.95544490090E+02  0.95544490090E+02  0.00000000000E+00 0. -1.
         21   -1    0    0  504  502 -0.00000000000E+00 -0.00000000000E+00 -0.14438609144E+03  0.14438609144E+03  0.00000000000E+00 0. -1.
         21    1    1    2  503  502  0.11514880409E+03  0.21687817074E+02 -0.16142717474E+02  0.11828015818E+03  0.00000000000E+00 0. -1.
         21    1    1    2  504  501 -0.11514880409E+03 -0.21687817074E+02 -0.32698883872E+02  0.12165042334E+03  0.00000000000E+00 0. -1.
<mgrwt>
<rscale>  2 0.11717341E+03</rscale>
<asrwt>0</asrwt>
<pdfrwt beam="1">  1       21 0.14699152E-01 0.11717341E+03</pdfrwt>
<pdfrwt beam="2">  1       21 0.22213245E-01 0.11717341E+03</pdfrwt>
<totfact> 0.77396732E+05</totfact>
</mgrwt>
</event>
<event>
 4    1  0.6055396E+003  0.1137450E+03  0.7546771E-02  0.1253788E+00
         21   -1    0    0  504  501  0.00000000000E+00  0.00000000000E+00  0.61183003742E+02  0.61183003742E+02  0.00000000000E+00 0. -1.
         21   -1    0    0  503  502 -0.00000000000E+00 -0.00000000000E+00 -0.71789221844E+03  0.71789221844E+03  0.00000000000E+00 0.  1.
         21    1    1    2  503  501  0.10185760425E+03  0.50625684093E+02 -0.65552893718E+03  0.66532407060E+03  0.00000000000E+00 0.  1.
         21    1    1    2  504  502 -0.10185760425E+03 -0.50625684093E+02 -0.11802775188E+01  0.11375115159E+03  0.00000000000E+00 0. -1.
<mgrwt>
<rscale>  2 0.11374503E+03</rscale>
<asrwt>0</asrwt>
<pdfrwt beam="1">  1       21 0.94127695E-02 0.11374503E+03</pdfrwt>
<pdfrwt beam="2">  1       21 0.11044496E+00 0.11374503E+03</pdfrwt>
<totfact> 0.60890490E+04</totfact>
</mgrwt>
</event>
<event>
 4    1  0.6055396E+003  0.1266488E+03  0.7546771E-02  0.1232515E+00
         21   -1    0    0  503  501  0.00000000000E+00  0.00000000000E+00  0.31827059173E+02  0.31827059173E+02  0.00000000000E+00 0. -1.
         21   -1    0    0  504  502 -0.00000000000E+00 -0.00000000000E+00 -0.31721395464E+04  0.31721395464E+04  0.00000000000E+00 0.  1.
         21    1    1    2  503  502 -0.11963468748E+03 -0.41562830567E+02 -0.10093079828E+03  0.16194737841E+03  0.00000000000E+00 0. -1.
         21    1    1    2  504  501  0.11963468748E+03  0.41562830567E+02 -0.30393816889E+04  0.30420192271E+04  0.00000000000E+00 0.  1.
<mgrwt>
<rscale>  2 0.12664883E+03</rscale>
<asrwt>0</asrwt>
<pdfrwt beam="1">  1       21 0.48964698E-02 0.12664883E+03</pdfrwt>
<pdfrwt beam="2">  1       21 0.48802155E+00 0.12664883E+03</pdfrwt>
<totfact> 0.73139306E+02</totfact>
</mgrwt>
</event>
<event>
 4    1  0.6055396E+003  0.1003414E+03  0.7546771E-02  0.1279580E+00
         21   -1    0    0  502  501  0.00000000000E+00  0.00000000000E+00  0.45955969406E+03  0.45955969406E+03  0.00000000000E+00 0.  1.
         21   -1    0    0  503  502 -0.00000000000E+00 -0.00000000000E+00 -0.23204591079E+02  0.23204591079E+02  0.00000000000E+00 0.  1.
         21    1    1    2  503  504 -0.95430244001E+02  0.31007373584E+02  0.16113613311E+03  0.18982423997E+03  0.00000000000E+00 0.  1.
         21    1    1    2  504  501  0.95430244001E+02 -0.31007373584E+02  0.27521896987E+03  0.29294004517E+03  0.00000000000E+00 0.  1.
<mgrwt>
<rscale>  2 0.10034136E+03</rscale>
<asrwt>0</asrwt>
<pdfrwt beam="1">  1       21 0.70701485E-01 0.10034136E+03</pdfrwt>
<pdfrwt beam="2">  1       21 0.35699374E-02 0.10034136E+03</pdfrwt>
<totfact> 0.86256549E+05</totfact>
</mgrwt>
</event>
<event>
 4    1  0.6055396E+003  0.1552908E+03  0.7546771E-02  0.1194118E+00
         21   -1    0    0  503  501  0.00000000000E+00  0.00000000000E+00  0.10125423146E+03  0.10125423146E+03  0.00000000000E+00 0.  1.
         21   -1    0    0  504  502 -0.00000000000E+00 -0.00000000000E+00 -0.28766262699E+04  0.28766262699E+04  0.00000000000E+00 0.  1.
         21    1    1    2  503  502 -0.11190742283E+03 -0.10766602221E+03  0.38285616687E+02  0.15994071423E+03  0.00000000000E+00 0.  1.
         21    1    1    2  504  501  0.11190742283E+03  0.10766602221E+03 -0.28136576552E+04  0.28179397872E+04  0.00000000000E+00 0.  1.
<mgrwt>
<rscale>  2 0.15529084E+03</rscale>
<asrwt>0</asrwt>
<pdfrwt beam="1">  1       21 0.15577576E-01 0.15529084E+03</pdfrwt>
<pdfrwt beam="2">  1       21 0.44255783E+00 0.15529084E+03</pdfrwt>
<totfact> 0.18386465E+02</totfact>
</mgrwt>
</event>
<event>
 4    1  0.6055396E+003  0.1068949E+03  0.7546771E-02  0.1266430E+00
         21   -1    0    0  503  501  0.00000000000E+00  0.00000000000E+00  0.52439956017E+03  0.52439956017E+03  0.00000000000E+00 0.  1.
         21   -1    0    0  504  502 -0.00000000000E+00 -0.00000000000E+00 -0.63094887212E+02  0.63094887212E+02  0.00000000000E+00 0. -1.
         21    1    1    2  503  502 -0.19324359929E+02 -0.10513371896E+03  0.46832475026E+03  0.48036923450E+03  0.00000000000E+00 0.  1.
         21    1    1    2  504  501  0.19324359929E+02  0.10513371896E+03 -0.70200773074E+01  0.10712521288E+03  0.00000000000E+00 0. -1.
<mgrwt>
<rscale>  2 0.10689495E+03</rscale>
<asrwt>0</asrwt>
<pdfrwt beam="1">  1       21 0.80676852E-01 0.10689495E+03</pdfrwt>
<pdfrwt beam="2">  1       21 0.97069061E-02 0.10689495E+03</pdfrwt>
<totfact> 0.11934674E+05</totfact>
</mgrwt>
</event>
<event>
 4    1  0.6055396E+003  0.1248904E+03  0.7546771E-02  0.1235241E+00
         21   -1    0    0  504  501  0.00000000000E+00  0.00000000000E+00  0.12868494906E+02  0.12868494906E+02  0.00000000000E+00 0.  1.
         21   -1    0    0  501  502 -0.00000000000E+00 -0.00000000000E+00 -0.22093924885E+04  0.22093924885E+04  0.00000000000E+00 0.  1.
         21    1    1    2  503  502  0.10832432628E+03 -0.62156709198E+02 -0.18447876753E+04  0.18490103253E+04  0.00000000000E+00 0.  1.
         21    1    1    2  504  503 -0.10832432628E+03  0.62156709198E+02 -0.35173631829E+03  0.37325065810E+03  0.00000000000E+00 0.  1.
<mgrwt>
<rscale>  2 0.12489042E+03</rscale>
<asrwt>0</asrwt>
<pdfrwt beam="1">  1       21 0.19797695E-02 0.12489042E+03</pdfrwt>
<pdfrwt beam="2">  1       21 0.33990635E+00 0.12489042E+03</pdfrwt>
<totfact> 0.27322233E+04</totfact>
</mgrwt>
</event>
<event>
 4    1  0.6055396E+003  0.1146134E+03  0.7546771E-02  0.1252257E+00
         21   -1    0    0  503  501  0.00000000000E+00  0.00000000000E+00  0.15886790675E+03  0.15886790675E+03  0.00000000000E+00 0.  1.
         21   -1    0    0  504  502 -0.00000000000E+00 -0.00000000000E+00 -0.45452198123E+03  0.45452198123E+03  0.00000000000E+00 0.  1.
         21    1    1    2  503  502 -0.60175238381E+02 -0.97545738115E+02 -0.42522584381E+03  0.44040123590E+03  0.00000000000E+00 0.  1.
         21    1    1    2  504  501  0.60175238381E+02  0.97545738115E+02  0.12957176933E+03  0.17298865207E+03  0.00000000000E+00 0.  1.
<mgrwt>
<rscale>  2 0.11461340E+03</rscale>
<asrwt>0</asrwt>
<pdfrwt beam="1">  1       21 0.24441217E-01 0.11461340E+03</pdfrwt>
<pdfrwt beam="2">  1       21 0.69926457E-01 0.11461340E+03</pdfrwt>
<totfact> 0.30799442E+04</totfact>
</mgrwt>
</event>
<event>
 4    1  0.6055396E+003  0.1033631E+03  0.7546771E-02  0.1273379E+00
         21   -1    0    0  502  501  0.00000000000E+00  0.00000000000E+00  0.98982284522E+01  0.98982284522E+01  0.00000000000E+00 0. -1.
         21   -1    0    0  503  502 -0.00000000000E+00 -0.00000000000E+00 -0.13684903763E+04  0.13684903763E+04  0.00000000000E+00 0.  1.
         21    1    1    2  503  504  0.54729129692E+02 -0.87684950171E+02 -0.99607354757E+03  0.10014222088E+04  0.00000000000E+00 0.  1.
         21    1    1    2  504  501 -0.54729129692E+02  0.87684950171E+02 -0.36251860024E+03  0.37696639590E+03  0.00000000000E+00 0. -1.
<mgrwt>
<rscale>  2 0.10336309E+03</rscale>
<asrwt>0</asrwt>
<pdfrwt beam="1">  1       21 0.15228041E-02 0.10336309E+03</pdfrwt>
<pdfrwt beam="2">  1       21 0.21053701E+00 0.10336309E+03</pdfrwt>
<totfact> 0.23177406E+05</totfact>
</mgrwt>
</event>
<event>
 4    1  0.6055396E+003  0.1010453E+03  0.7546771E-02  0.1278113E+00
         21   -1    0    0  503  501  0.00000000000E+00  0.00000000000E+00  0.14637585583E+03  0.14637585583E+03  0.00000000000E+00 0. -1.
         21   -1    0    0  504  502 -0.00000000000E+00 -0.00000000000E+00 -0.91977528726E+02  0.91977528726E+02  0.00000000000E+00 0.  1.
         21    1    1    2  503  502  0.99616256168E+02 -0.16933676397E+02 -0.31383244404E+02  0.10580669127E+03  0.00000000000E+00 0.  1.
         21    1    1    2  504  501 -0.99616256168E+02  0.16933676397E+02  0.85781571507E+02  0.13254669328E+03  0.00000000000E+00 0. -1.
<mgrwt>
<rscale>  2 0.10104528E+03</rscale>
<asrwt>0</asrwt>
<pdfrwt beam="1">  1       21 0.22519362E-01 0.10104528E+03</pdfrwt>
<pdfrwt beam="2">  1       21 0.14150389E-01 0.10104528E+03</pdfrwt>
<totfact> 0.80680271E+05</totfact>
</mgrwt>
</event>
<event>
 4    1  0.6055396E+003  0.1167707E+03  0.7546771E-02  0.1248521E+00
         21   -1    0    0  503  501  0.00000000000E+00  0.00000000000E+00  0.59723833203E+02  0.59723833203E+02  0.00000000000E+00 0. -1.
         21   -1    0    0  504  502 -0.00000000000E+00 -0.00000000000E+00 -0.49304220388E+03  0.49304220388E+03  0.00000000000E+00 0. -1.
         21    1    1    2  503  502 -0.11549822023E+03 -0.17191744345E+02 -0.14135975414E+02  0.11762321519E+03  0.00000000000E+00 0. -1.
         21    1    1    2  504  501  0.11549822023E+03  0.17191744345E+02 -0.41918239526E+03  0.43514282189E+03  0.00000000000E+00 0. -1.
<mgrwt>
<rscale>  2 0.11677069E+03</rscale>
<asrwt>0</asrwt>
<pdfrwt beam="1">  1       21 0.91882824E-02 0.11677069E+03</pdfrwt>
<pdfrwt beam="2">  1       21 0.75852644E-01 0.11677069E+03</pdfrwt>
<totfact> 0.14988814E+05</totfact>
</mgrwt>
</event>
<event>
 4    1  0.6055396E+003  0.1294524E+03  0.7546771E-02  0.1228271E+00
         21   -1    0    0  503  501  0.00000000000E+00  0.00000000000E+00  0.21225187010E+02  0.21225187010E+02  0.00000000000E+00 0.  1.
         21   -1    0    0  504  502 -0.00000000000E+00 -0.00000000000E+00 -0.79310732357E+03  0.79310732357E+03  0.00000000000E+00 0.  1.
         21    1    1    2  503  502  0.13720103745E+02  0.12872329159E+03 -0.41328558156E+03  0.43308532528E+03  0.00000000000E+00 0.  1.
         21    1    1    2  504  501 -0.13720103745E+02 -0.12872329159E+03 -0.35859655500E+03  0.38124718530E+03  0.00000000000E+00 0.  1.
<mgrwt>
<rscale>  2 0.12945241E+03</rscale>
<asrwt>0</asrwt>
<pdfrwt beam="1">  1       21 0.32654138E-02 0.12945241E+03</pdfrwt>
<pdfrwt beam="2">  1       21 0.12201650E+00 0.12945241E+03</pdfrwt>
<totfact> 0.28387818E+05</totfact>
</mgrwt>
</event>
<event>
 4    1  0.6055396E+003  0.1128065E+03  0.7546771E-02  0.1255459E+00
         21   -1    0    0  503  501  0.00000000000E+00  0.00000000000E+00  0.27634901770E+02  0.27634901770E+02  0.00000000000E+00 0.  1.
         21   -1    0    0  504  502 -0.00000000000E+00 -0.00000000000E+00 -0.66216056097E+03  0.66216056097E+03  0.00000000000E+00 0. -1.
         21    1    1    2  503  502  0.59213947452E+02 -0.96015653860E+02 -0.12691778795E+03  0.16980407020E+03  0.00000000000E+00 0.  1.
         21    1    1    2  504  501 -0.59213947452E+02  0.96015653860E+02 -0.50760787125E+03  0.51999139254E+03  0.00000000000E+00 0. -1.
<mgrwt>
<rscale>  2 0.11280646E+03</rscale>
<asrwt>0</asrwt>
<pdfrwt beam="1">  1       21 0.42515235E-02 0.11280646E+03</pdfrwt>
<pdfrwt beam="2">  1       21 0.10187085E+00 0.11280646E+03</pdfrwt>
<totfact> 0.28391747E+05</totfact>
</mgrwt>
</event>
<event>
 4    1  0.6055396E+003  0.1385421E+03  0.7546771E-02  0.1215304E+00
         21   -1    0    0  504  501  0.00000000000E+00  0.00000000000E+00  0.46763806000E+03  0.46763806000E+03  0.00000000000E+00 0. -1.
         21   -1    0    0  501  502 -0.00000000000E+00 -0.00000000000E+00 -0.46025349010E+02  0.46025349010E+02  0.00000000000E+00 0. -1.
         21    1    1    2  503  502  0.14842167561E+02  0.13774482061E+03  0.12631623008E+03  0.18748257392E+03  0.00000000000E+00 0. -1.
         21    1    1    2  504  503 -0.14842167561E+02 -0.13774482061E+03  0.29529648091E+03  0.32618083509E+03  0.00000000000E+00 0. -1.
<mgrwt>
<rscale>  2 0.13854214E+03</rscale>
<asrwt>0</asrwt>
<pdfrwt beam="1">  1       21 0.71944313E-01 0.13854214E+03</pdfrwt>
<pdfrwt beam="2">  1       21 0.70808233E-02 0.13854214E+03</pdfrwt>
<totfact> 0.26222737E+05</totfact>
</mgrwt>
</event>
<event>
 4    1  0.6055396E+003  0.1285538E+03  0.7546771E-02  0.1229617E+00
         21   -1    0    0  503  501  0.00000000000E+00  0.00000000000E+00  0.46516774355E+02  0.46516774355E+02  0.00000000000E+00 0. -1.
         21   -1    0    0  504  502 -0.00000000000E+00 -0.00000000000E+00 -0.38874334006E+03  0.38874334006E+03  0.00000000000E+00 0. -1.
         21    1    1    2  503  502  0.49157857874E+02  0.11878381235E+03 -0.10725363631E+03  0.16741992584E+03  0.00000000000E+00 0. -1.
         21    1    1    2  504  501 -0.49157857874E+02 -0.11878381235E+03 -0.23497292939E+03  0.26784018857E+03  0.00000000000E+00 0. -1.
<mgrwt>
<rscale>  2 0.12855384E+03</rscale>
<asrwt>0</asrwt>
<pdfrwt beam="1">  1       21 0.71564269E-02 0.12855384E+03</pdfrwt>
<pdfrwt beam="2">  1       21 0.59806667E-01 0.12855384E+03</pdfrwt>
<totfact> 0.38441355E+05</totfact>
</mgrwt>
</event>
<event>
 4    1  0.6055396E+003  0.1049061E+03  0.7546771E-02  0.1270305E+00
         21   -1    0    0  503  501  0.00000000000E+00  0.00000000000E+00  0.26105515846E+02  0.26105515846E+02  0.00000000000E+00 0. -1.
         21   -1    0    0  504  502 -0.00000000000E+00 -0.00000000000E+00 -0.78071252680E+03  0.78071252680E+03  0.00000000000E+00 0. -1.
         21    1    1    2  503  502  0.36209488712E+01 -0.10484354924E+03 -0.10369226149E+03  0.14750378362E+03  0.00000000000E+00 0. -1.
         21    1    1    2  504  501 -0.36209488712E+01  0.10484354924E+03 -0.65091474947E+03  0.65931425903E+03  0.00000000000E+00 0. -1.
<mgrwt>
<rscale>  2 0.10490606E+03</rscale>
<asrwt>0</asrwt>
<pdfrwt beam="1">  1       21 0.40162330E-02 0.10490606E+03</pdfrwt>
<pdfrwt beam="2">  1       21 0.12010963E+00 0.10490606E+03</pdfrwt>
<totfact> 0.21142193E+05</totfact>
</mgrwt>
</event>
<event>
 4    1  0.6055396E+003  0.1036186E+03  0.7546771E-02  0.1272866E+00
         21   -1    0    0  502  501  0.00000000000E+00  0.00000000000E+00  0.21378294321E+03  0.21378294321E+03  0.00000000000E+00 0.  1.
         21   -1    0    0  503  502 -0.00000000000E+00 -0.00000000000E+00 -0.59219614435E+02  0.59219614435E+02  0.00000000000E+00 0.  1.
         21    1    1    2  503  504 -0.62045094349E+02 -0.82989233057E+02  0.24077565480E+02  0.10637920706E+03  0.00000000000E+00 0.  1.
         21    1    1    2  504  501  0.62045094349E+02  0.82989233057E+02  0.13048576329E+03  0.16662335058E+03  0.00000000000E+00 0.  1.
<mgrwt>
<rscale>  2 0.10361856E+03</rscale>
<asrwt>0</asrwt>
<pdfrwt beam="1">  1       21 0.32889683E-01 0.10361856E+03</pdfrwt>
<pdfrwt beam="2">  1       21 0.91107100E-02 0.10361856E+03</pdfrwt>
<totfact> 0.85202711E+05</totfact>
</mgrwt>
</event>
<event>
 4    1  0.6055396E+003  0.1350979E+03  0.7546771E-02  0.1220082E+00
         21   -1    0    0  503  501  0.00000000000E+00  0.00000000000E+00  0.49206961956E+03  0.49206961956E+03  0.00000000000E+00 0. -1.
         21   -1    0    0  504  502 -0.00000000000E+00 -0.00000000000E+00 -0.12237334650E+03  0.12237334650E+03  0.00000000000E+00 0.  1.
         21    1    1    2  503  502 -0.55253242936E+02  0.12328224089E+03 -0.71622312659E+02  0.15290908228E+03  0.00000000000E+00 0.  1.
         21    1    1    2  504  501  0.55253242936E+02 -0.12328224089E+03  0.44131858572E+03  0.46153388378E+03  0.00000000000E+00 0. -1.
<mgrwt>
<rscale>  2 0.13509786E+03</rscale>
<asrwt>0</asrwt>
<pdfrwt beam="1">  1       21 0.75703017E-01 0.13509786E+03</pdfrwt>
<pdfrwt beam="2">  1       21 0.18826669E-01 0.13509786E+03</pdfrwt>
<totfact> 0.41487177E+04</totfact>
</mgrwt>
</event>
<event>
 4    1  0.6055396E+003  0.1364663E+03  0.7546771E-02  0.1218165E+00
         21   -1    0    0  503  501  0.00000000000E+00  0.00000000000E+00  0.17999830496E+03  0.17999830496E+03  0.00000000000E+00 0.  1.
         21   -1    0    0  504  502 -0.00000000000E+00 -0.00000000000E+00 -0.11532249563E+03  0.11532249563E+03  0.00000000000E+00 0. -1.
         21    1    1    2  503  502  0.25293154758E+02 -0.13410182411E+03  0.79691451782E+02  0.15803091595E+03  0.00000000000E+00 0.  1.
         21    1    1    2  504  501 -0.25293154758E+02  0.13410182411E+03 -0.15015642447E+02  0.13728988464E+03  0.00000000000E+00 0. -1.
<mgrwt>
<rscale>  2 0.13646627E+03</rscale>
<asrwt>0</asrwt>
<pdfrwt beam="1">  1       21 0.27692047E-01 0.13646627E+03</pdfrwt>
<pdfrwt beam="2">  1       21 0.17741922E-01 0.13646627E+03</pdfrwt>
<totfact> 0.36258314E+05</totfact>
</mgrwt>
</event>
<event>
 4    1  0.6055396E+003  0.1084001E+03  0.7546771E-02  0.1263562E+00
         21   -1    0    0  503  501  0.00000000000E+00  0.00000000000E+00  0.11067291249E+03  0.11067291249E+03  0.00000000000E+00 0.  1.
         21   -1    0    0  504  502 -0.00000000000E+00 -0.00000000000E+00 -0.15177377300E+03  0.15177377300E+03  0.00000000000E+00 0. -1.
         21    1    1    2  503  502 -0.10810771046E+03  0.79562244556E+01  0.51376973297E+02  0.11995904281E+03  0.00000000000E+00 0.  1.
         21    1    1    2  504  501  0.10810771046E+03 -0.79562244556E+01 -0.92477833805E+02  0.14248764267E+03  0.00000000000E+00 0. -1.
<mgrwt>
<rscale>  2 0.10840009E+03</rscale>
<asrwt>0</asrwt>
<pdfrwt beam="1">  1       21 0.17026602E-01 0.10840009E+03</pdfrwt>
<pdfrwt beam="2">  1       21 0.23349811E-01 0.10840009E+03</pdfrwt>
<totfact> 0.54093363E+05</totfact>
</mgrwt>
</event>
<event>
 4    1  0.6055396E+003  0.1470020E+03  0.7546771E-02  0.1204206E+00
         21   -1    0    0  504  501  0.00000000000E+00  0.00000000000E+00  0.64904432423E+03  0.64904432423E+03  0.00000000000E+00 0. -1.
         21   -1    0    0  503  502 -0.00000000000E+00 -0.00000000000E+00 -0.34519281257E+02  0.34519281257E+02  0.00000000000E+00 0.  1.
         21    1    1    2  503  501 -0.13993208423E+03  0.45039995251E+02  0.24288237778E+03  0.28390392531E+03  0.00000000000E+00 0.  1.
         21    1    1    2  504  502  0.13993208423E+03 -0.45039995251E+02  0.37164266519E+03  0.39965968018E+03  0.00000000000E+00 0. -1.
<mgrwt>
<rscale>  2 0.14700200E+03</rscale>
<asrwt>0</asrwt>
<pdfrwt beam="1">  1       21 0.99852964E-01 0.14700200E+03</pdfrwt>
<pdfrwt beam="2">  1       21 0.53106591E-02 0.14700200E+03</pdfrwt>
<totfact> 0.20300793E+05</totfact>
</mgrwt>
</event>
<event>
 4    1  0.6055396E+003  0.1041897E+03  0.7546771E-02  0.1271724E+00
         21   -1    0    0  504  501  0.00000000000E+00  0.00000000000E+00  0.45183423937E+02  0.45183423937E+02  0.00000000000E+00 0.  1.
         21   -1    0    0  503  502 -0.00000000000E+00 -0.00000000000E+00 -0.29880470682E+03  0.29880470682E+03  0.00000000000E+00 0.  1.
         21    1    1    2  503  501  0.10406103440E+03 -0.51772184812E+01 -0.20294583854E+03  0.22812828814E+03  0.00000000000E+00 0.  1.
         21    1    1    2  504  502 -0.10406103440E+03  0.51772184812E+01 -0.50675444348E+02  0.11585984262E+03  0.00000000000E+00 0.  1.
<mgrwt>
<rscale>  2 0.10418974E+03</rscale>
<asrwt>0</asrwt>
<pdfrwt beam="1">  1       21 0.69512960E-02 0.10418974E+03</pdfrwt>
<pdfrwt beam="2">  1       21 0.45969955E-01 0.10418974E+03</pdfrwt>
<totfact> 0.69809659E+05</totfact>
</mgrwt>
</event>
<event>
 4    1  0.6055396E+003  0.1606933E+03  0.7546771E-02  0.1187916E+00
         21   -1    0    0  503  501  0.00000000000E+00  0.00000000000E+00  0.66295602405E+03  0.66295602405E+03  0.00000000000E+00 0.  1.
         21   -1    0    0  504  502 -0.00000000000E+00 -0.00000000000E+00 -0.86040048091E+02  0.86040048091E+02  0.00000000000E+00 0.  1.
         21    1    1    2  503  502  0.46765309261E+02 -0.15373791782E+03  0.11405300290E+02  0.16109755554E+03  0.00000000000E+00 0.  1.
         21    1    1    2  504  501 -0.46765309261E+02  0.15373791782E+03  0.56551067567E+03  0.58789851660E+03  0.00000000000E+00 0.  1.
<mgrwt>
<rscale>  2 0.16069332E+03</rscale>
<asrwt>0</asrwt>
<pdfrwt beam="1">  1       21 0.10199323E+00 0.16069332E+03</pdfrwt>
<pdfrwt beam="2">  1       21 0.13236931E-01 0.16069332E+03</pdfrwt>
<totfact> 0.39232368E+04</totfact>
</mgrwt>
</event>
<event>
 4    1  0.6055396E+003  0.1453600E+03  0.7546771E-02  0.1206293E+00
         21   -1    0    0  504  501  0.00000000000E+00  0.00000000000E+00  0.12126920355E+03  0.12126920355E+03  0.00000000000E+00 0. -1.
         21   -1    0    0  503  502 -0.00000000000E+00 -0.00000000000E+00 -0.19525545018E+03  0.19525545018E+03  0.00000000000E+00 0. -1.
         21    1    1    2  503  501  0.96381523117E+02  0.10881232420E+03  0.14932488031E+02  0.14612494344E+03  0.00000000000E+00 0. -1.
         21    1    1    2  504  502 -0.96381523117E+02 -0.10881232420E+03 -0.88918734659E+02  0.17039971030E+03  0.00000000000E+00 0. -1.
<mgrwt>
<rscale>  2 0.14535997E+03</rscale>
<asrwt>0</asrwt>
<pdfrwt beam="1">  1       21 0.18656800E-01 0.14535997E+03</pdfrwt>
<pdfrwt beam="2">  1       21 0.30039300E-01 0.14535997E+03</pdfrwt>
<totfact> 0.28225543E+05</totfact>
</mgrwt>
</event>
<event>
 4    1  0.6055396E+003  0.1033016E+03  0.7546771E-02  0.1273502E+00
         21   -1    0    0  503  501  0.00000000000E+00  0.00000000000E+00  0.16183306892E+03  0.16183306892E+03  0.00000000000E+00 0.  1.
         21   -1    0    0  504  502 -0.00000000000E+00 -0.00000000000E+00 -0.91580850054E+02  0.91580850054E+02  0.00000000000E+00 0.  1.
         21    1    1    2  503  502 -0.10259361338E+03  0.12073390835E+02 -0.31919028663E+02  0.10812049141E+03  0.00000000000E+00 0.  1.
         21    1    1    2  504  501  0.10259361338E+03 -0.12073390835E+02  0.10217124753E+03  0.14529342757E+03  0.00000000000E+00 0.  1.
<mgrwt>
<rscale>  2 0.10330158E+03</rscale>
<asrwt>0</asrwt>
<pdfrwt beam="1">  1       21 0.24897395E-01 0.10330158E+03</pdfrwt>
<pdfrwt beam="2">  1       21 0.14089362E-01 0.10330158E+03</pdfrwt>
<totfact> 0.67417343E+05</totfact>
</mgrwt>
</event>
<event>
 4    1  0.6055396E+003  0.1239260E+03  0.7546771E-02  0.1236757E+00
         21   -1    0    0  502  501  0.00000000000E+00  0.00000000000E+00  0.12683295396E+03  0.12683295396E+03  0.00000000000E+00 0.  1.
         21   -1    0    0  504  502 -0.00000000000E+00 -0.00000000000E+00 -0.34369259710E+03  0.34369259710E+03  0.00000000000E+00 0. -1.
         21    1    1    2  503  501 -0.39927932391E+01 -0.12386170979E+03  0.80907997292E+02  0.14799922154E+03  0.00000000000E+00 0.  1.
         21    1    1    2  504  503  0.39927932391E+01  0.12386170979E+03 -0.29776764043E+03  0.32252632953E+03  0.00000000000E+00 0. -1.
<mgrwt>
<rscale>  2 0.12392605E+03</rscale>
<asrwt>0</asrwt>
<pdfrwt beam="1">  1       21 0.19512762E-01 0.12392605E+03</pdfrwt>
<pdfrwt beam="2">  1       21 0.52875784E-01 0.12392605E+03</pdfrwt>
<totfact> 0.84322202E+04</totfact>
</mgrwt>
</event>
<event>
 4    1  0.6055396E+003  0.1341525E+03  0.7546771E-02  0.1221421E+00
         21   -1    0    0  502  501  0.00000000000E+00  0.00000000000E+00  0.72236970244E+03  0.72236970244E+03  0.00000000000E+00 0. -1.
         21   -1    0    0  504  502 -0.00000000000E+00 -0.00000000000E+00 -0.46038554718E+02  0.46038554718E+02  0.00000000000E+00 0. -1.
         21    1    1    2  503  501  0.87389501768E+02 -0.10178390751E+03  0.59842006939E+03  0.61327275196E+03  0.00000000000E+00 0. -1.
         21    1    1    2  504  503 -0.87389501768E+02  0.10178390751E+03  0.77911078333E+02  0.15513550520E+03  0.00000000000E+00 0. -1.
<mgrwt>
<rscale>  2 0.13415248E+03</rscale>
<asrwt>0</asrwt>
<pdfrwt beam="1">  1       21 0.11113379E+00 0.13415248E+03</pdfrwt>
<pdfrwt beam="2">  1       21 0.70828551E-02 0.13415248E+03</pdfrwt>
<totfact> 0.96896463E+04</totfact>
</mgrwt>
</event>
<event>
 4    1  0.6055396E+003  0.1163869E+03  0.7546771E-02  0.1249179E+00
         21   -1    0    0  503  501  0.00000000000E+00  0.00000000000E+00  0.45072290449E+03  0.45072290449E+03  0.00000000000E+00 0.  1.
         21   -1    0    0  504  502 -0.00000000000E+00 -0.00000000000E+00 -0.47252102981E+03  0.47252102981E+03  0.00000000000E+00 0.  1.
         21    1    1    2  503  502 -0.19929152407E+02 -0.11466795745E+03 -0.45759960397E+03  0.47216872951E+03  0.00000000000E+00 0.  1.
         21    1    1    2  504  501  0.19929152407E+02  0.11466795745E+03  0.43580147865E+03  0.45107520479E+03  0.00000000000E+00 0.  1.
<mgrwt>
<rscale>  2 0.11638690E+03</rscale>
<asrwt>0</asrwt>
<pdfrwt beam="1">  1       21 0.69341986E-01 0.11638690E+03</pdfrwt>
<pdfrwt beam="2">  1       21 0.72695543E-01 0.11638690E+03</pdfrwt>
<totfact> 0.34782896E+03</totfact>
</mgrwt>
</event>
<event>
 4    1  0.6055396E+003  0.1021367E+03  0.7546771E-02  0.1275866E+00
         21   -1    0    0  503  501  0.00000000000E+00  0.00000000000E+00  0.60983806779E+02  0.60983806779E+02  0.00000000000E+00 0. -1.
         21   -1    0    0  504  502 -0.00000000000E+00 -0.00000000000E+00 -0.17863084451E+03  0.17863084451E+03  0.00000000000E+00 0. -1.
         21    1    1    2  503  502  0.94897253901E+02 -0.37767940696E+02 -0.83487871067E+02  0.13191713595E+03  0.00000000000E+00 0. -1.
         21    1    1    2  504  501 -0.94897253901E+02  0.37767940696E+02 -0.34159166660E+02  0.10769751533E+03  0.00000000000E+00 0. -1.
<mgrwt>
<rscale>  2 0.10213670E+03</rscale>
<asrwt>0</asrwt>
<pdfrwt beam="1">  1       21 0.93821240E-02 0.10213670E+03</pdfrwt>
<pdfrwt beam="2">  1       21 0.27481669E-01 0.10213670E+03</pdfrwt>
<totfact> 0.11426130E+06</totfact>
</mgrwt>
</event>
<event>
 4    1  0.6055396E+003  0.1177423E+03  0.7546771E-02  0.1246869E+00
         21   -1    0    0  504  501  0.00000000000E+00  0.00000000000E+00  0.65778201362E+03  0.65778201362E+03  0.00000000000E+00 0. -1.
         21   -1    0    0  503  502 -0.00000000000E+00 -0.00000000000E+00 -0.21505364089E+02  0.21505364089E+02  0.00000000000E+00 0. -1.
         21    1    1    2  503  501 -0.11754865842E+03 -0.67505531253E+01  0.36614298728E+03  0.38460881971E+03  0.00000000000E+00 0. -1.
         21    1    1    2  504  502  0.11754865842E+03  0.67505531253E+01  0.27013366226E+03  0.29467855800E+03  0.00000000000E+00 0. -1.
<mgrwt>
<rscale>  2 0.11774233E+03</rscale>
<asrwt>0</asrwt>
<pdfrwt beam="1">  1       21 0.10119722E+00 0.11774233E+03</pdfrwt>
<pdfrwt beam="2">  1       21 0.33085181E-02 0.11774233E+03</pdfrwt>
<totfact> 0.43587033E+05</totfact>
</mgrwt>
</event>
<event>
 4    1  0.6055396E+003  0.1120088E+03  0.7546771E-02  0.1256894E+00
         21   -1    0    0  503  501  0.00000000000E+00  0.00000000000E+00  0.79258024906E+03  0.79258024906E+03  0.00000000000E+00 0.  1.
         21   -1    0    0  501  502 -0.00000000000E+00 -0.00000000000E+00 -0.16509038611E+02  0.16509038611E+02  0.00000000000E+00 0.  1.
         21    1    1    2  503  504  0.92448596611E+02 -0.63239522008E+02  0.30594740830E+03  0.32580637932E+03  0.00000000000E+00 0.  1.
         21    1    1    2  504  502 -0.92448596611E+02  0.63239522008E+02  0.47012380215E+03  0.48328290836E+03  0.00000000000E+00 0.  1.
<mgrwt>
<rscale>  2 0.11200884E+03</rscale>
<asrwt>0</asrwt>
<pdfrwt beam="1">  1       21 0.12193539E+00 0.11200884E+03</pdfrwt>
<pdfrwt beam="2">  1       21 0.25398527E-02 0.11200884E+03</pdfrwt>
<totfact> 0.43070985E+05</totfact>
</mgrwt>
</event>
<event>
 4    1  0.6055396E+003  0.1158520E+03  0.7546771E-02  0.1250101E+00
         21   -1    0    0  504  501  0.00000000000E+00  0.00000000000E+00  0.12701251441E+03  0.12701251441E+03  0.00000000000E+00 0.  1.
         21   -1    0    0  503  502 -0.00000000000E+00 -0.00000000000E+00 -0.17576655596E+03  0.17576655596E+03  0.00000000000E+00 0.  1.
         21    1    1    2  503  501  0.46414233776E+02  0.10614802561E+03  0.71225521020E+02  0.13599543846E+03  0.00000000000E+00 0.  1.
         21    1    1    2  504  502 -0.46414233776E+02 -0.10614802561E+03 -0.11997956257E+03  0.16678363191E+03  0.00000000000E+00 0.  1.
<mgrwt>
<rscale>  2 0.11585199E+03</rscale>
<asrwt>0</asrwt>
<pdfrwt beam="1">  1       21 0.19540387E-01 0.11585199E+03</pdfrwt>
<pdfrwt beam="2">  1       21 0.27041009E-01 0.11585199E+03</pdfrwt>
<totfact> 0.31880505E+05</totfact>
</mgrwt>
</event>
<event>
 4    1  0.6055396E+003  0.1106489E+03  0.7546771E-02  0.1259373E+00
         21   -1    0    0  503  501  0.00000000000E+00  0.00000000000E+00  0.41626725769E+02  0.41626725769E+02  0.00000000000E+00 0.  1.
         21   -1    0    0  501  502 -0.00000000000E+00 -0.00000000000E+00 -0.34315937787E+03  0.34315937787E+03  0.00000000000E+00 0.  1.
         21    1    1    2  503  504  0.96056479168E+02 -0.54921130983E+02 -0.78034937899E+02  0.13539804043E+03  0.00000000000E+00 0.  1.
         21    1    1    2  504  502 -0.96056479168E+02  0.54921130983E+02 -0.22349771420E+03  0.24938806321E+03  0.00000000000E+00 0.  1.
<mgrwt>
<rscale>  2 0.11064889E+03</rscale>
<asrwt>0</asrwt>
<pdfrwt beam="1">  1       21 0.64041114E-02 0.11064889E+03</pdfrwt>
<pdfrwt beam="2">  1       21 0.52793752E-01 0.11064889E+03</pdfrwt>
<totfact> 0.60436067E+05</totfact>
</mgrwt>
</event>
<event>
 4    1  0.6055396E+003  0.1206698E+03  0.7546771E-02  0.1241996E+00
         21   -1    0    0  502  501  0.00000000000E+00  0.00000000000E+00  0.13327087658E+03  0.13327087658E+03  0.00000000000E+00 0. -1.
         21   -1    0    0  504  502 -0.00000000000E+00 -0.00000000000E+00 -0.42850786422E+03  0.42850786422E+03  0.00000000000E+00 0. -1.
         21    1    1    2  503  501  0.10675479173E+03  0.56254824560E+02  0.94830189908E+02  0.15347298056E+03  0.00000000000E+00 0. -1.
         21    1    1    2  504  503 -0.10675479173E+03 -0.56254824560E+02 -0.39006717755E+03  0.40830576024E+03  0.00000000000E+00 0. -1.
<mgrwt>
<rscale>  2 0.12066976E+03</rscale>
<asrwt>0</asrwt>
<pdfrwt beam="1">  1       21 0.20503212E-01 0.12066976E+03</pdfrwt>
<pdfrwt beam="2">  1       21 0.65924286E-01 0.12066976E+03</pdfrwt>
<totfact> 0.48349831E+04</totfact>
</mgrwt>
</event>
<event>
 4    1  0.6055396E+003  0.1394938E+03  0.7546771E-02  0.1214012E+00
         21   -1    0    0  504  501  0.00000000000E+00  0.00000000000E+00  0.28346599143E+04  0.28346599143E+04  0.00000000000E+00 0. -1.
         21   -1    0    0  503  502 -0.00000000000E+00 -0.00000000000E+00 -0.11564304208E+02  0.11564304208E+02  0.00000000000E+00 0. -1.
         21    1    1    2  503  501  0.49439048241E+02 -0.13043886306E+03  0.50431373961E+03  0.52325028853E+03  0.00000000000E+00 0. -1.
         21    1    1    2  504  502 -0.49439048241E+02  0.13043886306E+03  0.23187818705E+04  0.23229739300E+04  0.00000000000E+00 0. -1.
<mgrwt>
<rscale>  2 0.13949379E+03</rscale>
<asrwt>0</asrwt>
<pdfrwt beam="1">  1       21 0.43610097E+00 0.13949379E+03</pdfrwt>
<pdfrwt beam="2">  1       21 0.17791260E-02 0.13949379E+03</pdfrwt>
<totfact> 0.83049700E+03</totfact>
</mgrwt>
</event>
<event>
 4    1  0.6055396E+003  0.1094743E+03  0.7546771E-02  0.1261546E+00
         21   -1    0    0  504  501  0.00000000000E+00  0.00000000000E+00  0.79361566922E+03  0.79361566922E+03  0.00000000000E+00 0. -1.
         21   -1    0    0  503  502 -0.00000000000E+00 -0.00000000000E+00 -0.35180036020E+02  0.35180036020E+02  0.00000000000E+00 0.  1.
         21    1    1    2  503  501 -0.70822808691E+02  0.83479067304E+02  0.69228503002E+03  0.70088742869E+03  0.00000000000E+00 0. -1.
         21    1    1    2  504  502  0.70822808691E+02 -0.83479067304E+02  0.66150603183E+02  0.12790827655E+03  0.00000000000E+00 0.  1.
<mgrwt>
<rscale>  2 0.10947431E+03</rscale>
<asrwt>0</asrwt>
<pdfrwt beam="1">  1       21 0.12209470E+00 0.10947431E+03</pdfrwt>
<pdfrwt beam="2">  1       21 0.54123138E-02 0.10947431E+03</pdfrwt>
<totfact> 0.12333175E+05</totfact>
</mgrwt>
</event>
<event>
 4    1  0.6055396E+003  0.1104264E+03  0.7546771E-02  0.1259782E+00
         21   -1    0    0  504  501  0.00000000000E+00  0.00000000000E+00  0.57957475957E+02  0.57957475957E+02  0.00000000000E+00 0.  1.
         21   -1    0    0  501  502 -0.00000000000E+00 -0.00000000000E+00 -0.24542399204E+03  0.24542399204E+03  0.00000000000E+00 0. -1.
         21    1    1    2  503  502 -0.23289668171E+02 -0.10794244706E+03 -0.15104089586E+03  0.18710246590E+03  0.00000000000E+00 0. -1.
         21    1    1    2  504  503  0.23289668171E+02  0.10794244706E+03 -0.36425620217E+02  0.11627900210E+03  0.00000000000E+00 0.  1.
<mgrwt>
<rscale>  2 0.11042636E+03</rscale>
<asrwt>0</asrwt>
<pdfrwt beam="1">  1       21 0.89165346E-02 0.11042636E+03</pdfrwt>
<pdfrwt beam="2">  1       21 0.37757538E-01 0.11042636E+03</pdfrwt>
<totfact> 0.67541411E+05</totfact>
</mgrwt>
</event>
<event>
 4    1  0.6055396E+003  0.1222843E+03  0.7546771E-02  0.1239375E+00
         21   -1    0    0  502  501  0.00000000000E+00  0.00000000000E+00  0.22402791557E+03  0.22402791557E+03  0.00000000000E+00 0.  1.
         21   -1    0    0  504  502 -0.00000000000E+00 -0.00000000000E+00 -0.39361596729E+03  0.39361596729E+03  0.00000000000E+00 0. -1.
         21    1    1    2  503  501 -0.69984857410E+02  0.10027751276E+03  0.19662784392E+03  0.23155122293E+03  0.00000000000E+00 0.  1.
         21    1    1    2  504  503  0.69984857410E+02 -0.10027751276E+03 -0.36621589565E+03  0.38609265994E+03  0.00000000000E+00 0. -1.
<mgrwt>
<rscale>  2 0.12228434E+03</rscale>
<asrwt>0</asrwt>
<pdfrwt beam="1">  1       21 0.34465834E-01 0.12228434E+03</pdfrwt>
<pdfrwt beam="2">  1       21 0.60556301E-01 0.12228434E+03</pdfrwt>
<totfact> 0.21577713E+04</totfact>
</mgrwt>
</event>
<event>
 4    1  0.6055396E+003  0.1097997E+03  0.7546771E-02  0.1260941E+00
         21   -1    0    0  503  501  0.00000000000E+00  0.00000000000E+00  0.14426152952E+03  0.14426152952E+03  0.00000000000E+00 0.  1.
         21   -1    0    0  501  502 -0.00000000000E+00 -0.00000000000E+00 -0.13942466911E+03  0.13942466911E+03  0.00000000000E+00 0.  1.
         21    1    1    2  503  504  0.24401944720E+02 -0.10705380775E+03  0.92195857360E+02  0.14337380784E+03  0.00000000000E+00 0.  1.
         21    1    1    2  504  502 -0.24401944720E+02  0.10705380775E+03 -0.87358996950E+02  0.14031239079E+03  0.00000000000E+00 0.  1.
<mgrwt>
<rscale>  2 0.10979969E+03</rscale>
<asrwt>0</asrwt>
<pdfrwt beam="1">  1       21 0.22194081E-01 0.10979969E+03</pdfrwt>
<pdfrwt beam="2">  1       21 0.21449949E-01 0.10979969E+03</pdfrwt>
<totfact> 0.38937592E+05</totfact>
</mgrwt>
</event>
<event>
 4    1  0.6055396E+003  0.1016350E+03  0.7546771E-02  0.1276895E+00
         21   -1    0    0  504  501  0.00000000000E+00  0.00000000000E+00  0.12351992282E+04  0.12351992282E+04  0.00000000000E+00 0.  1.
         21   -1    0    0  503  502 -0.00000000000E+00 -0.00000000000E+00 -0.13435574803E+02  0.13435574803E+02  0.00000000000E+00 0.  1.
         21    1    1    2  503  501  0.92089449618E+02  0.43002437646E+02  0.99450228525E+03  0.99968218536E+03  0.00000000000E+00 0.  1.
         21    1    1    2  504  502 -0.92089449618E+02 -0.43002437646E+02  0.22726136813E+03  0.24895261762E+03  0.00000000000E+00 0.  1.
<mgrwt>
<rscale>  2 0.10163502E+03</rscale>
<asrwt>0</asrwt>
<pdfrwt beam="1">  1       21 0.19003056E+00 0.10163502E+03</pdfrwt>
<pdfrwt beam="2">  1       21 0.20670125E-02 0.10163502E+03</pdfrwt>
<totfact> 0.19089176E+05</totfact>
</mgrwt>
</event>
<event>
 4    1  0.6055396E+003  0.1065693E+03  0.7546771E-02  0.1267058E+00
         21   -1    0    0  504  501  0.00000000000E+00  0.00000000000E+00  0.95776772280E+02  0.95776772280E+02  0.00000000000E+00 0.  1.
         21   -1    0    0  503  502 -0.00000000000E+00 -0.00000000000E+00 -0.17477014168E+03  0.17477014168E+03  0.00000000000E+00 0. -1.
         21    1    1    2  503  501  0.18285644340E+02  0.10498877679E+03  0.37207166188E+02  0.11287772702E+03  0.00000000000E+00 0.  1.
         21    1    1    2  504  502 -0.18285644340E+02 -0.10498877679E+03 -0.11620053558E+03  0.15766918694E+03  0.00000000000E+00 0. -1.
<mgrwt>
<rscale>  2 0.10656926E+03</rscale>
<asrwt>0</asrwt>
<pdfrwt beam="1">  1       21 0.14734888E-01 0.10656926E+03</pdfrwt>
<pdfrwt beam="2">  1       21 0.26887714E-01 0.10656926E+03</pdfrwt>
<totfact> 0.53831866E+05</totfact>
</mgrwt>
</event>
<event>
 4    1  0.6055396E+003  0.1359900E+03  0.7546771E-02  0.1218829E+00
         21   -1    0    0  503  501  0.00000000000E+00  0.00000000000E+00  0.44561987036E+03  0.44561987036E+03  0.00000000000E+00 0.  1.
         21   -1    0    0  501  502 -0.00000000000E+00 -0.00000000000E+00 -0.79233827452E+02  0.79233827452E+02  0.00000000000E+00 0. -1.
         21    1    1    2  503  504 -0.11084441019E+03 -0.78783221973E+02  0.36429269648E+03  0.38884758973E+03  0.00000000000E+00 0.  1.
         21    1    1    2  504  502  0.11084441019E+03  0.78783221973E+02  0.20933464278E+01  0.13600610808E+03  0.00000000000E+00 0. -1.
<mgrwt>
<rscale>  2 0.13599000E+03</rscale>
<asrwt>0</asrwt>
<pdfrwt beam="1">  1       21 0.68556901E-01 0.13599000E+03</pdfrwt>
<pdfrwt beam="2">  1       21 0.12189820E-01 0.13599000E+03</pdfrwt>
<totfact> 0.11307121E+05</totfact>
</mgrwt>
</event>
<event>
 4    1  0.6055396E+003  0.1889317E+03  0.7546771E-02  0.1159428E+00
         21   -1    0    0  503  501  0.00000000000E+00  0.00000000000E+00  0.50879683875E+03  0.50879683875E+03  0.00000000000E+00 0. -1.
         21   -1    0    0  504  502 -0.00000000000E+00 -0.00000000000E+00 -0.60531432057E+03  0.60531432057E+03  0.00000000000E+00 0. -1.
         21    1    1    2  503  502 -0.10270581293E+03  0.15857708448E+03 -0.57203905977E+03  0.60243162403E+03  0.00000000000E+00 0. -1.
         21    1    1    2  504  501  0.10270581293E+03 -0.15857708448E+03  0.47552157795E+03  0.51167953528E+03  0.00000000000E+00 0. -1.
<mgrwt>
<rscale>  2 0.18893167E+03</rscale>
<asrwt>0</asrwt>
<pdfrwt beam="1">  1       21 0.78276436E-01 0.18893167E+03</pdfrwt>
<pdfrwt beam="2">  1       21 0.93125280E-01 0.18893167E+03</pdfrwt>
<totfact> 0.14070729E+03</totfact>
</mgrwt>
</event>
<event>
 4    1  0.6055396E+003  0.1092352E+03  0.7546771E-02  0.1261993E+00
         21   -1    0    0  504  501  0.00000000000E+00  0.00000000000E+00  0.52603721040E+02  0.52603721040E+02  0.00000000000E+00 0.  1.
         21   -1    0    0  503  502 -0.00000000000E+00 -0.00000000000E+00 -0.24179657685E+03  0.24179657685E+03  0.00000000000E+00 0.  1.
         21    1    1    2  503  501  0.80756965492E+02  0.73557128933E+02 -0.57979733580E+02  0.12366886511E+03  0.00000000000E+00 0.  1.
         21    1    1    2  504  502 -0.80756965492E+02 -0.73557128933E+02 -0.13121312223E+03  0.17073143277E+03  0.00000000000E+00 0.  1.
<mgrwt>
<rscale>  2 0.10923524E+03</rscale>
<asrwt>0</asrwt>
<pdfrwt beam="1">  1       21 0.80928801E-02 0.10923524E+03</pdfrwt>
<pdfrwt beam="2">  1       21 0.37199474E-01 0.10923524E+03</pdfrwt>
<totfact> 0.82194652E+05</totfact>
</mgrwt>
</event>
<event>
 4    1  0.6055396E+003  0.1174591E+03  0.7546771E-02  0.1247348E+00
         21   -1    0    0  502  501  0.00000000000E+00  0.00000000000E+00  0.78790314114E+03  0.78790314114E+03  0.00000000000E+00 0.  1.
         21   -1    0    0  503  502 -0.00000000000E+00 -0.00000000000E+00 -0.87797944554E+02  0.87797944554E+02  0.00000000000E+00 0.  1.
         21    1    1    2  503  504  0.93840813622E+02 -0.70643839616E+02 -0.41709404376E+02  0.12464479448E+03  0.00000000000E+00 0.  1.
         21    1    1    2  504  501 -0.93840813622E+02  0.70643839616E+02  0.74181460096E+03  0.75105629122E+03  0.00000000000E+00 0.  1.
<mgrwt>
<rscale>  2 0.11745914E+03</rscale>
<asrwt>0</asrwt>
<pdfrwt beam="1">  1       21 0.12121586E+00 0.11745914E+03</pdfrwt>
<pdfrwt beam="2">  1       21 0.13507377E-01 0.11745914E+03</pdfrwt>
<totfact> 0.25719177E+04</totfact>
</mgrwt>
</event>
<event>
 4    1  0.6055396E+003  0.1131963E+03  0.7546771E-02  0.1254763E+00
         21   -1    0    0  504  501  0.00000000000E+00  0.00000000000E+00  0.11063840852E+03  0.11063840852E+03  0.00000000000E+00 0.  1.
         21   -1    0    0  503  502 -0.00000000000E+00 -0.00000000000E+00 -0.24619320846E+03  0.24619320846E+03  0.00000000000E+00 0.  1.
         21    1    1    2  503  501  0.71555518080E+02  0.87710911379E+02 -0.19761506005E+03  0.22773912291E+03  0.00000000000E+00 0.  1.
         21    1    1    2  504  502 -0.71555518080E+02 -0.87710911379E+02  0.62060260114E+02  0.12909249408E+03  0.00000000000E+00 0.  1.
<mgrwt>
<rscale>  2 0.11319627E+03</rscale>
<asrwt>0</asrwt>
<pdfrwt beam="1">  1       21 0.17021294E-01 0.11319627E+03</pdfrwt>
<pdfrwt beam="2">  1       21 0.37875878E-01 0.11319627E+03</pdfrwt>
<totfact> 0.21366955E+05</totfact>
</mgrwt>
</event>
<event>
 4    1  0.6055396E+003  0.1438432E+03  0.7546771E-02  0.1208249E+00
         21   -1    0    0  504  501  0.00000000000E+00  0.00000000000E+00  0.75935342929E+02  0.75935342929E+02  0.00000000000E+00 0. -1.
         21   -1    0    0  501  502 -0.00000000000E+00 -0.00000000000E+00 -0.39280674765E+03  0.39280674765E+03  0.00000000000E+00 0.  1.
         21    1    1    2  503  502  0.10638876616E+02  0.14344920128E+03 -0.28815233087E+03  0.32205997086E+03  0.00000000000E+00 0.  1.
         21    1    1    2  504  503 -0.10638876616E+02 -0.14344920128E+03 -0.28719073852E+02  0.14668211972E+03  0.00000000000E+00 0. -1.
<mgrwt>
<rscale>  2 0.14384318E+03</rscale>
<asrwt>0</asrwt>
<pdfrwt beam="1">  1       21 0.11682361E-01 0.14384318E+03</pdfrwt>
<pdfrwt beam="2">  1       21 0.60431806E-01 0.14384318E+03</pdfrwt>
<totfact> 0.15957158E+05</totfact>
</mgrwt>
</event>
<event>
 4    1  0.6055396E+003  0.1123889E+03  0.7546771E-02  0.1256209E+00
         21   -1    0    0  504  501  0.00000000000E+00  0.00000000000E+00  0.21850818804E+03  0.21850818804E+03  0.00000000000E+00 0. -1.
         21   -1    0    0  501  502 -0.00000000000E+00 -0.00000000000E+00 -0.65664081554E+02  0.65664081554E+02  0.00000000000E+00 0. -1.
         21    1    1    2  503  502 -0.94303646490E+02 -0.61139838319E+02  0.27271985868E+02  0.11565041627E+03  0.00000000000E+00 0. -1.
         21    1    1    2  504  503  0.94303646490E+02  0.61139838319E+02  0.12557212062E+03  0.16852185333E+03  0.00000000000E+00 0. -1.
<mgrwt>
<rscale>  2 0.11238887E+03</rscale>
<asrwt>0</asrwt>
<pdfrwt beam="1">  1       21 0.33616644E-01 0.11238887E+03</pdfrwt>
<pdfrwt beam="2">  1       21 0.10102167E-01 0.11238887E+03</pdfrwt>
<totfact> 0.68284417E+05</totfact>
</mgrwt>
</event>
<event>
 4    1  0.6055396E+003  0.1035815E+03  0.7546771E-02  0.1272940E+00
         21   -1    0    0  503  501  0.00000000000E+00  0.00000000000E+00  0.21906931433E+03  0.21906931433E+03  0.00000000000E+00 0.  1.
         21   -1    0    0  504  502 -0.00000000000E+00 -0.00000000000E+00 -0.50508198827E+02  0.50508198827E+02  0.00000000000E+00 0.  1.
         21    1    1    2  503  502 -0.10329992272E+03  0.76323806858E+01  0.60803822172E+02  0.12010925052E+03  0.00000000000E+00 0.  1.
         21    1    1    2  504  501  0.10329992272E+03 -0.76323806858E+01  0.10775729333E+03  0.14946826264E+03  0.00000000000E+00 0.  1.
<mgrwt>
<rscale>  2 0.10358150E+03</rscale>
<asrwt>0</asrwt>
<pdfrwt beam="1">  1       21 0.33702971E-01 0.10358150E+03</pdfrwt>
<pdfrwt beam="2">  1       21 0.77704922E-02 0.10358150E+03</pdfrwt>
<totfact> 0.10683219E+06</totfact>
</mgrwt>
</event>
<event>
 4    1  0.6055396E+003  0.1033784E+03  0.7546771E-02  0.1273348E+00
         21   -1    0    0  502  501  0.00000000000E+00  0.00000000000E+00  0.96631312656E+02  0.96631312656E+02  0.00000000000E+00 0. -1.
         21   -1    0    0  504  502 -0.00000000000E+00 -0.00000000000E+00 -0.22381682022E+03  0.22381682022E+03  0.00000000000E+00 0. -1.
         21    1    1    2  503  501 -0.33767348529E+02  0.97708021721E+02  0.50364887672E+02  0.11499440528E+03  0.00000000000E+00 0. -1.
         21    1    1    2  504  503  0.33767348529E+02 -0.97708021721E+02 -0.17755039523E+03  0.20545372759E+03  0.00000000000E+00 0. -1.
<mgrwt>
<rscale>  2 0.10337839E+03</rscale>
<asrwt>0</asrwt>
<pdfrwt beam="1">  1       21 0.14866356E-01 0.10337839E+03</pdfrwt>
<pdfrwt beam="2">  1       21 0.34433357E-01 0.10337839E+03</pdfrwt>
<totfact> 0.32949001E+05</totfact>
</mgrwt>
</event>
<event>
 4    1  0.6055396E+003  0.1040044E+03  0.7546771E-02  0.1272094E+00
         21   -1    0    0  503  501  0.00000000000E+00  0.00000000000E+00  0.39072689695E+03  0.39072689695E+03  0.00000000000E+00 0. -1.
         21   -1    0    0  504  502 -0.00000000000E+00 -0.00000000000E+00 -0.28676080390E+03  0.28676080390E+03  0.00000000000E+00 0. -1.
         21    1    1    2  503  502 -0.92866806587E+02 -0.46825889964E+02  0.37396070546E+03  0.38815398615E+03  0.00000000000E+00 0. -1.
         21    1    1    2  504  501  0.92866806587E+02  0.46825889964E+02 -0.26999461241E+03  0.28933371470E+03  0.00000000000E+00 0. -1.
<mgrwt>
<rscale>  2 0.10400436E+03</rscale>
<asrwt>0</asrwt>
<pdfrwt beam="1">  1       21 0.60111830E-01 0.10400436E+03</pdfrwt>
<pdfrwt beam="2">  1       21 0.44117047E-01 0.10400436E+03</pdfrwt>
<totfact> 0.13646163E+04</totfact>
</mgrwt>
</event>
<event>
 4    1  0.6055396E+003  0.1308703E+03  0.7546771E-02  0.1226170E+00
         21   -1    0    0  504  501  0.00000000000E+00  0.00000000000E+00  0.14982716458E+03  0.14982716458E+03  0.00000000000E+00 0.  1.
         21   -1    0    0  503  502 -0.00000000000E+00 -0.00000000000E+00 -0.12260224464E+03  0.12260224464E+03  0.00000000000E+00 0.  1.
         21    1    1    2  503  501  0.68778371890E+02 -0.11133992617E+03 -0.21808336460E+02  0.13267496802E+03  0.00000000000E+00 0.  1.
         21    1    1    2  504  502 -0.68778371890E+02  0.11133992617E+03  0.49033256403E+02  0.13975444119E+03  0.00000000000E+00 0.  1.
<mgrwt>
<rscale>  2 0.13087033E+03</rscale>
<asrwt>0</asrwt>
<pdfrwt beam="1">  1       21 0.23050333E-01 0.13087033E+03</pdfrwt>
<pdfrwt beam="2">  1       21 0.18861884E-01 0.13087033E+03</pdfrwt>
<totfact> 0.45901330E+05</totfact>
</mgrwt>
</event>
<event>
 4    1  0.6055396E+003  0.1061906E+03  0.7546771E-02  0.1267791E+00
         21   -1    0    0  503  501  0.00000000000E+00  0.00000000000E+00  0.16530921004E+04  0.16530921004E+04  0.00000000000E+00 0.  1.
         21   -1    0    0  504  502 -0.00000000000E+00 -0.00000000000E+00 -0.23747143109E+02  0.23747143109E+02  0.00000000000E+00 0. -1.
         21    1    1    2  503  502 -0.87085442511E+02 -0.60766525296E+02  0.10684194622E+03  0.15063746668E+03  0.00000000000E+00 0. -1.
         21    1    1    2  504  501  0.87085442511E+02  0.60766525296E+02  0.15225030110E+04  0.15262017768E+04  0.00000000000E+00 0.  1.
<mgrwt>
<rscale>  2 0.10619061E+03</rscale>
<asrwt>0</asrwt>
<pdfrwt beam="1">  1       21 0.25432177E+00 0.10619061E+03</pdfrwt>
<pdfrwt beam="2">  1       21 0.36534079E-02 0.10619061E+03</pdfrwt>
<totfact> 0.31259169E+04</totfact>
</mgrwt>
</event>
<event>
 4    1  0.6055396E+003  0.1348193E+03  0.7546771E-02  0.1220475E+00
         21   -1    0    0  504  501  0.00000000000E+00  0.00000000000E+00  0.11522434825E+03  0.11522434825E+03  0.00000000000E+00 0.  1.
         21   -1    0    0  503  502 -0.00000000000E+00 -0.00000000000E+00 -0.27540220365E+03  0.27540220365E+03  0.00000000000E+00 0.  1.
         21    1    1    2  503  501  0.13373596373E+03  0.17056509631E+02  0.47571011716E+02  0.14296584791E+03  0.00000000000E+00 0.  1.
         21    1    1    2  504  502 -0.13373596373E+03 -0.17056509631E+02 -0.20774886711E+03  0.24766070399E+03  0.00000000000E+00 0.  1.
<mgrwt>
<rscale>  2 0.13481926E+03</rscale>
<asrwt>0</asrwt>
<pdfrwt beam="1">  1       21 0.17726823E-01 0.13481926E+03</pdfrwt>
<pdfrwt beam="2">  1       21 0.42369569E-01 0.13481926E+03</pdfrwt>
<totfact> 0.15763044E+05</totfact>
</mgrwt>
</event>
<event>
 4    1  0.6055396E+003  0.1017883E+03  0.7546771E-02  0.1276580E+00
         21   -1    0    0  504  501  0.00000000000E+00  0.00000000000E+00  0.23441305588E+02  0.23441305588E+02  0.00000000000E+00 0.  1.
         21   -1    0    0  503  502 -0.00000000000E+00 -0.00000000000E+00 -0.44199685831E+03  0.44199685831E+03  0.00000000000E+00 0.  1.
         21    1    1    2  503  501 -0.83434885451E+02 -0.58305014728E+02 -0.21009757008E+03  0.23345629956E+03  0.00000000000E+00 0.  1.
         21    1    1    2  504  502  0.83434885451E+02  0.58305014728E+02 -0.20845798264E+03  0.23198186433E+03  0.00000000000E+00 0.  1.
<mgrwt>
<rscale>  2 0.10178828E+03</rscale>
<asrwt>0</asrwt>
<pdfrwt beam="1">  1       21 0.36063549E-02 0.10178828E+03</pdfrwt>
<pdfrwt beam="2">  1       21 0.67999514E-01 0.10178828E+03</pdfrwt>
<totfact> 0.92291603E+05</totfact>
</mgrwt>
</event>
<event>
 4    1  0.6055396E+003  0.1140728E+03  0.7546771E-02  0.1253208E+00
         21   -1    0    0  502  501  0.00000000000E+00  0.00000000000E+00  0.14882056495E+03  0.14882056495E+03  0.00000000000E+00 0. -1.
         21   -1    0    0  504  502 -0.00000000000E+00 -0.00000000000E+00 -0.11297178082E+03  0.11297178082E+03  0.00000000000E+00 0. -1.
         21    1    1    2  503  501 -0.82413912796E+02  0.78870447219E+02  0.80154123942E+02  0.13941766047E+03  0.00000000000E+00 0. -1.
         21    1    1    2  504  503  0.82413912796E+02 -0.78870447219E+02 -0.44305339807E+02  0.12237468530E+03  0.00000000000E+00 0. -1.
<mgrwt>
<rscale>  2 0.11407279E+03</rscale>
<asrwt>0</asrwt>
<pdfrwt beam="1">  1       21 0.22895472E-01 0.11407279E+03</pdfrwt>
<pdfrwt beam="2">  1       21 0.17380274E-01 0.11407279E+03</pdfrwt>
<totfact> 0.54045712E+05</totfact>
</mgrwt>
</event>
<event>
 4    1  0.6055396E+003  0.1002521E+03  0.7546771E-02  0.1279767E+00
         21   -1    0    0  504  501  0.00000000000E+00  0.00000000000E+00  0.39717651663E+03  0.39717651663E+03  0.00000000000E+00 0.  1.
         21   -1    0    0  501  502 -0.00000000000E+00 -0.00000000000E+00 -0.78064282261E+02  0.78064282261E+02  0.00000000000E+00 0.  1.
         21    1    1    2  503  502 -0.39135097122E+02  0.92297996101E+02 -0.35791339523E+02  0.10644949928E+03  0.00000000000E+00 0.  1.
         21    1    1    2  504  503  0.39135097122E+02 -0.92297996101E+02  0.35490357389E+03  0.36879129961E+03  0.00000000000E+00 0.  1.
<mgrwt>
<rscale>  2 0.10025206E+03</rscale>
<asrwt>0</asrwt>
<pdfrwt beam="1">  1       21 0.61104078E-01 0.10025206E+03</pdfrwt>
<pdfrwt beam="2">  1       21 0.12009890E-01 0.10025206E+03</pdfrwt>
<totfact> 0.15066049E+05</totfact>
</mgrwt>
</event>
<event>
 4    1  0.6055396E+003  0.1292484E+03  0.7546771E-02  0.1228575E+00
         21   -1    0    0  502  501  0.00000000000E+00  0.00000000000E+00  0.13108402444E+03  0.13108402444E+03  0.00000000000E+00 0. -1.
         21   -1    0    0  503  502 -0.00000000000E+00 -0.00000000000E+00 -0.18196938270E+03  0.18196938270E+03  0.00000000000E+00 0. -1.
         21    1    1    2  503  504  0.11197638436E+03 -0.64547908501E+02 -0.11112886159E+03  0.17045458934E+03  0.00000000000E+00 0. -1.
         21    1    1    2  504  501 -0.11197638436E+03  0.64547908501E+02  0.60243503336E+02  0.14259881781E+03  0.00000000000E+00 0. -1.
<mgrwt>
<rscale>  2 0.12924838E+03</rscale>
<asrwt>0</asrwt>
<pdfrwt beam="1">  1       21 0.20166773E-01 0.12924838E+03</pdfrwt>
<pdfrwt beam="2">  1       21 0.27995289E-01 0.12924838E+03</pdfrwt>
<totfact> 0.28084892E+05</totfact>
</mgrwt>
</event>
<event>
 4    1  0.6055396E+003  0.1042743E+03  0.7546771E-02  0.1271556E+00
         21   -1    0    0  504  501  0.00000000000E+00  0.00000000000E+00  0.95845616220E+01  0.95845616220E+01  0.00000000000E+00 0.  1.
         21   -1    0    0  503  502 -0.00000000000E+00 -0.00000000000E+00 -0.12334966399E+04  0.12334966399E+04  0.00000000000E+00 0.  1.
         21    1    1    2  503  501 -0.61451154713E+02  0.84243023088E+02 -0.43582437054E+03  0.44812499741E+03  0.00000000000E+00 0.  1.
         21    1    1    2  504  502  0.61451154713E+02 -0.84243023088E+02 -0.78808770770E+03  0.79495620407E+03  0.00000000000E+00 0.  1.
<mgrwt>
<rscale>  2 0.10427431E+03</rscale>
<asrwt>0</asrwt>
<pdfrwt beam="1">  1       21 0.14745479E-02 0.10427431E+03</pdfrwt>
<pdfrwt beam="2">  1       21 0.18976871E+00 0.10427431E+03</pdfrwt>
<totfact> 0.32812853E+05</totfact>
</mgrwt>
</event>
<event>
 4    1  0.6055396E+003  0.1158574E+03  0.7546771E-02  0.1250092E+00
         21   -1    0    0  502  501  0.00000000000E+00  0.00000000000E+00  0.79354808266E+02  0.79354808266E+02  0.00000000000E+00 0.  1.
         21   -1    0    0  503  502 -0.00000000000E+00 -0.00000000000E+00 -0.86731437158E+03  0.86731437158E+03  0.00000000000E+00 0. -1.
         21    1    1    2  503  504  0.59519201280E+02 -0.99400249639E+02 -0.81865654841E+03  0.82681405963E+03  0.00000000000E+00 0. -1.
         21    1    1    2  504  501 -0.59519201280E+02  0.99400249639E+02  0.30696985092E+02  0.11985512022E+03  0.00000000000E+00 0.  1.
<mgrwt>
<rscale>  2 0.11585743E+03</rscale>
<asrwt>0</asrwt>
<pdfrwt beam="1">  1       21 0.12208432E-01 0.11585743E+03</pdfrwt>
<pdfrwt beam="2">  1       21 0.13343299E+00 0.11585743E+03</pdfrwt>
<totfact> 0.24321355E+04</totfact>
</mgrwt>
</event>
<event>
 4    1  0.6055396E+003  0.1197628E+03  0.7546771E-02  0.1243489E+00
         21   -1    0    0  504  501  0.00000000000E+00  0.00000000000E+00  0.17052594338E+04  0.17052594338E+04  0.00000000000E+00 0. -1.
         21   -1    0    0  503  502 -0.00000000000E+00 -0.00000000000E+00 -0.14331357140E+02  0.14331357140E+02  0.00000000000E+00 0. -1.
         21    1    1    2  503  501 -0.11499728174E+03  0.33447690884E+02  0.29285063596E+03  0.31639313806E+03  0.00000000000E+00 0. -1.
         21    1    1    2  504  502  0.11499728174E+03 -0.33447690884E+02  0.13980774407E+04  0.14031976529E+04  0.00000000000E+00 0. -1.
<mgrwt>
<rscale>  2 0.11976278E+03</rscale>
<asrwt>0</asrwt>
<pdfrwt beam="1">  1       21 0.26234744E+00 0.11976278E+03</pdfrwt>
<pdfrwt beam="2">  1       21 0.22048255E-02 0.11976278E+03</pdfrwt>
<totfact> 0.63129175E+04</totfact>
</mgrwt>
</event>
<event>
 4    1  0.6055396E+003  0.1062725E+03  0.7546771E-02  0.1267632E+00
         21   -1    0    0  504  501  0.00000000000E+00  0.00000000000E+00  0.78582133989E+02  0.78582133989E+02  0.00000000000E+00 0. -1.
         21   -1    0    0  503  502 -0.00000000000E+00 -0.00000000000E+00 -0.51032459257E+03  0.51032459257E+03  0.00000000000E+00 0. -1.
         21    1    1    2  503  501  0.92903224412E+02  0.51602751514E+02 -0.46544101391E+03  0.47741930260E+03  0.00000000000E+00 0. -1.
         21    1    1    2  504  502 -0.92903224412E+02 -0.51602751514E+02  0.33698555325E+02  0.11148742396E+03  0.00000000000E+00 0. -1.
<mgrwt>
<rscale>  2 0.10627254E+03</rscale>
<asrwt>0</asrwt>
<pdfrwt beam="1">  1       21 0.12089559E-01 0.10627254E+03</pdfrwt>
<pdfrwt beam="2">  1       21 0.78511477E-01 0.10627254E+03</pdfrwt>
<totfact> 0.86361220E+04</totfact>
</mgrwt>
</event>
<event>
 4    1  0.6055396E+003  0.1567280E+03  0.7546771E-02  0.1192441E+00
         21   -1    0    0  503  501  0.00000000000E+00  0.00000000000E+00  0.67427535076E+02  0.67427535076E+02  0.00000000000E+00 0.  1.
         21   -1    0    0  504  502 -0.00000000000E+00 -0.00000000000E+00 -0.47522433350E+03  0.47522433350E+03  0.00000000000E+00 0.  1.
         21    1    1    2  503  502 -0.15588234545E+03  0.16258807338E+02 -0.72810955821E+02  0.17281518951E+03  0.00000000000E+00 0.  1.
         21    1    1    2  504  501  0.15588234545E+03 -0.16258807338E+02 -0.33498584260E+03  0.36983667906E+03  0.00000000000E+00 0.  1.
<mgrwt>
<rscale>  2 0.15672796E+03</rscale>
<asrwt>0</asrwt>
<pdfrwt beam="1">  1       21 0.10373467E-01 0.15672796E+03</pdfrwt>
<pdfrwt beam="2">  1       21 0.73111436E-01 0.15672796E+03</pdfrwt>
<totfact> 0.12968537E+05</totfact>
</mgrwt>
</event>
<event>
 4    1  0.6055396E+003  0.1221052E+03  0.7546771E-02  0.1239664E+00
         21   -1    0    0  504  501  0.00000000000E+00  0.00000000000E+00  0.86108789074E+02  0.86108789074E+02  0.00000000000E+00 0.  1.
         21   -1    0    0  501  502 -0.00000000000E+00 -0.00000000000E+00 -0.49308402267E+03  0.49308402267E+03  0.00000000000E+00 0. -1.
         21    1    1    2  503  502 -0.88298462174E+02 -0.84338908650E+02 -0.43676006267E+03  0.45350746662E+03  0.00000000000E+00 0. -1.
         21    1    1    2  504  503  0.88298462174E+02  0.84338908650E+02  0.29784829080E+02  0.12568534512E+03  0.00000000000E+00 0.  1.
<mgrwt>
<rscale>  2 0.12210516E+03</rscale>
<asrwt>0</asrwt>
<pdfrwt beam="1">  1       21 0.13247506E-01 0.12210516E+03</pdfrwt>
<pdfrwt beam="2">  1       21 0.75859079E-01 0.12210516E+03</pdfrwt>
<totfact> 0.78585174E+04</totfact>
</mgrwt>
</event>
<event>
 4    1  0.6055396E+003  0.1072697E+03  0.7546771E-02  0.1265711E+00
         21   -1    0    0  502  501  0.00000000000E+00  0.00000000000E+00  0.30601522983E+03  0.30601522983E+03  0.00000000000E+00 0.  1.
         21   -1    0    0  504  502 -0.00000000000E+00 -0.00000000000E+00 -0.17395765846E+03  0.17395765846E+03  0.00000000000E+00 0.  1.
         21    1    1    2  503  501  0.75068222202E+01 -0.10700672891E+03  0.27850067341E+03  0.29844499912E+03  0.00000000000E+00 0.  1.
         21    1    1    2  504  503 -0.75068222202E+01  0.10700672891E+03 -0.14644310204E+03  0.18152788917E+03  0.00000000000E+00 0.  1.
<mgrwt>
<rscale>  2 0.10726972E+03</rscale>
<asrwt>0</asrwt>
<pdfrwt beam="1">  1       21 0.47079266E-01 0.10726972E+03</pdfrwt>
<pdfrwt beam="2">  1       21 0.26762717E-01 0.10726972E+03</pdfrwt>
<totfact> 0.59869718E+04</totfact>
</mgrwt>
</event>
<event>
 4    1  0.6055396E+003  0.1071818E+03  0.7546771E-02  0.1265880E+00
         21   -1    0    0  502  501  0.00000000000E+00  0.00000000000E+00  0.13785108716E+03  0.13785108716E+03  0.00000000000E+00 0. -1.
         21   -1    0    0  504  502 -0.00000000000E+00 -0.00000000000E+00 -0.56584362157E+03  0.56584362157E+03  0.00000000000E+00 0.  1.
         21    1    1    2  503  501 -0.13525841955E+02  0.10632494073E+03  0.11091009908E+03  0.15423680333E+03  0.00000000000E+00 0. -1.
         21    1    1    2  504  503  0.13525841955E+02 -0.10632494073E+03 -0.53890263349E+03  0.54945790540E+03  0.00000000000E+00 0.  1.
<mgrwt>
<rscale>  2 0.10718181E+03</rscale>
<asrwt>0</asrwt>
<pdfrwt beam="1">  1       21 0.21207859E-01 0.10718181E+03</pdfrwt>
<pdfrwt beam="2">  1       21 0.87052865E-01 0.10718181E+03</pdfrwt>
<totfact> 0.24852042E+04</totfact>
</mgrwt>
</event>
<event>
 4    1  0.6055396E+003  0.1254652E+03  0.7546771E-02  0.1234344E+00
         21   -1    0    0  504  501  0.00000000000E+00  0.00000000000E+00  0.43742980968E+02  0.43742980968E+02  0.00000000000E+00 0. -1.
         21   -1    0    0  503  502 -0.00000000000E+00 -0.00000000000E+00 -0.45866519184E+03  0.45866519184E+03  0.00000000000E+00 0. -1.
         21    1    1    2  503  501 -0.12214405403E+03 -0.28676490149E+02 -0.32405090551E+03  0.34749172707E+03  0.00000000000E+00 0. -1.
         21    1    1    2  504  502  0.12214405403E+03  0.28676490149E+02 -0.90871305370E+02  0.15491644574E+03  0.00000000000E+00 0. -1.
<mgrwt>
<rscale>  2 0.12546518E+03</rscale>
<asrwt>0</asrwt>
<pdfrwt beam="1">  1       21 0.67296894E-02 0.12546518E+03</pdfrwt>
<pdfrwt beam="2">  1       21 0.70563875E-01 0.12546518E+03</pdfrwt>
<totfact> 0.29930507E+05</totfact>
</mgrwt>
</event>
<event>
 4    1  0.6055396E+003  0.1002308E+03  0.7546771E-02  0.1279811E+00
         21   -1    0    0  504  501  0.00000000000E+00  0.00000000000E+00  0.74129931925E+03  0.74129931925E+03  0.00000000000E+00 0.  1.
         21   -1    0    0  501  502 -0.00000000000E+00 -0.00000000000E+00 -0.28015807994E+02  0.28015807994E+02  0.00000000000E+00 0.  1.
         21    1    1    2  503  502  0.18325069608E+02  0.98541387911E+02  0.80258649016E+02  0.12840429919E+03  0.00000000000E+00 0.  1.
         21    1    1    2  504  503 -0.18325069608E+02 -0.98541387911E+02  0.63302486224E+03  0.64091082806E+03  0.00000000000E+00 0.  1.
<mgrwt>
<rscale>  2 0.10023080E+03</rscale>
<asrwt>0</asrwt>
<pdfrwt beam="1">  1       21 0.11404603E+00 0.10023080E+03</pdfrwt>
<pdfrwt beam="2">  1       21 0.43101249E-02 0.10023080E+03</pdfrwt>
<totfact> 0.21337991E+05</totfact>
</mgrwt>
</event>
<event>
 4    1  0.6055396E+003  0.1086220E+03  0.7546771E-02  0.1263143E+00
         21   -1    0    0  503  501  0.00000000000E+00  0.00000000000E+00  0.57094524938E+02  0.57094524938E+02  0.00000000000E+00 0.  1.
         21   -1    0    0  504  502 -0.00000000000E+00 -0.00000000000E+00 -0.51946208729E+03  0.51946208729E+03  0.00000000000E+00 0.  1.
         21    1    1    2  503  502 -0.10829399153E+03  0.84345656747E+01 -0.74791319110E+01  0.10887914361E+03  0.00000000000E+00 0.  1.
         21    1    1    2  504  501  0.10829399153E+03 -0.84345656747E+01 -0.45488843044E+03  0.46767746861E+03  0.00000000000E+00 0.  1.
<mgrwt>
<rscale>  2 0.10862196E+03</rscale>
<asrwt>0</asrwt>
<pdfrwt beam="1">  1       21 0.87837726E-02 0.10862196E+03</pdfrwt>
<pdfrwt beam="2">  1       21 0.79917249E-01 0.10862196E+03</pdfrwt>
<totfact> 0.14481154E+05</totfact>
</mgrwt>
</event>
<event>
 4    1  0.6055396E+003  0.1210041E+03  0.7546771E-02  0.1241450E+00
         21   -1    0    0  502  501  0.00000000000E+00  0.00000000000E+00  0.56646078096E+02  0.56646078096E+02  0.00000000000E+00 0.  1.
         21   -1    0    0  504  502 -0.00000000000E+00 -0.00000000000E+00 -0.32620429965E+03  0.32620429965E+03  0.00000000000E+00 0.  1.
         21    1    1    2  503  501  0.10693916074E+03 -0.56621716042E+02 -0.47558433554E+02  0.13001464313E+03  0.00000000000E+00 0.  1.
         21    1    1    2  504  503 -0.10693916074E+03  0.56621716042E+02 -0.22199978800E+03  0.25283573461E+03  0.00000000000E+00 0.  1.
<mgrwt>
<rscale>  2 0.12100414E+03</rscale>
<asrwt>0</asrwt>
<pdfrwt beam="1">  1       21 0.87147813E-02 0.12100414E+03</pdfrwt>
<pdfrwt beam="2">  1       21 0.50185276E-01 0.12100414E+03</pdfrwt>
<totfact> 0.39555545E+05</totfact>
</mgrwt>
</event>
<event>
 4    1  0.6055396E+003  0.1145315E+03  0.7546771E-02  0.1252401E+00
         21   -1    0    0  503  501  0.00000000000E+00  0.00000000000E+00  0.60966985676E+03  0.60966985676E+03  0.00000000000E+00 0.  1.
         21   -1    0    0  504  502 -0.00000000000E+00 -0.00000000000E+00 -0.31222364445E+02  0.31222364445E+02  0.00000000000E+00 0.  1.
         21    1    1    2  503  502  0.18707812309E+02  0.11299328799E+03  0.46789612744E+03  0.48170971699E+03  0.00000000000E+00 0.  1.
         21    1    1    2  504  501 -0.18707812309E+02 -0.11299328799E+03  0.11055136488E+03  0.15918250422E+03  0.00000000000E+00 0.  1.
<mgrwt>
<rscale>  2 0.11453150E+03</rscale>
<asrwt>0</asrwt>
<pdfrwt beam="1">  1       21 0.93795354E-01 0.11453150E+03</pdfrwt>
<pdfrwt beam="2">  1       21 0.48034411E-02 0.11453150E+03</pdfrwt>
<totfact> 0.28045329E+05</totfact>
</mgrwt>
</event>
<event>
 4    1  0.6055396E+003  0.1297992E+03  0.7546771E-02  0.1227754E+00
         21   -1    0    0  503  501  0.00000000000E+00  0.00000000000E+00  0.50108602201E+02  0.50108602201E+02  0.00000000000E+00 0.  1.
         21   -1    0    0  504  502 -0.00000000000E+00 -0.00000000000E+00 -0.82229138649E+03  0.82229138649E+03  0.00000000000E+00 0.  1.
         21    1    1    2  503  502 -0.95072072138E+02 -0.88369344285E+02 -0.72145807068E+03  0.73304132739E+03  0.00000000000E+00 0.  1.
         21    1    1    2  504  501  0.95072072138E+02  0.88369344285E+02 -0.50724713611E+02  0.13935866131E+03  0.00000000000E+00 0.  1.
<mgrwt>
<rscale>  2 0.12979923E+03</rscale>
<asrwt>0</asrwt>
<pdfrwt beam="1">  1       21 0.77090160E-02 0.12979923E+03</pdfrwt>
<pdfrwt beam="2">  1       21 0.12650636E+00 0.12979923E+03</pdfrwt>
<totfact> 0.61267183E+04</totfact>
</mgrwt>
</event>
<event>
 4    1  0.6055396E+003  0.1047041E+03  0.7546771E-02  0.1270704E+00
         21   -1    0    0  504  501  0.00000000000E+00  0.00000000000E+00  0.21413041444E+03  0.21413041444E+03  0.00000000000E+00 0. -1.
         21   -1    0    0  503  502 -0.00000000000E+00 -0.00000000000E+00 -0.10534036801E+03  0.10534036801E+03  0.00000000000E+00 0. -1.
         21    1    1    2  503  501 -0.83509031961E+02 -0.63160108471E+02 -0.60123058949E+02  0.12073831181E+03  0.00000000000E+00 0. -1.
         21    1    1    2  504  502  0.83509031961E+02  0.63160108471E+02  0.16891310538E+03  0.19873247065E+03  0.00000000000E+00 0. -1.
<mgrwt>
<rscale>  2 0.10470414E+03</rscale>
<asrwt>0</asrwt>
<pdfrwt beam="1">  1       21 0.32943141E-01 0.10470414E+03</pdfrwt>
<pdfrwt beam="2">  1       21 0.16206210E-01 0.10470414E+03</pdfrwt>
<totfact> 0.30742406E+05</totfact>
</mgrwt>
</event>
<event>
 4    1  0.6055396E+003  0.1863663E+03  0.7546771E-02  0.1161780E+00
         21   -1    0    0  504  501  0.00000000000E+00  0.00000000000E+00  0.58500554977E+03  0.58500554977E+03  0.00000000000E+00 0. -1.
         21   -1    0    0  503  502 -0.00000000000E+00 -0.00000000000E+00 -0.59530694866E+02  0.59530694866E+02  0.00000000000E+00 0. -1.
         21    1    1    2  503  501  0.18624517582E+03 -0.67191615882E+01  0.27942450909E+03  0.33587269751E+03  0.00000000000E+00 0. -1.
         21    1    1    2  504  502 -0.18624517582E+03  0.67191615882E+01  0.24605034581E+03  0.30866354713E+03  0.00000000000E+00 0. -1.
<mgrwt>
<rscale>  2 0.18636634E+03</rscale>
<asrwt>0</asrwt>
<pdfrwt beam="1">  1       21 0.90000850E-01 0.18636634E+03</pdfrwt>
<pdfrwt beam="2">  1       21 0.91585689E-02 0.18636634E+03</pdfrwt>
<totfact> 0.99773864E+04</totfact>
</mgrwt>
</event>
<event>
 4    1  0.6055396E+003  0.1445497E+03  0.7546771E-02  0.1207335E+00
         21   -1    0    0  502  501  0.00000000000E+00  0.00000000000E+00  0.21293714980E+03  0.21293714980E+03  0.00000000000E+00 0.  1.
         21   -1    0    0  504  502 -0.00000000000E+00 -0.00000000000E+00 -0.11368038821E+03  0.11368038821E+03  0.00000000000E+00 0.  1.
         21    1    1    2  503  501 -0.76003470002E+02  0.12295559153E+03  0.11003680588E+03  0.18166646248E+03  0.00000000000E+00 0.  1.
         21    1    1    2  504  503  0.76003470002E+02 -0.12295559153E+03 -0.10780044296E+02  0.14495107553E+03  0.00000000000E+00 0.  1.
<mgrwt>
<rscale>  2 0.14454966E+03</rscale>
<asrwt>0</asrwt>
<pdfrwt beam="1">  1       21 0.32759561E-01 0.14454966E+03</pdfrwt>
<pdfrwt beam="2">  1       21 0.17489291E-01 0.14454966E+03</pdfrwt>
<totfact> 0.26855176E+05</totfact>
</mgrwt>
</event>
<event>
 4    1  0.6055396E+003  0.1038526E+03  0.7546771E-02  0.1272397E+00
         21   -1    0    0  503  501  0.00000000000E+00  0.00000000000E+00  0.13454064217E+04  0.13454064217E+04  0.00000000000E+00 0. -1.
         21   -1    0    0  504  502 -0.00000000000E+00 -0.00000000000E+00 -0.22263077418E+02  0.22263077418E+02  0.00000000000E+00 0. -1.
         21    1    1    2  503  502  0.95926433801E+02  0.39792967294E+02  0.12086063452E+04  0.12130600391E+04  0.00000000000E+00 0. -1.
         21    1    1    2  504  501 -0.95926433801E+02 -0.39792967294E+02  0.11453699906E+03  0.15460945993E+03  0.00000000000E+00 0. -1.
<mgrwt>
<rscale>  2 0.10385259E+03</rscale>
<asrwt>0</asrwt>
<pdfrwt beam="1">  1       21 0.20698554E+00 0.10385259E+03</pdfrwt>
<pdfrwt beam="2">  1       21 0.34250899E-02 0.10385259E+03</pdfrwt>
<totfact> 0.65809552E+04</totfact>
</mgrwt>
</event>
<event>
 4    1  0.6055396E+003  0.1434109E+03  0.7546771E-02  0.1208812E+00
         21   -1    0    0  502  501  0.00000000000E+00  0.00000000000E+00  0.27192595859E+03  0.27192595859E+03  0.00000000000E+00 0. -1.
         21   -1    0    0  503  502 -0.00000000000E+00 -0.00000000000E+00 -0.35601403636E+03  0.35601403636E+03  0.00000000000E+00 0. -1.
         21    1    1    2  503  504 -0.71499163057E+02 -0.12431636702E+03 -0.32067449403E+03  0.35128168262E+03  0.00000000000E+00 0. -1.
         21    1    1    2  504  501  0.71499163057E+02  0.12431636702E+03  0.23658641625E+03  0.27665831233E+03  0.00000000000E+00 0. -1.
<mgrwt>
<rscale>  2 0.14341091E+03</rscale>
<asrwt>0</asrwt>
<pdfrwt beam="1">  1       21 0.41834763E-01 0.14341091E+03</pdfrwt>
<pdfrwt beam="2">  1       21 0.54771390E-01 0.14341091E+03</pdfrwt>
<totfact> 0.17871379E+04</totfact>
</mgrwt>
</event>
<event>
 4    1  0.6055396E+003  0.1600139E+03  0.7546771E-02  0.1188681E+00
         21   -1    0    0  503  501  0.00000000000E+00  0.00000000000E+00  0.15994576002E+03  0.15994576002E+03  0.00000000000E+00 0.  1.
         21   -1    0    0  504  502 -0.00000000000E+00 -0.00000000000E+00 -0.19216276246E+03  0.19216276246E+03  0.00000000000E+00 0.  1.
         21    1    1    2  503  502  0.15933918849E+03  0.14678414842E+02  0.55825538038E+02  0.16947248611E+03  0.00000000000E+00 0.  1.
         21    1    1    2  504  501 -0.15933918849E+03 -0.14678414842E+02 -0.88042540474E+02  0.18263603637E+03  0.00000000000E+00 0.  1.
<mgrwt>
<rscale>  2 0.16001385E+03</rscale>
<asrwt>0</asrwt>
<pdfrwt beam="1">  1       21 0.24607040E-01 0.16001385E+03</pdfrwt>
<pdfrwt beam="2">  1       21 0.29563502E-01 0.16001385E+03</pdfrwt>
<totfact> 0.17295203E+05</totfact>
</mgrwt>
</event>
<event>
 4    1  0.6055396E+003  0.1204514E+03  0.7546771E-02  0.1242354E+00
         21   -1    0    0  503  501  0.00000000000E+00  0.00000000000E+00  0.33423213212E+02  0.33423213212E+02  0.00000000000E+00 0. -1.
         21   -1    0    0  504  502 -0.00000000000E+00 -0.00000000000E+00 -0.67471353804E+03  0.67471353804E+03  0.00000000000E+00 0.  1.
         21    1    1    2  503  502  0.34849792075E+02 -0.11529975817E+03 -0.10919877441E+03  0.16258202414E+03  0.00000000000E+00 0. -1.
         21    1    1    2  504  501 -0.34849792075E+02  0.11529975817E+03 -0.53209155042E+03  0.54555472711E+03  0.00000000000E+00 0.  1.
<mgrwt>
<rscale>  2 0.12045141E+03</rscale>
<asrwt>0</asrwt>
<pdfrwt beam="1">  1       21 0.51420328E-02 0.12045141E+03</pdfrwt>
<pdfrwt beam="2">  1       21 0.10380208E+00 0.12045141E+03</pdfrwt>
<totfact> 0.19726699E+05</totfact>
</mgrwt>
</event>
<event>
 4    1  0.6055396E+003  0.1122057E+03  0.7546771E-02  0.1256539E+00
         21   -1    0    0  502  501  0.00000000000E+00  0.00000000000E+00  0.33552227226E+03  0.33552227226E+03  0.00000000000E+00 0. -1.
         21   -1    0    0  503  502 -0.00000000000E+00 -0.00000000000E+00 -0.42749474495E+02  0.42749474495E+02  0.00000000000E+00 0. -1.
         21    1    1    2  503  504  0.29495871246E+02 -0.10825950692E+03  0.80260333241E+02  0.13795596526E+03  0.00000000000E+00 0. -1.
         21    1    1    2  504  501 -0.29495871246E+02  0.10825950692E+03  0.21251246452E+03  0.24031578150E+03  0.00000000000E+00 0. -1.
<mgrwt>
<rscale>  2 0.11220574E+03</rscale>
<asrwt>0</asrwt>
<pdfrwt beam="1">  1       21 0.51618809E-01 0.11220574E+03</pdfrwt>
<pdfrwt beam="2">  1       21 0.65768424E-02 0.11220574E+03</pdfrwt>
<totfact> 0.60514718E+05</totfact>
</mgrwt>
</event>
<event>
 4    1  0.6055396E+003  0.1161471E+03  0.7546771E-02  0.1249592E+00
         21   -1    0    0  503  501  0.00000000000E+00  0.00000000000E+00  0.58139583513E+03  0.58139583513E+03  0.00000000000E+00 0.  1.
         21   -1    0    0  504  502 -0.00000000000E+00 -0.00000000000E+00 -0.23333902168E+02  0.23333902168E+02  0.00000000000E+00 0.  1.
         21    1    1    2  503  502 -0.60896824229E+02 -0.98902580435E+02  0.30167559755E+03  0.32326198319E+03  0.00000000000E+00 0.  1.
         21    1    1    2  504  501  0.60896824229E+02  0.98902580435E+02  0.25638633542E+03  0.28146775412E+03  0.00000000000E+00 0.  1.
<mgrwt>
<rscale>  2 0.11614708E+03</rscale>
<asrwt>0</asrwt>
<pdfrwt beam="1">  1       21 0.89445502E-01 0.11614708E+03</pdfrwt>
<pdfrwt beam="2">  1       21 0.35898316E-02 0.11614708E+03</pdfrwt>
<totfact> 0.50675639E+05</totfact>
</mgrwt>
</event>
<event>
 4    1  0.6055396E+003  0.1503382E+03  0.7546771E-02  0.1200058E+00
         21   -1    0    0  502  501  0.00000000000E+00  0.00000000000E+00  0.86179800753E+02  0.86179800753E+02  0.00000000000E+00 0.  1.
         21   -1    0    0  503  502 -0.00000000000E+00 -0.00000000000E+00 -0.34286094303E+03  0.34286094303E+03  0.00000000000E+00 0.  1.
         21    1    1    2  503  504 -0.14454158119E+03 -0.41343708163E+02 -0.23235122664E+03  0.27674656894E+03  0.00000000000E+00 0.  1.
         21    1    1    2  504  501  0.14454158119E+03  0.41343708163E+02 -0.24329915640E+02  0.15229417485E+03  0.00000000000E+00 0.  1.
<mgrwt>
<rscale>  2 0.15033819E+03</rscale>
<asrwt>0</asrwt>
<pdfrwt beam="1">  1       21 0.13258431E-01 0.15033819E+03</pdfrwt>
<pdfrwt beam="2">  1       21 0.52747837E-01 0.15033819E+03</pdfrwt>
<totfact> 0.16935722E+05</totfact>
</mgrwt>
</event>
<event>
 4    1  0.6055396E+003  0.1081903E+03  0.7546771E-02  0.1263958E+00
         21   -1    0    0  504  501  0.00000000000E+00  0.00000000000E+00  0.29093046811E+02  0.29093046811E+02  0.00000000000E+00 0.  1.
         21   -1    0    0  501  502 -0.00000000000E+00 -0.00000000000E+00 -0.88030006078E+03  0.88030006078E+03  0.00000000000E+00 0.  1.
         21    1    1    2  503  502 -0.60767324206E+02  0.89512436265E+02 -0.76064954159E+03  0.76830519266E+03  0.00000000000E+00 0.  1.
         21    1    1    2  504  503  0.60767324206E+02 -0.89512436265E+02 -0.90557472376E+02  0.14108791493E+03  0.00000000000E+00 0.  1.
<mgrwt>
<rscale>  2 0.10819031E+03</rscale>
<asrwt>0</asrwt>
<pdfrwt beam="1">  1       21 0.44758540E-02 0.10819031E+03</pdfrwt>
<pdfrwt beam="2">  1       21 0.13543076E+00 0.10819031E+03</pdfrwt>
<totfact> 0.13130032E+05</totfact>
</mgrwt>
</event>
<event>
 4    1  0.6055396E+003  0.1021233E+03  0.7546771E-02  0.1275893E+00
         21   -1    0    0  503  501  0.00000000000E+00  0.00000000000E+00  0.18018129784E+03  0.18018129784E+03  0.00000000000E+00 0. -1.
         21   -1    0    0  504  502 -0.00000000000E+00 -0.00000000000E+00 -0.57902269762E+02  0.57902269762E+02  0.00000000000E+00 0. -1.
         21    1    1    2  503  502 -0.41122508633E+02 -0.93477839797E+02  0.58885967095E+02  0.11788436864E+03  0.00000000000E+00 0. -1.
         21    1    1    2  504  501  0.41122508633E+02  0.93477839797E+02  0.63393060979E+02  0.12019919896E+03  0.00000000000E+00 0. -1.
<mgrwt>
<rscale>  2 0.10212329E+03</rscale>
<asrwt>0</asrwt>
<pdfrwt beam="1">  1       21 0.27720199E-01 0.10212329E+03</pdfrwt>
<pdfrwt beam="2">  1       21 0.89080416E-02 0.10212329E+03</pdfrwt>
<totfact> 0.12294110E+06</totfact>
</mgrwt>
</event>
<event>
 4    1  0.6055396E+003  0.1277217E+03  0.7546771E-02  0.1230876E+00
         21   -1    0    0  504  501  0.00000000000E+00  0.00000000000E+00  0.11665146240E+03  0.11665146240E+03  0.00000000000E+00 0.  1.
         21   -1    0    0  503  502 -0.00000000000E+00 -0.00000000000E+00 -0.20528253251E+03  0.20528253251E+03  0.00000000000E+00 0.  1.
         21    1    1    2  503  501 -0.63212477278E+02 -0.11098202312E+03 -0.13519855532E+03  0.18598783859E+03  0.00000000000E+00 0.  1.
         21    1    1    2  504  502  0.63212477278E+02  0.11098202312E+03  0.46567485217E+02  0.13594615632E+03  0.00000000000E+00 0.  1.
<mgrwt>
<rscale>  2 0.12772168E+03</rscale>
<asrwt>0</asrwt>
<pdfrwt beam="1">  1       21 0.17946379E-01 0.12772168E+03</pdfrwt>
<pdfrwt beam="2">  1       21 0.31581928E-01 0.12772168E+03</pdfrwt>
<totfact> 0.27601454E+05</totfact>
</mgrwt>
</event>
<event>
 4    1  0.6055396E+003  0.1126358E+03  0.7546771E-02  0.1255765E+00
         21   -1    0    0  502  501  0.00000000000E+00  0.00000000000E+00  0.40354206844E+03  0.40354206844E+03  0.00000000000E+00 0. -1.
         21   -1    0    0  504  502 -0.00000000000E+00 -0.00000000000E+00 -0.38967490506E+03  0.38967490506E+03  0.00000000000E+00 0.  1.
         21    1    1    2  503  501  0.32464526541E+02  0.10785581001E+03  0.38720663084E+03  0.40325648935E+03  0.00000000000E+00 0. -1.
         21    1    1    2  504  503 -0.32464526541E+02 -0.10785581001E+03 -0.37333946746E+03  0.38996048415E+03  0.00000000000E+00 0.  1.
<mgrwt>
<rscale>  2 0.11263579E+03</rscale>
<asrwt>0</asrwt>
<pdfrwt beam="1">  1       21 0.62083396E-01 0.11263579E+03</pdfrwt>
<pdfrwt beam="2">  1       21 0.59949985E-01 0.11263579E+03</pdfrwt>
<totfact> 0.67076153E+03</totfact>
</mgrwt>
</event>
<event>
 4    1  0.6055396E+003  0.1144732E+03  0.7546771E-02  0.1252503E+00
         21   -1    0    0  503  501  0.00000000000E+00  0.00000000000E+00  0.14132780621E+03  0.14132780621E+03  0.00000000000E+00 0.  1.
         21   -1    0    0  501  502 -0.00000000000E+00 -0.00000000000E+00 -0.12354618063E+03  0.12354618063E+03  0.00000000000E+00 0.  1.
         21    1    1    2  503  504 -0.84949746293E+02 -0.76731064972E+02  0.75043039141E+02  0.13687795093E+03  0.00000000000E+00 0.  1.
         21    1    1    2  504  502  0.84949746293E+02  0.76731064972E+02 -0.57261413553E+02  0.12799603591E+03  0.00000000000E+00 0.  1.
<mgrwt>
<rscale>  2 0.11447321E+03</rscale>
<asrwt>0</asrwt>
<pdfrwt beam="1">  1       21 0.21742739E-01 0.11447321E+03</pdfrwt>
<pdfrwt beam="2">  1       21 0.19007105E-01 0.11447321E+03</pdfrwt>
<totfact> 0.50531759E+05</totfact>
</mgrwt>
</event>
<event>
 4    1  0.6055396E+003  0.1049951E+03  0.7546771E-02  0.1270129E+00
         21   -1    0    0  502  501  0.00000000000E+00  0.00000000000E+00  0.25214993046E+03  0.25214993046E+03  0.00000000000E+00 0. -1.
         21   -1    0    0  503  502 -0.00000000000E+00 -0.00000000000E+00 -0.27623983987E+03  0.27623983987E+03  0.00000000000E+00 0.  1.
         21    1    1    2  503  504 -0.10018378947E+03 -0.31419448645E+02 -0.25443307788E+03  0.27524564401E+03  0.00000000000E+00 0.  1.
         21    1    1    2  504  501  0.10018378947E+03  0.31419448645E+02  0.23034316848E+03  0.25314412632E+03  0.00000000000E+00 0. -1.
<mgrwt>
<rscale>  2 0.10499511E+03</rscale>
<asrwt>0</asrwt>
<pdfrwt beam="1">  1       21 0.38792297E-01 0.10499511E+03</pdfrwt>
<pdfrwt beam="2">  1       21 0.42498437E-01 0.10499511E+03</pdfrwt>
<totfact> 0.35946103E+04</totfact>
</mgrwt>
</event>
<event>
 4    1  0.6055396E+003  0.1054318E+03  0.7546771E-02  0.1269271E+00
         21   -1    0    0  504  501  0.00000000000E+00  0.00000000000E+00  0.44855290914E+03  0.44855290914E+03  0.00000000000E+00 0.  1.
         21   -1    0    0  503  502 -0.00000000000E+00 -0.00000000000E+00 -0.29231296881E+02  0.29231296881E+02  0.00000000000E+00 0.  1.
         21    1    1    2  503  501  0.10139916293E+03 -0.28880289547E+02  0.11645506092E+03  0.15709119193E+03  0.00000000000E+00 0.  1.
         21    1    1    2  504  502 -0.10139916293E+03  0.28880289547E+02  0.30286655133E+03  0.32069301409E+03  0.00000000000E+00 0.  1.
<mgrwt>
<rscale>  2 0.10543179E+03</rscale>
<asrwt>0</asrwt>
<pdfrwt beam="1">  1       21 0.69008135E-01 0.10543179E+03</pdfrwt>
<pdfrwt beam="2">  1       21 0.44971229E-02 0.10543179E+03</pdfrwt>
<totfact> 0.62081288E+05</totfact>
</mgrwt>
</event>
<event>
 4    1  0.6055396E+003  0.1036786E+03  0.7546771E-02  0.1272745E+00
         21   -1    0    0  503  501  0.00000000000E+00  0.00000000000E+00  0.12100589485E+03  0.12100589485E+03  0.00000000000E+00 0. -1.
         21   -1    0    0  501  502 -0.00000000000E+00 -0.00000000000E+00 -0.14787943117E+03  0.14787943117E+03  0.00000000000E+00 0. -1.
         21    1    1    2  503  504  0.10363167098E+03  0.31181763010E+01  0.71516910044E+02  0.12595203323E+03  0.00000000000E+00 0. -1.
         21    1    1    2  504  502 -0.10363167098E+03 -0.31181763010E+01 -0.98390446362E+02  0.14293329279E+03  0.00000000000E+00 0. -1.
<mgrwt>
<rscale>  2 0.10367857E+03</rscale>
<asrwt>0</asrwt>
<pdfrwt beam="1">  1       21 0.18616292E-01 0.10367857E+03</pdfrwt>
<pdfrwt beam="2">  1       21 0.22750682E-01 0.10367857E+03</pdfrwt>
<totfact> 0.48275410E+05</totfact>
</mgrwt>
</event>
<event>
 4    1  0.6055396E+003  0.1097761E+03  0.7546771E-02  0.1260985E+00
         21   -1    0    0  504  501  0.00000000000E+00  0.00000000000E+00  0.23839061593E+03  0.23839061593E+03  0.00000000000E+00 0. -1.
         21   -1    0    0  503  502 -0.00000000000E+00 -0.00000000000E+00 -0.50906241518E+02  0.50906241518E+02  0.00000000000E+00 0.  1.
         21    1    1    2  503  501 -0.10972107285E+03  0.34767862832E+01  0.81652902052E+02  0.13681373572E+03  0.00000000000E+00 0.  1.
         21    1    1    2  504  502  0.10972107285E+03 -0.34767862832E+01  0.10583147236E+03  0.15248312173E+03  0.00000000000E+00 0. -1.
<mgrwt>
<rscale>  2 0.10977614E+03</rscale>
<asrwt>0</asrwt>
<pdfrwt beam="1">  1       21 0.36675479E-01 0.10977614E+03</pdfrwt>
<pdfrwt beam="2">  1       21 0.78317296E-02 0.10977614E+03</pdfrwt>
<totfact> 0.89421989E+05</totfact>
</mgrwt>
</event>
<event>
 4    1  0.6055396E+003  0.1177615E+03  0.7546771E-02  0.1246836E+00
         21   -1    0    0  503  501  0.00000000000E+00  0.00000000000E+00  0.10418495727E+03  0.10418495727E+03  0.00000000000E+00 0. -1.
         21   -1    0    0  504  502 -0.00000000000E+00 -0.00000000000E+00 -0.15429879474E+03  0.15429879474E+03  0.00000000000E+00 0. -1.
         21    1    1    2  503  502  0.92492794722E+02 -0.72889392035E+02  0.22839447624E+02  0.11995591238E+03  0.00000000000E+00 0. -1.
         21    1    1    2  504  501 -0.92492794722E+02  0.72889392035E+02 -0.72953285093E+02  0.13852783963E+03  0.00000000000E+00 0. -1.
<mgrwt>
<rscale>  2 0.11776154E+03</rscale>
<asrwt>0</asrwt>
<pdfrwt beam="1">  1       21 0.16028455E-01 0.11776154E+03</pdfrwt>
<pdfrwt beam="2">  1       21 0.23738276E-01 0.11776154E+03</pdfrwt>
<totfact> 0.58490964E+05</totfact>
</mgrwt>
</event>
<event>
 4    1  0.6055396E+003  0.1071924E+03  0.7546771E-02  0.1265859E+00
         21   -1    0    0  504  501  0.00000000000E+00  0.00000000000E+00  0.21447820536E+03  0.21447820536E+03  0.00000000000E+00 0. -1.
         21   -1    0    0  503  502 -0.00000000000E+00 -0.00000000000E+00 -0.58355437422E+02  0.58355437422E+02  0.00000000000E+00 0.  1.
         21    1    1    2  503  501 -0.99755867113E+02 -0.39229774406E+02  0.39007986082E+02  0.11406941396E+03  0.00000000000E+00 0.  1.
         21    1    1    2  504  502  0.99755867113E+02  0.39229774406E+02  0.11711478185E+03  0.15876422882E+03  0.00000000000E+00 0. -1.
<mgrwt>
<rscale>  2 0.10719239E+03</rscale>
<asrwt>0</asrwt>
<pdfrwt beam="1">  1       21 0.32996646E-01 0.10719239E+03</pdfrwt>
<pdfrwt beam="2">  1       21 0.89777597E-02 0.10719239E+03</pdfrwt>
<totfact> 0.86879227E+05</totfact>
</mgrwt>
</event>
<event>
 4    1  0.6055396E+003  0.1088979E+03  0.7546771E-02  0.1262625E+00
         21   -1    0    0  504  501  0.00000000000E+00  0.00000000000E+00  0.50560161070E+02  0.50560161070E+02  0.00000000000E+00 0.  1.
         21   -1    0    0  501  502 -0.00000000000E+00 -0.00000000000E+00 -0.67800378661E+03  0.67800378661E+03  0.00000000000E+00 0.  1.
         21    1    1    2  503  502  0.74943886476E+02 -0.79007343509E+02 -0.60833158929E+03  0.61800167392E+03  0.00000000000E+00 0.  1.
         21    1    1    2  504  503 -0.74943886476E+02  0.79007343509E+02 -0.19112036254E+02  0.11056227376E+03  0.00000000000E+00 0.  1.
<mgrwt>
<rscale>  2 0.10889787E+03</rscale>
<asrwt>0</asrwt>
<pdfrwt beam="1">  1       21 0.77784858E-02 0.10889787E+03</pdfrwt>
<pdfrwt beam="2">  1       21 0.10430828E+00 0.10889787E+03</pdfrwt>
<totfact> 0.97140787E+04</totfact>
</mgrwt>
</event>
<event>
 4    1  0.6055396E+003  0.1092936E+03  0.7546771E-02  0.1261884E+00
         21   -1    0    0  504  501  0.00000000000E+00  0.00000000000E+00  0.43048865719E+02  0.43048865719E+02  0.00000000000E+00 0.  1.
         21   -1    0    0  503  502 -0.00000000000E+00 -0.00000000000E+00 -0.10204868570E+04  0.10204868570E+04  0.00000000000E+00 0.  1.
         21    1    1    2  503  501  0.10927955144E+03 -0.17513433920E+01 -0.94246785618E+03  0.94878382549E+03  0.00000000000E+00 0.  1.
         21    1    1    2  504  502 -0.10927955144E+03  0.17513433920E+01 -0.34970135085E+02  0.11475189722E+03  0.00000000000E+00 0.  1.
<mgrwt>
<rscale>  2 0.10929358E+03</rscale>
<asrwt>0</asrwt>
<pdfrwt beam="1">  1       21 0.66229029E-02 0.10929358E+03</pdfrwt>
<pdfrwt beam="2">  1       21 0.15699797E+00 0.10929358E+03</pdfrwt>
<totfact> 0.46583534E+04</totfact>
</mgrwt>
</event>
<event>
 4    1  0.6055396E+003  0.1230059E+03  0.7546771E-02  0.1238219E+00
         21   -1    0    0  503  501  0.00000000000E+00  0.00000000000E+00  0.48184372270E+03  0.48184372270E+03  0.00000000000E+00 0. -1.
         21   -1    0    0  504  502 -0.00000000000E+00 -0.00000000000E+00 -0.33751231672E+02  0.33751231672E+02  0.00000000000E+00 0. -1.
         21    1    1    2  503  502 -0.14869804998E+02  0.12210380155E+03  0.15602025725E+03  0.19867755315E+03  0.00000000000E+00 0. -1.
         21    1    1    2  504  501  0.14869804998E+02 -0.12210380155E+03  0.29207223378E+03  0.31691740123E+03  0.00000000000E+00 0. -1.
<mgrwt>
<rscale>  2 0.12300589E+03</rscale>
<asrwt>0</asrwt>
<pdfrwt beam="1">  1       21 0.74129799E-01 0.12300589E+03</pdfrwt>
<pdfrwt beam="2">  1       21 0.51924975E-02 0.12300589E+03</pdfrwt>
<totfact> 0.41691551E+05</totfact>
</mgrwt>
</event>
<event>
 4    1  0.6055396E+003  0.1069402E+03  0.7546771E-02  0.1266343E+00
         21   -1    0    0  504  501  0.00000000000E+00  0.00000000000E+00  0.64794434952E+03  0.64794434952E+03  0.00000000000E+00 0.  1.
         21   -1    0    0  503  502 -0.00000000000E+00 -0.00000000000E+00 -0.20576302259E+02  0.20576302259E+02  0.00000000000E+00 0.  1.
         21    1    1    2  503  501 -0.46083382045E+02  0.96501400314E+02  0.43973986646E+03  0.45255645892E+03  0.00000000000E+00 0.  1.
         21    1    1    2  504  502  0.46083382045E+02 -0.96501400314E+02  0.18762818080E+03  0.21596419285E+03  0.00000000000E+00 0.  1.
<mgrwt>
<rscale>  2 0.10694016E+03</rscale>
<asrwt>0</asrwt>
<pdfrwt beam="1">  1       21 0.99683730E-01 0.10694016E+03</pdfrwt>
<pdfrwt beam="2">  1       21 0.31655855E-02 0.10694016E+03</pdfrwt>
<totfact> 0.48626342E+05</totfact>
</mgrwt>
</event>
<event>
 4    1  0.6055396E+003  0.1581757E+03  0.7546771E-02  0.1190772E+00
         21   -1    0    0  503  501  0.00000000000E+00  0.00000000000E+00  0.31817026187E+03  0.31817026187E+03  0.00000000000E+00 0. -1.
         21   -1    0    0  504  502 -0.00000000000E+00 -0.00000000000E+00 -0.23247476390E+03  0.23247476390E+03  0.00000000000E+00 0. -1.
         21    1    1    2  503  502  0.13863149793E+03  0.76163287164E+02 -0.18112085524E+03  0.24046684331E+03  0.00000000000E+00 0. -1.
         21    1    1    2  504  501 -0.13863149793E+03 -0.76163287164E+02  0.26681635322E+03  0.31017818246E+03  0.00000000000E+00 0. -1.
<mgrwt>
<rscale>  2 0.15817566E+03</rscale>
<asrwt>0</asrwt>
<pdfrwt beam="1">  1       21 0.48949271E-01 0.15817566E+03</pdfrwt>
<pdfrwt beam="2">  1       21 0.35765348E-01 0.15817566E+03</pdfrwt>
<totfact> 0.30612610E+04</totfact>
</mgrwt>
</event>
<event>
 4    1  0.6055396E+003  0.1039884E+03  0.7546771E-02  0.1272126E+00
         21   -1    0    0  503  501  0.00000000000E+00  0.00000000000E+00  0.97207202161E+03  0.97207202161E+03  0.00000000000E+00 0.  1.
         21   -1    0    0  504  502 -0.00000000000E+00 -0.00000000000E+00 -0.25596175053E+03  0.25596175053E+03  0.00000000000E+00 0. -1.
         21    1    1    2  503  502 -0.10081711656E+03  0.25485219258E+02 -0.24247075201E+03  0.26382883272E+03  0.00000000000E+00 0. -1.
         21    1    1    2  504  501  0.10081711656E+03 -0.25485219258E+02  0.95858102308E+03  0.96420493942E+03  0.00000000000E+00 0.  1.
<mgrwt>
<rscale>  2 0.10398840E+03</rscale>
<asrwt>0</asrwt>
<pdfrwt beam="1">  1       21 0.14954954E+00 0.10398840E+03</pdfrwt>
<pdfrwt beam="2">  1       21 0.39378731E-01 0.10398840E+03</pdfrwt>
<totfact> 0.20868099E+03</totfact>
</mgrwt>
</event>
<event>
 4    1  0.6055396E+003  0.1000588E+03  0.7546771E-02  0.1280172E+00
         21   -1    0    0  504  501  0.00000000000E+00  0.00000000000E+00  0.26456507464E+03  0.26456507464E+03  0.00000000000E+00 0. -1.
         21   -1    0    0  503  502 -0.00000000000E+00 -0.00000000000E+00 -0.16890735347E+03  0.16890735347E+03  0.00000000000E+00 0. -1.
         21    1    1    2  503  501  0.91357349838E+02 -0.40811694664E+02 -0.14309077784E+03  0.17460449735E+03  0.00000000000E+00 0. -1.
         21    1    1    2  504  502 -0.91357349838E+02  0.40811694664E+02  0.23874849902E+03  0.25886793076E+03  0.00000000000E+00 0. -1.
<mgrwt>
<rscale>  2 0.10005878E+03</rscale>
<asrwt>0</asrwt>
<pdfrwt beam="1">  1       21 0.40702319E-01 0.10005878E+03</pdfrwt>
<pdfrwt beam="2">  1       21 0.25985747E-01 0.10005878E+03</pdfrwt>
<totfact> 0.85176280E+04</totfact>
</mgrwt>
</event>
<event>
 4    1  0.6055396E+003  0.1101072E+03  0.7546771E-02  0.1260371E+00
         21   -1    0    0  503  501  0.00000000000E+00  0.00000000000E+00  0.15615068927E+03  0.15615068927E+03  0.00000000000E+00 0.  1.
         21   -1    0    0  504  502 -0.00000000000E+00 -0.00000000000E+00 -0.22678982420E+03  0.22678982420E+03  0.00000000000E+00 0.  1.
         21    1    1    2  503  502  0.42610093920E+02  0.10152821387E+03 -0.19059414707E+03  0.22011298738E+03  0.00000000000E+00 0.  1.
         21    1    1    2  504  501 -0.42610093920E+02 -0.10152821387E+03  0.11995501214E+03  0.16282752609E+03  0.00000000000E+00 0.  1.
<mgrwt>
<rscale>  2 0.11010721E+03</rscale>
<asrwt>0</asrwt>
<pdfrwt beam="1">  1       21 0.24023183E-01 0.11010721E+03</pdfrwt>
<pdfrwt beam="2">  1       21 0.34890742E-01 0.11010721E+03</pdfrwt>
<totfact> 0.13315699E+05</totfact>
</mgrwt>
</event>
<event>
 4    1  0.6055396E+003  0.1289081E+03  0.7546771E-02  0.1229085E+00
         21   -1    0    0  504  501  0.00000000000E+00  0.00000000000E+00  0.31647368781E+03  0.31647368781E+03  0.00000000000E+00 0.  1.
         21   -1    0    0  501  502 -0.00000000000E+00 -0.00000000000E+00 -0.57380106444E+02  0.57380106444E+02  0.00000000000E+00 0.  1.
         21    1    1    2  503  502  0.10383838757E+03  0.76386448768E+02  0.75076009383E+02  0.14917676586E+03  0.00000000000E+00 0.  1.
         21    1    1    2  504  503 -0.10383838757E+03 -0.76386448768E+02  0.18401757199E+03  0.22467702839E+03  0.00000000000E+00 0.  1.
<mgrwt>
<rscale>  2 0.12890811E+03</rscale>
<asrwt>0</asrwt>
<pdfrwt beam="1">  1       21 0.48688258E-01 0.12890811E+03</pdfrwt>
<pdfrwt beam="2">  1       21 0.88277089E-02 0.12890811E+03</pdfrwt>
<totfact> 0.41129498E+05</totfact>
</mgrwt>
</event>
<event>
 4    1  0.6055396E+003  0.1038665E+03  0.7546771E-02  0.1272369E+00
         21   -1    0    0  503  501  0.00000000000E+00  0.00000000000E+00  0.71450280901E+02  0.71450280901E+02  0.00000000000E+00 0. -1.
         21   -1    0    0  504  502 -0.00000000000E+00 -0.00000000000E+00 -0.16470482300E+03  0.16470482300E+03  0.00000000000E+00 0.  1.
         21    1    1    2  503  502  0.14911852746E+02  0.10279052108E+03 -0.12553950647E+02  0.10462244622E+03  0.00000000000E+00 0. -1.
         21    1    1    2  504  501 -0.14911852746E+02 -0.10279052108E+03 -0.80700591457E+02  0.13153265769E+03  0.00000000000E+00 0.  1.
<mgrwt>
<rscale>  2 0.10386652E+03</rscale>
<asrwt>0</asrwt>
<pdfrwt beam="1">  1       21 0.10992351E-01 0.10386652E+03</pdfrwt>
<pdfrwt beam="2">  1       21 0.25339203E-01 0.10386652E+03</pdfrwt>
<totfact> 0.10112472E+06</totfact>
</mgrwt>
</event>
<event>
 4    1  0.6055396E+003  0.1087977E+03  0.7546771E-02  0.1262813E+00
         21   -1    0    0  503  501  0.00000000000E+00  0.00000000000E+00  0.79254339726E+03  0.79254339726E+03  0.00000000000E+00 0. -1.
         21   -1    0    0  504  502 -0.00000000000E+00 -0.00000000000E+00 -0.25701594096E+02  0.25701594096E+02  0.00000000000E+00 0.  1.
         21    1    1    2  503  502  0.83284671774E+02 -0.70004314258E+02  0.11862897476E+03  0.16096513355E+03  0.00000000000E+00 0.  1.
         21    1    1    2  504  501 -0.83284671774E+02  0.70004314258E+02  0.64821282840E+03  0.65727985780E+03  0.00000000000E+00 0. -1.
<mgrwt>
<rscale>  2 0.10879770E+03</rscale>
<asrwt>0</asrwt>
<pdfrwt beam="1">  1       21 0.12192974E+00 0.10879770E+03</pdfrwt>
<pdfrwt beam="2">  1       21 0.39540920E-02 0.10879770E+03</pdfrwt>
<totfact> 0.20883356E+05</totfact>
</mgrwt>
</event>
<event>
 4    1  0.6055396E+003  0.1111912E+03  0.7546771E-02  0.1258380E+00
         21   -1    0    0  502  501  0.00000000000E+00  0.00000000000E+00  0.65217939907E+02  0.65217939907E+02  0.00000000000E+00 0. -1.
         21   -1    0    0  504  502 -0.00000000000E+00 -0.00000000000E+00 -0.62287401073E+03  0.62287401073E+03  0.00000000000E+00 0.  1.
         21    1    1    2  503  501  0.10218830578E+03  0.43829518416E+02  0.81256937594E+01  0.11148768283E+03  0.00000000000E+00 0. -1.
         21    1    1    2  504  503 -0.10218830578E+03 -0.43829518416E+02 -0.56578176458E+03  0.57660426781E+03  0.00000000000E+00 0.  1.
<mgrwt>
<rscale>  2 0.11119117E+03</rscale>
<asrwt>0</asrwt>
<pdfrwt beam="1">  1       21 0.10033529E-01 0.11119117E+03</pdfrwt>
<pdfrwt beam="2">  1       21 0.95826771E-01 0.11119117E+03</pdfrwt>
<totfact> 0.76142659E+04</totfact>
</mgrwt>
</event>
<event>
 4    1  0.6055396E+003  0.1070874E+03  0.7546771E-02  0.1266061E+00
         21   -1    0    0  502  501  0.00000000000E+00  0.00000000000E+00  0.60365692051E+02  0.60365692051E+02  0.00000000000E+00 0.  1.
         21   -1    0    0  504  502 -0.00000000000E+00 -0.00000000000E+00 -0.40600369303E+03  0.40600369303E+03  0.00000000000E+00 0. -1.
         21    1    1    2  503  501 -0.10616853524E+03 -0.13998497972E+02 -0.27226341001E+01  0.10712202648E+03  0.00000000000E+00 0.  1.
         21    1    1    2  504  503  0.10616853524E+03  0.13998497972E+02 -0.34291536688E+03  0.35924735860E+03  0.00000000000E+00 0. -1.
<mgrwt>
<rscale>  2 0.10708742E+03</rscale>
<asrwt>0</asrwt>
<pdfrwt beam="1">  1       21 0.92870295E-02 0.10708742E+03</pdfrwt>
<pdfrwt beam="2">  1       21 0.62462107E-01 0.10708742E+03</pdfrwt>
<totfact> 0.22476915E+05</totfact>
</mgrwt>
</event>
<event>
 4    1  0.6055396E+003  0.1087046E+03  0.7546771E-02  0.1262988E+00
         21   -1    0    0  504  501  0.00000000000E+00  0.00000000000E+00  0.64207431743E+02  0.64207431743E+02  0.00000000000E+00 0.  1.
         21   -1    0    0  503  502 -0.00000000000E+00 -0.00000000000E+00 -0.99798717031E+03  0.99798717031E+03  0.00000000000E+00 0. -1.
         21    1    1    2  503  501 -0.91370684501E+02 -0.58890532144E+02 -0.94652378596E+03  0.95274549285E+03  0.00000000000E+00 0. -1.
         21    1    1    2  504  502  0.91370684501E+02  0.58890532144E+02  0.12744047386E+02  0.10944910921E+03  0.00000000000E+00 0.  1.
<mgrwt>
<rscale>  2 0.10870463E+03</rscale>
<asrwt>0</asrwt>
<pdfrwt beam="1">  1       21 0.98780668E-02 0.10870463E+03</pdfrwt>
<pdfrwt beam="2">  1       21 0.15353648E+00 0.10870463E+03</pdfrwt>
<totfact> 0.24849205E+04</totfact>
</mgrwt>
</event>
<event>
 4    1  0.6055396E+003  0.1213127E+03  0.7546771E-02  0.1240947E+00
         21   -1    0    0  503  501  0.00000000000E+00  0.00000000000E+00  0.53019648038E+03  0.53019648038E+03  0.00000000000E+00 0.  1.
         21   -1    0    0  504  502 -0.00000000000E+00 -0.00000000000E+00 -0.29691358142E+02  0.29691358142E+02  0.00000000000E+00 0.  1.
         21    1    1    2  503  502  0.82772141346E+02 -0.88687898404E+02  0.32170248876E+03  0.34381573842E+03  0.00000000000E+00 0.  1.
         21    1    1    2  504  501 -0.82772141346E+02  0.88687898404E+02  0.17880263348E+03  0.21607210011E+03  0.00000000000E+00 0.  1.
<mgrwt>
<rscale>  2 0.12131270E+03</rscale>
<asrwt>0</asrwt>
<pdfrwt beam="1">  1       21 0.81568682E-01 0.12131270E+03</pdfrwt>
<pdfrwt beam="2">  1       21 0.45679016E-02 0.12131270E+03</pdfrwt>
<totfact> 0.41807144E+05</totfact>
</mgrwt>
</event>
<event>
 4    1  0.6055396E+003  0.1348874E+03  0.7546771E-02  0.1220379E+00
         21   -1    0    0  503  501  0.00000000000E+00  0.00000000000E+00  0.11551526766E+03  0.11551526766E+03  0.00000000000E+00 0.  1.
         21   -1    0    0  504  502 -0.00000000000E+00 -0.00000000000E+00 -0.20840956397E+03  0.20840956397E+03  0.00000000000E+00 0.  1.
         21    1    1    2  503  502 -0.12648298491E+03 -0.46868574140E+02  0.33595211132E+02  0.13900808223E+03  0.00000000000E+00 0.  1.
         21    1    1    2  504  501  0.12648298491E+03  0.46868574140E+02 -0.12648950744E+03  0.18491674940E+03  0.00000000000E+00 0.  1.
<mgrwt>
<rscale>  2 0.13488739E+03</rscale>
<asrwt>0</asrwt>
<pdfrwt beam="1">  1       21 0.17771580E-01 0.13488739E+03</pdfrwt>
<pdfrwt beam="2">  1       21 0.32063010E-01 0.13488739E+03</pdfrwt>
<totfact> 0.27248947E+05</totfact>
</mgrwt>
</event>
<event>
 4    1  0.6055396E+003  0.2167150E+03  0.7546771E-02  0.1136356E+00
         21   -1    0    0  503  501  0.00000000000E+00  0.00000000000E+00  0.10311659306E+04  0.10311659306E+04  0.00000000000E+00 0. -1.
         21   -1    0    0  501  502 -0.00000000000E+00 -0.00000000000E+00 -0.11501035095E+03  0.11501035095E+03  0.00000000000E+00 0. -1.
         21    1    1    2  503  504  0.11550855348E+03 -0.18336623296E+03  0.90346136518E+03  0.92908979097E+03  0.00000000000E+00 0. -1.
         21    1    1    2  504  502 -0.11550855348E+03  0.18336623296E+03  0.12694214492E+02  0.21708649060E+03  0.00000000000E+00 0. -1.
<mgrwt>
<rscale>  2 0.21671502E+03</rscale>
<asrwt>0</asrwt>
<pdfrwt beam="1">  1       21 0.15864091E+00 0.21671502E+03</pdfrwt>
<pdfrwt beam="2">  1       21 0.17693901E-01 0.21671502E+03</pdfrwt>
<totfact> 0.73242135E+03</totfact>
</mgrwt>
</event>
<event>
 4    1  0.6055396E+003  0.1331380E+03  0.7546771E-02  0.1222872E+00
         21   -1    0    0  503  501  0.00000000000E+00  0.00000000000E+00  0.36268502575E+02  0.36268502575E+02  0.00000000000E+00 0. -1.
         21   -1    0    0  504  502 -0.00000000000E+00 -0.00000000000E+00 -0.73509320720E+03  0.73509320720E+03  0.00000000000E+00 0.  1.
         21    1    1    2  503  502 -0.11478530824E+03 -0.67454131117E+02 -0.12613770235E+03  0.18340241750E+03  0.00000000000E+00 0. -1.
         21    1    1    2  504  501  0.11478530824E+03  0.67454131117E+02 -0.57268700228E+03  0.58795929228E+03  0.00000000000E+00 0.  1.
<mgrwt>
<rscale>  2 0.13313800E+03</rscale>
<asrwt>0</asrwt>
<pdfrwt beam="1">  1       21 0.55797699E-02 0.13313800E+03</pdfrwt>
<pdfrwt beam="2">  1       21 0.11309126E+00 0.13313800E+03</pdfrwt>
<totfact> 0.13950731E+05</totfact>
</mgrwt>
</event>
<event>
 4    1  0.6055396E+003  0.1122975E+03  0.7546771E-02  0.1256373E+00
         21   -1    0    0  504  501  0.00000000000E+00  0.00000000000E+00  0.19429969743E+02  0.19429969743E+02  0.00000000000E+00 0. -1.
         21   -1    0    0  503  502 -0.00000000000E+00 -0.00000000000E+00 -0.68755071026E+03  0.68755071026E+03  0.00000000000E+00 0. -1.
         21    1    1    2  503  501  0.94141329496E+01  0.11190219823E+03 -0.41772557464E+03  0.43255679810E+03  0.00000000000E+00 0. -1.
         21    1    1    2  504  502 -0.94141329496E+01 -0.11190219823E+03 -0.25039516587E+03  0.27442388190E+03  0.00000000000E+00 0. -1.
<mgrwt>
<rscale>  2 0.11229750E+03</rscale>
<asrwt>0</asrwt>
<pdfrwt beam="1">  1       21 0.29892260E-02 0.11229750E+03</pdfrwt>
<pdfrwt beam="2">  1       21 0.10577704E+00 0.11229750E+03</pdfrwt>
<totfact> 0.46424959E+05</totfact>
</mgrwt>
</event>
<event>
 4    1  0.6055396E+003  0.1715919E+03  0.7546771E-02  0.1176198E+00
         21   -1    0    0  504  501  0.00000000000E+00  0.00000000000E+00  0.17050011800E+03  0.17050011800E+03  0.00000000000E+00 0. -1.
         21   -1    0    0  501  502 -0.00000000000E+00 -0.00000000000E+00 -0.22373171123E+03  0.22373171123E+03  0.00000000000E+00 0. -1.
         21    1    1    2  503  502 -0.16127393525E+03 -0.58604725783E+02 -0.12076513428E+03  0.20982853413E+03  0.00000000000E+00 0. -1.
         21    1    1    2  504  503  0.16127393525E+03  0.58604725783E+02  0.67533541051E+02  0.18440329510E+03  0.00000000000E+00 0. -1.
<mgrwt>
<rscale>  2 0.17159195E+03</rscale>
<asrwt>0</asrwt>
<pdfrwt beam="1">  1       21 0.26230787E-01 0.17159195E+03</pdfrwt>
<pdfrwt beam="2">  1       21 0.34420263E-01 0.17159195E+03</pdfrwt>
<totfact> 0.11324991E+05</totfact>
</mgrwt>
</event>
<event>
 4    1  0.6055396E+003  0.1605668E+03  0.7546771E-02  0.1188058E+00
         21   -1    0    0  504  501  0.00000000000E+00  0.00000000000E+00  0.43294825064E+03  0.43294825064E+03  0.00000000000E+00 0. -1.
         21   -1    0    0  503  502 -0.00000000000E+00 -0.00000000000E+00 -0.11773277513E+03  0.11773277513E+03  0.00000000000E+00 0.  1.
         21    1    1    2  503  501  0.14948392996E+03  0.58619669750E+02  0.35117046060E+03  0.38613780363E+03  0.00000000000E+00 0. -1.
         21    1    1    2  504  502 -0.14948392996E+03 -0.58619669750E+02 -0.35954985084E+02  0.16454322214E+03  0.00000000000E+00 0.  1.
<mgrwt>
<rscale>  2 0.16056684E+03</rscale>
<asrwt>0</asrwt>
<pdfrwt beam="1">  1       21 0.66607422E-01 0.16056684E+03</pdfrwt>
<pdfrwt beam="2">  1       21 0.18112735E-01 0.16056684E+03</pdfrwt>
<totfact> 0.58238657E+04</totfact>
</mgrwt>
</event>
<event>
 4    1  0.6055396E+003  0.1065045E+03  0.7546771E-02  0.1267183E+00
         21   -1    0    0  504  501  0.00000000000E+00  0.00000000000E+00  0.23354562338E+02  0.23354562338E+02  0.00000000000E+00 0.  1.
         21   -1    0    0  503  502 -0.00000000000E+00 -0.00000000000E+00 -0.71559867305E+03  0.71559867305E+03  0.00000000000E+00 0.  1.
         21    1    1    2  503  501  0.30154111339E+02 -0.10214666151E+03 -0.55554510241E+03  0.56566206493E+03  0.00000000000E+00 0.  1.
         21    1    1    2  504  502 -0.30154111339E+02  0.10214666151E+03 -0.13669900831E+03  0.17329117047E+03  0.00000000000E+00 0.  1.
<mgrwt>
<rscale>  2 0.10650451E+03</rscale>
<asrwt>0</asrwt>
<pdfrwt beam="1">  1       21 0.35930102E-02 0.10650451E+03</pdfrwt>
<pdfrwt beam="2">  1       21 0.11009208E+00 0.10650451E+03</pdfrwt>
<totfact> 0.31272912E+05</totfact>
</mgrwt>
</event>
<event>
 4    1  0.6055396E+003  0.1394936E+03  0.7546771E-02  0.1214012E+00
         21   -1    0    0  504  501  0.00000000000E+00  0.00000000000E+00  0.82458293510E+02  0.82458293510E+02  0.00000000000E+00 0. -1.
         21   -1    0    0  501  502 -0.00000000000E+00 -0.00000000000E+00 -0.83576801796E+03  0.83576801796E+03  0.00000000000E+00 0. -1.
         21    1    1    2  503  502 -0.13667901709E+03  0.27880326630E+02 -0.76558888864E+03  0.77819330036E+03  0.00000000000E+00 0. -1.
         21    1    1    2  504  503  0.13667901709E+03 -0.27880326630E+02  0.12279164189E+02  0.14003301110E+03  0.00000000000E+00 0. -1.
<mgrwt>
<rscale>  2 0.13949361E+03</rscale>
<asrwt>0</asrwt>
<pdfrwt beam="1">  1       21 0.12685892E-01 0.13949361E+03</pdfrwt>
<pdfrwt beam="2">  1       21 0.12857969E+00 0.13949361E+03</pdfrwt>
<totfact> 0.24452093E+04</totfact>
</mgrwt>
</event>
<event>
 4    1  0.6055396E+003  0.1064169E+03  0.7546771E-02  0.1267353E+00
         21   -1    0    0  502  501  0.00000000000E+00  0.00000000000E+00  0.62834865410E+03  0.62834865410E+03  0.00000000000E+00 0.  1.
         21   -1    0    0  504  502 -0.00000000000E+00 -0.00000000000E+00 -0.72612472145E+02  0.72612472145E+02  0.00000000000E+00 0.  1.
         21    1    1    2  503  501 -0.10393016838E+03 -0.22870685670E+02  0.58175634304E+03  0.59140932596E+03  0.00000000000E+00 0.  1.
         21    1    1    2  504  503  0.10393016838E+03  0.22870685670E+02 -0.26020161091E+02  0.10955180028E+03  0.00000000000E+00 0.  1.
<mgrwt>
<rscale>  2 0.10641686E+03</rscale>
<asrwt>0</asrwt>
<pdfrwt beam="1">  1       21 0.96669020E-01 0.10641686E+03</pdfrwt>
<pdfrwt beam="2">  1       21 0.11171150E-01 0.10641686E+03</pdfrwt>
<totfact> 0.62024668E+04</totfact>
</mgrwt>
</event>
<event>
 4    1  0.6055396E+003  0.1223120E+03  0.7546771E-02  0.1239331E+00
         21   -1    0    0  504  501  0.00000000000E+00  0.00000000000E+00  0.12030278896E+03  0.12030278896E+03  0.00000000000E+00 0.  1.
         21   -1    0    0  503  502 -0.00000000000E+00 -0.00000000000E+00 -0.14388085654E+03  0.14388085654E+03  0.00000000000E+00 0.  1.
         21    1    1    2  503  501  0.94246242836E+02  0.77960699905E+02  0.36872084944E+02  0.12774887736E+03  0.00000000000E+00 0.  1.
         21    1    1    2  504  502 -0.94246242836E+02 -0.77960699905E+02 -0.60450152520E+02  0.13643476814E+03  0.00000000000E+00 0.  1.
<mgrwt>
<rscale>  2 0.12231200E+03</rscale>
<asrwt>0</asrwt>
<pdfrwt beam="1">  1       21 0.18508121E-01 0.12231200E+03</pdfrwt>
<pdfrwt beam="2">  1       21 0.22135516E-01 0.12231200E+03</pdfrwt>
<totfact> 0.51293372E+05</totfact>
</mgrwt>
</event>
<event>
 4    1  0.6055396E+003  0.1848269E+03  0.7546771E-02  0.1163212E+00
         21   -1    0    0  503  501  0.00000000000E+00  0.00000000000E+00  0.22024633424E+03  0.22024633424E+03  0.00000000000E+00 0. -1.
         21   -1    0    0  504  502 -0.00000000000E+00 -0.00000000000E+00 -0.15510480486E+03  0.15510480486E+03  0.00000000000E+00 0. -1.
         21    1    1    2  503  502 -0.82442542854E+02  0.16542126927E+03  0.32018796326E+02  0.18757977641E+03  0.00000000000E+00 0. -1.
         21    1    1    2  504  501  0.82442542854E+02 -0.16542126927E+03  0.33122733058E+02  0.18777136269E+03  0.00000000000E+00 0. -1.
<mgrwt>
<rscale>  2 0.18482686E+03</rscale>
<asrwt>0</asrwt>
<pdfrwt beam="1">  1       21 0.33884052E-01 0.18482686E+03</pdfrwt>
<pdfrwt beam="2">  1       21 0.23862278E-01 0.18482686E+03</pdfrwt>
<totfact> 0.13924662E+05</totfact>
</mgrwt>
</event>
<event>
 4    1  0.6055396E+003  0.1011773E+03  0.7546771E-02  0.1277840E+00
         21   -1    0    0  504  501  0.00000000000E+00  0.00000000000E+00  0.86200611996E+03  0.86200611996E+03  0.00000000000E+00 0. -1.
         21   -1    0    0  503  502 -0.00000000000E+00 -0.00000000000E+00 -0.37423368444E+02  0.37423368444E+02  0.00000000000E+00 0.  1.
         21    1    1    2  503  501  0.75321914360E+02  0.67553368944E+02  0.78386261419E+03  0.79036538788E+03  0.00000000000E+00 0. -1.
         21    1    1    2  504  502 -0.75321914360E+02 -0.67553368944E+02  0.40720137325E+02  0.10906410052E+03  0.00000000000E+00 0.  1.
<mgrwt>
<rscale>  2 0.10117731E+03</rscale>
<asrwt>0</asrwt>
<pdfrwt beam="1">  1       21 0.13261631E+00 0.10117731E+03</pdfrwt>
<pdfrwt beam="2">  1       21 0.57574419E-02 0.10117731E+03</pdfrwt>
<totfact> 0.91164836E+04</totfact>
</mgrwt>
</event>
<event>
 4    1  0.6055396E+003  0.1087597E+03  0.7546771E-02  0.1262884E+00
         21   -1    0    0  503  501  0.00000000000E+00  0.00000000000E+00  0.44519926577E+03  0.44519926577E+03  0.00000000000E+00 0. -1.
         21   -1    0    0  504  502 -0.00000000000E+00 -0.00000000000E+00 -0.58797506822E+02  0.58797506822E+02  0.00000000000E+00 0. -1.
         21    1    1    2  503  502 -0.16691407409E+02  0.10747127764E+03  0.37976824664E+03  0.39503493485E+03  0.00000000000E+00 0. -1.
         21    1    1    2  504  501  0.16691407409E+02 -0.10747127764E+03  0.66335123108E+01  0.10896183774E+03  0.00000000000E+00 0. -1.
<mgrwt>
<rscale>  2 0.10875973E+03</rscale>
<asrwt>0</asrwt>
<pdfrwt beam="1">  1       21 0.68492193E-01 0.10875973E+03</pdfrwt>
<pdfrwt beam="2">  1       21 0.90457706E-02 0.10875973E+03</pdfrwt>
<totfact> 0.19298394E+05</totfact>
</mgrwt>
</event>
<event>
 4    1  0.6055396E+003  0.1418423E+03  0.7546771E-02  0.1210871E+00
         21   -1    0    0  504  501  0.00000000000E+00  0.00000000000E+00  0.21068259008E+04  0.21068259008E+04  0.00000000000E+00 0.  1.
         21   -1    0    0  503  502 -0.00000000000E+00 -0.00000000000E+00 -0.96332272244E+01  0.96332272244E+01  0.00000000000E+00 0.  1.
         21    1    1    2  503  501  0.14180795601E+03 -0.31227370238E+01  0.11472213411E+04  0.11559567697E+04  0.00000000000E+00 0.  1.
         21    1    1    2  504  502 -0.14180795601E+03  0.31227370238E+01  0.94997133251E+03  0.96050235838E+03  0.00000000000E+00 0.  1.
<mgrwt>
<rscale>  2 0.14184233E+03</rscale>
<asrwt>0</asrwt>
<pdfrwt beam="1">  1       21 0.32412669E+00 0.14184233E+03</pdfrwt>
<pdfrwt beam="2">  1       21 0.14820366E-02 0.14184233E+03</pdfrwt>
<totfact> 0.52282841E+04</totfact>
</mgrwt>
</event>
<event>
 4    1  0.6055396E+003  0.1933608E+03  0.7546771E-02  0.1155465E+00
         21   -1    0    0  504  501  0.00000000000E+00  0.00000000000E+00  0.11381437724E+03  0.11381437724E+03  0.00000000000E+00 0. -1.
         21   -1    0    0  503  502 -0.00000000000E+00 -0.00000000000E+00 -0.36375043479E+03  0.36375043479E+03  0.00000000000E+00 0. -1.
         21    1    1    2  503  501 -0.17020474473E+03  0.91753648938E+02 -0.19929784929E+03  0.27768330874E+03  0.00000000000E+00 0. -1.
         21    1    1    2  504  502  0.17020474473E+03 -0.91753648938E+02 -0.50638208260E+02  0.19988150329E+03  0.00000000000E+00 0. -1.
<mgrwt>
<rscale>  2 0.19336077E+03</rscale>
<asrwt>0</asrwt>
<pdfrwt beam="1">  1       21 0.17509904E-01 0.19336077E+03</pdfrwt>
<pdfrwt beam="2">  1       21 0.55961605E-01 0.19336077E+03</pdfrwt>
<totfact> 0.88810931E+04</totfact>
</mgrwt>
</event>
<event>
 4    1  0.6055396E+003  0.1298376E+03  0.7546771E-02  0.1227697E+00
         21   -1    0    0  504  501  0.00000000000E+00  0.00000000000E+00  0.65134903019E+03  0.65134903019E+03  0.00000000000E+00 0.  1.
         21   -1    0    0  503  502 -0.00000000000E+00 -0.00000000000E+00 -0.43488263589E+02  0.43488263589E+02  0.00000000000E+00 0.  1.
         21    1    1    2  503  501 -0.53317984261E+02  0.11838499431E+03  0.52498942792E+03  0.54080654004E+03  0.00000000000E+00 0.  1.
         21    1    1    2  504  502  0.53317984261E+02 -0.11838499431E+03  0.82871338686E+02  0.15403075374E+03  0.00000000000E+00 0.  1.
<mgrwt>
<rscale>  2 0.12983765E+03</rscale>
<asrwt>0</asrwt>
<pdfrwt beam="1">  1       21 0.10020754E+00 0.12983765E+03</pdfrwt>
<pdfrwt beam="2">  1       21 0.66905026E-02 0.12983765E+03</pdfrwt>
<totfact> 0.13680803E+05</totfact>
</mgrwt>
</event>
<event>
 4    1  0.6055396E+003  0.1180083E+03  0.7546771E-02  0.1246419E+00
         21   -1    0    0  503  501  0.00000000000E+00  0.00000000000E+00  0.11399833214E+03  0.11399833214E+03  0.00000000000E+00 0.  1.
         21   -1    0    0  504  502 -0.00000000000E+00 -0.00000000000E+00 -0.29910313860E+03  0.29910313860E+03  0.00000000000E+00 0. -1.
         21    1    1    2  503  502 -0.18012633909E+02 -0.11662544651E+03  0.66314728559E+02  0.13536466665E+03  0.00000000000E+00 0.  1.
         21    1    1    2  504  501  0.18012633909E+02  0.11662544651E+03 -0.25141953502E+03  0.27773680408E+03  0.00000000000E+00 0. -1.
<mgrwt>
<rscale>  2 0.11800826E+03</rscale>
<asrwt>0</asrwt>
<pdfrwt beam="1">  1       21 0.17538205E-01 0.11800826E+03</pdfrwt>
<pdfrwt beam="2">  1       21 0.46015867E-01 0.11800826E+03</pdfrwt>
<totfact> 0.13675272E+05</totfact>
</mgrwt>
</event>
<event>
 4    1  0.6055396E+003  0.1226400E+03  0.7546771E-02  0.1238804E+00
         21   -1    0    0  502  501  0.00000000000E+00  0.00000000000E+00  0.10001556415E+03  0.10001556415E+03  0.00000000000E+00 0.  1.
         21   -1    0    0  504  502 -0.00000000000E+00 -0.00000000000E+00 -0.18011243280E+03  0.18011243280E+03  0.00000000000E+00 0.  1.
         21    1    1    2  503  501  0.95847264505E+02  0.76510620307E+02  0.16856891152E+02  0.12379308507E+03  0.00000000000E+00 0.  1.
         21    1    1    2  504  503 -0.95847264505E+02 -0.76510620307E+02 -0.96953759797E+02  0.15633491188E+03  0.00000000000E+00 0.  1.
<mgrwt>
<rscale>  2 0.12264001E+03</rscale>
<asrwt>0</asrwt>
<pdfrwt beam="1">  1       21 0.15387010E-01 0.12264001E+03</pdfrwt>
<pdfrwt beam="2">  1       21 0.27709605E-01 0.12264001E+03</pdfrwt>
<totfact> 0.46982507E+05</totfact>
</mgrwt>
</event>
<event>
 4    1  0.6055396E+003  0.1465692E+03  0.7546771E-02  0.1204753E+00
         21   -1    0    0  502  501  0.00000000000E+00  0.00000000000E+00  0.23916041045E+03  0.23916041045E+03  0.00000000000E+00 0. -1.
         21   -1    0    0  503  502 -0.00000000000E+00 -0.00000000000E+00 -0.12087205652E+03  0.12087205652E+03  0.00000000000E+00 0.  1.
         21    1    1    2  503  504 -0.62780203058E+02  0.13244310425E+03 -0.32090620768E+02  0.15004112003E+03  0.00000000000E+00 0.  1.
         21    1    1    2  504  501  0.62780203058E+02 -0.13244310425E+03  0.15037897470E+03  0.20999134694E+03  0.00000000000E+00 0. -1.
<mgrwt>
<rscale>  2 0.14656920E+03</rscale>
<asrwt>0</asrwt>
<pdfrwt beam="1">  1       21 0.36793909E-01 0.14656920E+03</pdfrwt>
<pdfrwt beam="2">  1       21 0.18595701E-01 0.14656920E+03</pdfrwt>
<totfact> 0.19081185E+05</totfact>
</mgrwt>
</event>
<event>
 4    1  0.6055396E+003  0.1452498E+03  0.7546771E-02  0.1206435E+00
         21   -1    0    0  504  501  0.00000000000E+00  0.00000000000E+00  0.15712650721E+03  0.15712650721E+03  0.00000000000E+00 0.  1.
         21   -1    0    0  503  502 -0.00000000000E+00 -0.00000000000E+00 -0.16941969980E+03  0.16941969980E+03  0.00000000000E+00 0. -1.
         21    1    1    2  503  501 -0.27610096411E+02 -0.14260145917E+03 -0.80515073001E+02  0.16607278694E+03  0.00000000000E+00 0. -1.
         21    1    1    2  504  502  0.27610096411E+02  0.14260145917E+03  0.68221880413E+02  0.16047342007E+03  0.00000000000E+00 0.  1.
<mgrwt>
<rscale>  2 0.14524976E+03</rscale>
<asrwt>0</asrwt>
<pdfrwt beam="1">  1       21 0.24173309E-01 0.14524976E+03</pdfrwt>
<pdfrwt beam="2">  1       21 0.26064569E-01 0.14524976E+03</pdfrwt>
<totfact> 0.22861848E+05</totfact>
</mgrwt>
</event>
<event>
 4    1  0.6055396E+003  0.1187267E+03  0.7546771E-02  0.1245213E+00
         21   -1    0    0  504  501  0.00000000000E+00  0.00000000000E+00  0.37343705577E+02  0.37343705577E+02  0.00000000000E+00 0. -1.
         21   -1    0    0  503  502 -0.00000000000E+00 -0.00000000000E+00 -0.43688220401E+03  0.43688220401E+03  0.00000000000E+00 0. -1.
         21    1    1    2  503  501 -0.11577365391E+03  0.26315163616E+02 -0.28721141327E+03  0.31078356245E+03  0.00000000000E+00 0. -1.
         21    1    1    2  504  502  0.11577365391E+03 -0.26315163616E+02 -0.11232708516E+03  0.16344234713E+03  0.00000000000E+00 0. -1.
<mgrwt>
<rscale>  2 0.11872669E+03</rscale>
<asrwt>0</asrwt>
<pdfrwt beam="1">  1       21 0.57451862E-02 0.11872669E+03</pdfrwt>
<pdfrwt beam="2">  1       21 0.67212638E-01 0.11872669E+03</pdfrwt>
<totfact> 0.43554262E+05</totfact>
</mgrwt>
</event>
<event>
 4    1  0.6055396E+003  0.1062187E+03  0.7546771E-02  0.1267737E+00
         21   -1    0    0  503  501  0.00000000000E+00  0.00000000000E+00  0.29280160087E+03  0.29280160087E+03  0.00000000000E+00 0. -1.
         21   -1    0    0  504  502 -0.00000000000E+00 -0.00000000000E+00 -0.15700583438E+03  0.15700583438E+03  0.00000000000E+00 0.  1.
         21    1    1    2  503  502  0.52036881277E+02  0.92598981309E+02  0.26326382382E+03  0.28388421810E+03  0.00000000000E+00 0. -1.
         21    1    1    2  504  501 -0.52036881277E+02 -0.92598981309E+02 -0.12746805732E+03  0.16592321715E+03  0.00000000000E+00 0.  1.
<mgrwt>
<rscale>  2 0.10621868E+03</rscale>
<asrwt>0</asrwt>
<pdfrwt beam="1">  1       21 0.45046400E-01 0.10621868E+03</pdfrwt>
<pdfrwt beam="2">  1       21 0.24154744E-01 0.10621868E+03</pdfrwt>
<totfact> 0.79468536E+04</totfact>
</mgrwt>
</event>
<event>
 4    1  0.6055396E+003  0.1022643E+03  0.7546771E-02  0.1275605E+00
         21   -1    0    0  503  501  0.00000000000E+00  0.00000000000E+00  0.24234104971E+02  0.24234104971E+02  0.00000000000E+00 0. -1.
         21   -1    0    0  504  502 -0.00000000000E+00 -0.00000000000E+00 -0.45104158250E+03  0.45104158250E+03  0.00000000000E+00 0. -1.
         21    1    1    2  503  502 -0.10706955407E+02  0.10170223633E+03 -0.16399052415E+03  0.19326374668E+03  0.00000000000E+00 0. -1.
         21    1    1    2  504  501  0.10706955407E+02 -0.10170223633E+03 -0.26281695338E+03  0.28201194079E+03  0.00000000000E+00 0. -1.
<mgrwt>
<rscale>  2 0.10226428E+03</rscale>
<asrwt>0</asrwt>
<pdfrwt beam="1">  1       21 0.37283234E-02 0.10226428E+03</pdfrwt>
<pdfrwt beam="2">  1       21 0.69391020E-01 0.10226428E+03</pdfrwt>
<totfact> 0.83642984E+05</totfact>
</mgrwt>
</event>
<event>
 4    1  0.6055396E+003  0.1110611E+03  0.7546771E-02  0.1258617E+00
         21   -1    0    0  504  501  0.00000000000E+00  0.00000000000E+00  0.18620102405E+03  0.18620102405E+03  0.00000000000E+00 0.  1.
         21   -1    0    0  503  502 -0.00000000000E+00 -0.00000000000E+00 -0.73317145956E+02  0.73317145956E+02  0.00000000000E+00 0.  1.
         21    1    1    2  503  501 -0.91405590422E+02 -0.63083943194E+02  0.16136511592E+02  0.11222723758E+03  0.00000000000E+00 0.  1.
         21    1    1    2  504  502  0.91405590422E+02  0.63083943194E+02  0.96747366507E+02  0.14729093243E+03  0.00000000000E+00 0.  1.
<mgrwt>
<rscale>  2 0.11106109E+03</rscale>
<asrwt>0</asrwt>
<pdfrwt beam="1">  1       21 0.28646311E-01 0.11106109E+03</pdfrwt>
<pdfrwt beam="2">  1       21 0.11279561E-01 0.11106109E+03</pdfrwt>
<totfact> 0.76654589E+05</totfact>
</mgrwt>
</event>
<event>
 4    1  0.6055396E+003  0.1408249E+03  0.7546771E-02  0.1212223E+00
         21   -1    0    0  504  501  0.00000000000E+00  0.00000000000E+00  0.33897521541E+03  0.33897521541E+03  0.00000000000E+00 0.  1.
         21   -1    0    0  503  502 -0.00000000000E+00 -0.00000000000E+00 -0.61426029097E+02  0.61426029097E+02  0.00000000000E+00 0.  1.
         21    1    1    2  503  501  0.72065978880E+02  0.12098823463E+03  0.95115353589E+02  0.16993701398E+03  0.00000000000E+00 0.  1.
         21    1    1    2  504  502 -0.72065978880E+02 -0.12098823463E+03  0.18243383272E+03  0.23046423053E+03  0.00000000000E+00 0.  1.
<mgrwt>
<rscale>  2 0.14082492E+03</rscale>
<asrwt>0</asrwt>
<pdfrwt beam="1">  1       21 0.52150032E-01 0.14082492E+03</pdfrwt>
<pdfrwt beam="2">  1       21 0.94501585E-02 0.14082492E+03</pdfrwt>
<totfact> 0.31633335E+05</totfact>
</mgrwt>
</event>
<event>
 4    1  0.6055396E+003  0.1131629E+03  0.7546771E-02  0.1254822E+00
         21   -1    0    0  503  501  0.00000000000E+00  0.00000000000E+00  0.32902827619E+03  0.32902827619E+03  0.00000000000E+00 0. -1.
         21   -1    0    0  501  502 -0.00000000000E+00 -0.00000000000E+00 -0.28287662076E+03  0.28287662076E+03  0.00000000000E+00 0. -1.
         21    1    1    2  503  504  0.48385867290E+02 -0.10229692088E+03  0.30720218022E+03  0.32738208825E+03  0.00000000000E+00 0. -1.
         21    1    1    2  504  502 -0.48385867290E+02  0.10229692088E+03 -0.26105052479E+03  0.28452280869E+03  0.00000000000E+00 0. -1.
<mgrwt>
<rscale>  2 0.11316295E+03</rscale>
<asrwt>0</asrwt>
<pdfrwt beam="1">  1       21 0.50619735E-01 0.11316295E+03</pdfrwt>
<pdfrwt beam="2">  1       21 0.43519480E-01 0.11316295E+03</pdfrwt>
<totfact> 0.19897890E+04</totfact>
</mgrwt>
</event>
<event>
 4    1  0.6055396E+003  0.1116047E+03  0.7546771E-02  0.1257627E+00
         21   -1    0    0  504  501  0.00000000000E+00  0.00000000000E+00  0.58546008927E+02  0.58546008927E+02  0.00000000000E+00 0. -1.
         21   -1    0    0  503  502 -0.00000000000E+00 -0.00000000000E+00 -0.13942133703E+04  0.13942133703E+04  0.00000000000E+00 0. -1.
         21    1    1    2  503  501  0.48822154299E+02 -0.10035933019E+03  0.83257499419E+00  0.11160775550E+03  0.00000000000E+00 0. -1.
         21    1    1    2  504  502 -0.48822154299E+02  0.10035933019E+03 -0.13364999363E+04  0.13411516237E+04  0.00000000000E+00 0. -1.
<mgrwt>
<rscale>  2 0.11160465E+03</rscale>
<asrwt>0</asrwt>
<pdfrwt beam="1">  1       21 0.90070786E-02 0.11160465E+03</pdfrwt>
<pdfrwt beam="2">  1       21 0.21449436E+00 0.11160465E+03</pdfrwt>
<totfact> 0.11543267E+04</totfact>
</mgrwt>
</event>
<event>
 4    1  0.6055396E+003  0.1060551E+03  0.7546771E-02  0.1268055E+00
         21   -1    0    0  503  501  0.00000000000E+00  0.00000000000E+00  0.27483364034E+03  0.27483364034E+03  0.00000000000E+00 0. -1.
         21   -1    0    0  504  502 -0.00000000000E+00 -0.00000000000E+00 -0.43930225205E+02  0.43930225205E+02  0.00000000000E+00 0. -1.
         21    1    1    2  503  502 -0.44588758770E+02  0.96226485006E+02  0.15713504351E+03  0.18957614756E+03  0.00000000000E+00 0. -1.
         21    1    1    2  504  501  0.44588758770E+02 -0.96226485006E+02  0.73768371623E+02  0.12918771798E+03  0.00000000000E+00 0. -1.
<mgrwt>
<rscale>  2 0.10605515E+03</rscale>
<asrwt>0</asrwt>
<pdfrwt beam="1">  1       21 0.42282097E-01 0.10605515E+03</pdfrwt>
<pdfrwt beam="2">  1       21 0.67584964E-02 0.10605515E+03</pdfrwt>
<totfact> 0.86675259E+05</totfact>
</mgrwt>
</event>
<event>
 4    1  0.6055396E+003  0.1171054E+03  0.7546771E-02  0.1247950E+00
         21   -1    0    0  502  501  0.00000000000E+00  0.00000000000E+00  0.26729613020E+03  0.26729613020E+03  0.00000000000E+00 0.  1.
         21   -1    0    0  504  502 -0.00000000000E+00 -0.00000000000E+00 -0.28541892240E+03  0.28541892240E+03  0.00000000000E+00 0. -1.
         21    1    1    2  503  501 -0.10930400191E+03  0.42027437445E+02  0.24122854101E+03  0.26815085182E+03  0.00000000000E+00 0.  1.
         21    1    1    2  504  503  0.10930400191E+03 -0.42027437445E+02 -0.25935133321E+03  0.28456420078E+03  0.00000000000E+00 0. -1.
<mgrwt>
<rscale>  2 0.11710538E+03</rscale>
<asrwt>0</asrwt>
<pdfrwt beam="1">  1       21 0.41122482E-01 0.11710538E+03</pdfrwt>
<pdfrwt beam="2">  1       21 0.43910603E-01 0.11710538E+03</pdfrwt>
<totfact> 0.29702131E+04</totfact>
</mgrwt>
</event>
<event>
 4    1  0.6055396E+003  0.1428414E+03  0.7546771E-02  0.1209556E+00
         21   -1    0    0  504  501  0.00000000000E+00  0.00000000000E+00  0.67207253868E+03  0.67207253868E+03  0.00000000000E+00 0.  1.
         21   -1    0    0  503  502 -0.00000000000E+00 -0.00000000000E+00 -0.43730321515E+02  0.43730321515E+02  0.00000000000E+00 0.  1.
         21    1    1    2  503  501 -0.48553202406E+02 -0.13433630513E+03  0.11626724024E+03  0.18417852071E+03  0.00000000000E+00 0.  1.
         21    1    1    2  504  502  0.48553202406E+02  0.13433630513E+03  0.51207497692E+03  0.53162433948E+03  0.00000000000E+00 0.  1.
<mgrwt>
<rscale>  2 0.14284137E+03</rscale>
<asrwt>0</asrwt>
<pdfrwt beam="1">  1       21 0.10339577E+00 0.14284137E+03</pdfrwt>
<pdfrwt beam="2">  1       21 0.67277423E-02 0.14284137E+03</pdfrwt>
<totfact> 0.12522082E+05</totfact>
</mgrwt>
</event>
<event>
 4    1  0.6055396E+003  0.1683839E+03  0.7546771E-02  0.1179544E+00
         21   -1    0    0  503  501  0.00000000000E+00  0.00000000000E+00  0.17261941079E+03  0.17261941079E+03  0.00000000000E+00 0.  1.
         21   -1    0    0  504  502 -0.00000000000E+00 -0.00000000000E+00 -0.34849414045E+03  0.34849414045E+03  0.00000000000E+00 0.  1.
         21    1    1    2  503  502 -0.16724488454E+03 -0.19551899668E+02  0.10151446789E+03  0.19661717976E+03  0.00000000000E+00 0.  1.
         21    1    1    2  504  501  0.16724488454E+03  0.19551899668E+02 -0.27738919756E+03  0.32449637148E+03  0.00000000000E+00 0.  1.
<mgrwt>
<rscale>  2 0.16838387E+03</rscale>
<asrwt>0</asrwt>
<pdfrwt beam="1">  1       21 0.26556833E-01 0.16838387E+03</pdfrwt>
<pdfrwt beam="2">  1       21 0.53614483E-01 0.16838387E+03</pdfrwt>
<totfact> 0.44955140E+04</totfact>
</mgrwt>
</event>
<event>
 4    1  0.6055396E+003  0.1046220E+03  0.7546771E-02  0.1270866E+00
         21   -1    0    0  504  501  0.00000000000E+00  0.00000000000E+00  0.87155538598E+03  0.87155538598E+03  0.00000000000E+00 0.  1.
         21   -1    0    0  503  502 -0.00000000000E+00 -0.00000000000E+00 -0.28732352301E+02  0.28732352301E+02  0.00000000000E+00 0. -1.
         21    1    1    2  503  501 -0.83026491091E+02  0.63658235354E+02  0.83683387843E+02  0.13397267838E+03  0.00000000000E+00 0. -1.
         21    1    1    2  504  502  0.83026491091E+02 -0.63658235354E+02  0.75913964584E+03  0.76631505990E+03  0.00000000000E+00 0.  1.
<mgrwt>
<rscale>  2 0.10462203E+03</rscale>
<asrwt>0</asrwt>
<pdfrwt beam="1">  1       21 0.13408542E+00 0.10462203E+03</pdfrwt>
<pdfrwt beam="2">  1       21 0.44203625E-02 0.10462203E+03</pdfrwt>
<totfact> 0.13767944E+05</totfact>
</mgrwt>
</event>
<event>
 4    1  0.6055396E+003  0.1779832E+03  0.7546771E-02  0.1169769E+00
         21   -1    0    0  502  501  0.00000000000E+00  0.00000000000E+00  0.32167261299E+03  0.32167261299E+03  0.00000000000E+00 0.  1.
         21   -1    0    0  504  502 -0.00000000000E+00 -0.00000000000E+00 -0.16631576248E+03  0.16631576248E+03  0.00000000000E+00 0.  1.
         21    1    1    2  503  501 -0.11610415167E+03  0.13489943310E+03  0.23350624533E+03  0.29360381076E+03  0.00000000000E+00 0.  1.
         21    1    1    2  504  503  0.11610415167E+03 -0.13489943310E+03 -0.78149394814E+02  0.19438456471E+03  0.00000000000E+00 0.  1.
<mgrwt>
<rscale>  2 0.17798323E+03</rscale>
<asrwt>0</asrwt>
<pdfrwt beam="1">  1       21 0.49488094E-01 0.17798323E+03</pdfrwt>
<pdfrwt beam="2">  1       21 0.25587041E-01 0.17798323E+03</pdfrwt>
<totfact> 0.56786108E+04</totfact>
</mgrwt>
</event>
<event>
 4    1  0.6055396E+003  0.1351633E+03  0.7546771E-02  0.1219989E+00
         21   -1    0    0  502  501  0.00000000000E+00  0.00000000000E+00  0.26455010544E+03  0.26455010544E+03  0.00000000000E+00 0. -1.
         21   -1    0    0  503  502 -0.00000000000E+00 -0.00000000000E+00 -0.92037762661E+02  0.92037762661E+02  0.00000000000E+00 0.  1.
         21    1    1    2  503  504  0.11556624841E+03 -0.70096861883E+02 -0.28345556560E+01  0.13519305649E+03  0.00000000000E+00 0.  1.
         21    1    1    2  504  501 -0.11556624841E+03  0.70096861883E+02  0.17534689844E+03  0.22139481161E+03  0.00000000000E+00 0. -1.
<mgrwt>
<rscale>  2 0.13516334E+03</rscale>
<asrwt>0</asrwt>
<pdfrwt beam="1">  1       21 0.40700016E-01 0.13516334E+03</pdfrwt>
<pdfrwt beam="2">  1       21 0.14159656E-01 0.13516334E+03</pdfrwt>
<totfact> 0.25682945E+05</totfact>
</mgrwt>
</event>
<event>
 4    1  0.6055396E+003  0.1205996E+03  0.7546771E-02  0.1242111E+00
         21   -1    0    0  504  501  0.00000000000E+00  0.00000000000E+00  0.13906488094E+03  0.13906488094E+03  0.00000000000E+00 0. -1.
         21   -1    0    0  503  502 -0.00000000000E+00 -0.00000000000E+00 -0.14898497573E+03  0.14898497573E+03  0.00000000000E+00 0. -1.
         21    1    1    2  503  501  0.75220916498E+02 -0.94265954647E+02 -0.83583536664E+02  0.14673262788E+03  0.00000000000E+00 0. -1.
         21    1    1    2  504  502 -0.75220916498E+02  0.94265954647E+02  0.73663441870E+02  0.14131722879E+03  0.00000000000E+00 0. -1.
<mgrwt>
<rscale>  2 0.12059957E+03</rscale>
<asrwt>0</asrwt>
<pdfrwt beam="1">  1       21 0.21394597E-01 0.12059957E+03</pdfrwt>
<pdfrwt beam="2">  1       21 0.22920766E-01 0.12059957E+03</pdfrwt>
<totfact> 0.36790160E+05</totfact>
</mgrwt>
</event>
<event>
 4    1  0.6055396E+003  0.1173566E+03  0.7546771E-02  0.1247523E+00
         21   -1    0    0  503  501  0.00000000000E+00  0.00000000000E+00  0.13976665977E+03  0.13976665977E+03  0.00000000000E+00 0. -1.
         21   -1    0    0  504  502 -0.00000000000E+00 -0.00000000000E+00 -0.15190993274E+03  0.15190993274E+03  0.00000000000E+00 0. -1.
         21    1    1    2  503  502 -0.27721014136E+02  0.11403560336E+03 -0.92514230397E+02  0.14943713155E+03  0.00000000000E+00 0. -1.
         21    1    1    2  504  501  0.27721014136E+02 -0.11403560336E+03  0.80370957424E+02  0.14223946097E+03  0.00000000000E+00 0. -1.
<mgrwt>
<rscale>  2 0.11735661E+03</rscale>
<asrwt>0</asrwt>
<pdfrwt beam="1">  1       21 0.21502563E-01 0.11735661E+03</pdfrwt>
<pdfrwt beam="2">  1       21 0.23370759E-01 0.11735661E+03</pdfrwt>
<totfact> 0.35162002E+05</totfact>
</mgrwt>
</event>
<event>
 4    1  0.6055396E+003  0.1004837E+03  0.7546771E-02  0.1279282E+00
         21   -1    0    0  503  501  0.00000000000E+00  0.00000000000E+00  0.22184771927E+02  0.22184771927E+02  0.00000000000E+00 0. -1.
         21   -1    0    0  504  502 -0.00000000000E+00 -0.00000000000E+00 -0.53893604630E+03  0.53893604630E+03  0.00000000000E+00 0. -1.
         21    1    1    2  503  502  0.90549296279E+02  0.43563709791E+02 -0.14774039134E+03  0.17867343143E+03  0.00000000000E+00 0. -1.
         21    1    1    2  504  501 -0.90549296279E+02 -0.43563709791E+02 -0.36901088304E+03  0.38244738680E+03  0.00000000000E+00 0. -1.
<mgrwt>
<rscale>  2 0.10048369E+03</rscale>
<asrwt>0</asrwt>
<pdfrwt beam="1">  1       21 0.34130420E-02 0.10048369E+03</pdfrwt>
<pdfrwt beam="2">  1       21 0.82913235E-01 0.10048369E+03</pdfrwt>
<totfact> 0.65408600E+05</totfact>
</mgrwt>
</event>
<event>
 4    1  0.6055396E+003  0.1000451E+03  0.7546771E-02  0.1280201E+00
         21   -1    0    0  503  501  0.00000000000E+00  0.00000000000E+00  0.94247831191E+02  0.94247831191E+02  0.00000000000E+00 0.  1.
         21   -1    0    0  504  502 -0.00000000000E+00 -0.00000000000E+00 -0.20837065769E+03  0.20837065769E+03  0.00000000000E+00 0. -1.
         21    1    1    2  503  502 -0.35177406857E+02 -0.93656692004E+02 -0.16301420155E+03  0.19126592957E+03  0.00000000000E+00 0. -1.
         21    1    1    2  504  501  0.35177406857E+02  0.93656692004E+02  0.48891375046E+02  0.11135255931E+03  0.00000000000E+00 0.  1.
<mgrwt>
<rscale>  2 0.10004512E+03</rscale>
<asrwt>0</asrwt>
<pdfrwt beam="1">  1       21 0.14499667E-01 0.10004512E+03</pdfrwt>
<pdfrwt beam="2">  1       21 0.32057024E-01 0.10004512E+03</pdfrwt>
<totfact> 0.39595297E+05</totfact>
</mgrwt>
</event>
<event>
 4    1  0.6055396E+003  0.1155839E+03  0.7546771E-02  0.1250565E+00
         21   -1    0    0  503  501  0.00000000000E+00  0.00000000000E+00  0.43022011736E+03  0.43022011736E+03  0.00000000000E+00 0. -1.
         21   -1    0    0  504  502 -0.00000000000E+00 -0.00000000000E+00 -0.11292425413E+03  0.11292425413E+03  0.00000000000E+00 0.  1.
         21    1    1    2  503  502  0.57600785911E+02 -0.10020869092E+03 -0.72589081495E+02  0.13648738779E+03  0.00000000000E+00 0.  1.
         21    1    1    2  504  501 -0.57600785911E+02  0.10020869092E+03  0.38988494473E+03  0.40665698371E+03  0.00000000000E+00 0. -1.
<mgrwt>
<rscale>  2 0.11558388E+03</rscale>
<asrwt>0</asrwt>
<pdfrwt beam="1">  1       21 0.66187710E-01 0.11558388E+03</pdfrwt>
<pdfrwt beam="2">  1       21 0.17372962E-01 0.11558388E+03</pdfrwt>
<totfact> 0.65153631E+04</totfact>
</mgrwt>
</event>
<event>
 4    1  0.6055396E+003  0.1011836E+03  0.7546771E-02  0.1277827E+00
         21   -1    0    0  504  501  0.00000000000E+00  0.00000000000E+00  0.39033505460E+03  0.39033505460E+03  0.00000000000E+00 0. -1.
         21   -1    0    0  501  502 -0.00000000000E+00 -0.00000000000E+00 -0.50130793898E+02  0.50130793898E+02  0.00000000000E+00 0. -1.
         21    1    1    2  503  502 -0.43024708218E+02 -0.91580545932E+02  0.18031743861E+02  0.10277774904E+03  0.00000000000E+00 0. -1.
         21    1    1    2  504  503  0.43024708218E+02  0.91580545932E+02  0.32217251684E+03  0.33768809946E+03  0.00000000000E+00 0. -1.
<mgrwt>
<rscale>  2 0.10118360E+03</rscale>
<asrwt>0</asrwt>
<pdfrwt beam="1">  1       21 0.60051545E-01 0.10118360E+03</pdfrwt>
<pdfrwt beam="2">  1       21 0.77124301E-02 0.10118360E+03</pdfrwt>
<totfact> 0.33676477E+05</totfact>
</mgrwt>
</event>
<event>
 4    1  0.6055396E+003  0.1317371E+03  0.7546771E-02  0.1224901E+00
         21   -1    0    0  502  501  0.00000000000E+00  0.00000000000E+00  0.18420069806E+03  0.18420069806E+03  0.00000000000E+00 0. -1.
         21   -1    0    0  503  502 -0.00000000000E+00 -0.00000000000E+00 -0.23274388679E+03  0.23274388679E+03  0.00000000000E+00 0. -1.
         21    1    1    2  503  504 -0.11813255809E+03  0.58304025037E+02 -0.18510554885E+03  0.22719754583E+03  0.00000000000E+00 0. -1.
         21    1    1    2  504  501  0.11813255809E+03 -0.58304025037E+02  0.13656236012E+03  0.18974703902E+03  0.00000000000E+00 0. -1.
<mgrwt>
<rscale>  2 0.13173709E+03</rscale>
<asrwt>0</asrwt>
<pdfrwt beam="1">  1       21 0.28338569E-01 0.13173709E+03</pdfrwt>
<pdfrwt beam="2">  1       21 0.35806752E-01 0.13173709E+03</pdfrwt>
<totfact> 0.91725155E+04</totfact>
</mgrwt>
</event>
<event>
 4    1  0.6055396E+003  0.1224575E+03  0.7546771E-02  0.1239097E+00
         21   -1    0    0  503  501  0.00000000000E+00  0.00000000000E+00  0.45930125465E+03  0.45930125465E+03  0.00000000000E+00 0. -1.
         21   -1    0    0  501  502 -0.00000000000E+00 -0.00000000000E+00 -0.49912447860E+02  0.49912447860E+02  0.00000000000E+00 0. -1.
         21    1    1    2  503  504 -0.32839489401E+02  0.11797210191E+03  0.35443035002E+03  0.37498896239E+03  0.00000000000E+00 0. -1.
         21    1    1    2  504  502  0.32839489401E+02 -0.11797210191E+03  0.54958456771E+02  0.13422474013E+03  0.00000000000E+00 0. -1.
<mgrwt>
<rscale>  2 0.12245754E+03</rscale>
<asrwt>0</asrwt>
<pdfrwt beam="1">  1       21 0.70661729E-01 0.12245754E+03</pdfrwt>
<pdfrwt beam="2">  1       21 0.76788385E-02 0.12245754E+03</pdfrwt>
<totfact> 0.23824773E+05</totfact>
</mgrwt>
</event>
<event>
 4    1  0.6055396E+003  0.1027181E+03  0.7546771E-02  0.1274682E+00
         21   -1    0    0  504  501  0.00000000000E+00  0.00000000000E+00  0.27438187558E+03  0.27438187558E+03  0.00000000000E+00 0.  1.
         21   -1    0    0  503  502 -0.00000000000E+00 -0.00000000000E+00 -0.38918520770E+02  0.38918520770E+02  0.00000000000E+00 0.  1.
         21    1    1    2  503  501  0.88697145097E+02 -0.51805658991E+02  0.10061277447E+03  0.14378435325E+03  0.00000000000E+00 0.  1.
         21    1    1    2  504  502 -0.88697145097E+02  0.51805658991E+02  0.13485058034E+03  0.16951604310E+03  0.00000000000E+00 0.  1.
<mgrwt>
<rscale>  2 0.10271811E+03</rscale>
<asrwt>0</asrwt>
<pdfrwt beam="1">  1       21 0.42212595E-01 0.10271811E+03</pdfrwt>
<pdfrwt beam="2">  1       21 0.59874649E-02 0.10271811E+03</pdfrwt>
<totfact> 0.10670208E+06</totfact>
</mgrwt>
</event>
<event>
 4    1  0.6055396E+003  0.1064820E+03  0.7546771E-02  0.1267227E+00
         21   -1    0    0  504  501  0.00000000000E+00  0.00000000000E+00  0.11746405963E+03  0.11746405963E+03  0.00000000000E+00 0.  1.
         21   -1    0    0  503  502 -0.00000000000E+00 -0.00000000000E+00 -0.14403181598E+03  0.14403181598E+03  0.00000000000E+00 0.  1.
         21    1    1    2  503  501  0.24491853824E+02 -0.10362702385E+03  0.61805082987E+02  0.12311896385E+03  0.00000000000E+00 0.  1.
         21    1    1    2  504  502 -0.24491853824E+02  0.10362702385E+03 -0.88372839345E+02  0.13837691176E+03  0.00000000000E+00 0.  1.
<mgrwt>
<rscale>  2 0.10648197E+03</rscale>
<asrwt>0</asrwt>
<pdfrwt beam="1">  1       21 0.18071394E-01 0.10648197E+03</pdfrwt>
<pdfrwt beam="2">  1       21 0.22158741E-01 0.10648197E+03</pdfrwt>
<totfact> 0.53518243E+05</totfact>
</mgrwt>
</event>
<event>
 4    1  0.6055396E+003  0.1121018E+03  0.7546771E-02  0.1256726E+00
         21   -1    0    0  503  501  0.00000000000E+00  0.00000000000E+00  0.46801384300E+03  0.46801384300E+03  0.00000000000E+00 0.  1.
         21   -1    0    0  501  502 -0.00000000000E+00 -0.00000000000E+00 -0.34085778958E+02  0.34085778958E+02  0.00000000000E+00 0.  1.
         21    1    1    2  503  504  0.10935368058E+03  0.24669526103E+02  0.33262180026E+03  0.35100438029E+03  0.00000000000E+00 0.  1.
         21    1    1    2  504  502 -0.10935368058E+03 -0.24669526103E+02  0.10130626378E+03  0.15109524167E+03  0.00000000000E+00 0.  1.
<mgrwt>
<rscale>  2 0.11210180E+03</rscale>
<asrwt>0</asrwt>
<pdfrwt beam="1">  1       21 0.72002125E-01 0.11210180E+03</pdfrwt>
<pdfrwt beam="2">  1       21 0.52439664E-02 0.11210180E+03</pdfrwt>
<totfact> 0.43776091E+05</totfact>
</mgrwt>
</event>
<event>
 4    1  0.6055396E+003  0.1296749E+03  0.7546771E-02  0.1227939E+00
         21   -1    0    0  502  501  0.00000000000E+00  0.00000000000E+00  0.56618842377E+02  0.56618842377E+02  0.00000000000E+00 0.  1.
         21   -1    0    0  504  502 -0.00000000000E+00 -0.00000000000E+00 -0.93999690213E+03  0.93999690213E+03  0.00000000000E+00 0.  1.
         21    1    1    2  503  501 -0.12200451596E+03 -0.43937296553E+02 -0.29553345240E+02  0.13299995548E+03  0.00000000000E+00 0.  1.
         21    1    1    2  504  503  0.12200451596E+03  0.43937296553E+02 -0.85382471451E+03  0.86361578902E+03  0.00000000000E+00 0.  1.
<mgrwt>
<rscale>  2 0.12967493E+03</rscale>
<asrwt>0</asrwt>
<pdfrwt beam="1">  1       21 0.87105923E-02 0.12967493E+03</pdfrwt>
<pdfrwt beam="2">  1       21 0.14461489E+00 0.12967493E+03</pdfrwt>
<totfact> 0.35438178E+04</totfact>
</mgrwt>
</event>
<event>
 4    1  0.6055396E+003  0.1561500E+03  0.7546771E-02  0.1193113E+00
         21   -1    0    0  504  501  0.00000000000E+00  0.00000000000E+00  0.17722486106E+03  0.17722486106E+03  0.00000000000E+00 0.  1.
         21   -1    0    0  501  502 -0.00000000000E+00 -0.00000000000E+00 -0.27109203893E+03  0.27109203893E+03  0.00000000000E+00 0.  1.
         21    1    1    2  503  502  0.91704178554E+02 -0.12638499043E+03 -0.20424306152E+03  0.25709541098E+03  0.00000000000E+00 0.  1.
         21    1    1    2  504  503 -0.91704178554E+02  0.12638499043E+03  0.11037588365E+03  0.19122148901E+03  0.00000000000E+00 0.  1.
<mgrwt>
<rscale>  2 0.15615000E+03</rscale>
<asrwt>0</asrwt>
<pdfrwt beam="1">  1       21 0.27265363E-01 0.15615000E+03</pdfrwt>
<pdfrwt beam="2">  1       21 0.41706467E-01 0.15615000E+03</pdfrwt>
<totfact> 0.72125565E+04</totfact>
</mgrwt>
</event>
<event>
 4    1  0.6055396E+003  0.1055957E+03  0.7546771E-02  0.1268950E+00
         21   -1    0    0  504  501  0.00000000000E+00  0.00000000000E+00  0.72192907685E+02  0.72192907685E+02  0.00000000000E+00 0.  1.
         21   -1    0    0  503  502 -0.00000000000E+00 -0.00000000000E+00 -0.17669308658E+03  0.17669308658E+03  0.00000000000E+00 0.  1.
         21    1    1    2  503  501 -0.75951337038E+01 -0.10532223152E+03 -0.81009220120E+01  0.10590601232E+03  0.00000000000E+00 0.  1.
         21    1    1    2  504  502  0.75951337038E+01  0.10532223152E+03 -0.96399256881E+02  0.14297998194E+03  0.00000000000E+00 0.  1.
<mgrwt>
<rscale>  2 0.10559573E+03</rscale>
<asrwt>0</asrwt>
<pdfrwt beam="1">  1       21 0.11106601E-01 0.10559573E+03</pdfrwt>
<pdfrwt beam="2">  1       21 0.27183552E-01 0.10559573E+03</pdfrwt>
<totfact> 0.86989105E+05</totfact>
</mgrwt>
</event>
<event>
 4    1  0.6055396E+003  0.1077693E+03  0.7546771E-02  0.1264758E+00
         21   -1    0    0  504  501  0.00000000000E+00  0.00000000000E+00  0.61937444931E+03  0.61937444931E+03  0.00000000000E+00 0.  1.
         21   -1    0    0  503  502 -0.00000000000E+00 -0.00000000000E+00 -0.25026831958E+02  0.25026831958E+02  0.00000000000E+00 0.  1.
         21    1    1    2  503  501 -0.10770898437E+03  0.36036952587E+01  0.45851347171E+03  0.47100829682E+03  0.00000000000E+00 0.  1.
         21    1    1    2  504  502  0.10770898437E+03 -0.36036952587E+01  0.13583414564E+03  0.17339298445E+03  0.00000000000E+00 0.  1.
<mgrwt>
<rscale>  2 0.10776925E+03</rscale>
<asrwt>0</asrwt>
<pdfrwt beam="1">  1       21 0.95288365E-01 0.10776925E+03</pdfrwt>
<pdfrwt beam="2">  1       21 0.38502823E-02 0.10776925E+03</pdfrwt>
<totfact> 0.39111919E+05</totfact>
</mgrwt>
</event>
<event>
 4    1  0.6055396E+003  0.1401690E+03  0.7546771E-02  0.1213102E+00
         21   -1    0    0  504  501  0.00000000000E+00  0.00000000000E+00  0.25409671099E+02  0.25409671099E+02  0.00000000000E+00 0. -1.
         21   -1    0    0  503  502 -0.00000000000E+00 -0.00000000000E+00 -0.13415137887E+04  0.13415137887E+04  0.00000000000E+00 0. -1.
         21    1    1    2  503  501 -0.13392479405E+03 -0.41370327057E+02 -0.11028899306E+04  0.11117614643E+04  0.00000000000E+00 0. -1.
         21    1    1    2  504  502  0.13392479405E+03  0.41370327057E+02 -0.21321418698E+03  0.25516199550E+03  0.00000000000E+00 0. -1.
<mgrwt>
<rscale>  2 0.14016902E+03</rscale>
<asrwt>0</asrwt>
<pdfrwt beam="1">  1       21 0.39091803E-02 0.14016902E+03</pdfrwt>
<pdfrwt beam="2">  1       21 0.20638673E+00 0.14016902E+03</pdfrwt>
<totfact> 0.51693181E+04</totfact>
</mgrwt>
</event>
<event>
 4    1  0.6055396E+003  0.1116280E+03  0.7546771E-02  0.1257584E+00
         21   -1    0    0  503  501  0.00000000000E+00  0.00000000000E+00  0.26036436377E+03  0.26036436377E+03  0.00000000000E+00 0.  1.
         21   -1    0    0  504  502 -0.00000000000E+00 -0.00000000000E+00 -0.10505425994E+03  0.10505425994E+03  0.00000000000E+00 0.  1.
         21    1    1    2  503  502 -0.57716425736E+02 -0.95549059176E+02  0.21246856420E+03  0.24000770671E+03  0.00000000000E+00 0.  1.
         21    1    1    2  504  501  0.57716425736E+02  0.95549059176E+02 -0.57158460373E+02  0.12541091699E+03  0.00000000000E+00 0.  1.
<mgrwt>
<rscale>  2 0.11162799E+03</rscale>
<asrwt>0</asrwt>
<pdfrwt beam="1">  1       21 0.40056056E-01 0.11162799E+03</pdfrwt>
<pdfrwt beam="2">  1       21 0.16162194E-01 0.11162799E+03</pdfrwt>
<totfact> 0.21010963E+05</totfact>
</mgrwt>
</event>
<event>
 4    1  0.6055396E+003  0.1870833E+03  0.7546771E-02  0.1161119E+00
         21   -1    0    0  504  501  0.00000000000E+00  0.00000000000E+00  0.19725166417E+03  0.19725166417E+03  0.00000000000E+00 0. -1.
         21   -1    0    0  503  502 -0.00000000000E+00 -0.00000000000E+00 -0.33787622661E+03  0.33787622661E+03  0.00000000000E+00 0.  1.
         21    1    1    2  503  501 -0.14828528522E+03 -0.11406860761E+03  0.11406232522E+03  0.21911272690E+03  0.00000000000E+00 0. -1.
         21    1    1    2  504  502  0.14828528522E+03  0.11406860761E+03 -0.25468688766E+03  0.31601516388E+03  0.00000000000E+00 0.  1.
<mgrwt>
<rscale>  2 0.18708333E+03</rscale>
<asrwt>0</asrwt>
<pdfrwt beam="1">  1       21 0.30346410E-01 0.18708333E+03</pdfrwt>
<pdfrwt beam="2">  1       21 0.51980957E-01 0.18708333E+03</pdfrwt>
<totfact> 0.36711204E+04</totfact>
</mgrwt>
</event>
<event>
 4    1  0.6055396E+003  0.1218667E+03  0.7546771E-02  0.1240049E+00
         21   -1    0    0  502  501  0.00000000000E+00  0.00000000000E+00  0.12380867646E+03  0.12380867646E+03  0.00000000000E+00 0.  1.
         21   -1    0    0  503  502 -0.00000000000E+00 -0.00000000000E+00 -0.40878084632E+03  0.40878084632E+03  0.00000000000E+00 0.  1.
         21    1    1    2  503  504  0.11944794698E+03  0.24159285813E+02 -0.36632484942E+03  0.38606395641E+03  0.00000000000E+00 0.  1.
         21    1    1    2  504  501 -0.11944794698E+03 -0.24159285813E+02  0.81352679557E+02  0.14652556637E+03  0.00000000000E+00 0.  1.
<mgrwt>
<rscale>  2 0.12186666E+03</rscale>
<asrwt>0</asrwt>
<pdfrwt beam="1">  1       21 0.19047489E-01 0.12186666E+03</pdfrwt>
<pdfrwt beam="2">  1       21 0.62889361E-01 0.12186666E+03</pdfrwt>
<totfact> 0.61232516E+04</totfact>
</mgrwt>
</event>
<event>
 4    1  0.6055396E+003  0.1130410E+03  0.7546771E-02  0.1255040E+00
         21   -1    0    0  503  501  0.00000000000E+00  0.00000000000E+00  0.59035667069E+03  0.59035667069E+03  0.00000000000E+00 0. -1.
         21   -1    0    0  504  502 -0.00000000000E+00 -0.00000000000E+00 -0.94194086993E+02  0.94194086993E+02  0.00000000000E+00 0.  1.
         21    1    1    2  503  502  0.56102194497E+02 -0.98136729643E+02  0.54846736656E+03  0.55999529115E+03  0.00000000000E+00 0. -1.
         21    1    1    2  504  501 -0.56102194497E+02  0.98136729643E+02 -0.52304782862E+02  0.12455546653E+03  0.00000000000E+00 0.  1.
<mgrwt>
<rscale>  2 0.11304103E+03</rscale>
<asrwt>0</asrwt>
<pdfrwt beam="1">  1       21 0.90824101E-01 0.11304103E+03</pdfrwt>
<pdfrwt beam="2">  1       21 0.14491398E-01 0.11304103E+03</pdfrwt>
<totfact> 0.44928475E+04</totfact>
</mgrwt>
</event>
<event>
 4    1  0.6055396E+003  0.1047766E+03  0.7546771E-02  0.1270560E+00
         21   -1    0    0  503  501  0.00000000000E+00  0.00000000000E+00  0.72484709117E+03  0.72484709117E+03  0.00000000000E+00 0. -1.
         21   -1    0    0  504  502 -0.00000000000E+00 -0.00000000000E+00 -0.16365698883E+02  0.16365698883E+02  0.00000000000E+00 0. -1.
         21    1    1    2  503  502  0.97952613101E+02 -0.37194366642E+02  0.45543821238E+03  0.46733510527E+03  0.00000000000E+00 0. -1.
         21    1    1    2  504  501 -0.97952613101E+02  0.37194366642E+02  0.25304317991E+03  0.27387768478E+03  0.00000000000E+00 0. -1.
<mgrwt>
<rscale>  2 0.10477660E+03</rscale>
<asrwt>0</asrwt>
<pdfrwt beam="1">  1       21 0.11151491E+00 0.10477660E+03</pdfrwt>
<pdfrwt beam="2">  1       21 0.25178004E-02 0.10477660E+03</pdfrwt>
<totfact> 0.54221587E+05</totfact>
</mgrwt>
</event>
<event>
 4    1  0.6055396E+003  0.1092821E+03  0.7546771E-02  0.1261905E+00
         21   -1    0    0  502  501  0.00000000000E+00  0.00000000000E+00  0.85764083442E+02  0.85764083442E+02  0.00000000000E+00 0.  1.
         21   -1    0    0  503  502 -0.00000000000E+00 -0.00000000000E+00 -0.20843316661E+03  0.20843316661E+03  0.00000000000E+00 0.  1.
         21    1    1    2  503  504  0.62497906711E+02 -0.89647076502E+02 -0.14608219570E+03  0.18243517909E+03  0.00000000000E+00 0.  1.
         21    1    1    2  504  501 -0.62497906711E+02  0.89647076502E+02  0.23413112528E+02  0.11176207097E+03  0.00000000000E+00 0.  1.
<mgrwt>
<rscale>  2 0.10928214E+03</rscale>
<asrwt>0</asrwt>
<pdfrwt beam="1">  1       21 0.13194474E-01 0.10928214E+03</pdfrwt>
<pdfrwt beam="2">  1       21 0.32066641E-01 0.10928214E+03</pdfrwt>
<totfact> 0.46780163E+05</totfact>
</mgrwt>
</event>
<event>
 4    1  0.6055396E+003  0.1377663E+03  0.7546771E-02  0.1216367E+00
         21   -1    0    0  504  501  0.00000000000E+00  0.00000000000E+00  0.10277141343E+03  0.10277141343E+03  0.00000000000E+00 0.  1.
         21   -1    0    0  503  502 -0.00000000000E+00 -0.00000000000E+00 -0.54829463968E+03  0.54829463968E+03  0.00000000000E+00 0. -1.
         21    1    1    2  503  501  0.66374395403E+02 -0.12072275715E+03 -0.48786200156E+03  0.50694070366E+03  0.00000000000E+00 0. -1.
         21    1    1    2  504  502 -0.66374395403E+02  0.12072275715E+03  0.42338775307E+02  0.14412534945E+03  0.00000000000E+00 0.  1.
<mgrwt>
<rscale>  2 0.13776627E+03</rscale>
<asrwt>0</asrwt>
<pdfrwt beam="1">  1       21 0.15810987E-01 0.13776627E+03</pdfrwt>
<pdfrwt beam="2">  1       21 0.84353020E-01 0.13776627E+03</pdfrwt>
<totfact> 0.44728596E+04</totfact>
</mgrwt>
</event>
<event>
 4    1  0.6055396E+003  0.1320914E+03  0.7546771E-02  0.1224385E+00
         21   -1    0    0  504  501  0.00000000000E+00  0.00000000000E+00  0.56918915605E+02  0.56918915605E+02  0.00000000000E+00 0. -1.
         21   -1    0    0  503  502 -0.00000000000E+00 -0.00000000000E+00 -0.32292285574E+03  0.32292285574E+03  0.00000000000E+00 0. -1.
         21    1    1    2  503  501 -0.86589383346E+02 -0.99751724064E+02 -0.90228865410E+02  0.15996679629E+03  0.00000000000E+00 0. -1.
         21    1    1    2  504  502  0.86589383346E+02  0.99751724064E+02 -0.17577507473E+03  0.21987497506E+03  0.00000000000E+00 0. -1.
<mgrwt>
<rscale>  2 0.13209136E+03</rscale>
<asrwt>0</asrwt>
<pdfrwt beam="1">  1       21 0.87567565E-02 0.13209136E+03</pdfrwt>
<pdfrwt beam="2">  1       21 0.49680438E-01 0.13209136E+03</pdfrwt>
<totfact> 0.39997281E+05</totfact>
</mgrwt>
</event>
<event>
 4    1  0.6055396E+003  0.1059997E+03  0.7546771E-02  0.1268162E+00
         21   -1    0    0  504  501  0.00000000000E+00  0.00000000000E+00  0.10313634048E+03  0.10313634048E+03  0.00000000000E+00 0. -1.
         21   -1    0    0  503  502 -0.00000000000E+00 -0.00000000000E+00 -0.22801971492E+03  0.22801971492E+03  0.00000000000E+00 0. -1.
         21    1    1    2  503  501  0.51163325017E+02  0.92834499570E+02 -0.18209668731E+03  0.21070152744E+03  0.00000000000E+00 0. -1.
         21    1    1    2  504  502 -0.51163325017E+02 -0.92834499570E+02  0.57213312860E+02  0.12045452796E+03  0.00000000000E+00 0. -1.
<mgrwt>
<rscale>  2 0.10599967E+03</rscale>
<asrwt>0</asrwt>
<pdfrwt beam="1">  1       21 0.15867129E-01 0.10599967E+03</pdfrwt>
<pdfrwt beam="2">  1       21 0.35079956E-01 0.10599967E+03</pdfrwt>
<totfact> 0.28253118E+05</totfact>
</mgrwt>
</event>
<event>
 4    1  0.6055396E+003  0.1149597E+03  0.7546771E-02  0.1251651E+00
         21   -1    0    0  503  501  0.00000000000E+00  0.00000000000E+00  0.96703943114E+03  0.96703943114E+03  0.00000000000E+00 0. -1.
         21   -1    0    0  504  502 -0.00000000000E+00 -0.00000000000E+00 -0.16108489927E+02  0.16108489927E+02  0.00000000000E+00 0. -1.
         21    1    1    2  503  502 -0.16139975643E+02  0.11382103706E+03  0.28405638680E+03  0.30643720102E+03  0.00000000000E+00 0. -1.
         21    1    1    2  504  501  0.16139975643E+02 -0.11382103706E+03  0.66687455442E+03  0.67671072005E+03  0.00000000000E+00 0. -1.
<mgrwt>
<rscale>  2 0.11495968E+03</rscale>
<asrwt>0</asrwt>
<pdfrwt beam="1">  1       21 0.14877525E+00 0.11495968E+03</pdfrwt>
<pdfrwt beam="2">  1       21 0.24782300E-02 0.11495968E+03</pdfrwt>
<totfact> 0.27225182E+05</totfact>
</mgrwt>
</event>
<event>
 4    1  0.6055396E+003  0.1113927E+03  0.7546771E-02  0.1258012E+00
         21   -1    0    0  502  501  0.00000000000E+00  0.00000000000E+00  0.11172595190E+02  0.11172595190E+02  0.00000000000E+00 0. -1.
         21   -1    0    0  504  502 -0.00000000000E+00 -0.00000000000E+00 -0.17897993332E+04  0.17897993332E+04  0.00000000000E+00 0.  1.
         21    1    1    2  503  501  0.99884752635E+02  0.49308816017E+02 -0.33459533081E+03  0.35265047646E+03  0.00000000000E+00 0. -1.
         21    1    1    2  504  503 -0.99884752635E+02 -0.49308816017E+02 -0.14440314072E+04  0.14483214519E+04  0.00000000000E+00 0.  1.
<mgrwt>
<rscale>  2 0.11139265E+03</rscale>
<asrwt>0</asrwt>
<pdfrwt beam="1">  1       21 0.17188602E-02 0.11139265E+03</pdfrwt>
<pdfrwt beam="2">  1       21 0.27535384E+00 0.11139265E+03</pdfrwt>
<totfact> 0.80382424E+04</totfact>
</mgrwt>
</event>
<event>
 4    1  0.6055396E+003  0.1021188E+03  0.7546771E-02  0.1275902E+00
         21   -1    0    0  503  501  0.00000000000E+00  0.00000000000E+00  0.19145676912E+03  0.19145676912E+03  0.00000000000E+00 0.  1.
         21   -1    0    0  504  502 -0.00000000000E+00 -0.00000000000E+00 -0.96942220903E+02  0.96942220903E+02  0.00000000000E+00 0.  1.
         21    1    1    2  503  502  0.73545208358E+02 -0.70847443613E+02  0.14270601805E+03  0.17548010009E+03  0.00000000000E+00 0.  1.
         21    1    1    2  504  501 -0.73545208358E+02  0.70847443613E+02 -0.48191469835E+02  0.11291888993E+03  0.00000000000E+00 0.  1.
<mgrwt>
<rscale>  2 0.10211884E+03</rscale>
<asrwt>0</asrwt>
<pdfrwt beam="1">  1       21 0.29454887E-01 0.10211884E+03</pdfrwt>
<pdfrwt beam="2">  1       21 0.14914188E-01 0.10211884E+03</pdfrwt>
<totfact> 0.44290670E+05</totfact>
</mgrwt>
</event>
<event>
 4    1  0.6055396E+003  0.1105033E+03  0.7546771E-02  0.1259641E+00
         21   -1    0    0  503  501  0.00000000000E+00  0.00000000000E+00  0.12615236235E+03  0.12615236235E+03  0.00000000000E+00 0. -1.
         21   -1    0    0  504  502 -0.00000000000E+00 -0.00000000000E+00 -0.96872865906E+02  0.96872865906E+02  0.00000000000E+00 0. -1.
         21    1    1    2  503  502 -0.11013517505E+03  0.90121792972E+01  0.11487610572E+02  0.11109879097E+03  0.00000000000E+00 0. -1.
         21    1    1    2  504  501  0.11013517505E+03 -0.90121792972E+01  0.17791885868E+02  0.11192643728E+03  0.00000000000E+00 0. -1.
<mgrwt>
<rscale>  2 0.11050329E+03</rscale>
<asrwt>0</asrwt>
<pdfrwt beam="1">  1       21 0.19408056E-01 0.11050329E+03</pdfrwt>
<pdfrwt beam="2">  1       21 0.14903518E-01 0.11050329E+03</pdfrwt>
<totfact> 0.96875804E+05</totfact>
</mgrwt>
</event>
<event>
 4    1  0.6055396E+003  0.1009452E+03  0.7546771E-02  0.1278321E+00
         21   -1    0    0  503  501  0.00000000000E+00  0.00000000000E+00  0.11505406856E+02  0.11505406856E+02  0.00000000000E+00 0.  1.
         21   -1    0    0  504  502 -0.00000000000E+00 -0.00000000000E+00 -0.10613247716E+04  0.10613247716E+04  0.00000000000E+00 0.  1.
         21    1    1    2  503  502 -0.95360888065E+02 -0.33109317606E+02 -0.74313950353E+03  0.74996416420E+03  0.00000000000E+00 0.  1.
         21    1    1    2  504  501  0.95360888065E+02  0.33109317606E+02 -0.30667986125E+03  0.32286601429E+03  0.00000000000E+00 0.  1.
<mgrwt>
<rscale>  2 0.10094516E+03</rscale>
<asrwt>0</asrwt>
<pdfrwt beam="1">  1       21 0.17700627E-02 0.10094516E+03</pdfrwt>
<pdfrwt beam="2">  1       21 0.16328073E+00 0.10094516E+03</pdfrwt>
<totfact> 0.36931733E+05</totfact>
</mgrwt>
</event>
<event>
 4    1  0.6055396E+003  0.1128617E+03  0.7546771E-02  0.1255360E+00
         21   -1    0    0  504  501  0.00000000000E+00  0.00000000000E+00  0.12373471439E+04  0.12373471439E+04  0.00000000000E+00 0.  1.
         21   -1    0    0  503  502 -0.00000000000E+00 -0.00000000000E+00 -0.22523421082E+02  0.22523421082E+02  0.00000000000E+00 0.  1.
         21    1    1    2  503  501 -0.10859560171E+03 -0.30737008903E+02  0.10715788891E+04  0.10775059554E+04  0.00000000000E+00 0.  1.
         21    1    1    2  504  502  0.10859560171E+03  0.30737008903E+02  0.14324483369E+03  0.18236460952E+03  0.00000000000E+00 0.  1.
<mgrwt>
<rscale>  2 0.11286172E+03</rscale>
<asrwt>0</asrwt>
<pdfrwt beam="1">  1       21 0.19036105E+00 0.11286172E+03</pdfrwt>
<pdfrwt beam="2">  1       21 0.34651427E-02 0.11286172E+03</pdfrwt>
<totfact> 0.81367652E+04</totfact>
</mgrwt>
</event>
<event>
 4    1  0.6055396E+003  0.1067876E+03  0.7546771E-02  0.1266637E+00
         21   -1    0    0  503  501  0.00000000000E+00  0.00000000000E+00  0.11739219401E+03  0.11739219401E+03  0.00000000000E+00 0. -1.
         21   -1    0    0  504  502 -0.00000000000E+00 -0.00000000000E+00 -0.10494284816E+03  0.10494284816E+03  0.00000000000E+00 0. -1.
         21    1    1    2  503  502  0.10678710531E+03 -0.32498877070E+00  0.36535731803E+02  0.11286474727E+03  0.00000000000E+00 0. -1.
         21    1    1    2  504  501 -0.10678710531E+03  0.32498877070E+00 -0.24086385950E+02  0.10947029490E+03  0.00000000000E+00 0. -1.
<mgrwt>
<rscale>  2 0.10678760E+03</rscale>
<asrwt>0</asrwt>
<pdfrwt beam="1">  1       21 0.18060338E-01 0.10678760E+03</pdfrwt>
<pdfrwt beam="2">  1       21 0.16145054E-01 0.10678760E+03</pdfrwt>
<totfact> 0.95640016E+05</totfact>
</mgrwt>
</event>
<event>
 4    1  0.6055396E+003  0.1093223E+03  0.7546771E-02  0.1261830E+00
         21   -1    0    0  503  501  0.00000000000E+00  0.00000000000E+00  0.11450718098E+03  0.11450718098E+03  0.00000000000E+00 0. -1.
         21   -1    0    0  504  502 -0.00000000000E+00 -0.00000000000E+00 -0.11325791072E+03  0.11325791072E+03  0.00000000000E+00 0. -1.
         21    1    1    2  503  502  0.10851839167E+03 -0.13233165327E+02  0.32523172649E+02  0.11405750635E+03  0.00000000000E+00 0. -1.
         21    1    1    2  504  501 -0.10851839167E+03  0.13233165327E+02 -0.31273902391E+02  0.11370758535E+03  0.00000000000E+00 0. -1.
<mgrwt>
<rscale>  2 0.10932227E+03</rscale>
<asrwt>0</asrwt>
<pdfrwt beam="1">  1       21 0.17616489E-01 0.10932227E+03</pdfrwt>
<pdfrwt beam="2">  1       21 0.17424294E-01 0.10932227E+03</pdfrwt>
<totfact> 0.87193597E+05</totfact>
</mgrwt>
</event>
<event>
 4    1  0.6055396E+003  0.1379749E+03  0.7546771E-02  0.1216080E+00
         21   -1    0    0  504  501  0.00000000000E+00  0.00000000000E+00  0.99687708098E+01  0.99687708098E+01  0.00000000000E+00 0.  1.
         21   -1    0    0  501  502 -0.00000000000E+00 -0.00000000000E+00 -0.19300480269E+04  0.19300480269E+04  0.00000000000E+00 0.  1.
         21    1    1    2  503  502  0.14996818402E+02  0.13715749708E+03 -0.10597063185E+04  0.10686508153E+04  0.00000000000E+00 0.  1.
         21    1    1    2  504  503 -0.14996818402E+02 -0.13715749708E+03 -0.86037293757E+03  0.87136598239E+03  0.00000000000E+00 0.  1.
<mgrwt>
<rscale>  2 0.13797494E+03</rscale>
<asrwt>0</asrwt>
<pdfrwt beam="1">  1       21 0.15336605E-02 0.13797494E+03</pdfrwt>
<pdfrwt beam="2">  1       21 0.29692980E+00 0.13797494E+03</pdfrwt>
<totfact> 0.70855290E+04</totfact>
</mgrwt>
</event>
<event>
 4    1  0.6055396E+003  0.1263877E+03  0.7546771E-02  0.1232916E+00
         21   -1    0    0  504  501  0.00000000000E+00  0.00000000000E+00  0.82747241121E+03  0.82747241121E+03  0.00000000000E+00 0.  1.
         21   -1    0    0  503  502 -0.00000000000E+00 -0.00000000000E+00 -0.86400811431E+02  0.86400811431E+02  0.00000000000E+00 0.  1.
         21    1    1    2  503  501  0.19526459436E+02  0.12487016325E+03 -0.32131871735E+02  0.13040819556E+03  0.00000000000E+00 0.  1.
         21    1    1    2  504  502 -0.19526459436E+02 -0.12487016325E+03  0.77320347151E+03  0.78346502708E+03  0.00000000000E+00 0.  1.
<mgrwt>
<rscale>  2 0.12638766E+03</rscale>
<asrwt>0</asrwt>
<pdfrwt beam="1">  1       21 0.12730344E+00 0.12638766E+03</pdfrwt>
<pdfrwt beam="2">  1       21 0.13292433E-01 0.12638766E+03</pdfrwt>
<totfact> 0.23292291E+04</totfact>
</mgrwt>
</event>
<event>
 4    1  0.6055396E+003  0.1201659E+03  0.7546771E-02  0.1242824E+00
         21   -1    0    0  503  501  0.00000000000E+00  0.00000000000E+00  0.76624772827E+03  0.76624772827E+03  0.00000000000E+00 0. -1.
         21   -1    0    0  504  502 -0.00000000000E+00 -0.00000000000E+00 -0.12435632664E+03  0.12435632664E+03  0.00000000000E+00 0. -1.
         21    1    1    2  503  502  0.11774860381E+03  0.23981532673E+02  0.73112195602E+03  0.74093128034E+03  0.00000000000E+00 0. -1.
         21    1    1    2  504  501 -0.11774860381E+03 -0.23981532673E+02 -0.89230554395E+02  0.14967277457E+03  0.00000000000E+00 0. -1.
<mgrwt>
<rscale>  2 0.12016592E+03</rscale>
<asrwt>0</asrwt>
<pdfrwt beam="1">  1       21 0.11788426E+00 0.12016592E+03</pdfrwt>
<pdfrwt beam="2">  1       21 0.19131743E-01 0.12016592E+03</pdfrwt>
<totfact> 0.14625983E+04</totfact>
</mgrwt>
</event>
<event>
 4    1  0.6055396E+003  0.1006691E+03  0.7546771E-02  0.1278895E+00
         21   -1    0    0  503  501  0.00000000000E+00  0.00000000000E+00  0.17037770909E+02  0.17037770909E+02  0.00000000000E+00 0.  1.
         21   -1    0    0  504  502 -0.00000000000E+00 -0.00000000000E+00 -0.94368135925E+03  0.94368135925E+03  0.00000000000E+00 0.  1.
         21    1    1    2  503  502 -0.58852888111E+02  0.81673776214E+02 -0.17125293298E+03  0.19865003200E+03  0.00000000000E+00 0.  1.
         21    1    1    2  504  501  0.58852888111E+02 -0.81673776214E+02 -0.75539065536E+03  0.76206909816E+03  0.00000000000E+00 0.  1.
<mgrwt>
<rscale>  2 0.10066910E+03</rscale>
<asrwt>0</asrwt>
<pdfrwt beam="1">  1       21 0.26211942E-02 0.10066910E+03</pdfrwt>
<pdfrwt beam="2">  1       21 0.14518182E+00 0.10066910E+03</pdfrwt>
<totfact> 0.26611591E+05</totfact>
</mgrwt>
</event>
<event>
 4    1  0.6055396E+003  0.1155738E+03  0.7546771E-02  0.1250583E+00
         21   -1    0    0  504  501  0.00000000000E+00  0.00000000000E+00  0.17422341701E+02  0.17422341701E+02  0.00000000000E+00 0. -1.
         21   -1    0    0  503  502 -0.00000000000E+00 -0.00000000000E+00 -0.12806840781E+04  0.12806840781E+04  0.00000000000E+00 0. -1.
         21    1    1    2  503  501 -0.35449991022E+02 -0.11000276018E+03 -0.10428220912E+04  0.10492069495E+04  0.00000000000E+00 0. -1.
         21    1    1    2  504  502  0.35449991022E+02  0.11000276018E+03 -0.22043964520E+03  0.24889947024E+03  0.00000000000E+00 0. -1.
<mgrwt>
<rscale>  2 0.11557383E+03</rscale>
<asrwt>0</asrwt>
<pdfrwt beam="1">  1       21 0.26803594E-02 0.11557383E+03</pdfrwt>
<pdfrwt beam="2">  1       21 0.19702839E+00 0.11557383E+03</pdfrwt>
<totfact> 0.11211959E+05</totfact>
</mgrwt>
</event>
<event>
 4    1  0.6055396E+003  0.2870767E+03  0.7546771E-02  0.1091885E+00
         21   -1    0    0  502  501  0.00000000000E+00  0.00000000000E+00  0.27048445412E+03  0.27048445412E+03  0.00000000000E+00 0. -1.
         21   -1    0    0  503  502 -0.00000000000E+00 -0.00000000000E+00 -0.37974506084E+03  0.37974506084E+03  0.00000000000E+00 0. -1.
         21    1    1    2  503  504  0.24725225268E+03 -0.14587440419E+03 -0.19917099457E+03  0.34940249474E+03  0.00000000000E+00 0. -1.
         21    1    1    2  504  501 -0.24725225268E+03  0.14587440419E+03  0.89910387848E+02  0.30082702022E+03  0.00000000000E+00 0. -1.
<mgrwt>
<rscale>  2 0.28707668E+03</rscale>
<asrwt>0</asrwt>
<pdfrwt beam="1">  1       21 0.41612993E-01 0.28707668E+03</pdfrwt>
<pdfrwt beam="2">  1       21 0.58422317E-01 0.28707668E+03</pdfrwt>
<totfact> 0.14496838E+04</totfact>
</mgrwt>
</event>
<event>
 4    1  0.6055396E+003  0.1293876E+03  0.7546771E-02  0.1228367E+00
         21   -1    0    0  503  501  0.00000000000E+00  0.00000000000E+00  0.55466084678E+03  0.55466084678E+03  0.00000000000E+00 0.  1.
         21   -1    0    0  504  502 -0.00000000000E+00 -0.00000000000E+00 -0.10811123518E+03  0.10811123518E+03  0.00000000000E+00 0. -1.
         21    1    1    2  503  502  0.98739757102E+02 -0.83615916711E+02 -0.58075282873E+02  0.14182348057E+03  0.00000000000E+00 0. -1.
         21    1    1    2  504  501 -0.98739757102E+02  0.83615916711E+02  0.50462489448E+03  0.52094860139E+03  0.00000000000E+00 0.  1.
<mgrwt>
<rscale>  2 0.12938764E+03</rscale>
<asrwt>0</asrwt>
<pdfrwt beam="1">  1       21 0.85332437E-01 0.12938764E+03</pdfrwt>
<pdfrwt beam="2">  1       21 0.16632498E-01 0.12938764E+03</pdfrwt>
<totfact> 0.39943703E+04</totfact>
</mgrwt>
</event>
<event>
 4    1  0.6055396E+003  0.1060452E+03  0.7546771E-02  0.1268074E+00
         21   -1    0    0  503  501  0.00000000000E+00  0.00000000000E+00  0.31284143080E+02  0.31284143080E+02  0.00000000000E+00 0.  1.
         21   -1    0    0  504  502 -0.00000000000E+00 -0.00000000000E+00 -0.35956916293E+03  0.35956916293E+03  0.00000000000E+00 0.  1.
         21    1    1    2  503  502  0.10440875248E+03  0.18558127889E+02 -0.16744966882E+03  0.19820439777E+03  0.00000000000E+00 0.  1.
         21    1    1    2  504  501 -0.10440875248E+03 -0.18558127889E+02 -0.16083535103E+03  0.19264890825E+03  0.00000000000E+00 0.  1.
<mgrwt>
<rscale>  2 0.10604523E+03</rscale>
<asrwt>0</asrwt>
<pdfrwt beam="1">  1       21 0.48129449E-02 0.10604523E+03</pdfrwt>
<pdfrwt beam="2">  1       21 0.55318335E-01 0.10604523E+03</pdfrwt>
<totfact> 0.88648707E+05</totfact>
</mgrwt>
</event>
<event>
 4    1  0.6055396E+003  0.1899396E+03  0.7546771E-02  0.1158516E+00
         21   -1    0    0  502  501  0.00000000000E+00  0.00000000000E+00  0.96847505343E+02  0.96847505343E+02  0.00000000000E+00 0. -1.
         21   -1    0    0  503  502 -0.00000000000E+00 -0.00000000000E+00 -0.64187056374E+03  0.64187056374E+03  0.00000000000E+00 0.  1.
         21    1    1    2  503  504  0.53075922949E+02  0.18237319064E+03 -0.51178189997E+03  0.54589169933E+03  0.00000000000E+00 0.  1.
         21    1    1    2  504  501 -0.53075922949E+02 -0.18237319064E+03 -0.33241158430E+02  0.19282636976E+03  0.00000000000E+00 0. -1.
<mgrwt>
<rscale>  2 0.18993955E+03</rscale>
<asrwt>0</asrwt>
<pdfrwt beam="1">  1       21 0.14899616E-01 0.18993955E+03</pdfrwt>
<pdfrwt beam="2">  1       21 0.98749321E-01 0.18993955E+03</pdfrwt>
<totfact> 0.33636576E+04</totfact>
</mgrwt>
</event>
<event>
 4    1  0.6055396E+003  0.1172262E+03  0.7546771E-02  0.1247744E+00
         21   -1    0    0  503  501  0.00000000000E+00  0.00000000000E+00  0.60275705097E+03  0.60275705097E+03  0.00000000000E+00 0. -1.
         21   -1    0    0  504  502 -0.00000000000E+00 -0.00000000000E+00 -0.12534566809E+03  0.12534566809E+03  0.00000000000E+00 0. -1.
         21    1    1    2  503  502  0.47073426729E+01  0.11713162865E+03  0.56798902891E+03  0.57995992488E+03  0.00000000000E+00 0. -1.
         21    1    1    2  504  501 -0.47073426729E+01 -0.11713162865E+03 -0.90577646033E+02  0.14814279418E+03  0.00000000000E+00 0. -1.
<mgrwt>
<rscale>  2 0.11722618E+03</rscale>
<asrwt>0</asrwt>
<pdfrwt beam="1">  1       21 0.92731852E-01 0.11722618E+03</pdfrwt>
<pdfrwt beam="2">  1       21 0.19283949E-01 0.11722618E+03</pdfrwt>
<totfact> 0.25437646E+04</totfact>
</mgrwt>
</event>
<event>
 4    1  0.6055396E+003  0.1135267E+03  0.7546771E-02  0.1254175E+00
         21   -1    0    0  504  501  0.00000000000E+00  0.00000000000E+00  0.30306866753E+03  0.30306866753E+03  0.00000000000E+00 0. -1.
         21   -1    0    0  503  502 -0.00000000000E+00 -0.00000000000E+00 -0.33687930897E+03  0.33687930897E+03  0.00000000000E+00 0.  1.
         21    1    1    2  503  501  0.95575688324E+02  0.61266619501E+02  0.28219159591E+03  0.30417167466E+03  0.00000000000E+00 0. -1.
         21    1    1    2  504  502 -0.95575688324E+02 -0.61266619501E+02 -0.31600223735E+03  0.33577630183E+03  0.00000000000E+00 0.  1.
<mgrwt>
<rscale>  2 0.11352670E+03</rscale>
<asrwt>0</asrwt>
<pdfrwt beam="1">  1       21 0.46625949E-01 0.11352670E+03</pdfrwt>
<pdfrwt beam="2">  1       21 0.51827586E-01 0.11352670E+03</pdfrwt>
<totfact> 0.16478109E+04</totfact>
</mgrwt>
</event>
<event>
 4    1  0.6055396E+003  0.1774263E+03  0.7546771E-02  0.1170317E+00
         21   -1    0    0  503  501  0.00000000000E+00  0.00000000000E+00  0.16010314264E+03  0.16010314264E+03  0.00000000000E+00 0.  1.
         21   -1    0    0  501  502 -0.00000000000E+00 -0.00000000000E+00 -0.22795927785E+03  0.22795927785E+03  0.00000000000E+00 0.  1.
         21    1    1    2  503  504  0.17198338832E+03  0.43609728146E+02  0.38010346538E+02  0.18145214436E+03  0.00000000000E+00 0.  1.
         21    1    1    2  504  502 -0.17198338832E+03 -0.43609728146E+02 -0.10586648175E+03  0.20661027614E+03  0.00000000000E+00 0.  1.
<mgrwt>
<rscale>  2 0.17742631E+03</rscale>
<asrwt>0</asrwt>
<pdfrwt beam="1">  1       21 0.24631253E-01 0.17742631E+03</pdfrwt>
<pdfrwt beam="2">  1       21 0.35070658E-01 0.17742631E+03</pdfrwt>
<totfact> 0.12278474E+05</totfact>
</mgrwt>
</event>
<event>
 4    1  0.6055396E+003  0.1124446E+03  0.7546771E-02  0.1256109E+00
         21   -1    0    0  504  501  0.00000000000E+00  0.00000000000E+00  0.44805874955E+03  0.44805874955E+03  0.00000000000E+00 0. -1.
         21   -1    0    0  503  502 -0.00000000000E+00 -0.00000000000E+00 -0.48296668311E+02  0.48296668311E+02  0.00000000000E+00 0. -1.
         21    1    1    2  503  501 -0.10117829354E+02 -0.11198850529E+03  0.35989585660E+03  0.37705281246E+03  0.00000000000E+00 0. -1.
         21    1    1    2  504  502  0.10117829354E+02  0.11198850529E+03  0.39866224639E+02  0.11930260540E+03  0.00000000000E+00 0. -1.
<mgrwt>
<rscale>  2 0.11244463E+03</rscale>
<asrwt>0</asrwt>
<pdfrwt beam="1">  1       21 0.68932113E-01 0.11244463E+03</pdfrwt>
<pdfrwt beam="2">  1       21 0.74302569E-02 0.11244463E+03</pdfrwt>
<totfact> 0.26669295E+05</totfact>
</mgrwt>
</event>
<event>
 4    1  0.6055396E+003  0.1091181E+03  0.7546771E-02  0.1262212E+00
         21   -1    0    0  504  501  0.00000000000E+00  0.00000000000E+00  0.10386749582E+03  0.10386749582E+03  0.00000000000E+00 0. -1.
         21   -1    0    0  503  502 -0.00000000000E+00 -0.00000000000E+00 -0.43358654472E+03  0.43358654472E+03  0.00000000000E+00 0.  1.
         21    1    1    2  503  501 -0.51848238530E+02 -0.96013156525E+02 -0.39534116997E+03  0.41012364811E+03  0.00000000000E+00 0.  1.
         21    1    1    2  504  502  0.51848238530E+02  0.96013156525E+02  0.65622121069E+02  0.12733039244E+03  0.00000000000E+00 0. -1.
<mgrwt>
<rscale>  2 0.10911813E+03</rscale>
<asrwt>0</asrwt>
<pdfrwt beam="1">  1       21 0.15979615E-01 0.10911813E+03</pdfrwt>
<pdfrwt beam="2">  1       21 0.66705623E-01 0.10911813E+03</pdfrwt>
<totfact> 0.74815770E+04</totfact>
</mgrwt>
</event>
<event>
 4    1  0.6055396E+003  0.1227343E+03  0.7546771E-02  0.1238653E+00
         21   -1    0    0  504  501  0.00000000000E+00  0.00000000000E+00  0.45455270011E+03  0.45455270011E+03  0.00000000000E+00 0.  1.
         21   -1    0    0  503  502 -0.00000000000E+00 -0.00000000000E+00 -0.78455901295E+02  0.78455901295E+02  0.00000000000E+00 0.  1.
         21    1    1    2  503  501  0.20379934818E+02  0.12103042115E+03  0.39059200509E+03  0.40942132215E+03  0.00000000000E+00 0.  1.
         21    1    1    2  504  502 -0.20379934818E+02 -0.12103042115E+03 -0.14495206283E+02  0.12358727925E+03  0.00000000000E+00 0.  1.
<mgrwt>
<rscale>  2 0.12273428E+03</rscale>
<asrwt>0</asrwt>
<pdfrwt beam="1">  1       21 0.69931183E-01 0.12273428E+03</pdfrwt>
<pdfrwt beam="2">  1       21 0.12070139E-01 0.12273428E+03</pdfrwt>
<totfact> 0.11078530E+05</totfact>
</mgrwt>
</event>
<event>
 4    1  0.6055396E+003  0.1182705E+03  0.7546771E-02  0.1245978E+00
         21   -1    0    0  503  501  0.00000000000E+00  0.00000000000E+00  0.22710929845E+02  0.22710929845E+02  0.00000000000E+00 0.  1.
         21   -1    0    0  504  502 -0.00000000000E+00 -0.00000000000E+00 -0.71148847161E+03  0.71148847161E+03  0.00000000000E+00 0.  1.
         21    1    1    2  503  502  0.17520643529E+02  0.11696558902E+03 -0.20984090306E+03  0.24087574922E+03  0.00000000000E+00 0.  1.
         21    1    1    2  504  501 -0.17520643529E+02 -0.11696558902E+03 -0.47893663870E+03  0.49332365224E+03  0.00000000000E+00 0.  1.
<mgrwt>
<rscale>  2 0.11827055E+03</rscale>
<asrwt>0</asrwt>
<pdfrwt beam="1">  1       21 0.34939897E-02 0.11827055E+03</pdfrwt>
<pdfrwt beam="2">  1       21 0.10945975E+00 0.11827055E+03</pdfrwt>
<totfact> 0.33095342E+05</totfact>
</mgrwt>
</event>
<event>
 4    1  0.6055396E+003  0.1069748E+03  0.7546771E-02  0.1266277E+00
         21   -1    0    0  503  501  0.00000000000E+00  0.00000000000E+00  0.44253252876E+03  0.44253252876E+03  0.00000000000E+00 0. -1.
         21   -1    0    0  504  502 -0.00000000000E+00 -0.00000000000E+00 -0.37853557823E+02  0.37853557823E+02  0.00000000000E+00 0. -1.
         21    1    1    2  503  502  0.85832058100E+02  0.63847171334E+02  0.67134452071E+02  0.12629583580E+03  0.00000000000E+00 0. -1.
         21    1    1    2  504  501 -0.85832058100E+02 -0.63847171334E+02  0.33754451887E+03  0.35409025079E+03  0.00000000000E+00 0. -1.
<mgrwt>
<rscale>  2 0.10697478E+03</rscale>
<asrwt>0</asrwt>
<pdfrwt beam="1">  1       21 0.68081924E-01 0.10697478E+03</pdfrwt>
<pdfrwt beam="2">  1       21 0.58236246E-02 0.10697478E+03</pdfrwt>
<totfact> 0.41469732E+05</totfact>
</mgrwt>
</event>
<event>
 4    1  0.6055396E+003  0.1226861E+03  0.7546771E-02  0.1238730E+00
         21   -1    0    0  503  501  0.00000000000E+00  0.00000000000E+00  0.30482965745E+02  0.30482965745E+02  0.00000000000E+00 0. -1.
         21   -1    0    0  504  502 -0.00000000000E+00 -0.00000000000E+00 -0.10179783819E+04  0.10179783819E+04  0.00000000000E+00 0. -1.
         21    1    1    2  503  502 -0.35845488149E+02  0.11733277259E+03 -0.86993229101E+03  0.87854087525E+03  0.00000000000E+00 0. -1.
         21    1    1    2  504  501  0.35845488149E+02 -0.11733277259E+03 -0.11756312514E+03  0.16992047239E+03  0.00000000000E+00 0. -1.
<mgrwt>
<rscale>  2 0.12268610E+03</rscale>
<asrwt>0</asrwt>
<pdfrwt beam="1">  1       21 0.46896870E-02 0.12268610E+03</pdfrwt>
<pdfrwt beam="2">  1       21 0.15661206E+00 0.12268610E+03</pdfrwt>
<totfact> 0.83058610E+04</totfact>
</mgrwt>
</event>
<event>
 4    1  0.6055396E+003  0.1362944E+03  0.7546771E-02  0.1218404E+00
         21   -1    0    0  503  501  0.00000000000E+00  0.00000000000E+00  0.18605175335E+03  0.18605175335E+03  0.00000000000E+00 0. -1.
         21   -1    0    0  504  502 -0.00000000000E+00 -0.00000000000E+00 -0.13412249737E+03  0.13412249737E+03  0.00000000000E+00 0.  1.
         21    1    1    2  503  502  0.10804173256E+03 -0.83085145509E+02 -0.54966626103E+02  0.14696083615E+03  0.00000000000E+00 0.  1.
         21    1    1    2  504  501 -0.10804173256E+03  0.83085145509E+02  0.10689588208E+03  0.17321341456E+03  0.00000000000E+00 0. -1.
<mgrwt>
<rscale>  2 0.13629438E+03</rscale>
<asrwt>0</asrwt>
<pdfrwt beam="1">  1       21 0.28623347E-01 0.13629438E+03</pdfrwt>
<pdfrwt beam="2">  1       21 0.20634230E-01 0.13629438E+03</pdfrwt>
<totfact> 0.25759197E+05</totfact>
</mgrwt>
</event>
<event>
 4    1  0.6055396E+003  0.1308283E+03  0.7546771E-02  0.1226232E+00
         21   -1    0    0  503  501  0.00000000000E+00  0.00000000000E+00  0.11875629038E+02  0.11875629038E+02  0.00000000000E+00 0.  1.
         21   -1    0    0  504  502 -0.00000000000E+00 -0.00000000000E+00 -0.18126352631E+04  0.18126352631E+04  0.00000000000E+00 0.  1.
         21    1    1    2  503  502  0.75715387001E+02 -0.10669220748E+03 -0.13132932213E+04  0.13197935945E+04  0.00000000000E+00 0.  1.
         21    1    1    2  504  501 -0.75715387001E+02  0.10669220748E+03 -0.48746641274E+03  0.50471729762E+03  0.00000000000E+00 0.  1.
<mgrwt>
<rscale>  2 0.13082831E+03</rscale>
<asrwt>0</asrwt>
<pdfrwt beam="1">  1       21 0.18270191E-02 0.13082831E+03</pdfrwt>
<pdfrwt beam="2">  1       21 0.27886707E+00 0.13082831E+03</pdfrwt>
<totfact> 0.68144267E+04</totfact>
</mgrwt>
</event>
<event>
 4    1  0.6055396E+003  0.1083185E+03  0.7546771E-02  0.1263716E+00
         21   -1    0    0  503  501  0.00000000000E+00  0.00000000000E+00  0.13947040518E+03  0.13947040518E+03  0.00000000000E+00 0. -1.
         21   -1    0    0  504  502 -0.00000000000E+00 -0.00000000000E+00 -0.18446465974E+03  0.18446465974E+03  0.00000000000E+00 0. -1.
         21    1    1    2  503  502 -0.10825236951E+03  0.37849562181E+01 -0.14195324902E+03  0.17855986757E+03  0.00000000000E+00 0. -1.
         21    1    1    2  504  501  0.10825236951E+03 -0.37849562181E+01  0.96958994458E+02  0.14537519735E+03  0.00000000000E+00 0. -1.
<mgrwt>
<rscale>  2 0.10831852E+03</rscale>
<asrwt>0</asrwt>
<pdfrwt beam="1">  1       21 0.21456985E-01 0.10831852E+03</pdfrwt>
<pdfrwt beam="2">  1       21 0.28379178E-01 0.10831852E+03</pdfrwt>
<totfact> 0.24503684E+05</totfact>
</mgrwt>
</event>
<event>
 4    1  0.6055396E+003  0.1065713E+03  0.7546771E-02  0.1267054E+00
         21   -1    0    0  504  501  0.00000000000E+00  0.00000000000E+00  0.58329559661E+03  0.58329559661E+03  0.00000000000E+00 0.  1.
         21   -1    0    0  503  502 -0.00000000000E+00 -0.00000000000E+00 -0.56824701905E+03  0.56824701905E+03  0.00000000000E+00 0.  1.
         21    1    1    2  503  501  0.62968744333E+02  0.85978890486E+02  0.57334513200E+03  0.58316556205E+03  0.00000000000E+00 0.  1.
         21    1    1    2  504  502 -0.62968744333E+02 -0.85978890486E+02 -0.55829655444E+03  0.56837705361E+03  0.00000000000E+00 0.  1.
<mgrwt>
<rscale>  2 0.10657125E+03</rscale>
<asrwt>0</asrwt>
<pdfrwt beam="1">  1       21 0.89737784E-01 0.10657125E+03</pdfrwt>
<pdfrwt beam="2">  1       21 0.87422619E-01 0.10657125E+03</pdfrwt>
<totfact> 0.13210938E+03</totfact>
</mgrwt>
</event>
<event>
 4    1  0.6055396E+003  0.1047660E+03  0.7546771E-02  0.1270581E+00
         21   -1    0    0  502  501  0.00000000000E+00  0.00000000000E+00  0.11631475712E+03  0.11631475712E+03  0.00000000000E+00 0. -1.
         21   -1    0    0  503  502 -0.00000000000E+00 -0.00000000000E+00 -0.12993023082E+03  0.12993023082E+03  0.00000000000E+00 0. -1.
         21    1    1    2  503  504  0.46005627286E+02 -0.94124348175E+02 -0.71224961805E+02  0.12668427624E+03  0.00000000000E+00 0. -1.
         21    1    1    2  504  501 -0.46005627286E+02  0.94124348175E+02  0.57609488108E+02  0.11956071170E+03  0.00000000000E+00 0. -1.
<mgrwt>
<rscale>  2 0.10476598E+03</rscale>
<asrwt>0</asrwt>
<pdfrwt beam="1">  1       21 0.17894578E-01 0.10476598E+03</pdfrwt>
<pdfrwt beam="2">  1       21 0.19989266E-01 0.10476598E+03</pdfrwt>
<totfact> 0.65910124E+05</totfact>
</mgrwt>
</event>
<event>
 4    1  0.6055396E+003  0.1477007E+03  0.7546771E-02  0.1203327E+00
         21   -1    0    0  504  501  0.00000000000E+00  0.00000000000E+00  0.71861069977E+02  0.71861069977E+02  0.00000000000E+00 0. -1.
         21   -1    0    0  503  502 -0.00000000000E+00 -0.00000000000E+00 -0.35719015970E+03  0.35719015970E+03  0.00000000000E+00 0. -1.
         21    1    1    2  503  501  0.12017470502E+03 -0.85869248143E+02 -0.59553569193E+02  0.15925487467E+03  0.00000000000E+00 0. -1.
         21    1    1    2  504  502 -0.12017470502E+03  0.85869248143E+02 -0.22577552053E+03  0.26979635500E+03  0.00000000000E+00 0. -1.
<mgrwt>
<rscale>  2 0.14770067E+03</rscale>
<asrwt>0</asrwt>
<pdfrwt beam="1">  1       21 0.11055549E-01 0.14770067E+03</pdfrwt>
<pdfrwt beam="2">  1       21 0.54952332E-01 0.14770067E+03</pdfrwt>
<totfact> 0.21491584E+05</totfact>
</mgrwt>
</event>
<event>
 4    1  0.6055396E+003  0.1061611E+03  0.7546771E-02  0.1267849E+00
         21   -1    0    0  504  501  0.00000000000E+00  0.00000000000E+00  0.60429255769E+03  0.60429255769E+03  0.00000000000E+00 0. -1.
         21   -1    0    0  503  502 -0.00000000000E+00 -0.00000000000E+00 -0.27883468844E+02  0.27883468844E+02  0.00000000000E+00 0. -1.
         21    1    1    2  503  501  0.93645211492E+02  0.50007571449E+02  0.47009593442E+03  0.48193398967E+03  0.00000000000E+00 0. -1.
         21    1    1    2  504  502 -0.93645211492E+02 -0.50007571449E+02  0.10631315442E+03  0.15024203686E+03  0.00000000000E+00 0. -1.
<mgrwt>
<rscale>  2 0.10616112E+03</rscale>
<asrwt>0</asrwt>
<pdfrwt beam="1">  1       21 0.92968076E-01 0.10616112E+03</pdfrwt>
<pdfrwt beam="2">  1       21 0.42897649E-02 0.10616112E+03</pdfrwt>
<totfact> 0.34620286E+05</totfact>
</mgrwt>
</event>
<event>
 4    1  0.6055396E+003  0.1335139E+03  0.7546771E-02  0.1222333E+00
         21   -1    0    0  503  501  0.00000000000E+00  0.00000000000E+00  0.29375890468E+03  0.29375890468E+03  0.00000000000E+00 0.  1.
         21   -1    0    0  504  502 -0.00000000000E+00 -0.00000000000E+00 -0.23602175720E+03  0.23602175720E+03  0.00000000000E+00 0.  1.
         21    1    1    2  503  502  0.13316443426E+03 -0.96533174558E+01 -0.19944407340E+03  0.24000810717E+03  0.00000000000E+00 0.  1.
         21    1    1    2  504  501 -0.13316443426E+03  0.96533174558E+01  0.25718122088E+03  0.28977255471E+03  0.00000000000E+00 0.  1.
<mgrwt>
<rscale>  2 0.13351387E+03</rscale>
<asrwt>0</asrwt>
<pdfrwt beam="1">  1       21 0.45193678E-01 0.13351387E+03</pdfrwt>
<pdfrwt beam="2">  1       21 0.36311039E-01 0.13351387E+03</pdfrwt>
<totfact> 0.35493359E+04</totfact>
</mgrwt>
</event>
<event>
 4    1  0.6055396E+003  0.1017854E+03  0.7546771E-02  0.1276586E+00
         21   -1    0    0  503  501  0.00000000000E+00  0.00000000000E+00  0.10529691832E+04  0.10529691832E+04  0.00000000000E+00 0.  1.
         21   -1    0    0  504  502 -0.00000000000E+00 -0.00000000000E+00 -0.16772239292E+02  0.16772239292E+02  0.00000000000E+00 0. -1.
         21    1    1    2  503  502  0.16361544177E+02 -0.10046174929E+03  0.86198758765E+03  0.86797630409E+03  0.00000000000E+00 0.  1.
         21    1    1    2  504  501 -0.16361544177E+02  0.10046174929E+03  0.17420935631E+03  0.20176511845E+03  0.00000000000E+00 0. -1.
<mgrwt>
<rscale>  2 0.10178538E+03</rscale>
<asrwt>0</asrwt>
<pdfrwt beam="1">  1       21 0.16199521E+00 0.10178538E+03</pdfrwt>
<pdfrwt beam="2">  1       21 0.25803453E-02 0.10178538E+03</pdfrwt>
<totfact> 0.20558275E+05</totfact>
</mgrwt>
</event>
<event>
 4    1  0.6055396E+003  0.1212685E+03  0.7546771E-02  0.1241019E+00
         21   -1    0    0  503  501  0.00000000000E+00  0.00000000000E+00  0.14871262242E+04  0.14871262242E+04  0.00000000000E+00 0.  1.
         21   -1    0    0  504  502 -0.00000000000E+00 -0.00000000000E+00 -0.36727470163E+02  0.36727470163E+02  0.00000000000E+00 0.  1.
         21    1    1    2  503  502  0.46199957438E+01 -0.12118045749E+03  0.13765238982E+04  0.13818553072E+04  0.00000000000E+00 0.  1.
         21    1    1    2  504  501 -0.46199957438E+01  0.12118045749E+03  0.73874855826E+02  0.14199838718E+03  0.00000000000E+00 0.  1.
<mgrwt>
<rscale>  2 0.12126849E+03</rscale>
<asrwt>0</asrwt>
<pdfrwt beam="1">  1       21 0.22878860E+00 0.12126849E+03</pdfrwt>
<pdfrwt beam="2">  1       21 0.56503812E-02 0.12126849E+03</pdfrwt>
<totfact> 0.20801275E+04</totfact>
</mgrwt>
</event>
<event>
 4    1  0.6055396E+003  0.1030300E+03  0.7546771E-02  0.1274050E+00
         21   -1    0    0  504  501  0.00000000000E+00  0.00000000000E+00  0.38921221450E+03  0.38921221450E+03  0.00000000000E+00 0.  1.
         21   -1    0    0  501  502 -0.00000000000E+00 -0.00000000000E+00 -0.50618933032E+03  0.50618933032E+03  0.00000000000E+00 0. -1.
         21    1    1    2  503  502  0.64226211749E+02  0.80561592093E+02 -0.49396127397E+03  0.50459183166E+03  0.00000000000E+00 0. -1.
         21    1    1    2  504  503 -0.64226211749E+02 -0.80561592093E+02  0.37698415815E+03  0.39080971315E+03  0.00000000000E+00 0.  1.
<mgrwt>
<rscale>  2 0.10302998E+03</rscale>
<asrwt>0</asrwt>
<pdfrwt beam="1">  1       21 0.59878803E-01 0.10302998E+03</pdfrwt>
<pdfrwt beam="2">  1       21 0.77875281E-01 0.10302998E+03</pdfrwt>
<totfact> 0.41650792E+03</totfact>
</mgrwt>
</event>
<event>
 4    1  0.6055396E+003  0.1130191E+03  0.7546771E-02  0.1255079E+00
         21   -1    0    0  503  501  0.00000000000E+00  0.00000000000E+00  0.47578845042E+02  0.47578845042E+02  0.00000000000E+00 0.  1.
         21   -1    0    0  501  502 -0.00000000000E+00 -0.00000000000E+00 -0.73843929981E+03  0.73843929981E+03  0.00000000000E+00 0.  1.
         21    1    1    2  503  504 -0.10990355051E+03  0.26353817902E+02 -0.31898386775E+02  0.11743432723E+03  0.00000000000E+00 0.  1.
         21    1    1    2  504  502  0.10990355051E+03 -0.26353817902E+02 -0.65896206799E+03  0.66858381762E+03  0.00000000000E+00 0.  1.
<mgrwt>
<rscale>  2 0.11301909E+03</rscale>
<asrwt>0</asrwt>
<pdfrwt beam="1">  1       21 0.73198225E-02 0.11301909E+03</pdfrwt>
<pdfrwt beam="2">  1       21 0.11360604E+00 0.11301909E+03</pdfrwt>
<totfact> 0.87829445E+04</totfact>
</mgrwt>
</event>
<event>
 4    1  0.6055396E+003  0.1100130E+03  0.7546771E-02  0.1260546E+00
         21   -1    0    0  502  501  0.00000000000E+00  0.00000000000E+00  0.11236857043E+03  0.11236857043E+03  0.00000000000E+00 0. -1.
         21   -1    0    0  504  502 -0.00000000000E+00 -0.00000000000E+00 -0.13854606532E+04  0.13854606532E+04  0.00000000000E+00 0. -1.
         21    1    1    2  503  501  0.92199504815E+02 -0.60017638701E+02  0.82669056559E+02  0.13761191284E+03  0.00000000000E+00 0. -1.
         21    1    1    2  504  503 -0.92199504815E+02  0.60017638701E+02 -0.13557611394E+04  0.13602173108E+04  0.00000000000E+00 0. -1.
<mgrwt>
<rscale>  2 0.11001302E+03</rscale>
<asrwt>0</asrwt>
<pdfrwt beam="1">  1       21 0.17287471E-01 0.11001302E+03</pdfrwt>
<pdfrwt beam="2">  1       21 0.21314780E+00 0.11001302E+03</pdfrwt>
<totfact> 0.37150117E+03</totfact>
</mgrwt>
</event>
<event>
 4    1  0.6055396E+003  0.1317818E+03  0.7546771E-02  0.1224836E+00
         21   -1    0    0  504  501  0.00000000000E+00  0.00000000000E+00  0.18062158565E+03  0.18062158565E+03  0.00000000000E+00 0.  1.
         21   -1    0    0  503  502 -0.00000000000E+00 -0.00000000000E+00 -0.11311103612E+03  0.11311103612E+03  0.00000000000E+00 0.  1.
         21    1    1    2  503  501  0.77052841103E+02 -0.10690794437E+03  0.90629870517E+02  0.15993818281E+03  0.00000000000E+00 0.  1.
         21    1    1    2  504  502 -0.77052841103E+02  0.10690794437E+03 -0.23119320989E+02  0.13379443895E+03  0.00000000000E+00 0.  1.
<mgrwt>
<rscale>  2 0.13178182E+03</rscale>
<asrwt>0</asrwt>
<pdfrwt beam="1">  1       21 0.27787936E-01 0.13178182E+03</pdfrwt>
<pdfrwt beam="2">  1       21 0.17401698E-01 0.13178182E+03</pdfrwt>
<totfact> 0.37342689E+05</totfact>
</mgrwt>
</event>
<event>
 4    1  0.6055396E+003  0.1197320E+03  0.7546771E-02  0.1243540E+00
         21   -1    0    0  503  501  0.00000000000E+00  0.00000000000E+00  0.32267992603E+03  0.32267992603E+03  0.00000000000E+00 0. -1.
         21   -1    0    0  504  502 -0.00000000000E+00 -0.00000000000E+00 -0.25328796573E+03  0.25328796573E+03  0.00000000000E+00 0. -1.
         21    1    1    2  503  502  0.11225289936E+03 -0.41653675593E+02  0.29620670754E+03  0.31949046260E+03  0.00000000000E+00 0. -1.
         21    1    1    2  504  501 -0.11225289936E+03  0.41653675593E+02 -0.22681474724E+03  0.25647742916E+03  0.00000000000E+00 0. -1.
<mgrwt>
<rscale>  2 0.11973196E+03</rscale>
<asrwt>0</asrwt>
<pdfrwt beam="1">  1       21 0.49643065E-01 0.11973196E+03</pdfrwt>
<pdfrwt beam="2">  1       21 0.38967379E-01 0.11973196E+03</pdfrwt>
<totfact> 0.25703173E+04</totfact>
</mgrwt>
</event>
<event>
 4    1  0.6055396E+003  0.1187407E+03  0.7546771E-02  0.1245189E+00
         21   -1    0    0  502  501  0.00000000000E+00  0.00000000000E+00  0.23319089589E+04  0.23319089589E+04  0.00000000000E+00 0.  1.
         21   -1    0    0  504  502 -0.00000000000E+00 -0.00000000000E+00 -0.57235181327E+02  0.57235181327E+02  0.00000000000E+00 0.  1.
         21    1    1    2  503  501 -0.11360899899E+03  0.34530278759E+02  0.22670515972E+04  0.22701590889E+04  0.00000000000E+00 0.  1.
         21    1    1    2  504  503  0.11360899899E+03 -0.34530278759E+02  0.76221804235E+01  0.11898505132E+03  0.00000000000E+00 0.  1.
<mgrwt>
<rscale>  2 0.11874066E+03</rscale>
<asrwt>0</asrwt>
<pdfrwt beam="1">  1       21 0.35875515E+00 0.11874066E+03</pdfrwt>
<pdfrwt beam="2">  1       21 0.88054143E-02 0.11874066E+03</pdfrwt>
<totfact> 0.17944568E+03</totfact>
</mgrwt>
</event>
<event>
 4    1  0.6055396E+003  0.1190319E+03  0.7546771E-02  0.1244703E+00
         21   -1    0    0  503  501  0.00000000000E+00  0.00000000000E+00  0.15747832260E+03  0.15747832260E+03  0.00000000000E+00 0.  1.
         21   -1    0    0  504  502 -0.00000000000E+00 -0.00000000000E+00 -0.94940945611E+02  0.94940945611E+02  0.00000000000E+00 0.  1.
         21    1    1    2  503  502  0.11876885394E+03  0.79088022748E+01  0.23943742835E+01  0.11905596519E+03  0.00000000000E+00 0.  1.
         21    1    1    2  504  501 -0.11876885394E+03 -0.79088022748E+01  0.60143002707E+02  0.13336330302E+03  0.00000000000E+00 0.  1.
<mgrwt>
<rscale>  2 0.11903189E+03</rscale>
<asrwt>0</asrwt>
<pdfrwt beam="1">  1       21 0.24227434E-01 0.11903189E+03</pdfrwt>
<pdfrwt beam="2">  1       21 0.14606299E-01 0.11903189E+03</pdfrwt>
<totfact> 0.66549348E+05</totfact>
</mgrwt>
</event>
<event>
 4    1  0.6055396E+003  0.1062913E+03  0.7546771E-02  0.1267596E+00
         21   -1    0    0  504  501  0.00000000000E+00  0.00000000000E+00  0.47007243996E+03  0.47007243996E+03  0.00000000000E+00 0.  1.
         21   -1    0    0  503  502 -0.00000000000E+00 -0.00000000000E+00 -0.48474933029E+02  0.48474933029E+02  0.00000000000E+00 0. -1.
         21    1    1    2  503  501  0.11873846041E+02  0.10562604679E+03  0.26697694330E+02  0.10959295992E+03  0.00000000000E+00 0. -1.
         21    1    1    2  504  502 -0.11873846041E+02 -0.10562604679E+03  0.39489981260E+03  0.40895441307E+03  0.00000000000E+00 0.  1.
<mgrwt>
<rscale>  2 0.10629134E+03</rscale>
<asrwt>0</asrwt>
<pdfrwt beam="1">  1       21 0.72318834E-01 0.10629134E+03</pdfrwt>
<pdfrwt beam="2">  1       21 0.74576823E-02 0.10629134E+03</pdfrwt>
<totfact> 0.23916043E+05</totfact>
</mgrwt>
</event>
<event>
 4    1  0.6055396E+003  0.1180441E+03  0.7546771E-02  0.1246359E+00
         21   -1    0    0  502  501  0.00000000000E+00  0.00000000000E+00  0.27921693939E+03  0.27921693939E+03  0.00000000000E+00 0. -1.
         21   -1    0    0  504  502 -0.00000000000E+00 -0.00000000000E+00 -0.36962119422E+03  0.36962119422E+03  0.00000000000E+00 0.  1.
         21    1    1    2  503  501 -0.52833857482E+02 -0.10556039316E+03  0.25652199441E+03  0.28237908336E+03  0.00000000000E+00 0. -1.
         21    1    1    2  504  503  0.52833857482E+02  0.10556039316E+03 -0.34692624925E+03  0.36645905026E+03  0.00000000000E+00 0.  1.
<mgrwt>
<rscale>  2 0.11804412E+03</rscale>
<asrwt>0</asrwt>
<pdfrwt beam="1">  1       21 0.42956452E-01 0.11804412E+03</pdfrwt>
<pdfrwt beam="2">  1       21 0.56864799E-01 0.11804412E+03</pdfrwt>
<totfact> 0.15971923E+04</totfact>
</mgrwt>
</event>
<event>
 4    1  0.6055396E+003  0.1252923E+03  0.7546771E-02  0.1234613E+00
         21   -1    0    0  504  501  0.00000000000E+00  0.00000000000E+00  0.31366361127E+03  0.31366361127E+03  0.00000000000E+00 0.  1.
         21   -1    0    0  503  502 -0.00000000000E+00 -0.00000000000E+00 -0.10753794330E+03  0.10753794330E+03  0.00000000000E+00 0. -1.
         21    1    1    2  503  501 -0.11733111826E+03  0.43949517805E+02  0.25704700178E+03  0.28595683687E+03  0.00000000000E+00 0.  1.
         21    1    1    2  504  502  0.11733111826E+03 -0.43949517805E+02 -0.50921333807E+02  0.13524471770E+03  0.00000000000E+00 0. -1.
<mgrwt>
<rscale>  2 0.12529226E+03</rscale>
<asrwt>0</asrwt>
<pdfrwt beam="1">  1       21 0.48255940E-01 0.12529226E+03</pdfrwt>
<pdfrwt beam="2">  1       21 0.16544299E-01 0.12529226E+03</pdfrwt>
<totfact> 0.13763639E+05</totfact>
</mgrwt>
</event>
<event>
 4    1  0.6055396E+003  0.1121418E+03  0.7546771E-02  0.1256654E+00
         21   -1    0    0  504  501  0.00000000000E+00  0.00000000000E+00  0.13443494152E+04  0.13443494152E+04  0.00000000000E+00 0. -1.
         21   -1    0    0  503  502 -0.00000000000E+00 -0.00000000000E+00 -0.14502252708E+02  0.14502252708E+02  0.00000000000E+00 0.  1.
         21    1    1    2  503  501 -0.44849767252E+02 -0.10278271105E+03  0.26013249458E+03  0.28327495839E+03  0.00000000000E+00 0.  1.
         21    1    1    2  504  502  0.44849767252E+02  0.10278271105E+03  0.10697146680E+04  0.10755767096E+04  0.00000000000E+00 0. -1.
<mgrwt>
<rscale>  2 0.11214182E+03</rscale>
<asrwt>0</asrwt>
<pdfrwt beam="1">  1       21 0.20682289E+00 0.11214182E+03</pdfrwt>
<pdfrwt beam="2">  1       21 0.22311169E-02 0.11214182E+03</pdfrwt>
<totfact> 0.13155657E+05</totfact>
</mgrwt>
</event>
<event>
 4    1  0.6055396E+003  0.1107227E+03  0.7546771E-02  0.1259237E+00
         21   -1    0    0  504  501  0.00000000000E+00  0.00000000000E+00  0.37271047453E+02  0.37271047453E+02  0.00000000000E+00 0. -1.
         21   -1    0    0  503  502 -0.00000000000E+00 -0.00000000000E+00 -0.33500892100E+03  0.33500892100E+03  0.00000000000E+00 0. -1.
         21    1    1    2  503  501  0.67733353053E+02 -0.87588335947E+02 -0.17394532116E+03  0.20619529205E+03  0.00000000000E+00 0. -1.
         21    1    1    2  504  502 -0.67733353053E+02  0.87588335947E+02 -0.12379255239E+03  0.16608467641E+03  0.00000000000E+00 0. -1.
<mgrwt>
<rscale>  2 0.11072273E+03</rscale>
<asrwt>0</asrwt>
<pdfrwt beam="1">  1       21 0.57340074E-02 0.11072273E+03</pdfrwt>
<pdfrwt beam="2">  1       21 0.51539833E-01 0.11072273E+03</pdfrwt>
<totfact> 0.76559872E+05</totfact>
</mgrwt>
</event>
<event>
 4    1  0.6055396E+003  0.1201186E+03  0.7546771E-02  0.1242902E+00
         21   -1    0    0  503  501  0.00000000000E+00  0.00000000000E+00  0.38456257834E+03  0.38456257834E+03  0.00000000000E+00 0. -1.
         21   -1    0    0  504  502 -0.00000000000E+00 -0.00000000000E+00 -0.39056835594E+02  0.39056835594E+02  0.00000000000E+00 0. -1.
         21    1    1    2  503  502 -0.11958581627E+03  0.11301025724E+02  0.13072630421E+03  0.17753266530E+03  0.00000000000E+00 0. -1.
         21    1    1    2  504  501  0.11958581627E+03 -0.11301025724E+02  0.21477943853E+03  0.24608674863E+03  0.00000000000E+00 0. -1.
<mgrwt>
<rscale>  2 0.12011861E+03</rscale>
<asrwt>0</asrwt>
<pdfrwt beam="1">  1       21 0.59163471E-01 0.12011861E+03</pdfrwt>
<pdfrwt beam="2">  1       21 0.60087442E-02 0.12011861E+03</pdfrwt>
<totfact> 0.53017367E+05</totfact>
</mgrwt>
</event>
<event>
 4    1  0.6055396E+003  0.1086256E+03  0.7546771E-02  0.1263136E+00
         21   -1    0    0  504  501  0.00000000000E+00  0.00000000000E+00  0.67327219349E+03  0.67327219349E+03  0.00000000000E+00 0.  1.
         21   -1    0    0  503  502 -0.00000000000E+00 -0.00000000000E+00 -0.12557255726E+03  0.12557255726E+03  0.00000000000E+00 0. -1.
         21    1    1    2  503  501 -0.78375640277E+02  0.75211626585E+02  0.64435236691E+03  0.65344433772E+03  0.00000000000E+00 0.  1.
         21    1    1    2  504  502  0.78375640277E+02 -0.75211626585E+02 -0.96652730673E+02  0.14540041303E+03  0.00000000000E+00 0. -1.
<mgrwt>
<rscale>  2 0.10862564E+03</rscale>
<asrwt>0</asrwt>
<pdfrwt beam="1">  1       21 0.10358034E+00 0.10862564E+03</pdfrwt>
<pdfrwt beam="2">  1       21 0.19318855E-01 0.10862564E+03</pdfrwt>
<totfact> 0.19756976E+04</totfact>
</mgrwt>
</event>
<event>
 4    1  0.6055396E+003  0.1064306E+03  0.7546771E-02  0.1267326E+00
         21   -1    0    0  504  501  0.00000000000E+00  0.00000000000E+00  0.40745083371E+03  0.40745083371E+03  0.00000000000E+00 0.  1.
         21   -1    0    0  503  502 -0.00000000000E+00 -0.00000000000E+00 -0.22016075723E+03  0.22016075723E+03  0.00000000000E+00 0.  1.
         21    1    1    2  503  501  0.10185108967E+03 -0.30884105049E+02  0.38696951459E+03  0.40133885637E+03  0.00000000000E+00 0.  1.
         21    1    1    2  504  502 -0.10185108967E+03  0.30884105049E+02 -0.19967943811E+03  0.22627273458E+03  0.00000000000E+00 0.  1.
<mgrwt>
<rscale>  2 0.10643060E+03</rscale>
<asrwt>0</asrwt>
<pdfrwt beam="1">  1       21 0.62684744E-01 0.10643060E+03</pdfrwt>
<pdfrwt beam="2">  1       21 0.33870886E-01 0.10643060E+03</pdfrwt>
<totfact> 0.21017243E+04</totfact>
</mgrwt>
</event>
<event>
 4    1  0.6055396E+003  0.1165230E+03  0.7546771E-02  0.1248946E+00
         21   -1    0    0  504  501  0.00000000000E+00  0.00000000000E+00  0.55358605524E+02  0.55358605524E+02  0.00000000000E+00 0.  1.
         21   -1    0    0  503  502 -0.00000000000E+00 -0.00000000000E+00 -0.29395900582E+03  0.29395900582E+03  0.00000000000E+00 0.  1.
         21    1    1    2  503  501  0.10893623537E+03 -0.41358204952E+02 -0.19038532355E+03  0.22321329691E+03  0.00000000000E+00 0.  1.
         21    1    1    2  504  502 -0.10893623537E+03  0.41358204952E+02 -0.48215076747E+02  0.12610431444E+03  0.00000000000E+00 0.  1.
<mgrwt>
<rscale>  2 0.11652298E+03</rscale>
<asrwt>0</asrwt>
<pdfrwt beam="1">  1       21 0.85167085E-02 0.11652298E+03</pdfrwt>
<pdfrwt beam="2">  1       21 0.45224463E-01 0.11652298E+03</pdfrwt>
<totfact> 0.50939704E+05</totfact>
</mgrwt>
</event>
<event>
 4    1  0.6055396E+003  0.1168282E+03  0.7546771E-02  0.1248423E+00
         21   -1    0    0  503  501  0.00000000000E+00  0.00000000000E+00  0.18620649062E+03  0.18620649062E+03  0.00000000000E+00 0.  1.
         21   -1    0    0  501  502 -0.00000000000E+00 -0.00000000000E+00 -0.76721593991E+02  0.76721593991E+02  0.00000000000E+00 0.  1.
         21    1    1    2  503  504  0.58292904602E+01 -0.11668266123E+03  0.82507627403E+02  0.14302563630E+03  0.00000000000E+00 0.  1.
         21    1    1    2  504  502 -0.58292904602E+01  0.11668266123E+03  0.26977269231E+02  0.11990244832E+03  0.00000000000E+00 0.  1.
<mgrwt>
<rscale>  2 0.11682818E+03</rscale>
<asrwt>0</asrwt>
<pdfrwt beam="1">  1       21 0.28647152E-01 0.11682818E+03</pdfrwt>
<pdfrwt beam="2">  1       21 0.11803322E-01 0.11682818E+03</pdfrwt>
<totfact> 0.70769776E+05</totfact>
</mgrwt>
</event>
<event>
 4    1  0.6055396E+003  0.1093398E+03  0.7546771E-02  0.1261797E+00
         21   -1    0    0  504  501  0.00000000000E+00  0.00000000000E+00  0.15977254119E+03  0.15977254119E+03  0.00000000000E+00 0.  1.
         21   -1    0    0  501  502 -0.00000000000E+00 -0.00000000000E+00 -0.88671631750E+02  0.88671631750E+02  0.00000000000E+00 0.  1.
         21    1    1    2  503  502  0.97006525877E+02  0.50447313484E+02 -0.13535498545E+02  0.11017443996E+03  0.00000000000E+00 0.  1.
         21    1    1    2  504  503 -0.97006525877E+02 -0.50447313484E+02  0.84636407980E+02  0.13826973297E+03  0.00000000000E+00 0.  1.
<mgrwt>
<rscale>  2 0.10933983E+03</rscale>
<asrwt>0</asrwt>
<pdfrwt beam="1">  1       21 0.24580391E-01 0.10933983E+03</pdfrwt>
<pdfrwt beam="2">  1       21 0.13641790E-01 0.10933983E+03</pdfrwt>
<totfact> 0.73174559E+05</totfact>
</mgrwt>
</event>
<event>
 4    1  0.6055396E+003  0.1702491E+03  0.7546771E-02  0.1177588E+00
         21   -1    0    0  504  501  0.00000000000E+00  0.00000000000E+00  0.62371130628E+02  0.62371130628E+02  0.00000000000E+00 0.  1.
         21   -1    0    0  503  502 -0.00000000000E+00 -0.00000000000E+00 -0.49084438443E+03  0.49084438443E+03  0.00000000000E+00 0.  1.
         21    1    1    2  503  501 -0.16543528693E+03 -0.40198630773E+02 -0.15041589006E+03  0.22717769270E+03  0.00000000000E+00 0.  1.
         21    1    1    2  504  502  0.16543528693E+03  0.40198630773E+02 -0.27805736375E+03  0.32603782236E+03  0.00000000000E+00 0.  1.
<mgrwt>
<rscale>  2 0.17024912E+03</rscale>
<asrwt>0</asrwt>
<pdfrwt beam="1">  1       21 0.95955589E-02 0.17024912E+03</pdfrwt>
<pdfrwt beam="2">  1       21 0.75514518E-01 0.17024912E+03</pdfrwt>
<totfact> 0.13775633E+05</totfact>
</mgrwt>
</event>
<event>
 4    1  0.6055396E+003  0.1040031E+03  0.7546771E-02  0.1272096E+00
         21   -1    0    0  503  501  0.00000000000E+00  0.00000000000E+00  0.31680552387E+03  0.31680552387E+03  0.00000000000E+00 0. -1.
         21   -1    0    0  504  502 -0.00000000000E+00 -0.00000000000E+00 -0.34370511384E+02  0.34370511384E+02  0.00000000000E+00 0. -1.
         21    1    1    2  503  502 -0.89579689184E+02  0.52840581701E+02  0.12692746131E+03  0.16409518038E+03  0.00000000000E+00 0. -1.
         21    1    1    2  504  501  0.89579689184E+02 -0.52840581701E+02  0.15550755118E+03  0.18708085488E+03  0.00000000000E+00 0. -1.
<mgrwt>
<rscale>  2 0.10400311E+03</rscale>
<asrwt>0</asrwt>
<pdfrwt beam="1">  1       21 0.48739309E-01 0.10400311E+03</pdfrwt>
<pdfrwt beam="2">  1       21 0.52877712E-02 0.10400311E+03</pdfrwt>
<totfact> 0.98334135E+05</totfact>
</mgrwt>
</event>
<event>
 4    1  0.6055396E+003  0.1021438E+03  0.7546771E-02  0.1275851E+00
         21   -1    0    0  504  501  0.00000000000E+00  0.00000000000E+00  0.10256817970E+03  0.10256817970E+03  0.00000000000E+00 0. -1.
         21   -1    0    0  501  502 -0.00000000000E+00 -0.00000000000E+00 -0.16345063287E+03  0.16345063287E+03  0.00000000000E+00 0.  1.
         21    1    1    2  503  502 -0.40522022448E+02  0.93762088880E+02 -0.11218129815E+03  0.15171686548E+03  0.00000000000E+00 0.  1.
         21    1    1    2  504  503  0.40522022448E+02 -0.93762088880E+02  0.51298844977E+02  0.11430194710E+03  0.00000000000E+00 0. -1.
<mgrwt>
<rscale>  2 0.10214384E+03</rscale>
<asrwt>0</asrwt>
<pdfrwt beam="1">  1       21 0.15779720E-01 0.10214384E+03</pdfrwt>
<pdfrwt beam="2">  1       21 0.25146251E-01 0.10214384E+03</pdfrwt>
<totfact> 0.54015888E+05</totfact>
</mgrwt>
</event>
<event>
 4    1  0.6055396E+003  0.2084960E+03  0.7546771E-02  0.1142763E+00
         21   -1    0    0  504  501  0.00000000000E+00  0.00000000000E+00  0.25033500834E+03  0.25033500834E+03  0.00000000000E+00 0. -1.
         21   -1    0    0  503  502 -0.00000000000E+00 -0.00000000000E+00 -0.39477659645E+03  0.39477659645E+03  0.00000000000E+00 0. -1.
         21    1    1    2  503  501  0.17427759755E+03  0.11444605475E+03  0.16918629425E+03  0.26850434376E+03  0.00000000000E+00 0. -1.
         21    1    1    2  504  502 -0.17427759755E+03 -0.11444605475E+03 -0.31362788236E+03  0.37660726102E+03  0.00000000000E+00 0. -1.
<mgrwt>
<rscale>  2 0.20849600E+03</rscale>
<asrwt>0</asrwt>
<pdfrwt beam="1">  1       21 0.38513078E-01 0.20849600E+03</pdfrwt>
<pdfrwt beam="2">  1       21 0.60734861E-01 0.20849600E+03</pdfrwt>
<totfact> 0.16249749E+04</totfact>
</mgrwt>
</event>
<event>
 4    1  0.6055396E+003  0.1389592E+03  0.7546771E-02  0.1214736E+00
         21   -1    0    0  503  501  0.00000000000E+00  0.00000000000E+00  0.11043241954E+03  0.11043241954E+03  0.00000000000E+00 0.  1.
         21   -1    0    0  504  502 -0.00000000000E+00 -0.00000000000E+00 -0.17984853088E+03  0.17984853088E+03  0.00000000000E+00 0.  1.
         21    1    1    2  503  502 -0.19790627372E+02 -0.13754272502E+03 -0.58892452141E+02  0.15092379222E+03  0.00000000000E+00 0.  1.
         21    1    1    2  504  501  0.19790627372E+02  0.13754272502E+03 -0.10523659198E+02  0.13935715820E+03  0.00000000000E+00 0.  1.
<mgrwt>
<rscale>  2 0.13895924E+03</rscale>
<asrwt>0</asrwt>
<pdfrwt beam="1">  1       21 0.16989603E-01 0.13895924E+03</pdfrwt>
<pdfrwt beam="2">  1       21 0.27669004E-01 0.13895924E+03</pdfrwt>
<totfact> 0.39295256E+05</totfact>
</mgrwt>
</event>
<event>
 4    1  0.6055396E+003  0.1193307E+03  0.7546771E-02  0.1244205E+00
         21   -1    0    0  503  501  0.00000000000E+00  0.00000000000E+00  0.21082966209E+03  0.21082966209E+03  0.00000000000E+00 0.  1.
         21   -1    0    0  504  502 -0.00000000000E+00 -0.00000000000E+00 -0.12393719115E+03  0.12393719115E+03  0.00000000000E+00 0.  1.
         21    1    1    2  503  502 -0.11824723866E+03  0.16043737660E+02  0.15635652150E+03  0.19669055083E+03  0.00000000000E+00 0.  1.
         21    1    1    2  504  501  0.11824723866E+03 -0.16043737660E+02 -0.69464050564E+02  0.13807630242E+03  0.00000000000E+00 0.  1.
<mgrwt>
<rscale>  2 0.11933068E+03</rscale>
<asrwt>0</asrwt>
<pdfrwt beam="1">  1       21 0.32435333E-01 0.11933068E+03</pdfrwt>
<pdfrwt beam="2">  1       21 0.19067260E-01 0.11933068E+03</pdfrwt>
<totfact> 0.23496555E+05</totfact>
</mgrwt>
</event>
<event>
 4    1  0.6055396E+003  0.1174559E+03  0.7546771E-02  0.1247354E+00
         21   -1    0    0  504  501  0.00000000000E+00  0.00000000000E+00  0.17571794688E+04  0.17571794688E+04  0.00000000000E+00 0.  1.
         21   -1    0    0  501  502 -0.00000000000E+00 -0.00000000000E+00 -0.92012982090E+01  0.92012982090E+01  0.00000000000E+00 0.  1.
         21    1    1    2  503  502 -0.63455184555E+02  0.98839926635E+02  0.53567552431E+03  0.54840145778E+03  0.00000000000E+00 0.  1.
         21    1    1    2  504  503  0.63455184555E+02 -0.98839926635E+02  0.12123026463E+04  0.12179793093E+04  0.00000000000E+00 0.  1.
<mgrwt>
<rscale>  2 0.11745591E+03</rscale>
<asrwt>0</asrwt>
<pdfrwt beam="1">  1       21 0.27033504E+00 0.11745591E+03</pdfrwt>
<pdfrwt beam="2">  1       21 0.14155857E-02 0.11745591E+03</pdfrwt>
<totfact> 0.11610133E+05</totfact>
</mgrwt>
</event>
<event>
 4    1  0.6055396E+003  0.1457606E+03  0.7546771E-02  0.1205781E+00
         21   -1    0    0  503  501  0.00000000000E+00  0.00000000000E+00  0.59846548713E+03  0.59846548713E+03  0.00000000000E+00 0. -1.
         21   -1    0    0  504  502 -0.00000000000E+00 -0.00000000000E+00 -0.14745856335E+03  0.14745856335E+03  0.00000000000E+00 0. -1.
         21    1    1    2  503  502 -0.89218375246E+02 -0.11526587458E+03  0.55048319593E+03  0.56945402740E+03  0.00000000000E+00 0. -1.
         21    1    1    2  504  501  0.89218375246E+02  0.11526587458E+03 -0.99476272152E+02  0.17647002308E+03  0.00000000000E+00 0. -1.
<mgrwt>
<rscale>  2 0.14576056E+03</rscale>
<asrwt>0</asrwt>
<pdfrwt beam="1">  1       21 0.92071612E-01 0.14576056E+03</pdfrwt>
<pdfrwt beam="2">  1       21 0.22685933E-01 0.14576056E+03</pdfrwt>
<totfact> 0.18722940E+04</totfact>
</mgrwt>
</event>
<event>
 4    1  0.6055396E+003  0.1254912E+03  0.7546771E-02  0.1234304E+00
         21   -1    0    0  504  501  0.00000000000E+00  0.00000000000E+00  0.65688146904E+01  0.65688146904E+01  0.00000000000E+00 0.  1.
         21   -1    0    0  503  502 -0.00000000000E+00 -0.00000000000E+00 -0.25585213453E+04  0.25585213453E+04  0.00000000000E+00 0.  1.
         21    1    1    2  503  501  0.70144325034E+02  0.10405677343E+03 -0.95411965457E+03  0.96233692315E+03  0.00000000000E+00 0.  1.
         21    1    1    2  504  502 -0.70144325034E+02 -0.10405677343E+03 -0.15978328760E+04  0.16027532368E+04  0.00000000000E+00 0.  1.
<mgrwt>
<rscale>  2 0.12549119E+03</rscale>
<asrwt>0</asrwt>
<pdfrwt beam="1">  1       21 0.10105861E-02 0.12549119E+03</pdfrwt>
<pdfrwt beam="2">  1       21 0.39361897E+00 0.12549119E+03</pdfrwt>
<totfact> 0.38561247E+04</totfact>
</mgrwt>
</event>
<event>
 4    1  0.6055396E+003  0.1175955E+03  0.7546771E-02  0.1247117E+00
         21   -1    0    0  504  501  0.00000000000E+00  0.00000000000E+00  0.11605889693E+02  0.11605889693E+02  0.00000000000E+00 0. -1.
         21   -1    0    0  503  502 -0.00000000000E+00 -0.00000000000E+00 -0.18437830462E+04  0.18437830462E+04  0.00000000000E+00 0. -1.
         21    1    1    2  503  501  0.10917865948E+03  0.43689022719E+02 -0.14678606365E+04  0.14725636008E+04  0.00000000000E+00 0. -1.
         21    1    1    2  504  502 -0.10917865948E+03 -0.43689022719E+02 -0.36431651999E+03  0.38282533501E+03  0.00000000000E+00 0. -1.
<mgrwt>
<rscale>  2 0.11759554E+03</rscale>
<asrwt>0</asrwt>
<pdfrwt beam="1">  1       21 0.17855229E-02 0.11759554E+03</pdfrwt>
<pdfrwt beam="2">  1       21 0.28365871E+00 0.11759554E+03</pdfrwt>
<totfact> 0.67481207E+04</totfact>
</mgrwt>
</event>
<event>
 4    1  0.6055396E+003  0.1035188E+03  0.7546771E-02  0.1273066E+00
         21   -1    0    0  503  501  0.00000000000E+00  0.00000000000E+00  0.49263669863E+02  0.49263669863E+02  0.00000000000E+00 0. -1.
         21   -1    0    0  501  502 -0.00000000000E+00 -0.00000000000E+00 -0.59252287060E+03  0.59252287060E+03  0.00000000000E+00 0.  1.
         21    1    1    2  503  504  0.47643979849E+02  0.91903192711E+02 -0.16346728597E+02  0.10480153235E+03  0.00000000000E+00 0. -1.
         21    1    1    2  504  502 -0.47643979849E+02 -0.91903192711E+02 -0.52691247214E+03  0.53698500812E+03  0.00000000000E+00 0.  1.
<mgrwt>
<rscale>  2 0.10351882E+03</rscale>
<asrwt>0</asrwt>
<pdfrwt beam="1">  1       21 0.75790258E-02 0.10351882E+03</pdfrwt>
<pdfrwt beam="2">  1       21 0.91157369E-01 0.10351882E+03</pdfrwt>
<totfact> 0.13907012E+05</totfact>
</mgrwt>
</event>
<event>
 4    1  0.6055396E+003  0.1154717E+03  0.7546771E-02  0.1250760E+00
         21   -1    0    0  503  501  0.00000000000E+00  0.00000000000E+00  0.10799814133E+03  0.10799814133E+03  0.00000000000E+00 0. -1.
         21   -1    0    0  504  502 -0.00000000000E+00 -0.00000000000E+00 -0.14764112481E+03  0.14764112481E+03  0.00000000000E+00 0. -1.
         21    1    1    2  503  502  0.10833828779E+03  0.39956549093E+02  0.31904703226E+02  0.11979824917E+03  0.00000000000E+00 0. -1.
         21    1    1    2  504  501 -0.10833828779E+03 -0.39956549093E+02 -0.71547686708E+02  0.13584101697E+03  0.00000000000E+00 0. -1.
<mgrwt>
<rscale>  2 0.11547169E+03</rscale>
<asrwt>0</asrwt>
<pdfrwt beam="1">  1       21 0.16615099E-01 0.11547169E+03</pdfrwt>
<pdfrwt beam="2">  1       21 0.22714019E-01 0.11547169E+03</pdfrwt>
<totfact> 0.59523649E+05</totfact>
</mgrwt>
</event>
<event>
 4    1  0.6055396E+003  0.1308122E+03  0.7546771E-02  0.1226255E+00
         21   -1    0    0  503  501  0.00000000000E+00  0.00000000000E+00  0.48395688489E+02  0.48395688489E+02  0.00000000000E+00 0.  1.
         21   -1    0    0  504  502 -0.00000000000E+00 -0.00000000000E+00 -0.49838142654E+03  0.49838142654E+03  0.00000000000E+00 0.  1.
         21    1    1    2  503  502  0.98337560240E+02  0.86264502201E+02 -0.37235400516E+03  0.39466358491E+03  0.00000000000E+00 0.  1.
         21    1    1    2  504  501 -0.98337560240E+02 -0.86264502201E+02 -0.77631732891E+02  0.15211353012E+03  0.00000000000E+00 0.  1.
<mgrwt>
<rscale>  2 0.13081223E+03</rscale>
<asrwt>0</asrwt>
<pdfrwt beam="1">  1       21 0.74454910E-02 0.13081223E+03</pdfrwt>
<pdfrwt beam="2">  1       21 0.76674061E-01 0.13081223E+03</pdfrwt>
<totfact> 0.20946089E+05</totfact>
</mgrwt>
</event>
<event>
 4    1  0.6055396E+003  0.1209859E+03  0.7546771E-02  0.1241479E+00
         21   -1    0    0  503  501  0.00000000000E+00  0.00000000000E+00  0.96720234395E+02  0.96720234395E+02  0.00000000000E+00 0.  1.
         21   -1    0    0  501  502 -0.00000000000E+00 -0.00000000000E+00 -0.41791908127E+03  0.41791908127E+03  0.00000000000E+00 0.  1.
         21    1    1    2  503  504  0.11891466414E+03  0.22290834451E+02  0.44914105824E+02  0.12905369251E+03  0.00000000000E+00 0.  1.
         21    1    1    2  504  502 -0.11891466414E+03 -0.22290834451E+02 -0.36611295270E+03  0.38558562315E+03  0.00000000000E+00 0.  1.
<mgrwt>
<rscale>  2 0.12098586E+03</rscale>
<asrwt>0</asrwt>
<pdfrwt beam="1">  1       21 0.14880036E-01 0.12098586E+03</pdfrwt>
<pdfrwt beam="2">  1       21 0.64295244E-01 0.12098586E+03</pdfrwt>
<totfact> 0.91515084E+04</totfact>
</mgrwt>
</event>
<event>
 4    1  0.6055396E+003  0.1911304E+03  0.7546771E-02  0.1157446E+00
         21   -1    0    0  504  501  0.00000000000E+00  0.00000000000E+00  0.27007819543E+03  0.27007819543E+03  0.00000000000E+00 0. -1.
         21   -1    0    0  501  502 -0.00000000000E+00 -0.00000000000E+00 -0.20068531280E+03  0.20068531280E+03  0.00000000000E+00 0. -1.
         21    1    1    2  503  502  0.14445484025E+03  0.12515443741E+03 -0.99699823562E+02  0.21557107620E+03  0.00000000000E+00 0. -1.
         21    1    1    2  504  503 -0.14445484025E+03 -0.12515443741E+03  0.16909270619E+03  0.25519243203E+03  0.00000000000E+00 0. -1.
<mgrwt>
<rscale>  2 0.19113041E+03</rscale>
<asrwt>0</asrwt>
<pdfrwt beam="1">  1       21 0.41550492E-01 0.19113041E+03</pdfrwt>
<pdfrwt beam="2">  1       21 0.30874663E-01 0.19113041E+03</pdfrwt>
<totfact> 0.56226959E+04</totfact>
</mgrwt>
</event>
<event>
 4    1  0.6055396E+003  0.1553070E+03  0.7546771E-02  0.1194099E+00
         21   -1    0    0  504  501  0.00000000000E+00  0.00000000000E+00  0.40560061981E+03  0.40560061981E+03  0.00000000000E+00 0. -1.
         21   -1    0    0  503  502 -0.00000000000E+00 -0.00000000000E+00 -0.62684990494E+02  0.62684990494E+02  0.00000000000E+00 0. -1.
         21    1    1    2  503  501  0.13901458262E+02  0.15468354406E+03  0.11841515318E+03  0.19530078814E+03  0.00000000000E+00 0. -1.
         21    1    1    2  504  502 -0.13901458262E+02 -0.15468354406E+03  0.22450047614E+03  0.27298482216E+03  0.00000000000E+00 0. -1.
<mgrwt>
<rscale>  2 0.15530695E+03</rscale>
<asrwt>0</asrwt>
<pdfrwt beam="1">  1       21 0.62400094E-01 0.15530695E+03</pdfrwt>
<pdfrwt beam="2">  1       21 0.96438450E-02 0.15530695E+03</pdfrwt>
<totfact> 0.20827280E+05</totfact>
</mgrwt>
</event>
<event>
 4    1  0.6055396E+003  0.1045438E+03  0.7546771E-02  0.1271021E+00
         21   -1    0    0  504  501  0.00000000000E+00  0.00000000000E+00  0.57662522368E+02  0.57662522368E+02  0.00000000000E+00 0. -1.
         21   -1    0    0  503  502 -0.00000000000E+00 -0.00000000000E+00 -0.25813125876E+03  0.25813125876E+03  0.00000000000E+00 0. -1.
         21    1    1    2  503  501 -0.10453464017E+03 -0.13859803660E+01 -0.18841845297E+02  0.10622818398E+03  0.00000000000E+00 0. -1.
         21    1    1    2  504  502  0.10453464017E+03  0.13859803660E+01 -0.18162689109E+03  0.20956559714E+03  0.00000000000E+00 0. -1.
<mgrwt>
<rscale>  2 0.10454383E+03</rscale>
<asrwt>0</asrwt>
<pdfrwt beam="1">  1       21 0.88711571E-02 0.10454383E+03</pdfrwt>
<pdfrwt beam="2">  1       21 0.39712502E-01 0.10454383E+03</pdfrwt>
<totfact> 0.61652005E+05</totfact>
</mgrwt>
</event>
<event>
 4    1  0.6055396E+003  0.1146126E+03  0.7546771E-02  0.1252259E+00
         21   -1    0    0  503  501  0.00000000000E+00  0.00000000000E+00  0.19018862465E+03  0.19018862465E+03  0.00000000000E+00 0. -1.
         21   -1    0    0  501  502 -0.00000000000E+00 -0.00000000000E+00 -0.46382762106E+03  0.46382762106E+03  0.00000000000E+00 0.  1.
         21    1    1    2  503  504 -0.10400458837E+03 -0.48157000727E+02  0.16486034950E+03  0.20078592072E+03  0.00000000000E+00 0. -1.
         21    1    1    2  504  502  0.10400458837E+03  0.48157000727E+02 -0.43849934592E+03  0.45323032499E+03  0.00000000000E+00 0.  1.
<mgrwt>
<rscale>  2 0.11461261E+03</rscale>
<asrwt>0</asrwt>
<pdfrwt beam="1">  1       21 0.29259789E-01 0.11461261E+03</pdfrwt>
<pdfrwt beam="2">  1       21 0.71358095E-01 0.11461261E+03</pdfrwt>
<totfact> 0.20944988E+04</totfact>
</mgrwt>
</event>
<event>
 4    1  0.6055396E+003  0.1016411E+03  0.7546771E-02  0.1276882E+00
         21   -1    0    0  504  501  0.00000000000E+00  0.00000000000E+00  0.52798707207E+02  0.52798707207E+02  0.00000000000E+00 0. -1.
         21   -1    0    0  501  502 -0.00000000000E+00 -0.00000000000E+00 -0.54428711784E+03  0.54428711784E+03  0.00000000000E+00 0. -1.
         21    1    1    2  503  502  0.63087348721E+01  0.10144510117E+03 -0.48467362066E+03  0.49521654582E+03  0.00000000000E+00 0. -1.
         21    1    1    2  504  503 -0.63087348721E+01 -0.10144510117E+03 -0.68147899697E+01  0.10186927923E+03  0.00000000000E+00 0. -1.
<mgrwt>
<rscale>  2 0.10164108E+03</rscale>
<asrwt>0</asrwt>
<pdfrwt beam="1">  1       21 0.81228778E-02 0.10164108E+03</pdfrwt>
<pdfrwt beam="2">  1       21 0.83736482E-01 0.10164108E+03</pdfrwt>
<totfact> 0.14971607E+05</totfact>
</mgrwt>
</event>
<event>
 4    1  0.6055396E+003  0.1481698E+03  0.7546771E-02  0.1202740E+00
         21   -1    0    0  503  501  0.00000000000E+00  0.00000000000E+00  0.43738702225E+02  0.43738702225E+02  0.00000000000E+00 0. -1.
         21   -1    0    0  504  502 -0.00000000000E+00 -0.00000000000E+00 -0.50252844172E+03  0.50252844172E+03  0.00000000000E+00 0. -1.
         21    1    1    2  503  502 -0.11562335939E+03  0.92658194347E+02 -0.23872350077E+03  0.28096834703E+03  0.00000000000E+00 0. -1.
         21    1    1    2  504  501  0.11562335939E+03 -0.92658194347E+02 -0.22006623872E+03  0.26529879691E+03  0.00000000000E+00 0. -1.
<mgrwt>
<rscale>  2 0.14816984E+03</rscale>
<asrwt>0</asrwt>
<pdfrwt beam="1">  1       21 0.67290313E-02 0.14816984E+03</pdfrwt>
<pdfrwt beam="2">  1       21 0.77312066E-01 0.14816984E+03</pdfrwt>
<totfact> 0.24349854E+05</totfact>
</mgrwt>
</event>
<event>
 4    1  0.6055396E+003  0.1623988E+03  0.7546771E-02  0.1186015E+00
         21   -1    0    0  504  501  0.00000000000E+00  0.00000000000E+00  0.21583478021E+03  0.21583478021E+03  0.00000000000E+00 0. -1.
         21   -1    0    0  503  502 -0.00000000000E+00 -0.00000000000E+00 -0.13302692401E+03  0.13302692401E+03  0.00000000000E+00 0. -1.
         21    1    1    2  503  501  0.16007091117E+03  0.27398315831E+02  0.91184393820E+02  0.18624703485E+03  0.00000000000E+00 0. -1.
         21    1    1    2  504  502 -0.16007091117E+03 -0.27398315831E+02 -0.83765376252E+01  0.16261466938E+03  0.00000000000E+00 0. -1.
<mgrwt>
<rscale>  2 0.16239878E+03</rscale>
<asrwt>0</asrwt>
<pdfrwt beam="1">  1       21 0.33205351E-01 0.16239878E+03</pdfrwt>
<pdfrwt beam="2">  1       21 0.20465681E-01 0.16239878E+03</pdfrwt>
<totfact> 0.19484352E+05</totfact>
</mgrwt>
</event>
<event>
 4    1  0.6055396E+003  0.1005257E+03  0.7546771E-02  0.1279194E+00
         21   -1    0    0  502  501  0.00000000000E+00  0.00000000000E+00  0.63545555718E+03  0.63545555718E+03  0.00000000000E+00 0. -1.
         21   -1    0    0  504  502 -0.00000000000E+00 -0.00000000000E+00 -0.22964518858E+02  0.22964518858E+02  0.00000000000E+00 0. -1.
         21    1    1    2  503  501  0.95590016430E+02  0.31112162118E+02  0.48880511880E+03  0.49903493068E+03  0.00000000000E+00 0. -1.
         21    1    1    2  504  503 -0.95590016430E+02 -0.31112162118E+02  0.12368591952E+03  0.15938514535E+03  0.00000000000E+00 0. -1.
<mgrwt>
<rscale>  2 0.10052571E+03</rscale>
<asrwt>0</asrwt>
<pdfrwt beam="1">  1       21 0.97762380E-01 0.10052571E+03</pdfrwt>
<pdfrwt beam="2">  1       21 0.35330034E-02 0.10052571E+03</pdfrwt>
<totfact> 0.42530039E+05</totfact>
</mgrwt>
</event>
<event>
 4    1  0.6055396E+003  0.1103455E+03  0.7546771E-02  0.1259931E+00
         21   -1    0    0  503  501  0.00000000000E+00  0.00000000000E+00  0.74002140220E+02  0.74002140220E+02  0.00000000000E+00 0.  1.
         21   -1    0    0  501  502 -0.00000000000E+00 -0.00000000000E+00 -0.45118710639E+03  0.45118710639E+03  0.00000000000E+00 0.  1.
         21    1    1    2  503  504 -0.10545161434E+03  0.32497391800E+02  0.20714251469E+02  0.11227289813E+03  0.00000000000E+00 0.  1.
         21    1    1    2  504  502  0.10545161434E+03 -0.32497391800E+02 -0.39789921764E+03  0.41291634847E+03  0.00000000000E+00 0.  1.
<mgrwt>
<rscale>  2 0.11034547E+03</rscale>
<asrwt>0</asrwt>
<pdfrwt beam="1">  1       21 0.11384944E-01 0.11034547E+03</pdfrwt>
<pdfrwt beam="2">  1       21 0.69413403E-01 0.11034547E+03</pdfrwt>
<totfact> 0.12546865E+05</totfact>
</mgrwt>
</event>
<event>
 4    1  0.6055396E+003  0.1938917E+03  0.7546771E-02  0.1154997E+00
         21   -1    0    0  504  501  0.00000000000E+00  0.00000000000E+00  0.16663238793E+04  0.16663238793E+04  0.00000000000E+00 0.  1.
         21   -1    0    0  503  502 -0.00000000000E+00 -0.00000000000E+00 -0.97449335277E+02  0.97449335277E+02  0.00000000000E+00 0. -1.
         21    1    1    2  503  501 -0.14484782015E+03  0.12889176541E+03  0.11346807755E+02  0.19422339777E+03  0.00000000000E+00 0. -1.
         21    1    1    2  504  502  0.14484782015E+03 -0.12889176541E+03  0.15575277363E+04  0.15695498168E+04  0.00000000000E+00 0.  1.
<mgrwt>
<rscale>  2 0.19389167E+03</rscale>
<asrwt>0</asrwt>
<pdfrwt beam="1">  1       21 0.25635750E+00 0.19389167E+03</pdfrwt>
<pdfrwt beam="2">  1       21 0.14992207E-01 0.19389167E+03</pdfrwt>
<totfact> 0.23927467E+03</totfact>
</mgrwt>
</event>
<event>
 4    1  0.6055396E+003  0.2957537E+03  0.7546771E-02  0.1087383E+00
         21   -1    0    0  502  501  0.00000000000E+00  0.00000000000E+00  0.47186373089E+02  0.47186373089E+02  0.00000000000E+00 0.  1.
         21   -1    0    0  504  502 -0.00000000000E+00 -0.00000000000E+00 -0.32713342613E+04  0.32713342613E+04  0.00000000000E+00 0.  1.
         21    1    1    2  503  501 -0.13389991379E+03 -0.26370641597E+03 -0.51980067280E+03  0.59804932922E+03  0.00000000000E+00 0.  1.
         21    1    1    2  504  503  0.13389991379E+03  0.26370641597E+03 -0.27043472154E+04  0.27204713052E+04  0.00000000000E+00 0.  1.
<mgrwt>
<rscale>  2 0.29575372E+03</rscale>
<asrwt>0</asrwt>
<pdfrwt beam="1">  1       21 0.72594405E-02 0.29575372E+03</pdfrwt>
<pdfrwt beam="2">  1       21 0.50328230E+00 0.29575372E+03</pdfrwt>
<totfact> 0.22093235E+02</totfact>
</mgrwt>
</event>
<event>
 4    1  0.6055396E+003  0.1034827E+03  0.7546771E-02  0.1273138E+00
         21   -1    0    0  504  501  0.00000000000E+00  0.00000000000E+00  0.16670652433E+03  0.16670652433E+03  0.00000000000E+00 0. -1.
         21   -1    0    0  503  502 -0.00000000000E+00 -0.00000000000E+00 -0.28876042368E+03  0.28876042368E+03  0.00000000000E+00 0.  1.
         21    1    1    2  503  501  0.38122687255E+02 -0.96204656185E+02  0.13978482065E+03  0.17392087638E+03  0.00000000000E+00 0. -1.
         21    1    1    2  504  502 -0.38122687255E+02  0.96204656185E+02 -0.26183872001E+03  0.28154607163E+03  0.00000000000E+00 0.  1.
<mgrwt>
<rscale>  2 0.10348273E+03</rscale>
<asrwt>0</asrwt>
<pdfrwt beam="1">  1       21 0.25647158E-01 0.10348273E+03</pdfrwt>
<pdfrwt beam="2">  1       21 0.44424680E-01 0.10348273E+03</pdfrwt>
<totfact> 0.73134229E+04</totfact>
</mgrwt>
</event>
<event>
 4    1  0.6055396E+003  0.1002912E+03  0.7546771E-02  0.1279685E+00
         21   -1    0    0  502  501  0.00000000000E+00  0.00000000000E+00  0.12212674420E+02  0.12212674420E+02  0.00000000000E+00 0.  1.
         21   -1    0    0  503  502 -0.00000000000E+00 -0.00000000000E+00 -0.10085476452E+04  0.10085476452E+04  0.00000000000E+00 0.  1.
         21    1    1    2  503  504  0.97690076351E+02  0.22693016973E+02 -0.71672880529E+03  0.72371161685E+03  0.00000000000E+00 0.  1.
         21    1    1    2  504  501 -0.97690076351E+02 -0.22693016973E+02 -0.27960616553E+03  0.29704870280E+03  0.00000000000E+00 0.  1.
<mgrwt>
<rscale>  2 0.10029120E+03</rscale>
<asrwt>0</asrwt>
<pdfrwt beam="1">  1       21 0.18788727E-02 0.10029120E+03</pdfrwt>
<pdfrwt beam="2">  1       21 0.15516120E+00 0.10029120E+03</pdfrwt>
<totfact> 0.38374691E+05</totfact>
</mgrwt>
</event>
<event>
 4    1  0.6055396E+003  0.1036373E+03  0.7546771E-02  0.1272828E+00
         21   -1    0    0  503  501  0.00000000000E+00  0.00000000000E+00  0.24014669291E+03  0.24014669291E+03  0.00000000000E+00 0.  1.
         21   -1    0    0  504  502 -0.00000000000E+00 -0.00000000000E+00 -0.53361782293E+02  0.53361782293E+02  0.00000000000E+00 0.  1.
         21    1    1    2  503  502  0.86965451119E+02 -0.56371173320E+02  0.15243118740E+03  0.18432570564E+03  0.00000000000E+00 0.  1.
         21    1    1    2  504  501 -0.86965451119E+02  0.56371173320E+02  0.34353723221E+02  0.10918276956E+03  0.00000000000E+00 0.  1.
<mgrwt>
<rscale>  2 0.10363734E+03</rscale>
<asrwt>0</asrwt>
<pdfrwt beam="1">  1       21 0.36945644E-01 0.10363734E+03</pdfrwt>
<pdfrwt beam="2">  1       21 0.82095051E-02 0.10363734E+03</pdfrwt>
<totfact> 0.81249070E+05</totfact>
</mgrwt>
</event>
<event>
 4    1  0.6055396E+003  0.1332687E+03  0.7546771E-02  0.1222685E+00
         21   -1    0    0  502  501  0.00000000000E+00  0.00000000000E+00  0.80042400180E+02  0.80042400180E+02  0.00000000000E+00 0.  1.
         21   -1    0    0  503  502 -0.00000000000E+00 -0.00000000000E+00 -0.47041582069E+03  0.47041582069E+03  0.00000000000E+00 0.  1.
         21    1    1    2  503  504  0.82391346187E+02  0.10474828838E+03 -0.39523734462E+03  0.41710082286E+03  0.00000000000E+00 0.  1.
         21    1    1    2  504  501 -0.82391346187E+02 -0.10474828838E+03  0.48639241148E+01  0.13335739801E+03  0.00000000000E+00 0.  1.
<mgrwt>
<rscale>  2 0.13326867E+03</rscale>
<asrwt>0</asrwt>
<pdfrwt beam="1">  1       21 0.12314216E-01 0.13326867E+03</pdfrwt>
<pdfrwt beam="2">  1       21 0.72371662E-01 0.13326867E+03</pdfrwt>
<totfact> 0.98764863E+04</totfact>
</mgrwt>
</event>
<event>
 4    1  0.6055396E+003  0.1059439E+03  0.7546771E-02  0.1268271E+00
         21   -1    0    0  503  501  0.00000000000E+00  0.00000000000E+00  0.24010998713E+02  0.24010998713E+02  0.00000000000E+00 0. -1.
         21   -1    0    0  504  502 -0.00000000000E+00 -0.00000000000E+00 -0.46950898803E+03  0.46950898803E+03  0.00000000000E+00 0. -1.
         21    1    1    2  503  502 -0.86051302148E+02  0.61800358398E+02 -0.20643599942E+03  0.23203433529E+03  0.00000000000E+00 0. -1.
         21    1    1    2  504  501  0.86051302148E+02 -0.61800358398E+02 -0.23906198990E+03  0.26148565145E+03  0.00000000000E+00 0. -1.
<mgrwt>
<rscale>  2 0.10594390E+03</rscale>
<asrwt>0</asrwt>
<pdfrwt beam="1">  1       21 0.36940000E-02 0.10594390E+03</pdfrwt>
<pdfrwt beam="2">  1       21 0.72232149E-01 0.10594390E+03</pdfrwt>
<totfact> 0.77852588E+05</totfact>
</mgrwt>
</event>
<event>
 4    1  0.6055396E+003  0.1347327E+03  0.7546771E-02  0.1220598E+00
         21   -1    0    0  503  501  0.00000000000E+00  0.00000000000E+00  0.91591800461E+02  0.91591800461E+02  0.00000000000E+00 0.  1.
         21   -1    0    0  501  502 -0.00000000000E+00 -0.00000000000E+00 -0.28832767172E+03  0.28832767172E+03  0.00000000000E+00 0. -1.
         21    1    1    2  503  504  0.11841926370E+03  0.64263284160E+02  0.78415575063E+01  0.13496066735E+03  0.00000000000E+00 0.  1.
         21    1    1    2  504  502 -0.11841926370E+03 -0.64263284160E+02 -0.20457742877E+03  0.24495880484E+03  0.00000000000E+00 0. -1.
<mgrwt>
<rscale>  2 0.13473267E+03</rscale>
<asrwt>0</asrwt>
<pdfrwt beam="1">  1       21 0.14091046E-01 0.13473267E+03</pdfrwt>
<pdfrwt beam="2">  1       21 0.44358103E-01 0.13473267E+03</pdfrwt>
<totfact> 0.21778746E+05</totfact>
</mgrwt>
</event>
<event>
 4    1  0.6055396E+003  0.1652484E+03  0.7546771E-02  0.1182896E+00
         21   -1    0    0  504  501  0.00000000000E+00  0.00000000000E+00  0.83679521290E+02  0.83679521290E+02  0.00000000000E+00 0. -1.
         21   -1    0    0  503  502 -0.00000000000E+00 -0.00000000000E+00 -0.79351117534E+03  0.79351117534E+03  0.00000000000E+00 0. -1.
         21    1    1    2  503  501 -0.14828909515E+03 -0.72920392334E+02 -0.69145119583E+03  0.71092319949E+03  0.00000000000E+00 0. -1.
         21    1    1    2  504  502  0.14828909515E+03  0.72920392334E+02 -0.18380458213E+02  0.16626749713E+03  0.00000000000E+00 0. -1.
<mgrwt>
<rscale>  2 0.16524842E+03</rscale>
<asrwt>0</asrwt>
<pdfrwt beam="1">  1       21 0.12873773E-01 0.16524842E+03</pdfrwt>
<pdfrwt beam="2">  1       21 0.12207864E+00 0.16524842E+03</pdfrwt>
<totfact> 0.26629739E+04</totfact>
</mgrwt>
</event>
<event>
 4    1  0.6055396E+003  0.1067665E+03  0.7546771E-02  0.1266678E+00
         21   -1    0    0  502  501  0.00000000000E+00  0.00000000000E+00  0.21289728808E+02  0.21289728808E+02  0.00000000000E+00 0.  1.
         21   -1    0    0  504  502 -0.00000000000E+00 -0.00000000000E+00 -0.69957342700E+03  0.69957342700E+03  0.00000000000E+00 0.  1.
         21    1    1    2  503  501 -0.81934421582E+02 -0.68453172155E+02 -0.16455059589E+03  0.19615296283E+03  0.00000000000E+00 0.  1.
         21    1    1    2  504  503  0.81934421582E+02  0.68453172155E+02 -0.51373310230E+03  0.52471019298E+03  0.00000000000E+00 0.  1.
<mgrwt>
<rscale>  2 0.10676650E+03</rscale>
<asrwt>0</asrwt>
<pdfrwt beam="1">  1       21 0.32753433E-02 0.10676650E+03</pdfrwt>
<pdfrwt beam="2">  1       21 0.10762667E+00 0.10676650E+03</pdfrwt>
<totfact> 0.38410608E+05</totfact>
</mgrwt>
</event>
<event>
 4    1  0.6055396E+003  0.1006534E+03  0.7546771E-02  0.1278928E+00
         21   -1    0    0  504  501  0.00000000000E+00  0.00000000000E+00  0.13848834106E+04  0.13848834106E+04  0.00000000000E+00 0. -1.
         21   -1    0    0  501  502 -0.00000000000E+00 -0.00000000000E+00 -0.67855970583E+02  0.67855970583E+02  0.00000000000E+00 0.  1.
         21    1    1    2  503  502  0.66875021323E+02 -0.75225187674E+02 -0.27585019506E+02  0.10436489179E+03  0.00000000000E+00 0.  1.
         21    1    1    2  504  503 -0.66875021323E+02  0.75225187674E+02  0.13446124596E+04  0.13483744894E+04  0.00000000000E+00 0. -1.
<mgrwt>
<rscale>  2 0.10065335E+03</rscale>
<asrwt>0</asrwt>
<pdfrwt beam="1">  1       21 0.21305897E+00 0.10065335E+03</pdfrwt>
<pdfrwt beam="2">  1       21 0.10439381E-01 0.10065335E+03</pdfrwt>
<totfact> 0.92582992E+03</totfact>
</mgrwt>
</event>
<event>
 4    1  0.6055396E+003  0.1366726E+03  0.7546771E-02  0.1217878E+00
         21   -1    0    0  502  501  0.00000000000E+00  0.00000000000E+00  0.53179407611E+02  0.53179407611E+02  0.00000000000E+00 0. -1.
         21   -1    0    0  504  502 -0.00000000000E+00 -0.00000000000E+00 -0.67970920444E+03  0.67970920444E+03  0.00000000000E+00 0.  1.
         21    1    1    2  503  501 -0.80242868324E+02 -0.11063665066E+03 -0.58531649043E+02  0.14867864785E+03  0.00000000000E+00 0. -1.
         21    1    1    2  504  503  0.80242868324E+02  0.11063665066E+03 -0.56799814778E+03  0.58420996420E+03  0.00000000000E+00 0.  1.
<mgrwt>
<rscale>  2 0.13667255E+03</rscale>
<asrwt>0</asrwt>
<pdfrwt beam="1">  1       21 0.81814477E-02 0.13667255E+03</pdfrwt>
<pdfrwt beam="2">  1       21 0.10457064E+00 0.13667255E+03</pdfrwt>
<totfact> 0.87308350E+04</totfact>
</mgrwt>
</event>
<event>
 4    1  0.6055396E+003  0.1387837E+03  0.7546771E-02  0.1214975E+00
         21   -1    0    0  504  501  0.00000000000E+00  0.00000000000E+00  0.45301479245E+02  0.45301479245E+02  0.00000000000E+00 0. -1.
         21   -1    0    0  503  502 -0.00000000000E+00 -0.00000000000E+00 -0.66213267725E+03  0.66213267725E+03  0.00000000000E+00 0. -1.
         21    1    1    2  503  501 -0.83072569156E+02 -0.11117489457E+03 -0.96812563145E+02  0.16921460136E+03  0.00000000000E+00 0. -1.
         21    1    1    2  504  502  0.83072569156E+02  0.11117489457E+03 -0.52001863486E+03  0.53821955513E+03  0.00000000000E+00 0. -1.
<mgrwt>
<rscale>  2 0.13878368E+03</rscale>
<asrwt>0</asrwt>
<pdfrwt beam="1">  1       21 0.69694585E-02 0.13878368E+03</pdfrwt>
<pdfrwt beam="2">  1       21 0.10186656E+00 0.13878368E+03</pdfrwt>
<totfact> 0.12230291E+05</totfact>
</mgrwt>
</event>
<event>
 4    1  0.6055396E+003  0.1493278E+03  0.7546771E-02  0.1201301E+00
         21   -1    0    0  503  501  0.00000000000E+00  0.00000000000E+00  0.10755419439E+03  0.10755419439E+03  0.00000000000E+00 0.  1.
         21   -1    0    0  501  502 -0.00000000000E+00 -0.00000000000E+00 -0.72897677097E+03  0.72897677097E+03  0.00000000000E+00 0. -1.
         21    1    1    2  503  504  0.13381711094E+03  0.66270560186E+02  0.43110855496E+02  0.15542635616E+03  0.00000000000E+00 0.  1.
         21    1    1    2  504  502 -0.13381711094E+03 -0.66270560186E+02 -0.66453343208E+03  0.68110460920E+03  0.00000000000E+00 0. -1.
<mgrwt>
<rscale>  2 0.14932785E+03</rscale>
<asrwt>0</asrwt>
<pdfrwt beam="1">  1       21 0.16546799E-01 0.14932785E+03</pdfrwt>
<pdfrwt beam="2">  1       21 0.11215027E+00 0.14932785E+03</pdfrwt>
<totfact> 0.21020817E+04</totfact>
</mgrwt>
</event>
<event>
 4    1  0.6055396E+003  0.1271350E+03  0.7546771E-02  0.1231770E+00
         21   -1    0    0  503  501  0.00000000000E+00  0.00000000000E+00  0.12610810884E+03  0.12610810884E+03  0.00000000000E+00 0.  1.
         21   -1    0    0  504  502 -0.00000000000E+00 -0.00000000000E+00 -0.12886982232E+03  0.12886982232E+03  0.00000000000E+00 0.  1.
         21    1    1    2  503  502  0.95274690433E+02  0.84178581230E+02 -0.10774458577E+02  0.12759070943E+03  0.00000000000E+00 0.  1.
         21    1    1    2  504  501 -0.95274690433E+02 -0.84178581230E+02  0.80127450999E+01  0.12738722173E+03  0.00000000000E+00 0.  1.
<mgrwt>
<rscale>  2 0.12713497E+03</rscale>
<asrwt>0</asrwt>
<pdfrwt beam="1">  1       21 0.19401248E-01 0.12713497E+03</pdfrwt>
<pdfrwt beam="2">  1       21 0.19826126E-01 0.12713497E+03</pdfrwt>
<totfact> 0.57694265E+05</totfact>
</mgrwt>
</event>
<event>
 4    1  0.6055396E+003  0.1043785E+03  0.7546771E-02  0.1271349E+00
         21   -1    0    0  504  501  0.00000000000E+00  0.00000000000E+00  0.17046799727E+02  0.17046799727E+02  0.00000000000E+00 0. -1.
         21   -1    0    0  503  502 -0.00000000000E+00 -0.00000000000E+00 -0.24893057568E+04  0.24893057568E+04  0.00000000000E+00 0.  1.
         21    1    1    2  503  501 -0.10389059465E+03 -0.10080138145E+02 -0.15573762442E+03  0.18748085903E+03  0.00000000000E+00 0. -1.
         21    1    1    2  504  502  0.10389059465E+03  0.10080138145E+02 -0.23165213326E+04  0.23188716975E+04  0.00000000000E+00 0.  1.
<mgrwt>
<rscale>  2 0.10437847E+03</rscale>
<asrwt>0</asrwt>
<pdfrwt beam="1">  1       21 0.26225857E-02 0.10437847E+03</pdfrwt>
<pdfrwt beam="2">  1       21 0.38296995E+00 0.10437847E+03</pdfrwt>
<totfact> 0.10143262E+04</totfact>
</mgrwt>
</event>
<event>
 4    1  0.6055396E+003  0.1127067E+03  0.7546771E-02  0.1255638E+00
         21   -1    0    0  503  501  0.00000000000E+00  0.00000000000E+00  0.66528624035E+03  0.66528624035E+03  0.00000000000E+00 0.  1.
         21   -1    0    0  504  502 -0.00000000000E+00 -0.00000000000E+00 -0.62538954595E+03  0.62538954595E+03  0.00000000000E+00 0.  1.
         21    1    1    2  503  502  0.99341032490E+02  0.53236799030E+02 -0.61546179551E+03  0.62569642738E+03  0.00000000000E+00 0.  1.
         21    1    1    2  504  501 -0.99341032490E+02 -0.53236799030E+02  0.65535848990E+03  0.66497935893E+03  0.00000000000E+00 0.  1.
<mgrwt>
<rscale>  2 0.11270669E+03</rscale>
<asrwt>0</asrwt>
<pdfrwt beam="1">  1       21 0.10235173E+00 0.11270669E+03</pdfrwt>
<pdfrwt beam="2">  1       21 0.96213776E-01 0.11270669E+03</pdfrwt>
<totfact> 0.77562504E+02</totfact>
</mgrwt>
</event>
<event>
 4    1  0.6055396E+003  0.1022495E+03  0.7546771E-02  0.1275635E+00
         21   -1    0    0  503  501  0.00000000000E+00  0.00000000000E+00  0.21408582354E+03  0.21408582354E+03  0.00000000000E+00 0. -1.
         21   -1    0    0  504  502 -0.00000000000E+00 -0.00000000000E+00 -0.68613669323E+02  0.68613669323E+02  0.00000000000E+00 0.  1.
         21    1    1    2  503  502 -0.97730382715E+02  0.30062059601E+02 -0.31539056376E+01  0.10229810484E+03  0.00000000000E+00 0.  1.
         21    1    1    2  504  501  0.97730382715E+02 -0.30062059601E+02  0.14862605986E+03  0.18040138803E+03  0.00000000000E+00 0. -1.
<mgrwt>
<rscale>  2 0.10224947E+03</rscale>
<asrwt>0</asrwt>
<pdfrwt beam="1">  1       21 0.32936280E-01 0.10224947E+03</pdfrwt>
<pdfrwt beam="2">  1       21 0.10555949E-01 0.10224947E+03</pdfrwt>
<totfact> 0.65789698E+05</totfact>
</mgrwt>
</event>
<event>
 4    1  0.6055396E+003  0.1539027E+03  0.7546771E-02  0.1195758E+00
         21   -1    0    0  504  501  0.00000000000E+00  0.00000000000E+00  0.29970578679E+02  0.29970578679E+02  0.00000000000E+00 0. -1.
         21   -1    0    0  503  502 -0.00000000000E+00 -0.00000000000E+00 -0.85238540132E+03  0.85238540132E+03  0.00000000000E+00 0. -1.
         21    1    1    2  503  501 -0.15024691883E+03  0.33345214454E+02 -0.53026485367E+03  0.55214749387E+03  0.00000000000E+00 0. -1.
         21    1    1    2  504  502  0.15024691883E+03 -0.33345214454E+02 -0.29214996897E+03  0.33020848613E+03  0.00000000000E+00 0. -1.
<mgrwt>
<rscale>  2 0.15390270E+03</rscale>
<asrwt>0</asrwt>
<pdfrwt beam="1">  1       21 0.46108578E-02 0.15390270E+03</pdfrwt>
<pdfrwt beam="2">  1       21 0.13113623E+00 0.15390270E+03</pdfrwt>
<totfact> 0.13262221E+05</totfact>
</mgrwt>
</event>
<event>
 4    1  0.6055396E+003  0.1172631E+03  0.7546771E-02  0.1247682E+00
         21   -1    0    0  504  501  0.00000000000E+00  0.00000000000E+00  0.11275754739E+03  0.11275754739E+03  0.00000000000E+00 0. -1.
         21   -1    0    0  503  502 -0.00000000000E+00 -0.00000000000E+00 -0.12230934606E+03  0.12230934606E+03  0.00000000000E+00 0. -1.
         21    1    1    2  503  501 -0.37456101975E+02  0.11112008547E+03  0.16065904207E+01  0.11727409818E+03  0.00000000000E+00 0. -1.
         21    1    1    2  504  502  0.37456101975E+02 -0.11112008547E+03 -0.11158389088E+02  0.11779279527E+03  0.00000000000E+00 0. -1.
<mgrwt>
<rscale>  2 0.11726309E+03</rscale>
<asrwt>0</asrwt>
<pdfrwt beam="1">  1       21 0.17347315E-01 0.11726309E+03</pdfrwt>
<pdfrwt beam="2">  1       21 0.18816823E-01 0.11726309E+03</pdfrwt>
<totfact> 0.77962700E+05</totfact>
</mgrwt>
</event>
<event>
 4    1  0.6055396E+003  0.2677313E+03  0.7546771E-02  0.1102585E+00
         21   -1    0    0  503  501  0.00000000000E+00  0.00000000000E+00  0.14825593469E+03  0.14825593469E+03  0.00000000000E+00 0. -1.
         21   -1    0    0  504  502 -0.00000000000E+00 -0.00000000000E+00 -0.48605979783E+03  0.48605979783E+03  0.00000000000E+00 0. -1.
         21    1    1    2  503  502  0.12022815206E+03  0.23921802806E+03 -0.19196873692E+03  0.32944205781E+03  0.00000000000E+00 0. -1.
         21    1    1    2  504  501 -0.12022815206E+03 -0.23921802806E+03 -0.14583512622E+03  0.30487367472E+03  0.00000000000E+00 0. -1.
<mgrwt>
<rscale>  2 0.26773135E+03</rscale>
<asrwt>0</asrwt>
<pdfrwt beam="1">  1       21 0.22808605E-01 0.26773135E+03</pdfrwt>
<pdfrwt beam="2">  1       21 0.74778431E-01 0.26773135E+03</pdfrwt>
<totfact> 0.27802239E+04</totfact>
</mgrwt>
</event>
<event>
 4    1  0.6055396E+003  0.1208868E+03  0.7546771E-02  0.1241641E+00
         21   -1    0    0  502  501  0.00000000000E+00  0.00000000000E+00  0.28805417254E+03  0.28805417254E+03  0.00000000000E+00 0.  1.
         21   -1    0    0  504  502 -0.00000000000E+00 -0.00000000000E+00 -0.64968265018E+02  0.64968265018E+02  0.00000000000E+00 0. -1.
         21    1    1    2  503  501 -0.69810106440E+02  0.98692323366E+02  0.19416890292E+03  0.22872513748E+03  0.00000000000E+00 0.  1.
         21    1    1    2  504  503  0.69810106440E+02 -0.98692323366E+02  0.28917004603E+02  0.12429730008E+03  0.00000000000E+00 0. -1.
<mgrwt>
<rscale>  2 0.12088683E+03</rscale>
<asrwt>0</asrwt>
<pdfrwt beam="1">  1       21 0.44316026E-01 0.12088683E+03</pdfrwt>
<pdfrwt beam="2">  1       21 0.99951178E-02 0.12088683E+03</pdfrwt>
<totfact> 0.40180475E+05</totfact>
</mgrwt>
</event>
<event>
 4    1  0.6055396E+003  0.1414086E+03  0.7546771E-02  0.1211446E+00
         21   -1    0    0  503  501  0.00000000000E+00  0.00000000000E+00  0.87526069031E+03  0.87526069031E+03  0.00000000000E+00 0.  1.
         21   -1    0    0  504  502 -0.00000000000E+00 -0.00000000000E+00 -0.22867596843E+02  0.22867596843E+02  0.00000000000E+00 0.  1.
         21    1    1    2  503  502  0.63467164470E+02 -0.12636577306E+03  0.41246336758E+03  0.43603029615E+03  0.00000000000E+00 0.  1.
         21    1    1    2  504  501 -0.63467164470E+02  0.12636577306E+03  0.43992972589E+03  0.46209799100E+03  0.00000000000E+00 0.  1.
<mgrwt>
<rscale>  2 0.14140859E+03</rscale>
<asrwt>0</asrwt>
<pdfrwt beam="1">  1       21 0.13465547E+00 0.14140859E+03</pdfrwt>
<pdfrwt beam="2">  1       21 0.35180925E-02 0.14140859E+03</pdfrwt>
<totfact> 0.19573085E+05</totfact>
</mgrwt>
</event>
<event>
 4    1  0.6055396E+003  0.1101763E+03  0.7546771E-02  0.1260244E+00
         21   -1    0    0  504  501  0.00000000000E+00  0.00000000000E+00  0.16301637322E+03  0.16301637322E+03  0.00000000000E+00 0. -1.
         21   -1    0    0  503  502 -0.00000000000E+00 -0.00000000000E+00 -0.76183411255E+02  0.76183411255E+02  0.00000000000E+00 0. -1.
         21    1    1    2  503  501  0.30853994344E+02 -0.10576794656E+03  0.25448104185E+02  0.11307711304E+03  0.00000000000E+00 0. -1.
         21    1    1    2  504  502 -0.30853994344E+02  0.10576794656E+03  0.61384857780E+02  0.12612267144E+03  0.00000000000E+00 0. -1.
<mgrwt>
<rscale>  2 0.11017635E+03</rscale>
<asrwt>0</asrwt>
<pdfrwt beam="1">  1       21 0.25079442E-01 0.11017635E+03</pdfrwt>
<pdfrwt beam="2">  1       21 0.11720525E-01 0.11017635E+03</pdfrwt>
<totfact> 0.92201033E+05</totfact>
</mgrwt>
</event>
<event>
 4    1  0.6055396E+003  0.1947014E+03  0.7546771E-02  0.1154288E+00
         21   -1    0    0  504  501  0.00000000000E+00  0.00000000000E+00  0.24808897569E+03  0.24808897569E+03  0.00000000000E+00 0.  1.
         21   -1    0    0  501  502 -0.00000000000E+00 -0.00000000000E+00 -0.11007471074E+04  0.11007471074E+04  0.00000000000E+00 0. -1.
         21    1    1    2  503  502 -0.11235764284E+03  0.15901062453E+03 -0.10521886118E+04  0.10700511640E+04  0.00000000000E+00 0. -1.
         21    1    1    2  504  503  0.11235764284E+03 -0.15901062453E+03  0.19953048015E+03  0.27878491911E+03  0.00000000000E+00 0.  1.
<mgrwt>
<rscale>  2 0.19470136E+03</rscale>
<asrwt>0</asrwt>
<pdfrwt beam="1">  1       21 0.38167535E-01 0.19470136E+03</pdfrwt>
<pdfrwt beam="2">  1       21 0.16934571E+00 0.19470136E+03</pdfrwt>
<totfact> 0.14246506E+03</totfact>
</mgrwt>
</event>
<event>
 4    1  0.6055396E+003  0.1150006E+03  0.7546771E-02  0.1251580E+00
         21   -1    0    0  502  501  0.00000000000E+00  0.00000000000E+00  0.60600809718E+02  0.60600809718E+02  0.00000000000E+00 0.  1.
         21   -1    0    0  503  502 -0.00000000000E+00 -0.00000000000E+00 -0.40487433336E+03  0.40487433336E+03  0.00000000000E+00 0.  1.
         21    1    1    2  503  504  0.11274279842E+03  0.22675755418E+02 -0.33015589526E+03  0.34961127507E+03  0.00000000000E+00 0.  1.
         21    1    1    2  504  501 -0.11274279842E+03 -0.22675755418E+02 -0.14117628377E+02  0.11586386801E+03  0.00000000000E+00 0.  1.
<mgrwt>
<rscale>  2 0.11500056E+03</rscale>
<asrwt>0</asrwt>
<pdfrwt beam="1">  1       21 0.93232018E-02 0.11500056E+03</pdfrwt>
<pdfrwt beam="2">  1       21 0.62288357E-01 0.11500056E+03</pdfrwt>
<totfact> 0.22409830E+05</totfact>
</mgrwt>
</event>
<event>
 4    1  0.6055396E+003  0.1112582E+03  0.7546771E-02  0.1258258E+00
         21   -1    0    0  503  501  0.00000000000E+00  0.00000000000E+00  0.53714723219E+03  0.53714723219E+03  0.00000000000E+00 0.  1.
         21   -1    0    0  504  502 -0.00000000000E+00 -0.00000000000E+00 -0.57101555431E+03  0.57101555431E+03  0.00000000000E+00 0.  1.
         21    1    1    2  503  502 -0.77634396760E+02  0.79694917367E+02 -0.55971978893E+03  0.57067032649E+03  0.00000000000E+00 0.  1.
         21    1    1    2  504  501  0.77634396760E+02 -0.79694917367E+02  0.52585146681E+03  0.53749246001E+03  0.00000000000E+00 0.  1.
<mgrwt>
<rscale>  2 0.11125817E+03</rscale>
<asrwt>0</asrwt>
<pdfrwt beam="1">  1       21 0.82638036E-01 0.11125817E+03</pdfrwt>
<pdfrwt beam="2">  1       21 0.87848547E-01 0.11125817E+03</pdfrwt>
<totfact> 0.15616557E+03</totfact>
</mgrwt>
</event>
<event>
 4    1  0.6055396E+003  0.1179318E+03  0.7546771E-02  0.1246549E+00
         21   -1    0    0  504  501  0.00000000000E+00  0.00000000000E+00  0.12693241305E+03  0.12693241305E+03  0.00000000000E+00 0. -1.
         21   -1    0    0  501  502 -0.00000000000E+00 -0.00000000000E+00 -0.13280106481E+03  0.13280106481E+03  0.00000000000E+00 0. -1.
         21    1    1    2  503  502 -0.13073242591E+02  0.11720489847E+03 -0.57251615609E+02  0.13109403262E+03  0.00000000000E+00 0. -1.
         21    1    1    2  504  503  0.13073242591E+02 -0.11720489847E+03  0.51382963855E+02  0.12863944524E+03  0.00000000000E+00 0. -1.
<mgrwt>
<rscale>  2 0.11793175E+03</rscale>
<asrwt>0</asrwt>
<pdfrwt beam="1">  1       21 0.19528064E-01 0.11793175E+03</pdfrwt>
<pdfrwt beam="2">  1       21 0.20430933E-01 0.11793175E+03</pdfrwt>
<totfact> 0.53947982E+05</totfact>
</mgrwt>
</event>
<event>
 4    1  0.6055396E+003  0.1086284E+03  0.7546771E-02  0.1263131E+00
         21   -1    0    0  504  501  0.00000000000E+00  0.00000000000E+00  0.11075495717E+03  0.11075495717E+03  0.00000000000E+00 0.  1.
         21   -1    0    0  501  502 -0.00000000000E+00 -0.00000000000E+00 -0.18933104187E+03  0.18933104187E+03  0.00000000000E+00 0.  1.
         21    1    1    2  503  502 -0.82621209047E+02 -0.70525677040E+02 -0.13850578529E+03  0.17602269133E+03  0.00000000000E+00 0.  1.
         21    1    1    2  504  503  0.82621209047E+02  0.70525677040E+02  0.59929700586E+02  0.12406330770E+03  0.00000000000E+00 0.  1.
<mgrwt>
<rscale>  2 0.10862843E+03</rscale>
<asrwt>0</asrwt>
<pdfrwt beam="1">  1       21 0.17039224E-01 0.10862843E+03</pdfrwt>
<pdfrwt beam="2">  1       21 0.29127853E-01 0.10862843E+03</pdfrwt>
<totfact> 0.35569733E+05</totfact>
</mgrwt>
</event>
<event>
 4    1  0.6055396E+003  0.1586452E+03  0.7546771E-02  0.1190235E+00
         21   -1    0    0  503  501  0.00000000000E+00  0.00000000000E+00  0.42188591852E+03  0.42188591852E+03  0.00000000000E+00 0. -1.
         21   -1    0    0  504  502 -0.00000000000E+00 -0.00000000000E+00 -0.10312653402E+03  0.10312653402E+03  0.00000000000E+00 0. -1.
         21    1    1    2  503  502  0.13796091438E+03 -0.78326704894E+02 -0.11051390909E+02  0.15902961937E+03  0.00000000000E+00 0. -1.
         21    1    1    2  504  501 -0.13796091438E+03  0.78326704894E+02  0.32981077541E+03  0.36598283317E+03  0.00000000000E+00 0. -1.
<mgrwt>
<rscale>  2 0.15864516E+03</rscale>
<asrwt>0</asrwt>
<pdfrwt beam="1">  1       21 0.64905525E-01 0.15864516E+03</pdfrwt>
<pdfrwt beam="2">  1       21 0.15865621E-01 0.15864516E+03</pdfrwt>
<totfact> 0.78577344E+04</totfact>
</mgrwt>
</event>
<event>
 4    1  0.6055396E+003  0.1041088E+03  0.7546771E-02  0.1271886E+00
         21   -1    0    0  504  501  0.00000000000E+00  0.00000000000E+00  0.17837329696E+03  0.17837329696E+03  0.00000000000E+00 0.  1.
         21   -1    0    0  501  502 -0.00000000000E+00 -0.00000000000E+00 -0.21178651084E+03  0.21178651084E+03  0.00000000000E+00 0. -1.
         21    1    1    2  503  502  0.58110077379E+02  0.86382042502E+02 -0.18144109248E+03  0.20918773482E+03  0.00000000000E+00 0. -1.
         21    1    1    2  504  503 -0.58110077379E+02 -0.86382042502E+02  0.14802787859E+03  0.18097207298E+03  0.00000000000E+00 0.  1.
<mgrwt>
<rscale>  2 0.10410878E+03</rscale>
<asrwt>0</asrwt>
<pdfrwt beam="1">  1       21 0.27442046E-01 0.10410878E+03</pdfrwt>
<pdfrwt beam="2">  1       21 0.32582540E-01 0.10410878E+03</pdfrwt>
<totfact> 0.11865053E+05</totfact>
</mgrwt>
</event>
<event>
 4    1  0.6055396E+003  0.1963681E+03  0.7546771E-02  0.1152840E+00
         21   -1    0    0  504  501  0.00000000000E+00  0.00000000000E+00  0.23110090404E+03  0.23110090404E+03  0.00000000000E+00 0.  1.
         21   -1    0    0  503  502 -0.00000000000E+00 -0.00000000000E+00 -0.22862071136E+03  0.22862071136E+03  0.00000000000E+00 0.  1.
         21    1    1    2  503  501 -0.54720114165E+02  0.18858986501E+03 -0.11823559353E+03  0.22921623776E+03  0.00000000000E+00 0.  1.
         21    1    1    2  504  502  0.54720114165E+02 -0.18858986501E+03  0.12071578621E+03  0.23050537763E+03  0.00000000000E+00 0.  1.
<mgrwt>
<rscale>  2 0.19636809E+03</rscale>
<asrwt>0</asrwt>
<pdfrwt beam="1">  1       21 0.35553985E-01 0.19636809E+03</pdfrwt>
<pdfrwt beam="2">  1       21 0.35172417E-01 0.19636809E+03</pdfrwt>
<totfact> 0.59340917E+04</totfact>
</mgrwt>
</event>
<event>
 4    1  0.6055396E+003  0.2431241E+03  0.7546771E-02  0.1117729E+00
         21   -1    0    0  504  501  0.00000000000E+00  0.00000000000E+00  0.13995791829E+03  0.13995791829E+03  0.00000000000E+00 0. -1.
         21   -1    0    0  501  502 -0.00000000000E+00 -0.00000000000E+00 -0.82275064530E+03  0.82275064530E+03  0.00000000000E+00 0. -1.
         21    1    1    2  503  502  0.23129539540E+03 -0.74911834004E+02 -0.67720001019E+03  0.71952011550E+03  0.00000000000E+00 0. -1.
         21    1    1    2  504  503 -0.23129539540E+03  0.74911834004E+02 -0.55927168236E+01  0.24318844810E+03  0.00000000000E+00 0. -1.
<mgrwt>
<rscale>  2 0.24312413E+03</rscale>
<asrwt>0</asrwt>
<pdfrwt beam="1">  1       21 0.21531987E-01 0.24312413E+03</pdfrwt>
<pdfrwt beam="2">  1       21 0.12657702E+00 0.24312413E+03</pdfrwt>
<totfact> 0.89782582E+03</totfact>
</mgrwt>
</event>
<event>
 4    1  0.6055396E+003  0.1195302E+03  0.7546771E-02  0.1243874E+00
         21   -1    0    0  504  501  0.00000000000E+00  0.00000000000E+00  0.96011267201E+02  0.96011267201E+02  0.00000000000E+00 0.  1.
         21   -1    0    0  501  502 -0.00000000000E+00 -0.00000000000E+00 -0.33920559809E+03  0.33920559809E+03  0.00000000000E+00 0. -1.
         21    1    1    2  503  502 -0.11865316521E+03 -0.14452883292E+02 -0.28462899283E+03  0.30870879970E+03  0.00000000000E+00 0. -1.
         21    1    1    2  504  503  0.11865316521E+03  0.14452883292E+02  0.41434661939E+02  0.12650806560E+03  0.00000000000E+00 0.  1.
<mgrwt>
<rscale>  2 0.11953016E+03</rscale>
<asrwt>0</asrwt>
<pdfrwt beam="1">  1       21 0.14770964E-01 0.11953016E+03</pdfrwt>
<pdfrwt beam="2">  1       21 0.52185477E-01 0.11953016E+03</pdfrwt>
<totfact> 0.14403902E+05</totfact>
</mgrwt>
</event>
<event>
 4    1  0.6055396E+003  0.1007753E+03  0.7546771E-02  0.1278674E+00
         21   -1    0    0  504  501  0.00000000000E+00  0.00000000000E+00  0.87709408143E+02  0.87709408143E+02  0.00000000000E+00 0.  1.
         21   -1    0    0  503  502 -0.00000000000E+00 -0.00000000000E+00 -0.36780398929E+03  0.36780398929E+03  0.00000000000E+00 0.  1.
         21    1    1    2  503  501 -0.67456881681E+01 -0.10054923943E+03  0.48481383292E+02  0.11183066836E+03  0.00000000000E+00 0.  1.
         21    1    1    2  504  502  0.67456881681E+01  0.10054923943E+03 -0.32857596444E+03  0.34368272908E+03  0.00000000000E+00 0.  1.
<mgrwt>
<rscale>  2 0.10077526E+03</rscale>
<asrwt>0</asrwt>
<pdfrwt beam="1">  1       21 0.13493755E-01 0.10077526E+03</pdfrwt>
<pdfrwt beam="2">  1       21 0.56585229E-01 0.10077526E+03</pdfrwt>
<totfact> 0.14407661E+05</totfact>
</mgrwt>
</event>
<event>
 4    1  0.6055396E+003  0.1722196E+03  0.7546771E-02  0.1175553E+00
         21   -1    0    0  502  501  0.00000000000E+00  0.00000000000E+00  0.56547892621E+03  0.56547892621E+03  0.00000000000E+00 0. -1.
         21   -1    0    0  504  502 -0.00000000000E+00 -0.00000000000E+00 -0.21915274691E+03  0.21915274691E+03  0.00000000000E+00 0.  1.
         21    1    1    2  503  501 -0.10987517753E+03 -0.13261606215E+03  0.51532627979E+03  0.54334220268E+03  0.00000000000E+00 0. -1.
         21    1    1    2  504  503  0.10987517753E+03  0.13261606215E+03 -0.16900010049E+03  0.24128947043E+03  0.00000000000E+00 0.  1.
<mgrwt>
<rscale>  2 0.17221955E+03</rscale>
<asrwt>0</asrwt>
<pdfrwt beam="1">  1       21 0.86996757E-01 0.17221955E+03</pdfrwt>
<pdfrwt beam="2">  1       21 0.33715807E-01 0.17221955E+03</pdfrwt>
<totfact> 0.97701425E+03</totfact>
</mgrwt>
</event>
<event>
 4    1  0.6055396E+003  0.1037039E+03  0.7546771E-02  0.1272695E+00
         21   -1    0    0  504  501  0.00000000000E+00  0.00000000000E+00  0.71843338088E+02  0.71843338088E+02  0.00000000000E+00 0. -1.
         21   -1    0    0  503  502 -0.00000000000E+00 -0.00000000000E+00 -0.24514123700E+03  0.24514123700E+03  0.00000000000E+00 0.  1.
         21    1    1    2  503  501  0.91032724275E+02  0.49674301762E+02 -0.18554577965E+03  0.21255994329E+03  0.00000000000E+00 0.  1.
         21    1    1    2  504  502 -0.91032724275E+02 -0.49674301762E+02  0.12247880737E+02  0.10442463180E+03  0.00000000000E+00 0. -1.
<mgrwt>
<rscale>  2 0.10370387E+03</rscale>
<asrwt>0</asrwt>
<pdfrwt beam="1">  1       21 0.11052821E-01 0.10370387E+03</pdfrwt>
<pdfrwt beam="2">  1       21 0.37714037E-01 0.10370387E+03</pdfrwt>
<totfact> 0.46589479E+05</totfact>
</mgrwt>
</event>
<event>
 4    1  0.6055396E+003  0.1133520E+03  0.7546771E-02  0.1254485E+00
         21   -1    0    0  504  501  0.00000000000E+00  0.00000000000E+00  0.20073616298E+03  0.20073616298E+03  0.00000000000E+00 0.  1.
         21   -1    0    0  503  502 -0.00000000000E+00 -0.00000000000E+00 -0.13733755199E+03  0.13733755199E+03  0.00000000000E+00 0.  1.
         21    1    1    2  503  501 -0.53076070368E+02 -0.10015790124E+03 -0.91817756302E+02  0.14587383178E+03  0.00000000000E+00 0.  1.
         21    1    1    2  504  502  0.53076070368E+02  0.10015790124E+03  0.15521636728E+03  0.19219988319E+03  0.00000000000E+00 0.  1.
<mgrwt>
<rscale>  2 0.11335199E+03</rscale>
<asrwt>0</asrwt>
<pdfrwt beam="1">  1       21 0.30882486E-01 0.11335199E+03</pdfrwt>
<pdfrwt beam="2">  1       21 0.21128854E-01 0.11335199E+03</pdfrwt>
<totfact> 0.21412177E+05</totfact>
</mgrwt>
</event>
<event>
 4    1  0.6055396E+003  0.1178113E+03  0.7546771E-02  0.1246752E+00
         21   -1    0    0  503  501  0.00000000000E+00  0.00000000000E+00  0.28904896575E+03  0.28904896575E+03  0.00000000000E+00 0. -1.
         21   -1    0    0  501  502 -0.00000000000E+00 -0.00000000000E+00 -0.11828306041E+03  0.11828306041E+03  0.00000000000E+00 0.  1.
         21    1    1    2  503  504 -0.92927885903E+02  0.72414894911E+02  0.24235686069E+03  0.26947422308E+03  0.00000000000E+00 0. -1.
         21    1    1    2  504  502  0.92927885903E+02 -0.72414894911E+02 -0.71590955351E+02  0.13785780308E+03  0.00000000000E+00 0.  1.
<mgrwt>
<rscale>  2 0.11781133E+03</rscale>
<asrwt>0</asrwt>
<pdfrwt beam="1">  1       21 0.44469071E-01 0.11781133E+03</pdfrwt>
<pdfrwt beam="2">  1       21 0.18197394E-01 0.11781133E+03</pdfrwt>
<totfact> 0.13703995E+05</totfact>
</mgrwt>
</event>
<event>
 4    1  0.6055396E+003  0.1134929E+03  0.7546771E-02  0.1254235E+00
         21   -1    0    0  504  501  0.00000000000E+00  0.00000000000E+00  0.85463661773E+02  0.85463661773E+02  0.00000000000E+00 0.  1.
         21   -1    0    0  501  502 -0.00000000000E+00 -0.00000000000E+00 -0.21055566784E+04  0.21055566784E+04  0.00000000000E+00 0. -1.
         21    1    1    2  503  502  0.31797559904E+02 -0.10894749777E+03 -0.20656206874E+04  0.20687362002E+04  0.00000000000E+00 0. -1.
         21    1    1    2  504  503 -0.31797559904E+02  0.10894749777E+03  0.45527670710E+02  0.12228413997E+03  0.00000000000E+00 0.  1.
<mgrwt>
<rscale>  2 0.11349292E+03</rscale>
<asrwt>0</asrwt>
<pdfrwt beam="1">  1       21 0.13148256E-01 0.11349292E+03</pdfrwt>
<pdfrwt beam="2">  1       21 0.32393180E+00 0.11349292E+03</pdfrwt>
<totfact> 0.14191652E+03</totfact>
</mgrwt>
</event>
<event>
 4    1  0.6055396E+003  0.1046841E+03  0.7546771E-02  0.1270743E+00
         21   -1    0    0  503  501  0.00000000000E+00  0.00000000000E+00  0.36155435627E+02  0.36155435627E+02  0.00000000000E+00 0.  1.
         21   -1    0    0  504  502 -0.00000000000E+00 -0.00000000000E+00 -0.51637283827E+03  0.51637283827E+03  0.00000000000E+00 0.  1.
         21    1    1    2  503  502 -0.86196601282E+02  0.59404648018E+02 -0.41765395914E+03  0.43057356615E+03  0.00000000000E+00 0.  1.
         21    1    1    2  504  501  0.86196601282E+02 -0.59404648018E+02 -0.62563443498E+02  0.12195470774E+03  0.00000000000E+00 0.  1.
<mgrwt>
<rscale>  2 0.10468413E+03</rscale>
<asrwt>0</asrwt>
<pdfrwt beam="1">  1       21 0.55623747E-02 0.10468413E+03</pdfrwt>
<pdfrwt beam="2">  1       21 0.79441975E-01 0.10468413E+03</pdfrwt>
<totfact> 0.31979005E+05</totfact>
</mgrwt>
</event>
<event>
 4    1  0.6055396E+003  0.1251048E+03  0.7546771E-02  0.1234906E+00
         21   -1    0    0  503  501  0.00000000000E+00  0.00000000000E+00  0.19395694593E+02  0.19395694593E+02  0.00000000000E+00 0. -1.
         21   -1    0    0  504  502 -0.00000000000E+00 -0.00000000000E+00 -0.92167119049E+03  0.92167119049E+03  0.00000000000E+00 0. -1.
         21    1    1    2  503  502 -0.10701537700E+03 -0.64799016831E+02 -0.61714962884E+03  0.62970220571E+03  0.00000000000E+00 0. -1.
         21    1    1    2  504  501  0.10701537700E+03  0.64799016831E+02 -0.28512586706E+03  0.31136467938E+03  0.00000000000E+00 0. -1.
<mgrwt>
<rscale>  2 0.12510477E+03</rscale>
<asrwt>0</asrwt>
<pdfrwt beam="1">  1       21 0.29839526E-02 0.12510477E+03</pdfrwt>
<pdfrwt beam="2">  1       21 0.14179559E+00 0.12510477E+03</pdfrwt>
<totfact> 0.22657458E+05</totfact>
</mgrwt>
</event>
<event>
 4    1  0.6055396E+003  0.1056013E+03  0.7546771E-02  0.1268939E+00
         21   -1    0    0  504  501  0.00000000000E+00  0.00000000000E+00  0.11162504616E+04  0.11162504616E+04  0.00000000000E+00 0.  1.
         21   -1    0    0  503  502 -0.00000000000E+00 -0.00000000000E+00 -0.99948834349E+01  0.99948834349E+01  0.00000000000E+00 0. -1.
         21    1    1    2  503  501  0.10353371643E+03 -0.20794304571E+02  0.56523783723E+03  0.57501777901E+03  0.00000000000E+00 0.  1.
         21    1    1    2  504  502 -0.10353371643E+03  0.20794304571E+02  0.54101774091E+03  0.55122756600E+03  0.00000000000E+00 0. -1.
<mgrwt>
<rscale>  2 0.10560130E+03</rscale>
<asrwt>0</asrwt>
<pdfrwt beam="1">  1       21 0.17173074E+00 0.10560130E+03</pdfrwt>
<pdfrwt beam="2">  1       21 0.15376753E-02 0.10560130E+03</pdfrwt>
<totfact> 0.40339251E+05</totfact>
</mgrwt>
</event>
<event>
 4    1  0.6055396E+003  0.1014457E+03  0.7546771E-02  0.1277285E+00
         21   -1    0    0  503  501  0.00000000000E+00  0.00000000000E+00  0.18210791306E+04  0.18210791306E+04  0.00000000000E+00 0. -1.
         21   -1    0    0  504  502 -0.00000000000E+00 -0.00000000000E+00 -0.64647905066E+01  0.64647905066E+01  0.00000000000E+00 0. -1.
         21    1    1    2  503  502 -0.75100551597E+02  0.68199213578E+02  0.12314764528E+04  0.12356477974E+04  0.00000000000E+00 0. -1.
         21    1    1    2  504  501  0.75100551597E+02 -0.68199213578E+02  0.58313788728E+03  0.59189612362E+03  0.00000000000E+00 0. -1.
<mgrwt>
<rscale>  2 0.10144568E+03</rscale>
<asrwt>0</asrwt>
<pdfrwt beam="1">  1       21 0.28016561E+00 0.10144568E+03</pdfrwt>
<pdfrwt beam="2">  1       21 0.99458460E-03 0.10144568E+03</pdfrwt>
<totfact> 0.18181374E+05</totfact>
</mgrwt>
</event>
<event>
 4    1  0.6055396E+003  0.1452944E+03  0.7546771E-02  0.1206377E+00
         21   -1    0    0  504  501  0.00000000000E+00  0.00000000000E+00  0.38108031736E+02  0.38108031736E+02  0.00000000000E+00 0. -1.
         21   -1    0    0  503  502 -0.00000000000E+00 -0.00000000000E+00 -0.13255232725E+04  0.13255232725E+04  0.00000000000E+00 0.  1.
         21    1    1    2  503  501 -0.12187084007E+03  0.79107280967E+02 -0.11638928784E+04  0.11729267223E+04  0.00000000000E+00 0.  1.
         21    1    1    2  504  502  0.12187084007E+03 -0.79107280967E+02 -0.12352236241E+03  0.19070458195E+03  0.00000000000E+00 0. -1.
<mgrwt>
<rscale>  2 0.14529440E+03</rscale>
<asrwt>0</asrwt>
<pdfrwt beam="1">  1       21 0.58627735E-02 0.14529440E+03</pdfrwt>
<pdfrwt beam="2">  1       21 0.20392668E+00 0.14529440E+03</pdfrwt>
<totfact> 0.26992020E+04</totfact>
</mgrwt>
</event>
<event>
 4    1  0.6055396E+003  0.1058640E+03  0.7546771E-02  0.1268427E+00
         21   -1    0    0  503  501  0.00000000000E+00  0.00000000000E+00  0.33326569984E+02  0.33326569984E+02  0.00000000000E+00 0. -1.
         21   -1    0    0  501  502 -0.00000000000E+00 -0.00000000000E+00 -0.33628406943E+03  0.33628406943E+03  0.00000000000E+00 0. -1.
         21    1    1    2  503  504  0.10170750700E+03 -0.29373021951E+02 -0.15157711618E+03  0.18488594741E+03  0.00000000000E+00 0. -1.
         21    1    1    2  504  502 -0.10170750700E+03  0.29373021951E+02 -0.15138038326E+03  0.18472469200E+03  0.00000000000E+00 0. -1.
<mgrwt>
<rscale>  2 0.10586402E+03</rscale>
<asrwt>0</asrwt>
<pdfrwt beam="1">  1       21 0.51271649E-02 0.10586402E+03</pdfrwt>
<pdfrwt beam="2">  1       21 0.51736008E-01 0.10586402E+03</pdfrwt>
<totfact> 0.91629602E+05</totfact>
</mgrwt>
</event>
<event>
 4    1  0.6055396E+003  0.1286095E+03  0.7546771E-02  0.1229534E+00
         21   -1    0    0  504  501  0.00000000000E+00  0.00000000000E+00  0.48595416584E+03  0.48595416584E+03  0.00000000000E+00 0. -1.
         21   -1    0    0  503  502 -0.00000000000E+00 -0.00000000000E+00 -0.44605310976E+02  0.44605310976E+02  0.00000000000E+00 0. -1.
         21    1    1    2  503  501  0.12272966118E+03  0.38442531476E+02  0.34980069593E+03  0.37269414382E+03  0.00000000000E+00 0. -1.
         21    1    1    2  504  502 -0.12272966118E+03 -0.38442531476E+02  0.91548158932E+02  0.15786533300E+03  0.00000000000E+00 0. -1.
<mgrwt>
<rscale>  2 0.12860948E+03</rscale>
<asrwt>0</asrwt>
<pdfrwt beam="1">  1       21 0.74762176E-01 0.12860948E+03</pdfrwt>
<pdfrwt beam="2">  1       21 0.68623559E-02 0.12860948E+03</pdfrwt>
<totfact> 0.25484510E+05</totfact>
</mgrwt>
</event>
<event>
 4    1  0.6055396E+003  0.1171790E+03  0.7546771E-02  0.1247825E+00
         21   -1    0    0  504  501  0.00000000000E+00  0.00000000000E+00  0.43678166641E+03  0.43678166641E+03  0.00000000000E+00 0. -1.
         21   -1    0    0  501  502 -0.00000000000E+00 -0.00000000000E+00 -0.24062902276E+03  0.24062902276E+03  0.00000000000E+00 0.  1.
         21    1    1    2  503  502  0.40170078032E+02  0.11007857810E+03 -0.21773014989E+03  0.24725967463E+03  0.00000000000E+00 0.  1.
         21    1    1    2  504  503 -0.40170078032E+02 -0.11007857810E+03  0.41388279354E+03  0.43015101455E+03  0.00000000000E+00 0. -1.
<mgrwt>
<rscale>  2 0.11717904E+03</rscale>
<asrwt>0</asrwt>
<pdfrwt beam="1">  1       21 0.67197179E-01 0.11717904E+03</pdfrwt>
<pdfrwt beam="2">  1       21 0.37019850E-01 0.11717904E+03</pdfrwt>
<totfact> 0.15068572E+04</totfact>
</mgrwt>
</event>
<event>
 4    1  0.6055396E+003  0.1008130E+03  0.7546771E-02  0.1278596E+00
         21   -1    0    0  503  501  0.00000000000E+00  0.00000000000E+00  0.13282647847E+02  0.13282647847E+02  0.00000000000E+00 0. -1.
         21   -1    0    0  504  502 -0.00000000000E+00 -0.00000000000E+00 -0.95211041536E+03  0.95211041536E+03  0.00000000000E+00 0. -1.
         21    1    1    2  503  502 -0.61138061201E+02 -0.80158537077E+02 -0.25551809216E+03  0.27468663785E+03  0.00000000000E+00 0. -1.
         21    1    1    2  504  501  0.61138061201E+02  0.80158537077E+02 -0.68330967535E+03  0.69070642535E+03  0.00000000000E+00 0. -1.
<mgrwt>
<rscale>  2 0.10081296E+03</rscale>
<asrwt>0</asrwt>
<pdfrwt beam="1">  1       21 0.20434834E-02 0.10081296E+03</pdfrwt>
<pdfrwt beam="2">  1       21 0.14647859E+00 0.10081296E+03</pdfrwt>
<totfact> 0.38873317E+05</totfact>
</mgrwt>
</event>
<event>
 4    1  0.6055396E+003  0.1073509E+03  0.7546771E-02  0.1265556E+00
         21   -1    0    0  504  501  0.00000000000E+00  0.00000000000E+00  0.11085619341E+04  0.11085619341E+04  0.00000000000E+00 0. -1.
         21   -1    0    0  503  502 -0.00000000000E+00 -0.00000000000E+00 -0.10405464118E+02  0.10405464118E+02  0.00000000000E+00 0. -1.
         21    1    1    2  503  501 -0.72042623920E+02  0.79586845858E+02  0.56627334511E+03  0.57635900884E+03  0.00000000000E+00 0. -1.
         21    1    1    2  504  502  0.72042623920E+02 -0.79586845858E+02  0.53188312489E+03  0.54260838939E+03  0.00000000000E+00 0. -1.
<mgrwt>
<rscale>  2 0.10735085E+03</rscale>
<asrwt>0</asrwt>
<pdfrwt beam="1">  1       21 0.17054790E+00 0.10735085E+03</pdfrwt>
<pdfrwt beam="2">  1       21 0.16008415E-02 0.10735085E+03</pdfrwt>
<totfact> 0.38515383E+05</totfact>
</mgrwt>
</event>
<event>
 4    1  0.6055396E+003  0.1042875E+03  0.7546771E-02  0.1271530E+00
         21   -1    0    0  504  501  0.00000000000E+00  0.00000000000E+00  0.19864163548E+02  0.19864163548E+02  0.00000000000E+00 0.  1.
         21   -1    0    0  501  502 -0.00000000000E+00 -0.00000000000E+00 -0.12215376610E+04  0.12215376610E+04  0.00000000000E+00 0.  1.
         21    1    1    2  503  502 -0.25010318358E+02 -0.10124407035E+03 -0.10619069004E+04  0.10670155308E+04  0.00000000000E+00 0.  1.
         21    1    1    2  504  503  0.25010318358E+02  0.10124407035E+03 -0.13976659707E+03  0.17438629379E+03  0.00000000000E+00 0.  1.
<mgrwt>
<rscale>  2 0.10428748E+03</rscale>
<asrwt>0</asrwt>
<pdfrwt beam="1">  1       21 0.30560251E-02 0.10428748E+03</pdfrwt>
<pdfrwt beam="2">  1       21 0.18792888E+00 0.10428748E+03</pdfrwt>
<totfact> 0.10433445E+05</totfact>
</mgrwt>
</event>
<event>
 4    1  0.6055396E+003  0.1101068E+03  0.7546771E-02  0.1260372E+00
         21   -1    0    0  503  501  0.00000000000E+00  0.00000000000E+00  0.42809586627E+03  0.42809586627E+03  0.00000000000E+00 0. -1.
         21   -1    0    0  504  502 -0.00000000000E+00 -0.00000000000E+00 -0.38257371200E+02  0.38257371200E+02  0.00000000000E+00 0. -1.
         21    1    1    2  503  502  0.10792717312E+03 -0.21800066262E+02  0.76076898976E+02  0.13383277679E+03  0.00000000000E+00 0. -1.
         21    1    1    2  504  501 -0.10792717312E+03  0.21800066262E+02  0.31376159609E+03  0.33252046068E+03  0.00000000000E+00 0. -1.
<mgrwt>
<rscale>  2 0.11010685E+03</rscale>
<asrwt>0</asrwt>
<pdfrwt beam="1">  1       21 0.65860899E-01 0.11010685E+03</pdfrwt>
<pdfrwt beam="2">  1       21 0.58857497E-02 0.11010685E+03</pdfrwt>
<totfact> 0.43733213E+05</totfact>
</mgrwt>
</event>
<event>
 4    1  0.6055396E+003  0.1210755E+03  0.7546771E-02  0.1241333E+00
         21   -1    0    0  502  501  0.00000000000E+00  0.00000000000E+00  0.99879375863E+03  0.99879375863E+03  0.00000000000E+00 0. -1.
         21   -1    0    0  504  502 -0.00000000000E+00 -0.00000000000E+00 -0.41600601960E+02  0.41600601960E+02  0.00000000000E+00 0. -1.
         21    1    1    2  503  501 -0.11776793783E+03  0.28106571410E+02  0.89708650130E+03  0.90522011542E+03  0.00000000000E+00 0. -1.
         21    1    1    2  504  503  0.11776793783E+03 -0.28106571410E+02  0.60106655366E+02  0.13517424517E+03  0.00000000000E+00 0. -1.
<mgrwt>
<rscale>  2 0.12107546E+03</rscale>
<asrwt>0</asrwt>
<pdfrwt beam="1">  1       21 0.15366056E+00 0.12107546E+03</pdfrwt>
<pdfrwt beam="2">  1       21 0.64000934E-02 0.12107546E+03</pdfrwt>
<totfact> 0.51745504E+04</totfact>
</mgrwt>
</event>
<event>
 4    1  0.6055396E+003  0.1429555E+03  0.7546771E-02  0.1209407E+00
         21   -1    0    0  503  501  0.00000000000E+00  0.00000000000E+00  0.94662491449E+02  0.94662491449E+02  0.00000000000E+00 0. -1.
         21   -1    0    0  504  502 -0.00000000000E+00 -0.00000000000E+00 -0.74462998665E+03  0.74462998665E+03  0.00000000000E+00 0. -1.
         21    1    1    2  503  502 -0.12478707888E+03 -0.69745746051E+02  0.28635497446E+02  0.14579532181E+03  0.00000000000E+00 0. -1.
         21    1    1    2  504  501  0.12478707888E+03  0.69745746051E+02 -0.67860299265E+03  0.69349715629E+03  0.00000000000E+00 0. -1.
<mgrwt>
<rscale>  2 0.14295553E+03</rscale>
<asrwt>0</asrwt>
<pdfrwt beam="1">  1       21 0.14563460E-01 0.14295553E+03</pdfrwt>
<pdfrwt beam="2">  1       21 0.11455846E+00 0.14295553E+03</pdfrwt>
<totfact> 0.25284477E+04</totfact>
</mgrwt>
</event>
<event>
 4    1  0.6055396E+003  0.1009305E+03  0.7546771E-02  0.1278351E+00
         21   -1    0    0  503  501  0.00000000000E+00  0.00000000000E+00  0.30827956811E+02  0.30827956811E+02  0.00000000000E+00 0. -1.
         21   -1    0    0  501  502 -0.00000000000E+00 -0.00000000000E+00 -0.17344138542E+04  0.17344138542E+04  0.00000000000E+00 0.  1.
         21    1    1    2  503  504  0.99306436516E+02  0.18033172863E+02 -0.57690597497E+02  0.11625475774E+03  0.00000000000E+00 0. -1.
         21    1    1    2  504  502 -0.99306436516E+02 -0.18033172863E+02 -0.16458952999E+04  0.16489870533E+04  0.00000000000E+00 0.  1.
<mgrwt>
<rscale>  2 0.10093049E+03</rscale>
<asrwt>0</asrwt>
<pdfrwt beam="1">  1       21 0.47427604E-02 0.10093049E+03</pdfrwt>
<pdfrwt beam="2">  1       21 0.26683303E+00 0.10093049E+03</pdfrwt>
<totfact> 0.17408161E+04</totfact>
</mgrwt>
</event>
<event>
 4    1  0.6055396E+003  0.1014305E+03  0.7546771E-02  0.1277316E+00
         21   -1    0    0  504  501  0.00000000000E+00  0.00000000000E+00  0.70487926669E+02  0.70487926669E+02  0.00000000000E+00 0.  1.
         21   -1    0    0  503  502 -0.00000000000E+00 -0.00000000000E+00 -0.29377450137E+03  0.29377450137E+03  0.00000000000E+00 0.  1.
         21    1    1    2  503  501 -0.70078579655E+02 -0.73328937574E+02  0.17550501649E+02  0.10293765356E+03  0.00000000000E+00 0.  1.
         21    1    1    2  504  502  0.70078579655E+02  0.73328937574E+02 -0.24083707635E+03  0.26132477448E+03  0.00000000000E+00 0.  1.
<mgrwt>
<rscale>  2 0.10143047E+03</rscale>
<asrwt>0</asrwt>
<pdfrwt beam="1">  1       21 0.10844296E-01 0.10143047E+03</pdfrwt>
<pdfrwt beam="2">  1       21 0.45196077E-01 0.10143047E+03</pdfrwt>
<totfact> 0.33578733E+05</totfact>
</mgrwt>
</event>
<event>
 4    1  0.6055396E+003  0.1453900E+03  0.7546771E-02  0.1206255E+00
         21   -1    0    0  503  501  0.00000000000E+00  0.00000000000E+00  0.31584737379E+03  0.31584737379E+03  0.00000000000E+00 0. -1.
         21   -1    0    0  504  502 -0.00000000000E+00 -0.00000000000E+00 -0.70079365948E+02  0.70079365948E+02  0.00000000000E+00 0. -1.
         21    1    1    2  503  502  0.94395000817E+02 -0.11057948012E+03  0.81948261160E+02  0.16689444302E+03  0.00000000000E+00 0. -1.
         21    1    1    2  504  501 -0.94395000817E+02  0.11057948012E+03  0.16381974668E+03  0.21903229672E+03  0.00000000000E+00 0. -1.
<mgrwt>
<rscale>  2 0.14538995E+03</rscale>
<asrwt>0</asrwt>
<pdfrwt beam="1">  1       21 0.48591903E-01 0.14538995E+03</pdfrwt>
<pdfrwt beam="2">  1       21 0.10781441E-01 0.14538995E+03</pdfrwt>
<totfact> 0.29032163E+05</totfact>
</mgrwt>
</event>
<event>
 4    1  0.6055396E+003  0.1086059E+03  0.7546771E-02  0.1263174E+00
         21   -1    0    0  502  501  0.00000000000E+00  0.00000000000E+00  0.16170151514E+02  0.16170151514E+02  0.00000000000E+00 0. -1.
         21   -1    0    0  503  502 -0.00000000000E+00 -0.00000000000E+00 -0.31217546681E+04  0.31217546681E+04  0.00000000000E+00 0. -1.
         21    1    1    2  503  504  0.60647235851E+02 -0.90095195643E+02 -0.29262707968E+04  0.29282855065E+04  0.00000000000E+00 0. -1.
         21    1    1    2  504  501 -0.60647235851E+02  0.90095195643E+02 -0.17931371985E+03  0.20963931316E+03  0.00000000000E+00 0. -1.
<mgrwt>
<rscale>  2 0.10860585E+03</rscale>
<asrwt>0</asrwt>
<pdfrwt beam="1">  1       21 0.24877161E-02 0.10860585E+03</pdfrwt>
<pdfrwt beam="2">  1       21 0.48026986E+00 0.10860585E+03</pdfrwt>
<totfact> 0.26434235E+03</totfact>
</mgrwt>
</event>
<event>
 4    1  0.6055396E+003  0.1593149E+03  0.7546771E-02  0.1189472E+00
         21   -1    0    0  502  501  0.00000000000E+00  0.00000000000E+00  0.62982854598E+02  0.62982854598E+02  0.00000000000E+00 0. -1.
         21   -1    0    0  504  502 -0.00000000000E+00 -0.00000000000E+00 -0.75665122281E+03  0.75665122281E+03  0.00000000000E+00 0. -1.
         21    1    1    2  503  501  0.86621294288E+02 -0.13370855458E+03 -0.66653527521E+02  0.17269603042E+03  0.00000000000E+00 0. -1.
         21    1    1    2  504  503 -0.86621294288E+02  0.13370855458E+03 -0.62701484069E+03  0.64693804698E+03  0.00000000000E+00 0. -1.
<mgrwt>
<rscale>  2 0.15931486E+03</rscale>
<asrwt>0</asrwt>
<pdfrwt beam="1">  1       21 0.96896700E-02 0.15931486E+03</pdfrwt>
<pdfrwt beam="2">  1       21 0.11640788E+00 0.15931486E+03</pdfrwt>
<totfact> 0.49710617E+04</totfact>
</mgrwt>
</event>
<event>
 4    1  0.6055396E+003  0.1018023E+03  0.7546771E-02  0.1276551E+00
         21   -1    0    0  503  501  0.00000000000E+00  0.00000000000E+00  0.11214620717E+03  0.11214620717E+03  0.00000000000E+00 0. -1.
         21   -1    0    0  504  502 -0.00000000000E+00 -0.00000000000E+00 -0.63816899344E+03  0.63816899344E+03  0.00000000000E+00 0. -1.
         21    1    1    2  503  502  0.13410196565E+02 -0.10091514622E+03  0.83921434122E+02  0.13193372281E+03  0.00000000000E+00 0. -1.
         21    1    1    2  504  501 -0.13410196565E+02  0.10091514622E+03 -0.60994422039E+03  0.61838147781E+03  0.00000000000E+00 0. -1.
<mgrwt>
<rscale>  2 0.10180226E+03</rscale>
<asrwt>0</asrwt>
<pdfrwt beam="1">  1       21 0.17253263E-01 0.10180226E+03</pdfrwt>
<pdfrwt beam="2">  1       21 0.98179845E-01 0.10180226E+03</pdfrwt>
<totfact> 0.27680352E+04</totfact>
</mgrwt>
</event>
<event>
 4    1  0.6055396E+003  0.1224254E+03  0.7546771E-02  0.1239149E+00
         21   -1    0    0  503  501  0.00000000000E+00  0.00000000000E+00  0.70593539681E+02  0.70593539681E+02  0.00000000000E+00 0. -1.
         21   -1    0    0  504  502 -0.00000000000E+00 -0.00000000000E+00 -0.21239253058E+03  0.21239253058E+03  0.00000000000E+00 0. -1.
         21    1    1    2  503  502  0.74008073098E+02  0.97523194795E+02 -0.73627176151E+02  0.14285982456E+03  0.00000000000E+00 0. -1.
         21    1    1    2  504  501 -0.74008073098E+02 -0.97523194795E+02 -0.68171814746E+02  0.14012624569E+03  0.00000000000E+00 0. -1.
<mgrwt>
<rscale>  2 0.12242536E+03</rscale>
<asrwt>0</asrwt>
<pdfrwt beam="1">  1       21 0.10860545E-01 0.12242536E+03</pdfrwt>
<pdfrwt beam="2">  1       21 0.32675774E-01 0.12242536E+03</pdfrwt>
<totfact> 0.63567965E+05</totfact>
</mgrwt>
</event>
<event>
 4    1  0.6055396E+003  0.1293144E+03  0.7546771E-02  0.1228477E+00
         21   -1    0    0  504  501  0.00000000000E+00  0.00000000000E+00  0.36649619445E+02  0.36649619445E+02  0.00000000000E+00 0.  1.
         21   -1    0    0  501  502 -0.00000000000E+00 -0.00000000000E+00 -0.16770339798E+04  0.16770339798E+04  0.00000000000E+00 0. -1.
         21    1    1    2  503  502 -0.77229976493E+02 -0.10371955122E+03 -0.15512388730E+04  0.15566194961E+04  0.00000000000E+00 0. -1.
         21    1    1    2  504  503  0.77229976493E+02  0.10371955122E+03 -0.89145487342E+02  0.15706410312E+03  0.00000000000E+00 0.  1.
<mgrwt>
<rscale>  2 0.12931440E+03</rscale>
<asrwt>0</asrwt>
<pdfrwt beam="1">  1       21 0.56384030E-02 0.12931440E+03</pdfrwt>
<pdfrwt beam="2">  1       21 0.25800523E+00 0.12931440E+03</pdfrwt>
<totfact> 0.14011672E+04</totfact>
</mgrwt>
</event>
<event>
 4    1  0.6055396E+003  0.1122853E+03  0.7546771E-02  0.1256395E+00
         21   -1    0    0  503  501  0.00000000000E+00  0.00000000000E+00  0.80627419700E+01  0.80627419700E+01  0.00000000000E+00 0.  1.
         21   -1    0    0  504  502 -0.00000000000E+00 -0.00000000000E+00 -0.16069374380E+04  0.16069374380E+04  0.00000000000E+00 0. -1.
         21    1    1    2  503  502 -0.74992692533E+02 -0.83570871283E+02 -0.66703503463E+03  0.67641978969E+03  0.00000000000E+00 0.  1.
         21    1    1    2  504  501  0.74992692533E+02  0.83570871283E+02 -0.93183966137E+03  0.93858039025E+03  0.00000000000E+00 0. -1.
<mgrwt>
<rscale>  2 0.11228533E+03</rscale>
<asrwt>0</asrwt>
<pdfrwt beam="1">  1       21 0.12404225E-02 0.11228533E+03</pdfrwt>
<pdfrwt beam="2">  1       21 0.24722101E+00 0.11228533E+03</pdfrwt>
<totfact> 0.19435293E+05</totfact>
</mgrwt>
</event>
<event>
 4    1  0.6055396E+003  0.1536238E+03  0.7546771E-02  0.1196090E+00
         21   -1    0    0  503  501  0.00000000000E+00  0.00000000000E+00  0.96805324251E+02  0.96805324251E+02  0.00000000000E+00 0. -1.
         21   -1    0    0  504  502 -0.00000000000E+00 -0.00000000000E+00 -0.26090656217E+03  0.26090656217E+03  0.00000000000E+00 0. -1.
         21    1    1    2  503  502 -0.10091832289E+03 -0.11582641844E+03 -0.36241027415E+02  0.15784067655E+03  0.00000000000E+00 0. -1.
         21    1    1    2  504  501  0.10091832289E+03  0.11582641844E+03 -0.12786021050E+03  0.19987120987E+03  0.00000000000E+00 0. -1.
<mgrwt>
<rscale>  2 0.15362378E+03</rscale>
<asrwt>0</asrwt>
<pdfrwt beam="1">  1       21 0.14893127E-01 0.15362378E+03</pdfrwt>
<pdfrwt beam="2">  1       21 0.40139470E-01 0.15362378E+03</pdfrwt>
<totfact> 0.24014654E+05</totfact>
</mgrwt>
</event>
<event>
 4    1  0.6055396E+003  0.1165146E+03  0.7546771E-02  0.1248960E+00
         21   -1    0    0  502  501  0.00000000000E+00  0.00000000000E+00  0.22555697069E+04  0.22555697069E+04  0.00000000000E+00 0. -1.
         21   -1    0    0  504  502 -0.00000000000E+00 -0.00000000000E+00 -0.15348860610E+02  0.15348860610E+02  0.00000000000E+00 0. -1.
         21    1    1    2  503  501  0.10135710430E+03 -0.57466455129E+02  0.20053838925E+04  0.20087658430E+04  0.00000000000E+00 0. -1.
         21    1    1    2  504  503 -0.10135710430E+03  0.57466455129E+02  0.23483695381E+03  0.26215272445E+03  0.00000000000E+00 0. -1.
<mgrwt>
<rscale>  2 0.11651462E+03</rscale>
<asrwt>0</asrwt>
<pdfrwt beam="1">  1       21 0.34701046E+00 0.11651462E+03</pdfrwt>
<pdfrwt beam="2">  1       21 0.23613650E-02 0.11651462E+03</pdfrwt>
<totfact> 0.18977606E+04</totfact>
</mgrwt>
</event>
<event>
 4    1  0.6055396E+003  0.1000585E+03  0.7546771E-02  0.1280173E+00
         21   -1    0    0  504  501  0.00000000000E+00  0.00000000000E+00  0.64823839654E+03  0.64823839654E+03  0.00000000000E+00 0.  1.
         21   -1    0    0  503  502 -0.00000000000E+00 -0.00000000000E+00 -0.16801942679E+02  0.16801942679E+02  0.00000000000E+00 0. -1.
         21    1    1    2  503  501 -0.89518830973E+02 -0.44699919688E+02  0.22120285501E+03  0.24278057373E+03  0.00000000000E+00 0. -1.
         21    1    1    2  504  502  0.89518830973E+02  0.44699919688E+02  0.41023359885E+03  0.42225976548E+03  0.00000000000E+00 0.  1.
<mgrwt>
<rscale>  2 0.10005850E+03</rscale>
<asrwt>0</asrwt>
<pdfrwt beam="1">  1       21 0.99728965E-01 0.10005850E+03</pdfrwt>
<pdfrwt beam="2">  1       21 0.25849148E-02 0.10005850E+03</pdfrwt>
<totfact> 0.67605028E+05</totfact>
</mgrwt>
</event>
<event>
 4    1  0.6055396E+003  0.1239662E+03  0.7546771E-02  0.1236694E+00
         21   -1    0    0  502  501  0.00000000000E+00  0.00000000000E+00  0.76062777242E+03  0.76062777242E+03  0.00000000000E+00 0. -1.
         21   -1    0    0  504  502 -0.00000000000E+00 -0.00000000000E+00 -0.12782191147E+04  0.12782191147E+04  0.00000000000E+00 0.  1.
         21    1    1    2  503  501 -0.83753485038E+02 -0.91394541677E+02  0.75253905196E+03  0.76268121337E+03  0.00000000000E+00 0. -1.
         21    1    1    2  504  503  0.83753485038E+02  0.91394541677E+02 -0.12701303942E+04  0.12761656737E+04  0.00000000000E+00 0.  1.
<mgrwt>
<rscale>  2 0.12396616E+03</rscale>
<asrwt>0</asrwt>
<pdfrwt beam="1">  1       21 0.11701966E+00 0.12396616E+03</pdfrwt>
<pdfrwt beam="2">  1       21 0.19664909E+00 0.12396616E+03</pdfrwt>
<totfact> 0.89702025E+01</totfact>
</mgrwt>
</event>
<event>
 4    1  0.6055396E+003  0.1131821E+03  0.7546771E-02  0.1254788E+00
         21   -1    0    0  503  501  0.00000000000E+00  0.00000000000E+00  0.34270650307E+03  0.34270650307E+03  0.00000000000E+00 0. -1.
         21   -1    0    0  504  502 -0.00000000000E+00 -0.00000000000E+00 -0.39956162997E+02  0.39956162997E+02  0.00000000000E+00 0. -1.
         21    1    1    2  503  502  0.10322441935E+02 -0.11271037292E+03  0.19996295953E+03  0.22977242253E+03  0.00000000000E+00 0. -1.
         21    1    1    2  504  501 -0.10322441935E+02  0.11271037292E+03  0.10278738054E+03  0.15289024354E+03  0.00000000000E+00 0. -1.
<mgrwt>
<rscale>  2 0.11318207E+03</rscale>
<asrwt>0</asrwt>
<pdfrwt beam="1">  1       21 0.52724075E-01 0.11318207E+03</pdfrwt>
<pdfrwt beam="2">  1       21 0.61471022E-02 0.11318207E+03</pdfrwt>
<totfact> 0.64949851E+05</totfact>
</mgrwt>
</event>
<event>
 4    1  0.6055396E+003  0.1260283E+03  0.7546771E-02  0.1233471E+00
         21   -1    0    0  503  501  0.00000000000E+00  0.00000000000E+00  0.19124814081E+03  0.19124814081E+03  0.00000000000E+00 0.  1.
         21   -1    0    0  504  502 -0.00000000000E+00 -0.00000000000E+00 -0.34836004397E+03  0.34836004397E+03  0.00000000000E+00 0.  1.
         21    1    1    2  503  502  0.67788358245E+02 -0.10624434063E+03 -0.31401282191E+03  0.33835953327E+03  0.00000000000E+00 0.  1.
         21    1    1    2  504  501 -0.67788358245E+02  0.10624434063E+03  0.15690091875E+03  0.20124865151E+03  0.00000000000E+00 0.  1.
<mgrwt>
<rscale>  2 0.12602826E+03</rscale>
<asrwt>0</asrwt>
<pdfrwt beam="1">  1       21 0.29422791E-01 0.12602826E+03</pdfrwt>
<pdfrwt beam="2">  1       21 0.53593853E-01 0.12602826E+03</pdfrwt>
<totfact> 0.37822199E+04</totfact>
</mgrwt>
</event>
<event>
 4    1  0.6055396E+003  0.1175503E+03  0.7546771E-02  0.1247194E+00
         21   -1    0    0  502  501  0.00000000000E+00  0.00000000000E+00  0.75003865102E+02  0.75003865102E+02  0.00000000000E+00 0.  1.
         21   -1    0    0  504  502 -0.00000000000E+00 -0.00000000000E+00 -0.38791300209E+03  0.38791300209E+03  0.00000000000E+00 0. -1.
         21    1    1    2  503  501 -0.28413838623E+02 -0.11406458025E+03  0.11264188186E+02  0.11808876589E+03  0.00000000000E+00 0.  1.
         21    1    1    2  504  503  0.28413838623E+02  0.11406458025E+03 -0.32417332517E+03  0.34482810130E+03  0.00000000000E+00 0. -1.
<mgrwt>
<rscale>  2 0.11755031E+03</rscale>
<asrwt>0</asrwt>
<pdfrwt beam="1">  1       21 0.11539056E-01 0.11755031E+03</pdfrwt>
<pdfrwt beam="2">  1       21 0.59678924E-01 0.11755031E+03</pdfrwt>
<totfact> 0.16888588E+05</totfact>
</mgrwt>
</event>
<event>
 4    1  0.6055396E+003  0.1203910E+03  0.7546771E-02  0.1242453E+00
         21   -1    0    0  504  501  0.00000000000E+00  0.00000000000E+00  0.12435260202E+04  0.12435260202E+04  0.00000000000E+00 0. -1.
         21   -1    0    0  503  502 -0.00000000000E+00 -0.00000000000E+00 -0.70782723053E+02  0.70782723053E+02  0.00000000000E+00 0. -1.
         21    1    1    2  503  501 -0.96914906880E+02 -0.71424676582E+02  0.11869882254E+04  0.11930779651E+04  0.00000000000E+00 0. -1.
         21    1    1    2  504  502  0.96914906880E+02  0.71424676582E+02 -0.14244928204E+02  0.12123077819E+03  0.00000000000E+00 0. -1.
<mgrwt>
<rscale>  2 0.12039096E+03</rscale>
<asrwt>0</asrwt>
<pdfrwt beam="1">  1       21 0.19131168E+00 0.12039096E+03</pdfrwt>
<pdfrwt beam="2">  1       21 0.10889651E-01 0.12039096E+03</pdfrwt>
<totfact> 0.11423383E+04</totfact>
</mgrwt>
</event>
<event>
 4    1  0.6055396E+003  0.1123106E+03  0.7546771E-02  0.1256350E+00
         21   -1    0    0  502  501  0.00000000000E+00  0.00000000000E+00  0.70509406259E+03  0.70509406259E+03  0.00000000000E+00 0.  1.
         21   -1    0    0  504  502 -0.00000000000E+00 -0.00000000000E+00 -0.18129013719E+03  0.18129013719E+03  0.00000000000E+00 0.  1.
         21    1    1    2  503  501  0.11217863360E+03  0.54435117532E+01  0.68265958058E+03  0.69183652737E+03  0.00000000000E+00 0.  1.
         21    1    1    2  504  503 -0.11217863360E+03 -0.54435117532E+01 -0.15885565517E+03  0.19454767240E+03  0.00000000000E+00 0.  1.
<mgrwt>
<rscale>  2 0.11231063E+03</rscale>
<asrwt>0</asrwt>
<pdfrwt beam="1">  1       21 0.10847601E+00 0.11231063E+03</pdfrwt>
<pdfrwt beam="2">  1       21 0.27890791E-01 0.11231063E+03</pdfrwt>
<totfact> 0.88871088E+03</totfact>
</mgrwt>
</event>
<event>
 4    1  0.6055396E+003  0.1156473E+03  0.7546771E-02  0.1250455E+00
         21   -1    0    0  503  501  0.00000000000E+00  0.00000000000E+00  0.47909974809E+03  0.47909974809E+03  0.00000000000E+00 0. -1.
         21   -1    0    0  504  502 -0.00000000000E+00 -0.00000000000E+00 -0.42996452646E+02  0.42996452646E+02  0.00000000000E+00 0. -1.
         21    1    1    2  503  502  0.84014920549E+02  0.79471946867E+02  0.37265502152E+03  0.39018721440E+03  0.00000000000E+00 0. -1.
         21    1    1    2  504  501 -0.84014920549E+02 -0.79471946867E+02  0.63448273926E+02  0.13190898634E+03  0.00000000000E+00 0. -1.
<mgrwt>
<rscale>  2 0.11564730E+03</rscale>
<asrwt>0</asrwt>
<pdfrwt beam="1">  1       21 0.73707650E-01 0.11564730E+03</pdfrwt>
<pdfrwt beam="2">  1       21 0.66148392E-02 0.11564730E+03</pdfrwt>
<totfact> 0.28078617E+05</totfact>
</mgrwt>
</event>
<event>
 4    1  0.6055396E+003  0.1145936E+03  0.7546771E-02  0.1252292E+00
         21   -1    0    0  502  501  0.00000000000E+00  0.00000000000E+00  0.88282335014E+03  0.88282335014E+03  0.00000000000E+00 0.  1.
         21   -1    0    0  503  502 -0.00000000000E+00 -0.00000000000E+00 -0.37064244413E+02  0.37064244413E+02  0.00000000000E+00 0.  1.
         21    1    1    2  503  504 -0.10750288040E+03  0.39684167444E+02  0.67001081281E+02  0.13274353971E+03  0.00000000000E+00 0.  1.
         21    1    1    2  504  501  0.10750288040E+03 -0.39684167444E+02  0.77875802444E+03  0.78714405484E+03  0.00000000000E+00 0.  1.
<mgrwt>
<rscale>  2 0.11459364E+03</rscale>
<asrwt>0</asrwt>
<pdfrwt beam="1">  1       21 0.13581896E+00 0.11459364E+03</pdfrwt>
<pdfrwt beam="2">  1       21 0.57021921E-02 0.11459364E+03</pdfrwt>
<totfact> 0.86598614E+04</totfact>
</mgrwt>
</event>
<event>
 4    1  0.6055396E+003  0.1394533E+03  0.7546771E-02  0.1214067E+00
         21   -1    0    0  503  501  0.00000000000E+00  0.00000000000E+00  0.52885032525E+03  0.52885032525E+03  0.00000000000E+00 0. -1.
         21   -1    0    0  504  502 -0.00000000000E+00 -0.00000000000E+00 -0.12129762160E+03  0.12129762160E+03  0.00000000000E+00 0.  1.
         21    1    1    2  503  502 -0.58004533204E+02  0.12681754665E+03 -0.67585398376E+02  0.15496774530E+03  0.00000000000E+00 0.  1.
         21    1    1    2  504  501  0.58004533204E+02 -0.12681754665E+03  0.47513810202E+03  0.49518020155E+03  0.00000000000E+00 0. -1.
<mgrwt>
<rscale>  2 0.13945328E+03</rscale>
<asrwt>0</asrwt>
<pdfrwt beam="1">  1       21 0.81361587E-01 0.13945328E+03</pdfrwt>
<pdfrwt beam="2">  1       21 0.18661173E-01 0.13945328E+03</pdfrwt>
<totfact> 0.35812573E+04</totfact>
</mgrwt>
</event>
<event>
 4    1  0.6055396E+003  0.1118777E+03  0.7546771E-02  0.1257132E+00
         21   -1    0    0  503  501  0.00000000000E+00  0.00000000000E+00  0.57169134582E+02  0.57169134582E+02  0.00000000000E+00 0. -1.
         21   -1    0    0  501  502 -0.00000000000E+00 -0.00000000000E+00 -0.27941879591E+03  0.27941879591E+03  0.00000000000E+00 0. -1.
         21    1    1    2  503  504 -0.45713477020E+02  0.10211214793E+03 -0.32828366240E+02  0.11659465839E+03  0.00000000000E+00 0. -1.
         21    1    1    2  504  502  0.45713477020E+02 -0.10211214793E+03 -0.18942129509E+03  0.21999327210E+03  0.00000000000E+00 0. -1.
<mgrwt>
<rscale>  2 0.11187767E+03</rscale>
<asrwt>0</asrwt>
<pdfrwt beam="1">  1       21 0.87952514E-02 0.11187767E+03</pdfrwt>
<pdfrwt beam="2">  1       21 0.42987507E-01 0.11187767E+03</pdfrwt>
<totfact> 0.53401445E+05</totfact>
</mgrwt>
</event>
<event>
 4    1  0.6055396E+003  0.1129734E+03  0.7546771E-02  0.1255161E+00
         21   -1    0    0  502  501  0.00000000000E+00  0.00000000000E+00  0.46639394159E+03  0.46639394159E+03  0.00000000000E+00 0.  1.
         21   -1    0    0  504  502 -0.00000000000E+00 -0.00000000000E+00 -0.88978971482E+02  0.88978971482E+02  0.00000000000E+00 0. -1.
         21    1    1    2  503  501  0.85825974652E+02 -0.73463530098E+02  0.41978075925E+03  0.43471700452E+03  0.00000000000E+00 0.  1.
         21    1    1    2  504  503 -0.85825974652E+02  0.73463530098E+02 -0.42365789142E+02  0.12065590855E+03  0.00000000000E+00 0. -1.
<mgrwt>
<rscale>  2 0.11297340E+03</rscale>
<asrwt>0</asrwt>
<pdfrwt beam="1">  1       21 0.71752913E-01 0.11297340E+03</pdfrwt>
<pdfrwt beam="2">  1       21 0.13689073E-01 0.11297340E+03</pdfrwt>
<totfact> 0.84139233E+04</totfact>
</mgrwt>
</event>
<event>
 4    1  0.6055396E+003  0.1521729E+03  0.7546771E-02  0.1197828E+00
         21   -1    0    0  502  501  0.00000000000E+00  0.00000000000E+00  0.24440436868E+03  0.24440436868E+03  0.00000000000E+00 0. -1.
         21   -1    0    0  504  502 -0.00000000000E+00 -0.00000000000E+00 -0.97693682948E+02  0.97693682948E+02  0.00000000000E+00 0. -1.
         21    1    1    2  503  501  0.14846433748E+03  0.33390481803E+02  0.10306195642E+03  0.18378887518E+03  0.00000000000E+00 0. -1.
         21    1    1    2  504  503 -0.14846433748E+03 -0.33390481803E+02  0.43648729307E+02  0.15830917645E+03  0.00000000000E+00 0. -1.
<mgrwt>
<rscale>  2 0.15217287E+03</rscale>
<asrwt>0</asrwt>
<pdfrwt beam="1">  1       21 0.37600672E-01 0.15217287E+03</pdfrwt>
<pdfrwt beam="2">  1       21 0.15029797E-01 0.15217287E+03</pdfrwt>
<totfact> 0.26925700E+05</totfact>
</mgrwt>
</event>
<event>
 4    1  0.6055396E+003  0.1768694E+03  0.7546771E-02  0.1170868E+00
         21   -1    0    0  503  501  0.00000000000E+00  0.00000000000E+00  0.32106281245E+03  0.32106281245E+03  0.00000000000E+00 0.  1.
         21   -1    0    0  504  502 -0.00000000000E+00 -0.00000000000E+00 -0.99737537097E+02  0.99737537097E+02  0.00000000000E+00 0.  1.
         21    1    1    2  503  502  0.14450555997E+03  0.10198494066E+03  0.78694942465E+02  0.19358636045E+03  0.00000000000E+00 0.  1.
         21    1    1    2  504  501 -0.14450555997E+03 -0.10198494066E+03  0.14263033289E+03  0.22721398910E+03  0.00000000000E+00 0.  1.
<mgrwt>
<rscale>  2 0.17686940E+03</rscale>
<asrwt>0</asrwt>
<pdfrwt beam="1">  1       21 0.49394278E-01 0.17686940E+03</pdfrwt>
<pdfrwt beam="2">  1       21 0.15344237E-01 0.17686940E+03</pdfrwt>
<totfact> 0.14787557E+05</totfact>
</mgrwt>
</event>
<event>
 4    1  0.6055396E+003  0.1141915E+03  0.7546771E-02  0.1252999E+00
         21   -1    0    0  504  501  0.00000000000E+00  0.00000000000E+00  0.43062956842E+02  0.43062956842E+02  0.00000000000E+00 0.  1.
         21   -1    0    0  503  502 -0.00000000000E+00 -0.00000000000E+00 -0.36906676380E+03  0.36906676380E+03  0.00000000000E+00 0.  1.
         21    1    1    2  503  501  0.26954428463E+02  0.11096464376E+03 -0.25031549356E+03  0.27513185874E+03  0.00000000000E+00 0.  1.
         21    1    1    2  504  502 -0.26954428463E+02 -0.11096464376E+03 -0.75688313393E+02  0.13699786189E+03  0.00000000000E+00 0.  1.
<mgrwt>
<rscale>  2 0.11419148E+03</rscale>
<asrwt>0</asrwt>
<pdfrwt beam="1">  1       21 0.66250705E-02 0.11419148E+03</pdfrwt>
<pdfrwt beam="2">  1       21 0.56779501E-01 0.11419148E+03</pdfrwt>
<totfact> 0.49013749E+05</totfact>
</mgrwt>
</event>
<event>
 4    1  0.6055396E+003  0.1087875E+03  0.7546771E-02  0.1262832E+00
         21   -1    0    0  503  501  0.00000000000E+00  0.00000000000E+00  0.14968427484E+03  0.14968427484E+03  0.00000000000E+00 0.  1.
         21   -1    0    0  504  502 -0.00000000000E+00 -0.00000000000E+00 -0.86673206015E+02  0.86673206015E+02  0.00000000000E+00 0.  1.
         21    1    1    2  503  502  0.96463461076E+02 -0.50294399536E+02  0.66520180038E+02  0.12751337302E+03  0.00000000000E+00 0.  1.
         21    1    1    2  504  501 -0.96463461076E+02  0.50294399536E+02 -0.35091112155E+01  0.10884410783E+03  0.00000000000E+00 0.  1.
<mgrwt>
<rscale>  2 0.10878753E+03</rscale>
<asrwt>0</asrwt>
<pdfrwt beam="1">  1       21 0.23028350E-01 0.10878753E+03</pdfrwt>
<pdfrwt beam="2">  1       21 0.13334339E-01 0.10878753E+03</pdfrwt>
<totfact> 0.86095015E+05</totfact>
</mgrwt>
</event>
<event>
 4    1  0.6055396E+003  0.1015112E+03  0.7546771E-02  0.1277150E+00
         21   -1    0    0  503  501  0.00000000000E+00  0.00000000000E+00  0.24941592096E+03  0.24941592096E+03  0.00000000000E+00 0.  1.
         21   -1    0    0  501  502 -0.00000000000E+00 -0.00000000000E+00 -0.94437615410E+02  0.94437615410E+02  0.00000000000E+00 0.  1.
         21    1    1    2  503  504  0.49600412116E+02  0.88568170558E+02  0.20643646922E+03  0.23004464250E+03  0.00000000000E+00 0.  1.
         21    1    1    2  504  502 -0.49600412116E+02 -0.88568170558E+02 -0.51458163663E+02  0.11380889388E+03  0.00000000000E+00 0.  1.
<mgrwt>
<rscale>  2 0.10151119E+03</rscale>
<asrwt>0</asrwt>
<pdfrwt beam="1">  1       21 0.38371680E-01 0.10151119E+03</pdfrwt>
<pdfrwt beam="2">  1       21 0.14528864E-01 0.10151119E+03</pdfrwt>
<totfact> 0.27771077E+05</totfact>
</mgrwt>
</event>
<event>
 4    1  0.6055396E+003  0.1112914E+03  0.7546771E-02  0.1258197E+00
         21   -1    0    0  504  501  0.00000000000E+00  0.00000000000E+00  0.23841236741E+03  0.23841236741E+03  0.00000000000E+00 0.  1.
         21   -1    0    0  503  502 -0.00000000000E+00 -0.00000000000E+00 -0.55107611594E+02  0.55107611594E+02  0.00000000000E+00 0.  1.
         21    1    1    2  503  501 -0.15711741884E+02  0.11017678173E+03  0.12677657004E+03  0.16869523045E+03  0.00000000000E+00 0.  1.
         21    1    1    2  504  502  0.15711741884E+02 -0.11017678173E+03  0.56528185772E+02  0.12482474855E+03  0.00000000000E+00 0.  1.
<mgrwt>
<rscale>  2 0.11129143E+03</rscale>
<asrwt>0</asrwt>
<pdfrwt beam="1">  1       21 0.36678825E-01 0.11129143E+03</pdfrwt>
<pdfrwt beam="2">  1       21 0.84780942E-02 0.11129143E+03</pdfrwt>
<totfact> 0.78016567E+05</totfact>
</mgrwt>
</event>
<event>
 4    1  0.6055396E+003  0.1029802E+03  0.7546771E-02  0.1274151E+00
         21   -1    0    0  503  501  0.00000000000E+00  0.00000000000E+00  0.90313968522E+03  0.90313968522E+03  0.00000000000E+00 0.  1.
         21   -1    0    0  501  502 -0.00000000000E+00 -0.00000000000E+00 -0.24996740520E+02  0.24996740520E+02  0.00000000000E+00 0. -1.
         21    1    1    2  503  504 -0.10156030975E+03 -0.17042103437E+02  0.77699697135E+03  0.78379156878E+03  0.00000000000E+00 0.  1.
         21    1    1    2  504  502  0.10156030975E+03  0.17042103437E+02  0.10114597336E+03  0.14434485697E+03  0.00000000000E+00 0. -1.
<mgrwt>
<rscale>  2 0.10298024E+03</rscale>
<asrwt>0</asrwt>
<pdfrwt beam="1">  1       21 0.13894454E+00 0.10298024E+03</pdfrwt>
<pdfrwt beam="2">  1       21 0.38456531E-02 0.10298024E+03</pdfrwt>
<totfact> 0.15874736E+05</totfact>
</mgrwt>
</event>
<event>
 4    1  0.6055396E+003  0.1416243E+03  0.7546771E-02  0.1211160E+00
         21   -1    0    0  504  501  0.00000000000E+00  0.00000000000E+00  0.70924344768E+03  0.70924344768E+03  0.00000000000E+00 0. -1.
         21   -1    0    0  503  502 -0.00000000000E+00 -0.00000000000E+00 -0.32672147472E+02  0.32672147472E+02  0.00000000000E+00 0. -1.
         21    1    1    2  503  501  0.13658624547E+03  0.37438659309E+02  0.47429556488E+03  0.49498862464E+03  0.00000000000E+00 0. -1.
         21    1    1    2  504  502 -0.13658624547E+03 -0.37438659309E+02  0.20227573533E+03  0.24692697051E+03  0.00000000000E+00 0. -1.
<mgrwt>
<rscale>  2 0.14162435E+03</rscale>
<asrwt>0</asrwt>
<pdfrwt beam="1">  1       21 0.10911437E+00 0.14162435E+03</pdfrwt>
<pdfrwt beam="2">  1       21 0.50264847E-02 0.14162435E+03</pdfrwt>
<totfact> 0.18072586E+05</totfact>
</mgrwt>
</event>
<event>
 4    1  0.6055396E+003  0.1535298E+03  0.7546771E-02  0.1196202E+00
         21   -1    0    0  503  501  0.00000000000E+00  0.00000000000E+00  0.11892588326E+03  0.11892588326E+03  0.00000000000E+00 0. -1.
         21   -1    0    0  504  502 -0.00000000000E+00 -0.00000000000E+00 -0.19890241466E+03  0.19890241466E+03  0.00000000000E+00 0. -1.
         21    1    1    2  503  502  0.25951984230E+02  0.15132048747E+03 -0.30560771012E+02  0.15654186704E+03  0.00000000000E+00 0. -1.
         21    1    1    2  504  501 -0.25951984230E+02 -0.15132048747E+03 -0.49415760388E+02  0.16128643088E+03  0.00000000000E+00 0. -1.
<mgrwt>
<rscale>  2 0.15352979E+03</rscale>
<asrwt>0</asrwt>
<pdfrwt beam="1">  1       21 0.18296290E-01 0.15352979E+03</pdfrwt>
<pdfrwt beam="2">  1       21 0.30600371E-01 0.15352979E+03</pdfrwt>
<totfact> 0.28185324E+05</totfact>
</mgrwt>
</event>
<event>
 4    1  0.6055396E+003  0.1622315E+03  0.7546771E-02  0.1186200E+00
         21   -1    0    0  503  501  0.00000000000E+00  0.00000000000E+00  0.22017617459E+04  0.22017617459E+04  0.00000000000E+00 0.  1.
         21   -1    0    0  501  502 -0.00000000000E+00 -0.00000000000E+00 -0.34600848443E+02  0.34600848443E+02  0.00000000000E+00 0.  1.
         21    1    1    2  503  504 -0.50780347726E+02  0.15407920216E+03  0.19882214943E+04  0.19948292545E+04  0.00000000000E+00 0.  1.
         21    1    1    2  504  502  0.50780347726E+02 -0.15407920216E+03  0.17893940321E+03  0.24153333989E+03  0.00000000000E+00 0.  1.
<mgrwt>
<rscale>  2 0.16223145E+03</rscale>
<asrwt>0</asrwt>
<pdfrwt beam="1">  1       21 0.33873247E+00 0.16223145E+03</pdfrwt>
<pdfrwt beam="2">  1       21 0.53232092E-02 0.16223145E+03</pdfrwt>
<totfact> 0.51310211E+03</totfact>
</mgrwt>
</event>
<event>
 4    1  0.6055396E+003  0.1099013E+03  0.7546771E-02  0.1260753E+00
         21   -1    0    0  502  501  0.00000000000E+00  0.00000000000E+00  0.47362278675E+02  0.47362278675E+02  0.00000000000E+00 0. -1.
         21   -1    0    0  504  502 -0.00000000000E+00 -0.00000000000E+00 -0.36328302847E+03  0.36328302847E+03  0.00000000000E+00 0. -1.
         21    1    1    2  503  501  0.37725996989E+02  0.10322324046E+03 -0.45873155068E+02  0.11909086688E+03  0.00000000000E+00 0. -1.
         21    1    1    2  504  503 -0.37725996989E+02 -0.10322324046E+03 -0.27004759473E+03  0.29155444026E+03  0.00000000000E+00 0. -1.
<mgrwt>
<rscale>  2 0.10990127E+03</rscale>
<asrwt>0</asrwt>
<pdfrwt beam="1">  1       21 0.72865046E-02 0.10990127E+03</pdfrwt>
<pdfrwt beam="2">  1       21 0.55889695E-01 0.10990127E+03</pdfrwt>
<totfact> 0.43098577E+05</totfact>
</mgrwt>
</event>
<event>
 4    1  0.6055396E+003  0.1286811E+03  0.7546771E-02  0.1229426E+00
         21   -1    0    0  504  501  0.00000000000E+00  0.00000000000E+00  0.33751516247E+02  0.33751516247E+02  0.00000000000E+00 0.  1.
         21   -1    0    0  503  502 -0.00000000000E+00 -0.00000000000E+00 -0.74550604360E+03  0.74550604360E+03  0.00000000000E+00 0. -1.
         21    1    1    2  503  501 -0.79040144670E+02  0.10154551110E+03 -0.12804937110E+03  0.18153643363E+03  0.00000000000E+00 0.  1.
         21    1    1    2  504  502  0.79040144670E+02 -0.10154551110E+03 -0.58370515625E+03  0.59772112621E+03  0.00000000000E+00 0. -1.
<mgrwt>
<rscale>  2 0.12868114E+03</rscale>
<asrwt>0</asrwt>
<pdfrwt beam="1">  1       21 0.51925409E-02 0.12868114E+03</pdfrwt>
<pdfrwt beam="2">  1       21 0.11469324E+00 0.12868114E+03</pdfrwt>
<totfact> 0.15253396E+05</totfact>
</mgrwt>
</event>
<event>
 4    1  0.6055396E+003  0.1326225E+03  0.7546771E-02  0.1223615E+00
         21   -1    0    0  503  501  0.00000000000E+00  0.00000000000E+00  0.28186494240E+02  0.28186494240E+02  0.00000000000E+00 0.  1.
         21   -1    0    0  504  502 -0.00000000000E+00 -0.00000000000E+00 -0.97383485270E+03  0.97383485270E+03  0.00000000000E+00 0.  1.
         21    1    1    2  503  502 -0.13231524230E+03 -0.90229060553E+01 -0.77310517512E+03  0.78439808004E+03  0.00000000000E+00 0.  1.
         21    1    1    2  504  501  0.13231524230E+03  0.90229060553E+01 -0.17254318334E+03  0.21762326689E+03  0.00000000000E+00 0.  1.
<mgrwt>
<rscale>  2 0.13262253E+03</rscale>
<asrwt>0</asrwt>
<pdfrwt beam="1">  1       21 0.43363839E-02 0.13262253E+03</pdfrwt>
<pdfrwt beam="2">  1       21 0.14982074E+00 0.13262253E+03</pdfrwt>
<totfact> 0.10565220E+05</totfact>
</mgrwt>
</event>
<event>
 4    1  0.6055396E+003  0.1044322E+03  0.7546771E-02  0.1271242E+00
         21   -1    0    0  504  501  0.00000000000E+00  0.00000000000E+00  0.28683524399E+03  0.28683524399E+03  0.00000000000E+00 0.  1.
         21   -1    0    0  501  502 -0.00000000000E+00 -0.00000000000E+00 -0.40904382105E+03  0.40904382105E+03  0.00000000000E+00 0.  1.
         21    1    1    2  503  502  0.70473174482E+02  0.77068945224E+02 -0.39247834182E+03  0.40613463216E+03  0.00000000000E+00 0.  1.
         21    1    1    2  504  503 -0.70473174482E+02 -0.77068945224E+02  0.27026976476E+03  0.28974443288E+03  0.00000000000E+00 0.  1.
<mgrwt>
<rscale>  2 0.10443223E+03</rscale>
<asrwt>0</asrwt>
<pdfrwt beam="1">  1       21 0.44128499E-01 0.10443223E+03</pdfrwt>
<pdfrwt beam="2">  1       21 0.62929819E-01 0.10443223E+03</pdfrwt>
<totfact> 0.12371478E+04</totfact>
</mgrwt>
</event>
<event>
 4    1  0.6055396E+003  0.1015289E+03  0.7546771E-02  0.1277113E+00
         21   -1    0    0  503  501  0.00000000000E+00  0.00000000000E+00  0.34822505627E+03  0.34822505627E+03  0.00000000000E+00 0.  1.
         21   -1    0    0  504  502 -0.00000000000E+00 -0.00000000000E+00 -0.32477235278E+02  0.32477235278E+02  0.00000000000E+00 0.  1.
         21    1    1    2  503  502 -0.15297677383E+02  0.10036984466E+03  0.21451217294E+03  0.23732592987E+03  0.00000000000E+00 0.  1.
         21    1    1    2  504  501  0.15297677383E+02 -0.10036984466E+03  0.10123564806E+03  0.14337636168E+03  0.00000000000E+00 0.  1.
<mgrwt>
<rscale>  2 0.10152894E+03</rscale>
<asrwt>0</asrwt>
<pdfrwt beam="1">  1       21 0.53573083E-01 0.10152894E+03</pdfrwt>
<pdfrwt beam="2">  1       21 0.49964980E-02 0.10152894E+03</pdfrwt>
<totfact> 0.88979606E+05</totfact>
</mgrwt>
</event>
<event>
 4    1  0.6055396E+003  0.1402253E+03  0.7546771E-02  0.1213026E+00
         21   -1    0    0  504  501  0.00000000000E+00  0.00000000000E+00  0.69888924768E+02  0.69888924768E+02  0.00000000000E+00 0. -1.
         21   -1    0    0  501  502 -0.00000000000E+00 -0.00000000000E+00 -0.56973984529E+03  0.56973984529E+03  0.00000000000E+00 0. -1.
         21    1    1    2  503  502  0.71453734502E+02 -0.12065441697E+03 -0.47746193255E+03  0.49762739227E+03  0.00000000000E+00 0. -1.
         21    1    1    2  504  503 -0.71453734502E+02  0.12065441697E+03 -0.22388987970E+02  0.14200137778E+03  0.00000000000E+00 0. -1.
<mgrwt>
<rscale>  2 0.14022526E+03</rscale>
<asrwt>0</asrwt>
<pdfrwt beam="1">  1       21 0.10752142E-01 0.14022526E+03</pdfrwt>
<pdfrwt beam="2">  1       21 0.87652286E-01 0.14022526E+03</pdfrwt>
<totfact> 0.81547534E+04</totfact>
</mgrwt>
</event>
<event>
 4    1  0.6055396E+003  0.1112939E+03  0.7546771E-02  0.1258192E+00
         21   -1    0    0  504  501  0.00000000000E+00  0.00000000000E+00  0.80260031785E+01  0.80260031785E+01  0.00000000000E+00 0.  1.
         21   -1    0    0  503  502 -0.00000000000E+00 -0.00000000000E+00 -0.17196521611E+04  0.17196521611E+04  0.00000000000E+00 0.  1.
         21    1    1    2  503  501  0.66532836556E+02  0.89217194190E+02 -0.57916075184E+03  0.58975715557E+03  0.00000000000E+00 0.  1.
         21    1    1    2  504  502 -0.66532836556E+02 -0.89217194190E+02 -0.11324654061E+04  0.11379210087E+04  0.00000000000E+00 0.  1.
<mgrwt>
<rscale>  2 0.11129387E+03</rscale>
<asrwt>0</asrwt>
<pdfrwt beam="1">  1       21 0.12347689E-02 0.11129387E+03</pdfrwt>
<pdfrwt beam="2">  1       21 0.26456205E+00 0.11129387E+03</pdfrwt>
<totfact> 0.15632355E+05</totfact>
</mgrwt>
</event>
<event>
 4    1  0.6055396E+003  0.1263579E+03  0.7546771E-02  0.1232962E+00
         21   -1    0    0  504  501  0.00000000000E+00  0.00000000000E+00  0.84483327884E+02  0.84483327884E+02  0.00000000000E+00 0. -1.
         21   -1    0    0  501  502 -0.00000000000E+00 -0.00000000000E+00 -0.28194918765E+03  0.28194918765E+03  0.00000000000E+00 0.  1.
         21    1    1    2  503  502  0.10623571029E+03 -0.68412720893E+02 -0.20393630073E+03  0.23990902709E+03  0.00000000000E+00 0.  1.
         21    1    1    2  504  503 -0.10623571029E+03  0.68412720893E+02  0.64704409679E+01  0.12652348844E+03  0.00000000000E+00 0. -1.
<mgrwt>
<rscale>  2 0.12635793E+03</rscale>
<asrwt>0</asrwt>
<pdfrwt beam="1">  1       21 0.12997435E-01 0.12635793E+03</pdfrwt>
<pdfrwt beam="2">  1       21 0.43376798E-01 0.12635793E+03</pdfrwt>
<totfact> 0.26381209E+05</totfact>
</mgrwt>
</event>
<event>
 4    1  0.6055396E+003  0.1068949E+03  0.7546771E-02  0.1266430E+00
         21   -1    0    0  504  501  0.00000000000E+00  0.00000000000E+00  0.17182302109E+03  0.17182302109E+03  0.00000000000E+00 0. -1.
         21   -1    0    0  501  502 -0.00000000000E+00 -0.00000000000E+00 -0.24687199685E+03  0.24687199685E+03  0.00000000000E+00 0.  1.
         21    1    1    2  503  502 -0.52917082233E+02  0.92877897060E+02 -0.21646736021E+03  0.24142211868E+03  0.00000000000E+00 0.  1.
         21    1    1    2  504  503  0.52917082233E+02 -0.92877897060E+02  0.14141838445E+03  0.17727289927E+03  0.00000000000E+00 0. -1.
<mgrwt>
<rscale>  2 0.10689491E+03</rscale>
<asrwt>0</asrwt>
<pdfrwt beam="1">  1       21 0.26434311E-01 0.10689491E+03</pdfrwt>
<pdfrwt beam="2">  1       21 0.37980307E-01 0.10689491E+03</pdfrwt>
<totfact> 0.94269415E+04</totfact>
</mgrwt>
</event>
<event>
 4    1  0.6055396E+003  0.1117353E+03  0.7546771E-02  0.1257390E+00
         21   -1    0    0  504  501  0.00000000000E+00  0.00000000000E+00  0.33119796492E+02  0.33119796492E+02  0.00000000000E+00 0. -1.
         21   -1    0    0  503  502 -0.00000000000E+00 -0.00000000000E+00 -0.47770106345E+03  0.47770106345E+03  0.00000000000E+00 0. -1.
         21    1    1    2  503  501  0.92953305263E+02 -0.62003680407E+02 -0.33958253559E+03  0.35749275772E+03  0.00000000000E+00 0. -1.
         21    1    1    2  504  502 -0.92953305263E+02  0.62003680407E+02 -0.10499873137E+03  0.15332810223E+03  0.00000000000E+00 0. -1.
<mgrwt>
<rscale>  2 0.11173528E+03</rscale>
<asrwt>0</asrwt>
<pdfrwt beam="1">  1       21 0.50953533E-02 0.11173528E+03</pdfrwt>
<pdfrwt beam="2">  1       21 0.73492471E-01 0.11173528E+03</pdfrwt>
<totfact> 0.43927800E+05</totfact>
</mgrwt>
</event>
<event>
 4    1  0.6055396E+003  0.1078922E+03  0.7546771E-02  0.1264524E+00
         21   -1    0    0  502  501  0.00000000000E+00  0.00000000000E+00  0.19450595420E+03  0.19450595420E+03  0.00000000000E+00 0.  1.
         21   -1    0    0  504  502 -0.00000000000E+00 -0.00000000000E+00 -0.10192150006E+04  0.10192150006E+04  0.00000000000E+00 0. -1.
         21    1    1    2  503  501  0.77104102724E+02  0.75469748699E+02  0.17641919626E+03  0.20679569250E+03  0.00000000000E+00 0.  1.
         21    1    1    2  504  503 -0.77104102724E+02 -0.75469748699E+02 -0.10011282426E+04  0.10069252623E+04  0.00000000000E+00 0. -1.
<mgrwt>
<rscale>  2 0.10789219E+03</rscale>
<asrwt>0</asrwt>
<pdfrwt beam="1">  1       21 0.29923993E-01 0.10789219E+03</pdfrwt>
<pdfrwt beam="2">  1       21 0.15680231E+00 0.10789219E+03</pdfrwt>
<totfact> 0.31338855E+03</totfact>
</mgrwt>
</event>
<event>
 4    1  0.6055396E+003  0.1037457E+03  0.7546771E-02  0.1272611E+00
         21   -1    0    0  503  501  0.00000000000E+00  0.00000000000E+00  0.76320670322E+03  0.76320670322E+03  0.00000000000E+00 0.  1.
         21   -1    0    0  501  502 -0.00000000000E+00 -0.00000000000E+00 -0.31041712406E+02  0.31041712406E+02  0.00000000000E+00 0.  1.
         21    1    1    2  503  504 -0.25045067418E+02 -0.10067724631E+03  0.65944151648E+03  0.66755245261E+03  0.00000000000E+00 0.  1.
         21    1    1    2  504  502  0.25045067418E+02  0.10067724631E+03  0.72723474333E+02  0.12669596302E+03  0.00000000000E+00 0.  1.
<mgrwt>
<rscale>  2 0.10374567E+03</rscale>
<asrwt>0</asrwt>
<pdfrwt beam="1">  1       21 0.11741640E+00 0.10374567E+03</pdfrwt>
<pdfrwt beam="2">  1       21 0.47756486E-02 0.10374567E+03</pdfrwt>
<totfact> 0.16761059E+05</totfact>
</mgrwt>
</event>
<event>
 4    1  0.6055396E+003  0.1231048E+03  0.7546771E-02  0.1238061E+00
         21   -1    0    0  503  501  0.00000000000E+00  0.00000000000E+00  0.51100404850E+02  0.51100404850E+02  0.00000000000E+00 0.  1.
         21   -1    0    0  504  502 -0.00000000000E+00 -0.00000000000E+00 -0.92443430677E+03  0.92443430677E+03  0.00000000000E+00 0. -1.
         21    1    1    2  503  502 -0.53657238792E+02 -0.11079573819E+03 -0.34683702966E+02  0.12789743596E+03  0.00000000000E+00 0.  1.
         21    1    1    2  504  501  0.53657238792E+02  0.11079573819E+03 -0.83865019895E+03  0.84763727565E+03  0.00000000000E+00 0. -1.
<mgrwt>
<rscale>  2 0.12310481E+03</rscale>
<asrwt>0</asrwt>
<pdfrwt beam="1">  1       21 0.78616014E-02 0.12310481E+03</pdfrwt>
<pdfrwt beam="2">  1       21 0.14222065E+00 0.12310481E+03</pdfrwt>
<totfact> 0.44360323E+04</totfact>
</mgrwt>
</event>
<event>
 4    1  0.6055396E+003  0.1168366E+03  0.7546771E-02  0.1248409E+00
         21   -1    0    0  503  501  0.00000000000E+00  0.00000000000E+00  0.47320735396E+02  0.47320735396E+02  0.00000000000E+00 0. -1.
         21   -1    0    0  504  502 -0.00000000000E+00 -0.00000000000E+00 -0.89033614421E+03  0.89033614421E+03  0.00000000000E+00 0. -1.
         21    1    1    2  503  502 -0.51547104149E+02 -0.10485076188E+03 -0.36042146070E+02  0.12226946678E+03  0.00000000000E+00 0. -1.
         21    1    1    2  504  501  0.51547104149E+02  0.10485076188E+03 -0.80697326275E+03  0.81538741283E+03  0.00000000000E+00 0. -1.
<mgrwt>
<rscale>  2 0.11683658E+03</rscale>
<asrwt>0</asrwt>
<pdfrwt beam="1">  1       21 0.72801140E-02 0.11683658E+03</pdfrwt>
<pdfrwt beam="2">  1       21 0.13697477E+00 0.11683658E+03</pdfrwt>
<totfact> 0.55914018E+04</totfact>
</mgrwt>
</event>
<event>
 4    1  0.6055396E+003  0.1583352E+03  0.7546771E-02  0.1190589E+00
         21   -1    0    0  504  501  0.00000000000E+00  0.00000000000E+00  0.82788609115E+02  0.82788609115E+02  0.00000000000E+00 0. -1.
         21   -1    0    0  503  502 -0.00000000000E+00 -0.00000000000E+00 -0.12215183828E+04  0.12215183828E+04  0.00000000000E+00 0. -1.
         21    1    1    2  503  501 -0.12007151177E+03  0.10321273312E+03 -0.11349348400E+04  0.11459263184E+04  0.00000000000E+00 0. -1.
         21    1    1    2  504  502  0.12007151177E+03 -0.10321273312E+03 -0.37949337001E+01  0.15838067350E+03  0.00000000000E+00 0. -1.
<mgrwt>
<rscale>  2 0.15833520E+03</rscale>
<asrwt>0</asrwt>
<pdfrwt beam="1">  1       21 0.12736708E-01 0.15833520E+03</pdfrwt>
<pdfrwt beam="2">  1       21 0.18792591E+00 0.15833520E+03</pdfrwt>
<totfact> 0.87540643E+03</totfact>
</mgrwt>
</event>
<event>
 4    1  0.6055396E+003  0.1021433E+03  0.7546771E-02  0.1275852E+00
         21   -1    0    0  503  501  0.00000000000E+00  0.00000000000E+00  0.10401800885E+03  0.10401800885E+03  0.00000000000E+00 0. -1.
         21   -1    0    0  501  502 -0.00000000000E+00 -0.00000000000E+00 -0.40834487970E+03  0.40834487970E+03  0.00000000000E+00 0.  1.
         21    1    1    2  503  504 -0.10033530670E+03  0.19133235667E+02  0.70341386894E+02  0.12402082562E+03  0.00000000000E+00 0. -1.
         21    1    1    2  504  502  0.10033530670E+03 -0.19133235667E+02 -0.37466825775E+03  0.38834206293E+03  0.00000000000E+00 0.  1.
<mgrwt>
<rscale>  2 0.10214330E+03</rscale>
<asrwt>0</asrwt>
<pdfrwt beam="1">  1       21 0.16002771E-01 0.10214330E+03</pdfrwt>
<pdfrwt beam="2">  1       21 0.62822288E-01 0.10214330E+03</pdfrwt>
<totfact> 0.85152236E+04</totfact>
</mgrwt>
</event>
<event>
 4    1  0.6055396E+003  0.1773509E+03  0.7546771E-02  0.1170392E+00
         21   -1    0    0  503  501  0.00000000000E+00  0.00000000000E+00  0.88822626380E+03  0.88822626380E+03  0.00000000000E+00 0. -1.
         21   -1    0    0  504  502 -0.00000000000E+00 -0.00000000000E+00 -0.65575551725E+02  0.65575551725E+02  0.00000000000E+00 0. -1.
         21    1    1    2  503  502 -0.34871266168E+02  0.17388889785E+03  0.73477194910E+03  0.75587245696E+03  0.00000000000E+00 0. -1.
         21    1    1    2  504  501  0.34871266168E+02 -0.17388889785E+03  0.87878762975E+02  0.19792935857E+03  0.00000000000E+00 0. -1.
<mgrwt>
<rscale>  2 0.17735093E+03</rscale>
<asrwt>0</asrwt>
<pdfrwt beam="1">  1       21 0.13665019E+00 0.17735093E+03</pdfrwt>
<pdfrwt beam="2">  1       21 0.10088547E-01 0.17735093E+03</pdfrwt>
<totfact> 0.30711016E+04</totfact>
</mgrwt>
</event>
<event>
 4    1  0.6055396E+003  0.1037690E+03  0.7546771E-02  0.1272564E+00
         21   -1    0    0  503  501  0.00000000000E+00  0.00000000000E+00  0.35056905790E+03  0.35056905790E+03  0.00000000000E+00 0.  1.
         21   -1    0    0  504  502 -0.00000000000E+00 -0.00000000000E+00 -0.37665865534E+02  0.37665865534E+02  0.00000000000E+00 0.  1.
         21    1    1    2  503  502 -0.24303182914E+02  0.10088286005E+03  0.23983626899E+03  0.26132246760E+03  0.00000000000E+00 0.  1.
         21    1    1    2  504  501  0.24303182914E+02 -0.10088286005E+03  0.73066923375E+02  0.12691245583E+03  0.00000000000E+00 0.  1.
<mgrwt>
<rscale>  2 0.10376896E+03</rscale>
<asrwt>0</asrwt>
<pdfrwt beam="1">  1       21 0.53933699E-01 0.10376896E+03</pdfrwt>
<pdfrwt beam="2">  1       21 0.57947488E-02 0.10376896E+03</pdfrwt>
<totfact> 0.68457152E+05</totfact>
</mgrwt>
</event>
<event>
 4    1  0.6055396E+003  0.1030027E+03  0.7546771E-02  0.1274105E+00
         21   -1    0    0  503  501  0.00000000000E+00  0.00000000000E+00  0.50327249547E+02  0.50327249547E+02  0.00000000000E+00 0. -1.
         21   -1    0    0  504  502 -0.00000000000E+00 -0.00000000000E+00 -0.29223672968E+03  0.29223672968E+03  0.00000000000E+00 0. -1.
         21    1    1    2  503  502  0.92947168438E+02 -0.44388931359E+02 -0.21136637138E+03  0.23512825500E+03  0.00000000000E+00 0. -1.
         21    1    1    2  504  501 -0.92947168438E+02  0.44388931359E+02 -0.30543108749E+02  0.10743572423E+03  0.00000000000E+00 0. -1.
<mgrwt>
<rscale>  2 0.10300269E+03</rscale>
<asrwt>0</asrwt>
<pdfrwt beam="1">  1       21 0.77426540E-02 0.10300269E+03</pdfrwt>
<pdfrwt beam="2">  1       21 0.44959496E-01 0.10300269E+03</pdfrwt>
<totfact> 0.60752034E+05</totfact>
</mgrwt>
</event>
<event>
 4    1  0.6055396E+003  0.1031640E+03  0.7546771E-02  0.1273780E+00
         21   -1    0    0  503  501  0.00000000000E+00  0.00000000000E+00  0.14111733828E+03  0.14111733828E+03  0.00000000000E+00 0.  1.
         21   -1    0    0  504  502 -0.00000000000E+00 -0.00000000000E+00 -0.22721353828E+03  0.22721353828E+03  0.00000000000E+00 0.  1.
         21    1    1    2  503  502 -0.86538202277E+02  0.56159959075E+02  0.10748097381E+03  0.14897973415E+03  0.00000000000E+00 0.  1.
         21    1    1    2  504  501  0.86538202277E+02 -0.56159959075E+02 -0.19357717381E+03  0.21935114241E+03  0.00000000000E+00 0.  1.
<mgrwt>
<rscale>  2 0.10316395E+03</rscale>
<asrwt>0</asrwt>
<pdfrwt beam="1">  1       21 0.21710360E-01 0.10316395E+03</pdfrwt>
<pdfrwt beam="2">  1       21 0.34955929E-01 0.10316395E+03</pdfrwt>
<totfact> 0.16060661E+05</totfact>
</mgrwt>
</event>
<event>
 4    1  0.6055396E+003  0.1235333E+03  0.7546771E-02  0.1237379E+00
         21   -1    0    0  502  501  0.00000000000E+00  0.00000000000E+00  0.53556191150E+03  0.53556191150E+03  0.00000000000E+00 0.  1.
         21   -1    0    0  504  502 -0.00000000000E+00 -0.00000000000E+00 -0.31339066474E+02  0.31339066474E+02  0.00000000000E+00 0. -1.
         21    1    1    2  503  501  0.37590267646E+01  0.12347608055E+03  0.33751104068E+03  0.35940809024E+03  0.00000000000E+00 0.  1.
         21    1    1    2  504  503 -0.37590267646E+01 -0.12347608055E+03  0.16671180435E+03  0.20749288773E+03  0.00000000000E+00 0. -1.
<mgrwt>
<rscale>  2 0.12353329E+03</rscale>
<asrwt>0</asrwt>
<pdfrwt beam="1">  1       21 0.82394134E-01 0.12353329E+03</pdfrwt>
<pdfrwt beam="2">  1       21 0.48213952E-02 0.12353329E+03</pdfrwt>
<totfact> 0.37330914E+05</totfact>
</mgrwt>
</event>
<event>
 4    1  0.6055396E+003  0.1017391E+03  0.7546771E-02  0.1276681E+00
         21   -1    0    0  503  501  0.00000000000E+00  0.00000000000E+00  0.82929917963E+02  0.82929917963E+02  0.00000000000E+00 0. -1.
         21   -1    0    0  504  502 -0.00000000000E+00 -0.00000000000E+00 -0.17102215192E+03  0.17102215192E+03  0.00000000000E+00 0. -1.
         21    1    1    2  503  502  0.40581128516E+02 -0.93295323955E+02 -0.11004751564E+03  0.14987094836E+03  0.00000000000E+00 0. -1.
         21    1    1    2  504  501 -0.40581128516E+02  0.93295323955E+02  0.21955281684E+02  0.10408112152E+03  0.00000000000E+00 0. -1.
<mgrwt>
<rscale>  2 0.10173910E+03</rscale>
<asrwt>0</asrwt>
<pdfrwt beam="1">  1       21 0.12758449E-01 0.10173910E+03</pdfrwt>
<pdfrwt beam="2">  1       21 0.26311100E-01 0.10173910E+03</pdfrwt>
<totfact> 0.72462893E+05</totfact>
</mgrwt>
</event>
<event>
 4    1  0.6055396E+003  0.1073697E+03  0.7546771E-02  0.1265520E+00
         21   -1    0    0  503  501  0.00000000000E+00  0.00000000000E+00  0.73129290469E+03  0.73129290469E+03  0.00000000000E+00 0. -1.
         21   -1    0    0  504  502 -0.00000000000E+00 -0.00000000000E+00 -0.25611775036E+02  0.25611775036E+02  0.00000000000E+00 0. -1.
         21    1    1    2  503  502 -0.10550187369E+03  0.19939994956E+02  0.58750969867E+03  0.59724023205E+03  0.00000000000E+00 0. -1.
         21    1    1    2  504  501  0.10550187369E+03 -0.19939994956E+02  0.11817143099E+03  0.15966444768E+03  0.00000000000E+00 0. -1.
<mgrwt>
<rscale>  2 0.10736968E+03</rscale>
<asrwt>0</asrwt>
<pdfrwt beam="1">  1       21 0.11250658E+00 0.10736968E+03</pdfrwt>
<pdfrwt beam="2">  1       21 0.39402736E-02 0.10736968E+03</pdfrwt>
<totfact> 0.25503280E+05</totfact>
</mgrwt>
</event>
<event>
 4    1  0.6055396E+003  0.1000885E+03  0.7546771E-02  0.1280110E+00
         21   -1    0    0  503  501  0.00000000000E+00  0.00000000000E+00  0.18561245327E+03  0.18561245327E+03  0.00000000000E+00 0.  1.
         21   -1    0    0  504  502 -0.00000000000E+00 -0.00000000000E+00 -0.80323918023E+02  0.80323918023E+02  0.00000000000E+00 0.  1.
         21    1    1    2  503  502 -0.69178619789E+02  0.72332740334E+02 -0.23517830507E+02  0.10281437211E+03  0.00000000000E+00 0.  1.
         21    1    1    2  504  501  0.69178619789E+02 -0.72332740334E+02  0.12880636575E+03  0.16312199919E+03  0.00000000000E+00 0.  1.
<mgrwt>
<rscale>  2 0.10008849E+03</rscale>
<asrwt>0</asrwt>
<pdfrwt beam="1">  1       21 0.28555762E-01 0.10008849E+03</pdfrwt>
<pdfrwt beam="2">  1       21 0.12357526E-01 0.10008849E+03</pdfrwt>
<totfact> 0.65636356E+05</totfact>
</mgrwt>
</event>
<event>
 4    1  0.6055396E+003  0.1065735E+03  0.7546771E-02  0.1267050E+00
         21   -1    0    0  503  501  0.00000000000E+00  0.00000000000E+00  0.50525972573E+01  0.50525972573E+01  0.00000000000E+00 0.  1.
         21   -1    0    0  501  502 -0.00000000000E+00 -0.00000000000E+00 -0.23438992852E+04  0.23438992852E+04  0.00000000000E+00 0. -1.
         21    1    1    2  503  504  0.41367106205E+02  0.98217443133E+02 -0.93177629503E+03  0.93785125025E+03  0.00000000000E+00 0.  1.
         21    1    1    2  504  502 -0.41367106205E+02 -0.98217443133E+02 -0.14070703930E+04  0.14111006323E+04  0.00000000000E+00 0. -1.
<mgrwt>
<rscale>  2 0.10657347E+03</rscale>
<asrwt>0</asrwt>
<pdfrwt beam="1">  1       21 0.77732449E-03 0.10657347E+03</pdfrwt>
<pdfrwt beam="2">  1       21 0.36059904E+00 0.10657347E+03</pdfrwt>
<totfact> 0.94049952E+04</totfact>
</mgrwt>
</event>
<event>
 4    1  0.6055396E+003  0.1664711E+03  0.7546771E-02  0.1181579E+00
         21   -1    0    0  504  501  0.00000000000E+00  0.00000000000E+00  0.45217580532E+03  0.45217580532E+03  0.00000000000E+00 0. -1.
         21   -1    0    0  503  502 -0.00000000000E+00 -0.00000000000E+00 -0.61500466302E+02  0.61500466302E+02  0.00000000000E+00 0. -1.
         21    1    1    2  503  501 -0.16081295378E+03 -0.43032922930E+02  0.18021704135E+03  0.24533817589E+03  0.00000000000E+00 0. -1.
         21    1    1    2  504  502  0.16081295378E+03  0.43032922930E+02  0.21045829767E+03  0.26833809573E+03  0.00000000000E+00 0. -1.
<mgrwt>
<rscale>  2 0.16647113E+03</rscale>
<asrwt>0</asrwt>
<pdfrwt beam="1">  1       21 0.69565507E-01 0.16647113E+03</pdfrwt>
<pdfrwt beam="2">  1       21 0.94616105E-02 0.16647113E+03</pdfrwt>
<totfact> 0.16951183E+05</totfact>
</mgrwt>
</event>
<event>
 4    1  0.6055396E+003  0.1248445E+03  0.7546771E-02  0.1235312E+00
         21   -1    0    0  503  501  0.00000000000E+00  0.00000000000E+00  0.39483469863E+02  0.39483469863E+02  0.00000000000E+00 0.  1.
         21   -1    0    0  504  502 -0.00000000000E+00 -0.00000000000E+00 -0.67686211598E+03  0.67686211598E+03  0.00000000000E+00 0.  1.
         21    1    1    2  503  502  0.10877286273E+03  0.61274930300E+02 -0.87454985796E+02  0.15242876136E+03  0.00000000000E+00 0.  1.
         21    1    1    2  504  501 -0.10877286273E+03 -0.61274930300E+02 -0.54992366032E+03  0.56391682448E+03  0.00000000000E+00 0.  1.
<mgrwt>
<rscale>  2 0.12484451E+03</rscale>
<asrwt>0</asrwt>
<pdfrwt beam="1">  1       21 0.60743812E-02 0.12484451E+03</pdfrwt>
<pdfrwt beam="2">  1       21 0.10413261E+00 0.12484451E+03</pdfrwt>
<totfact> 0.14757236E+05</totfact>
</mgrwt>
</event>
<event>
 4    1  0.6055396E+003  0.1137149E+03  0.7546771E-02  0.1253841E+00
         21   -1    0    0  504  501  0.00000000000E+00  0.00000000000E+00  0.30928981385E+03  0.30928981385E+03  0.00000000000E+00 0.  1.
         21   -1    0    0  503  502 -0.00000000000E+00 -0.00000000000E+00 -0.42470641076E+02  0.42470641076E+02  0.00000000000E+00 0.  1.
         21    1    1    2  503  501  0.72902013119E+02  0.87271841399E+02  0.15536315222E+03  0.19253256059E+03  0.00000000000E+00 0.  1.
         21    1    1    2  504  502 -0.72902013119E+02 -0.87271841399E+02  0.11145602055E+03  0.15922789434E+03  0.00000000000E+00 0.  1.
<mgrwt>
<rscale>  2 0.11371490E+03</rscale>
<asrwt>0</asrwt>
<pdfrwt beam="1">  1       21 0.47583047E-01 0.11371490E+03</pdfrwt>
<pdfrwt beam="2">  1       21 0.65339450E-02 0.11371490E+03</pdfrwt>
<totfact> 0.72318346E+05</totfact>
</mgrwt>
</event>
<event>
 4    1  0.6055396E+003  0.1080772E+03  0.7546771E-02  0.1264173E+00
         21   -1    0    0  502  501  0.00000000000E+00  0.00000000000E+00  0.25004216786E+02  0.25004216786E+02  0.00000000000E+00 0. -1.
         21   -1    0    0  503  502 -0.00000000000E+00 -0.00000000000E+00 -0.57690835326E+03  0.57690835326E+03  0.00000000000E+00 0.  1.
         21    1    1    2  503  504  0.46298467641E+02  0.97658203744E+02 -0.40722419286E+03  0.42132198627E+03  0.00000000000E+00 0.  1.
         21    1    1    2  504  501 -0.46298467641E+02 -0.97658203744E+02 -0.14467994361E+03  0.18059058377E+03  0.00000000000E+00 0. -1.
<mgrwt>
<rscale>  2 0.10807716E+03</rscale>
<asrwt>0</asrwt>
<pdfrwt beam="1">  1       21 0.38468030E-02 0.10807716E+03</pdfrwt>
<pdfrwt beam="2">  1       21 0.88755121E-01 0.10807716E+03</pdfrwt>
<totfact> 0.46065814E+05</totfact>
</mgrwt>
</event>
<event>
 4    1  0.6055396E+003  0.1150354E+03  0.7546771E-02  0.1251519E+00
         21   -1    0    0  502  501  0.00000000000E+00  0.00000000000E+00  0.32048167143E+03  0.32048167143E+03  0.00000000000E+00 0.  1.
         21   -1    0    0  504  502 -0.00000000000E+00 -0.00000000000E+00 -0.55655561967E+02  0.55655561967E+02  0.00000000000E+00 0.  1.
         21    1    1    2  503  501  0.11490176654E+03 -0.55422314649E+01  0.22795683224E+03  0.25533791267E+03  0.00000000000E+00 0.  1.
         21    1    1    2  504  503 -0.11490176654E+03  0.55422314649E+01  0.36869277223E+02  0.12079932072E+03  0.00000000000E+00 0.  1.
<mgrwt>
<rscale>  2 0.11503535E+03</rscale>
<asrwt>0</asrwt>
<pdfrwt beam="1">  1       21 0.49304871E-01 0.11503535E+03</pdfrwt>
<pdfrwt beam="2">  1       21 0.85623943E-02 0.11503535E+03</pdfrwt>
<totfact> 0.42323854E+05</totfact>
</mgrwt>
</event>
<event>
 4    1  0.6055396E+003  0.1020466E+03  0.7546771E-02  0.1276050E+00
         21   -1    0    0  503  501  0.00000000000E+00  0.00000000000E+00  0.14623188552E+02  0.14623188552E+02  0.00000000000E+00 0. -1.
         21   -1    0    0  501  502 -0.00000000000E+00 -0.00000000000E+00 -0.74332518278E+03  0.74332518278E+03  0.00000000000E+00 0. -1.
         21    1    1    2  503  504 -0.10005617639E+03  0.20056630333E+02 -0.28670596608E+03  0.30432518436E+03  0.00000000000E+00 0. -1.
         21    1    1    2  504  502  0.10005617639E+03 -0.20056630333E+02 -0.44199602815E+03  0.45362318697E+03  0.00000000000E+00 0. -1.
<mgrwt>
<rscale>  2 0.10204659E+03</rscale>
<asrwt>0</asrwt>
<pdfrwt beam="1">  1       21 0.22497213E-02 0.10204659E+03</pdfrwt>
<pdfrwt beam="2">  1       21 0.11435772E+00 0.10204659E+03</pdfrwt>
<totfact> 0.61278543E+05</totfact>
</mgrwt>
</event>
<event>
 4    1  0.6055396E+003  0.1095945E+03  0.7546771E-02  0.1261323E+00
         21   -1    0    0  504  501  0.00000000000E+00  0.00000000000E+00  0.88581324568E+02  0.88581324568E+02  0.00000000000E+00 0.  1.
         21   -1    0    0  503  502 -0.00000000000E+00 -0.00000000000E+00 -0.13795706904E+03  0.13795706904E+03  0.00000000000E+00 0. -1.
         21    1    1    2  503  501 -0.91062039242E+01  0.10921555098E+03 -0.39517139891E+02  0.11650134708E+03  0.00000000000E+00 0. -1.
         21    1    1    2  504  502  0.91062039242E+01 -0.10921555098E+03 -0.98586045836E+01  0.11003704653E+03  0.00000000000E+00 0.  1.
<mgrwt>
<rscale>  2 0.10959452E+03</rscale>
<asrwt>0</asrwt>
<pdfrwt beam="1">  1       21 0.13627896E-01 0.10959452E+03</pdfrwt>
<pdfrwt beam="2">  1       21 0.21224164E-01 0.10959452E+03</pdfrwt>
<totfact> 0.96389867E+05</totfact>
</mgrwt>
</event>
<event>
 4    1  0.6055396E+003  0.1006583E+03  0.7546771E-02  0.1278918E+00
         21   -1    0    0  502  501  0.00000000000E+00  0.00000000000E+00  0.10948824103E+04  0.10948824103E+04  0.00000000000E+00 0. -1.
         21   -1    0    0  504  502 -0.00000000000E+00 -0.00000000000E+00 -0.22739618567E+03  0.22739618567E+03  0.00000000000E+00 0.  1.
         21    1    1    2  503  501 -0.80643869167E+02  0.60238316586E+02  0.10812899283E+04  0.10859650074E+04  0.00000000000E+00 0. -1.
         21    1    1    2  504  503  0.80643869167E+02 -0.60238316586E+02 -0.21380370365E+03  0.23631358851E+03  0.00000000000E+00 0.  1.
<mgrwt>
<rscale>  2 0.10065828E+03</rscale>
<asrwt>0</asrwt>
<pdfrwt beam="1">  1       21 0.16844345E+00 0.10065828E+03</pdfrwt>
<pdfrwt beam="2">  1       21 0.34984029E-01 0.10065828E+03</pdfrwt>
<totfact> 0.19410105E+03</totfact>
</mgrwt>
</event>
<event>
 4    1  0.6055396E+003  0.1285929E+03  0.7546771E-02  0.1229559E+00
         21   -1    0    0  504  501  0.00000000000E+00  0.00000000000E+00  0.33281522706E+03  0.33281522706E+03  0.00000000000E+00 0.  1.
         21   -1    0    0  503  502 -0.00000000000E+00 -0.00000000000E+00 -0.55028362874E+02  0.55028362874E+02  0.00000000000E+00 0. -1.
         21    1    1    2  503  501  0.62772705335E+02  0.11223065903E+03  0.78468640309E+02  0.15064348932E+03  0.00000000000E+00 0. -1.
         21    1    1    2  504  502 -0.62772705335E+02 -0.11223065903E+03  0.19931822387E+03  0.23720010061E+03  0.00000000000E+00 0.  1.
<mgrwt>
<rscale>  2 0.12859290E+03</rscale>
<asrwt>0</asrwt>
<pdfrwt beam="1">  1       21 0.51202342E-01 0.12859290E+03</pdfrwt>
<pdfrwt beam="2">  1       21 0.84659022E-02 0.12859290E+03</pdfrwt>
<totfact> 0.39861536E+05</totfact>
</mgrwt>
</event>
<event>
 4    1  0.6055396E+003  0.1147731E+03  0.7546771E-02  0.1251978E+00
         21   -1    0    0  504  501  0.00000000000E+00  0.00000000000E+00  0.37279455338E+03  0.37279455338E+03  0.00000000000E+00 0.  1.
         21   -1    0    0  503  502 -0.00000000000E+00 -0.00000000000E+00 -0.33406305931E+03  0.33406305931E+03  0.00000000000E+00 0.  1.
         21    1    1    2  503  501 -0.10171137167E+02  0.11432156490E+03  0.35358031875E+03  0.37174173029E+03  0.00000000000E+00 0.  1.
         21    1    1    2  504  502  0.10171137167E+02 -0.11432156490E+03 -0.31484882468E+03  0.33511588240E+03  0.00000000000E+00 0.  1.
<mgrwt>
<rscale>  2 0.11477313E+03</rscale>
<asrwt>0</asrwt>
<pdfrwt beam="1">  1       21 0.57353008E-01 0.11477313E+03</pdfrwt>
<pdfrwt beam="2">  1       21 0.51394317E-01 0.11477313E+03</pdfrwt>
<totfact> 0.10916409E+04</totfact>
</mgrwt>
</event>
<event>
 4    1  0.6055396E+003  0.1216597E+03  0.7546771E-02  0.1240384E+00
         21   -1    0    0  502  501  0.00000000000E+00  0.00000000000E+00  0.14074226731E+03  0.14074226731E+03  0.00000000000E+00 0.  1.
         21   -1    0    0  503  502 -0.00000000000E+00 -0.00000000000E+00 -0.95997749517E+03  0.95997749517E+03  0.00000000000E+00 0. -1.
         21    1    1    2  503  504 -0.30290196853E+02 -0.11782864778E+03 -0.92895765417E+03  0.93689028680E+03  0.00000000000E+00 0. -1.
         21    1    1    2  504  501  0.30290196853E+02  0.11782864778E+03  0.10972242631E+03  0.16382947567E+03  0.00000000000E+00 0.  1.
<mgrwt>
<rscale>  2 0.12165972E+03</rscale>
<asrwt>0</asrwt>
<pdfrwt beam="1">  1       21 0.21652657E-01 0.12165972E+03</pdfrwt>
<pdfrwt beam="2">  1       21 0.14768885E+00 0.12165972E+03</pdfrwt>
<totfact> 0.66193491E+03</totfact>
</mgrwt>
</event>
<event>
 4    1  0.6055396E+003  0.1546030E+03  0.7546771E-02  0.1194928E+00
         21   -1    0    0  503  501  0.00000000000E+00  0.00000000000E+00  0.15731232892E+04  0.15731232892E+04  0.00000000000E+00 0.  1.
         21   -1    0    0  504  502 -0.00000000000E+00 -0.00000000000E+00 -0.15340443962E+02  0.15340443962E+02  0.00000000000E+00 0.  1.
         21    1    1    2  503  502 -0.19739608840E+02 -0.15333766348E+03  0.70130042388E+03  0.71813952386E+03  0.00000000000E+00 0.  1.
         21    1    1    2  504  501  0.19739608840E+02  0.15333766348E+03  0.85648242139E+03  0.87032420933E+03  0.00000000000E+00 0.  1.
<mgrwt>
<rscale>  2 0.15460301E+03</rscale>
<asrwt>0</asrwt>
<pdfrwt beam="1">  1       21 0.24201884E+00 0.15460301E+03</pdfrwt>
<pdfrwt beam="2">  1       21 0.23600696E-02 0.15460301E+03</pdfrwt>
<totfact> 0.71641633E+04</totfact>
</mgrwt>
</event>
<event>
 4    1  0.6055396E+003  0.1036387E+03  0.7546771E-02  0.1272825E+00
         21   -1    0    0  504  501  0.00000000000E+00  0.00000000000E+00  0.23661702848E+03  0.23661702848E+03  0.00000000000E+00 0. -1.
         21   -1    0    0  503  502 -0.00000000000E+00 -0.00000000000E+00 -0.21855806781E+03  0.21855806781E+03  0.00000000000E+00 0. -1.
         21    1    1    2  503  501 -0.53914386665E+02  0.88511092218E+02  0.21160831353E+03  0.23562481383E+03  0.00000000000E+00 0. -1.
         21    1    1    2  504  502  0.53914386665E+02 -0.88511092218E+02 -0.19354935286E+03  0.21955028246E+03  0.00000000000E+00 0. -1.
<mgrwt>
<rscale>  2 0.10363867E+03</rscale>
<asrwt>0</asrwt>
<pdfrwt beam="1">  1       21 0.36402620E-01 0.10363867E+03</pdfrwt>
<pdfrwt beam="2">  1       21 0.33624318E-01 0.10363867E+03</pdfrwt>
<totfact> 0.64728866E+04</totfact>
</mgrwt>
</event>
<event>
 4    1  0.6055396E+003  0.1033980E+03  0.7546771E-02  0.1273309E+00
         21   -1    0    0  502  501  0.00000000000E+00  0.00000000000E+00  0.57944209800E+02  0.57944209800E+02  0.00000000000E+00 0. -1.
         21   -1    0    0  503  502 -0.00000000000E+00 -0.00000000000E+00 -0.39273580947E+03  0.39273580947E+03  0.00000000000E+00 0. -1.
         21    1    1    2  503  504 -0.44684425794E+02  0.93243980732E+02 -0.33147669100E+03  0.34722893677E+03  0.00000000000E+00 0. -1.
         21    1    1    2  504  501  0.44684425794E+02 -0.93243980732E+02 -0.33149086677E+01  0.10345108250E+03  0.00000000000E+00 0. -1.
<mgrwt>
<rscale>  2 0.10339796E+03</rscale>
<asrwt>0</asrwt>
<pdfrwt beam="1">  1       21 0.89144940E-02 0.10339796E+03</pdfrwt>
<pdfrwt beam="2">  1       21 0.60420892E-01 0.10339796E+03</pdfrwt>
<totfact> 0.25910283E+05</totfact>
</mgrwt>
</event>
<event>
 4    1  0.6055396E+003  0.1115075E+03  0.7546771E-02  0.1257803E+00
         21   -1    0    0  503  501  0.00000000000E+00  0.00000000000E+00  0.46767495487E+02  0.46767495487E+02  0.00000000000E+00 0. -1.
         21   -1    0    0  504  502 -0.00000000000E+00 -0.00000000000E+00 -0.48786335200E+03  0.48786335200E+03  0.00000000000E+00 0. -1.
         21    1    1    2  503  502 -0.93763947769E+02  0.60351007442E+02 -0.40086966606E+03  0.41608942688E+03  0.00000000000E+00 0. -1.
         21    1    1    2  504  501  0.93763947769E+02 -0.60351007442E+02 -0.40226190462E+02  0.11854142061E+03  0.00000000000E+00 0. -1.
<mgrwt>
<rscale>  2 0.11150750E+03</rscale>
<asrwt>0</asrwt>
<pdfrwt beam="1">  1       21 0.71949990E-02 0.11150750E+03</pdfrwt>
<pdfrwt beam="2">  1       21 0.75055903E-01 0.11150750E+03</pdfrwt>
<totfact> 0.23407274E+05</totfact>
</mgrwt>
</event>
<event>
 4    1  0.6055396E+003  0.1153202E+03  0.7546771E-02  0.1251023E+00
         21   -1    0    0  504  501  0.00000000000E+00  0.00000000000E+00  0.56319454590E+03  0.56319454590E+03  0.00000000000E+00 0.  1.
         21   -1    0    0  503  502 -0.00000000000E+00 -0.00000000000E+00 -0.39158212231E+02  0.39158212231E+02  0.00000000000E+00 0.  1.
         21    1    1    2  503  501 -0.10281166150E+03  0.52235073042E+02  0.72257097764E+02  0.13608757759E+03  0.00000000000E+00 0.  1.
         21    1    1    2  504  502  0.10281166150E+03 -0.52235073042E+02  0.45177923590E+03  0.46626518055E+03  0.00000000000E+00 0.  1.
<mgrwt>
<rscale>  2 0.11532017E+03</rscale>
<asrwt>0</asrwt>
<pdfrwt beam="1">  1       21 0.86645309E-01 0.11532017E+03</pdfrwt>
<pdfrwt beam="2">  1       21 0.60243408E-02 0.11532017E+03</pdfrwt>
<totfact> 0.22956618E+05</totfact>
</mgrwt>
</event>
<event>
 4    1  0.6055396E+003  0.1062247E+03  0.7546771E-02  0.1267725E+00
         21   -1    0    0  503  501  0.00000000000E+00  0.00000000000E+00  0.74591495506E+03  0.74591495506E+03  0.00000000000E+00 0.  1.
         21   -1    0    0  504  502 -0.00000000000E+00 -0.00000000000E+00 -0.16059759311E+02  0.16059759311E+02  0.00000000000E+00 0.  1.
         21    1    1    2  503  502  0.55712712334E+02  0.90442105929E+02  0.45673031006E+03  0.46892030982E+03  0.00000000000E+00 0.  1.
         21    1    1    2  504  501 -0.55712712334E+02 -0.90442105929E+02  0.27312488569E+03  0.29305440455E+03  0.00000000000E+00 0.  1.
<mgrwt>
<rscale>  2 0.10622467E+03</rscale>
<asrwt>0</asrwt>
<pdfrwt beam="1">  1       21 0.11475612E+00 0.10622467E+03</pdfrwt>
<pdfrwt beam="2">  1       21 0.24707328E-02 0.10622467E+03</pdfrwt>
<totfact> 0.52204603E+05</totfact>
</mgrwt>
</event>
<event>
 4    1  0.6055396E+003  0.1312056E+03  0.7546771E-02  0.1225678E+00
         21   -1    0    0  503  501  0.00000000000E+00  0.00000000000E+00  0.41910116099E+03  0.41910116099E+03  0.00000000000E+00 0.  1.
         21   -1    0    0  501  502 -0.00000000000E+00 -0.00000000000E+00 -0.45926458862E+02  0.45926458862E+02  0.00000000000E+00 0. -1.
         21    1    1    2  503  504 -0.37937636277E+02  0.12560108434E+03  0.26215217072E+03  0.29315295879E+03  0.00000000000E+00 0.  1.
         21    1    1    2  504  502  0.37937636277E+02 -0.12560108434E+03  0.11102253141E+03  0.17187466106E+03  0.00000000000E+00 0. -1.
<mgrwt>
<rscale>  2 0.13120555E+03</rscale>
<asrwt>0</asrwt>
<pdfrwt beam="1">  1       21 0.64477099E-01 0.13120555E+03</pdfrwt>
<pdfrwt beam="2">  1       21 0.70656093E-02 0.13120555E+03</pdfrwt>
<totfact> 0.33446300E+05</totfact>
</mgrwt>
</event>
<event>
 4    1  0.6055396E+003  0.1538143E+03  0.7546771E-02  0.1195863E+00
         21   -1    0    0  502  501  0.00000000000E+00  0.00000000000E+00  0.16031198633E+03  0.16031198633E+03  0.00000000000E+00 0. -1.
         21   -1    0    0  504  502 -0.00000000000E+00 -0.00000000000E+00 -0.25781460336E+03  0.25781460336E+03  0.00000000000E+00 0.  1.
         21    1    1    2  503  501  0.13887507058E+03  0.66125284968E+02  0.87953269894E+02  0.17718525962E+03  0.00000000000E+00 0. -1.
         21    1    1    2  504  503 -0.13887507058E+03 -0.66125284968E+02 -0.18545588693E+03  0.24094133007E+03  0.00000000000E+00 0.  1.
<mgrwt>
<rscale>  2 0.15381430E+03</rscale>
<asrwt>0</asrwt>
<pdfrwt beam="1">  1       21 0.24663383E-01 0.15381430E+03</pdfrwt>
<pdfrwt beam="2">  1       21 0.39663785E-01 0.15381430E+03</pdfrwt>
<totfact> 0.96699404E+04</totfact>
</mgrwt>
</event>
<event>
 4    1  0.6055396E+003  0.1199034E+03  0.7546771E-02  0.1243256E+00
         21   -1    0    0  503  501  0.00000000000E+00  0.00000000000E+00  0.37527183451E+02  0.37527183451E+02  0.00000000000E+00 0.  1.
         21   -1    0    0  501  502 -0.00000000000E+00 -0.00000000000E+00 -0.42854112966E+03  0.42854112966E+03  0.00000000000E+00 0.  1.
         21    1    1    2  503  504 -0.11908218969E+03 -0.14009411357E+02 -0.11962710761E+03  0.16937377715E+03  0.00000000000E+00 0.  1.
         21    1    1    2  504  502  0.11908218969E+03  0.14009411357E+02 -0.27138683860E+03  0.29669453596E+03  0.00000000000E+00 0.  1.
<mgrwt>
<rscale>  2 0.11990343E+03</rscale>
<asrwt>0</asrwt>
<pdfrwt beam="1">  1       21 0.57734127E-02 0.11990343E+03</pdfrwt>
<pdfrwt beam="2">  1       21 0.65929406E-01 0.11990343E+03</pdfrwt>
<totfact> 0.45022022E+05</totfact>
</mgrwt>
</event>
<event>
 4    1  0.6055396E+003  0.1042359E+03  0.7546771E-02  0.1271632E+00
         21   -1    0    0  504  501  0.00000000000E+00  0.00000000000E+00  0.55819101532E+03  0.55819101532E+03  0.00000000000E+00 0.  1.
         21   -1    0    0  503  502 -0.00000000000E+00 -0.00000000000E+00 -0.26512698800E+02  0.26512698800E+02  0.00000000000E+00 0.  1.
         21    1    1    2  503  501  0.53915352141E+02  0.89209091238E+02  0.41657131740E+03  0.42941447302E+03  0.00000000000E+00 0.  1.
         21    1    1    2  504  502 -0.53915352141E+02 -0.89209091238E+02  0.11510699912E+03  0.15528924110E+03  0.00000000000E+00 0.  1.
<mgrwt>
<rscale>  2 0.10423592E+03</rscale>
<asrwt>0</asrwt>
<pdfrwt beam="1">  1       21 0.85875532E-01 0.10423592E+03</pdfrwt>
<pdfrwt beam="2">  1       21 0.40788771E-02 0.10423592E+03</pdfrwt>
<totfact> 0.45072480E+05</totfact>
</mgrwt>
</event>
<event>
 4    1  0.6055396E+003  0.1357294E+03  0.7546771E-02  0.1219194E+00
         21   -1    0    0  503  501  0.00000000000E+00  0.00000000000E+00  0.54271754233E+03  0.54271754233E+03  0.00000000000E+00 0. -1.
         21   -1    0    0  504  502 -0.00000000000E+00 -0.00000000000E+00 -0.12668172203E+03  0.12668172203E+03  0.00000000000E+00 0. -1.
         21    1    1    2  503  502 -0.12161135542E+03 -0.60275592632E+02  0.49438589504E+03  0.51267912192E+03  0.00000000000E+00 0. -1.
         21    1    1    2  504  501  0.12161135542E+03  0.60275592632E+02 -0.78350074742E+02  0.15672014244E+03  0.00000000000E+00 0. -1.
<mgrwt>
<rscale>  2 0.13572940E+03</rscale>
<asrwt>0</asrwt>
<pdfrwt beam="1">  1       21 0.83495005E-01 0.13572940E+03</pdfrwt>
<pdfrwt beam="2">  1       21 0.19489496E-01 0.13572940E+03</pdfrwt>
<totfact> 0.31256955E+04</totfact>
</mgrwt>
</event>
<event>
 4    1  0.6055396E+003  0.1217780E+03  0.7546771E-02  0.1240192E+00
         21   -1    0    0  502  501  0.00000000000E+00  0.00000000000E+00  0.73656373137E+03  0.73656373137E+03  0.00000000000E+00 0.  1.
         21   -1    0    0  504  502 -0.00000000000E+00 -0.00000000000E+00 -0.19234536443E+03  0.19234536443E+03  0.00000000000E+00 0.  1.
         21    1    1    2  503  501 -0.78487057957E+02 -0.93111003200E+02  0.71158342734E+03  0.72192856381E+03  0.00000000000E+00 0.  1.
         21    1    1    2  504  503  0.78487057957E+02  0.93111003200E+02 -0.16736506040E+03  0.20698053200E+03  0.00000000000E+00 0.  1.
<mgrwt>
<rscale>  2 0.12177798E+03</rscale>
<asrwt>0</asrwt>
<pdfrwt beam="1">  1       21 0.11331750E+00 0.12177798E+03</pdfrwt>
<pdfrwt beam="2">  1       21 0.29591595E-01 0.12177798E+03</pdfrwt>
<totfact> 0.70778560E+03</totfact>
</mgrwt>
</event>
<event>
 4    1  0.6055396E+003  0.1606518E+03  0.7546771E-02  0.1187963E+00
         21   -1    0    0  504  501  0.00000000000E+00  0.00000000000E+00  0.14496807603E+03  0.14496807603E+03  0.00000000000E+00 0.  1.
         21   -1    0    0  503  502 -0.00000000000E+00 -0.00000000000E+00 -0.18736073967E+03  0.18736073967E+03  0.00000000000E+00 0. -1.
         21    1    1    2  503  501  0.12632041505E+03  0.99258086292E+02  0.15880345800E+02  0.16143481761E+03  0.00000000000E+00 0.  1.
         21    1    1    2  504  502 -0.12632041505E+03 -0.99258086292E+02 -0.58273009442E+02  0.17089399809E+03  0.00000000000E+00 0. -1.
<mgrwt>
<rscale>  2 0.16065184E+03</rscale>
<asrwt>0</asrwt>
<pdfrwt beam="1">  1       21 0.22302781E-01 0.16065184E+03</pdfrwt>
<pdfrwt beam="2">  1       21 0.28824729E-01 0.16065184E+03</pdfrwt>
<totfact> 0.21862977E+05</totfact>
</mgrwt>
</event>
<event>
 4    1  0.6055396E+003  0.1136291E+03  0.7546771E-02  0.1253993E+00
         21   -1    0    0  502  501  0.00000000000E+00  0.00000000000E+00  0.26410328899E+03  0.26410328899E+03  0.00000000000E+00 0.  1.
         21   -1    0    0  503  502 -0.00000000000E+00 -0.00000000000E+00 -0.51208872087E+02  0.51208872087E+02  0.00000000000E+00 0.  1.
         21    1    1    2  503  504 -0.98751459940E+02 -0.56211343723E+02  0.72886291596E+02  0.13499621293E+03  0.00000000000E+00 0.  1.
         21    1    1    2  504  501  0.98751459940E+02  0.56211343723E+02  0.14000812531E+03  0.18031594815E+03  0.00000000000E+00 0.  1.
<mgrwt>
<rscale>  2 0.11362907E+03</rscale>
<asrwt>0</asrwt>
<pdfrwt beam="1">  1       21 0.40631274E-01 0.11362907E+03</pdfrwt>
<pdfrwt beam="2">  1       21 0.78782882E-02 0.11362907E+03</pdfrwt>
<totfact> 0.72267141E+05</totfact>
</mgrwt>
</event>
<event>
 4    1  0.6055396E+003  0.1829015E+03  0.7546771E-02  0.1165024E+00
         21   -1    0    0  504  501  0.00000000000E+00  0.00000000000E+00  0.96653824365E+02  0.96653824365E+02  0.00000000000E+00 0.  1.
         21   -1    0    0  503  502 -0.00000000000E+00 -0.00000000000E+00 -0.40114114517E+03  0.40114114517E+03  0.00000000000E+00 0.  1.
         21    1    1    2  503  501 -0.15767204621E+03 -0.92695711481E+02 -0.60056268847E+02  0.19250902449E+03  0.00000000000E+00 0.  1.
         21    1    1    2  504  502  0.15767204621E+03  0.92695711481E+02 -0.24443105196E+03  0.30528594505E+03  0.00000000000E+00 0.  1.
<mgrwt>
<rscale>  2 0.18290153E+03</rscale>
<asrwt>0</asrwt>
<pdfrwt beam="1">  1       21 0.14869819E-01 0.18290153E+03</pdfrwt>
<pdfrwt beam="2">  1       21 0.61714022E-01 0.18290153E+03</pdfrwt>
<totfact> 0.97565251E+04</totfact>
</mgrwt>
</event>
<event>
 4    1  0.6055396E+003  0.1058636E+03  0.7546771E-02  0.1268427E+00
         21   -1    0    0  504  501  0.00000000000E+00  0.00000000000E+00  0.43374930252E+02  0.43374930252E+02  0.00000000000E+00 0. -1.
         21   -1    0    0  503  502 -0.00000000000E+00 -0.00000000000E+00 -0.29452289245E+03  0.29452289245E+03  0.00000000000E+00 0. -1.
         21    1    1    2  503  501  0.10066358323E+03  0.32770989618E+02 -0.66387311191E+02  0.12495747211E+03  0.00000000000E+00 0. -1.
         21    1    1    2  504  502 -0.10066358323E+03 -0.32770989618E+02 -0.18476065101E+03  0.21294035059E+03  0.00000000000E+00 0. -1.
<mgrwt>
<rscale>  2 0.10586357E+03</rscale>
<asrwt>0</asrwt>
<pdfrwt beam="1">  1       21 0.66730662E-02 0.10586357E+03</pdfrwt>
<pdfrwt beam="2">  1       21 0.45311214E-01 0.10586357E+03</pdfrwt>
<totfact> 0.77051496E+05</totfact>
</mgrwt>
</event>
<event>
 4    1  0.6055396E+003  0.1447431E+03  0.7546771E-02  0.1207086E+00
         21   -1    0    0  503  501  0.00000000000E+00  0.00000000000E+00  0.15233642875E+03  0.15233642875E+03  0.00000000000E+00 0. -1.
         21   -1    0    0  504  502 -0.00000000000E+00 -0.00000000000E+00 -0.28820426175E+03  0.28820426175E+03  0.00000000000E+00 0.  1.
         21    1    1    2  503  502  0.14403918778E+03 -0.14257710465E+02 -0.22720165770E+03  0.26939035466E+03  0.00000000000E+00 0.  1.
         21    1    1    2  504  501 -0.14403918778E+03  0.14257710465E+02  0.91333824701E+02  0.17115033584E+03  0.00000000000E+00 0. -1.
<mgrwt>
<rscale>  2 0.14474312E+03</rscale>
<asrwt>0</asrwt>
<pdfrwt beam="1">  1       21 0.23436374E-01 0.14474312E+03</pdfrwt>
<pdfrwt beam="2">  1       21 0.44339117E-01 0.14474312E+03</pdfrwt>
<totfact> 0.85315218E+04</totfact>
</mgrwt>
</event>
<event>
 4    1  0.6055396E+003  0.2264894E+03  0.7546771E-02  0.1129135E+00
         21   -1    0    0  504  501  0.00000000000E+00  0.00000000000E+00  0.10195993391E+04  0.10195993391E+04  0.00000000000E+00 0.  1.
         21   -1    0    0  501  502 -0.00000000000E+00 -0.00000000000E+00 -0.37940018624E+03  0.37940018624E+03  0.00000000000E+00 0.  1.
         21    1    1    2  503  502 -0.21381185887E+03  0.74712247451E+02 -0.33137184502E+03  0.40137853777E+03  0.00000000000E+00 0.  1.
         21    1    1    2  504  503  0.21381185887E+03 -0.74712247451E+02  0.97157099793E+03  0.99762098762E+03  0.00000000000E+00 0.  1.
<mgrwt>
<rscale>  2 0.22648936E+03</rscale>
<asrwt>0</asrwt>
<pdfrwt beam="1">  1       21 0.15686144E+00 0.22648936E+03</pdfrwt>
<pdfrwt beam="2">  1       21 0.58369260E-01 0.22648936E+03</pdfrwt>
<totfact> 0.70452965E+02</totfact>
</mgrwt>
</event>
<event>
 4    1  0.6055396E+003  0.1267189E+03  0.7546771E-02  0.1232407E+00
         21   -1    0    0  504  501  0.00000000000E+00  0.00000000000E+00  0.18565676000E+03  0.18565676000E+03  0.00000000000E+00 0. -1.
         21   -1    0    0  503  502 -0.00000000000E+00 -0.00000000000E+00 -0.12806068522E+03  0.12806068522E+03  0.00000000000E+00 0. -1.
         21    1    1    2  503  501  0.60833276381E+02  0.11116201695E+03  0.11816724965E+03  0.17326621257E+03  0.00000000000E+00 0. -1.
         21    1    1    2  504  502 -0.60833276381E+02 -0.11116201695E+03 -0.60571174874E+02  0.14045123265E+03  0.00000000000E+00 0. -1.
<mgrwt>
<rscale>  2 0.12671891E+03</rscale>
<asrwt>0</asrwt>
<pdfrwt beam="1">  1       21 0.28562578E-01 0.12671891E+03</pdfrwt>
<pdfrwt beam="2">  1       21 0.19701644E-01 0.12671891E+03</pdfrwt>
<totfact> 0.28230071E+05</totfact>
</mgrwt>
</event>
<event>
 4    1  0.6055396E+003  0.1162271E+03  0.7546771E-02  0.1249454E+00
         21   -1    0    0  503  501  0.00000000000E+00  0.00000000000E+00  0.13243278547E+04  0.13243278547E+04  0.00000000000E+00 0. -1.
         21   -1    0    0  501  502 -0.00000000000E+00 -0.00000000000E+00 -0.15119843048E+02  0.15119843048E+02  0.00000000000E+00 0.  1.
         21    1    1    2  503  504 -0.10578760688E+03  0.48142773079E+02  0.10366166529E+04  0.10431120886E+04  0.00000000000E+00 0. -1.
         21    1    1    2  504  502  0.10578760688E+03 -0.48142773079E+02  0.27259135879E+03  0.29633560916E+03  0.00000000000E+00 0.  1.
<mgrwt>
<rscale>  2 0.11622712E+03</rscale>
<asrwt>0</asrwt>
<pdfrwt beam="1">  1       21 0.20374265E+00 0.11622712E+03</pdfrwt>
<pdfrwt beam="2">  1       21 0.23261308E-02 0.11622712E+03</pdfrwt>
<totfact> 0.12808225E+05</totfact>
</mgrwt>
</event>
<event>
 4    1  0.6055396E+003  0.1205739E+03  0.7546771E-02  0.1242153E+00
         21   -1    0    0  504  501  0.00000000000E+00  0.00000000000E+00  0.23272867883E+03  0.23272867883E+03  0.00000000000E+00 0. -1.
         21   -1    0    0  501  502 -0.00000000000E+00 -0.00000000000E+00 -0.87975386286E+02  0.87975386286E+02  0.00000000000E+00 0.  1.
         21    1    1    2  503  502  0.11638212746E+03  0.31516211472E+02 -0.13966472786E+02  0.12138012003E+03  0.00000000000E+00 0.  1.
         21    1    1    2  504  503 -0.11638212746E+03 -0.31516211472E+02  0.15871976533E+03  0.19932394508E+03  0.00000000000E+00 0. -1.
<mgrwt>
<rscale>  2 0.12057392E+03</rscale>
<asrwt>0</asrwt>
<pdfrwt beam="1">  1       21 0.35804412E-01 0.12057392E+03</pdfrwt>
<pdfrwt beam="2">  1       21 0.13534675E-01 0.12057392E+03</pdfrwt>
<totfact> 0.36008129E+05</totfact>
</mgrwt>
</event>
<event>
 4    1  0.6055396E+003  0.1626082E+03  0.7546771E-02  0.1185783E+00
         21   -1    0    0  504  501  0.00000000000E+00  0.00000000000E+00  0.46458851000E+03  0.46458851000E+03  0.00000000000E+00 0. -1.
         21   -1    0    0  501  502 -0.00000000000E+00 -0.00000000000E+00 -0.28947686471E+03  0.28947686471E+03  0.00000000000E+00 0.  1.
         21    1    1    2  503  502  0.16139836795E+03 -0.19798708011E+02 -0.25038650905E+03  0.29855456106E+03  0.00000000000E+00 0.  1.
         21    1    1    2  504  503 -0.16139836795E+03  0.19798708011E+02  0.42549815434E+03  0.45551081366E+03  0.00000000000E+00 0. -1.
<mgrwt>
<rscale>  2 0.16260819E+03</rscale>
<asrwt>0</asrwt>
<pdfrwt beam="1">  1       21 0.71475155E-01 0.16260819E+03</pdfrwt>
<pdfrwt beam="2">  1       21 0.44534902E-01 0.16260819E+03</pdfrwt>
<totfact> 0.87601218E+03</totfact>
</mgrwt>
</event>
<event>
 4    1  0.6055396E+003  0.1227989E+03  0.7546771E-02  0.1238550E+00
         21   -1    0    0  502  501  0.00000000000E+00  0.00000000000E+00  0.29429352655E+03  0.29429352655E+03  0.00000000000E+00 0. -1.
         21   -1    0    0  504  502 -0.00000000000E+00 -0.00000000000E+00 -0.79112590786E+02  0.79112590786E+02  0.00000000000E+00 0. -1.
         21    1    1    2  503  501 -0.72168476659E+02  0.99354343634E+02  0.21841042517E+03  0.25056473903E+03  0.00000000000E+00 0. -1.
         21    1    1    2  504  503  0.72168476659E+02 -0.99354343634E+02 -0.32294894059E+01  0.12284137831E+03  0.00000000000E+00 0. -1.
<mgrwt>
<rscale>  2 0.12279892E+03</rscale>
<asrwt>0</asrwt>
<pdfrwt beam="1">  1       21 0.45275927E-01 0.12279892E+03</pdfrwt>
<pdfrwt beam="2">  1       21 0.12171168E-01 0.12279892E+03</pdfrwt>
<totfact> 0.27200633E+05</totfact>
</mgrwt>
</event>
<event>
 4    1  0.6055396E+003  0.1233920E+03  0.7546771E-02  0.1237604E+00
         21   -1    0    0  502  501  0.00000000000E+00  0.00000000000E+00  0.86300126706E+03  0.86300126706E+03  0.00000000000E+00 0.  1.
         21   -1    0    0  504  502 -0.00000000000E+00 -0.00000000000E+00 -0.96963267956E+02  0.96963267956E+02  0.00000000000E+00 0. -1.
         21    1    1    2  503  501  0.75390538367E+02 -0.97682381099E+02  0.81714397244E+03  0.82640780039E+03  0.00000000000E+00 0.  1.
         21    1    1    2  504  503 -0.75390538367E+02  0.97682381099E+02 -0.51105973337E+02  0.13355673462E+03  0.00000000000E+00 0. -1.
<mgrwt>
<rscale>  2 0.12339198E+03</rscale>
<asrwt>0</asrwt>
<pdfrwt beam="1">  1       21 0.13276942E+00 0.12339198E+03</pdfrwt>
<pdfrwt beam="2">  1       21 0.14917426E-01 0.12339198E+03</pdfrwt>
<totfact> 0.17108076E+04</totfact>
</mgrwt>
</event>
<event>
 4    1  0.6055396E+003  0.1505290E+03  0.7546771E-02  0.1199825E+00
         21   -1    0    0  503  501  0.00000000000E+00  0.00000000000E+00  0.17407807360E+03  0.17407807360E+03  0.00000000000E+00 0.  1.
         21   -1    0    0  504  502 -0.00000000000E+00 -0.00000000000E+00 -0.13232986653E+03  0.13232986653E+03  0.00000000000E+00 0.  1.
         21    1    1    2  503  502 -0.14714627979E+03  0.31732387655E+02  0.40467026407E+02  0.15587351382E+03  0.00000000000E+00 0.  1.
         21    1    1    2  504  501  0.14714627979E+03 -0.31732387655E+02  0.12811806574E+01  0.15053442632E+03  0.00000000000E+00 0.  1.
<mgrwt>
<rscale>  2 0.15052897E+03</rscale>
<asrwt>0</asrwt>
<pdfrwt beam="1">  1       21 0.26781242E-01 0.15052897E+03</pdfrwt>
<pdfrwt beam="2">  1       21 0.20358441E-01 0.15052897E+03</pdfrwt>
<totfact> 0.29921349E+05</totfact>
</mgrwt>
</event>
<event>
 4    1  0.6055396E+003  0.1102129E+03  0.7546771E-02  0.1260176E+00
         21   -1    0    0  503  501  0.00000000000E+00  0.00000000000E+00  0.14185788376E+04  0.14185788376E+04  0.00000000000E+00 0.  1.
         21   -1    0    0  501  502 -0.00000000000E+00 -0.00000000000E+00 -0.45264320914E+02  0.45264320914E+02  0.00000000000E+00 0.  1.
         21    1    1    2  503  504 -0.87040394045E+02  0.67608163431E+02  0.13457234726E+04  0.13502290764E+04  0.00000000000E+00 0.  1.
         21    1    1    2  504  502  0.87040394045E+02 -0.67608163431E+02  0.27591044141E+02  0.11361408220E+03  0.00000000000E+00 0.  1.
<mgrwt>
<rscale>  2 0.11021295E+03</rscale>
<asrwt>0</asrwt>
<pdfrwt beam="1">  1       21 0.21824286E+00 0.11021295E+03</pdfrwt>
<pdfrwt beam="2">  1       21 0.69637428E-02 0.11021295E+03</pdfrwt>
<totfact> 0.17078320E+04</totfact>
</mgrwt>
</event>
<event>
 4    1  0.6055396E+003  0.1389293E+03  0.7546771E-02  0.1214777E+00
         21   -1    0    0  503  501  0.00000000000E+00  0.00000000000E+00  0.49023278822E+03  0.49023278822E+03  0.00000000000E+00 0. -1.
         21   -1    0    0  504  502 -0.00000000000E+00 -0.00000000000E+00 -0.12668097119E+03  0.12668097119E+03  0.00000000000E+00 0. -1.
         21    1    1    2  503  502  0.13792850957E+03  0.16645971211E+02 -0.74299943587E+02  0.15754949612E+03  0.00000000000E+00 0. -1.
         21    1    1    2  504  501 -0.13792850957E+03 -0.16645971211E+02  0.43785176062E+03  0.45936426329E+03  0.00000000000E+00 0. -1.
<mgrwt>
<rscale>  2 0.13892934E+03</rscale>
<asrwt>0</asrwt>
<pdfrwt beam="1">  1       21 0.75420428E-01 0.13892934E+03</pdfrwt>
<pdfrwt beam="2">  1       21 0.19489380E-01 0.13892934E+03</pdfrwt>
<totfact> 0.39158935E+04</totfact>
</mgrwt>
</event>
<event>
 4    1  0.6055396E+003  0.1380950E+03  0.7546771E-02  0.1215916E+00
         21   -1    0    0  503  501  0.00000000000E+00  0.00000000000E+00  0.14657294082E+04  0.14657294082E+04  0.00000000000E+00 0. -1.
         21   -1    0    0  504  502 -0.00000000000E+00 -0.00000000000E+00 -0.13778350097E+02  0.13778350097E+02  0.00000000000E+00 0. -1.
         21    1    1    2  503  502  0.11540493496E+03 -0.75841451242E+02  0.90058141779E+03  0.91110763075E+03  0.00000000000E+00 0. -1.
         21    1    1    2  504  501 -0.11540493496E+03  0.75841451242E+02  0.55136964033E+03  0.56840012756E+03  0.00000000000E+00 0. -1.
<mgrwt>
<rscale>  2 0.13809498E+03</rscale>
<asrwt>0</asrwt>
<pdfrwt beam="1">  1       21 0.22549671E+00 0.13809498E+03</pdfrwt>
<pdfrwt beam="2">  1       21 0.21197473E-02 0.13809498E+03</pdfrwt>
<totfact> 0.10812555E+05</totfact>
</mgrwt>
</event>
<event>
 4    1  0.6055396E+003  0.1088082E+03  0.7546771E-02  0.1262793E+00
         21   -1    0    0  504  501  0.00000000000E+00  0.00000000000E+00  0.46656938296E+03  0.46656938296E+03  0.00000000000E+00 0. -1.
         21   -1    0    0  503  502 -0.00000000000E+00 -0.00000000000E+00 -0.41003824007E+02  0.41003824007E+02  0.00000000000E+00 0. -1.
         21    1    1    2  503  501 -0.78438817900E+02 -0.75409364084E+02  0.36946474130E+03  0.38515375554E+03  0.00000000000E+00 0. -1.
         21    1    1    2  504  502  0.78438817900E+02  0.75409364084E+02  0.56100817651E+02  0.12241945142E+03  0.00000000000E+00 0. -1.
<mgrwt>
<rscale>  2 0.10880818E+03</rscale>
<asrwt>0</asrwt>
<pdfrwt beam="1">  1       21 0.71779901E-01 0.10880818E+03</pdfrwt>
<pdfrwt beam="2">  1       21 0.63082809E-02 0.10880818E+03</pdfrwt>
<totfact> 0.32297050E+05</totfact>
</mgrwt>
</event>
<event>
 4    1  0.6055396E+003  0.1154212E+03  0.7546771E-02  0.1250848E+00
         21   -1    0    0  504  501  0.00000000000E+00  0.00000000000E+00  0.11282688218E+03  0.11282688218E+03  0.00000000000E+00 0.  1.
         21   -1    0    0  503  502 -0.00000000000E+00 -0.00000000000E+00 -0.11831021510E+03  0.11831021510E+03  0.00000000000E+00 0.  1.
         21    1    1    2  503  501 -0.93151706402E+02  0.68152826870E+02 -0.78933089374E+01  0.11569076256E+03  0.00000000000E+00 0.  1.
         21    1    1    2  504  502  0.93151706402E+02 -0.68152826870E+02  0.24099760115E+01  0.11544633472E+03  0.00000000000E+00 0.  1.
<mgrwt>
<rscale>  2 0.11542118E+03</rscale>
<asrwt>0</asrwt>
<pdfrwt beam="1">  1       21 0.17357982E-01 0.11542118E+03</pdfrwt>
<pdfrwt beam="2">  1       21 0.18201572E-01 0.11542118E+03</pdfrwt>
<totfact> 0.82753907E+05</totfact>
</mgrwt>
</event>
<event>
 4    1  0.6055396E+003  0.1121274E+03  0.7546771E-02  0.1256680E+00
         21   -1    0    0  502  501  0.00000000000E+00  0.00000000000E+00  0.21277580678E+03  0.21277580678E+03  0.00000000000E+00 0.  1.
         21   -1    0    0  503  502 -0.00000000000E+00 -0.00000000000E+00 -0.61058926976E+02  0.61058926976E+02  0.00000000000E+00 0. -1.
         21    1    1    2  503  504 -0.11200998374E+03  0.51293968549E+01  0.51260814936E+02  0.12328916545E+03  0.00000000000E+00 0. -1.
         21    1    1    2  504  501  0.11200998374E+03 -0.51293968549E+01  0.10045606487E+03  0.15054556831E+03  0.00000000000E+00 0.  1.
<mgrwt>
<rscale>  2 0.11212737E+03</rscale>
<asrwt>0</asrwt>
<pdfrwt beam="1">  1       21 0.32734739E-01 0.11212737E+03</pdfrwt>
<pdfrwt beam="2">  1       21 0.93936812E-02 0.11212737E+03</pdfrwt>
<totfact> 0.81604943E+05</totfact>
</mgrwt>
</event>
<event>
 4    1  0.6055396E+003  0.1403678E+03  0.7546771E-02  0.1212835E+00
         21   -1    0    0  503  501  0.00000000000E+00  0.00000000000E+00  0.49950520561E+02  0.49950520561E+02  0.00000000000E+00 0. -1.
         21   -1    0    0  504  502 -0.00000000000E+00 -0.00000000000E+00 -0.14202336452E+04  0.14202336452E+04  0.00000000000E+00 0.  1.
         21    1    1    2  503  502  0.33053650976E+02 -0.13642055860E+03 -0.13098669885E+04  0.13173665550E+04  0.00000000000E+00 0.  1.
         21    1    1    2  504  501 -0.33053650976E+02  0.13642055860E+03 -0.60416136122E+02  0.15281761075E+03  0.00000000000E+00 0. -1.
<mgrwt>
<rscale>  2 0.14036778E+03</rscale>
<asrwt>0</asrwt>
<pdfrwt beam="1">  1       21 0.76846959E-02 0.14036778E+03</pdfrwt>
<pdfrwt beam="2">  1       21 0.21849747E+00 0.14036778E+03</pdfrwt>
<totfact> 0.13885162E+04</totfact>
</mgrwt>
</event>
<event>
 4    1  0.6055396E+003  0.1226269E+03  0.7546771E-02  0.1238825E+00
         21   -1    0    0  503  501  0.00000000000E+00  0.00000000000E+00  0.93213373294E+02  0.93213373294E+02  0.00000000000E+00 0. -1.
         21   -1    0    0  504  502 -0.00000000000E+00 -0.00000000000E+00 -0.57438750756E+03  0.57438750756E+03  0.00000000000E+00 0.  1.
         21    1    1    2  503  502  0.10640192952E+03  0.60958835146E+02 -0.52365715357E+03  0.53782354418E+03  0.00000000000E+00 0.  1.
         21    1    1    2  504  501 -0.10640192952E+03 -0.60958835146E+02  0.42483019299E+02  0.12977733668E+03  0.00000000000E+00 0. -1.
<mgrwt>
<rscale>  2 0.12262687E+03</rscale>
<asrwt>0</asrwt>
<pdfrwt beam="1">  1       21 0.14340519E-01 0.12262687E+03</pdfrwt>
<pdfrwt beam="2">  1       21 0.88367311E-01 0.12262687E+03</pdfrwt>
<totfact> 0.48429877E+04</totfact>
</mgrwt>
</event>
<event>
 4    1  0.6055396E+003  0.1047129E+03  0.7546771E-02  0.1270686E+00
         21   -1    0    0  503  501  0.00000000000E+00  0.00000000000E+00  0.34745012140E+03  0.34745012140E+03  0.00000000000E+00 0.  1.
         21   -1    0    0  504  502 -0.00000000000E+00 -0.00000000000E+00 -0.20125423949E+03  0.20125423949E+03  0.00000000000E+00 0.  1.
         21    1    1    2  503  502 -0.83950712204E+02  0.62586570527E+02 -0.17882755204E+03  0.20722956898E+03  0.00000000000E+00 0.  1.
         21    1    1    2  504  501  0.83950712204E+02 -0.62586570527E+02  0.32502343395E+03  0.34147479191E+03  0.00000000000E+00 0.  1.
<mgrwt>
<rscale>  2 0.10471295E+03</rscale>
<asrwt>0</asrwt>
<pdfrwt beam="1">  1       21 0.53453865E-01 0.10471295E+03</pdfrwt>
<pdfrwt beam="2">  1       21 0.30962191E-01 0.10471295E+03</pdfrwt>
<totfact> 0.34984511E+04</totfact>
</mgrwt>
</event>
<event>
 4    1  0.6055396E+003  0.1098722E+03  0.7546771E-02  0.1260807E+00
         21   -1    0    0  502  501  0.00000000000E+00  0.00000000000E+00  0.11059547626E+03  0.11059547626E+03  0.00000000000E+00 0. -1.
         21   -1    0    0  503  502 -0.00000000000E+00 -0.00000000000E+00 -0.12720252342E+03  0.12720252342E+03  0.00000000000E+00 0.  1.
         21    1    1    2  503  504  0.10788311610E+03 -0.20812115306E+02 -0.53090752599E+02  0.12202679581E+03  0.00000000000E+00 0.  1.
         21    1    1    2  504  501 -0.10788311610E+03  0.20812115306E+02  0.36483705441E+02  0.11577120387E+03  0.00000000000E+00 0. -1.
<mgrwt>
<rscale>  2 0.10987225E+03</rscale>
<asrwt>0</asrwt>
<pdfrwt beam="1">  1       21 0.17014689E-01 0.10987225E+03</pdfrwt>
<pdfrwt beam="2">  1       21 0.19569619E-01 0.10987225E+03</pdfrwt>
<totfact> 0.75126640E+05</totfact>
</mgrwt>
</event>
<event>
 4    1  0.6055396E+003  0.1018963E+03  0.7546771E-02  0.1276358E+00
         21   -1    0    0  503  501  0.00000000000E+00  0.00000000000E+00  0.53920996212E+03  0.53920996212E+03  0.00000000000E+00 0. -1.
         21   -1    0    0  504  502 -0.00000000000E+00 -0.00000000000E+00 -0.31765138685E+02  0.31765138685E+02  0.00000000000E+00 0.  1.
         21    1    1    2  503  502  0.20506248969E+02 -0.99811618147E+02  0.74566681030E+02  0.12626581201E+03  0.00000000000E+00 0.  1.
         21    1    1    2  504  501 -0.20506248969E+02  0.99811618147E+02  0.43287814240E+03  0.44470928879E+03  0.00000000000E+00 0. -1.
<mgrwt>
<rscale>  2 0.10189635E+03</rscale>
<asrwt>0</asrwt>
<pdfrwt beam="1">  1       21 0.82955372E-01 0.10189635E+03</pdfrwt>
<pdfrwt beam="2">  1       21 0.48869448E-02 0.10189635E+03</pdfrwt>
<totfact> 0.36089320E+05</totfact>
</mgrwt>
</event>
<event>
 4    1  0.6055396E+003  0.2287499E+03  0.7546771E-02  0.1127523E+00
         21   -1    0    0  504  501  0.00000000000E+00  0.00000000000E+00  0.33424608893E+04  0.33424608893E+04  0.00000000000E+00 0. -1.
         21   -1    0    0  503  502 -0.00000000000E+00 -0.00000000000E+00 -0.59305618607E+02  0.59305618607E+02  0.00000000000E+00 0.  1.
         21    1    1    2  503  501  0.20460822151E+03  0.10228382563E+03  0.18235563184E+03  0.29254073521E+03  0.00000000000E+00 0.  1.
         21    1    1    2  504  502 -0.20460822151E+03 -0.10228382563E+03  0.31007996389E+04  0.31092257727E+04  0.00000000000E+00 0. -1.
<mgrwt>
<rscale>  2 0.22874987E+03</rscale>
<asrwt>0</asrwt>
<pdfrwt beam="1">  1       21 0.51422461E+00 0.22874987E+03</pdfrwt>
<pdfrwt beam="2">  1       21 0.91239439E-02 0.22874987E+03</pdfrwt>
<totfact> 0.13463927E+02</totfact>
</mgrwt>
</event>
<event>
 4    1  0.6055396E+003  0.1047433E+03  0.7546771E-02  0.1270626E+00
         21   -1    0    0  504  501  0.00000000000E+00  0.00000000000E+00  0.14731054495E+02  0.14731054495E+02  0.00000000000E+00 0.  1.
         21   -1    0    0  503  502 -0.00000000000E+00 -0.00000000000E+00 -0.86463439608E+03  0.86463439608E+03  0.00000000000E+00 0.  1.
         21    1    1    2  503  501  0.48920822683E+01  0.10462900795E+03 -0.26124032202E+03  0.28145633342E+03  0.00000000000E+00 0.  1.
         21    1    1    2  504  502 -0.48920822683E+01 -0.10462900795E+03 -0.58866301956E+03  0.59790911715E+03  0.00000000000E+00 0.  1.
<mgrwt>
<rscale>  2 0.10474331E+03</rscale>
<asrwt>0</asrwt>
<pdfrwt beam="1">  1       21 0.22663159E-02 0.10474331E+03</pdfrwt>
<pdfrwt beam="2">  1       21 0.13302068E+00 0.10474331E+03</pdfrwt>
<totfact> 0.41885409E+05</totfact>
</mgrwt>
</event>
<event>
 4    1  0.6055396E+003  0.1257972E+03  0.7546771E-02  0.1233829E+00
         21   -1    0    0  504  501  0.00000000000E+00  0.00000000000E+00  0.22920075474E+03  0.22920075474E+03  0.00000000000E+00 0.  1.
         21   -1    0    0  503  502 -0.00000000000E+00 -0.00000000000E+00 -0.73518820516E+02  0.73518820516E+02  0.00000000000E+00 0.  1.
         21    1    1    2  503  501 -0.12326140530E+03 -0.25130962167E+02  0.11518305094E+03  0.17056398952E+03  0.00000000000E+00 0.  1.
         21    1    1    2  504  502  0.12326140530E+03  0.25130962167E+02  0.40498883288E+02  0.13215558574E+03  0.00000000000E+00 0.  1.
<mgrwt>
<rscale>  2 0.12579721E+03</rscale>
<asrwt>0</asrwt>
<pdfrwt beam="1">  1       21 0.35261654E-01 0.12579721E+03</pdfrwt>
<pdfrwt beam="2">  1       21 0.11310588E-01 0.12579721E+03</pdfrwt>
<totfact> 0.50989270E+05</totfact>
</mgrwt>
</event>
<event>
 4    1  0.6055396E+003  0.1211287E+03  0.7546771E-02  0.1241247E+00
         21   -1    0    0  504  501  0.00000000000E+00  0.00000000000E+00  0.16943499853E+04  0.16943499853E+04  0.00000000000E+00 0. -1.
         21   -1    0    0  503  502 -0.00000000000E+00 -0.00000000000E+00 -0.86776995612E+01  0.86776995612E+01  0.00000000000E+00 0. -1.
         21    1    1    2  503  501  0.44379384046E+02 -0.11270596032E+03  0.88187034658E+03  0.89015025214E+03  0.00000000000E+00 0. -1.
         21    1    1    2  504  502 -0.44379384046E+02  0.11270596032E+03  0.80380193917E+03  0.81287743272E+03  0.00000000000E+00 0. -1.
<mgrwt>
<rscale>  2 0.12112871E+03</rscale>
<asrwt>0</asrwt>
<pdfrwt beam="1">  1       21 0.26066897E+00 0.12112871E+03</pdfrwt>
<pdfrwt beam="2">  1       21 0.13350320E-02 0.12112871E+03</pdfrwt>
<totfact> 0.14394675E+05</totfact>
</mgrwt>
</event>
<event>
 4    1  0.6055396E+003  0.1816405E+03  0.7546771E-02  0.1166225E+00
         21   -1    0    0  502  501  0.00000000000E+00  0.00000000000E+00  0.98786286019E+03  0.98786286019E+03  0.00000000000E+00 0. -1.
         21   -1    0    0  503  502 -0.00000000000E+00 -0.00000000000E+00 -0.37004395244E+02  0.37004395244E+02  0.00000000000E+00 0. -1.
         21    1    1    2  503  504 -0.13037570178E+03  0.12647314543E+03  0.31547017413E+03  0.36402570087E+03  0.00000000000E+00 0. -1.
         21    1    1    2  504  501  0.13037570178E+03 -0.12647314543E+03  0.63538829082E+03  0.66084155457E+03  0.00000000000E+00 0. -1.
<mgrwt>
<rscale>  2 0.18164052E+03</rscale>
<asrwt>0</asrwt>
<pdfrwt beam="1">  1       21 0.15197888E+00 0.18164052E+03</pdfrwt>
<pdfrwt beam="2">  1       21 0.56929846E-02 0.18164052E+03</pdfrwt>
<totfact> 0.62651414E+04</totfact>
</mgrwt>
</event>
<event>
 4    1  0.6055396E+003  0.1153490E+03  0.7546771E-02  0.1250973E+00
         21   -1    0    0  503  501  0.00000000000E+00  0.00000000000E+00  0.19151117366E+03  0.19151117366E+03  0.00000000000E+00 0.  1.
         21   -1    0    0  504  502 -0.00000000000E+00 -0.00000000000E+00 -0.74468988985E+02  0.74468988985E+02  0.00000000000E+00 0.  1.
         21    1    1    2  503  502 -0.94627626050E+02 -0.65962129365E+02  0.92957746638E+02  0.14814362214E+03  0.00000000000E+00 0.  1.
         21    1    1    2  504  501  0.94627626050E+02  0.65962129365E+02  0.24084438040E+02  0.11783654050E+03  0.00000000000E+00 0.  1.
<mgrwt>
<rscale>  2 0.11534899E+03</rscale>
<asrwt>0</asrwt>
<pdfrwt beam="1">  1       21 0.29463257E-01 0.11534899E+03</pdfrwt>
<pdfrwt beam="2">  1       21 0.11456768E-01 0.11534899E+03</pdfrwt>
<totfact> 0.70676815E+05</totfact>
</mgrwt>
</event>
<event>
 4    1  0.6055396E+003  0.1275199E+03  0.7546771E-02  0.1231183E+00
         21   -1    0    0  504  501  0.00000000000E+00  0.00000000000E+00  0.38749534527E+03  0.38749534527E+03  0.00000000000E+00 0.  1.
         21   -1    0    0  503  502 -0.00000000000E+00 -0.00000000000E+00 -0.69385885325E+02  0.69385885325E+02  0.00000000000E+00 0.  1.
         21    1    1    2  503  501 -0.96657277875E+02  0.83178636769E+02  0.15447269468E+02  0.12845206544E+03  0.00000000000E+00 0.  1.
         21    1    1    2  504  502  0.96657277875E+02 -0.83178636769E+02  0.30266219047E+03  0.32842916515E+03  0.00000000000E+00 0.  1.
<mgrwt>
<rscale>  2 0.12751986E+03</rscale>
<asrwt>0</asrwt>
<pdfrwt beam="1">  1       21 0.59614667E-01 0.12751986E+03</pdfrwt>
<pdfrwt beam="2">  1       21 0.10674752E-01 0.12751986E+03</pdfrwt>
<totfact> 0.19353266E+05</totfact>
</mgrwt>
</event>
<event>
 4    1  0.6055396E+003  0.1042367E+03  0.7546771E-02  0.1271631E+00
         21   -1    0    0  503  501  0.00000000000E+00  0.00000000000E+00  0.22563437870E+03  0.22563437870E+03  0.00000000000E+00 0.  1.
         21   -1    0    0  501  502 -0.00000000000E+00 -0.00000000000E+00 -0.15425202611E+03  0.15425202611E+03  0.00000000000E+00 0.  1.
         21    1    1    2  503  504  0.45703121599E+02 -0.93683087408E+02  0.19322037994E+03  0.21954364353E+03  0.00000000000E+00 0.  1.
         21    1    1    2  504  502 -0.45703121599E+02  0.93683087408E+02 -0.12183802735E+03  0.16034276129E+03  0.00000000000E+00 0.  1.
<mgrwt>
<rscale>  2 0.10423673E+03</rscale>
<asrwt>0</asrwt>
<pdfrwt beam="1">  1       21 0.34712981E-01 0.10423673E+03</pdfrwt>
<pdfrwt beam="2">  1       21 0.23731081E-01 0.10423673E+03</pdfrwt>
<totfact> 0.13791158E+05</totfact>
</mgrwt>
</event>
<event>
 4    1  0.6055396E+003  0.1001274E+03  0.7546771E-02  0.1280028E+00
         21   -1    0    0  503  501  0.00000000000E+00  0.00000000000E+00  0.22107144970E+03  0.22107144970E+03  0.00000000000E+00 0. -1.
         21   -1    0    0  504  502 -0.00000000000E+00 -0.00000000000E+00 -0.63139456526E+02  0.63139456526E+02  0.00000000000E+00 0. -1.
         21    1    1    2  503  502  0.27857746115E+02  0.96173981337E+02  0.35354472250E+01  0.10018976041E+03  0.00000000000E+00 0. -1.
         21    1    1    2  504  501 -0.27857746115E+02 -0.96173981337E+02  0.15439654594E+03  0.18402114581E+03  0.00000000000E+00 0. -1.
<mgrwt>
<rscale>  2 0.10012736E+03</rscale>
<asrwt>0</asrwt>
<pdfrwt beam="1">  1       21 0.34010992E-01 0.10012736E+03</pdfrwt>
<pdfrwt beam="2">  1       21 0.97137627E-02 0.10012736E+03</pdfrwt>
<totfact> 0.71428835E+05</totfact>
</mgrwt>
</event>
<event>
 4    1  0.6055396E+003  0.1608112E+03  0.7546771E-02  0.1187784E+00
         21   -1    0    0  504  501  0.00000000000E+00  0.00000000000E+00  0.12971648222E+03  0.12971648222E+03  0.00000000000E+00 0.  1.
         21   -1    0    0  503  502 -0.00000000000E+00 -0.00000000000E+00 -0.49787877506E+03  0.49787877506E+03  0.00000000000E+00 0.  1.
         21    1    1    2  503  501  0.58530695328E+02  0.14978120698E+03  0.58900695743E+02  0.17125870552E+03  0.00000000000E+00 0.  1.
         21    1    1    2  504  502 -0.58530695328E+02 -0.14978120698E+03 -0.42706298857E+03  0.45633655176E+03  0.00000000000E+00 0.  1.
<mgrwt>
<rscale>  2 0.16081123E+03</rscale>
<asrwt>0</asrwt>
<pdfrwt beam="1">  1       21 0.19956382E-01 0.16081123E+03</pdfrwt>
<pdfrwt beam="2">  1       21 0.76596735E-01 0.16081123E+03</pdfrwt>
<totfact> 0.35777282E+04</totfact>
</mgrwt>
</event>
<event>
 4    1  0.6055396E+003  0.1456724E+03  0.7546771E-02  0.1205894E+00
         21   -1    0    0  502  501  0.00000000000E+00  0.00000000000E+00  0.93902647950E+02  0.93902647950E+02  0.00000000000E+00 0. -1.
         21   -1    0    0  503  502 -0.00000000000E+00 -0.00000000000E+00 -0.69846691224E+03  0.69846691224E+03  0.00000000000E+00 0.  1.
         21    1    1    2  503  504 -0.33731852335E+02  0.14171315982E+03 -0.62813242100E+03  0.64480291240E+03  0.00000000000E+00 0.  1.
         21    1    1    2  504  501  0.33731852335E+02 -0.14171315982E+03  0.23568156709E+02  0.14756664779E+03  0.00000000000E+00 0. -1.
<mgrwt>
<rscale>  2 0.14567243E+03</rscale>
<asrwt>0</asrwt>
<pdfrwt beam="1">  1       21 0.14446561E-01 0.14567243E+03</pdfrwt>
<pdfrwt beam="2">  1       21 0.10745645E+00 0.14567243E+03</pdfrwt>
<totfact> 0.29862217E+04</totfact>
</mgrwt>
</event>
<event>
 4    1  0.6055396E+003  0.1066843E+03  0.7546771E-02  0.1266836E+00
         21   -1    0    0  503  501  0.00000000000E+00  0.00000000000E+00  0.17151545460E+03  0.17151545460E+03  0.00000000000E+00 0.  1.
         21   -1    0    0  504  502 -0.00000000000E+00 -0.00000000000E+00 -0.26328640632E+03  0.26328640632E+03  0.00000000000E+00 0.  1.
         21    1    1    2  503  502  0.58012813845E+02 -0.89532434954E+02 -0.23390397680E+03  0.25708483783E+03  0.00000000000E+00 0.  1.
         21    1    1    2  504  501 -0.58012813845E+02  0.89532434954E+02  0.14213302508E+03  0.17771702310E+03  0.00000000000E+00 0.  1.
<mgrwt>
<rscale>  2 0.10668432E+03</rscale>
<asrwt>0</asrwt>
<pdfrwt beam="1">  1       21 0.26386993E-01 0.10668432E+03</pdfrwt>
<pdfrwt beam="2">  1       21 0.40505601E-01 0.10668432E+03</pdfrwt>
<totfact> 0.83262033E+04</totfact>
</mgrwt>
</event>
<event>
 4    1  0.6055396E+003  0.1233981E+03  0.7546771E-02  0.1237594E+00
         21   -1    0    0  504  501  0.00000000000E+00  0.00000000000E+00  0.85481367594E+02  0.85481367594E+02  0.00000000000E+00 0. -1.
         21   -1    0    0  503  502 -0.00000000000E+00 -0.00000000000E+00 -0.34169392450E+03  0.34169392450E+03  0.00000000000E+00 0. -1.
         21    1    1    2  503  501  0.58453851600E+02  0.10867496410E+03  0.19667212034E+02  0.12495559138E+03  0.00000000000E+00 0. -1.
         21    1    1    2  504  502 -0.58453851600E+02 -0.10867496410E+03 -0.27587976894E+03  0.30221970071E+03  0.00000000000E+00 0. -1.
<mgrwt>
<rscale>  2 0.12339814E+03</rscale>
<asrwt>0</asrwt>
<pdfrwt beam="1">  1       21 0.13150979E-01 0.12339814E+03</pdfrwt>
<pdfrwt beam="2">  1       21 0.52568298E-01 0.12339814E+03</pdfrwt>
<totfact> 0.17443189E+05</totfact>
</mgrwt>
</event>
<event>
 4    1  0.6055396E+003  0.1093119E+03  0.7546771E-02  0.1261850E+00
         21   -1    0    0  504  501  0.00000000000E+00  0.00000000000E+00  0.10671684568E+02  0.10671684568E+02  0.00000000000E+00 0.  1.
         21   -1    0    0  503  502 -0.00000000000E+00 -0.00000000000E+00 -0.11197267438E+04  0.11197267438E+04  0.00000000000E+00 0.  1.
         21    1    1    2  503  501 -0.19324188430E+02  0.10759022806E+03 -0.55174709520E+03  0.56247127792E+03  0.00000000000E+00 0.  1.
         21    1    1    2  504  502  0.19324188430E+02 -0.10759022806E+03 -0.55730796401E+03  0.56792715042E+03  0.00000000000E+00 0.  1.
<mgrwt>
<rscale>  2 0.10931185E+03</rscale>
<asrwt>0</asrwt>
<pdfrwt beam="1">  1       21 0.16417979E-02 0.10931185E+03</pdfrwt>
<pdfrwt beam="2">  1       21 0.17226563E+00 0.10931185E+03</pdfrwt>
<totfact> 0.35982306E+05</totfact>
</mgrwt>
</event>
<event>
 4    1  0.6055396E+003  0.1111391E+03  0.7546771E-02  0.1258475E+00
         21   -1    0    0  503  501  0.00000000000E+00  0.00000000000E+00  0.36675625235E+04  0.36675625235E+04  0.00000000000E+00 0.  1.
         21   -1    0    0  501  502 -0.00000000000E+00 -0.00000000000E+00 -0.45720639475E+01  0.45720639475E+01  0.00000000000E+00 0. -1.
         21    1    1    2  503  504  0.35346452411E+02  0.10536853437E+03  0.27737739668E+04  0.27759996251E+04  0.00000000000E+00 0.  1.
         21    1    1    2  504  502 -0.35346452411E+02 -0.10536853437E+03  0.88921649273E+03  0.89613496231E+03  0.00000000000E+00 0. -1.
<mgrwt>
<rscale>  2 0.11113910E+03</rscale>
<asrwt>0</asrwt>
<pdfrwt beam="1">  1       21 0.56423804E+00 0.11113910E+03</pdfrwt>
<pdfrwt beam="2">  1       21 0.70339738E-03 0.11113910E+03</pdfrwt>
<totfact> 0.48673989E+03</totfact>
</mgrwt>
</event>
<event>
 4    1  0.6055396E+003  0.1092611E+03  0.7546771E-02  0.1261944E+00
         21   -1    0    0  503  501  0.00000000000E+00  0.00000000000E+00  0.33755771038E+03  0.33755771038E+03  0.00000000000E+00 0. -1.
         21   -1    0    0  501  502 -0.00000000000E+00 -0.00000000000E+00 -0.70853075200E+02  0.70853075200E+02  0.00000000000E+00 0. -1.
         21    1    1    2  503  504  0.49675129645E+02  0.97315877846E+02  0.27787106209E+03  0.29858051801E+03  0.00000000000E+00 0. -1.
         21    1    1    2  504  502 -0.49675129645E+02 -0.97315877846E+02 -0.11166426907E+02  0.10983026758E+03  0.00000000000E+00 0. -1.
<mgrwt>
<rscale>  2 0.10926115E+03</rscale>
<asrwt>0</asrwt>
<pdfrwt beam="1">  1       21 0.51931955E-01 0.10926115E+03</pdfrwt>
<pdfrwt beam="2">  1       21 0.10900473E-01 0.10926115E+03</pdfrwt>
<totfact> 0.25020437E+05</totfact>
</mgrwt>
</event>
<event>
 4    1  0.6055396E+003  0.1016793E+03  0.7546771E-02  0.1276804E+00
         21   -1    0    0  504  501  0.00000000000E+00  0.00000000000E+00  0.69290749681E+02  0.69290749681E+02  0.00000000000E+00 0. -1.
         21   -1    0    0  503  502 -0.00000000000E+00 -0.00000000000E+00 -0.14938389012E+03  0.14938389012E+03  0.00000000000E+00 0. -1.
         21    1    1    2  503  501  0.92487557335E+02  0.42246035964E+02 -0.43807321576E+02  0.11071475620E+03  0.00000000000E+00 0. -1.
         21    1    1    2  504  502 -0.92487557335E+02 -0.42246035964E+02 -0.36285818860E+02  0.10795988360E+03  0.00000000000E+00 0. -1.
<mgrwt>
<rscale>  2 0.10167928E+03</rscale>
<asrwt>0</asrwt>
<pdfrwt beam="1">  1       21 0.10660115E-01 0.10167928E+03</pdfrwt>
<pdfrwt beam="2">  1       21 0.22982137E-01 0.10167928E+03</pdfrwt>
<totfact> 0.12803444E+06</totfact>
</mgrwt>
</event>
<event>
 4    1  0.6055396E+003  0.1001244E+03  0.7546771E-02  0.1280034E+00
         21   -1    0    0  503  501  0.00000000000E+00  0.00000000000E+00  0.14295067236E+03  0.14295067236E+03  0.00000000000E+00 0. -1.
         21   -1    0    0  504  502 -0.00000000000E+00 -0.00000000000E+00 -0.88858220858E+02  0.88858220858E+02  0.00000000000E+00 0. -1.
         21    1    1    2  503  502  0.63101463714E+02 -0.77737427420E+02 -0.26166814117E+02  0.10348721905E+03  0.00000000000E+00 0. -1.
         21    1    1    2  504  501 -0.63101463714E+02  0.77737427420E+02  0.80259265617E+02  0.12832167417E+03  0.00000000000E+00 0. -1.
<mgrwt>
<rscale>  2 0.10012443E+03</rscale>
<asrwt>0</asrwt>
<pdfrwt beam="1">  1       21 0.21992411E-01 0.10012443E+03</pdfrwt>
<pdfrwt beam="2">  1       21 0.13670496E-01 0.10012443E+03</pdfrwt>
<totfact> 0.89633949E+05</totfact>
</mgrwt>
</event>
<event>
 4    1  0.6055396E+003  0.1029450E+03  0.7546771E-02  0.1274222E+00
         21   -1    0    0  503  501  0.00000000000E+00  0.00000000000E+00  0.37596475886E+02  0.37596475886E+02  0.00000000000E+00 0.  1.
         21   -1    0    0  504  502 -0.00000000000E+00 -0.00000000000E+00 -0.36483999286E+03  0.36483999286E+03  0.00000000000E+00 0. -1.
         21    1    1    2  503  502 -0.42816304288E+02  0.93618602958E+02 -0.25957321552E+03  0.27924171061E+03  0.00000000000E+00 0. -1.
         21    1    1    2  504  501  0.42816304288E+02 -0.93618602958E+02 -0.67670301462E+02  0.12319475814E+03  0.00000000000E+00 0.  1.
<mgrwt>
<rscale>  2 0.10294503E+03</rscale>
<asrwt>0</asrwt>
<pdfrwt beam="1">  1       21 0.57840730E-02 0.10294503E+03</pdfrwt>
<pdfrwt beam="2">  1       21 0.56129232E-01 0.10294503E+03</pdfrwt>
<totfact> 0.63200474E+05</totfact>
</mgrwt>
</event>
<event>
 4    1  0.6055396E+003  0.1175827E+03  0.7546771E-02  0.1247139E+00
         21   -1    0    0  503  501  0.00000000000E+00  0.00000000000E+00  0.83129963607E+02  0.83129963607E+02  0.00000000000E+00 0. -1.
         21   -1    0    0  501  502 -0.00000000000E+00 -0.00000000000E+00 -0.24274441436E+03  0.24274441436E+03  0.00000000000E+00 0.  1.
         21    1    1    2  503  504  0.50334770307E+02 -0.10626425232E+03  0.11620639746E+02  0.11815548946E+03  0.00000000000E+00 0. -1.
         21    1    1    2  504  502 -0.50334770307E+02  0.10626425232E+03 -0.17123509050E+03  0.20771888850E+03  0.00000000000E+00 0.  1.
<mgrwt>
<rscale>  2 0.11758265E+03</rscale>
<asrwt>0</asrwt>
<pdfrwt beam="1">  1       21 0.12789225E-01 0.11758265E+03</pdfrwt>
<pdfrwt beam="2">  1       21 0.37345294E-01 0.11758265E+03</pdfrwt>
<totfact> 0.36671809E+05</totfact>
</mgrwt>
</event>
<event>
 4    1  0.6055396E+003  0.1014772E+03  0.7546771E-02  0.1277220E+00
         21   -1    0    0  503  501  0.00000000000E+00  0.00000000000E+00  0.14244120639E+03  0.14244120639E+03  0.00000000000E+00 0.  1.
         21   -1    0    0  504  502 -0.00000000000E+00 -0.00000000000E+00 -0.73232944490E+02  0.73232944490E+02  0.00000000000E+00 0.  1.
         21    1    1    2  503  502  0.92069933546E+02 -0.42670238434E+02  0.46815703829E+02  0.11175568011E+03  0.00000000000E+00 0.  1.
         21    1    1    2  504  501 -0.92069933546E+02  0.42670238434E+02  0.22392558074E+02  0.10391847078E+03  0.00000000000E+00 0.  1.
<mgrwt>
<rscale>  2 0.10147720E+03</rscale>
<asrwt>0</asrwt>
<pdfrwt beam="1">  1       21 0.21914032E-01 0.10147720E+03</pdfrwt>
<pdfrwt beam="2">  1       21 0.11266607E-01 0.10147720E+03</pdfrwt>
<totfact> 0.12695726E+06</totfact>
</mgrwt>
</event>
<event>
 4    1  0.6055396E+003  0.1099642E+03  0.7546771E-02  0.1260636E+00
         21   -1    0    0  502  501  0.00000000000E+00  0.00000000000E+00  0.74821341096E+02  0.74821341096E+02  0.00000000000E+00 0. -1.
         21   -1    0    0  504  502 -0.00000000000E+00 -0.00000000000E+00 -0.32854472569E+03  0.32854472569E+03  0.00000000000E+00 0.  1.
         21    1    1    2  503  501 -0.55968469084E+02 -0.94655497432E+02  0.16899283431E+02  0.11125519541E+03  0.00000000000E+00 0. -1.
         21    1    1    2  504  503  0.55968469084E+02  0.94655497432E+02 -0.27062266802E+03  0.29211087137E+03  0.00000000000E+00 0.  1.
<mgrwt>
<rscale>  2 0.10996423E+03</rscale>
<asrwt>0</asrwt>
<pdfrwt beam="1">  1       21 0.11510976E-01 0.10996423E+03</pdfrwt>
<pdfrwt beam="2">  1       21 0.50545342E-01 0.10996423E+03</pdfrwt>
<totfact> 0.24038265E+05</totfact>
</mgrwt>
</event>
<event>
 4    1  0.6055396E+003  0.1398099E+03  0.7546771E-02  0.1213585E+00
         21   -1    0    0  504  501  0.00000000000E+00  0.00000000000E+00  0.16953194030E+03  0.16953194030E+03  0.00000000000E+00 0.  1.
         21   -1    0    0  503  502 -0.00000000000E+00 -0.00000000000E+00 -0.18475466346E+03  0.18475466346E+03  0.00000000000E+00 0.  1.
         21    1    1    2  503  501  0.55711798778E+02  0.12823029508E+03  0.10100163267E+03  0.17247649956E+03  0.00000000000E+00 0.  1.
         21    1    1    2  504  502 -0.55711798778E+02 -0.12823029508E+03 -0.11622435584E+03  0.18181010420E+03  0.00000000000E+00 0.  1.
<mgrwt>
<rscale>  2 0.13980992E+03</rscale>
<asrwt>0</asrwt>
<pdfrwt beam="1">  1       21 0.26081837E-01 0.13980992E+03</pdfrwt>
<pdfrwt beam="2">  1       21 0.28423794E-01 0.13980992E+03</pdfrwt>
<totfact> 0.16795299E+05</totfact>
</mgrwt>
</event>
<event>
 4    1  0.6055396E+003  0.1033504E+03  0.7546771E-02  0.1273404E+00
         21   -1    0    0  503  501  0.00000000000E+00  0.00000000000E+00  0.18186138143E+03  0.18186138143E+03  0.00000000000E+00 0.  1.
         21   -1    0    0  504  502 -0.00000000000E+00 -0.00000000000E+00 -0.10182047159E+03  0.10182047159E+03  0.00000000000E+00 0. -1.
         21    1    1    2  503  502  0.89874410140E+02 -0.51028337733E+02  0.13229002679E+03  0.16787481061E+03  0.00000000000E+00 0.  1.
         21    1    1    2  504  501 -0.89874410140E+02  0.51028337733E+02 -0.52249116949E+02  0.11580704241E+03  0.00000000000E+00 0. -1.
<mgrwt>
<rscale>  2 0.10335038E+03</rscale>
<asrwt>0</asrwt>
<pdfrwt beam="1">  1       21 0.27978674E-01 0.10335038E+03</pdfrwt>
<pdfrwt beam="2">  1       21 0.15664688E-01 0.10335038E+03</pdfrwt>
<totfact> 0.44730719E+05</totfact>
</mgrwt>
</event>
<event>
 4    1  0.6055396E+003  0.1134808E+03  0.7546771E-02  0.1254256E+00
         21   -1    0    0  504  501  0.00000000000E+00  0.00000000000E+00  0.32755223342E+02  0.32755223342E+02  0.00000000000E+00 0.  1.
         21   -1    0    0  503  502 -0.00000000000E+00 -0.00000000000E+00 -0.86755589330E+03  0.86755589330E+03  0.00000000000E+00 0. -1.
         21    1    1    2  503  501 -0.16093845363E+02 -0.11233382845E+03 -0.75027929035E+03  0.75881283226E+03  0.00000000000E+00 0. -1.
         21    1    1    2  504  502  0.16093845363E+02  0.11233382845E+03 -0.84521379615E+02  0.14149828439E+03  0.00000000000E+00 0.  1.
<mgrwt>
<rscale>  2 0.11348084E+03</rscale>
<asrwt>0</asrwt>
<pdfrwt beam="1">  1       21 0.50392657E-02 0.11348084E+03</pdfrwt>
<pdfrwt beam="2">  1       21 0.13347012E+00 0.11348084E+03</pdfrwt>
<totfact> 0.11139419E+05</totfact>
</mgrwt>
</event>
<event>
 4    1  0.6055396E+003  0.2066865E+03  0.7546771E-02  0.1144217E+00
         21   -1    0    0  504  501  0.00000000000E+00  0.00000000000E+00  0.44236264045E+03  0.44236264045E+03  0.00000000000E+00 0. -1.
         21   -1    0    0  503  502 -0.00000000000E+00 -0.00000000000E+00 -0.99392728332E+02  0.99392728332E+02  0.00000000000E+00 0. -1.
         21    1    1    2  503  501  0.13692249282E+03 -0.15482751093E+03  0.12584274943E+03  0.24198290181E+03  0.00000000000E+00 0. -1.
         21    1    1    2  504  502 -0.13692249282E+03  0.15482751093E+03  0.21712716269E+03  0.29977246698E+03  0.00000000000E+00 0. -1.
<mgrwt>
<rscale>  2 0.20668654E+03</rscale>
<asrwt>0</asrwt>
<pdfrwt beam="1">  1       21 0.68055790E-01 0.20668654E+03</pdfrwt>
<pdfrwt beam="2">  1       21 0.15291189E-01 0.20668654E+03</pdfrwt>
<totfact> 0.74203816E+04</totfact>
</mgrwt>
</event>
<event>
 4    1  0.6055396E+003  0.1272960E+03  0.7546771E-02  0.1231524E+00
         21   -1    0    0  503  501  0.00000000000E+00  0.00000000000E+00  0.27568103720E+03  0.27568103720E+03  0.00000000000E+00 0.  1.
         21   -1    0    0  504  502 -0.00000000000E+00 -0.00000000000E+00 -0.72312920779E+02  0.72312920779E+02  0.00000000000E+00 0.  1.
         21    1    1    2  503  502 -0.11524434698E+03  0.54064954942E+02  0.17695792433E+03  0.21798712312E+03  0.00000000000E+00 0.  1.
         21    1    1    2  504  501  0.11524434698E+03 -0.54064954942E+02  0.26410192092E+02  0.13000683486E+03  0.00000000000E+00 0.  1.
<mgrwt>
<rscale>  2 0.12729603E+03</rscale>
<asrwt>0</asrwt>
<pdfrwt beam="1">  1       21 0.42412467E-01 0.12729603E+03</pdfrwt>
<pdfrwt beam="2">  1       21 0.11125065E-01 0.12729603E+03</pdfrwt>
<totfact> 0.36355369E+05</totfact>
</mgrwt>
</event>
<event>
 4    1  0.6055396E+003  0.1119515E+03  0.7546771E-02  0.1256998E+00
         21   -1    0    0  504  501  0.00000000000E+00  0.00000000000E+00  0.11870526194E+02  0.11870526194E+02  0.00000000000E+00 0. -1.
         21   -1    0    0  501  502 -0.00000000000E+00 -0.00000000000E+00 -0.15777514903E+04  0.15777514903E+04  0.00000000000E+00 0. -1.
         21    1    1    2  503  502 -0.83624981250E+02  0.74431162613E+02 -0.12400828223E+04  0.12451259140E+04  0.00000000000E+00 0. -1.
         21    1    1    2  504  503  0.83624981250E+02 -0.74431162613E+02 -0.32579814183E+03  0.34449610256E+03  0.00000000000E+00 0. -1.
<mgrwt>
<rscale>  2 0.11195149E+03</rscale>
<asrwt>0</asrwt>
<pdfrwt beam="1">  1       21 0.18262362E-02 0.11195149E+03</pdfrwt>
<pdfrwt beam="2">  1       21 0.24273081E+00 0.11195149E+03</pdfrwt>
<totfact> 0.11141522E+05</totfact>
</mgrwt>
</event>
<event>
 4    1  0.6055396E+003  0.1127851E+03  0.7546771E-02  0.1255498E+00
         21   -1    0    0  503  501  0.00000000000E+00  0.00000000000E+00  0.44531911044E+03  0.44531911044E+03  0.00000000000E+00 0. -1.
         21   -1    0    0  504  502 -0.00000000000E+00 -0.00000000000E+00 -0.30292290853E+02  0.30292290853E+02  0.00000000000E+00 0. -1.
         21    1    1    2  503  502 -0.71603680231E+02 -0.87140066733E+02  0.26430139749E+03  0.28735989102E+03  0.00000000000E+00 0. -1.
         21    1    1    2  504  501  0.71603680231E+02  0.87140066733E+02  0.15072542210E+03  0.18825151027E+03  0.00000000000E+00 0. -1.
<mgrwt>
<rscale>  2 0.11278510E+03</rscale>
<asrwt>0</asrwt>
<pdfrwt beam="1">  1       21 0.68510628E-01 0.11278510E+03</pdfrwt>
<pdfrwt beam="2">  1       21 0.46603528E-02 0.11278510E+03</pdfrwt>
<totfact> 0.59406388E+05</totfact>
</mgrwt>
</event>
<event>
 4    1  0.6055396E+003  0.1747917E+03  0.7546771E-02  0.1172941E+00
         21   -1    0    0  502  501  0.00000000000E+00  0.00000000000E+00  0.22057168703E+03  0.22057168703E+03  0.00000000000E+00 0.  1.
         21   -1    0    0  503  502 -0.00000000000E+00 -0.00000000000E+00 -0.17057683924E+03  0.17057683924E+03  0.00000000000E+00 0.  1.
         21    1    1    2  503  504 -0.17411392461E+03 -0.15377771538E+02 -0.59794934494E+02  0.18473648473E+03  0.00000000000E+00 0.  1.
         21    1    1    2  504  501  0.17411392461E+03  0.15377771538E+02  0.10978978228E+03  0.20641204154E+03  0.00000000000E+00 0.  1.
<mgrwt>
<rscale>  2 0.17479169E+03</rscale>
<asrwt>0</asrwt>
<pdfrwt beam="1">  1       21 0.33934106E-01 0.17479169E+03</pdfrwt>
<pdfrwt beam="2">  1       21 0.26242591E-01 0.17479169E+03</pdfrwt>
<totfact> 0.11623387E+05</totfact>
</mgrwt>
</event>
<event>
 4    1  0.6055396E+003  0.1082538E+03  0.7546771E-02  0.1263838E+00
         21   -1    0    0  502  501  0.00000000000E+00  0.00000000000E+00  0.71647234372E+03  0.71647234372E+03  0.00000000000E+00 0. -1.
         21   -1    0    0  503  502 -0.00000000000E+00 -0.00000000000E+00 -0.17844515396E+02  0.17844515396E+02  0.00000000000E+00 0. -1.
         21    1    1    2  503  504 -0.10632514482E+03 -0.20343393309E+02  0.24328528906E+03  0.26628297345E+03  0.00000000000E+00 0. -1.
         21    1    1    2  504  501  0.10632514482E+03  0.20343393309E+02  0.45534253926E+03  0.46803388567E+03  0.00000000000E+00 0. -1.
<mgrwt>
<rscale>  2 0.10825382E+03</rscale>
<asrwt>0</asrwt>
<pdfrwt beam="1">  1       21 0.11022649E+00 0.10825382E+03</pdfrwt>
<pdfrwt beam="2">  1       21 0.27453106E-02 0.10825382E+03</pdfrwt>
<totfact> 0.48410929E+05</totfact>
</mgrwt>
</event>
<event>
 4    1  0.6055396E+003  0.1076909E+03  0.7546771E-02  0.1264907E+00
         21   -1    0    0  504  501  0.00000000000E+00  0.00000000000E+00  0.78447395340E+02  0.78447395340E+02  0.00000000000E+00 0.  1.
         21   -1    0    0  503  502 -0.00000000000E+00 -0.00000000000E+00 -0.33604616592E+03  0.33604616592E+03  0.00000000000E+00 0. -1.
         21    1    1    2  503  501 -0.10762779025E+03  0.36860219443E+01 -0.28389880407E+03  0.30363771002E+03  0.00000000000E+00 0. -1.
         21    1    1    2  504  502  0.10762779025E+03 -0.36860219443E+01  0.26300033490E+02  0.11085585124E+03  0.00000000000E+00 0.  1.
<mgrwt>
<rscale>  2 0.10769089E+03</rscale>
<asrwt>0</asrwt>
<pdfrwt beam="1">  1       21 0.12068830E-01 0.10769089E+03</pdfrwt>
<pdfrwt beam="2">  1       21 0.51699412E-01 0.10769089E+03</pdfrwt>
<totfact> 0.21122944E+05</totfact>
</mgrwt>
</event>
<event>
 4    1  0.6055396E+003  0.1120932E+03  0.7546771E-02  0.1256742E+00
         21   -1    0    0  504  501  0.00000000000E+00  0.00000000000E+00  0.43967891761E+03  0.43967891761E+03  0.00000000000E+00 0. -1.
         21   -1    0    0  503  502 -0.00000000000E+00 -0.00000000000E+00 -0.27735690395E+03  0.27735690395E+03  0.00000000000E+00 0. -1.
         21    1    1    2  503  501 -0.28224895345E+02 -0.10848147532E+03  0.42070705123E+03  0.43538408120E+03  0.00000000000E+00 0. -1.
         21    1    1    2  504  502  0.28224895345E+02  0.10848147532E+03 -0.25838503757E+03  0.28165174036E+03  0.00000000000E+00 0. -1.
<mgrwt>
<rscale>  2 0.11209315E+03</rscale>
<asrwt>0</asrwt>
<pdfrwt beam="1">  1       21 0.67642910E-01 0.11209315E+03</pdfrwt>
<pdfrwt beam="2">  1       21 0.42670293E-01 0.11209315E+03</pdfrwt>
<totfact> 0.11249892E+04</totfact>
</mgrwt>
</event>
<event>
 4    1  0.6055396E+003  0.1158253E+03  0.7546771E-02  0.1250147E+00
         21   -1    0    0  504  501  0.00000000000E+00  0.00000000000E+00  0.21534551202E+03  0.21534551202E+03  0.00000000000E+00 0.  1.
         21   -1    0    0  503  502 -0.00000000000E+00 -0.00000000000E+00 -0.62550831317E+02  0.62550831317E+02  0.00000000000E+00 0.  1.
         21    1    1    2  503  501  0.11326573858E+03  0.24214976055E+02  0.85239504621E+02  0.14380982494E+03  0.00000000000E+00 0.  1.
         21    1    1    2  504  502 -0.11326573858E+03 -0.24214976055E+02  0.67555176081E+02  0.13408651840E+03  0.00000000000E+00 0.  1.
<mgrwt>
<rscale>  2 0.11582527E+03</rscale>
<asrwt>0</asrwt>
<pdfrwt beam="1">  1       21 0.33130079E-01 0.11582527E+03</pdfrwt>
<pdfrwt beam="2">  1       21 0.96232049E-02 0.11582527E+03</pdfrwt>
<totfact> 0.76456192E+05</totfact>
</mgrwt>
</event>
<event>
 4    1  0.6055396E+003  0.1316186E+03  0.7546771E-02  0.1225074E+00
         21   -1    0    0  503  501  0.00000000000E+00  0.00000000000E+00  0.98177747699E+03  0.98177747699E+03  0.00000000000E+00 0. -1.
         21   -1    0    0  504  502 -0.00000000000E+00 -0.00000000000E+00 -0.52438561123E+02  0.52438561123E+02  0.00000000000E+00 0.  1.
         21    1    1    2  503  502  0.10361379611E+03  0.81164306717E+02  0.88588591506E+03  0.89561002559E+03  0.00000000000E+00 0. -1.
         21    1    1    2  504  501 -0.10361379611E+03 -0.81164306717E+02  0.43453000801E+02  0.13860601252E+03  0.00000000000E+00 0.  1.
<mgrwt>
<rscale>  2 0.13161863E+03</rscale>
<asrwt>0</asrwt>
<pdfrwt beam="1">  1       21 0.15104268E+00 0.13161863E+03</pdfrwt>
<pdfrwt beam="2">  1       21 0.80674717E-02 0.13161863E+03</pdfrwt>
<totfact> 0.36117359E+04</totfact>
</mgrwt>
</event>
<event>
 4    1  0.6055396E+003  0.1012390E+03  0.7546771E-02  0.1277712E+00
         21   -1    0    0  502  501  0.00000000000E+00  0.00000000000E+00  0.29256571415E+03  0.29256571415E+03  0.00000000000E+00 0.  1.
         21   -1    0    0  503  502 -0.00000000000E+00 -0.00000000000E+00 -0.36658108629E+02  0.36658108629E+02  0.00000000000E+00 0.  1.
         21    1    1    2  503  504  0.66324831525E+02 -0.76487642784E+02  0.93290613026E+02  0.13766801101E+03  0.00000000000E+00 0.  1.
         21    1    1    2  504  501 -0.66324831525E+02  0.76487642784E+02  0.16261699249E+03  0.19155581177E+03  0.00000000000E+00 0.  1.
<mgrwt>
<rscale>  2 0.10123904E+03</rscale>
<asrwt>0</asrwt>
<pdfrwt beam="1">  1       21 0.45010108E-01 0.10123904E+03</pdfrwt>
<pdfrwt beam="2">  1       21 0.56397092E-02 0.10123904E+03</pdfrwt>
<totfact> 0.10370419E+06</totfact>
</mgrwt>
</event>
<event>
 4    1  0.6055396E+003  0.1185969E+03  0.7546771E-02  0.1245430E+00
         21   -1    0    0  504  501  0.00000000000E+00  0.00000000000E+00  0.12835924324E+03  0.12835924324E+03  0.00000000000E+00 0. -1.
         21   -1    0    0  503  502 -0.00000000000E+00 -0.00000000000E+00 -0.11599388032E+03  0.11599388032E+03  0.00000000000E+00 0.  1.
         21    1    1    2  503  501  0.34947490310E+02 -0.11333096688E+03 -0.22553466510E+02  0.12072238394E+03  0.00000000000E+00 0.  1.
         21    1    1    2  504  502 -0.34947490310E+02  0.11333096688E+03  0.34918829431E+02  0.12363073963E+03  0.00000000000E+00 0. -1.
<mgrwt>
<rscale>  2 0.11859694E+03</rscale>
<asrwt>0</asrwt>
<pdfrwt beam="1">  1       21 0.19747576E-01 0.11859694E+03</pdfrwt>
<pdfrwt beam="2">  1       21 0.17845212E-01 0.11859694E+03</pdfrwt>
<totfact> 0.67757233E+05</totfact>
</mgrwt>
</event>
<event>
 4    1  0.6055396E+003  0.1105380E+03  0.7546771E-02  0.1259577E+00
         21   -1    0    0  503  501  0.00000000000E+00  0.00000000000E+00  0.17859031503E+04  0.17859031503E+04  0.00000000000E+00 0.  1.
         21   -1    0    0  504  502 -0.00000000000E+00 -0.00000000000E+00 -0.71485707500E+01  0.71485707500E+01  0.00000000000E+00 0.  1.
         21    1    1    2  503  502  0.85212492349E+02  0.70409364994E+02  0.10751224503E+04  0.10807899568E+04  0.00000000000E+00 0.  1.
         21    1    1    2  504  501 -0.85212492349E+02 -0.70409364994E+02  0.70363212917E+03  0.71226176419E+03  0.00000000000E+00 0.  1.
<mgrwt>
<rscale>  2 0.11053799E+03</rscale>
<asrwt>0</asrwt>
<pdfrwt beam="1">  1       21 0.27475398E+00 0.11053799E+03</pdfrwt>
<pdfrwt beam="2">  1       21 0.10997815E-02 0.11053799E+03</pdfrwt>
<totfact> 0.16468057E+05</totfact>
</mgrwt>
</event>
<event>
 4    1  0.6055396E+003  0.1084458E+03  0.7546771E-02  0.1263475E+00
         21   -1    0    0  503  501  0.00000000000E+00  0.00000000000E+00  0.18023514937E+04  0.18023514937E+04  0.00000000000E+00 0. -1.
         21   -1    0    0  504  502 -0.00000000000E+00 -0.00000000000E+00 -0.11361022210E+02  0.11361022210E+02  0.00000000000E+00 0.  1.
         21    1    1    2  503  502  0.10746351615E+03 -0.14563127813E+02  0.14871524899E+04  0.14911012776E+04  0.00000000000E+00 0. -1.
         21    1    1    2  504  501 -0.10746351615E+03  0.14563127813E+02  0.30383798162E+03  0.32261123829E+03  0.00000000000E+00 0.  1.
<mgrwt>
<rscale>  2 0.10844580E+03</rscale>
<asrwt>0</asrwt>
<pdfrwt beam="1">  1       21 0.27728462E+00 0.10844580E+03</pdfrwt>
<pdfrwt beam="2">  1       21 0.17478510E-02 0.10844580E+03</pdfrwt>
<totfact> 0.76621603E+04</totfact>
</mgrwt>
</event>
<event>
 4    1  0.6055396E+003  0.1497253E+03  0.7546771E-02  0.1200811E+00
         21   -1    0    0  503  501  0.00000000000E+00  0.00000000000E+00  0.31393083155E+02  0.31393083155E+02  0.00000000000E+00 0. -1.
         21   -1    0    0  504  502 -0.00000000000E+00 -0.00000000000E+00 -0.12058661503E+04  0.12058661503E+04  0.00000000000E+00 0. -1.
         21    1    1    2  503  502  0.11471237390E+03  0.96222253369E+02 -0.98229609769E+03  0.99364142140E+03  0.00000000000E+00 0. -1.
         21    1    1    2  504  501 -0.11471237390E+03 -0.96222253369E+02 -0.19217696950E+03  0.24361781211E+03  0.00000000000E+00 0. -1.
<mgrwt>
<rscale>  2 0.14972525E+03</rscale>
<asrwt>0</asrwt>
<pdfrwt beam="1">  1       21 0.48297054E-02 0.14972525E+03</pdfrwt>
<pdfrwt beam="2">  1       21 0.18551786E+00 0.14972525E+03</pdfrwt>
<totfact> 0.49015963E+04</totfact>
</mgrwt>
</event>
<event>
 4    1  0.6055396E+003  0.1198546E+03  0.7546771E-02  0.1243337E+00
         21   -1    0    0  502  501  0.00000000000E+00  0.00000000000E+00  0.39175460362E+03  0.39175460362E+03  0.00000000000E+00 0. -1.
         21   -1    0    0  503  502 -0.00000000000E+00 -0.00000000000E+00 -0.10277517623E+03  0.10277517623E+03  0.00000000000E+00 0. -1.
         21    1    1    2  503  504 -0.65898077721E+02  0.10011278636E+03 -0.53818356253E+02  0.13138318808E+03  0.00000000000E+00 0. -1.
         21    1    1    2  504  501  0.65898077721E+02 -0.10011278636E+03  0.34279778365E+03  0.36314659177E+03  0.00000000000E+00 0. -1.
<mgrwt>
<rscale>  2 0.11985461E+03</rscale>
<asrwt>0</asrwt>
<pdfrwt beam="1">  1       21 0.60269938E-01 0.11985461E+03</pdfrwt>
<pdfrwt beam="2">  1       21 0.15811566E-01 0.11985461E+03</pdfrwt>
<totfact> 0.94201850E+04</totfact>
</mgrwt>
</event>
<event>
 4    1  0.6055396E+003  0.1008117E+03  0.7546771E-02  0.1278598E+00
         21   -1    0    0  502  501  0.00000000000E+00  0.00000000000E+00  0.70991704357E+03  0.70991704357E+03  0.00000000000E+00 0. -1.
         21   -1    0    0  503  502 -0.00000000000E+00 -0.00000000000E+00 -0.23107810125E+02  0.23107810125E+02  0.00000000000E+00 0.  1.
         21    1    1    2  503  504  0.93669786572E+02  0.37268988845E+02  0.11732873533E+03  0.15469013731E+03  0.00000000000E+00 0.  1.
         21    1    1    2  504  501 -0.93669786572E+02 -0.37268988845E+02  0.56948049811E+03  0.57833471638E+03  0.00000000000E+00 0. -1.
<mgrwt>
<rscale>  2 0.10081174E+03</rscale>
<asrwt>0</asrwt>
<pdfrwt beam="1">  1       21 0.10921799E+00 0.10081174E+03</pdfrwt>
<pdfrwt beam="2">  1       21 0.35550483E-02 0.10081174E+03</pdfrwt>
<totfact> 0.32479012E+05</totfact>
</mgrwt>
</event>
<event>
 4    1  0.6055396E+003  0.2316034E+03  0.7546771E-02  0.1125516E+00
         21   -1    0    0  503  501  0.00000000000E+00  0.00000000000E+00  0.99728757097E+02  0.99728757097E+02  0.00000000000E+00 0.  1.
         21   -1    0    0  504  502 -0.00000000000E+00 -0.00000000000E+00 -0.71007458316E+03  0.71007458316E+03  0.00000000000E+00 0.  1.
         21    1    1    2  503  502 -0.14722528997E+01 -0.23159876912E+03 -0.10576979789E+03  0.25461226901E+03  0.00000000000E+00 0.  1.
         21    1    1    2  504  501  0.14722528997E+01  0.23159876912E+03 -0.50457602818E+03  0.55519107125E+03  0.00000000000E+00 0.  1.
<mgrwt>
<rscale>  2 0.23160345E+03</rscale>
<asrwt>0</asrwt>
<pdfrwt beam="1">  1       21 0.15342886E-01 0.23160345E+03</pdfrwt>
<pdfrwt beam="2">  1       21 0.10924224E+00 0.23160345E+03</pdfrwt>
<totfact> 0.24448928E+04</totfact>
</mgrwt>
</event>
<event>
 4    1  0.6055396E+003  0.1020448E+03  0.7546771E-02  0.1276054E+00
         21   -1    0    0  504  501  0.00000000000E+00  0.00000000000E+00  0.81135594438E+03  0.81135594438E+03  0.00000000000E+00 0. -1.
         21   -1    0    0  503  502 -0.00000000000E+00 -0.00000000000E+00 -0.13468097103E+02  0.13468097103E+02  0.00000000000E+00 0. -1.
         21    1    1    2  503  501 -0.86763604936E+02 -0.53714186084E+02  0.30947465832E+03  0.32586454405E+03  0.00000000000E+00 0. -1.
         21    1    1    2  504  502  0.86763604936E+02  0.53714186084E+02  0.48841318896E+03  0.49895949743E+03  0.00000000000E+00 0. -1.
<mgrwt>
<rscale>  2 0.10204478E+03</rscale>
<asrwt>0</asrwt>
<pdfrwt beam="1">  1       21 0.12482395E+00 0.10204478E+03</pdfrwt>
<pdfrwt beam="2">  1       21 0.20720156E-02 0.10204478E+03</pdfrwt>
<totfact> 0.56618924E+05</totfact>
</mgrwt>
</event>
<event>
 4    1  0.6055396E+003  0.1028461E+03  0.7546771E-02  0.1274422E+00
         21   -1    0    0  503  501  0.00000000000E+00  0.00000000000E+00  0.10030785999E+04  0.10030785999E+04  0.00000000000E+00 0. -1.
         21   -1    0    0  504  502 -0.00000000000E+00 -0.00000000000E+00 -0.20805281996E+02  0.20805281996E+02  0.00000000000E+00 0.  1.
         21    1    1    2  503  502  0.36099965347E+02 -0.96302187787E+02  0.85065132731E+03  0.85684596021E+03  0.00000000000E+00 0. -1.
         21    1    1    2  504  501 -0.36099965347E+02  0.96302187787E+02  0.13162199055E+03  0.16703792164E+03  0.00000000000E+00 0.  1.
<mgrwt>
<rscale>  2 0.10284609E+03</rscale>
<asrwt>0</asrwt>
<pdfrwt beam="1">  1       21 0.15431975E+00 0.10284609E+03</pdfrwt>
<pdfrwt beam="2">  1       21 0.32008134E-02 0.10284609E+03</pdfrwt>
<totfact> 0.16423404E+05</totfact>
</mgrwt>
</event>
<event>
 4    1  0.6055396E+003  0.1128543E+03  0.7546771E-02  0.1255374E+00
         21   -1    0    0  504  501  0.00000000000E+00  0.00000000000E+00  0.15360603934E+02  0.15360603934E+02  0.00000000000E+00 0.  1.
         21   -1    0    0  503  502 -0.00000000000E+00 -0.00000000000E+00 -0.11434406692E+04  0.11434406692E+04  0.00000000000E+00 0.  1.
         21    1    1    2  503  501  0.45336294999E+02 -0.10334752019E+03 -0.26027003756E+03  0.28368394742E+03  0.00000000000E+00 0.  1.
         21    1    1    2  504  502 -0.45336294999E+02  0.10334752019E+03 -0.86781002768E+03  0.87511732569E+03  0.00000000000E+00 0.  1.
<mgrwt>
<rscale>  2 0.11285428E+03</rscale>
<asrwt>0</asrwt>
<pdfrwt beam="1">  1       21 0.23631688E-02 0.11285428E+03</pdfrwt>
<pdfrwt beam="2">  1       21 0.17591403E+00 0.11285428E+03</pdfrwt>
<totfact> 0.18900636E+05</totfact>
</mgrwt>
</event>
<event>
 4    1  0.6055396E+003  0.1002586E+03  0.7546771E-02  0.1279753E+00
         21   -1    0    0  504  501  0.00000000000E+00  0.00000000000E+00  0.49851953128E+03  0.49851953128E+03  0.00000000000E+00 0. -1.
         21   -1    0    0  503  502 -0.00000000000E+00 -0.00000000000E+00 -0.20684488958E+02  0.20684488958E+02  0.00000000000E+00 0. -1.
         21    1    1    2  503  501  0.63812040651E+02  0.77329294313E+02  0.28012588843E+03  0.29752698980E+03  0.00000000000E+00 0. -1.
         21    1    1    2  504  502 -0.63812040651E+02 -0.77329294313E+02  0.19770915388E+03  0.22167703043E+03  0.00000000000E+00 0. -1.
<mgrwt>
<rscale>  2 0.10025865E+03</rscale>
<asrwt>0</asrwt>
<pdfrwt beam="1">  1       21 0.76695304E-01 0.10025865E+03</pdfrwt>
<pdfrwt beam="2">  1       21 0.31822294E-02 0.10025865E+03</pdfrwt>
<totfact> 0.87179949E+05</totfact>
</mgrwt>
</event>
<event>
 4    1  0.6055396E+003  0.1034741E+03  0.7546771E-02  0.1273156E+00
         21   -1    0    0  504  501  0.00000000000E+00  0.00000000000E+00  0.18423402103E+03  0.18423402103E+03  0.00000000000E+00 0.  1.
         21   -1    0    0  503  502 -0.00000000000E+00 -0.00000000000E+00 -0.70386642186E+02  0.70386642186E+02  0.00000000000E+00 0.  1.
         21    1    1    2  503  501  0.87354861434E+02  0.55461796076E+02  0.11008040030E+03  0.15107804993E+03  0.00000000000E+00 0.  1.
         21    1    1    2  504  502 -0.87354861434E+02 -0.55461796076E+02  0.37669785505E+01  0.10354261329E+03  0.00000000000E+00 0.  1.
<mgrwt>
<rscale>  2 0.10347407E+03</rscale>
<asrwt>0</asrwt>
<pdfrwt beam="1">  1       21 0.28343695E-01 0.10347407E+03</pdfrwt>
<pdfrwt beam="2">  1       21 0.10828714E-01 0.10347407E+03</pdfrwt>
<totfact> 0.83969967E+05</totfact>
</mgrwt>
</event>
<event>
 4    1  0.6055396E+003  0.1146119E+03  0.7546771E-02  0.1252260E+00
         21   -1    0    0  504  501  0.00000000000E+00  0.00000000000E+00  0.56233313319E+03  0.56233313319E+03  0.00000000000E+00 0. -1.
         21   -1    0    0  501  502 -0.00000000000E+00 -0.00000000000E+00 -0.40825703830E+03  0.40825703830E+03  0.00000000000E+00 0. -1.
         21    1    1    2  503  502 -0.78528425181E+02 -0.83481595806E+02 -0.39416875363E+03  0.41049347954E+03  0.00000000000E+00 0. -1.
         21    1    1    2  504  503  0.78528425181E+02  0.83481595806E+02  0.54824484853E+03  0.56009669195E+03  0.00000000000E+00 0. -1.
<mgrwt>
<rscale>  2 0.11461191E+03</rscale>
<asrwt>0</asrwt>
<pdfrwt beam="1">  1       21 0.86512789E-01 0.11461191E+03</pdfrwt>
<pdfrwt beam="2">  1       21 0.62808776E-01 0.11461191E+03</pdfrwt>
<totfact> 0.29294126E+03</totfact>
</mgrwt>
</event>
<event>
 4    1  0.6055396E+003  0.1156242E+03  0.7546771E-02  0.1250495E+00
         21   -1    0    0  502  501  0.00000000000E+00  0.00000000000E+00  0.57925857180E+02  0.57925857180E+02  0.00000000000E+00 0.  1.
         21   -1    0    0  504  502 -0.00000000000E+00 -0.00000000000E+00 -0.24083087780E+03  0.24083087780E+03  0.00000000000E+00 0.  1.
         21    1    1    2  503  501  0.78765333289E+02 -0.84646220293E+02 -0.60957874440E+02  0.13070892393E+03  0.00000000000E+00 0.  1.
         21    1    1    2  504  503 -0.78765333289E+02  0.84646220293E+02 -0.12194714618E+03  0.16804781106E+03  0.00000000000E+00 0.  1.
<mgrwt>
<rscale>  2 0.11562422E+03</rscale>
<asrwt>0</asrwt>
<pdfrwt beam="1">  1       21 0.89116704E-02 0.11562422E+03</pdfrwt>
<pdfrwt beam="2">  1       21 0.37050904E-01 0.11562422E+03</pdfrwt>
<totfact> 0.70172047E+05</totfact>
</mgrwt>
</event>
<event>
 4    1  0.6055396E+003  0.1493763E+03  0.7546771E-02  0.1201241E+00
         21   -1    0    0  504  501  0.00000000000E+00  0.00000000000E+00  0.52645353120E+03  0.52645353120E+03  0.00000000000E+00 0.  1.
         21   -1    0    0  503  502 -0.00000000000E+00 -0.00000000000E+00 -0.54000704691E+02  0.54000704691E+02  0.00000000000E+00 0.  1.
         21    1    1    2  503  501  0.75846385052E+02 -0.12868805626E+03  0.37083624641E+03  0.39979095988E+03  0.00000000000E+00 0.  1.
         21    1    1    2  504  502 -0.75846385052E+02  0.12868805626E+03  0.10161658010E+03  0.18066327601E+03  0.00000000000E+00 0.  1.
<mgrwt>
<rscale>  2 0.14937634E+03</rscale>
<asrwt>0</asrwt>
<pdfrwt beam="1">  1       21 0.80992847E-01 0.14937634E+03</pdfrwt>
<pdfrwt beam="2">  1       21 0.83078011E-02 0.14937634E+03</pdfrwt>
<totfact> 0.15254112E+05</totfact>
</mgrwt>
</event>
<event>
 4    1  0.6055396E+003  0.1126459E+03  0.7546771E-02  0.1255747E+00
         21   -1    0    0  503  501  0.00000000000E+00  0.00000000000E+00  0.20030931263E+03  0.20030931263E+03  0.00000000000E+00 0. -1.
         21   -1    0    0  501  502 -0.00000000000E+00 -0.00000000000E+00 -0.73583718788E+02  0.73583718788E+02  0.00000000000E+00 0. -1.
         21    1    1    2  503  504 -0.93641217488E+02  0.62613251216E+02  0.11444029536E+03  0.16057919555E+03  0.00000000000E+00 0. -1.
         21    1    1    2  504  502  0.93641217488E+02 -0.62613251216E+02  0.12285298478E+02  0.11331383587E+03  0.00000000000E+00 0. -1.
<mgrwt>
<rscale>  2 0.11264589E+03</rscale>
<asrwt>0</asrwt>
<pdfrwt beam="1">  1       21 0.30816817E-01 0.11264589E+03</pdfrwt>
<pdfrwt beam="2">  1       21 0.11320572E-01 0.11264589E+03</pdfrwt>
<totfact> 0.66205656E+05</totfact>
</mgrwt>
</event>
<event>
 4    1  0.6055396E+003  0.1074869E+03  0.7546771E-02  0.1265296E+00
         21   -1    0    0  504  501  0.00000000000E+00  0.00000000000E+00  0.75303410409E+02  0.75303410409E+02  0.00000000000E+00 0. -1.
         21   -1    0    0  503  502 -0.00000000000E+00 -0.00000000000E+00 -0.19172773248E+03  0.19172773248E+03  0.00000000000E+00 0. -1.
         21    1    1    2  503  501 -0.52015630295E+02  0.94062772574E+02  0.14644201967E+01  0.10749686277E+03  0.00000000000E+00 0. -1.
         21    1    1    2  504  502  0.52015630295E+02 -0.94062772574E+02 -0.11788874227E+03  0.15953428012E+03  0.00000000000E+00 0. -1.
<mgrwt>
<rscale>  2 0.10748689E+03</rscale>
<asrwt>0</asrwt>
<pdfrwt beam="1">  1       21 0.11585140E-01 0.10748689E+03</pdfrwt>
<pdfrwt beam="2">  1       21 0.29496574E-01 0.10748689E+03</pdfrwt>
<totfact> 0.69144325E+05</totfact>
</mgrwt>
</event>
<event>
 4    1  0.6055396E+003  0.1030426E+03  0.7546771E-02  0.1274025E+00
         21   -1    0    0  504  501  0.00000000000E+00  0.00000000000E+00  0.15026663733E+02  0.15026663733E+02  0.00000000000E+00 0. -1.
         21   -1    0    0  503  502 -0.00000000000E+00 -0.00000000000E+00 -0.71319825464E+03  0.71319825464E+03  0.00000000000E+00 0.  1.
         21    1    1    2  503  501 -0.98499999875E+01 -0.10257074890E+03 -0.31405295491E+03  0.33052539920E+03  0.00000000000E+00 0. -1.
         21    1    1    2  504  502  0.98499999875E+01  0.10257074890E+03 -0.38411863600E+03  0.39769951917E+03  0.00000000000E+00 0.  1.
<mgrwt>
<rscale>  2 0.10304262E+03</rscale>
<asrwt>0</asrwt>
<pdfrwt beam="1">  1       21 0.23117949E-02 0.10304262E+03</pdfrwt>
<pdfrwt beam="2">  1       21 0.10972279E+00 0.10304262E+03</pdfrwt>
<totfact> 0.64698665E+05</totfact>
</mgrwt>
</event>
<event>
 4    1  0.6055396E+003  0.1044444E+03  0.7546771E-02  0.1271218E+00
         21   -1    0    0  503  501  0.00000000000E+00  0.00000000000E+00  0.45231636692E+03  0.45231636692E+03  0.00000000000E+00 0.  1.
         21   -1    0    0  504  502 -0.00000000000E+00 -0.00000000000E+00 -0.36405275196E+02  0.36405275196E+02  0.00000000000E+00 0. -1.
         21    1    1    2  503  502 -0.10243119224E+03  0.20407912985E+02  0.65987612040E+02  0.12354350245E+03  0.00000000000E+00 0. -1.
         21    1    1    2  504  501  0.10243119224E+03 -0.20407912985E+02  0.34992347969E+03  0.36517813967E+03  0.00000000000E+00 0.  1.
<mgrwt>
<rscale>  2 0.10444440E+03</rscale>
<asrwt>0</asrwt>
<pdfrwt beam="1">  1       21 0.69587129E-01 0.10444440E+03</pdfrwt>
<pdfrwt beam="2">  1       21 0.56008119E-02 0.10444440E+03</pdfrwt>
<totfact> 0.42251864E+05</totfact>
</mgrwt>
</event>
<event>
 4    1  0.6055396E+003  0.1270193E+03  0.7546771E-02  0.1231947E+00
         21   -1    0    0  504  501  0.00000000000E+00  0.00000000000E+00  0.11449129720E+03  0.11449129720E+03  0.00000000000E+00 0.  1.
         21   -1    0    0  503  502 -0.00000000000E+00 -0.00000000000E+00 -0.26189108762E+03  0.26189108762E+03  0.00000000000E+00 0. -1.
         21    1    1    2  503  501  0.79132555780E+02  0.99357694674E+02  0.54203735910E+02  0.13810125945E+03  0.00000000000E+00 0.  1.
         21    1    1    2  504  502 -0.79132555780E+02 -0.99357694674E+02 -0.20160352634E+03  0.23828112537E+03  0.00000000000E+00 0. -1.
<mgrwt>
<rscale>  2 0.12701934E+03</rscale>
<asrwt>0</asrwt>
<pdfrwt beam="1">  1       21 0.17614046E-01 0.12701934E+03</pdfrwt>
<pdfrwt beam="2">  1       21 0.40290936E-01 0.12701934E+03</pdfrwt>
<totfact> 0.17684966E+05</totfact>
</mgrwt>
</event>
<event>
 4    1  0.6055396E+003  0.1008590E+03  0.7546771E-02  0.1278500E+00
         21   -1    0    0  502  501  0.00000000000E+00  0.00000000000E+00  0.12143756958E+04  0.12143756958E+04  0.00000000000E+00 0.  1.
         21   -1    0    0  503  502 -0.00000000000E+00 -0.00000000000E+00 -0.23968709093E+02  0.23968709093E+02  0.00000000000E+00 0. -1.
         21    1    1    2  503  504  0.34476392988E+02  0.94783520790E+02  0.95814128042E+02  0.13911464560E+03  0.00000000000E+00 0. -1.
         21    1    1    2  504  501 -0.34476392988E+02 -0.94783520790E+02  0.10945928587E+04  0.10992297593E+04  0.00000000000E+00 0.  1.
<mgrwt>
<rscale>  2 0.10085900E+03</rscale>
<asrwt>0</asrwt>
<pdfrwt beam="1">  1       21 0.18682698E+00 0.10085900E+03</pdfrwt>
<pdfrwt beam="2">  1       21 0.36874946E-02 0.10085900E+03</pdfrwt>
<totfact> 0.78173689E+04</totfact>
</mgrwt>
</event>
<event>
 4    1  0.6055396E+003  0.1653632E+03  0.7546771E-02  0.1182771E+00
         21   -1    0    0  503  501  0.00000000000E+00  0.00000000000E+00  0.88800769219E+02  0.88800769219E+02  0.00000000000E+00 0. -1.
         21   -1    0    0  501  502 -0.00000000000E+00 -0.00000000000E+00 -0.85857309873E+03  0.85857309873E+03  0.00000000000E+00 0. -1.
         21    1    1    2  503  504 -0.73678853398E+02  0.14804189421E+03 -0.55402577417E+01  0.16545594681E+03  0.00000000000E+00 0. -1.
         21    1    1    2  504  502  0.73678853398E+02 -0.14804189421E+03 -0.76423207177E+03  0.78191792114E+03  0.00000000000E+00 0. -1.
<mgrwt>
<rscale>  2 0.16536316E+03</rscale>
<asrwt>0</asrwt>
<pdfrwt beam="1">  1       21 0.13661657E-01 0.16536316E+03</pdfrwt>
<pdfrwt beam="2">  1       21 0.13208817E+00 0.16536316E+03</pdfrwt>
<totfact> 0.19656806E+04</totfact>
</mgrwt>
</event>
<event>
 4    1  0.6055396E+003  0.1357890E+03  0.7546771E-02  0.1219110E+00
         21   -1    0    0  504  501  0.00000000000E+00  0.00000000000E+00  0.10194386435E+02  0.10194386435E+02  0.00000000000E+00 0. -1.
         21   -1    0    0  503  502 -0.00000000000E+00 -0.00000000000E+00 -0.22815641865E+04  0.22815641865E+04  0.00000000000E+00 0. -1.
         21    1    1    2  503  501  0.13152303394E+03  0.33769034784E+02 -0.61402481530E+03  0.62886018317E+03  0.00000000000E+00 0. -1.
         21    1    1    2  504  502 -0.13152303394E+03 -0.33769034784E+02 -0.16573449848E+04  0.16628983898E+04  0.00000000000E+00 0. -1.
<mgrwt>
<rscale>  2 0.13578901E+03</rscale>
<asrwt>0</asrwt>
<pdfrwt beam="1">  1       21 0.15683680E-02 0.13578901E+03</pdfrwt>
<pdfrwt beam="2">  1       21 0.35100967E+00 0.13578901E+03</pdfrwt>
<totfact> 0.33732989E+04</totfact>
</mgrwt>
</event>
<event>
 4    1  0.6055396E+003  0.1537681E+03  0.7546771E-02  0.1195918E+00
         21   -1    0    0  504  501  0.00000000000E+00  0.00000000000E+00  0.22596328665E+02  0.22596328665E+02  0.00000000000E+00 0.  1.
         21   -1    0    0  503  502 -0.00000000000E+00 -0.00000000000E+00 -0.14031501332E+04  0.14031501332E+04  0.00000000000E+00 0.  1.
         21    1    1    2  503  501  0.14929416597E+03 -0.36822313376E+02 -0.10497337996E+04  0.10609362284E+04  0.00000000000E+00 0.  1.
         21    1    1    2  504  502 -0.14929416597E+03  0.36822313376E+02 -0.33082000487E+03  0.36481023338E+03  0.00000000000E+00 0.  1.
<mgrwt>
<rscale>  2 0.15376811E+03</rscale>
<asrwt>0</asrwt>
<pdfrwt beam="1">  1       21 0.34763579E-02 0.15376811E+03</pdfrwt>
<pdfrwt beam="2">  1       21 0.21586927E+00 0.15376811E+03</pdfrwt>
<totfact> 0.54343484E+04</totfact>
</mgrwt>
</event>
<event>
 4    1  0.6055396E+003  0.1119988E+03  0.7546771E-02  0.1256913E+00
         21   -1    0    0  502  501  0.00000000000E+00  0.00000000000E+00  0.13597326955E+04  0.13597326955E+04  0.00000000000E+00 0. -1.
         21   -1    0    0  504  502 -0.00000000000E+00 -0.00000000000E+00 -0.12249304312E+02  0.12249304312E+02  0.00000000000E+00 0. -1.
         21    1    1    2  503  501  0.66224589031E+02 -0.90321866140E+02  0.10145928785E+04  0.10207558204E+04  0.00000000000E+00 0. -1.
         21    1    1    2  504  503 -0.66224589031E+02  0.90321866140E+02  0.33289051271E+03  0.35122617947E+03  0.00000000000E+00 0. -1.
<mgrwt>
<rscale>  2 0.11199882E+03</rscale>
<asrwt>0</asrwt>
<pdfrwt beam="1">  1       21 0.20918953E+00 0.11199882E+03</pdfrwt>
<pdfrwt beam="2">  1       21 0.18845094E-02 0.11199882E+03</pdfrwt>
<totfact> 0.16701038E+05</totfact>
</mgrwt>
</event>
<event>
 4    1  0.6055396E+003  0.1497066E+03  0.7546771E-02  0.1200834E+00
         21   -1    0    0  503  501  0.00000000000E+00  0.00000000000E+00  0.57750092212E+03  0.57750092212E+03  0.00000000000E+00 0. -1.
         21   -1    0    0  504  502 -0.00000000000E+00 -0.00000000000E+00 -0.87570994488E+02  0.87570994488E+02  0.00000000000E+00 0. -1.
         21    1    1    2  503  502 -0.62186639069E+02 -0.13617960225E+03 -0.31771761907E+01  0.14974029717E+03  0.00000000000E+00 0. -1.
         21    1    1    2  504  501  0.62186639069E+02  0.13617960225E+03  0.49310710382E+03  0.51533161943E+03  0.00000000000E+00 0. -1.
<mgrwt>
<rscale>  2 0.14970659E+03</rscale>
<asrwt>0</asrwt>
<pdfrwt beam="1">  1       21 0.88846293E-01 0.14970659E+03</pdfrwt>
<pdfrwt beam="2">  1       21 0.13472461E-01 0.14970659E+03</pdfrwt>
<totfact> 0.52713671E+04</totfact>
</mgrwt>
</event>
<event>
 4    1  0.6055396E+003  0.1084538E+03  0.7546771E-02  0.1263460E+00
         21   -1    0    0  504  501  0.00000000000E+00  0.00000000000E+00  0.25458087338E+04  0.25458087338E+04  0.00000000000E+00 0. -1.
         21   -1    0    0  503  502 -0.00000000000E+00 -0.00000000000E+00 -0.46240999241E+01  0.46240999241E+01  0.00000000000E+00 0.  1.
         21    1    1    2  503  501 -0.86769498907E+02  0.65063650747E+02  0.12337062854E+04  0.12384641388E+04  0.00000000000E+00 0.  1.
         21    1    1    2  504  502  0.86769498907E+02 -0.65063650747E+02  0.13074783485E+04  0.13119686949E+04  0.00000000000E+00 0. -1.
<mgrwt>
<rscale>  2 0.10845379E+03</rscale>
<asrwt>0</asrwt>
<pdfrwt beam="1">  1       21 0.39166176E+00 0.10845379E+03</pdfrwt>
<pdfrwt beam="2">  1       21 0.71140202E-03 0.10845379E+03</pdfrwt>
<totfact> 0.70668082E+04</totfact>
</mgrwt>
</event>
<event>
 4    1  0.6055396E+003  0.2101031E+03  0.7546771E-02  0.1141484E+00
         21   -1    0    0  504  501  0.00000000000E+00  0.00000000000E+00  0.88773878517E+02  0.88773878517E+02  0.00000000000E+00 0.  1.
         21   -1    0    0  503  502 -0.00000000000E+00 -0.00000000000E+00 -0.50427154045E+03  0.50427154045E+03  0.00000000000E+00 0. -1.
         21    1    1    2  503  501  0.21005846596E+03 -0.43299916815E+01 -0.24272472096E+03  0.32102741023E+03  0.00000000000E+00 0. -1.
         21    1    1    2  504  502 -0.21005846596E+03  0.43299916815E+01 -0.17277294097E+03  0.27201800874E+03  0.00000000000E+00 0.  1.
<mgrwt>
<rscale>  2 0.21010309E+03</rscale>
<asrwt>0</asrwt>
<pdfrwt beam="1">  1       21 0.13657520E-01 0.21010309E+03</pdfrwt>
<pdfrwt beam="2">  1       21 0.77580238E-01 0.21010309E+03</pdfrwt>
<totfact> 0.67994616E+04</totfact>
</mgrwt>
</event>
<event>
 4    1  0.6055396E+003  0.1124855E+03  0.7546771E-02  0.1256035E+00
         21   -1    0    0  503  501  0.00000000000E+00  0.00000000000E+00  0.31897664675E+02  0.31897664675E+02  0.00000000000E+00 0. -1.
         21   -1    0    0  504  502 -0.00000000000E+00 -0.00000000000E+00 -0.47449635747E+03  0.47449635747E+03  0.00000000000E+00 0. -1.
         21    1    1    2  503  502  0.24216067556E+02 -0.10984793126E+03 -0.11875934909E+03  0.16357496424E+03  0.00000000000E+00 0. -1.
         21    1    1    2  504  501 -0.24216067556E+02  0.10984793126E+03 -0.32383934371E+03  0.34281905791E+03  0.00000000000E+00 0. -1.
<mgrwt>
<rscale>  2 0.11248549E+03</rscale>
<asrwt>0</asrwt>
<pdfrwt beam="1">  1       21 0.49073329E-02 0.11248549E+03</pdfrwt>
<pdfrwt beam="2">  1       21 0.72999442E-01 0.11248549E+03</pdfrwt>
<totfact> 0.47470659E+05</totfact>
</mgrwt>
</event>
<event>
 4    1  0.6055396E+003  0.1159623E+03  0.7546771E-02  0.1249911E+00
         21   -1    0    0  502  501  0.00000000000E+00  0.00000000000E+00  0.77351490285E+02  0.77351490285E+02  0.00000000000E+00 0. -1.
         21   -1    0    0  504  502 -0.00000000000E+00 -0.00000000000E+00 -0.59927013589E+03  0.59927013589E+03  0.00000000000E+00 0. -1.
         21    1    1    2  503  501 -0.48744582402E+02  0.10521991954E+03  0.24087038252E+02  0.11843754132E+03  0.00000000000E+00 0. -1.
         21    1    1    2  504  503  0.48744582402E+02 -0.10521991954E+03 -0.54600568386E+03  0.55818408486E+03  0.00000000000E+00 0. -1.
<mgrwt>
<rscale>  2 0.11596235E+03</rscale>
<asrwt>0</asrwt>
<pdfrwt beam="1">  1       21 0.11900229E-01 0.11596235E+03</pdfrwt>
<pdfrwt beam="2">  1       21 0.92195408E-01 0.11596235E+03</pdfrwt>
<totfact> 0.61515787E+04</totfact>
</mgrwt>
</event>
<event>
 4    1  0.6055396E+003  0.1136895E+03  0.7546771E-02  0.1253886E+00
         21   -1    0    0  504  501  0.00000000000E+00  0.00000000000E+00  0.10957196947E+03  0.10957196947E+03  0.00000000000E+00 0.  1.
         21   -1    0    0  503  502 -0.00000000000E+00 -0.00000000000E+00 -0.25177100846E+03  0.25177100846E+03  0.00000000000E+00 0.  1.
         21    1    1    2  503  501 -0.62563108593E+02  0.94927177811E+02 -0.20281283813E+03  0.23250453534E+03  0.00000000000E+00 0.  1.
         21    1    1    2  504  502  0.62563108593E+02 -0.94927177811E+02  0.60613799137E+02  0.12883844259E+03  0.00000000000E+00 0.  1.
<mgrwt>
<rscale>  2 0.11368954E+03</rscale>
<asrwt>0</asrwt>
<pdfrwt beam="1">  1       21 0.16857226E-01 0.11368954E+03</pdfrwt>
<pdfrwt beam="2">  1       21 0.38734001E-01 0.11368954E+03</pdfrwt>
<totfact> 0.20799550E+05</totfact>
</mgrwt>
</event>
<event>
 4    1  0.6055396E+003  0.1393911E+03  0.7546771E-02  0.1214151E+00
         21   -1    0    0  504  501  0.00000000000E+00  0.00000000000E+00  0.25984811281E+04  0.25984811281E+04  0.00000000000E+00 0.  1.
         21   -1    0    0  503  502 -0.00000000000E+00 -0.00000000000E+00 -0.10911801107E+02  0.10911801107E+02  0.00000000000E+00 0. -1.
         21    1    1    2  503  501  0.13934588233E+03 -0.35493261941E+01  0.56182521790E+03  0.57885874625E+03  0.00000000000E+00 0. -1.
         21    1    1    2  504  502 -0.13934588233E+03  0.35493261941E+01  0.20257441091E+04  0.20305341830E+04  0.00000000000E+00 0.  1.
<mgrwt>
<rscale>  2 0.13939108E+03</rscale>
<asrwt>0</asrwt>
<pdfrwt beam="1">  1       21 0.39976583E+00 0.13939108E+03</pdfrwt>
<pdfrwt beam="2">  1       21 0.16787407E-02 0.13939108E+03</pdfrwt>
<totfact> 0.15421486E+04</totfact>
</mgrwt>
</event>
<event>
 4    1  0.6055396E+003  0.1587870E+03  0.7546771E-02  0.1190073E+00
         21   -1    0    0  503  501  0.00000000000E+00  0.00000000000E+00  0.18074658805E+03  0.18074658805E+03  0.00000000000E+00 0.  1.
         21   -1    0    0  504  502 -0.00000000000E+00 -0.00000000000E+00 -0.14032410368E+03  0.14032410368E+03  0.00000000000E+00 0.  1.
         21    1    1    2  503  502  0.16534154393E+02 -0.15792378810E+03  0.78737165463E+01  0.15898206352E+03  0.00000000000E+00 0.  1.
         21    1    1    2  504  501 -0.16534154393E+02  0.15792378810E+03  0.32548767817E+02  0.16208862821E+03  0.00000000000E+00 0.  1.
<mgrwt>
<rscale>  2 0.15878697E+03</rscale>
<asrwt>0</asrwt>
<pdfrwt beam="1">  1       21 0.27807167E-01 0.15878697E+03</pdfrwt>
<pdfrwt beam="2">  1       21 0.21588324E-01 0.15878697E+03</pdfrwt>
<totfact> 0.24917358E+05</totfact>
</mgrwt>
</event>
<event>
 4    1  0.6055396E+003  0.1033003E+03  0.7546771E-02  0.1273505E+00
         21   -1    0    0  504  501  0.00000000000E+00  0.00000000000E+00  0.36017182477E+02  0.36017182477E+02  0.00000000000E+00 0. -1.
         21   -1    0    0  503  502 -0.00000000000E+00 -0.00000000000E+00 -0.37210826749E+03  0.37210826749E+03  0.00000000000E+00 0. -1.
         21    1    1    2  503  501  0.96904624480E+02 -0.35783296790E+02 -0.75923809401E+02  0.12820052811E+03  0.00000000000E+00 0. -1.
         21    1    1    2  504  502 -0.96904624480E+02  0.35783296790E+02 -0.26016727561E+03  0.27992492185E+03  0.00000000000E+00 0. -1.
<mgrwt>
<rscale>  2 0.10330029E+03</rscale>
<asrwt>0</asrwt>
<pdfrwt beam="1">  1       21 0.55411053E-02 0.10330029E+03</pdfrwt>
<pdfrwt beam="2">  1       21 0.57247422E-01 0.10330029E+03</pdfrwt>
<totfact> 0.65184386E+05</totfact>
</mgrwt>
</event>
<event>
 4    1  0.6055396E+003  0.1260270E+03  0.7546771E-02  0.1233473E+00
         21   -1    0    0  504  501  0.00000000000E+00  0.00000000000E+00  0.10560020321E+04  0.10560020321E+04  0.00000000000E+00 0. -1.
         21   -1    0    0  503  502 -0.00000000000E+00 -0.00000000000E+00 -0.17590230477E+02  0.17590230477E+02  0.00000000000E+00 0. -1.
         21    1    1    2  503  501 -0.12572428685E+03 -0.87297919671E+01  0.72357733124E+03  0.73447053028E+03  0.00000000000E+00 0. -1.
         21    1    1    2  504  502  0.12572428685E+03  0.87297919671E+01  0.31483447040E+03  0.33912173231E+03  0.00000000000E+00 0. -1.
<mgrwt>
<rscale>  2 0.12602700E+03</rscale>
<asrwt>0</asrwt>
<pdfrwt beam="1">  1       21 0.16246180E+00 0.12602700E+03</pdfrwt>
<pdfrwt beam="2">  1       21 0.27061901E-02 0.12602700E+03</pdfrwt>
<totfact> 0.18654482E+05</totfact>
</mgrwt>
</event>
<event>
 4    1  0.6055396E+003  0.1253167E+03  0.7546771E-02  0.1234575E+00
         21   -1    0    0  504  501  0.00000000000E+00  0.00000000000E+00  0.17876732715E+03  0.17876732715E+03  0.00000000000E+00 0.  1.
         21   -1    0    0  501  502 -0.00000000000E+00 -0.00000000000E+00 -0.89587855015E+02  0.89587855015E+02  0.00000000000E+00 0.  1.
         21    1    1    2  503  502  0.42019607112E+02  0.11806197275E+03  0.25888747671E+02  0.12796290106E+03  0.00000000000E+00 0.  1.
         21    1    1    2  504  503 -0.42019607112E+02 -0.11806197275E+03  0.63290724462E+02  0.14039228111E+03  0.00000000000E+00 0.  1.
<mgrwt>
<rscale>  2 0.12531671E+03</rscale>
<asrwt>0</asrwt>
<pdfrwt beam="1">  1       21 0.27502666E-01 0.12531671E+03</pdfrwt>
<pdfrwt beam="2">  1       21 0.13782747E-01 0.12531671E+03</pdfrwt>
<totfact> 0.58076276E+05</totfact>
</mgrwt>
</event>
<event>
 4    1  0.6055396E+003  0.1007846E+03  0.7546771E-02  0.1278655E+00
         21   -1    0    0  502  501  0.00000000000E+00  0.00000000000E+00  0.22183580145E+04  0.22183580145E+04  0.00000000000E+00 0. -1.
         21   -1    0    0  503  502 -0.00000000000E+00 -0.00000000000E+00 -0.74373075668E+02  0.74373075668E+02  0.00000000000E+00 0.  1.
         21    1    1    2  503  504 -0.67964790463E+02  0.74419910996E+02 -0.38523964943E+02  0.10789639369E+03  0.00000000000E+00 0.  1.
         21    1    1    2  504  501  0.67964790463E+02 -0.74419910996E+02  0.21825089037E+04  0.21848346965E+04  0.00000000000E+00 0. -1.
<mgrwt>
<rscale>  2 0.10078460E+03</rscale>
<asrwt>0</asrwt>
<pdfrwt beam="1">  1       21 0.34128580E+00 0.10078460E+03</pdfrwt>
<pdfrwt beam="2">  1       21 0.11442013E-01 0.10078460E+03</pdfrwt>
<totfact> 0.14959126E+03</totfact>
</mgrwt>
</event>
<event>
 4    1  0.6055396E+003  0.1354198E+03  0.7546771E-02  0.1219628E+00
         21   -1    0    0  502  501  0.00000000000E+00  0.00000000000E+00  0.24990795129E+04  0.24990795129E+04  0.00000000000E+00 0.  1.
         21   -1    0    0  504  502 -0.00000000000E+00 -0.00000000000E+00 -0.94792041274E+01  0.94792041274E+01  0.00000000000E+00 0.  1.
         21    1    1    2  503  501 -0.13531415856E+03  0.53481910351E+01  0.18409096549E+04  0.18458837672E+04  0.00000000000E+00 0.  1.
         21    1    1    2  504  503  0.13531415856E+03 -0.53481910351E+01  0.64869065384E+03  0.66267494975E+03  0.00000000000E+00 0.  1.
<mgrwt>
<rscale>  2 0.13541981E+03</rscale>
<asrwt>0</asrwt>
<pdfrwt beam="1">  1       21 0.38447325E+00 0.13541981E+03</pdfrwt>
<pdfrwt beam="2">  1       21 0.14583411E-02 0.13541981E+03</pdfrwt>
<totfact> 0.24072084E+04</totfact>
</mgrwt>
</event>
<event>
 4    1  0.6055396E+003  0.1024131E+03  0.7546771E-02  0.1275302E+00
         21   -1    0    0  502  501  0.00000000000E+00  0.00000000000E+00  0.12619758682E+04  0.12619758682E+04  0.00000000000E+00 0. -1.
         21   -1    0    0  504  502 -0.00000000000E+00 -0.00000000000E+00 -0.20068761626E+02  0.20068761626E+02  0.00000000000E+00 0. -1.
         21    1    1    2  503  501 -0.95709145028E+02 -0.36444437145E+02  0.11116047965E+04  0.11163125284E+04  0.00000000000E+00 0. -1.
         21    1    1    2  504  503  0.95709145028E+02  0.36444437145E+02  0.13030231015E+03  0.16573210151E+03  0.00000000000E+00 0. -1.
<mgrwt>
<rscale>  2 0.10241307E+03</rscale>
<asrwt>0</asrwt>
<pdfrwt beam="1">  1       21 0.19415007E+00 0.10241307E+03</pdfrwt>
<pdfrwt beam="2">  1       21 0.30875028E-02 0.10241307E+03</pdfrwt>
<totfact> 0.93801964E+04</totfact>
</mgrwt>
</event>
<event>
 4    1  0.6055396E+003  0.1027553E+03  0.7546771E-02  0.1274606E+00
         21   -1    0    0  504  501  0.00000000000E+00  0.00000000000E+00  0.17386926342E+02  0.17386926342E+02  0.00000000000E+00 0. -1.
         21   -1    0    0  503  502 -0.00000000000E+00 -0.00000000000E+00 -0.12430082272E+04  0.12430082272E+04  0.00000000000E+00 0.  1.
         21    1    1    2  503  501 -0.73827012556E+02  0.71471806335E+02 -0.10634998591E+04  0.10684524309E+04  0.00000000000E+00 0.  1.
         21    1    1    2  504  502  0.73827012556E+02 -0.71471806335E+02 -0.16212144181E+03  0.19194272265E+03  0.00000000000E+00 0. -1.
<mgrwt>
<rscale>  2 0.10275528E+03</rscale>
<asrwt>0</asrwt>
<pdfrwt beam="1">  1       21 0.26749119E-02 0.10275528E+03</pdfrwt>
<pdfrwt beam="2">  1       21 0.19123203E+00 0.10275528E+03</pdfrwt>
<totfact> 0.12359495E+05</totfact>
</mgrwt>
</event>
<event>
 4    1  0.6055396E+003  0.1264252E+03  0.7546771E-02  0.1232859E+00
         21   -1    0    0  503  501  0.00000000000E+00  0.00000000000E+00  0.39747252073E+03  0.39747252073E+03  0.00000000000E+00 0.  1.
         21   -1    0    0  504  502 -0.00000000000E+00 -0.00000000000E+00 -0.46818131844E+02  0.46818131844E+02  0.00000000000E+00 0.  1.
         21    1    1    2  503  502  0.10473628668E+03 -0.70807071248E+02  0.91884172582E+02  0.15628829853E+03  0.00000000000E+00 0.  1.
         21    1    1    2  504  501 -0.10473628668E+03  0.70807071248E+02  0.25877021630E+03  0.28800235404E+03  0.00000000000E+00 0.  1.
<mgrwt>
<rscale>  2 0.12642520E+03</rscale>
<asrwt>0</asrwt>
<pdfrwt beam="1">  1       21 0.61149616E-01 0.12642520E+03</pdfrwt>
<pdfrwt beam="2">  1       21 0.72027898E-02 0.12642520E+03</pdfrwt>
<totfact> 0.36276915E+05</totfact>
</mgrwt>
</event>
<event>
 4    1  0.6055396E+003  0.1164825E+03  0.7546771E-02  0.1249015E+00
         21   -1    0    0  503  501  0.00000000000E+00  0.00000000000E+00  0.44404826767E+02  0.44404826767E+02  0.00000000000E+00 0. -1.
         21   -1    0    0  501  502 -0.00000000000E+00 -0.00000000000E+00 -0.44435441630E+03  0.44435441630E+03  0.00000000000E+00 0.  1.
         21    1    1    2  503  504 -0.81913055199E+02  0.82815601892E+02 -0.63393226402E+02  0.13261551072E+03  0.00000000000E+00 0. -1.
         21    1    1    2  504  502  0.81913055199E+02 -0.82815601892E+02 -0.33655636313E+03  0.35614373235E+03  0.00000000000E+00 0.  1.
<mgrwt>
<rscale>  2 0.11648250E+03</rscale>
<asrwt>0</asrwt>
<pdfrwt beam="1">  1       21 0.68315118E-02 0.11648250E+03</pdfrwt>
<pdfrwt beam="2">  1       21 0.68362218E-01 0.11648250E+03</pdfrwt>
<totfact> 0.31312164E+05</totfact>
</mgrwt>
</event>
<event>
 4    1  0.6055396E+003  0.1338509E+03  0.7546771E-02  0.1221851E+00
         21   -1    0    0  504  501  0.00000000000E+00  0.00000000000E+00  0.88035312296E+02  0.88035312296E+02  0.00000000000E+00 0.  1.
         21   -1    0    0  501  502 -0.00000000000E+00 -0.00000000000E+00 -0.39556078937E+03  0.39556078937E+03  0.00000000000E+00 0.  1.
         21    1    1    2  503  502 -0.13372359934E+03 -0.58362010558E+01 -0.32224503742E+03  0.34893828452E+03  0.00000000000E+00 0.  1.
         21    1    1    2  504  503  0.13372359934E+03  0.58362010558E+01  0.14719560343E+02  0.13465781715E+03  0.00000000000E+00 0.  1.
<mgrwt>
<rscale>  2 0.13385090E+03</rscale>
<asrwt>0</asrwt>
<pdfrwt beam="1">  1       21 0.13543894E-01 0.13385090E+03</pdfrwt>
<pdfrwt beam="2">  1       21 0.60855507E-01 0.13385090E+03</pdfrwt>
<totfact> 0.12121936E+05</totfact>
</mgrwt>
</event>
<event>
 4    1  0.6055396E+003  0.1020602E+03  0.7546771E-02  0.1276022E+00
         21   -1    0    0  503  501  0.00000000000E+00  0.00000000000E+00  0.78030129897E+02  0.78030129897E+02  0.00000000000E+00 0. -1.
         21   -1    0    0  504  502 -0.00000000000E+00 -0.00000000000E+00 -0.15348658084E+03  0.15348658084E+03  0.00000000000E+00 0. -1.
         21    1    1    2  503  502 -0.75134534290E+02 -0.69073076247E+02  0.40537147025E+01  0.10214069076E+03  0.00000000000E+00 0. -1.
         21    1    1    2  504  501  0.75134534290E+02  0.69073076247E+02 -0.79510165647E+02  0.12937601998E+03  0.00000000000E+00 0. -1.
<mgrwt>
<rscale>  2 0.10206022E+03</rscale>
<asrwt>0</asrwt>
<pdfrwt beam="1">  1       21 0.12004635E-01 0.10206022E+03</pdfrwt>
<pdfrwt beam="2">  1       21 0.23613320E-01 0.10206022E+03</pdfrwt>
<totfact> 0.98851308E+05</totfact>
</mgrwt>
</event>
<event>
 4    1  0.6055396E+003  0.1094187E+03  0.7546771E-02  0.1261650E+00
         21   -1    0    0  504  501  0.00000000000E+00  0.00000000000E+00  0.57778347833E+03  0.57778347833E+03  0.00000000000E+00 0.  1.
         21   -1    0    0  503  502 -0.00000000000E+00 -0.00000000000E+00 -0.15258505084E+03  0.15258505084E+03  0.00000000000E+00 0.  1.
         21    1    1    2  503  501  0.13460035347E+02  0.10858761848E+03 -0.12688432608E+03  0.16754723406E+03  0.00000000000E+00 0.  1.
         21    1    1    2  504  502 -0.13460035347E+02 -0.10858761848E+03  0.55208275357E+03  0.56282129510E+03  0.00000000000E+00 0.  1.
<mgrwt>
<rscale>  2 0.10941866E+03</rscale>
<asrwt>0</asrwt>
<pdfrwt beam="1">  1       21 0.88889764E-01 0.10941866E+03</pdfrwt>
<pdfrwt beam="2">  1       21 0.23474624E-01 0.10941866E+03</pdfrwt>
<totfact> 0.19587143E+04</totfact>
</mgrwt>
</event>
<event>
 4    1  0.6055396E+003  0.1094419E+03  0.7546771E-02  0.1261607E+00
         21   -1    0    0  504  501  0.00000000000E+00  0.00000000000E+00  0.45741409193E+03  0.45741409193E+03  0.00000000000E+00 0.  1.
         21   -1    0    0  503  502 -0.00000000000E+00 -0.00000000000E+00 -0.64552360792E+02  0.64552360792E+02  0.00000000000E+00 0.  1.
         21    1    1    2  503  501  0.10137972985E+03  0.41227166523E+02  0.39763446725E+03  0.41242053589E+03  0.00000000000E+00 0.  1.
         21    1    1    2  504  502 -0.10137972985E+03 -0.41227166523E+02 -0.47727361085E+01  0.10954591683E+03  0.00000000000E+00 0.  1.
<mgrwt>
<rscale>  2 0.10944190E+03</rscale>
<asrwt>0</asrwt>
<pdfrwt beam="1">  1       21 0.70371397E-01 0.10944190E+03</pdfrwt>
<pdfrwt beam="2">  1       21 0.99311327E-02 0.10944190E+03</pdfrwt>
<totfact> 0.15472757E+05</totfact>
</mgrwt>
</event>
<event>
 4    1  0.6055396E+003  0.1062835E+03  0.7546771E-02  0.1267611E+00
         21   -1    0    0  503  501  0.00000000000E+00  0.00000000000E+00  0.29206267982E+02  0.29206267982E+02  0.00000000000E+00 0. -1.
         21   -1    0    0  504  502 -0.00000000000E+00 -0.00000000000E+00 -0.45275687679E+03  0.45275687679E+03  0.00000000000E+00 0. -1.
         21    1    1    2  503  502  0.19771769062E+02 -0.10442823986E+03 -0.11977865817E+03  0.16013465298E+03  0.00000000000E+00 0. -1.
         21    1    1    2  504  501 -0.19771769062E+02  0.10442823986E+03 -0.30377195063E+03  0.32182849179E+03  0.00000000000E+00 0. -1.
<mgrwt>
<rscale>  2 0.10628349E+03</rscale>
<asrwt>0</asrwt>
<pdfrwt beam="1">  1       21 0.44932720E-02 0.10628349E+03</pdfrwt>
<pdfrwt beam="2">  1       21 0.69654904E-01 0.10628349E+03</pdfrwt>
<totfact> 0.60925914E+05</totfact>
</mgrwt>
</event>
<event>
 4    1  0.6055396E+003  0.1075822E+03  0.7546771E-02  0.1265114E+00
         21   -1    0    0  504  501  0.00000000000E+00  0.00000000000E+00  0.18762414846E+03  0.18762414846E+03  0.00000000000E+00 0. -1.
         21   -1    0    0  501  502 -0.00000000000E+00 -0.00000000000E+00 -0.61701874933E+02  0.61701874933E+02  0.00000000000E+00 0.  1.
         21    1    1    2  503  502  0.37206661233E+02 -0.10094349381E+03  0.64912715172E+02  0.12564865767E+03  0.00000000000E+00 0. -1.
         21    1    1    2  504  503 -0.37206661233E+02  0.10094349381E+03  0.61009558357E+02  0.12367736573E+03  0.00000000000E+00 0.  1.
<mgrwt>
<rscale>  2 0.10758218E+03</rscale>
<asrwt>0</asrwt>
<pdfrwt beam="1">  1       21 0.28865253E-01 0.10758218E+03</pdfrwt>
<pdfrwt beam="2">  1       21 0.94925962E-02 0.10758218E+03</pdfrwt>
<totfact> 0.10206047E+06</totfact>
</mgrwt>
</event>
<event>
 4    1  0.6055396E+003  0.1104031E+03  0.7546771E-02  0.1259825E+00
         21   -1    0    0  503  501  0.00000000000E+00  0.00000000000E+00  0.36279531836E+03  0.36279531836E+03  0.00000000000E+00 0. -1.
         21   -1    0    0  501  502 -0.00000000000E+00 -0.00000000000E+00 -0.20903811626E+03  0.20903811626E+03  0.00000000000E+00 0.  1.
         21    1    1    2  503  504 -0.84178291774E+02 -0.71434358867E+02  0.33881293964E+03  0.35634682614E+03  0.00000000000E+00 0. -1.
         21    1    1    2  504  502  0.84178291774E+02  0.71434358867E+02 -0.18505573754E+03  0.21548660847E+03  0.00000000000E+00 0.  1.
<mgrwt>
<rscale>  2 0.11040314E+03</rscale>
<asrwt>0</asrwt>
<pdfrwt beam="1">  1       21 0.55814665E-01 0.11040314E+03</pdfrwt>
<pdfrwt beam="2">  1       21 0.32159710E-01 0.11040314E+03</pdfrwt>
<totfact> 0.29589424E+04</totfact>
</mgrwt>
</event>
<event>
 4    1  0.6055396E+003  0.1063551E+03  0.7546771E-02  0.1267472E+00
         21   -1    0    0  503  501  0.00000000000E+00  0.00000000000E+00  0.12987718094E+03  0.12987718094E+03  0.00000000000E+00 0.  1.
         21   -1    0    0  504  502 -0.00000000000E+00 -0.00000000000E+00 -0.33176394897E+03  0.33176394897E+03  0.00000000000E+00 0. -1.
         21    1    1    2  503  502  0.10525340550E+03 -0.15268547155E+02  0.97278229684E+02  0.14413348630E+03  0.00000000000E+00 0.  1.
         21    1    1    2  504  501 -0.10525340550E+03  0.15268547155E+02 -0.29916499771E+03  0.31750764362E+03  0.00000000000E+00 0. -1.
<mgrwt>
<rscale>  2 0.10635510E+03</rscale>
<asrwt>0</asrwt>
<pdfrwt beam="1">  1       21 0.19981105E-01 0.10635510E+03</pdfrwt>
<pdfrwt beam="2">  1       21 0.51040607E-01 0.10635510E+03</pdfrwt>
<totfact> 0.87580991E+04</totfact>
</mgrwt>
</event>
<event>
 4    1  0.6055396E+003  0.1393749E+03  0.7546771E-02  0.1214173E+00
         21   -1    0    0  503  501  0.00000000000E+00  0.00000000000E+00  0.17879543970E+03  0.17879543970E+03  0.00000000000E+00 0.  1.
         21   -1    0    0  504  502 -0.00000000000E+00 -0.00000000000E+00 -0.11196685138E+03  0.11196685138E+03  0.00000000000E+00 0.  1.
         21    1    1    2  503  502 -0.10521550347E+03 -0.91405963716E+02  0.58452828722E+02  0.15113598366E+03  0.00000000000E+00 0.  1.
         21    1    1    2  504  501  0.10521550347E+03  0.91405963716E+02  0.83757595940E+01  0.13962630741E+03  0.00000000000E+00 0.  1.
<mgrwt>
<rscale>  2 0.13937486E+03</rscale>
<asrwt>0</asrwt>
<pdfrwt beam="1">  1       21 0.27506991E-01 0.13937486E+03</pdfrwt>
<pdfrwt beam="2">  1       21 0.17225669E-01 0.13937486E+03</pdfrwt>
<totfact> 0.38748662E+05</totfact>
</mgrwt>
</event>
<event>
 4    1  0.6055396E+003  0.1011893E+03  0.7546771E-02  0.1277815E+00
         21   -1    0    0  503  501  0.00000000000E+00  0.00000000000E+00  0.80629145137E+02  0.80629145137E+02  0.00000000000E+00 0. -1.
         21   -1    0    0  504  502 -0.00000000000E+00 -0.00000000000E+00 -0.13042924650E+03  0.13042924650E+03  0.00000000000E+00 0. -1.
         21    1    1    2  503  502 -0.69370562882E+02  0.73668150522E+02 -0.42030893281E+02  0.10957128906E+03  0.00000000000E+00 0. -1.
         21    1    1    2  504  501  0.69370562882E+02 -0.73668150522E+02 -0.77692080838E+01  0.10148710258E+03  0.00000000000E+00 0. -1.
<mgrwt>
<rscale>  2 0.10118928E+03</rscale>
<asrwt>0</asrwt>
<pdfrwt beam="1">  1       21 0.12404484E-01 0.10118928E+03</pdfrwt>
<pdfrwt beam="2">  1       21 0.20066038E-01 0.10118928E+03</pdfrwt>
<totfact> 0.12611005E+06</totfact>
</mgrwt>
</event>
<event>
 4    1  0.6055396E+003  0.1164457E+03  0.7546771E-02  0.1249078E+00
         21   -1    0    0  503  501  0.00000000000E+00  0.00000000000E+00  0.31823894411E+03  0.31823894411E+03  0.00000000000E+00 0. -1.
         21   -1    0    0  504  502 -0.00000000000E+00 -0.00000000000E+00 -0.54193256244E+02  0.54193256244E+02  0.00000000000E+00 0.  1.
         21    1    1    2  503  502  0.10998782245E+03  0.38239882057E+02  0.45924968458E+02  0.12517472746E+03  0.00000000000E+00 0.  1.
         21    1    1    2  504  501 -0.10998782245E+03 -0.38239882057E+02  0.21812071941E+03  0.24725747290E+03  0.00000000000E+00 0. -1.
<mgrwt>
<rscale>  2 0.11644574E+03</rscale>
<asrwt>0</asrwt>
<pdfrwt beam="1">  1       21 0.48959837E-01 0.11644574E+03</pdfrwt>
<pdfrwt beam="2">  1       21 0.83374242E-02 0.11644574E+03</pdfrwt>
<totfact> 0.44948776E+05</totfact>
</mgrwt>
</event>
<event>
 4    1  0.6055396E+003  0.1314424E+03  0.7546771E-02  0.1225331E+00
         21   -1    0    0  504  501  0.00000000000E+00  0.00000000000E+00  0.19112028511E+03  0.19112028511E+03  0.00000000000E+00 0. -1.
         21   -1    0    0  503  502 -0.00000000000E+00 -0.00000000000E+00 -0.95386575974E+02  0.95386575974E+02  0.00000000000E+00 0. -1.
         21    1    1    2  503  501  0.55894247325E+02  0.11896609706E+03  0.15109983653E+02  0.13230801464E+03  0.00000000000E+00 0. -1.
         21    1    1    2  504  502 -0.55894247325E+02 -0.11896609706E+03  0.80623725481E+02  0.15419884644E+03  0.00000000000E+00 0. -1.
<mgrwt>
<rscale>  2 0.13144238E+03</rscale>
<asrwt>0</asrwt>
<pdfrwt beam="1">  1       21 0.29403121E-01 0.13144238E+03</pdfrwt>
<pdfrwt beam="2">  1       21 0.14674858E-01 0.13144238E+03</pdfrwt>
<totfact> 0.45637448E+05</totfact>
</mgrwt>
</event>
<event>
 4    1  0.6055396E+003  0.1597667E+03  0.7546771E-02  0.1188960E+00
         21   -1    0    0  504  501  0.00000000000E+00  0.00000000000E+00  0.59759661844E+03  0.59759661844E+03  0.00000000000E+00 0.  1.
         21   -1    0    0  503  502 -0.00000000000E+00 -0.00000000000E+00 -0.61848307095E+02  0.61848307095E+02  0.00000000000E+00 0. -1.
         21    1    1    2  503  501  0.14520499835E+03 -0.66640222459E+02  0.84475019627E+02  0.18072476238E+03  0.00000000000E+00 0. -1.
         21    1    1    2  504  502 -0.14520499835E+03  0.66640222459E+02  0.45127329172E+03  0.47872016316E+03  0.00000000000E+00 0.  1.
<mgrwt>
<rscale>  2 0.15976674E+03</rscale>
<asrwt>0</asrwt>
<pdfrwt beam="1">  1       21 0.91937937E-01 0.15976674E+03</pdfrwt>
<pdfrwt beam="2">  1       21 0.95151246E-02 0.15976674E+03</pdfrwt>
<totfact> 0.89854585E+04</totfact>
</mgrwt>
</event>
<event>
 4    1  0.6055396E+003  0.1500345E+03  0.7546771E-02  0.1200431E+00
         21   -1    0    0  503  501  0.00000000000E+00  0.00000000000E+00  0.44330269755E+03  0.44330269755E+03  0.00000000000E+00 0.  1.
         21   -1    0    0  501  502 -0.00000000000E+00 -0.00000000000E+00 -0.49744044332E+03  0.49744044332E+03  0.00000000000E+00 0.  1.
         21    1    1    2  503  504 -0.77872151436E+02  0.12824310419E+03  0.41864880907E+03  0.44472147585E+03  0.00000000000E+00 0.  1.
         21    1    1    2  504  502  0.77872151436E+02 -0.12824310419E+03 -0.47278655484E+03  0.49602166503E+03  0.00000000000E+00 0.  1.
<mgrwt>
<rscale>  2 0.15003455E+03</rscale>
<asrwt>0</asrwt>
<pdfrwt beam="1">  1       21 0.68200415E-01 0.15003455E+03</pdfrwt>
<pdfrwt beam="2">  1       21 0.76529299E-01 0.15003455E+03</pdfrwt>
<totfact> 0.31014758E+03</totfact>
</mgrwt>
</event>
<event>
 4    1  0.6055396E+003  0.1550130E+03  0.7546771E-02  0.1194445E+00
         21   -1    0    0  504  501  0.00000000000E+00  0.00000000000E+00  0.60866434928E+02  0.60866434928E+02  0.00000000000E+00 0.  1.
         21   -1    0    0  503  502 -0.00000000000E+00 -0.00000000000E+00 -0.44594063059E+03  0.44594063059E+03  0.00000000000E+00 0.  1.
         21    1    1    2  503  501 -0.14360110815E+03  0.58375864586E+02 -0.10670883407E+03  0.18819084753E+03  0.00000000000E+00 0.  1.
         21    1    1    2  504  502  0.14360110815E+03 -0.58375864586E+02 -0.27836536160E+03  0.31861621799E+03  0.00000000000E+00 0.  1.
<mgrwt>
<rscale>  2 0.15501297E+03</rscale>
<asrwt>0</asrwt>
<pdfrwt beam="1">  1       21 0.93640667E-02 0.15501297E+03</pdfrwt>
<pdfrwt beam="2">  1       21 0.68606252E-01 0.15501297E+03</pdfrwt>
<totfact> 0.17859039E+05</totfact>
</mgrwt>
</event>
<event>
 4    1  0.6055396E+003  0.1388030E+03  0.7546771E-02  0.1214949E+00
         21   -1    0    0  502  501  0.00000000000E+00  0.00000000000E+00  0.89500073640E+03  0.89500073640E+03  0.00000000000E+00 0.  1.
         21   -1    0    0  504  502 -0.00000000000E+00 -0.00000000000E+00 -0.21673098659E+02  0.21673098659E+02  0.00000000000E+00 0.  1.
         21    1    1    2  503  501 -0.32101309559E+01 -0.13876589897E+03  0.47435265158E+03  0.49424358137E+03  0.00000000000E+00 0.  1.
         21    1    1    2  504  503  0.32101309559E+01  0.13876589897E+03  0.39897498615E+03  0.42243025369E+03  0.00000000000E+00 0.  1.
<mgrwt>
<rscale>  2 0.13880302E+03</rscale>
<asrwt>0</asrwt>
<pdfrwt beam="1">  1       21 0.13769239E+00 0.13880302E+03</pdfrwt>
<pdfrwt beam="2">  1       21 0.33343235E-02 0.13880302E+03</pdfrwt>
<totfact> 0.20236362E+05</totfact>
</mgrwt>
</event>
<event>
 4    1  0.6055396E+003  0.1078966E+03  0.7546771E-02  0.1264515E+00
         21   -1    0    0  504  501  0.00000000000E+00  0.00000000000E+00  0.13473798670E+02  0.13473798670E+02  0.00000000000E+00 0.  1.
         21   -1    0    0  503  502 -0.00000000000E+00 -0.00000000000E+00 -0.18981207390E+04  0.18981207390E+04  0.00000000000E+00 0. -1.
         21    1    1    2  503  501 -0.91001912378E+02  0.57968376321E+02 -0.23684376331E+03  0.26026265373E+03  0.00000000000E+00 0.  1.
         21    1    1    2  504  502  0.91001912378E+02 -0.57968376321E+02 -0.16478031770E+04  0.16513318840E+04  0.00000000000E+00 0. -1.
<mgrwt>
<rscale>  2 0.10789662E+03</rscale>
<asrwt>0</asrwt>
<pdfrwt beam="1">  1       21 0.20728906E-02 0.10789662E+03</pdfrwt>
<pdfrwt beam="2">  1       21 0.29201879E+00 0.10789662E+03</pdfrwt>
<totfact> 0.48308616E+04</totfact>
</mgrwt>
</event>
<event>
 4    1  0.6055396E+003  0.2715667E+03  0.7546771E-02  0.1100386E+00
         21   -1    0    0  504  501  0.00000000000E+00  0.00000000000E+00  0.15692082655E+03  0.15692082655E+03  0.00000000000E+00 0. -1.
         21   -1    0    0  503  502 -0.00000000000E+00 -0.00000000000E+00 -0.70464803954E+03  0.70464803954E+03  0.00000000000E+00 0. -1.
         21    1    1    2  503  501  0.19383751647E+03 -0.19019858482E+03 -0.52246738376E+03  0.58882990035E+03  0.00000000000E+00 0. -1.
         21    1    1    2  504  502 -0.19383751647E+03  0.19019858482E+03 -0.25259829227E+02  0.27273896574E+03  0.00000000000E+00 0. -1.
<mgrwt>
<rscale>  2 0.27156672E+03</rscale>
<asrwt>0</asrwt>
<pdfrwt beam="1">  1       21 0.24141666E-01 0.27156672E+03</pdfrwt>
<pdfrwt beam="2">  1       21 0.10840739E+00 0.27156672E+03</pdfrwt>
<totfact> 0.10437368E+04</totfact>
</mgrwt>
</event>
<event>
 4    1  0.6055396E+003  0.1786068E+03  0.7546771E-02  0.1169158E+00
         21   -1    0    0  503  501  0.00000000000E+00  0.00000000000E+00  0.46368143471E+03  0.46368143471E+03  0.00000000000E+00 0. -1.
         21   -1    0    0  504  502 -0.00000000000E+00 -0.00000000000E+00 -0.16367706860E+04  0.16367706860E+04  0.00000000000E+00 0.  1.
         21    1    1    2  503  502 -0.17820819705E+03 -0.11926624250E+02  0.44137250291E+03  0.47614083231E+03  0.00000000000E+00 0. -1.
         21    1    1    2  504  501  0.17820819705E+03  0.11926624250E+02 -0.16144617542E+04  0.16243112884E+04  0.00000000000E+00 0.  1.
<mgrwt>
<rscale>  2 0.17860685E+03</rscale>
<asrwt>0</asrwt>
<pdfrwt beam="1">  1       21 0.71335605E-01 0.17860685E+03</pdfrwt>
<pdfrwt beam="2">  1       21 0.25181088E+00 0.17860685E+03</pdfrwt>
<totfact> 0.11790728E+02</totfact>
</mgrwt>
</event>
<event>
 4    1  0.6055396E+003  0.1053662E+03  0.7546771E-02  0.1269400E+00
         21   -1    0    0  504  501  0.00000000000E+00  0.00000000000E+00  0.17956137754E+03  0.17956137754E+03  0.00000000000E+00 0.  1.
         21   -1    0    0  503  502 -0.00000000000E+00 -0.00000000000E+00 -0.68312559229E+02  0.68312559229E+02  0.00000000000E+00 0.  1.
         21    1    1    2  503  501  0.30651649530E+02 -0.10080932579E+03  0.93807219824E+02  0.14107387524E+03  0.00000000000E+00 0.  1.
         21    1    1    2  504  502 -0.30651649530E+02  0.10080932579E+03  0.17441598485E+02  0.10680006153E+03  0.00000000000E+00 0.  1.
<mgrwt>
<rscale>  2 0.10536624E+03</rscale>
<asrwt>0</asrwt>
<pdfrwt beam="1">  1       21 0.27624827E-01 0.10536624E+03</pdfrwt>
<pdfrwt beam="2">  1       21 0.10509625E-01 0.10536624E+03</pdfrwt>
<totfact> 0.92927528E+05</totfact>
</mgrwt>
</event>
<event>
 4    1  0.6055396E+003  0.1194278E+03  0.7546771E-02  0.1244044E+00
         21   -1    0    0  503  501  0.00000000000E+00  0.00000000000E+00  0.20327384060E+02  0.20327384060E+02  0.00000000000E+00 0. -1.
         21   -1    0    0  501  502 -0.00000000000E+00 -0.00000000000E+00 -0.98155998050E+03  0.98155998050E+03  0.00000000000E+00 0.  1.
         21    1    1    2  503  504 -0.31393063471E+02  0.11522794079E+03 -0.21311341747E+03  0.24429558219E+03  0.00000000000E+00 0. -1.
         21    1    1    2  504  502  0.31393063471E+02 -0.11522794079E+03 -0.74811917896E+03  0.75759178236E+03  0.00000000000E+00 0.  1.
<mgrwt>
<rscale>  2 0.11942781E+03</rscale>
<asrwt>0</asrwt>
<pdfrwt beam="1">  1       21 0.31272886E-02 0.11942781E+03</pdfrwt>
<pdfrwt beam="2">  1       21 0.15100929E+00 0.11942781E+03</pdfrwt>
<totfact> 0.17892698E+05</totfact>
</mgrwt>
</event>
<event>
 4    1  0.6055396E+003  0.1680755E+03  0.7546771E-02  0.1179870E+00
         21   -1    0    0  503  501  0.00000000000E+00  0.00000000000E+00  0.11121626971E+04  0.11121626971E+04  0.00000000000E+00 0.  1.
         21   -1    0    0  501  502 -0.00000000000E+00 -0.00000000000E+00 -0.26256902173E+02  0.26256902173E+02  0.00000000000E+00 0. -1.
         21    1    1    2  503  504 -0.10516039860E+03 -0.13111323198E+03  0.64575741554E+03  0.66727208000E+03  0.00000000000E+00 0.  1.
         21    1    1    2  504  502  0.10516039860E+03  0.13111323198E+03  0.44014837941E+03  0.47114751929E+03  0.00000000000E+00 0. -1.
<mgrwt>
<rscale>  2 0.16807555E+03</rscale>
<asrwt>0</asrwt>
<pdfrwt beam="1">  1       21 0.17110192E+00 0.16807555E+03</pdfrwt>
<pdfrwt beam="2">  1       21 0.40395243E-02 0.16807555E+03</pdfrwt>
<totfact> 0.81900280E+04</totfact>
</mgrwt>
</event>
<event>
 4    1  0.6055396E+003  0.1407433E+03  0.7546771E-02  0.1212332E+00
         21   -1    0    0  503  501  0.00000000000E+00  0.00000000000E+00  0.39887198409E+03  0.39887198409E+03  0.00000000000E+00 0. -1.
         21   -1    0    0  504  502 -0.00000000000E+00 -0.00000000000E+00 -0.49688362780E+02  0.49688362780E+02  0.00000000000E+00 0. -1.
         21    1    1    2  503  502  0.13916399260E+03 -0.21025523439E+02  0.16940344882E+03  0.22024127213E+03  0.00000000000E+00 0. -1.
         21    1    1    2  504  501 -0.13916399260E+03  0.21025523439E+02  0.17978017248E+03  0.22831907474E+03  0.00000000000E+00 0. -1.
<mgrwt>
<rscale>  2 0.14074335E+03</rscale>
<asrwt>0</asrwt>
<pdfrwt beam="1">  1       21 0.61364918E-01 0.14074335E+03</pdfrwt>
<pdfrwt beam="2">  1       21 0.76443638E-02 0.14074335E+03</pdfrwt>
<totfact> 0.32427354E+05</totfact>
</mgrwt>
</event>
<event>
 4    1  0.6055396E+003  0.1022441E+03  0.7546771E-02  0.1275646E+00
         21   -1    0    0  503  501  0.00000000000E+00  0.00000000000E+00  0.59158793428E+03  0.59158793428E+03  0.00000000000E+00 0. -1.
         21   -1    0    0  504  502 -0.00000000000E+00 -0.00000000000E+00 -0.26018646506E+02  0.26018646506E+02  0.00000000000E+00 0. -1.
         21    1    1    2  503  502  0.78841238686E+02 -0.65099265524E+02  0.45769912873E+03  0.46898011443E+03  0.00000000000E+00 0. -1.
         21    1    1    2  504  501 -0.78841238686E+02  0.65099265524E+02  0.10787015904E+03  0.14862646635E+03  0.00000000000E+00 0. -1.
<mgrwt>
<rscale>  2 0.10224410E+03</rscale>
<asrwt>0</asrwt>
<pdfrwt beam="1">  1       21 0.91013518E-01 0.10224410E+03</pdfrwt>
<pdfrwt beam="2">  1       21 0.40028691E-02 0.10224410E+03</pdfrwt>
<totfact> 0.40780289E+05</totfact>
</mgrwt>
</event>
<event>
 4    1  0.6055396E+003  0.1136596E+03  0.7546771E-02  0.1253939E+00
         21   -1    0    0  504  501  0.00000000000E+00  0.00000000000E+00  0.11663966269E+03  0.11663966269E+03  0.00000000000E+00 0.  1.
         21   -1    0    0  503  502 -0.00000000000E+00 -0.00000000000E+00 -0.14469292830E+03  0.14469292830E+03  0.00000000000E+00 0.  1.
         21    1    1    2  503  501  0.10384035266E+03 -0.46213546972E+02  0.49255037103E+02  0.12387319905E+03  0.00000000000E+00 0.  1.
         21    1    1    2  504  502 -0.10384035266E+03  0.46213546972E+02 -0.77308302714E+02  0.13745939194E+03  0.00000000000E+00 0.  1.
<mgrwt>
<rscale>  2 0.11365963E+03</rscale>
<asrwt>0</asrwt>
<pdfrwt beam="1">  1       21 0.17944564E-01 0.11365963E+03</pdfrwt>
<pdfrwt beam="2">  1       21 0.22260450E-01 0.11365963E+03</pdfrwt>
<totfact> 0.53736607E+05</totfact>
</mgrwt>
</event>
<event>
 4    1  0.6055396E+003  0.1075940E+03  0.7546771E-02  0.1265091E+00
         21   -1    0    0  504  501  0.00000000000E+00  0.00000000000E+00  0.25893960281E+02  0.25893960281E+02  0.00000000000E+00 0.  1.
         21   -1    0    0  503  502 -0.00000000000E+00 -0.00000000000E+00 -0.71873157818E+03  0.71873157818E+03  0.00000000000E+00 0. -1.
         21    1    1    2  503  501  0.10454502955E+03 -0.25432562713E+02 -0.11752362657E+03  0.15933700529E+03  0.00000000000E+00 0.  1.
         21    1    1    2  504  502 -0.10454502955E+03  0.25432562713E+02 -0.57531399132E+03  0.58528853317E+03  0.00000000000E+00 0. -1.
<mgrwt>
<rscale>  2 0.10759404E+03</rscale>
<asrwt>0</asrwt>
<pdfrwt beam="1">  1       21 0.39836860E-02 0.10759404E+03</pdfrwt>
<pdfrwt beam="2">  1       21 0.11057409E+00 0.10759404E+03</pdfrwt>
<totfact> 0.26097451E+05</totfact>
</mgrwt>
</event>
<event>
 4    1  0.6055396E+003  0.1607253E+03  0.7546771E-02  0.1187880E+00
         21   -1    0    0  502  501  0.00000000000E+00  0.00000000000E+00  0.20723272930E+03  0.20723272930E+03  0.00000000000E+00 0. -1.
         21   -1    0    0  504  502 -0.00000000000E+00 -0.00000000000E+00 -0.12508388368E+03  0.12508388368E+03  0.00000000000E+00 0. -1.
         21    1    1    2  503  501 -0.12569752042E+03  0.10016368914E+03  0.31346846367E+02  0.16375364435E+03  0.00000000000E+00 0. -1.
         21    1    1    2  504  503  0.12569752042E+03 -0.10016368914E+03  0.50801999255E+02  0.16856296862E+03  0.00000000000E+00 0. -1.
<mgrwt>
<rscale>  2 0.16072533E+03</rscale>
<asrwt>0</asrwt>
<pdfrwt beam="1">  1       21 0.31881958E-01 0.16072533E+03</pdfrwt>
<pdfrwt beam="2">  1       21 0.19243674E-01 0.16072533E+03</pdfrwt>
<totfact> 0.23670098E+05</totfact>
</mgrwt>
</event>
<event>
 4    1  0.6055396E+003  0.1204651E+03  0.7546771E-02  0.1242332E+00
         21   -1    0    0  503  501  0.00000000000E+00  0.00000000000E+00  0.31864716466E+02  0.31864716466E+02  0.00000000000E+00 0. -1.
         21   -1    0    0  501  502 -0.00000000000E+00 -0.00000000000E+00 -0.53279756756E+03  0.53279756756E+03  0.00000000000E+00 0. -1.
         21    1    1    2  503  504  0.10067277976E+03  0.66157716211E+02 -0.14287362936E+03  0.18688158273E+03  0.00000000000E+00 0. -1.
         21    1    1    2  504  502 -0.10067277976E+03 -0.66157716211E+02 -0.35805922174E+03  0.37778070130E+03  0.00000000000E+00 0. -1.
<mgrwt>
<rscale>  2 0.12046515E+03</rscale>
<asrwt>0</asrwt>
<pdfrwt beam="1">  1       21 0.49022639E-02 0.12046515E+03</pdfrwt>
<pdfrwt beam="2">  1       21 0.81968860E-01 0.12046515E+03</pdfrwt>
<totfact> 0.36749138E+05</totfact>
</mgrwt>
</event>
<event>
 4    1  0.6055396E+003  0.1171533E+03  0.7546771E-02  0.1247869E+00
         21   -1    0    0  504  501  0.00000000000E+00  0.00000000000E+00  0.16576354437E+03  0.16576354437E+03  0.00000000000E+00 0.  1.
         21   -1    0    0  503  502 -0.00000000000E+00 -0.00000000000E+00 -0.11208856022E+03  0.11208856022E+03  0.00000000000E+00 0.  1.
         21    1    1    2  503  501 -0.11683252038E+03  0.86629814977E+01  0.97855274492E+02  0.15264514343E+03  0.00000000000E+00 0.  1.
         21    1    1    2  504  502  0.11683252038E+03 -0.86629814977E+01 -0.44180290347E+02  0.12520696116E+03  0.00000000000E+00 0.  1.
<mgrwt>
<rscale>  2 0.11715325E+03</rscale>
<asrwt>0</asrwt>
<pdfrwt beam="1">  1       21 0.25502084E-01 0.11715325E+03</pdfrwt>
<pdfrwt beam="2">  1       21 0.17244394E-01 0.11715325E+03</pdfrwt>
<totfact> 0.44765186E+05</totfact>
</mgrwt>
</event>
<event>
 4    1  0.6055396E+003  0.1136782E+03  0.7546771E-02  0.1253906E+00
         21   -1    0    0  504  501  0.00000000000E+00  0.00000000000E+00  0.21440271941E+02  0.21440271941E+02  0.00000000000E+00 0. -1.
         21   -1    0    0  503  502 -0.00000000000E+00 -0.00000000000E+00 -0.88783334041E+03  0.88783334041E+03  0.00000000000E+00 0. -1.
         21    1    1    2  503  501  0.93876519562E+02  0.64108819410E+02 -0.69082768098E+03  0.70011829462E+03  0.00000000000E+00 0. -1.
         21    1    1    2  504  502 -0.93876519562E+02 -0.64108819410E+02 -0.17556538749E+03  0.20915531773E+03  0.00000000000E+00 0. -1.
<mgrwt>
<rscale>  2 0.11367824E+03</rscale>
<asrwt>0</asrwt>
<pdfrwt beam="1">  1       21 0.32985030E-02 0.11367824E+03</pdfrwt>
<pdfrwt beam="2">  1       21 0.13658976E+00 0.11367824E+03</pdfrwt>
<totfact> 0.21228289E+05</totfact>
</mgrwt>
</event>
<event>
 4    1  0.6055396E+003  0.1027733E+03  0.7546771E-02  0.1274570E+00
         21   -1    0    0  504  501  0.00000000000E+00  0.00000000000E+00  0.26763464000E+03  0.26763464000E+03  0.00000000000E+00 0. -1.
         21   -1    0    0  501  502 -0.00000000000E+00 -0.00000000000E+00 -0.42429447274E+02  0.42429447274E+02  0.00000000000E+00 0.  1.
         21    1    1    2  503  502 -0.14890446983E+00 -0.10277322415E+03  0.71627804541E+02  0.12527130620E+03  0.00000000000E+00 0.  1.
         21    1    1    2  504  503  0.14890446983E+00  0.10277322415E+03  0.15357738818E+03  0.18479278107E+03  0.00000000000E+00 0. -1.
<mgrwt>
<rscale>  2 0.10277333E+03</rscale>
<asrwt>0</asrwt>
<pdfrwt beam="1">  1       21 0.41174559E-01 0.10277333E+03</pdfrwt>
<pdfrwt beam="2">  1       21 0.65276074E-02 0.10277333E+03</pdfrwt>
<totfact> 0.96914859E+05</totfact>
</mgrwt>
</event>
<event>
 4    1  0.6055396E+003  0.1021232E+03  0.7546771E-02  0.1275893E+00
         21   -1    0    0  504  501  0.00000000000E+00  0.00000000000E+00  0.92621746426E+02  0.92621746426E+02  0.00000000000E+00 0. -1.
         21   -1    0    0  503  502 -0.00000000000E+00 -0.00000000000E+00 -0.25623535486E+03  0.25623535486E+03  0.00000000000E+00 0. -1.
         21    1    1    2  503  501  0.10194680532E+03  0.60002982462E+01 -0.21240272217E+03  0.23567789688E+03  0.00000000000E+00 0. -1.
         21    1    1    2  504  502 -0.10194680532E+03 -0.60002982462E+01  0.48789113728E+02  0.11317920441E+03  0.00000000000E+00 0. -1.
<mgrwt>
<rscale>  2 0.10212323E+03</rscale>
<asrwt>0</asrwt>
<pdfrwt beam="1">  1       21 0.14249500E-01 0.10212323E+03</pdfrwt>
<pdfrwt beam="2">  1       21 0.39420823E-01 0.10212323E+03</pdfrwt>
<totfact> 0.27253782E+05</totfact>
</mgrwt>
</event>
<event>
 4    1  0.6055396E+003  0.1015012E+03  0.7546771E-02  0.1277170E+00
         21   -1    0    0  504  501  0.00000000000E+00  0.00000000000E+00  0.67571134406E+03  0.67571134406E+03  0.00000000000E+00 0. -1.
         21   -1    0    0  503  502 -0.00000000000E+00 -0.00000000000E+00 -0.68363199625E+03  0.68363199625E+03  0.00000000000E+00 0.  1.
         21    1    1    2  503  501  0.59300270433E+02  0.82377044745E+02 -0.67600997443E+03  0.68358758408E+03  0.00000000000E+00 0.  1.
         21    1    1    2  504  502 -0.59300270433E+02 -0.82377044745E+02  0.66808932225E+03  0.67575575623E+03  0.00000000000E+00 0. -1.
<mgrwt>
<rscale>  2 0.10150123E+03</rscale>
<asrwt>0</asrwt>
<pdfrwt beam="1">  1       21 0.10395559E+00 0.10150123E+03</pdfrwt>
<pdfrwt beam="2">  1       21 0.10517415E+00 0.10150123E+03</pdfrwt>
<totfact> 0.62045904E+02</totfact>
</mgrwt>
</event>
<event>
 4    1  0.6055396E+003  0.1096265E+03  0.7546771E-02  0.1261263E+00
         21   -1    0    0  503  501  0.00000000000E+00  0.00000000000E+00  0.16414725196E+03  0.16414725196E+03  0.00000000000E+00 0.  1.
         21   -1    0    0  504  502 -0.00000000000E+00 -0.00000000000E+00 -0.75649486428E+02  0.75649486428E+02  0.00000000000E+00 0.  1.
         21    1    1    2  503  502  0.79352126927E+02 -0.75638662601E+02  0.65759556856E+02  0.12783695337E+03  0.00000000000E+00 0.  1.
         21    1    1    2  504  501 -0.79352126927E+02  0.75638662601E+02  0.22738208674E+02  0.11195978502E+03  0.00000000000E+00 0.  1.
<mgrwt>
<rscale>  2 0.10962649E+03</rscale>
<asrwt>0</asrwt>
<pdfrwt beam="1">  1       21 0.25253423E-01 0.10962649E+03</pdfrwt>
<pdfrwt beam="2">  1       21 0.11638383E-01 0.10962649E+03</pdfrwt>
<totfact> 0.92137886E+05</totfact>
</mgrwt>
</event>
<event>
 4    1  0.6055396E+003  0.1011116E+03  0.7546771E-02  0.1277976E+00
         21   -1    0    0  502  501  0.00000000000E+00  0.00000000000E+00  0.93591774249E+02  0.93591774249E+02  0.00000000000E+00 0.  1.
         21   -1    0    0  503  502 -0.00000000000E+00 -0.00000000000E+00 -0.28772917368E+03  0.28772917368E+03  0.00000000000E+00 0.  1.
         21    1    1    2  503  504  0.11077975947E+02  0.10050287199E+03 -0.24723762536E+03  0.26711419322E+03  0.00000000000E+00 0.  1.
         21    1    1    2  504  501 -0.11077975947E+02 -0.10050287199E+03  0.53100225923E+02  0.11420675471E+03  0.00000000000E+00 0.  1.
<mgrwt>
<rscale>  2 0.10111157E+03</rscale>
<asrwt>0</asrwt>
<pdfrwt beam="1">  1       21 0.14398735E-01 0.10111157E+03</pdfrwt>
<pdfrwt beam="2">  1       21 0.44266026E-01 0.10111157E+03</pdfrwt>
<totfact> 0.21226551E+05</totfact>
</mgrwt>
</event>
<event>
 4    1  0.6055396E+003  0.1089082E+03  0.7546771E-02  0.1262605E+00
         21   -1    0    0  504  501  0.00000000000E+00  0.00000000000E+00  0.25291850538E+02  0.25291850538E+02  0.00000000000E+00 0.  1.
         21   -1    0    0  503  502 -0.00000000000E+00 -0.00000000000E+00 -0.52873468861E+03  0.52873468861E+03  0.00000000000E+00 0. -1.
         21    1    1    2  503  501 -0.64005522898E+02  0.88115259184E+02 -0.34485799665E+03  0.36164629642E+03  0.00000000000E+00 0. -1.
         21    1    1    2  504  502  0.64005522898E+02 -0.88115259184E+02 -0.15858484142E+03  0.19238024272E+03  0.00000000000E+00 0.  1.
<mgrwt>
<rscale>  2 0.10890825E+03</rscale>
<asrwt>0</asrwt>
<pdfrwt beam="1">  1       21 0.38910541E-02 0.10890825E+03</pdfrwt>
<pdfrwt beam="2">  1       21 0.81343795E-01 0.10890825E+03</pdfrwt>
<totfact> 0.54989475E+05</totfact>
</mgrwt>
</event>
<event>
 4    1  0.6055396E+003  0.1104954E+03  0.7546771E-02  0.1259655E+00
         21   -1    0    0  504  501  0.00000000000E+00  0.00000000000E+00  0.15650663967E+03  0.15650663967E+03  0.00000000000E+00 0. -1.
         21   -1    0    0  503  502 -0.00000000000E+00 -0.00000000000E+00 -0.84406534599E+02  0.84406534599E+02  0.00000000000E+00 0. -1.
         21    1    1    2  503  501 -0.10634847496E+03 -0.29987146896E+02  0.28924113600E+01  0.11053322192E+03  0.00000000000E+00 0. -1.
         21    1    1    2  504  502  0.10634847496E+03  0.29987146896E+02  0.69207693710E+02  0.13037995235E+03  0.00000000000E+00 0. -1.
<mgrwt>
<rscale>  2 0.11049537E+03</rscale>
<asrwt>0</asrwt>
<pdfrwt beam="1">  1       21 0.24077944E-01 0.11049537E+03</pdfrwt>
<pdfrwt beam="2">  1       21 0.12985621E-01 0.11049537E+03</pdfrwt>
<totfact> 0.83040892E+05</totfact>
</mgrwt>
</event>
<event>
 4    1  0.6055396E+003  0.1099813E+03  0.7546771E-02  0.1260604E+00
         21   -1    0    0  504  501  0.00000000000E+00  0.00000000000E+00  0.15682732500E+02  0.15682732500E+02  0.00000000000E+00 0.  1.
         21   -1    0    0  503  502 -0.00000000000E+00 -0.00000000000E+00 -0.10246106888E+04  0.10246106888E+04  0.00000000000E+00 0.  1.
         21    1    1    2  503  501  0.38326950996E+02 -0.10308704221E+03 -0.76309701733E+03  0.77098180997E+03  0.00000000000E+00 0.  1.
         21    1    1    2  504  502 -0.38326950996E+02  0.10308704221E+03 -0.24583093901E+03  0.26931161137E+03  0.00000000000E+00 0.  1.
<mgrwt>
<rscale>  2 0.10998133E+03</rscale>
<asrwt>0</asrwt>
<pdfrwt beam="1">  1       21 0.24127273E-02 0.10998133E+03</pdfrwt>
<pdfrwt beam="2">  1       21 0.15763246E+00 0.10998133E+03</pdfrwt>
<totfact> 0.24525794E+05</totfact>
</mgrwt>
</event>
<event>
 4    1  0.6055396E+003  0.1671194E+03  0.7546771E-02  0.1180886E+00
         21   -1    0    0  503  501  0.00000000000E+00  0.00000000000E+00  0.15356938453E+02  0.15356938453E+02  0.00000000000E+00 0.  1.
         21   -1    0    0  501  502 -0.00000000000E+00 -0.00000000000E+00 -0.19610477889E+04  0.19610477889E+04  0.00000000000E+00 0. -1.
         21    1    1    2  503  504 -0.11051707425E+03 -0.12535891448E+03 -0.70655539312E+03  0.72605055243E+03  0.00000000000E+00 0. -1.
         21    1    1    2  504  502  0.11051707425E+03  0.12535891448E+03 -0.12391354573E+04  0.12503541749E+04  0.00000000000E+00 0.  1.
<mgrwt>
<rscale>  2 0.16711936E+03</rscale>
<asrwt>0</asrwt>
<pdfrwt beam="1">  1       21 0.23626070E-02 0.16711936E+03</pdfrwt>
<pdfrwt beam="2">  1       21 0.30169952E+00 0.16711936E+03</pdfrwt>
<totfact> 0.32106043E+04</totfact>
</mgrwt>
</event>
<event>
 4    1  0.6055396E+003  0.1070385E+03  0.7546771E-02  0.1266155E+00
         21   -1    0    0  503  501  0.00000000000E+00  0.00000000000E+00  0.41815997383E+03  0.41815997383E+03  0.00000000000E+00 0. -1.
         21   -1    0    0  504  502 -0.00000000000E+00 -0.00000000000E+00 -0.23962249613E+03  0.23962249613E+03  0.00000000000E+00 0.  1.
         21    1    1    2  503  502 -0.37191574505E+02 -0.10036941566E+03 -0.22024866388E+03  0.24488100529E+03  0.00000000000E+00 0.  1.
         21    1    1    2  504  501  0.37191574505E+02  0.10036941566E+03  0.39878614157E+03  0.41290146467E+03  0.00000000000E+00 0. -1.
<mgrwt>
<rscale>  2 0.10703846E+03</rscale>
<asrwt>0</asrwt>
<pdfrwt beam="1">  1       21 0.64332304E-01 0.10703846E+03</pdfrwt>
<pdfrwt beam="2">  1       21 0.36864999E-01 0.10703846E+03</pdfrwt>
<totfact> 0.16839797E+04</totfact>
</mgrwt>
</event>
<event>
 4    1  0.6055396E+003  0.1233502E+03  0.7546771E-02  0.1237670E+00
         21   -1    0    0  503  501  0.00000000000E+00  0.00000000000E+00  0.46601853405E+03  0.46601853405E+03  0.00000000000E+00 0. -1.
         21   -1    0    0  504  502 -0.00000000000E+00 -0.00000000000E+00 -0.33457381215E+02  0.33457381215E+02  0.00000000000E+00 0. -1.
         21    1    1    2  503  502 -0.31645005824E+02  0.11922196537E+03  0.17747395579E+03  0.21613025796E+03  0.00000000000E+00 0. -1.
         21    1    1    2  504  501  0.31645005824E+02 -0.11922196537E+03  0.25508719705E+03  0.28334565731E+03  0.00000000000E+00 0. -1.
<mgrwt>
<rscale>  2 0.12335025E+03</rscale>
<asrwt>0</asrwt>
<pdfrwt beam="1">  1       21 0.71695154E-01 0.12335025E+03</pdfrwt>
<pdfrwt beam="2">  1       21 0.51472897E-02 0.12335025E+03</pdfrwt>
<totfact> 0.45521526E+05</totfact>
</mgrwt>
</event>
<event>
 4    1  0.6055396E+003  0.1096642E+03  0.7546771E-02  0.1261193E+00
         21   -1    0    0  503  501  0.00000000000E+00  0.00000000000E+00  0.22425805847E+02  0.22425805847E+02  0.00000000000E+00 0. -1.
         21   -1    0    0  504  502 -0.00000000000E+00 -0.00000000000E+00 -0.65040832477E+03  0.65040832477E+03  0.00000000000E+00 0. -1.
         21    1    1    2  503  502 -0.10960173289E+03 -0.37016780006E+01 -0.17306091758E+03  0.20488124234E+03  0.00000000000E+00 0. -1.
         21    1    1    2  504  501  0.10960173289E+03  0.37016780006E+01 -0.45492160135E+03  0.46795288828E+03  0.00000000000E+00 0. -1.
<mgrwt>
<rscale>  2 0.10966423E+03</rscale>
<asrwt>0</asrwt>
<pdfrwt beam="1">  1       21 0.34501238E-02 0.10966423E+03</pdfrwt>
<pdfrwt beam="2">  1       21 0.10006282E+00 0.10966423E+03</pdfrwt>
<totfact> 0.41835930E+05</totfact>
</mgrwt>
</event>
<event>
 4    1  0.6055396E+003  0.1056892E+03  0.7546771E-02  0.1268768E+00
         21   -1    0    0  504  501  0.00000000000E+00  0.00000000000E+00  0.31016360687E+03  0.31016360687E+03  0.00000000000E+00 0. -1.
         21   -1    0    0  501  502 -0.00000000000E+00 -0.00000000000E+00 -0.37392934364E+02  0.37392934364E+02  0.00000000000E+00 0. -1.
         21    1    1    2  503  502  0.67290632962E+02  0.81499610498E+02  0.10301344715E+03  0.14758721520E+03  0.00000000000E+00 0. -1.
         21    1    1    2  504  503 -0.67290632962E+02 -0.81499610498E+02  0.16975722535E+03  0.19996932604E+03  0.00000000000E+00 0. -1.
<mgrwt>
<rscale>  2 0.10568924E+03</rscale>
<asrwt>0</asrwt>
<pdfrwt beam="1">  1       21 0.47717476E-01 0.10568924E+03</pdfrwt>
<pdfrwt beam="2">  1       21 0.57527593E-02 0.10568924E+03</pdfrwt>
<totfact> 0.89144155E+05</totfact>
</mgrwt>
</event>
<event>
 4    1  0.6055396E+003  0.1058999E+03  0.7546771E-02  0.1268357E+00
         21   -1    0    0  503  501  0.00000000000E+00  0.00000000000E+00  0.17799898817E+02  0.17799898817E+02  0.00000000000E+00 0.  1.
         21   -1    0    0  501  502 -0.00000000000E+00 -0.00000000000E+00 -0.97190141312E+03  0.97190141312E+03  0.00000000000E+00 0.  1.
         21    1    1    2  503  504 -0.73057356183E+02  0.76664301079E+02 -0.18356776182E+03  0.21192431557E+03  0.00000000000E+00 0.  1.
         21    1    1    2  504  502  0.73057356183E+02 -0.76664301079E+02 -0.77053375249E+03  0.77777699636E+03  0.00000000000E+00 0.  1.
<mgrwt>
<rscale>  2 0.10589992E+03</rscale>
<asrwt>0</asrwt>
<pdfrwt beam="1">  1       21 0.27384455E-02 0.10589992E+03</pdfrwt>
<pdfrwt beam="2">  1       21 0.14952332E+00 0.10589992E+03</pdfrwt>
<totfact> 0.22939407E+05</totfact>
</mgrwt>
</event>
<event>
 4    1  0.6055396E+003  0.1090706E+03  0.7546771E-02  0.1262301E+00
         21   -1    0    0  504  501  0.00000000000E+00  0.00000000000E+00  0.12441949545E+03  0.12441949545E+03  0.00000000000E+00 0.  1.
         21   -1    0    0  501  502 -0.00000000000E+00 -0.00000000000E+00 -0.13621789510E+03  0.13621789510E+03  0.00000000000E+00 0. -1.
         21    1    1    2  503  502 -0.14199962849E+02 -0.10814230351E+03 -0.77047903831E+02  0.13353941830E+03  0.00000000000E+00 0. -1.
         21    1    1    2  504  503  0.14199962849E+02  0.10814230351E+03  0.65249504189E+02  0.12709797225E+03  0.00000000000E+00 0.  1.
<mgrwt>
<rscale>  2 0.10907060E+03</rscale>
<asrwt>0</asrwt>
<pdfrwt beam="1">  1       21 0.19141461E-01 0.10907060E+03</pdfrwt>
<pdfrwt beam="2">  1       21 0.20956599E-01 0.10907060E+03</pdfrwt>
<totfact> 0.53422559E+05</totfact>
</mgrwt>
</event>
<event>
 4    1  0.6055396E+003  0.1025649E+03  0.7546771E-02  0.1274993E+00
         21   -1    0    0  502  501  0.00000000000E+00  0.00000000000E+00  0.27596439306E+04  0.27596439306E+04  0.00000000000E+00 0.  1.
         21   -1    0    0  504  502 -0.00000000000E+00 -0.00000000000E+00 -0.60274979680E+01  0.60274979680E+01  0.00000000000E+00 0. -1.
         21    1    1    2  503  501 -0.24451734671E+02  0.99607632779E+02  0.22151954347E+04  0.22175685743E+04  0.00000000000E+00 0.  1.
         21    1    1    2  504  503  0.24451734671E+02 -0.99607632779E+02  0.53842099798E+03  0.54810285431E+03  0.00000000000E+00 0. -1.
<mgrwt>
<rscale>  2 0.10256494E+03</rscale>
<asrwt>0</asrwt>
<pdfrwt beam="1">  1       21 0.42455960E+00 0.10256494E+03</pdfrwt>
<pdfrwt beam="2">  1       21 0.92730958E-03 0.10256494E+03</pdfrwt>
<totfact> 0.29782886E+04</totfact>
</mgrwt>
</event>
<event>
 4    1  0.6055396E+003  0.1288955E+03  0.7546771E-02  0.1229104E+00
         21   -1    0    0  502  501  0.00000000000E+00  0.00000000000E+00  0.10756680200E+03  0.10756680200E+03  0.00000000000E+00 0.  1.
         21   -1    0    0  503  502 -0.00000000000E+00 -0.00000000000E+00 -0.29312126278E+03  0.29312126278E+03  0.00000000000E+00 0. -1.
         21    1    1    2  503  504  0.12655902688E+03  0.24430860020E+02 -0.23057453410E+03  0.26415652554E+03  0.00000000000E+00 0. -1.
         21    1    1    2  504  501 -0.12655902688E+03 -0.24430860020E+02  0.45020073325E+02  0.13653153925E+03  0.00000000000E+00 0.  1.
<mgrwt>
<rscale>  2 0.12889552E+03</rscale>
<asrwt>0</asrwt>
<pdfrwt beam="1">  1       21 0.16548739E-01 0.12889552E+03</pdfrwt>
<pdfrwt beam="2">  1       21 0.45095578E-01 0.12889552E+03</pdfrwt>
<totfact> 0.15778395E+05</totfact>
</mgrwt>
</event>
<event>
 4    1  0.6055396E+003  0.1245727E+03  0.7546771E-02  0.1235739E+00
         21   -1    0    0  503  501  0.00000000000E+00  0.00000000000E+00  0.12889122339E+03  0.12889122339E+03  0.00000000000E+00 0.  1.
         21   -1    0    0  504  502 -0.00000000000E+00 -0.00000000000E+00 -0.13461021478E+03  0.13461021478E+03  0.00000000000E+00 0.  1.
         21    1    1    2  503  502 -0.16562976343E+02  0.12346666679E+03 -0.45668239233E+02  0.13267983293E+03  0.00000000000E+00 0.  1.
         21    1    1    2  504  501  0.16562976343E+02 -0.12346666679E+03  0.39949247837E+02  0.13082160523E+03  0.00000000000E+00 0.  1.
<mgrwt>
<rscale>  2 0.12457267E+03</rscale>
<asrwt>0</asrwt>
<pdfrwt beam="1">  1       21 0.19829419E-01 0.12457267E+03</pdfrwt>
<pdfrwt beam="2">  1       21 0.20709264E-01 0.12457267E+03</pdfrwt>
<totfact> 0.51130757E+05</totfact>
</mgrwt>
</event>
<event>
 4    1  0.6055396E+003  0.1120812E+03  0.7546771E-02  0.1256764E+00
         21   -1    0    0  504  501  0.00000000000E+00  0.00000000000E+00  0.68753614355E+02  0.68753614355E+02  0.00000000000E+00 0.  1.
         21   -1    0    0  501  502 -0.00000000000E+00 -0.00000000000E+00 -0.18348431954E+03  0.18348431954E+03  0.00000000000E+00 0.  1.
         21    1    1    2  503  502  0.71811635165E+02  0.86053963493E+02 -0.49189542909E+02  0.12240019081E+03  0.00000000000E+00 0.  1.
         21    1    1    2  504  503 -0.71811635165E+02 -0.86053963493E+02 -0.65541162279E+02  0.12983774309E+03  0.00000000000E+00 0.  1.
<mgrwt>
<rscale>  2 0.11208120E+03</rscale>
<asrwt>0</asrwt>
<pdfrwt beam="1">  1       21 0.10577479E-01 0.11208120E+03</pdfrwt>
<pdfrwt beam="2">  1       21 0.28228357E-01 0.11208120E+03</pdfrwt>
<totfact> 0.88242849E+05</totfact>
</mgrwt>
</event>
<event>
 4    1  0.6055396E+003  0.1106495E+03  0.7546771E-02  0.1259372E+00
         21   -1    0    0  504  501  0.00000000000E+00  0.00000000000E+00  0.14389026023E+04  0.14389026023E+04  0.00000000000E+00 0.  1.
         21   -1    0    0  501  502 -0.00000000000E+00 -0.00000000000E+00 -0.13025728526E+02  0.13025728526E+02  0.00000000000E+00 0.  1.
         21    1    1    2  503  502  0.38390391101E+02  0.10377614361E+03  0.28543796803E+03  0.30613419231E+03  0.00000000000E+00 0.  1.
         21    1    1    2  504  503 -0.38390391101E+02 -0.10377614361E+03  0.11404389058E+04  0.11457941386E+04  0.00000000000E+00 0.  1.
<mgrwt>
<rscale>  2 0.11064949E+03</rscale>
<asrwt>0</asrwt>
<pdfrwt beam="1">  1       21 0.22136951E+00 0.11064949E+03</pdfrwt>
<pdfrwt beam="2">  1       21 0.20039594E-02 0.11064949E+03</pdfrwt>
<totfact> 0.12797093E+05</totfact>
</mgrwt>
</event>
<event>
 4    1  0.6055396E+003  0.1013743E+03  0.7546771E-02  0.1277432E+00
         21   -1    0    0  503  501  0.00000000000E+00  0.00000000000E+00  0.50678301588E+03  0.50678301588E+03  0.00000000000E+00 0.  1.
         21   -1    0    0  504  502 -0.00000000000E+00 -0.00000000000E+00 -0.20284016008E+02  0.20284016008E+02  0.00000000000E+00 0.  1.
         21    1    1    2  503  502 -0.10082695453E+03  0.10520143291E+02  0.23886405685E+03  0.25948561777E+03  0.00000000000E+00 0.  1.
         21    1    1    2  504  501  0.10082695453E+03 -0.10520143291E+02  0.24763494302E+03  0.26758141412E+03  0.00000000000E+00 0.  1.
<mgrwt>
<rscale>  2 0.10137430E+03</rscale>
<asrwt>0</asrwt>
<pdfrwt beam="1">  1       21 0.77966609E-01 0.10137430E+03</pdfrwt>
<pdfrwt beam="2">  1       21 0.31206182E-02 0.10137430E+03</pdfrwt>
<totfact> 0.86812304E+05</totfact>
</mgrwt>
</event>
<event>
 4    1  0.6055396E+003  0.1016429E+03  0.7546771E-02  0.1276879E+00
         21   -1    0    0  504  501  0.00000000000E+00  0.00000000000E+00  0.12458648535E+03  0.12458648535E+03  0.00000000000E+00 0. -1.
         21   -1    0    0  503  502 -0.00000000000E+00 -0.00000000000E+00 -0.22568640413E+03  0.22568640413E+03  0.00000000000E+00 0.  1.
         21    1    1    2  503  501 -0.10094429715E+03  0.11896431020E+02  0.88743250222E+02  0.13493198530E+03  0.00000000000E+00 0. -1.
         21    1    1    2  504  502  0.10094429715E+03 -0.11896431020E+02 -0.18984316900E+03  0.21534090418E+03  0.00000000000E+00 0.  1.
<mgrwt>
<rscale>  2 0.10164289E+03</rscale>
<asrwt>0</asrwt>
<pdfrwt beam="1">  1       21 0.19167152E-01 0.10164289E+03</pdfrwt>
<pdfrwt beam="2">  1       21 0.34720985E-01 0.10164289E+03</pdfrwt>
<totfact> 0.20478137E+05</totfact>
</mgrwt>
</event>
<event>
 4    1  0.6055396E+003  0.1355266E+03  0.7546771E-02  0.1219478E+00
         21   -1    0    0  502  501  0.00000000000E+00  0.00000000000E+00  0.21425026869E+03  0.21425026869E+03  0.00000000000E+00 0. -1.
         21   -1    0    0  503  502 -0.00000000000E+00 -0.00000000000E+00 -0.14461457515E+03  0.14461457515E+03  0.00000000000E+00 0.  1.
         21    1    1    2  503  504 -0.12161933815E+03  0.59801408769E+02 -0.79680486287E+02  0.15721466788E+03  0.00000000000E+00 0.  1.
         21    1    1    2  504  501  0.12161933815E+03 -0.59801408769E+02  0.14931617983E+03  0.20165017595E+03  0.00000000000E+00 0. -1.
<mgrwt>
<rscale>  2 0.13552665E+03</rscale>
<asrwt>0</asrwt>
<pdfrwt beam="1">  1       21 0.32961580E-01 0.13552665E+03</pdfrwt>
<pdfrwt beam="2">  1       21 0.22248396E-01 0.13552665E+03</pdfrwt>
<totfact> 0.17035155E+05</totfact>
</mgrwt>
</event>
<event>
 4    1  0.6055396E+003  0.1079945E+03  0.7546771E-02  0.1264329E+00
         21   -1    0    0  503  501  0.00000000000E+00  0.00000000000E+00  0.15426327702E+04  0.15426327702E+04  0.00000000000E+00 0. -1.
         21   -1    0    0  501  502 -0.00000000000E+00 -0.00000000000E+00 -0.22196419478E+02  0.22196419478E+02  0.00000000000E+00 0. -1.
         21    1    1    2  503  504  0.83123174292E+02 -0.68944597876E+02  0.13955607272E+04  0.13997330328E+04  0.00000000000E+00 0. -1.
         21    1    1    2  504  502 -0.83123174292E+02  0.68944597876E+02  0.12487562351E+03  0.16509615692E+03  0.00000000000E+00 0. -1.
<mgrwt>
<rscale>  2 0.10799454E+03</rscale>
<asrwt>0</asrwt>
<pdfrwt beam="1">  1       21 0.23732803E+00 0.10799454E+03</pdfrwt>
<pdfrwt beam="2">  1       21 0.34148350E-02 0.10799454E+03</pdfrwt>
<totfact> 0.43553149E+04</totfact>
</mgrwt>
</event>
<event>
 4    1  0.6055396E+003  0.1101997E+03  0.7546771E-02  0.1260200E+00
         21   -1    0    0  503  501  0.00000000000E+00  0.00000000000E+00  0.18704616786E+02  0.18704616786E+02  0.00000000000E+00 0.  1.
         21   -1    0    0  504  502 -0.00000000000E+00 -0.00000000000E+00 -0.70148939371E+03  0.70148939371E+03  0.00000000000E+00 0.  1.
         21    1    1    2  503  502  0.85759157894E+02 -0.69205120452E+02 -0.43965898795E+03  0.45325931600E+03  0.00000000000E+00 0.  1.
         21    1    1    2  504  501 -0.85759157894E+02  0.69205120452E+02 -0.24312578898E+03  0.26693469450E+03  0.00000000000E+00 0.  1.
<mgrwt>
<rscale>  2 0.11019974E+03</rscale>
<asrwt>0</asrwt>
<pdfrwt beam="1">  1       21 0.28776336E-02 0.11019974E+03</pdfrwt>
<pdfrwt beam="2">  1       21 0.10792143E+00 0.11019974E+03</pdfrwt>
<totfact> 0.47127311E+05</totfact>
</mgrwt>
</event>
<event>
 4    1  0.6055396E+003  0.1110292E+03  0.7546771E-02  0.1258676E+00
         21   -1    0    0  503  501  0.00000000000E+00  0.00000000000E+00  0.41513719949E+03  0.41513719949E+03  0.00000000000E+00 0.  1.
         21   -1    0    0  504  502 -0.00000000000E+00 -0.00000000000E+00 -0.11209798624E+03  0.11209798624E+03  0.00000000000E+00 0.  1.
         21    1    1    2  503  502 -0.36569480794E+02 -0.10483398893E+03 -0.74500462937E+02  0.13370793222E+03  0.00000000000E+00 0.  1.
         21    1    1    2  504  501  0.36569480794E+02  0.10483398893E+03  0.37753967618E+03  0.39352725351E+03  0.00000000000E+00 0.  1.
<mgrwt>
<rscale>  2 0.11102924E+03</rscale>
<asrwt>0</asrwt>
<pdfrwt beam="1">  1       21 0.63867261E-01 0.11102924E+03</pdfrwt>
<pdfrwt beam="2">  1       21 0.17245844E-01 0.11102924E+03</pdfrwt>
<totfact> 0.71462570E+04</totfact>
</mgrwt>
</event>
<event>
 4    1  0.6055396E+003  0.1744984E+03  0.7546771E-02  0.1173236E+00
         21   -1    0    0  503  501  0.00000000000E+00  0.00000000000E+00  0.45972303133E+03  0.45972303133E+03  0.00000000000E+00 0.  1.
         21   -1    0    0  501  502 -0.00000000000E+00 -0.00000000000E+00 -0.91783318316E+02  0.91783318316E+02  0.00000000000E+00 0.  1.
         21    1    1    2  503  504 -0.51452093302E+02  0.16674046920E+03  0.32945571563E+03  0.37281465977E+03  0.00000000000E+00 0.  1.
         21    1    1    2  504  502  0.51452093302E+02 -0.16674046920E+03  0.38483997378E+02  0.17869168987E+03  0.00000000000E+00 0.  1.
<mgrwt>
<rscale>  2 0.17449843E+03</rscale>
<asrwt>0</asrwt>
<pdfrwt beam="1">  1       21 0.70726619E-01 0.17449843E+03</pdfrwt>
<pdfrwt beam="2">  1       21 0.14120511E-01 0.17449843E+03</pdfrwt>
<totfact> 0.79900930E+04</totfact>
</mgrwt>
</event>
<event>
 4    1  0.6055396E+003  0.1088652E+03  0.7546771E-02  0.1262686E+00
         21   -1    0    0  503  501  0.00000000000E+00  0.00000000000E+00  0.52644242262E+03  0.52644242262E+03  0.00000000000E+00 0.  1.
         21   -1    0    0  504  502 -0.00000000000E+00 -0.00000000000E+00 -0.50693780157E+02  0.50693780157E+02  0.00000000000E+00 0. -1.
         21    1    1    2  503  502 -0.79111053861E+02  0.74786812074E+02  0.22720031557E+02  0.11121072762E+03  0.00000000000E+00 0. -1.
         21    1    1    2  504  501  0.79111053861E+02 -0.74786812074E+02  0.45302861090E+03  0.46592547516E+03  0.00000000000E+00 0.  1.
<mgrwt>
<rscale>  2 0.10886517E+03</rscale>
<asrwt>0</asrwt>
<pdfrwt beam="1">  1       21 0.80991138E-01 0.10886517E+03</pdfrwt>
<pdfrwt beam="2">  1       21 0.77990435E-02 0.10886517E+03</pdfrwt>
<totfact> 0.17246067E+05</totfact>
</mgrwt>
</event>
<event>
 4    1  0.6055396E+003  0.1064005E+03  0.7546771E-02  0.1267385E+00
         21   -1    0    0  502  501  0.00000000000E+00  0.00000000000E+00  0.19189788093E+02  0.19189788093E+02  0.00000000000E+00 0. -1.
         21   -1    0    0  504  502 -0.00000000000E+00 -0.00000000000E+00 -0.80619798308E+03  0.80619798308E+03  0.00000000000E+00 0. -1.
         21    1    1    2  503  501  0.15812527378E+02  0.10521893218E+03 -0.17976651186E+03  0.20889485034E+03  0.00000000000E+00 0. -1.
         21    1    1    2  504  503 -0.15812527378E+02 -0.10521893218E+03 -0.60724168313E+03  0.61649292083E+03  0.00000000000E+00 0. -1.
<mgrwt>
<rscale>  2 0.10640047E+03</rscale>
<asrwt>0</asrwt>
<pdfrwt beam="1">  1       21 0.29522759E-02 0.10640047E+03</pdfrwt>
<pdfrwt beam="2">  1       21 0.12403043E+00 0.10640047E+03</pdfrwt>
<totfact> 0.32389596E+05</totfact>
</mgrwt>
</event>
<event>
 4    1  0.6055396E+003  0.1222980E+03  0.7546771E-02  0.1239353E+00
         21   -1    0    0  504  501  0.00000000000E+00  0.00000000000E+00  0.23368937912E+03  0.23368937912E+03  0.00000000000E+00 0.  1.
         21   -1    0    0  501  502 -0.00000000000E+00 -0.00000000000E+00 -0.11289205554E+03  0.11289205554E+03  0.00000000000E+00 0.  1.
         21    1    1    2  503  502  0.27794583158E+02 -0.11909774299E+03 -0.53639346771E+02  0.13354396565E+03  0.00000000000E+00 0.  1.
         21    1    1    2  504  503 -0.27794583158E+02  0.11909774299E+03  0.17443667036E+03  0.21303746901E+03  0.00000000000E+00 0.  1.
<mgrwt>
<rscale>  2 0.12229804E+03</rscale>
<asrwt>0</asrwt>
<pdfrwt beam="1">  1       21 0.35952212E-01 0.12229804E+03</pdfrwt>
<pdfrwt beam="2">  1       21 0.17368009E-01 0.12229804E+03</pdfrwt>
<totfact> 0.22774203E+05</totfact>
</mgrwt>
</event>
<event>
 4    1  0.6055396E+003  0.1080809E+03  0.7546771E-02  0.1264166E+00
         21   -1    0    0  503  501  0.00000000000E+00  0.00000000000E+00  0.16142324857E+04  0.16142324857E+04  0.00000000000E+00 0.  1.
         21   -1    0    0  504  502 -0.00000000000E+00 -0.00000000000E+00 -0.98173577757E+01  0.98173577757E+01  0.00000000000E+00 0.  1.
         21    1    1    2  503  502 -0.10683432938E+03  0.16367758044E+02  0.12185490654E+04  0.12233328665E+04  0.00000000000E+00 0.  1.
         21    1    1    2  504  501  0.10683432938E+03 -0.16367758044E+02  0.38586606247E+03  0.40071697694E+03  0.00000000000E+00 0.  1.
<mgrwt>
<rscale>  2 0.10808088E+03</rscale>
<asrwt>0</asrwt>
<pdfrwt beam="1">  1       21 0.24834325E+00 0.10808088E+03</pdfrwt>
<pdfrwt beam="2">  1       21 0.15103640E-02 0.10808088E+03</pdfrwt>
<totfact> 0.14067779E+05</totfact>
</mgrwt>
</event>
<event>
 4    1  0.6055396E+003  0.1306408E+03  0.7546771E-02  0.1226508E+00
         21   -1    0    0  503  501  0.00000000000E+00  0.00000000000E+00  0.80618644490E+02  0.80618644490E+02  0.00000000000E+00 0. -1.
         21   -1    0    0  504  502 -0.00000000000E+00 -0.00000000000E+00 -0.37737781341E+03  0.37737781341E+03  0.00000000000E+00 0. -1.
         21    1    1    2  503  502 -0.11643435998E+03  0.59245840761E+02 -0.30011085620E+03  0.32731262708E+03  0.00000000000E+00 0. -1.
         21    1    1    2  504  501  0.11643435998E+03 -0.59245840761E+02  0.33516872810E+01  0.13068383083E+03  0.00000000000E+00 0. -1.
<mgrwt>
<rscale>  2 0.13064084E+03</rscale>
<asrwt>0</asrwt>
<pdfrwt beam="1">  1       21 0.12402869E-01 0.13064084E+03</pdfrwt>
<pdfrwt beam="2">  1       21 0.58058124E-01 0.13064084E+03</pdfrwt>
<totfact> 0.15688381E+05</totfact>
</mgrwt>
</event>
<event>
 4    1  0.6055396E+003  0.1042448E+03  0.7546771E-02  0.1271615E+00
         21   -1    0    0  504  501  0.00000000000E+00  0.00000000000E+00  0.15171179638E+03  0.15171179638E+03  0.00000000000E+00 0.  1.
         21   -1    0    0  503  502 -0.00000000000E+00 -0.00000000000E+00 -0.24370929437E+03  0.24370929437E+03  0.00000000000E+00 0. -1.
         21    1    1    2  503  501  0.19468233497E+02 -0.10241080686E+03  0.12013550347E+03  0.15905824302E+03  0.00000000000E+00 0.  1.
         21    1    1    2  504  502 -0.19468233497E+02  0.10241080686E+03 -0.21213300147E+03  0.23636284773E+03  0.00000000000E+00 0. -1.
<mgrwt>
<rscale>  2 0.10424483E+03</rscale>
<asrwt>0</asrwt>
<pdfrwt beam="1">  1       21 0.23340277E-01 0.10424483E+03</pdfrwt>
<pdfrwt beam="2">  1       21 0.37493737E-01 0.10424483E+03</pdfrwt>
<totfact> 0.12231115E+05</totfact>
</mgrwt>
</event>
<event>
 4    1  0.6055396E+003  0.1461447E+03  0.7546771E-02  0.1205292E+00
         21   -1    0    0  503  501  0.00000000000E+00  0.00000000000E+00  0.19774475380E+03  0.19774475380E+03  0.00000000000E+00 0. -1.
         21   -1    0    0  504  502 -0.00000000000E+00 -0.00000000000E+00 -0.21392168618E+03  0.21392168618E+03  0.00000000000E+00 0.  1.
         21    1    1    2  503  502  0.10389615343E+02  0.14577488084E+03  0.13674254633E+03  0.20014190958E+03  0.00000000000E+00 0. -1.
         21    1    1    2  504  501 -0.10389615343E+02 -0.14577488084E+03 -0.15291947871E+03  0.21152453040E+03  0.00000000000E+00 0.  1.
<mgrwt>
<rscale>  2 0.14614465E+03</rscale>
<asrwt>0</asrwt>
<pdfrwt beam="1">  1       21 0.30422270E-01 0.14614465E+03</pdfrwt>
<pdfrwt beam="2">  1       21 0.32911028E-01 0.14614465E+03</pdfrwt>
<totfact> 0.93859532E+04</totfact>
</mgrwt>
</event>
<event>
 4    1  0.6055396E+003  0.1014082E+03  0.7546771E-02  0.1277362E+00
         21   -1    0    0  504  501  0.00000000000E+00  0.00000000000E+00  0.58994953889E+02  0.58994953889E+02  0.00000000000E+00 0. -1.
         21   -1    0    0  503  502 -0.00000000000E+00 -0.00000000000E+00 -0.21797544356E+03  0.21797544356E+03  0.00000000000E+00 0. -1.
         21    1    1    2  503  501 -0.72990342842E+02  0.70399048348E+02 -0.17510302519E+02  0.10290882786E+03  0.00000000000E+00 0. -1.
         21    1    1    2  504  502  0.72990342842E+02 -0.70399048348E+02 -0.14147018715E+03  0.17406156960E+03  0.00000000000E+00 0. -1.
<mgrwt>
<rscale>  2 0.10140817E+03</rscale>
<asrwt>0</asrwt>
<pdfrwt beam="1">  1       21 0.90761466E-02 0.10140817E+03</pdfrwt>
<pdfrwt beam="2">  1       21 0.33534684E-01 0.10140817E+03</pdfrwt>
<totfact> 0.82575609E+05</totfact>
</mgrwt>
</event>
<event>
 4    1  0.6055396E+003  0.1043808E+03  0.7546771E-02  0.1271344E+00
         21   -1    0    0  502  501  0.00000000000E+00  0.00000000000E+00  0.47316718615E+03  0.47316718615E+03  0.00000000000E+00 0.  1.
         21   -1    0    0  504  502 -0.00000000000E+00 -0.00000000000E+00 -0.14940720435E+03  0.14940720435E+03  0.00000000000E+00 0. -1.
         21    1    1    2  503  501 -0.96410175623E+02  0.40005369249E+02  0.44817645946E+03  0.46017115332E+03  0.00000000000E+00 0.  1.
         21    1    1    2  504  503  0.96410175623E+02 -0.40005369249E+02 -0.12441647766E+03  0.16240323718E+03  0.00000000000E+00 0. -1.
<mgrwt>
<rscale>  2 0.10438080E+03</rscale>
<asrwt>0</asrwt>
<pdfrwt beam="1">  1       21 0.72794951E-01 0.10438080E+03</pdfrwt>
<pdfrwt beam="2">  1       21 0.22985724E-01 0.10438080E+03</pdfrwt>
<totfact> 0.31903667E+04</totfact>
</mgrwt>
</event>
<event>
 4    1  0.6055396E+003  0.1290131E+03  0.7546771E-02  0.1228928E+00
         21   -1    0    0  502  501  0.00000000000E+00  0.00000000000E+00  0.22695509248E+03  0.22695509248E+03  0.00000000000E+00 0.  1.
         21   -1    0    0  503  502 -0.00000000000E+00 -0.00000000000E+00 -0.10829455846E+03  0.10829455846E+03  0.00000000000E+00 0.  1.
         21    1    1    2  503  504  0.12738945323E+03 -0.20403416839E+02 -0.35905702594E+02  0.13391636081E+03  0.00000000000E+00 0.  1.
         21    1    1    2  504  501 -0.12738945323E+03  0.20403416839E+02  0.15456623661E+03  0.20133329013E+03  0.00000000000E+00 0.  1.
<mgrwt>
<rscale>  2 0.12901307E+03</rscale>
<asrwt>0</asrwt>
<pdfrwt beam="1">  1       21 0.34916168E-01 0.12901307E+03</pdfrwt>
<pdfrwt beam="2">  1       21 0.16660701E-01 0.12901307E+03</pdfrwt>
<totfact> 0.25979515E+05</totfact>
</mgrwt>
</event>
<event>
 4    1  0.6055396E+003  0.1111973E+03  0.7546771E-02  0.1258369E+00
         21   -1    0    0  504  501  0.00000000000E+00  0.00000000000E+00  0.66699059786E+03  0.66699059786E+03  0.00000000000E+00 0. -1.
         21   -1    0    0  501  502 -0.00000000000E+00 -0.00000000000E+00 -0.41268923656E+02  0.41268923656E+02  0.00000000000E+00 0. -1.
         21    1    1    2  503  502 -0.87909841914E+02 -0.68093247989E+02  0.50041618934E+02  0.12193848594E+03  0.00000000000E+00 0. -1.
         21    1    1    2  504  503  0.87909841914E+02  0.68093247989E+02  0.57568005527E+03  0.58632103558E+03  0.00000000000E+00 0. -1.
<mgrwt>
<rscale>  2 0.11119726E+03</rscale>
<asrwt>0</asrwt>
<pdfrwt beam="1">  1       21 0.10261393E+00 0.11119726E+03</pdfrwt>
<pdfrwt beam="2">  1       21 0.63490657E-02 0.11119726E+03</pdfrwt>
<totfact> 0.14253742E+05</totfact>
</mgrwt>
</event>
<event>
 4    1  0.6055396E+003  0.1426877E+03  0.7546771E-02  0.1209758E+00
         21   -1    0    0  503  501  0.00000000000E+00  0.00000000000E+00  0.24768097054E+02  0.24768097054E+02  0.00000000000E+00 0. -1.
         21   -1    0    0  504  502 -0.00000000000E+00 -0.00000000000E+00 -0.85510664020E+03  0.85510664020E+03  0.00000000000E+00 0. -1.
         21    1    1    2  503  502 -0.14160188218E+03 -0.17569689642E+02 -0.50171175107E+03  0.52160758065E+03  0.00000000000E+00 0. -1.
         21    1    1    2  504  501  0.14160188218E+03  0.17569689642E+02 -0.32862679208E+03  0.35826715660E+03  0.00000000000E+00 0. -1.
<mgrwt>
<rscale>  2 0.14268773E+03</rscale>
<asrwt>0</asrwt>
<pdfrwt beam="1">  1       21 0.38104759E-02 0.14268773E+03</pdfrwt>
<pdfrwt beam="2">  1       21 0.13155489E+00 0.14268773E+03</pdfrwt>
<totfact> 0.18169164E+05</totfact>
</mgrwt>
</event>
<event>
 4    1  0.6055396E+003  0.1037470E+03  0.7546771E-02  0.1272608E+00
         21   -1    0    0  502  501  0.00000000000E+00  0.00000000000E+00  0.16868913465E+02  0.16868913465E+02  0.00000000000E+00 0.  1.
         21   -1    0    0  503  502 -0.00000000000E+00 -0.00000000000E+00 -0.64612661876E+03  0.64612661876E+03  0.00000000000E+00 0.  1.
         21    1    1    2  503  504 -0.10345925614E+03  0.77213655809E+01 -0.35166063309E+03  0.36664511184E+03  0.00000000000E+00 0.  1.
         21    1    1    2  504  501  0.10345925614E+03 -0.77213655809E+01 -0.27759707221E+03  0.29635042039E+03  0.00000000000E+00 0.  1.
<mgrwt>
<rscale>  2 0.10374699E+03</rscale>
<asrwt>0</asrwt>
<pdfrwt beam="1">  1       21 0.25952174E-02 0.10374699E+03</pdfrwt>
<pdfrwt beam="2">  1       21 0.99404098E-01 0.10374699E+03</pdfrwt>
<totfact> 0.67666294E+05</totfact>
</mgrwt>
</event>
<event>
 4    1  0.6055396E+003  0.1115283E+03  0.7546771E-02  0.1257766E+00
         21   -1    0    0  504  501  0.00000000000E+00  0.00000000000E+00  0.98324014704E+02  0.98324014704E+02  0.00000000000E+00 0. -1.
         21   -1    0    0  501  502 -0.00000000000E+00 -0.00000000000E+00 -0.22107772519E+03  0.22107772519E+03  0.00000000000E+00 0. -1.
         21    1    1    2  503  502  0.11106934307E+03 -0.10107029864E+02 -0.16582868916E+03  0.19984420224E+03  0.00000000000E+00 0. -1.
         21    1    1    2  504  503 -0.11106934307E+03  0.10107029864E+02  0.43074978674E+02  0.11955753765E+03  0.00000000000E+00 0. -1.
<mgrwt>
<rscale>  2 0.11152825E+03</rscale>
<asrwt>0</asrwt>
<pdfrwt beam="1">  1       21 0.15126771E-01 0.11152825E+03</pdfrwt>
<pdfrwt beam="2">  1       21 0.34011958E-01 0.11152825E+03</pdfrwt>
<totfact> 0.32673611E+05</totfact>
</mgrwt>
</event>
<event>
 4    1  0.6055396E+003  0.1064934E+03  0.7546771E-02  0.1267205E+00
         21   -1    0    0  502  501  0.00000000000E+00  0.00000000000E+00  0.10675933595E+03  0.10675933595E+03  0.00000000000E+00 0. -1.
         21   -1    0    0  504  502 -0.00000000000E+00 -0.00000000000E+00 -0.16886936676E+03  0.16886936676E+03  0.00000000000E+00 0. -1.
         21    1    1    2  503  501  0.31433862182E+01  0.10644701018E+03  0.52881144671E+02  0.11890022000E+03  0.00000000000E+00 0. -1.
         21    1    1    2  504  503 -0.31433862182E+01 -0.10644701018E+03 -0.11499117549E+03  0.15672848271E+03  0.00000000000E+00 0. -1.
<mgrwt>
<rscale>  2 0.10649341E+03</rscale>
<asrwt>0</asrwt>
<pdfrwt beam="1">  1       21 0.16424513E-01 0.10649341E+03</pdfrwt>
<pdfrwt beam="2">  1       21 0.25979903E-01 0.10649341E+03</pdfrwt>
<totfact> 0.47253795E+05</totfact>
</mgrwt>
</event>
<event>
 4    1  0.6055396E+003  0.1276687E+03  0.7546771E-02  0.1230957E+00
         21   -1    0    0  503  501  0.00000000000E+00  0.00000000000E+00  0.29398673519E+03  0.29398673519E+03  0.00000000000E+00 0. -1.
         21   -1    0    0  501  502 -0.00000000000E+00 -0.00000000000E+00 -0.66228575872E+02  0.66228575872E+02  0.00000000000E+00 0.  1.
         21    1    1    2  503  504 -0.19848771998E+02  0.12611631205E+03  0.18656418466E+03  0.22606524039E+03  0.00000000000E+00 0. -1.
         21    1    1    2  504  502  0.19848771998E+02 -0.12611631205E+03  0.41193974659E+02  0.13415007068E+03  0.00000000000E+00 0.  1.
<mgrwt>
<rscale>  2 0.12766870E+03</rscale>
<asrwt>0</asrwt>
<pdfrwt beam="1">  1       21 0.45228728E-01 0.12766870E+03</pdfrwt>
<pdfrwt beam="2">  1       21 0.10189012E-01 0.12766870E+03</pdfrwt>
<totfact> 0.37246010E+05</totfact>
</mgrwt>
</event>
<event>
 4    1  0.6055396E+003  0.1340020E+03  0.7546771E-02  0.1221635E+00
         21   -1    0    0  504  501  0.00000000000E+00  0.00000000000E+00  0.30155350833E+04  0.30155350833E+04  0.00000000000E+00 0.  1.
         21   -1    0    0  501  502 -0.00000000000E+00 -0.00000000000E+00 -0.95247781398E+01  0.95247781398E+01  0.00000000000E+00 0.  1.
         21    1    1    2  503  502  0.20251888007E+02  0.13246279129E+03  0.57699243430E+03  0.59234854543E+03  0.00000000000E+00 0.  1.
         21    1    1    2  504  503 -0.20251888007E+02 -0.13246279129E+03  0.24290178708E+04  0.24327113160E+04  0.00000000000E+00 0.  1.
<mgrwt>
<rscale>  2 0.13400198E+03</rscale>
<asrwt>0</asrwt>
<pdfrwt beam="1">  1       21 0.46392771E+00 0.13400198E+03</pdfrwt>
<pdfrwt beam="2">  1       21 0.14653529E-02 0.13400198E+03</pdfrwt>
<totfact> 0.75217552E+03</totfact>
</mgrwt>
</event>
<event>
 4    1  0.6055396E+003  0.1064980E+03  0.7546771E-02  0.1267196E+00
         21   -1    0    0  503  501  0.00000000000E+00  0.00000000000E+00  0.26186200651E+02  0.26186200651E+02  0.00000000000E+00 0.  1.
         21   -1    0    0  504  502 -0.00000000000E+00 -0.00000000000E+00 -0.46153612653E+03  0.46153612653E+03  0.00000000000E+00 0.  1.
         21    1    1    2  503  502 -0.67954033094E+02  0.82000444314E+02 -0.27818198973E+03  0.29787084935E+03  0.00000000000E+00 0.  1.
         21    1    1    2  504  501  0.67954033094E+02 -0.82000444314E+02 -0.15716793615E+03  0.18985147783E+03  0.00000000000E+00 0.  1.
<mgrwt>
<rscale>  2 0.10649800E+03</rscale>
<asrwt>0</asrwt>
<pdfrwt beam="1">  1       21 0.40286460E-02 0.10649800E+03</pdfrwt>
<pdfrwt beam="2">  1       21 0.71005562E-01 0.10649800E+03</pdfrwt>
<totfact> 0.70034063E+05</totfact>
</mgrwt>
</event>
<event>
 4    1  0.6055396E+003  0.1124184E+03  0.7546771E-02  0.1256156E+00
         21   -1    0    0  504  501  0.00000000000E+00  0.00000000000E+00  0.44027337449E+02  0.44027337449E+02  0.00000000000E+00 0.  1.
         21   -1    0    0  503  502 -0.00000000000E+00 -0.00000000000E+00 -0.31124072838E+03  0.31124072838E+03  0.00000000000E+00 0.  1.
         21    1    1    2  503  501 -0.10915146573E+03 -0.26904365475E+02 -0.18313289780E+03  0.21488495902E+03  0.00000000000E+00 0.  1.
         21    1    1    2  504  502  0.10915146573E+03  0.26904365475E+02 -0.84080493125E+02  0.14038310681E+03  0.00000000000E+00 0.  1.
<mgrwt>
<rscale>  2 0.11241836E+03</rscale>
<asrwt>0</asrwt>
<pdfrwt beam="1">  1       21 0.67734370E-02 0.11241836E+03</pdfrwt>
<pdfrwt beam="2">  1       21 0.47883186E-01 0.11241836E+03</pdfrwt>
<totfact> 0.67158442E+05</totfact>
</mgrwt>
</event>
<event>
 4    1  0.6055396E+003  0.1378797E+03  0.7546771E-02  0.1216211E+00
         21   -1    0    0  504  501  0.00000000000E+00  0.00000000000E+00  0.68837831650E+03  0.68837831650E+03  0.00000000000E+00 0.  1.
         21   -1    0    0  503  502 -0.00000000000E+00 -0.00000000000E+00 -0.17181492425E+03  0.17181492425E+03  0.00000000000E+00 0. -1.
         21    1    1    2  503  501 -0.77338090701E+02 -0.11414746310E+03 -0.13573566233E+03  0.19348124879E+03  0.00000000000E+00 0. -1.
         21    1    1    2  504  502  0.77338090701E+02  0.11414746310E+03  0.65229905459E+03  0.66671199196E+03  0.00000000000E+00 0.  1.
<mgrwt>
<rscale>  2 0.13787974E+03</rscale>
<asrwt>0</asrwt>
<pdfrwt beam="1">  1       21 0.10590436E+00 0.13787974E+03</pdfrwt>
<pdfrwt beam="2">  1       21 0.26433066E-01 0.13787974E+03</pdfrwt>
<totfact> 0.10165438E+04</totfact>
</mgrwt>
</event>
<event>
 4    1  0.6055396E+003  0.1060658E+03  0.7546771E-02  0.1268034E+00
         21   -1    0    0  504  501  0.00000000000E+00  0.00000000000E+00  0.24747863343E+02  0.24747863343E+02  0.00000000000E+00 0. -1.
         21   -1    0    0  503  502 -0.00000000000E+00 -0.00000000000E+00 -0.48424098728E+03  0.48424098728E+03  0.00000000000E+00 0. -1.
         21    1    1    2  503  501 -0.76533447551E+02 -0.73434263086E+02 -0.29272876627E+03  0.31135203579E+03  0.00000000000E+00 0. -1.
         21    1    1    2  504  502  0.76533447551E+02  0.73434263086E+02 -0.16676435767E+03  0.19763681484E+03  0.00000000000E+00 0. -1.
<mgrwt>
<rscale>  2 0.10606583E+03</rscale>
<asrwt>0</asrwt>
<pdfrwt beam="1">  1       21 0.38073639E-02 0.10606583E+03</pdfrwt>
<pdfrwt beam="2">  1       21 0.74498608E-01 0.10606583E+03</pdfrwt>
<totfact> 0.69232447E+05</totfact>
</mgrwt>
</event>
<event>
 4    1  0.6055396E+003  0.1077139E+03  0.7546771E-02  0.1264863E+00
         21   -1    0    0  502  501  0.00000000000E+00  0.00000000000E+00  0.55988302631E+02  0.55988302631E+02  0.00000000000E+00 0. -1.
         21   -1    0    0  504  502 -0.00000000000E+00 -0.00000000000E+00 -0.71812300626E+03  0.71812300626E+03  0.00000000000E+00 0. -1.
         21    1    1    2  503  501  0.87494358140E+02 -0.62825319412E+02 -0.45996030464E+01  0.10781205783E+03  0.00000000000E+00 0. -1.
         21    1    1    2  504  503 -0.87494358140E+02  0.62825319412E+02 -0.65753510058E+03  0.66629925106E+03  0.00000000000E+00 0. -1.
<mgrwt>
<rscale>  2 0.10771390E+03</rscale>
<asrwt>0</asrwt>
<pdfrwt beam="1">  1       21 0.86135852E-02 0.10771390E+03</pdfrwt>
<pdfrwt beam="2">  1       21 0.11048046E+00 0.10771390E+03</pdfrwt>
<totfact> 0.71209602E+04</totfact>
</mgrwt>
</event>
<event>
 4    1  0.6055396E+003  0.1058886E+03  0.7546771E-02  0.1268379E+00
         21   -1    0    0  503  501  0.00000000000E+00  0.00000000000E+00  0.85748964079E+02  0.85748964079E+02  0.00000000000E+00 0.  1.
         21   -1    0    0  504  502 -0.00000000000E+00 -0.00000000000E+00 -0.29143816697E+03  0.29143816697E+03  0.00000000000E+00 0.  1.
         21    1    1    2  503  502 -0.46002100337E+02 -0.95374016940E+02  0.37189648755E+02  0.11222952516E+03  0.00000000000E+00 0.  1.
         21    1    1    2  504  501  0.46002100337E+02  0.95374016940E+02 -0.24287885165E+03  0.26495760589E+03  0.00000000000E+00 0.  1.
<mgrwt>
<rscale>  2 0.10588860E+03</rscale>
<asrwt>0</asrwt>
<pdfrwt beam="1">  1       21 0.13192148E-01 0.10588860E+03</pdfrwt>
<pdfrwt beam="2">  1       21 0.44836641E-01 0.10588860E+03</pdfrwt>
<totfact> 0.24143437E+05</totfact>
</mgrwt>
</event>
<event>
 4    1  0.6055396E+003  0.1027659E+03  0.7546771E-02  0.1274585E+00
         21   -1    0    0  504  501  0.00000000000E+00  0.00000000000E+00  0.21799533368E+02  0.21799533368E+02  0.00000000000E+00 0.  1.
         21   -1    0    0  503  502 -0.00000000000E+00 -0.00000000000E+00 -0.53745689509E+03  0.53745689509E+03  0.00000000000E+00 0.  1.
         21    1    1    2  503  501 -0.88270011861E+02  0.52623470745E+02 -0.34564347734E+03  0.36059705780E+03  0.00000000000E+00 0.  1.
         21    1    1    2  504  502  0.88270011861E+02 -0.52623470745E+02 -0.17001388438E+03  0.19865937066E+03  0.00000000000E+00 0.  1.
<mgrwt>
<rscale>  2 0.10276587E+03</rscale>
<asrwt>0</asrwt>
<pdfrwt beam="1">  1       21 0.33537748E-02 0.10276587E+03</pdfrwt>
<pdfrwt beam="2">  1       21 0.82685667E-01 0.10276587E+03</pdfrwt>
<totfact> 0.67723869E+05</totfact>
</mgrwt>
</event>
<event>
 4    1  0.6055396E+003  0.1644087E+03  0.7546771E-02  0.1183807E+00
         21   -1    0    0  502  501  0.00000000000E+00  0.00000000000E+00  0.19850947497E+03  0.19850947497E+03  0.00000000000E+00 0. -1.
         21   -1    0    0  504  502 -0.00000000000E+00 -0.00000000000E+00 -0.55144009498E+03  0.55144009498E+03  0.00000000000E+00 0. -1.
         21    1    1    2  503  501  0.14611859227E+03  0.75362894667E+02  0.14893682632E+03  0.22183865113E+03  0.00000000000E+00 0. -1.
         21    1    1    2  504  503 -0.14611859227E+03 -0.75362894667E+02 -0.50186744632E+03  0.52811091882E+03  0.00000000000E+00 0. -1.
<mgrwt>
<rscale>  2 0.16440866E+03</rscale>
<asrwt>0</asrwt>
<pdfrwt beam="1">  1       21 0.30539919E-01 0.16440866E+03</pdfrwt>
<pdfrwt beam="2">  1       21 0.84836938E-01 0.16440866E+03</pdfrwt>
<totfact> 0.12632602E+04</totfact>
</mgrwt>
</event>
<event>
 4    1  0.6055396E+003  0.1550235E+03  0.7546771E-02  0.1194433E+00
         21   -1    0    0  502  501  0.00000000000E+00  0.00000000000E+00  0.13430885049E+04  0.13430885049E+04  0.00000000000E+00 0. -1.
         21   -1    0    0  504  502 -0.00000000000E+00 -0.00000000000E+00 -0.43185314722E+02  0.43185314722E+02  0.00000000000E+00 0. -1.
         21    1    1    2  503  501  0.74117710712E+01 -0.15484616843E+03  0.11803995657E+04  0.11905357638E+04  0.00000000000E+00 0. -1.
         21    1    1    2  504  503 -0.74117710712E+01  0.15484616843E+03  0.11950362450E+03  0.19573805582E+03  0.00000000000E+00 0. -1.
<mgrwt>
<rscale>  2 0.15502345E+03</rscale>
<asrwt>0</asrwt>
<pdfrwt beam="1">  1       21 0.20662897E+00 0.15502345E+03</pdfrwt>
<pdfrwt beam="2">  1       21 0.66438956E-02 0.15502345E+03</pdfrwt>
<totfact> 0.20801118E+04</totfact>
</mgrwt>
</event>
<event>
 4    1  0.6055396E+003  0.1715300E+03  0.7546771E-02  0.1176262E+00
         21   -1    0    0  503  501  0.00000000000E+00  0.00000000000E+00  0.12423485438E+03  0.12423485438E+03  0.00000000000E+00 0. -1.
         21   -1    0    0  504  502 -0.00000000000E+00 -0.00000000000E+00 -0.24856783477E+03  0.24856783477E+03  0.00000000000E+00 0. -1.
         21    1    1    2  503  502 -0.61064085385E+02  0.16029259205E+03 -0.10267264469E+03  0.19991050387E+03  0.00000000000E+00 0. -1.
         21    1    1    2  504  501  0.61064085385E+02 -0.16029259205E+03 -0.21660335700E+02  0.17289218528E+03  0.00000000000E+00 0. -1.
<mgrwt>
<rscale>  2 0.17152999E+03</rscale>
<asrwt>0</asrwt>
<pdfrwt beam="1">  1       21 0.19113055E-01 0.17152999E+03</pdfrwt>
<pdfrwt beam="2">  1       21 0.38241205E-01 0.17152999E+03</pdfrwt>
<totfact> 0.16674673E+05</totfact>
</mgrwt>
</event>
<event>
 4    1  0.6055396E+003  0.1235488E+03  0.7546771E-02  0.1237355E+00
         21   -1    0    0  504  501  0.00000000000E+00  0.00000000000E+00  0.24483335531E+04  0.24483335531E+04  0.00000000000E+00 0.  1.
         21   -1    0    0  503  502 -0.00000000000E+00 -0.00000000000E+00 -0.11261362820E+02  0.11261362820E+02  0.00000000000E+00 0.  1.
         21    1    1    2  503  501  0.11505660464E+03  0.45014183347E+02  0.39689198046E+03  0.41567721025E+03  0.00000000000E+00 0.  1.
         21    1    1    2  504  502 -0.11505660464E+03 -0.45014183347E+02  0.20401802098E+04  0.20439177057E+04  0.00000000000E+00 0.  1.
<mgrwt>
<rscale>  2 0.12354877E+03</rscale>
<asrwt>0</asrwt>
<pdfrwt beam="1">  1       21 0.37666628E+00 0.12354877E+03</pdfrwt>
<pdfrwt beam="2">  1       21 0.17325193E-02 0.12354877E+03</pdfrwt>
<totfact> 0.20753922E+04</totfact>
</mgrwt>
</event>
<event>
 4    1  0.6055396E+003  0.1130872E+03  0.7546771E-02  0.1254957E+00
         21   -1    0    0  503  501  0.00000000000E+00  0.00000000000E+00  0.10133252118E+04  0.10133252118E+04  0.00000000000E+00 0. -1.
         21   -1    0    0  504  502 -0.00000000000E+00 -0.00000000000E+00 -0.45393348775E+02  0.45393348775E+02  0.00000000000E+00 0.  1.
         21    1    1    2  503  502 -0.11183250431E+03  0.16798800737E+02  0.93375745738E+03  0.94058051114E+03  0.00000000000E+00 0. -1.
         21    1    1    2  504  501  0.11183250431E+03 -0.16798800737E+02  0.34174405662E+02  0.11813804945E+03  0.00000000000E+00 0.  1.
<mgrwt>
<rscale>  2 0.11308717E+03</rscale>
<asrwt>0</asrwt>
<pdfrwt beam="1">  1       21 0.15589617E+00 0.11308717E+03</pdfrwt>
<pdfrwt beam="2">  1       21 0.69835929E-02 0.11308717E+03</pdfrwt>
<totfact> 0.43221326E+04</totfact>
</mgrwt>
</event>
<event>
 4    1  0.6055396E+003  0.1242318E+03  0.7546771E-02  0.1236275E+00
         21   -1    0    0  504  501  0.00000000000E+00  0.00000000000E+00  0.40675101612E+03  0.40675101612E+03  0.00000000000E+00 0.  1.
         21   -1    0    0  503  502 -0.00000000000E+00 -0.00000000000E+00 -0.11713853355E+03  0.11713853355E+03  0.00000000000E+00 0.  1.
         21    1    1    2  503  501 -0.23072026694E+02 -0.12207056833E+03  0.36018800241E+03  0.38101041869E+03  0.00000000000E+00 0.  1.
         21    1    1    2  504  502  0.23072026694E+02  0.12207056833E+03 -0.70575519849E+02  0.14287913098E+03  0.00000000000E+00 0.  1.
<mgrwt>
<rscale>  2 0.12423181E+03</rscale>
<asrwt>0</asrwt>
<pdfrwt beam="1">  1       21 0.62577079E-01 0.12423181E+03</pdfrwt>
<pdfrwt beam="2">  1       21 0.18021313E-01 0.12423181E+03</pdfrwt>
<totfact> 0.68414646E+04</totfact>
</mgrwt>
</event>
<event>
 4    1  0.6055396E+003  0.1145843E+03  0.7546771E-02  0.1252308E+00
         21   -1    0    0  503  501  0.00000000000E+00  0.00000000000E+00  0.96141929245E+02  0.96141929245E+02  0.00000000000E+00 0.  1.
         21   -1    0    0  504  502 -0.00000000000E+00 -0.00000000000E+00 -0.13752350559E+03  0.13752350559E+03  0.00000000000E+00 0.  1.
         21    1    1    2  503  502 -0.53677766126E+02  0.10123372113E+03 -0.10934158268E+02  0.11510484215E+03  0.00000000000E+00 0.  1.
         21    1    1    2  504  501  0.53677766126E+02 -0.10123372113E+03 -0.30447418072E+02  0.11856059268E+03  0.00000000000E+00 0.  1.
<mgrwt>
<rscale>  2 0.11458433E+03</rscale>
<asrwt>0</asrwt>
<pdfrwt beam="1">  1       21 0.14791066E-01 0.11458433E+03</pdfrwt>
<pdfrwt beam="2">  1       21 0.21157462E-01 0.11458433E+03</pdfrwt>
<totfact> 0.83773352E+05</totfact>
</mgrwt>
</event>
<event>
 4    1  0.6055396E+003  0.1004323E+03  0.7546771E-02  0.1279390E+00
         21   -1    0    0  504  501  0.00000000000E+00  0.00000000000E+00  0.30212587120E+02  0.30212587120E+02  0.00000000000E+00 0.  1.
         21   -1    0    0  501  502 -0.00000000000E+00 -0.00000000000E+00 -0.33976687949E+03  0.33976687949E+03  0.00000000000E+00 0.  1.
         21    1    1    2  503  502 -0.53870479623E+02  0.84762121724E+02 -0.17917729290E+03  0.20540483964E+03  0.00000000000E+00 0.  1.
         21    1    1    2  504  503  0.53870479623E+02 -0.84762121724E+02 -0.13037699947E+03  0.16457462698E+03  0.00000000000E+00 0.  1.
<mgrwt>
<rscale>  2 0.10043229E+03</rscale>
<asrwt>0</asrwt>
<pdfrwt beam="1">  1       21 0.46480902E-02 0.10043229E+03</pdfrwt>
<pdfrwt beam="2">  1       21 0.52271829E-01 0.10043229E+03</pdfrwt>
<totfact> 0.10558512E+06</totfact>
</mgrwt>
</event>
<event>
 4    1  0.6055396E+003  0.1052726E+03  0.7546771E-02  0.1269583E+00
         21   -1    0    0  504  501  0.00000000000E+00  0.00000000000E+00  0.13612502409E+03  0.13612502409E+03  0.00000000000E+00 0.  1.
         21   -1    0    0  503  502 -0.00000000000E+00 -0.00000000000E+00 -0.19153993552E+04  0.19153993552E+04  0.00000000000E+00 0.  1.
         21    1    1    2  503  501 -0.51797558421E+02 -0.91647933228E+02 -0.18933629530E+04  0.18962873206E+04  0.00000000000E+00 0.  1.
         21    1    1    2  504  502  0.51797558421E+02  0.91647933228E+02  0.11408862190E+03  0.15523705862E+03  0.00000000000E+00 0.  1.
<mgrwt>
<rscale>  2 0.10527265E+03</rscale>
<asrwt>0</asrwt>
<pdfrwt beam="1">  1       21 0.20942312E-01 0.10527265E+03</pdfrwt>
<pdfrwt beam="2">  1       21 0.29467681E+00 0.10527265E+03</pdfrwt>
<totfact> 0.90667612E+02</totfact>
</mgrwt>
</event>
<event>
 4    1  0.6055396E+003  0.2010640E+03  0.7546771E-02  0.1148844E+00
         21   -1    0    0  503  501  0.00000000000E+00  0.00000000000E+00  0.12656558569E+03  0.12656558569E+03  0.00000000000E+00 0.  1.
         21   -1    0    0  504  502 -0.00000000000E+00 -0.00000000000E+00 -0.18959467385E+04  0.18959467385E+04  0.00000000000E+00 0. -1.
         21    1    1    2  503  502  0.10999961206E+03  0.16830569091E+03  0.37455494245E+02  0.20452294320E+03  0.00000000000E+00 0.  1.
         21    1    1    2  504  501 -0.10999961206E+03 -0.16830569091E+03 -0.18068366471E+04  0.18179893810E+04  0.00000000000E+00 0. -1.
<mgrwt>
<rscale>  2 0.20106397E+03</rscale>
<asrwt>0</asrwt>
<pdfrwt beam="1">  1       21 0.19471628E-01 0.20106397E+03</pdfrwt>
<pdfrwt beam="2">  1       21 0.29168412E+00 0.20106397E+03</pdfrwt>
<totfact> 0.91460580E+02</totfact>
</mgrwt>
</event>
<event>
 4    1  0.6055396E+003  0.1068387E+03  0.7546771E-02  0.1266539E+00
         21   -1    0    0  503  501  0.00000000000E+00  0.00000000000E+00  0.95065462717E+03  0.95065462717E+03  0.00000000000E+00 0.  1.
         21   -1    0    0  501  502 -0.00000000000E+00 -0.00000000000E+00 -0.18942881401E+02  0.18942881401E+02  0.00000000000E+00 0. -1.
         21    1    1    2  503  504  0.10576825279E+03  0.15085714508E+02  0.75920822088E+03  0.76668874045E+03  0.00000000000E+00 0.  1.
         21    1    1    2  504  502 -0.10576825279E+03 -0.15085714508E+02  0.17250352489E+03  0.20290876812E+03  0.00000000000E+00 0. -1.
<mgrwt>
<rscale>  2 0.10683867E+03</rscale>
<asrwt>0</asrwt>
<pdfrwt beam="1">  1       21 0.14625452E+00 0.10683867E+03</pdfrwt>
<pdfrwt beam="2">  1       21 0.29142902E-02 0.10683867E+03</pdfrwt>
<totfact> 0.21925861E+05</totfact>
</mgrwt>
</event>
<event>
 4    1  0.6055396E+003  0.1393779E+03  0.7546771E-02  0.1214169E+00
         21   -1    0    0  502  501  0.00000000000E+00  0.00000000000E+00  0.10735401043E+03  0.10735401043E+03  0.00000000000E+00 0. -1.
         21   -1    0    0  504  502 -0.00000000000E+00 -0.00000000000E+00 -0.61721653731E+03  0.61721653731E+03  0.00000000000E+00 0. -1.
         21    1    1    2  503  501  0.10128196414E+03  0.95750500704E+02  0.49651694751E+02  0.14795771503E+03  0.00000000000E+00 0. -1.
         21    1    1    2  504  503 -0.10128196414E+03 -0.95750500704E+02 -0.55951422163E+03  0.57661283271E+03  0.00000000000E+00 0. -1.
<mgrwt>
<rscale>  2 0.13937788E+03</rscale>
<asrwt>0</asrwt>
<pdfrwt beam="1">  1       21 0.16516002E-01 0.13937788E+03</pdfrwt>
<pdfrwt beam="2">  1       21 0.94956390E-01 0.13937788E+03</pdfrwt>
<totfact> 0.31478883E+04</totfact>
</mgrwt>
</event>
<event>
 4    1  0.6055396E+003  0.1190503E+03  0.7546771E-02  0.1244672E+00
         21   -1    0    0  504  501  0.00000000000E+00  0.00000000000E+00  0.27809272604E+03  0.27809272604E+03  0.00000000000E+00 0. -1.
         21   -1    0    0  503  502 -0.00000000000E+00 -0.00000000000E+00 -0.60108051677E+02  0.60108051677E+02  0.00000000000E+00 0. -1.
         21    1    1    2  503  501  0.61747920564E+02  0.10178496322E+03  0.43040812915E+02  0.12659184811E+03  0.00000000000E+00 0. -1.
         21    1    1    2  504  502 -0.61747920564E+02 -0.10178496322E+03  0.17494386144E+03  0.21160892960E+03  0.00000000000E+00 0. -1.
<mgrwt>
<rscale>  2 0.11905034E+03</rscale>
<asrwt>0</asrwt>
<pdfrwt beam="1">  1       21 0.42783495E-01 0.11905034E+03</pdfrwt>
<pdfrwt beam="2">  1       21 0.92473927E-02 0.11905034E+03</pdfrwt>
<totfact> 0.49403976E+05</totfact>
</mgrwt>
</event>
<event>
 4    1  0.6055396E+003  0.1073879E+03  0.7546771E-02  0.1265485E+00
         21   -1    0    0  503  501  0.00000000000E+00  0.00000000000E+00  0.31852087592E+03  0.31852087592E+03  0.00000000000E+00 0. -1.
         21   -1    0    0  504  502 -0.00000000000E+00 -0.00000000000E+00 -0.11489976424E+03  0.11489976424E+03  0.00000000000E+00 0. -1.
         21    1    1    2  503  502 -0.90799838436E+02 -0.57337225301E+02 -0.77535531598E+02  0.13245348891E+03  0.00000000000E+00 0. -1.
         21    1    1    2  504  501  0.90799838436E+02  0.57337225301E+02  0.28115664328E+03  0.30096715124E+03  0.00000000000E+00 0. -1.
<mgrwt>
<rscale>  2 0.10738793E+03</rscale>
<asrwt>0</asrwt>
<pdfrwt beam="1">  1       21 0.49003211E-01 0.10738793E+03</pdfrwt>
<pdfrwt beam="2">  1       21 0.17676887E-01 0.10738793E+03</pdfrwt>
<totfact> 0.11907602E+05</totfact>
</mgrwt>
</event>
<event>
 4    1  0.6055396E+003  0.1010677E+03  0.7546771E-02  0.1278067E+00
         21   -1    0    0  504  501  0.00000000000E+00  0.00000000000E+00  0.74599991487E+03  0.74599991487E+03  0.00000000000E+00 0.  1.
         21   -1    0    0  503  502 -0.00000000000E+00 -0.00000000000E+00 -0.17523348355E+02  0.17523348355E+02  0.00000000000E+00 0.  1.
         21    1    1    2  503  501 -0.98622597342E+02 -0.22096664381E+02  0.18574352039E+03  0.21146000721E+03  0.00000000000E+00 0.  1.
         21    1    1    2  504  502  0.98622597342E+02  0.22096664381E+02  0.54273304613E+03  0.55206325602E+03  0.00000000000E+00 0.  1.
<mgrwt>
<rscale>  2 0.10106770E+03</rscale>
<asrwt>0</asrwt>
<pdfrwt beam="1">  1       21 0.11476919E+00 0.10106770E+03</pdfrwt>
<pdfrwt beam="2">  1       21 0.26959003E-02 0.10106770E+03</pdfrwt>
<totfact> 0.45349792E+05</totfact>
</mgrwt>
</event>
<event>
 4    1  0.6055396E+003  0.1554202E+03  0.7546771E-02  0.1193967E+00
         21   -1    0    0  504  501  0.00000000000E+00  0.00000000000E+00  0.10960223519E+04  0.10960223519E+04  0.00000000000E+00 0.  1.
         21   -1    0    0  503  502 -0.00000000000E+00 -0.00000000000E+00 -0.58850047826E+02  0.58850047826E+02  0.00000000000E+00 0. -1.
         21    1    1    2  503  501 -0.71780755859E+02  0.13785122159E+03  0.97527311315E+03  0.98757940513E+03  0.00000000000E+00 0.  1.
         21    1    1    2  504  502  0.71780755859E+02 -0.13785122159E+03  0.61899190934E+02  0.16729299460E+03  0.00000000000E+00 0. -1.
<mgrwt>
<rscale>  2 0.15542019E+03</rscale>
<asrwt>0</asrwt>
<pdfrwt beam="1">  1       21 0.16861881E+00 0.15542019E+03</pdfrwt>
<pdfrwt beam="2">  1       21 0.90538543E-02 0.15542019E+03</pdfrwt>
<totfact> 0.21678790E+04</totfact>
</mgrwt>
</event>
<event>
 4    1  0.6055396E+003  0.1287510E+03  0.7546771E-02  0.1229321E+00
         21   -1    0    0  502  501  0.00000000000E+00  0.00000000000E+00  0.21451562242E+03  0.21451562242E+03  0.00000000000E+00 0.  1.
         21   -1    0    0  504  502 -0.00000000000E+00 -0.00000000000E+00 -0.73093185200E+03  0.73093185200E+03  0.00000000000E+00 0.  1.
         21    1    1    2  503  501  0.10178631870E+03  0.78843973447E+02  0.18882909216E+03  0.22854595352E+03  0.00000000000E+00 0.  1.
         21    1    1    2  504  503 -0.10178631870E+03 -0.78843973447E+02 -0.70524532175E+03  0.71690152090E+03  0.00000000000E+00 0.  1.
<mgrwt>
<rscale>  2 0.12875103E+03</rscale>
<asrwt>0</asrwt>
<pdfrwt beam="1">  1       21 0.33002403E-01 0.12875103E+03</pdfrwt>
<pdfrwt beam="2">  1       21 0.11245105E+00 0.12875103E+03</pdfrwt>
<totfact> 0.57932164E+03</totfact>
</mgrwt>
</event>
<event>
 4    1  0.6055396E+003  0.1004570E+03  0.7546771E-02  0.1279338E+00
         21   -1    0    0  504  501  0.00000000000E+00  0.00000000000E+00  0.10235971887E+04  0.10235971887E+04  0.00000000000E+00 0. -1.
         21   -1    0    0  503  502 -0.00000000000E+00 -0.00000000000E+00 -0.14007650618E+02  0.14007650618E+02  0.00000000000E+00 0. -1.
         21    1    1    2  503  501  0.95060965689E+01  0.10000617269E+03  0.78713647558E+03  0.79352090812E+03  0.00000000000E+00 0. -1.
         21    1    1    2  504  502 -0.95060965689E+01 -0.10000617269E+03  0.22245306246E+03  0.24408393115E+03  0.00000000000E+00 0. -1.
<mgrwt>
<rscale>  2 0.10045696E+03</rscale>
<asrwt>0</asrwt>
<pdfrwt beam="1">  1       21 0.15747643E+00 0.10045696E+03</pdfrwt>
<pdfrwt beam="2">  1       21 0.21550240E-02 0.10045696E+03</pdfrwt>
<totfact> 0.29630341E+05</totfact>
</mgrwt>
</event>
<event>
 4    1  0.6055396E+003  0.1083502E+03  0.7546771E-02  0.1263656E+00
         21   -1    0    0  503  501  0.00000000000E+00  0.00000000000E+00  0.71547679985E+03  0.71547679985E+03  0.00000000000E+00 0. -1.
         21   -1    0    0  504  502 -0.00000000000E+00 -0.00000000000E+00 -0.74003635123E+02  0.74003635123E+02  0.00000000000E+00 0.  1.
         21    1    1    2  503  502  0.48700603486E+01 -0.10824067113E+03 -0.27503287320E+02  0.11178636405E+03  0.00000000000E+00 0.  1.
         21    1    1    2  504  501 -0.48700603486E+01  0.10824067113E+03  0.66897645204E+03  0.67769407092E+03  0.00000000000E+00 0. -1.
<mgrwt>
<rscale>  2 0.10835017E+03</rscale>
<asrwt>0</asrwt>
<pdfrwt beam="1">  1       21 0.11007335E+00 0.10835017E+03</pdfrwt>
<pdfrwt beam="2">  1       21 0.11385175E-01 0.10835017E+03</pdfrwt>
<totfact> 0.44189113E+04</totfact>
</mgrwt>
</event>
<event>
 4    1  0.6055396E+003  0.1009076E+03  0.7546771E-02  0.1278399E+00
         21   -1    0    0  504  501  0.00000000000E+00  0.00000000000E+00  0.10673173543E+03  0.10673173543E+03  0.00000000000E+00 0.  1.
         21   -1    0    0  503  502 -0.00000000000E+00 -0.00000000000E+00 -0.95969493642E+02  0.95969493642E+02  0.00000000000E+00 0.  1.
         21    1    1    2  503  501  0.20052215975E+02 -0.98895164117E+02 -0.24174171717E+01  0.10093655808E+03  0.00000000000E+00 0.  1.
         21    1    1    2  504  502 -0.20052215975E+02  0.98895164117E+02  0.13179658955E+02  0.10176467099E+03  0.00000000000E+00 0.  1.
<mgrwt>
<rscale>  2 0.10090761E+03</rscale>
<asrwt>0</asrwt>
<pdfrwt beam="1">  1       21 0.16420267E-01 0.10090761E+03</pdfrwt>
<pdfrwt beam="2">  1       21 0.14764537E-01 0.10090761E+03</pdfrwt>
<totfact> 0.13330574E+06</totfact>
</mgrwt>
</event>
<event>
 4    1  0.6055396E+003  0.1142908E+03  0.7546771E-02  0.1252824E+00
         21   -1    0    0  503  501  0.00000000000E+00  0.00000000000E+00  0.49826889283E+02  0.49826889283E+02  0.00000000000E+00 0.  1.
         21   -1    0    0  501  502 -0.00000000000E+00 -0.00000000000E+00 -0.36289060207E+03  0.36289060207E+03  0.00000000000E+00 0.  1.
         21    1    1    2  503  504  0.73242572407E+02  0.87737780153E+02 -0.47807846873E+02  0.12388697551E+03  0.00000000000E+00 0.  1.
         21    1    1    2  504  502 -0.73242572407E+02 -0.87737780153E+02 -0.26525586591E+03  0.28883051584E+03  0.00000000000E+00 0.  1.
<mgrwt>
<rscale>  2 0.11429082E+03</rscale>
<asrwt>0</asrwt>
<pdfrwt beam="1">  1       21 0.76656750E-02 0.11429082E+03</pdfrwt>
<pdfrwt beam="2">  1       21 0.55829326E-01 0.11429082E+03</pdfrwt>
<totfact> 0.39581246E+05</totfact>
</mgrwt>
</event>
<event>
 4    1  0.6055396E+003  0.1312557E+03  0.7546771E-02  0.1225604E+00
         21   -1    0    0  504  501  0.00000000000E+00  0.00000000000E+00  0.82647558369E+02  0.82647558369E+02  0.00000000000E+00 0.  1.
         21   -1    0    0  501  502 -0.00000000000E+00 -0.00000000000E+00 -0.23472724111E+04  0.23472724111E+04  0.00000000000E+00 0. -1.
         21    1    1    2  503  502 -0.31578322656E+02 -0.12740044881E+03 -0.22920704016E+04  0.22958255140E+04  0.00000000000E+00 0. -1.
         21    1    1    2  504  503  0.31578322656E+02  0.12740044881E+03  0.27445548918E+02  0.13409445542E+03  0.00000000000E+00 0.  1.
<mgrwt>
<rscale>  2 0.13125572E+03</rscale>
<asrwt>0</asrwt>
<pdfrwt beam="1">  1       21 0.12715009E-01 0.13125572E+03</pdfrwt>
<pdfrwt beam="2">  1       21 0.36111883E+00 0.13125572E+03</pdfrwt>
<totfact> 0.88690548E+02</totfact>
</mgrwt>
</event>
<event>
 4    1  0.6055396E+003  0.1076903E+03  0.7546771E-02  0.1264908E+00
         21   -1    0    0  504  501  0.00000000000E+00  0.00000000000E+00  0.11191337872E+03  0.11191337872E+03  0.00000000000E+00 0.  1.
         21   -1    0    0  503  502 -0.00000000000E+00 -0.00000000000E+00 -0.88581313701E+03  0.88581313701E+03  0.00000000000E+00 0.  1.
         21    1    1    2  503  501 -0.62428261803E+02  0.87749093802E+02 -0.85572619036E+03  0.86247579920E+03  0.00000000000E+00 0.  1.
         21    1    1    2  504  502  0.62428261803E+02 -0.87749093802E+02  0.81826432077E+02  0.13525071653E+03  0.00000000000E+00 0.  1.
<mgrwt>
<rscale>  2 0.10769026E+03</rscale>
<asrwt>0</asrwt>
<pdfrwt beam="1">  1       21 0.17217443E-01 0.10769026E+03</pdfrwt>
<pdfrwt beam="2">  1       21 0.13627895E+00 0.10769026E+03</pdfrwt>
<totfact> 0.12565879E+04</totfact>
</mgrwt>
</event>
<event>
 4    1  0.6055396E+003  0.1052210E+03  0.7546771E-02  0.1269685E+00
         21   -1    0    0  504  501  0.00000000000E+00  0.00000000000E+00  0.25213294199E+03  0.25213294199E+03  0.00000000000E+00 0. -1.
         21   -1    0    0  503  502 -0.00000000000E+00 -0.00000000000E+00 -0.46089144212E+02  0.46089144212E+02  0.00000000000E+00 0. -1.
         21    1    1    2  503  501  0.20608189102E+02 -0.10318313430E+03  0.70607707006E+02  0.12671584333E+03  0.00000000000E+00 0. -1.
         21    1    1    2  504  502 -0.20608189102E+02  0.10318313430E+03  0.13543609077E+03  0.17150624288E+03  0.00000000000E+00 0. -1.
<mgrwt>
<rscale>  2 0.10522099E+03</rscale>
<asrwt>0</asrwt>
<pdfrwt beam="1">  1       21 0.38789682E-01 0.10522099E+03</pdfrwt>
<pdfrwt beam="2">  1       21 0.70906378E-02 0.10522099E+03</pdfrwt>
<totfact> 0.94837008E+05</totfact>
</mgrwt>
</event>
<event>
 4    1  0.6055396E+003  0.1021012E+03  0.7546771E-02  0.1275938E+00
         21   -1    0    0  504  501  0.00000000000E+00  0.00000000000E+00  0.41872011229E+03  0.41872011229E+03  0.00000000000E+00 0.  1.
         21   -1    0    0  503  502 -0.00000000000E+00 -0.00000000000E+00 -0.25783409841E+02  0.25783409841E+02  0.00000000000E+00 0.  1.
         21    1    1    2  503  501 -0.87491012293E+00  0.10209748987E+03  0.15524757570E+03  0.18581300457E+03  0.00000000000E+00 0.  1.
         21    1    1    2  504  502  0.87491012293E+00 -0.10209748987E+03  0.23768912675E+03  0.25869051757E+03  0.00000000000E+00 0.  1.
<mgrwt>
<rscale>  2 0.10210124E+03</rscale>
<asrwt>0</asrwt>
<pdfrwt beam="1">  1       21 0.64418474E-01 0.10210124E+03</pdfrwt>
<pdfrwt beam="2">  1       21 0.39666787E-02 0.10210124E+03</pdfrwt>
<totfact> 0.88598631E+05</totfact>
</mgrwt>
</event>
<event>
 4    1  0.6055396E+003  0.1768775E+03  0.7546771E-02  0.1170860E+00
         21   -1    0    0  503  501  0.00000000000E+00  0.00000000000E+00  0.20002048015E+04  0.20002048015E+04  0.00000000000E+00 0.  1.
         21   -1    0    0  501  502 -0.00000000000E+00 -0.00000000000E+00 -0.37600550719E+02  0.37600550719E+02  0.00000000000E+00 0.  1.
         21    1    1    2  503  504  0.16516722198E+02 -0.17610460110E+03  0.17599573511E+04  0.17688231993E+04  0.00000000000E+00 0.  1.
         21    1    1    2  504  502 -0.16516722198E+02  0.17610460110E+03  0.20264689963E+03  0.26898215289E+03  0.00000000000E+00 0.  1.
<mgrwt>
<rscale>  2 0.17687745E+03</rscale>
<asrwt>0</asrwt>
<pdfrwt beam="1">  1       21 0.30772373E+00 0.17687745E+03</pdfrwt>
<pdfrwt beam="2">  1       21 0.57847017E-02 0.17687745E+03</pdfrwt>
<totfact> 0.65900551E+03</totfact>
</mgrwt>
</event>
<event>
 4    1  0.6055396E+003  0.1018627E+03  0.7546771E-02  0.1276427E+00
         21   -1    0    0  504  501  0.00000000000E+00  0.00000000000E+00  0.13177233086E+03  0.13177233086E+03  0.00000000000E+00 0. -1.
         21   -1    0    0  503  502 -0.00000000000E+00 -0.00000000000E+00 -0.93020704640E+02  0.93020704640E+02  0.00000000000E+00 0. -1.
         21    1    1    2  503  501  0.73335078371E+02  0.70696427818E+02 -0.24660124415E+02  0.10480524969E+03  0.00000000000E+00 0. -1.
         21    1    1    2  504  502 -0.73335078371E+02 -0.70696427818E+02  0.63411750636E+02  0.11998778581E+03  0.00000000000E+00 0. -1.
<mgrwt>
<rscale>  2 0.10186274E+03</rscale>
<asrwt>0</asrwt>
<pdfrwt beam="1">  1       21 0.20272666E-01 0.10186274E+03</pdfrwt>
<pdfrwt beam="2">  1       21 0.14310878E-01 0.10186274E+03</pdfrwt>
<totfact> 0.96038504E+05</totfact>
</mgrwt>
</event>
<event>
 4    1  0.6055396E+003  0.1241500E+03  0.7546771E-02  0.1236404E+00
         21   -1    0    0  504  501  0.00000000000E+00  0.00000000000E+00  0.16830436071E+02  0.16830436071E+02  0.00000000000E+00 0.  1.
         21   -1    0    0  503  502 -0.00000000000E+00 -0.00000000000E+00 -0.12269308984E+04  0.12269308984E+04  0.00000000000E+00 0.  1.
         21    1    1    2  503  501  0.10662123697E+03 -0.63601383916E+02 -0.29188591345E+03  0.31719175695E+03  0.00000000000E+00 0.  1.
         21    1    1    2  504  502 -0.10662123697E+03  0.63601383916E+02 -0.91821454893E+03  0.92656957756E+03  0.00000000000E+00 0.  1.
<mgrwt>
<rscale>  2 0.12415001E+03</rscale>
<asrwt>0</asrwt>
<pdfrwt beam="1">  1       21 0.25892970E-02 0.12415001E+03</pdfrwt>
<pdfrwt beam="2">  1       21 0.18875866E+00 0.12415001E+03</pdfrwt>
<totfact> 0.13317236E+05</totfact>
</mgrwt>
</event>
<event>
 4    1  0.6055396E+003  0.1250066E+03  0.7546771E-02  0.1235059E+00
         21   -1    0    0  502  501  0.00000000000E+00  0.00000000000E+00  0.10344677560E+03  0.10344677560E+03  0.00000000000E+00 0. -1.
         21   -1    0    0  504  502 -0.00000000000E+00 -0.00000000000E+00 -0.17504098041E+03  0.17504098041E+03  0.00000000000E+00 0.  1.
         21    1    1    2  503  501 -0.11898799882E+03 -0.38321243751E+02  0.15742425760E+02  0.12599399015E+03  0.00000000000E+00 0. -1.
         21    1    1    2  504  503  0.11898799882E+03  0.38321243751E+02 -0.87336630565E+02  0.15249376585E+03  0.00000000000E+00 0.  1.
<mgrwt>
<rscale>  2 0.12500665E+03</rscale>
<asrwt>0</asrwt>
<pdfrwt beam="1">  1       21 0.15914889E-01 0.12500665E+03</pdfrwt>
<pdfrwt beam="2">  1       21 0.26929382E-01 0.12500665E+03</pdfrwt>
<totfact> 0.46668990E+05</totfact>
</mgrwt>
</event>
<event>
 4    1  0.6055396E+003  0.1179274E+03  0.7546771E-02  0.1246556E+00
         21   -1    0    0  503  501  0.00000000000E+00  0.00000000000E+00  0.11652143374E+03  0.11652143374E+03  0.00000000000E+00 0. -1.
         21   -1    0    0  504  502 -0.00000000000E+00 -0.00000000000E+00 -0.31878895011E+03  0.31878895011E+03  0.00000000000E+00 0.  1.
         21    1    1    2  503  502 -0.41012660089E+02  0.11056595121E+03 -0.27328971980E+03  0.29764767563E+03  0.00000000000E+00 0.  1.
         21    1    1    2  504  501  0.41012660089E+02 -0.11056595121E+03  0.71022203434E+02  0.13766270823E+03  0.00000000000E+00 0. -1.
<mgrwt>
<rscale>  2 0.11792738E+03</rscale>
<asrwt>0</asrwt>
<pdfrwt beam="1">  1       21 0.17926375E-01 0.11792738E+03</pdfrwt>
<pdfrwt beam="2">  1       21 0.49044453E-01 0.11792738E+03</pdfrwt>
<totfact> 0.11536346E+05</totfact>
</mgrwt>
</event>
<event>
 4    1  0.6055396E+003  0.1586907E+03  0.7546771E-02  0.1190183E+00
         21   -1    0    0  504  501  0.00000000000E+00  0.00000000000E+00  0.18876989087E+03  0.18876989087E+03  0.00000000000E+00 0.  1.
         21   -1    0    0  503  502 -0.00000000000E+00 -0.00000000000E+00 -0.22360625419E+03  0.22360625419E+03  0.00000000000E+00 0.  1.
         21    1    1    2  503  501 -0.34792165313E+01  0.15865250830E+03  0.11353903450E+03  0.19512517955E+03  0.00000000000E+00 0.  1.
         21    1    1    2  504  502  0.34792165313E+01 -0.15865250830E+03 -0.14837539782E+03  0.21725096551E+03  0.00000000000E+00 0.  1.
<mgrwt>
<rscale>  2 0.15869065E+03</rscale>
<asrwt>0</asrwt>
<pdfrwt beam="1">  1       21 0.29041522E-01 0.15869065E+03</pdfrwt>
<pdfrwt beam="2">  1       21 0.34400962E-01 0.15869065E+03</pdfrwt>
<totfact> 0.93706519E+04</totfact>
</mgrwt>
</event>
<event>
 4    1  0.6055396E+003  0.1000152E+03  0.7546771E-02  0.1280264E+00
         21   -1    0    0  504  501  0.00000000000E+00  0.00000000000E+00  0.22606081974E+03  0.22606081974E+03  0.00000000000E+00 0.  1.
         21   -1    0    0  503  502 -0.00000000000E+00 -0.00000000000E+00 -0.49151245520E+02  0.49151245520E+02  0.00000000000E+00 0. -1.
         21    1    1    2  503  501 -0.74111943021E+02  0.67159889894E+02  0.44998275037E+02  0.10967167212E+03  0.00000000000E+00 0. -1.
         21    1    1    2  504  502  0.74111943021E+02 -0.67159889894E+02  0.13191129918E+03  0.16554039314E+03  0.00000000000E+00 0.  1.
<mgrwt>
<rscale>  2 0.10001515E+03</rscale>
<asrwt>0</asrwt>
<pdfrwt beam="1">  1       21 0.34778587E-01 0.10001515E+03</pdfrwt>
<pdfrwt beam="2">  1       21 0.75617302E-02 0.10001515E+03</pdfrwt>
<totfact> 0.10522391E+06</totfact>
</mgrwt>
</event>
<event>
 4    1  0.6055396E+003  0.1107990E+03  0.7546771E-02  0.1259097E+00
         21   -1    0    0  504  501  0.00000000000E+00  0.00000000000E+00  0.69210894322E+02  0.69210894322E+02  0.00000000000E+00 0.  1.
         21   -1    0    0  501  502 -0.00000000000E+00 -0.00000000000E+00 -0.24932023510E+03  0.24932023510E+03  0.00000000000E+00 0. -1.
         21    1    1    2  503  502  0.10374990390E+03  0.38889195160E+02 -0.17560830898E+03  0.20764077211E+03  0.00000000000E+00 0. -1.
         21    1    1    2  504  503 -0.10374990390E+03 -0.38889195160E+02 -0.45010318002E+01  0.11089035732E+03  0.00000000000E+00 0.  1.
<mgrwt>
<rscale>  2 0.11079897E+03</rscale>
<asrwt>0</asrwt>
<pdfrwt beam="1">  1       21 0.10647830E-01 0.11079897E+03</pdfrwt>
<pdfrwt beam="2">  1       21 0.38356959E-01 0.11079897E+03</pdfrwt>
<totfact> 0.48082422E+05</totfact>
</mgrwt>
</event>
<event>
 4    1  0.6055396E+003  0.1754831E+03  0.7546771E-02  0.1172247E+00
         21   -1    0    0  502  501  0.00000000000E+00  0.00000000000E+00  0.16434730884E+03  0.16434730884E+03  0.00000000000E+00 0. -1.
         21   -1    0    0  504  502 -0.00000000000E+00 -0.00000000000E+00 -0.25746374018E+03  0.25746374018E+03  0.00000000000E+00 0.  1.
         21    1    1    2  503  501 -0.64901421514E+02 -0.16304027464E+03  0.63483862502E+02  0.18661330732E+03  0.00000000000E+00 0. -1.
         21    1    1    2  504  503  0.64901421514E+02  0.16304027464E+03 -0.15660029384E+03  0.23519774170E+03  0.00000000000E+00 0.  1.
<mgrwt>
<rscale>  2 0.17548312E+03</rscale>
<asrwt>0</asrwt>
<pdfrwt beam="1">  1       21 0.25284201E-01 0.17548312E+03</pdfrwt>
<pdfrwt beam="2">  1       21 0.39609806E-01 0.17548312E+03</pdfrwt>
<totfact> 0.91686676E+04</totfact>
</mgrwt>
</event>
<event>
 4    1  0.6055396E+003  0.1116846E+03  0.7546771E-02  0.1257482E+00
         21   -1    0    0  503  501  0.00000000000E+00  0.00000000000E+00  0.14162960739E+03  0.14162960739E+03  0.00000000000E+00 0.  1.
         21   -1    0    0  504  502 -0.00000000000E+00 -0.00000000000E+00 -0.77226027354E+03  0.77226027354E+03  0.00000000000E+00 0.  1.
         21    1    1    2  503  502 -0.56417013094E+00 -0.11168321110E+03 -0.74541604707E+03  0.75373638705E+03  0.00000000000E+00 0.  1.
         21    1    1    2  504  501  0.56417013094E+00  0.11168321110E+03  0.11478538092E+03  0.16015349388E+03  0.00000000000E+00 0.  1.
<mgrwt>
<rscale>  2 0.11168464E+03</rscale>
<asrwt>0</asrwt>
<pdfrwt beam="1">  1       21 0.21789170E-01 0.11168464E+03</pdfrwt>
<pdfrwt beam="2">  1       21 0.11880928E+00 0.11168464E+03</pdfrwt>
<totfact> 0.11381750E+04</totfact>
</mgrwt>
</event>
<event>
 4    1  0.6055396E+003  0.1095658E+03  0.7546771E-02  0.1261376E+00
         21   -1    0    0  502  501  0.00000000000E+00  0.00000000000E+00  0.38569379561E+03  0.38569379561E+03  0.00000000000E+00 0. -1.
         21   -1    0    0  504  502 -0.00000000000E+00 -0.00000000000E+00 -0.20071691024E+03  0.20071691024E+03  0.00000000000E+00 0. -1.
         21    1    1    2  503  501 -0.72385039884E+02 -0.82250027010E+02  0.36200327650E+03  0.37822087877E+03  0.00000000000E+00 0. -1.
         21    1    1    2  504  503  0.72385039884E+02  0.82250027010E+02 -0.17702639113E+03  0.20818982707E+03  0.00000000000E+00 0. -1.
<mgrwt>
<rscale>  2 0.10956578E+03</rscale>
<asrwt>0</asrwt>
<pdfrwt beam="1">  1       21 0.59337507E-01 0.10956578E+03</pdfrwt>
<pdfrwt beam="2">  1       21 0.30879525E-01 0.10956578E+03</pdfrwt>
<totfact> 0.28163651E+04</totfact>
</mgrwt>
</event>
<event>
 4    1  0.6055396E+003  0.1361637E+03  0.7546771E-02  0.1218586E+00
         21   -1    0    0  504  501  0.00000000000E+00  0.00000000000E+00  0.16828648218E+02  0.16828648218E+02  0.00000000000E+00 0.  1.
         21   -1    0    0  503  502 -0.00000000000E+00 -0.00000000000E+00 -0.11713580575E+04  0.11713580575E+04  0.00000000000E+00 0.  1.
         21    1    1    2  503  501 -0.10689448441E+03 -0.84345188234E+02 -0.43241495309E+03  0.45334670312E+03  0.00000000000E+00 0.  1.
         21    1    1    2  504  502  0.10689448441E+03  0.84345188234E+02 -0.72211445619E+03  0.73484000260E+03  0.00000000000E+00 0.  1.
<mgrwt>
<rscale>  2 0.13616366E+03</rscale>
<asrwt>0</asrwt>
<pdfrwt beam="1">  1       21 0.25890225E-02 0.13616366E+03</pdfrwt>
<pdfrwt beam="2">  1       21 0.18020895E+00 0.13616366E+03</pdfrwt>
<totfact> 0.15055489E+05</totfact>
</mgrwt>
</event>
<event>
 4    1  0.6055396E+003  0.1395532E+03  0.7546771E-02  0.1213931E+00
         21   -1    0    0  504  501  0.00000000000E+00  0.00000000000E+00  0.11964536178E+02  0.11964536178E+02  0.00000000000E+00 0.  1.
         21   -1    0    0  503  502 -0.00000000000E+00 -0.00000000000E+00 -0.18321740382E+04  0.18321740382E+04  0.00000000000E+00 0.  1.
         21    1    1    2  503  501  0.98513052510E+02  0.98844682408E+02 -0.12181129274E+04  0.12260808280E+04  0.00000000000E+00 0.  1.
         21    1    1    2  504  502 -0.98513052510E+02 -0.98844682408E+02 -0.60209657466E+03  0.61805774647E+03  0.00000000000E+00 0.  1.
<mgrwt>
<rscale>  2 0.13955319E+03</rscale>
<asrwt>0</asrwt>
<pdfrwt beam="1">  1       21 0.18406976E-02 0.13955319E+03</pdfrwt>
<pdfrwt beam="2">  1       21 0.28187297E+00 0.13955319E+03</pdfrwt>
<totfact> 0.64176712E+04</totfact>
</mgrwt>
</event>
<event>
 4    1  0.6055396E+003  0.1079085E+03  0.7546771E-02  0.1264493E+00
         21   -1    0    0  502  501  0.00000000000E+00  0.00000000000E+00  0.13967994094E+03  0.13967994094E+03  0.00000000000E+00 0. -1.
         21   -1    0    0  503  502 -0.00000000000E+00 -0.00000000000E+00 -0.56025689919E+03  0.56025689919E+03  0.00000000000E+00 0. -1.
         21    1    1    2  503  504  0.63654599820E+02  0.87134000396E+02 -0.53317193818E+03  0.54398213001E+03  0.00000000000E+00 0. -1.
         21    1    1    2  504  501 -0.63654599820E+02 -0.87134000396E+02  0.11259497993E+03  0.15595471012E+03  0.00000000000E+00 0. -1.
<mgrwt>
<rscale>  2 0.10790849E+03</rscale>
<asrwt>0</asrwt>
<pdfrwt beam="1">  1       21 0.21489222E-01 0.10790849E+03</pdfrwt>
<pdfrwt beam="2">  1       21 0.86193368E-01 0.10790849E+03</pdfrwt>
<totfact> 0.24786666E+04</totfact>
</mgrwt>
</event>
<event>
 4    1  0.6055396E+003  0.1006479E+03  0.7546771E-02  0.1278939E+00
         21   -1    0    0  502  501  0.00000000000E+00  0.00000000000E+00  0.12968337847E+03  0.12968337847E+03  0.00000000000E+00 0.  1.
         21   -1    0    0  503  502 -0.00000000000E+00 -0.00000000000E+00 -0.45625200600E+03  0.45625200600E+03  0.00000000000E+00 0. -1.
         21    1    1    2  503  504 -0.54380712959E+02  0.84692055087E+02 -0.42999650130E+03  0.44161861064E+03  0.00000000000E+00 0. -1.
         21    1    1    2  504  501  0.54380712959E+02 -0.84692055087E+02  0.10342787376E+03  0.14431677383E+03  0.00000000000E+00 0.  1.
<mgrwt>
<rscale>  2 0.10064793E+03</rscale>
<asrwt>0</asrwt>
<pdfrwt beam="1">  1       21 0.19951289E-01 0.10064793E+03</pdfrwt>
<pdfrwt beam="2">  1       21 0.70192618E-01 0.10064793E+03</pdfrwt>
<totfact> 0.44993695E+04</totfact>
</mgrwt>
</event>
<event>
 4    1  0.6055396E+003  0.1614276E+03  0.7546771E-02  0.1187094E+00
         21   -1    0    0  503  501  0.00000000000E+00  0.00000000000E+00  0.34744724312E+02  0.34744724312E+02  0.00000000000E+00 0. -1.
         21   -1    0    0  504  502 -0.00000000000E+00 -0.00000000000E+00 -0.12957046228E+04  0.12957046228E+04  0.00000000000E+00 0. -1.
         21    1    1    2  503  502 -0.28689951160E+02 -0.15885769041E+03 -0.10621881661E+04  0.10743847445E+04  0.00000000000E+00 0. -1.
         21    1    1    2  504  501  0.28689951160E+02  0.15885769041E+03 -0.19877173245E+03  0.25606460263E+03  0.00000000000E+00 0. -1.
<mgrwt>
<rscale>  2 0.16142763E+03</rscale>
<asrwt>0</asrwt>
<pdfrwt beam="1">  1       21 0.53453436E-02 0.16142763E+03</pdfrwt>
<pdfrwt beam="2">  1       21 0.19933912E+00 0.16142763E+03</pdfrwt>
<totfact> 0.33319279E+04</totfact>
</mgrwt>
</event>
<event>
 4    1  0.6055396E+003  0.1027955E+03  0.7546771E-02  0.1274525E+00
         21   -1    0    0  504  501  0.00000000000E+00  0.00000000000E+00  0.14311436216E+03  0.14311436216E+03  0.00000000000E+00 0. -1.
         21   -1    0    0  503  502 -0.00000000000E+00 -0.00000000000E+00 -0.75542501940E+02  0.75542501940E+02  0.00000000000E+00 0. -1.
         21    1    1    2  503  501 -0.83644926290E+02  0.59753221625E+02  0.17351531311E+02  0.10424968502E+03  0.00000000000E+00 0. -1.
         21    1    1    2  504  502  0.83644926290E+02 -0.59753221625E+02  0.50220328909E+02  0.11440717908E+03  0.00000000000E+00 0. -1.
<mgrwt>
<rscale>  2 0.10279553E+03</rscale>
<asrwt>0</asrwt>
<pdfrwt beam="1">  1       21 0.22017594E-01 0.10279553E+03</pdfrwt>
<pdfrwt beam="2">  1       21 0.11621923E-01 0.10279553E+03</pdfrwt>
<totfact> 0.11921260E+06</totfact>
</mgrwt>
</event>
<event>
 4    1  0.6055396E+003  0.1148054E+03  0.7546771E-02  0.1251921E+00
         21   -1    0    0  502  501  0.00000000000E+00  0.00000000000E+00  0.11835666743E+03  0.11835666743E+03  0.00000000000E+00 0.  1.
         21   -1    0    0  503  502 -0.00000000000E+00 -0.00000000000E+00 -0.18337587933E+04  0.18337587933E+04  0.00000000000E+00 0. -1.
         21    1    1    2  503  504  0.43970388596E+02 -0.10605134402E+03 -0.18036575664E+04  0.18073076383E+04  0.00000000000E+00 0. -1.
         21    1    1    2  504  501 -0.43970388596E+02  0.10605134402E+03  0.88255440554E+02  0.14480782240E+03  0.00000000000E+00 0.  1.
<mgrwt>
<rscale>  2 0.11480541E+03</rscale>
<asrwt>0</asrwt>
<pdfrwt beam="1">  1       21 0.18208718E-01 0.11480541E+03</pdfrwt>
<pdfrwt beam="2">  1       21 0.28211674E+00 0.11480541E+03</pdfrwt>
<totfact> 0.13471103E+03</totfact>
</mgrwt>
</event>
<event>
 4    1  0.6055396E+003  0.1468111E+03  0.7546771E-02  0.1204447E+00
         21   -1    0    0  503  501  0.00000000000E+00  0.00000000000E+00  0.40942720131E+03  0.40942720131E+03  0.00000000000E+00 0. -1.
         21   -1    0    0  501  502 -0.00000000000E+00 -0.00000000000E+00 -0.24843275179E+03  0.24843275179E+03  0.00000000000E+00 0.  1.
         21    1    1    2  503  504 -0.13040330482E+03 -0.67442431901E+02  0.37250467552E+03  0.40039135457E+03  0.00000000000E+00 0. -1.
         21    1    1    2  504  502  0.13040330482E+03  0.67442431901E+02 -0.21151022600E+03  0.25746859854E+03  0.00000000000E+00 0.  1.
<mgrwt>
<rscale>  2 0.14681112E+03</rscale>
<asrwt>0</asrwt>
<pdfrwt beam="1">  1       21 0.62988800E-01 0.14681112E+03</pdfrwt>
<pdfrwt beam="2">  1       21 0.38220423E-01 0.14681112E+03</pdfrwt>
<totfact> 0.15882585E+04</totfact>
</mgrwt>
</event>
<event>
 4    1  0.6055396E+003  0.1325681E+03  0.7546771E-02  0.1223694E+00
         21   -1    0    0  504  501  0.00000000000E+00  0.00000000000E+00  0.13092160034E+02  0.13092160034E+02  0.00000000000E+00 0. -1.
         21   -1    0    0  503  502 -0.00000000000E+00 -0.00000000000E+00 -0.19603833918E+04  0.19603833918E+04  0.00000000000E+00 0. -1.
         21    1    1    2  503  501  0.13154654954E+03 -0.16425988187E+02 -0.41961219574E+03  0.44005534038E+03  0.00000000000E+00 0. -1.
         21    1    1    2  504  502 -0.13154654954E+03  0.16425988187E+02 -0.15276790360E+04  0.15334202115E+04  0.00000000000E+00 0. -1.
<mgrwt>
<rscale>  2 0.13256813E+03</rscale>
<asrwt>0</asrwt>
<pdfrwt beam="1">  1       21 0.20141784E-02 0.13256813E+03</pdfrwt>
<pdfrwt beam="2">  1       21 0.30159745E+00 0.13256813E+03</pdfrwt>
<totfact> 0.43289937E+04</totfact>
</mgrwt>
</event>
<event>
 4    1  0.6055396E+003  0.1098639E+03  0.7546771E-02  0.1260822E+00
         21   -1    0    0  502  501  0.00000000000E+00  0.00000000000E+00  0.17467491123E+03  0.17467491123E+03  0.00000000000E+00 0.  1.
         21   -1    0    0  503  502 -0.00000000000E+00 -0.00000000000E+00 -0.34672041694E+03  0.34672041694E+03  0.00000000000E+00 0.  1.
         21    1    1    2  503  504 -0.22914462275E+02  0.10744765896E+03 -0.31930031774E+03  0.33767257056E+03  0.00000000000E+00 0.  1.
         21    1    1    2  504  501  0.22914462275E+02 -0.10744765896E+03  0.14725481203E+03  0.18372275761E+03  0.00000000000E+00 0.  1.
<mgrwt>
<rscale>  2 0.10986388E+03</rscale>
<asrwt>0</asrwt>
<pdfrwt beam="1">  1       21 0.26873064E-01 0.10986388E+03</pdfrwt>
<pdfrwt beam="2">  1       21 0.53341602E-01 0.10986388E+03</pdfrwt>
<totfact> 0.45890822E+04</totfact>
</mgrwt>
</event>
<event>
 4    1  0.6055396E+003  0.1183281E+03  0.7546771E-02  0.1245881E+00
         21   -1    0    0  502  501  0.00000000000E+00  0.00000000000E+00  0.14052890575E+02  0.14052890575E+02  0.00000000000E+00 0.  1.
         21   -1    0    0  504  502 -0.00000000000E+00 -0.00000000000E+00 -0.11692707156E+04  0.11692707156E+04  0.00000000000E+00 0.  1.
         21    1    1    2  503  501 -0.11271164345E+02  0.11779011719E+03 -0.35007628664E+03  0.36953343194E+03  0.00000000000E+00 0.  1.
         21    1    1    2  504  503  0.11271164345E+02 -0.11779011719E+03 -0.80514153843E+03  0.81379017429E+03  0.00000000000E+00 0.  1.
<mgrwt>
<rscale>  2 0.11832815E+03</rscale>
<asrwt>0</asrwt>
<pdfrwt beam="1">  1       21 0.21619839E-02 0.11832815E+03</pdfrwt>
<pdfrwt beam="2">  1       21 0.17988774E+00 0.11832815E+03</pdfrwt>
<totfact> 0.20468920E+05</totfact>
</mgrwt>
</event>
<event>
 4    1  0.6055396E+003  0.1329326E+03  0.7546771E-02  0.1223168E+00
         21   -1    0    0  504  501  0.00000000000E+00  0.00000000000E+00  0.40013196599E+03  0.40013196599E+03  0.00000000000E+00 0.  1.
         21   -1    0    0  503  502 -0.00000000000E+00 -0.00000000000E+00 -0.57853597560E+03  0.57853597560E+03  0.00000000000E+00 0.  1.
         21    1    1    2  503  501  0.74919291184E+02  0.10980968403E+03 -0.55948836762E+03  0.57506373595E+03  0.00000000000E+00 0.  1.
         21    1    1    2  504  502 -0.74919291184E+02 -0.10980968403E+03  0.38108435800E+03  0.40360420564E+03  0.00000000000E+00 0.  1.
<mgrwt>
<rscale>  2 0.13293257E+03</rscale>
<asrwt>0</asrwt>
<pdfrwt beam="1">  1       21 0.61558764E-01 0.13293257E+03</pdfrwt>
<pdfrwt beam="2">  1       21 0.89005535E-01 0.13293257E+03</pdfrwt>
<totfact> 0.28026104E+03</totfact>
</mgrwt>
</event>
<event>
 4    1  0.6055396E+003  0.1078030E+03  0.7546771E-02  0.1264693E+00
         21   -1    0    0  504  501  0.00000000000E+00  0.00000000000E+00  0.10208050805E+03  0.10208050805E+03  0.00000000000E+00 0.  1.
         21   -1    0    0  503  502 -0.00000000000E+00 -0.00000000000E+00 -0.11585232422E+03  0.11585232422E+03  0.00000000000E+00 0.  1.
         21    1    1    2  503  501  0.10394303480E+03  0.28589199442E+02 -0.21224258483E+02  0.10987249863E+03  0.00000000000E+00 0.  1.
         21    1    1    2  504  502 -0.10394303480E+03 -0.28589199442E+02  0.74524423151E+01  0.10806033363E+03  0.00000000000E+00 0.  1.
<mgrwt>
<rscale>  2 0.10780305E+03</rscale>
<asrwt>0</asrwt>
<pdfrwt beam="1">  1       21 0.15704693E-01 0.10780305E+03</pdfrwt>
<pdfrwt beam="2">  1       21 0.17823435E-01 0.10780305E+03</pdfrwt>
<totfact> 0.10299017E+06</totfact>
</mgrwt>
</event>
<event>
 4    1  0.6055396E+003  0.1468677E+03  0.7546771E-02  0.1204376E+00
         21   -1    0    0  503  501  0.00000000000E+00  0.00000000000E+00  0.85300241009E+02  0.85300241009E+02  0.00000000000E+00 0. -1.
         21   -1    0    0  504  502 -0.00000000000E+00 -0.00000000000E+00 -0.38268712085E+03  0.38268712085E+03  0.00000000000E+00 0. -1.
         21    1    1    2  503  502  0.42921693019E+02 -0.14045585457E+03 -0.28497696280E+03  0.32059630088E+03  0.00000000000E+00 0. -1.
         21    1    1    2  504  501 -0.42921693019E+02  0.14045585457E+03 -0.12409917047E+02  0.14739106098E+03  0.00000000000E+00 0. -1.
<mgrwt>
<rscale>  2 0.14686769E+03</rscale>
<asrwt>0</asrwt>
<pdfrwt beam="1">  1       21 0.13123114E-01 0.14686769E+03</pdfrwt>
<pdfrwt beam="2">  1       21 0.58874941E-01 0.14686769E+03</pdfrwt>
<totfact> 0.13700087E+05</totfact>
</mgrwt>
</event>
<event>
 4    1  0.6055396E+003  0.1212949E+03  0.7546771E-02  0.1240976E+00
         21   -1    0    0  504  501  0.00000000000E+00  0.00000000000E+00  0.15464814987E+03  0.15464814987E+03  0.00000000000E+00 0.  1.
         21   -1    0    0  501  502 -0.00000000000E+00 -0.00000000000E+00 -0.27838527394E+03  0.27838527394E+03  0.00000000000E+00 0.  1.
         21    1    1    2  503  502 -0.11893820097E+03  0.23794123743E+02 -0.23753572111E+03  0.26671271956E+03  0.00000000000E+00 0.  1.
         21    1    1    2  504  503  0.11893820097E+03 -0.23794123743E+02  0.11379859704E+03  0.16632070425E+03  0.00000000000E+00 0.  1.
<mgrwt>
<rscale>  2 0.12129491E+03</rscale>
<asrwt>0</asrwt>
<pdfrwt beam="1">  1       21 0.23792023E-01 0.12129491E+03</pdfrwt>
<pdfrwt beam="2">  1       21 0.42828503E-01 0.12129491E+03</pdfrwt>
<totfact> 0.89855778E+04</totfact>
</mgrwt>
</event>
<event>
 4    1  0.6055396E+003  0.1491294E+03  0.7546771E-02  0.1201547E+00
         21   -1    0    0  502  501  0.00000000000E+00  0.00000000000E+00  0.71787400541E+03  0.71787400541E+03  0.00000000000E+00 0.  1.
         21   -1    0    0  504  502 -0.00000000000E+00 -0.00000000000E+00 -0.48925124572E+02  0.48925124572E+02  0.00000000000E+00 0. -1.
         21    1    1    2  503  501 -0.99286386280E+02  0.11127353277E+03  0.56667402117E+03  0.58596845638E+03  0.00000000000E+00 0.  1.
         21    1    1    2  504  503  0.99286386280E+02 -0.11127353277E+03  0.10227485966E+03  0.18083067360E+03  0.00000000000E+00 0. -1.
<mgrwt>
<rscale>  2 0.14912943E+03</rscale>
<asrwt>0</asrwt>
<pdfrwt beam="1">  1       21 0.11044215E+00 0.14912943E+03</pdfrwt>
<pdfrwt beam="2">  1       21 0.75269428E-02 0.14912943E+03</pdfrwt>
<totfact> 0.87999472E+04</totfact>
</mgrwt>
</event>
<event>
 4    1  0.6055396E+003  0.1102054E+03  0.7546771E-02  0.1260190E+00
         21   -1    0    0  502  501  0.00000000000E+00  0.00000000000E+00  0.95544042291E+03  0.95544042291E+03  0.00000000000E+00 0. -1.
         21   -1    0    0  503  502 -0.00000000000E+00 -0.00000000000E+00 -0.14730269471E+03  0.14730269471E+03  0.00000000000E+00 0.  1.
         21    1    1    2  503  504  0.48324325669E+01 -0.11009937328E+03 -0.12297540613E+03  0.16513078125E+03  0.00000000000E+00 0.  1.
         21    1    1    2  504  501 -0.48324325669E+01  0.11009937328E+03  0.93111313433E+03  0.93761233637E+03  0.00000000000E+00 0. -1.
<mgrwt>
<rscale>  2 0.11020537E+03</rscale>
<asrwt>0</asrwt>
<pdfrwt beam="1">  1       21 0.14699083E+00 0.11020537E+03</pdfrwt>
<pdfrwt beam="2">  1       21 0.22661954E-01 0.11020537E+03</pdfrwt>
<totfact> 0.62411185E+03</totfact>
</mgrwt>
</event>
<event>
 4    1  0.6055396E+003  0.1255276E+03  0.7546771E-02  0.1234247E+00
         21   -1    0    0  504  501  0.00000000000E+00  0.00000000000E+00  0.22972496926E+03  0.22972496926E+03  0.00000000000E+00 0.  1.
         21   -1    0    0  503  502 -0.00000000000E+00 -0.00000000000E+00 -0.82866029085E+02  0.82866029085E+02  0.00000000000E+00 0.  1.
         21    1    1    2  503  501  0.12552464366E+03 -0.86091380485E+00  0.85601577441E+01  0.12581913066E+03  0.00000000000E+00 0.  1.
         21    1    1    2  504  502 -0.12552464366E+03  0.86091380485E+00  0.13829878243E+03  0.18677186769E+03  0.00000000000E+00 0.  1.
<mgrwt>
<rscale>  2 0.12552760E+03</rscale>
<asrwt>0</asrwt>
<pdfrwt beam="1">  1       21 0.35342303E-01 0.12552760E+03</pdfrwt>
<pdfrwt beam="2">  1       21 0.12748620E-01 0.12552760E+03</pdfrwt>
<totfact> 0.41069317E+05</totfact>
</mgrwt>
</event>
<event>
 4    1  0.6055396E+003  0.1212971E+03  0.7546771E-02  0.1240972E+00
         21   -1    0    0  503  501  0.00000000000E+00  0.00000000000E+00  0.36361148320E+03  0.36361148320E+03  0.00000000000E+00 0.  1.
         21   -1    0    0  504  502 -0.00000000000E+00 -0.00000000000E+00 -0.46180892548E+02  0.46180892548E+02  0.00000000000E+00 0.  1.
         21    1    1    2  503  502  0.12120831698E+03 -0.46404865579E+01  0.86620811080E+02  0.14905084747E+03  0.00000000000E+00 0.  1.
         21    1    1    2  504  501 -0.12120831698E+03  0.46404865579E+01  0.23080977957E+03  0.26074152827E+03  0.00000000000E+00 0.  1.
<mgrwt>
<rscale>  2 0.12129712E+03</rscale>
<asrwt>0</asrwt>
<pdfrwt beam="1">  1       21 0.55940226E-01 0.12129712E+03</pdfrwt>
<pdfrwt beam="2">  1       21 0.71047529E-02 0.12129712E+03</pdfrwt>
<totfact> 0.44853298E+05</totfact>
</mgrwt>
</event>
<event>
 4    1  0.6055396E+003  0.1941611E+03  0.7546771E-02  0.1154761E+00
         21   -1    0    0  504  501  0.00000000000E+00  0.00000000000E+00  0.25018054557E+03  0.25018054557E+03  0.00000000000E+00 0.  1.
         21   -1    0    0  503  502 -0.00000000000E+00 -0.00000000000E+00 -0.17391089945E+03  0.17391089945E+03  0.00000000000E+00 0.  1.
         21    1    1    2  503  501  0.22322560743E+02  0.19287366861E+03 -0.39355755122E+02  0.19810962678E+03  0.00000000000E+00 0.  1.
         21    1    1    2  504  502 -0.22322560743E+02 -0.19287366861E+03  0.11562540125E+03  0.22598181824E+03  0.00000000000E+00 0.  1.
<mgrwt>
<rscale>  2 0.19416114E+03</rscale>
<asrwt>0</asrwt>
<pdfrwt beam="1">  1       21 0.38489315E-01 0.19416114E+03</pdfrwt>
<pdfrwt beam="2">  1       21 0.26755523E-01 0.19416114E+03</pdfrwt>
<totfact> 0.86523785E+04</totfact>
</mgrwt>
</event>
<event>
 4    1  0.6055396E+003  0.1010449E+03  0.7546771E-02  0.1278114E+00
         21   -1    0    0  503  501  0.00000000000E+00  0.00000000000E+00  0.13954257251E+03  0.13954257251E+03  0.00000000000E+00 0.  1.
         21   -1    0    0  504  502 -0.00000000000E+00 -0.00000000000E+00 -0.76518935645E+02  0.76518935645E+02  0.00000000000E+00 0.  1.
         21    1    1    2  503  502  0.11709835080E+02 -0.10036412617E+03  0.89053147630E+01  0.10143659443E+03  0.00000000000E+00 0.  1.
         21    1    1    2  504  501 -0.11709835080E+02  0.10036412617E+03  0.54118322097E+02  0.11462491372E+03  0.00000000000E+00 0.  1.
<mgrwt>
<rscale>  2 0.10104493E+03</rscale>
<asrwt>0</asrwt>
<pdfrwt beam="1">  1       21 0.21468088E-01 0.10104493E+03</pdfrwt>
<pdfrwt beam="2">  1       21 0.11772144E-01 0.10104493E+03</pdfrwt>
<totfact> 0.12209231E+06</totfact>
</mgrwt>
</event>
<event>
 4    1  0.6055396E+003  0.1004182E+03  0.7546771E-02  0.1279419E+00
         21   -1    0    0  503  501  0.00000000000E+00  0.00000000000E+00  0.88953232610E+03  0.88953232610E+03  0.00000000000E+00 0.  1.
         21   -1    0    0  501  502 -0.00000000000E+00 -0.00000000000E+00 -0.39254777006E+02  0.39254777006E+02  0.00000000000E+00 0. -1.
         21    1    1    2  503  504  0.51310904933E+02  0.86319240801E+02  0.81677909982E+03  0.82292886582E+03  0.00000000000E+00 0.  1.
         21    1    1    2  504  502 -0.51310904933E+02 -0.86319240801E+02  0.33498449273E+02  0.10585823729E+03  0.00000000000E+00 0. -1.
<mgrwt>
<rscale>  2 0.10041823E+03</rscale>
<asrwt>0</asrwt>
<pdfrwt beam="1">  1       21 0.13685111E+00 0.10041823E+03</pdfrwt>
<pdfrwt beam="2">  1       21 0.60391971E-02 0.10041823E+03</pdfrwt>
<totfact> 0.77848271E+04</totfact>
</mgrwt>
</event>
<event>
 4    1  0.6055396E+003  0.1026760E+03  0.7546771E-02  0.1274767E+00
         21   -1    0    0  503  501  0.00000000000E+00  0.00000000000E+00  0.97471092880E+02  0.97471092880E+02  0.00000000000E+00 0. -1.
         21   -1    0    0  504  502 -0.00000000000E+00 -0.00000000000E+00 -0.10900075698E+03  0.10900075698E+03  0.00000000000E+00 0. -1.
         21    1    1    2  503  502 -0.91289412368E+02  0.46995787708E+02  0.33081347006E+01  0.10272927834E+03  0.00000000000E+00 0. -1.
         21    1    1    2  504  501  0.91289412368E+02 -0.46995787708E+02 -0.14837798801E+02  0.10374257152E+03  0.00000000000E+00 0. -1.
<mgrwt>
<rscale>  2 0.10267600E+03</rscale>
<asrwt>0</asrwt>
<pdfrwt beam="1">  1       21 0.14995553E-01 0.10267600E+03</pdfrwt>
<pdfrwt beam="2">  1       21 0.16769347E-01 0.10267600E+03</pdfrwt>
<totfact> 0.12486857E+06</totfact>
</mgrwt>
</event>
<event>
 4    1  0.6055396E+003  0.1046989E+03  0.7546771E-02  0.1270714E+00
         21   -1    0    0  503  501  0.00000000000E+00  0.00000000000E+00  0.96993136462E+03  0.96993136462E+03  0.00000000000E+00 0.  1.
         21   -1    0    0  501  502 -0.00000000000E+00 -0.00000000000E+00 -0.12672922997E+02  0.12672922997E+02  0.00000000000E+00 0.  1.
         21    1    1    2  503  504  0.97467948967E+02 -0.38234302714E+02  0.64023838746E+03  0.64874267299E+03  0.00000000000E+00 0.  1.
         21    1    1    2  504  502 -0.97467948967E+02  0.38234302714E+02  0.31702005416E+03  0.33386161462E+03  0.00000000000E+00 0.  1.
<mgrwt>
<rscale>  2 0.10469892E+03</rscale>
<asrwt>0</asrwt>
<pdfrwt beam="1">  1       21 0.14922015E+00 0.10469892E+03</pdfrwt>
<pdfrwt beam="2">  1       21 0.19496812E-02 0.10469892E+03</pdfrwt>
<totfact> 0.39929228E+05</totfact>
</mgrwt>
</event>
<event>
 4    1  0.6055396E+003  0.1056296E+03  0.7546771E-02  0.1268884E+00
         21   -1    0    0  503  501  0.00000000000E+00  0.00000000000E+00  0.32393951171E+03  0.32393951171E+03  0.00000000000E+00 0.  1.
         21   -1    0    0  504  502 -0.00000000000E+00 -0.00000000000E+00 -0.79713218506E+02  0.79713218506E+02  0.00000000000E+00 0.  1.
         21    1    1    2  503  502  0.32468864482E+02 -0.10051563449E+03 -0.29982395332E+02  0.10980238598E+03  0.00000000000E+00 0.  1.
         21    1    1    2  504  501 -0.32468864482E+02  0.10051563449E+03  0.27420868854E+03  0.29385034424E+03  0.00000000000E+00 0.  1.
<mgrwt>
<rscale>  2 0.10562964E+03</rscale>
<asrwt>0</asrwt>
<pdfrwt beam="1">  1       21 0.49836847E-01 0.10562964E+03</pdfrwt>
<pdfrwt beam="2">  1       21 0.12263572E-01 0.10562964E+03</pdfrwt>
<totfact> 0.22156290E+05</totfact>
</mgrwt>
</event>
<event>
 4    1  0.6055396E+003  0.1167792E+03  0.7546771E-02  0.1248507E+00
         21   -1    0    0  503  501  0.00000000000E+00  0.00000000000E+00  0.83567630860E+03  0.83567630860E+03  0.00000000000E+00 0. -1.
         21   -1    0    0  504  502 -0.00000000000E+00 -0.00000000000E+00 -0.59076977033E+02  0.59076977033E+02  0.00000000000E+00 0.  1.
         21    1    1    2  503  502 -0.11591959818E+03  0.14143020861E+02  0.76890326509E+03  0.77772077852E+03  0.00000000000E+00 0. -1.
         21    1    1    2  504  501  0.11591959818E+03 -0.14143020861E+02  0.76960664751E+01  0.11703250711E+03  0.00000000000E+00 0.  1.
<mgrwt>
<rscale>  2 0.11677919E+03</rscale>
<asrwt>0</asrwt>
<pdfrwt beam="1">  1       21 0.12856558E+00 0.11677919E+03</pdfrwt>
<pdfrwt beam="2">  1       21 0.90887663E-02 0.11677919E+03</pdfrwt>
<totfact> 0.44678129E+04</totfact>
</mgrwt>
</event>
<event>
 4    1  0.6055396E+003  0.1070795E+03  0.7546771E-02  0.1266076E+00
         21   -1    0    0  503  501  0.00000000000E+00  0.00000000000E+00  0.27626670695E+03  0.27626670695E+03  0.00000000000E+00 0. -1.
         21   -1    0    0  504  502 -0.00000000000E+00 -0.00000000000E+00 -0.43095360648E+02  0.43095360648E+02  0.00000000000E+00 0. -1.
         21    1    1    2  503  502  0.33935996855E+02 -0.10155972102E+03  0.14727545395E+03  0.18208813293E+03  0.00000000000E+00 0. -1.
         21    1    1    2  504  501 -0.33935996855E+02  0.10155972102E+03  0.85895892352E+02  0.13727393467E+03  0.00000000000E+00 0. -1.
<mgrwt>
<rscale>  2 0.10707954E+03</rscale>
<asrwt>0</asrwt>
<pdfrwt beam="1">  1       21 0.42502569E-01 0.10707954E+03</pdfrwt>
<pdfrwt beam="2">  1       21 0.66300557E-02 0.10707954E+03</pdfrwt>
<totfact> 0.88625717E+05</totfact>
</mgrwt>
</event>
<event>
 4    1  0.6055396E+003  0.1178157E+03  0.7546771E-02  0.1246745E+00
         21   -1    0    0  502  501  0.00000000000E+00  0.00000000000E+00  0.51181442056E+03  0.51181442056E+03  0.00000000000E+00 0. -1.
         21   -1    0    0  504  502 -0.00000000000E+00 -0.00000000000E+00 -0.45666758352E+02  0.45666758352E+02  0.00000000000E+00 0. -1.
         21    1    1    2  503  501  0.97212397582E+02  0.66560436303E+02  0.41070985521E+03  0.42727406555E+03  0.00000000000E+00 0. -1.
         21    1    1    2  504  503 -0.97212397582E+02 -0.66560436303E+02  0.55437806991E+02  0.13020711336E+03  0.00000000000E+00 0. -1.
<mgrwt>
<rscale>  2 0.11781571E+03</rscale>
<asrwt>0</asrwt>
<pdfrwt beam="1">  1       21 0.78740676E-01 0.11781571E+03</pdfrwt>
<pdfrwt beam="2">  1       21 0.70256555E-02 0.11781571E+03</pdfrwt>
<totfact> 0.21888937E+05</totfact>
</mgrwt>
</event>
<event>
 4    1  0.6055396E+003  0.1199429E+03  0.7546771E-02  0.1243191E+00
         21   -1    0    0  504  501  0.00000000000E+00  0.00000000000E+00  0.11313336865E+03  0.11313336865E+03  0.00000000000E+00 0. -1.
         21   -1    0    0  501  502 -0.00000000000E+00 -0.00000000000E+00 -0.18064436637E+03  0.18064436637E+03  0.00000000000E+00 0. -1.
         21    1    1    2  503  502 -0.28299730634E+02  0.11655657594E+03 -0.11368008089E+03  0.16525577430E+03  0.00000000000E+00 0. -1.
         21    1    1    2  504  503  0.28299730634E+02 -0.11655657594E+03  0.46169083167E+02  0.12852196072E+03  0.00000000000E+00 0. -1.
<mgrwt>
<rscale>  2 0.11994295E+03</rscale>
<asrwt>0</asrwt>
<pdfrwt beam="1">  1       21 0.17405134E-01 0.11994295E+03</pdfrwt>
<pdfrwt beam="2">  1       21 0.27791441E-01 0.11994295E+03</pdfrwt>
<totfact> 0.37376294E+05</totfact>
</mgrwt>
</event>
<event>
 4    1  0.6055396E+003  0.1193785E+03  0.7546771E-02  0.1244126E+00
         21   -1    0    0  503  501  0.00000000000E+00  0.00000000000E+00  0.55680207762E+03  0.55680207762E+03  0.00000000000E+00 0. -1.
         21   -1    0    0  504  502 -0.00000000000E+00 -0.00000000000E+00 -0.65140530258E+02  0.65140530258E+02  0.00000000000E+00 0.  1.
         21    1    1    2  503  502  0.11937637422E+03 -0.71207579081E+00  0.35356975623E+01  0.11943084581E+03  0.00000000000E+00 0.  1.
         21    1    1    2  504  501 -0.11937637422E+03  0.71207579081E+00  0.48812584980E+03  0.50251176207E+03  0.00000000000E+00 0. -1.
<mgrwt>
<rscale>  2 0.11937850E+03</rscale>
<asrwt>0</asrwt>
<pdfrwt beam="1">  1       21 0.85661855E-01 0.11937850E+03</pdfrwt>
<pdfrwt beam="2">  1       21 0.10021620E-01 0.11937850E+03</pdfrwt>
<totfact> 0.98128863E+04</totfact>
</mgrwt>
</event>
<event>
 4    1  0.6055396E+003  0.1441367E+03  0.7546771E-02  0.1207869E+00
         21   -1    0    0  503  501  0.00000000000E+00  0.00000000000E+00  0.87663842821E+03  0.87663842821E+03  0.00000000000E+00 0. -1.
         21   -1    0    0  504  502 -0.00000000000E+00 -0.00000000000E+00 -0.32509508841E+02  0.32509508841E+02  0.00000000000E+00 0.  1.
         21    1    1    2  503  502 -0.11811881684E+03  0.82603496151E+02  0.65871177753E+03  0.67429711428E+03  0.00000000000E+00 0. -1.
         21    1    1    2  504  501  0.11811881684E+03 -0.82603496151E+02  0.18541714183E+03  0.23485082277E+03  0.00000000000E+00 0.  1.
<mgrwt>
<rscale>  2 0.14413671E+03</rscale>
<asrwt>0</asrwt>
<pdfrwt beam="1">  1       21 0.13486743E+00 0.14413671E+03</pdfrwt>
<pdfrwt beam="2">  1       21 0.50014636E-02 0.14413671E+03</pdfrwt>
<totfact> 0.10824738E+05</totfact>
</mgrwt>
</event>
<event>
 4    1  0.6055396E+003  0.1101368E+03  0.7546771E-02  0.1260317E+00
         21   -1    0    0  504  501  0.00000000000E+00  0.00000000000E+00  0.96480219687E+03  0.96480219687E+03  0.00000000000E+00 0. -1.
         21   -1    0    0  501  502 -0.00000000000E+00 -0.00000000000E+00 -0.16971755264E+04  0.16971755264E+04  0.00000000000E+00 0.  1.
         21    1    1    2  503  502  0.80077992567E+02 -0.75615083201E+02 -0.16922363876E+04  0.16958166520E+04  0.00000000000E+00 0.  1.
         21    1    1    2  504  503 -0.80077992567E+02  0.75615083201E+02  0.95986305799E+03  0.96616107135E+03  0.00000000000E+00 0. -1.
<mgrwt>
<rscale>  2 0.11013685E+03</rscale>
<asrwt>0</asrwt>
<pdfrwt beam="1">  1       21 0.14843111E+00 0.11013685E+03</pdfrwt>
<pdfrwt beam="2">  1       21 0.26110393E+00 0.11013685E+03</pdfrwt>
<totfact> 0.21440098E+01</totfact>
</mgrwt>
</event>
<event>
 4    1  0.6055396E+003  0.1312509E+03  0.7546771E-02  0.1225611E+00
         21   -1    0    0  503  501  0.00000000000E+00  0.00000000000E+00  0.36364234315E+02  0.36364234315E+02  0.00000000000E+00 0.  1.
         21   -1    0    0  501  502 -0.00000000000E+00 -0.00000000000E+00 -0.50322127992E+03  0.50322127992E+03  0.00000000000E+00 0.  1.
         21    1    1    2  503  504 -0.13124639982E+03 -0.10910637507E+01 -0.16811519432E+03  0.21328273828E+03  0.00000000000E+00 0.  1.
         21    1    1    2  504  502  0.13124639982E+03  0.10910637507E+01 -0.29874185129E+03  0.32630277596E+03  0.00000000000E+00 0.  1.
<mgrwt>
<rscale>  2 0.13125093E+03</rscale>
<asrwt>0</asrwt>
<pdfrwt beam="1">  1       21 0.55944981E-02 0.13125093E+03</pdfrwt>
<pdfrwt beam="2">  1       21 0.77418652E-01 0.13125093E+03</pdfrwt>
<totfact> 0.33357881E+05</totfact>
</mgrwt>
</event>
<event>
 4    1  0.6055396E+003  0.1126572E+03  0.7546771E-02  0.1255727E+00
         21   -1    0    0  503  501  0.00000000000E+00  0.00000000000E+00  0.26553866186E+03  0.26553866186E+03  0.00000000000E+00 0.  1.
         21   -1    0    0  501  502 -0.00000000000E+00 -0.00000000000E+00 -0.89807455949E+02  0.89807455949E+02  0.00000000000E+00 0.  1.
         21    1    1    2  503  504 -0.12905868804E+02 -0.11191556852E+03  0.20938618246E+03  0.23776927752E+03  0.00000000000E+00 0.  1.
         21    1    1    2  504  502  0.12905868804E+02  0.11191556852E+03 -0.33654976551E+02  0.11757684029E+03  0.00000000000E+00 0.  1.
<mgrwt>
<rscale>  2 0.11265725E+03</rscale>
<asrwt>0</asrwt>
<pdfrwt beam="1">  1       21 0.40852101E-01 0.11265725E+03</pdfrwt>
<pdfrwt beam="2">  1       21 0.13816532E-01 0.11265725E+03</pdfrwt>
<totfact> 0.26765007E+05</totfact>
</mgrwt>
</event>
<event>
 4    1  0.6055396E+003  0.1500014E+03  0.7546771E-02  0.1200471E+00
         21   -1    0    0  503  501  0.00000000000E+00  0.00000000000E+00  0.58988711559E+03  0.58988711559E+03  0.00000000000E+00 0.  1.
         21   -1    0    0  504  502 -0.00000000000E+00 -0.00000000000E+00 -0.65286865901E+02  0.65286865901E+02  0.00000000000E+00 0.  1.
         21    1    1    2  503  502  0.61913335225E+02 -0.13662783503E+03  0.51075437696E+02  0.15845859623E+03  0.00000000000E+00 0.  1.
         21    1    1    2  504  501 -0.61913335225E+02  0.13662783503E+03  0.47352481199E+03  0.49671538526E+03  0.00000000000E+00 0.  1.
<mgrwt>
<rscale>  2 0.15000142E+03</rscale>
<asrwt>0</asrwt>
<pdfrwt beam="1">  1       21 0.90751861E-01 0.15000142E+03</pdfrwt>
<pdfrwt beam="2">  1       21 0.10044134E-01 0.15000142E+03</pdfrwt>
<totfact> 0.84533924E+04</totfact>
</mgrwt>
</event>
<event>
 4    1  0.6055396E+003  0.1315444E+03  0.7546771E-02  0.1225182E+00
         21   -1    0    0  503  501  0.00000000000E+00  0.00000000000E+00  0.13409286102E+02  0.13409286102E+02  0.00000000000E+00 0. -1.
         21   -1    0    0  504  502 -0.00000000000E+00 -0.00000000000E+00 -0.13945624288E+04  0.13945624288E+04  0.00000000000E+00 0. -1.
         21    1    1    2  503  502  0.11293827773E+03 -0.67445262105E+02 -0.49821821173E+03  0.51529147524E+03  0.00000000000E+00 0. -1.
         21    1    1    2  504  501 -0.11293827773E+03  0.67445262105E+02 -0.88293493097E+03  0.89268023966E+03  0.00000000000E+00 0. -1.
<mgrwt>
<rscale>  2 0.13154436E+03</rscale>
<asrwt>0</asrwt>
<pdfrwt beam="1">  1       21 0.20629678E-02 0.13154436E+03</pdfrwt>
<pdfrwt beam="2">  1       21 0.21454799E+00 0.13154436E+03</pdfrwt>
<totfact> 0.13209032E+05</totfact>
</mgrwt>
</event>
<event>
 4    1  0.6055396E+003  0.1911743E+03  0.7546771E-02  0.1157406E+00
         21   -1    0    0  503  501  0.00000000000E+00  0.00000000000E+00  0.15244331483E+03  0.15244331483E+03  0.00000000000E+00 0.  1.
         21   -1    0    0  504  502 -0.00000000000E+00 -0.00000000000E+00 -0.26873624309E+03  0.26873624309E+03  0.00000000000E+00 0.  1.
         21    1    1    2  503  502 -0.16876192552E+03  0.89816671164E+02  0.11021135178E+02  0.19149174224E+03  0.00000000000E+00 0.  1.
         21    1    1    2  504  501  0.16876192552E+03 -0.89816671164E+02 -0.12731406343E+03  0.22968781568E+03  0.00000000000E+00 0.  1.
<mgrwt>
<rscale>  2 0.19117432E+03</rscale>
<asrwt>0</asrwt>
<pdfrwt beam="1">  1       21 0.23452818E-01 0.19117432E+03</pdfrwt>
<pdfrwt beam="2">  1       21 0.41344037E-01 0.19117432E+03</pdfrwt>
<totfact> 0.96418824E+04</totfact>
</mgrwt>
</event>
<event>
 4    1  0.6055396E+003  0.1342933E+03  0.7546771E-02  0.1221221E+00
         21   -1    0    0  504  501  0.00000000000E+00  0.00000000000E+00  0.21147718594E+03  0.21147718594E+03  0.00000000000E+00 0.  1.
         21   -1    0    0  503  502 -0.00000000000E+00 -0.00000000000E+00 -0.46427828936E+03  0.46427828936E+03  0.00000000000E+00 0. -1.
         21    1    1    2  503  501  0.10913559739E+03 -0.78256707998E+02 -0.43167414646E+03  0.45208103222E+03  0.00000000000E+00 0. -1.
         21    1    1    2  504  502 -0.10913559739E+03  0.78256707998E+02  0.17887304304E+03  0.22367444309E+03  0.00000000000E+00 0.  1.
<mgrwt>
<rscale>  2 0.13429330E+03</rscale>
<asrwt>0</asrwt>
<pdfrwt beam="1">  1       21 0.32534952E-01 0.13429330E+03</pdfrwt>
<pdfrwt beam="2">  1       21 0.71427429E-01 0.13429330E+03</pdfrwt>
<totfact> 0.16760133E+04</totfact>
</mgrwt>
</event>
<event>
 4    1  0.6055396E+003  0.1285411E+03  0.7546771E-02  0.1229637E+00
         21   -1    0    0  502  501  0.00000000000E+00  0.00000000000E+00  0.10012451275E+03  0.10012451275E+03  0.00000000000E+00 0.  1.
         21   -1    0    0  503  502 -0.00000000000E+00 -0.00000000000E+00 -0.17256392091E+03  0.17256392091E+03  0.00000000000E+00 0.  1.
         21    1    1    2  503  504 -0.11198600586E+03  0.63102677344E+02 -0.64722253900E+02  0.14391589053E+03  0.00000000000E+00 0.  1.
         21    1    1    2  504  501  0.11198600586E+03 -0.63102677344E+02 -0.77171542684E+01  0.12877254314E+03  0.00000000000E+00 0.  1.
<mgrwt>
<rscale>  2 0.12854110E+03</rscale>
<asrwt>0</asrwt>
<pdfrwt beam="1">  1       21 0.15403771E-01 0.12854110E+03</pdfrwt>
<pdfrwt beam="2">  1       21 0.26548296E-01 0.12854110E+03</pdfrwt>
<totfact> 0.50854434E+05</totfact>
</mgrwt>
</event>
<event>
 4    1  0.6055396E+003  0.1195267E+03  0.7546771E-02  0.1243880E+00
         21   -1    0    0  504  501  0.00000000000E+00  0.00000000000E+00  0.13580558189E+03  0.13580558189E+03  0.00000000000E+00 0. -1.
         21   -1    0    0  501  502 -0.00000000000E+00 -0.00000000000E+00 -0.16365272792E+03  0.16365272792E+03  0.00000000000E+00 0.  1.
         21    1    1    2  503  502 -0.56535837231E+02  0.10531064811E+03 -0.10340857490E+03  0.15805051996E+03  0.00000000000E+00 0.  1.
         21    1    1    2  504  503  0.56535837231E+02 -0.10531064811E+03  0.75561428868E+02  0.14140778985E+03  0.00000000000E+00 0. -1.
<mgrwt>
<rscale>  2 0.11952671E+03</rscale>
<asrwt>0</asrwt>
<pdfrwt beam="1">  1       21 0.20893167E-01 0.11952671E+03</pdfrwt>
<pdfrwt beam="2">  1       21 0.25177343E-01 0.11952671E+03</pdfrwt>
<totfact> 0.32233300E+05</totfact>
</mgrwt>
</event>
<event>
 4    1  0.6055396E+003  0.1090714E+03  0.7546771E-02  0.1262299E+00
         21   -1    0    0  502  501  0.00000000000E+00  0.00000000000E+00  0.56758092633E+03  0.56758092633E+03  0.00000000000E+00 0.  1.
         21   -1    0    0  504  502 -0.00000000000E+00 -0.00000000000E+00 -0.27303791162E+02  0.27303791162E+02  0.00000000000E+00 0.  1.
         21    1    1    2  503  501  0.70248661177E+02  0.83436729751E+02  0.41350972620E+03  0.42765272819E+03  0.00000000000E+00 0.  1.
         21    1    1    2  504  503 -0.70248661177E+02 -0.83436729751E+02  0.12676740897E+03  0.16723198930E+03  0.00000000000E+00 0.  1.
<mgrwt>
<rscale>  2 0.10907136E+03</rscale>
<asrwt>0</asrwt>
<pdfrwt beam="1">  1       21 0.87320134E-01 0.10907136E+03</pdfrwt>
<pdfrwt beam="2">  1       21 0.42005837E-02 0.10907136E+03</pdfrwt>
<totfact> 0.41317286E+05</totfact>
</mgrwt>
</event>
<event>
 4    1  0.6055396E+003  0.1173857E+03  0.7546771E-02  0.1247473E+00
         21   -1    0    0  502  501  0.00000000000E+00  0.00000000000E+00  0.30707132332E+03  0.30707132332E+03  0.00000000000E+00 0. -1.
         21   -1    0    0  503  502 -0.00000000000E+00 -0.00000000000E+00 -0.10072765541E+03  0.10072765541E+03  0.00000000000E+00 0. -1.
         21    1    1    2  503  504 -0.11548069127E+03  0.21061894527E+02 -0.48662210333E+02  0.12707243671E+03  0.00000000000E+00 0. -1.
         21    1    1    2  504  501  0.11548069127E+03 -0.21061894527E+02  0.25500587824E+03  0.28072654202E+03  0.00000000000E+00 0. -1.
<mgrwt>
<rscale>  2 0.11738566E+03</rscale>
<asrwt>0</asrwt>
<pdfrwt beam="1">  1       21 0.47241742E-01 0.11738566E+03</pdfrwt>
<pdfrwt beam="2">  1       21 0.15496563E-01 0.11738566E+03</pdfrwt>
<totfact> 0.16225002E+05</totfact>
</mgrwt>
</event>
<event>
 4    1  0.6055396E+003  0.1189810E+03  0.7546771E-02  0.1244788E+00
         21   -1    0    0  502  501  0.00000000000E+00  0.00000000000E+00  0.10989139360E+03  0.10989139360E+03  0.00000000000E+00 0. -1.
         21   -1    0    0  503  502 -0.00000000000E+00 -0.00000000000E+00 -0.17371106531E+03  0.17371106531E+03  0.00000000000E+00 0.  1.
         21    1    1    2  503  504  0.10402451164E+03  0.57752700885E+02 -0.10399312286E+03  0.15802228667E+03  0.00000000000E+00 0.  1.
         21    1    1    2  504  501 -0.10402451164E+03 -0.57752700885E+02  0.40173451162E+02  0.12558017224E+03  0.00000000000E+00 0. -1.
<mgrwt>
<rscale>  2 0.11898098E+03</rscale>
<asrwt>0</asrwt>
<pdfrwt beam="1">  1       21 0.16906368E-01 0.11898098E+03</pdfrwt>
<pdfrwt beam="2">  1       21 0.26724779E-01 0.11898098E+03</pdfrwt>
<totfact> 0.42459433E+05</totfact>
</mgrwt>
</event>
<event>
 4    1  0.6055396E+003  0.1715102E+03  0.7546771E-02  0.1176282E+00
         21   -1    0    0  503  501  0.00000000000E+00  0.00000000000E+00  0.60742055259E+02  0.60742055259E+02  0.00000000000E+00 0.  1.
         21   -1    0    0  504  502 -0.00000000000E+00 -0.00000000000E+00 -0.50515315337E+03  0.50515315337E+03  0.00000000000E+00 0.  1.
         21    1    1    2  503  502  0.97510922506E+02  0.14109343911E+03 -0.16467995440E+03  0.23777137327E+03  0.00000000000E+00 0.  1.
         21    1    1    2  504  501 -0.97510922506E+02 -0.14109343911E+03 -0.27973114371E+03  0.32812383535E+03  0.00000000000E+00 0.  1.
<mgrwt>
<rscale>  2 0.17151017E+03</rscale>
<asrwt>0</asrwt>
<pdfrwt beam="1">  1       21 0.93449316E-02 0.17151017E+03</pdfrwt>
<pdfrwt beam="2">  1       21 0.77715870E-01 0.17151017E+03</pdfrwt>
<totfact> 0.13526990E+05</totfact>
</mgrwt>
</event>
<event>
 4    1  0.6055396E+003  0.1037950E+03  0.7546771E-02  0.1272512E+00
         21   -1    0    0  503  501  0.00000000000E+00  0.00000000000E+00  0.11627738778E+03  0.11627738778E+03  0.00000000000E+00 0. -1.
         21   -1    0    0  504  502 -0.00000000000E+00 -0.00000000000E+00 -0.50397819285E+03  0.50397819285E+03  0.00000000000E+00 0.  1.
         21    1    1    2  503  502  0.98827702608E+02  0.31725319623E+02  0.86323474759E+02  0.13500056667E+03  0.00000000000E+00 0. -1.
         21    1    1    2  504  501 -0.98827702608E+02 -0.31725319623E+02 -0.47402427982E+03  0.48525501396E+03  0.00000000000E+00 0.  1.
<mgrwt>
<rscale>  2 0.10379504E+03</rscale>
<asrwt>0</asrwt>
<pdfrwt beam="1">  1       21 0.17888829E-01 0.10379504E+03</pdfrwt>
<pdfrwt beam="2">  1       21 0.77535107E-01 0.10379504E+03</pdfrwt>
<totfact> 0.44088855E+04</totfact>
</mgrwt>
</event>
<event>
 4    1  0.6055396E+003  0.1155230E+03  0.7546771E-02  0.1250671E+00
         21   -1    0    0  504  501  0.00000000000E+00  0.00000000000E+00  0.59779113119E+02  0.59779113119E+02  0.00000000000E+00 0.  1.
         21   -1    0    0  503  502 -0.00000000000E+00 -0.00000000000E+00 -0.33014389269E+03  0.33014389269E+03  0.00000000000E+00 0.  1.
         21    1    1    2  503  501 -0.67681224859E+02  0.93620628629E+02 -0.24611970269E+03  0.27188320720E+03  0.00000000000E+00 0.  1.
         21    1    1    2  504  502  0.67681224859E+02 -0.93620628629E+02 -0.24245076880E+02  0.11803979861E+03  0.00000000000E+00 0.  1.
<mgrwt>
<rscale>  2 0.11552303E+03</rscale>
<asrwt>0</asrwt>
<pdfrwt beam="1">  1       21 0.91967866E-02 0.11552303E+03</pdfrwt>
<pdfrwt beam="2">  1       21 0.50791368E-01 0.11552303E+03</pdfrwt>
<totfact> 0.35180979E+05</totfact>
</mgrwt>
</event>
<event>
 4    1  0.6055396E+003  0.1673640E+03  0.7546771E-02  0.1180625E+00
         21   -1    0    0  504  501  0.00000000000E+00  0.00000000000E+00  0.78122790398E+02  0.78122790398E+02  0.00000000000E+00 0.  1.
         21   -1    0    0  503  502 -0.00000000000E+00 -0.00000000000E+00 -0.38382041595E+03  0.38382041595E+03  0.00000000000E+00 0. -1.
         21    1    1    2  503  501 -0.10543263703E+03  0.12997949395E+03 -0.21211740094E+03  0.27019345214E+03  0.00000000000E+00 0. -1.
         21    1    1    2  504  502  0.10543263703E+03 -0.12997949395E+03 -0.93580224618E+02  0.19174975421E+03  0.00000000000E+00 0.  1.
<mgrwt>
<rscale>  2 0.16736400E+03</rscale>
<asrwt>0</asrwt>
<pdfrwt beam="1">  1       21 0.12018890E-01 0.16736400E+03</pdfrwt>
<pdfrwt beam="2">  1       21 0.59049297E-01 0.16736400E+03</pdfrwt>
<totfact> 0.15823387E+05</totfact>
</mgrwt>
</event>
<event>
 4    1  0.6055396E+003  0.1031892E+03  0.7546771E-02  0.1273729E+00
         21   -1    0    0  504  501  0.00000000000E+00  0.00000000000E+00  0.55247336388E+02  0.55247336388E+02  0.00000000000E+00 0. -1.
         21   -1    0    0  503  502 -0.00000000000E+00 -0.00000000000E+00 -0.21408834868E+03  0.21408834868E+03  0.00000000000E+00 0. -1.
         21    1    1    2  503  501 -0.10043227655E+03 -0.23693090524E+02 -0.12195263007E+03  0.15975120873E+03  0.00000000000E+00 0. -1.
         21    1    1    2  504  502  0.10043227655E+03  0.23693090524E+02 -0.36888382227E+02  0.10958447634E+03  0.00000000000E+00 0. -1.
<mgrwt>
<rscale>  2 0.10318917E+03</rscale>
<asrwt>0</asrwt>
<pdfrwt beam="1">  1       21 0.84995902E-02 0.10318917E+03</pdfrwt>
<pdfrwt beam="2">  1       21 0.32936669E-01 0.10318917E+03</pdfrwt>
<totfact> 0.95770235E+05</totfact>
</mgrwt>
</event>
<event>
 4    1  0.6055396E+003  0.1022374E+03  0.7546771E-02  0.1275660E+00
         21   -1    0    0  503  501  0.00000000000E+00  0.00000000000E+00  0.69251512135E+03  0.69251512135E+03  0.00000000000E+00 0.  1.
         21   -1    0    0  504  502 -0.00000000000E+00 -0.00000000000E+00 -0.64541594002E+02  0.64541594002E+02  0.00000000000E+00 0.  1.
         21    1    1    2  503  502 -0.10027744135E+03  0.19922618644E+02  0.64531111885E+03  0.65335971416E+03  0.00000000000E+00 0.  1.
         21    1    1    2  504  501  0.10027744135E+03 -0.19922618644E+02 -0.17337591496E+02  0.10369700120E+03  0.00000000000E+00 0.  1.
<mgrwt>
<rscale>  2 0.10223735E+03</rscale>
<asrwt>0</asrwt>
<pdfrwt beam="1">  1       21 0.10654078E+00 0.10223735E+03</pdfrwt>
<pdfrwt beam="2">  1       21 0.99294765E-02 0.10223735E+03</pdfrwt>
<totfact> 0.60887224E+04</totfact>
</mgrwt>
</event>
<event>
 4    1  0.6055396E+003  0.1030500E+03  0.7546771E-02  0.1274010E+00
         21   -1    0    0  503  501  0.00000000000E+00  0.00000000000E+00  0.75546816615E+02  0.75546816615E+02  0.00000000000E+00 0.  1.
         21   -1    0    0  504  502 -0.00000000000E+00 -0.00000000000E+00 -0.14813387880E+03  0.14813387880E+03  0.00000000000E+00 0.  1.
         21    1    1    2  503  502  0.29672268141E+02  0.98685608214E+02 -0.61572909648E+02  0.12004380854E+03  0.00000000000E+00 0.  1.
         21    1    1    2  504  501 -0.29672268141E+02 -0.98685608214E+02 -0.11014152534E+02  0.10363688688E+03  0.00000000000E+00 0.  1.
<mgrwt>
<rscale>  2 0.10304995E+03</rscale>
<asrwt>0</asrwt>
<pdfrwt beam="1">  1       21 0.11622587E-01 0.10304995E+03</pdfrwt>
<pdfrwt beam="2">  1       21 0.22789828E-01 0.10304995E+03</pdfrwt>
<totfact> 0.11181248E+06</totfact>
</mgrwt>
</event>
<event>
 4    1  0.6055396E+003  0.2285016E+03  0.7546771E-02  0.1127699E+00
         21   -1    0    0  504  501  0.00000000000E+00  0.00000000000E+00  0.12965911926E+04  0.12965911926E+04  0.00000000000E+00 0. -1.
         21   -1    0    0  503  502 -0.00000000000E+00 -0.00000000000E+00 -0.38795716252E+03  0.38795716252E+03  0.00000000000E+00 0. -1.
         21    1    1    2  503  501  0.18909330676E+02  0.22771789102E+03  0.12516803781E+04  0.12723666019E+04  0.00000000000E+00 0. -1.
         21    1    1    2  504  502 -0.18909330676E+02 -0.22771789102E+03 -0.34304634811E+03  0.41218175315E+03  0.00000000000E+00 0. -1.
<mgrwt>
<rscale>  2 0.22850164E+03</rscale>
<asrwt>0</asrwt>
<pdfrwt beam="1">  1       21 0.19947557E+00 0.22850164E+03</pdfrwt>
<pdfrwt beam="2">  1       21 0.59685718E-01 0.22850164E+03</pdfrwt>
<totfact> 0.33989350E+02</totfact>
</mgrwt>
</event>
<event>
 4    1  0.6055396E+003  0.1061980E+03  0.7546771E-02  0.1267777E+00
         21   -1    0    0  504  501  0.00000000000E+00  0.00000000000E+00  0.12126320043E+03  0.12126320043E+03  0.00000000000E+00 0. -1.
         21   -1    0    0  503  502 -0.00000000000E+00 -0.00000000000E+00 -0.12804562161E+03  0.12804562161E+03  0.00000000000E+00 0.  1.
         21    1    1    2  503  501  0.34712738177E+01 -0.10614124062E+03 -0.68601304687E+02  0.12642844501E+03  0.00000000000E+00 0.  1.
         21    1    1    2  504  502 -0.34712738177E+01  0.10614124062E+03  0.61818883504E+02  0.12288037703E+03  0.00000000000E+00 0. -1.
<mgrwt>
<rscale>  2 0.10619799E+03</rscale>
<asrwt>0</asrwt>
<pdfrwt beam="1">  1       21 0.18655877E-01 0.10619799E+03</pdfrwt>
<pdfrwt beam="2">  1       21 0.19699326E-01 0.10619799E+03</pdfrwt>
<totfact> 0.62755430E+05</totfact>
</mgrwt>
</event>
<event>
 4    1  0.6055396E+003  0.1223477E+03  0.7546771E-02  0.1239274E+00
         21   -1    0    0  503  501  0.00000000000E+00  0.00000000000E+00  0.15767291358E+02  0.15767291358E+02  0.00000000000E+00 0. -1.
         21   -1    0    0  504  502 -0.00000000000E+00 -0.00000000000E+00 -0.95721457365E+03  0.95721457365E+03  0.00000000000E+00 0. -1.
         21    1    1    2  503  502  0.11017028096E+03  0.53211444246E+02 -0.51477237142E+03  0.52911203254E+03  0.00000000000E+00 0. -1.
         21    1    1    2  504  501 -0.11017028096E+03 -0.53211444246E+02 -0.42667491087E+03  0.44386983246E+03  0.00000000000E+00 0. -1.
<mgrwt>
<rscale>  2 0.12234765E+03</rscale>
<asrwt>0</asrwt>
<pdfrwt beam="1">  1       21 0.24257374E-02 0.12234765E+03</pdfrwt>
<pdfrwt beam="2">  1       21 0.14726376E+00 0.12234765E+03</pdfrwt>
<totfact> 0.28858528E+05</totfact>
</mgrwt>
</event>
<event>
 4    1  0.6055396E+003  0.1204348E+03  0.7546771E-02  0.1242381E+00
         21   -1    0    0  503  501  0.00000000000E+00  0.00000000000E+00  0.84504091014E+02  0.84504091014E+02  0.00000000000E+00 0. -1.
         21   -1    0    0  504  502 -0.00000000000E+00 -0.00000000000E+00 -0.17177017767E+03  0.17177017767E+03  0.00000000000E+00 0.  1.
         21    1    1    2  503  502 -0.16222737470E+01 -0.12042390886E+03 -0.40148663735E+02  0.12695063921E+03  0.00000000000E+00 0. -1.
         21    1    1    2  504  501  0.16222737470E+01  0.12042390886E+03 -0.47117422922E+02  0.12932362947E+03  0.00000000000E+00 0.  1.
<mgrwt>
<rscale>  2 0.12043484E+03</rscale>
<asrwt>0</asrwt>
<pdfrwt beam="1">  1       21 0.13000630E-01 0.12043484E+03</pdfrwt>
<pdfrwt beam="2">  1       21 0.26426181E-01 0.12043484E+03</pdfrwt>
<totfact> 0.69550235E+05</totfact>
</mgrwt>
</event>
<event>
 4    1  0.6055396E+003  0.1056588E+03  0.7546771E-02  0.1268827E+00
         21   -1    0    0  503  501  0.00000000000E+00  0.00000000000E+00  0.38081413331E+03  0.38081413331E+03  0.00000000000E+00 0.  1.
         21   -1    0    0  504  502 -0.00000000000E+00 -0.00000000000E+00 -0.33178343019E+02  0.33178343019E+02  0.00000000000E+00 0.  1.
         21    1    1    2  503  502  0.10306783931E+03  0.23255347086E+02  0.10318880274E+03  0.14768791311E+03  0.00000000000E+00 0.  1.
         21    1    1    2  504  501 -0.10306783931E+03 -0.23255347086E+02  0.24444698756E+03  0.26630456322E+03  0.00000000000E+00 0.  1.
<mgrwt>
<rscale>  2 0.10565884E+03</rscale>
<asrwt>0</asrwt>
<pdfrwt beam="1">  1       21 0.58586787E-01 0.10565884E+03</pdfrwt>
<pdfrwt beam="2">  1       21 0.51043607E-02 0.10565884E+03</pdfrwt>
<totfact> 0.71257583E+05</totfact>
</mgrwt>
</event>
<event>
 4    1  0.6055396E+003  0.1047048E+03  0.7546771E-02  0.1270702E+00
         21   -1    0    0  503  501  0.00000000000E+00  0.00000000000E+00  0.11264739233E+04  0.11264739233E+04  0.00000000000E+00 0. -1.
         21   -1    0    0  504  502 -0.00000000000E+00 -0.00000000000E+00 -0.45558823748E+02  0.45558823748E+02  0.00000000000E+00 0. -1.
         21    1    1    2  503  502 -0.97100119427E+02  0.39174723360E+02  0.20789138116E+02  0.10674867871E+03  0.00000000000E+00 0. -1.
         21    1    1    2  504  501  0.97100119427E+02 -0.39174723360E+02  0.10601259614E+04  0.10652840683E+04  0.00000000000E+00 0. -1.
<mgrwt>
<rscale>  2 0.10470479E+03</rscale>
<asrwt>0</asrwt>
<pdfrwt beam="1">  1       21 0.17330366E+00 0.10470479E+03</pdfrwt>
<pdfrwt beam="2">  1       21 0.70090507E-02 0.10470479E+03</pdfrwt>
<totfact> 0.32687725E+04</totfact>
</mgrwt>
</event>
<event>
 4    1  0.6055396E+003  0.2326620E+03  0.7546771E-02  0.1124780E+00
         21   -1    0    0  503  501  0.00000000000E+00  0.00000000000E+00  0.79512610810E+03  0.79512610810E+03  0.00000000000E+00 0. -1.
         21   -1    0    0  501  502 -0.00000000000E+00 -0.00000000000E+00 -0.19870242197E+03  0.19870242197E+03  0.00000000000E+00 0. -1.
         21    1    1    2  503  504 -0.66875734731E+02  0.22284350248E+03  0.70110509540E+03  0.73870152652E+03  0.00000000000E+00 0. -1.
         21    1    1    2  504  502  0.66875734731E+02 -0.22284350248E+03 -0.10468140927E+03  0.25512700355E+03  0.00000000000E+00 0. -1.
<mgrwt>
<rscale>  2 0.23266197E+03</rscale>
<asrwt>0</asrwt>
<pdfrwt beam="1">  1       21 0.12232709E+00 0.23266197E+03</pdfrwt>
<pdfrwt beam="2">  1       21 0.30569604E-01 0.23266197E+03</pdfrwt>
<totfact> 0.50169579E+03</totfact>
</mgrwt>
</event>
<event>
 4    1  0.6055396E+003  0.1055836E+03  0.7546771E-02  0.1268974E+00
         21   -1    0    0  502  501  0.00000000000E+00  0.00000000000E+00  0.58310904433E+03  0.58310904433E+03  0.00000000000E+00 0.  1.
         21   -1    0    0  503  502 -0.00000000000E+00 -0.00000000000E+00 -0.19978709224E+02  0.19978709224E+02  0.00000000000E+00 0.  1.
         21    1    1    2  503  504 -0.73896524727E+02  0.75413468633E+02  0.21897715296E+03  0.24310261442E+03  0.00000000000E+00 0.  1.
         21    1    1    2  504  501  0.73896524727E+02 -0.75413468633E+02  0.34415318215E+03  0.35998513914E+03  0.00000000000E+00 0.  1.
<mgrwt>
<rscale>  2 0.10558356E+03</rscale>
<asrwt>0</asrwt>
<pdfrwt beam="1">  1       21 0.89709071E-01 0.10558356E+03</pdfrwt>
<pdfrwt beam="2">  1       21 0.30736480E-02 0.10558356E+03</pdfrwt>
<totfact> 0.65009059E+05</totfact>
</mgrwt>
</event>
<event>
 4    1  0.6055396E+003  0.1006439E+03  0.7546771E-02  0.1278948E+00
         21   -1    0    0  503  501  0.00000000000E+00  0.00000000000E+00  0.26215271778E+03  0.26215271778E+03  0.00000000000E+00 0.  1.
         21   -1    0    0  504  502 -0.00000000000E+00 -0.00000000000E+00 -0.44163601100E+02  0.44163601100E+02  0.00000000000E+00 0.  1.
         21    1    1    2  503  502  0.65621328871E+02  0.76308865073E+02  0.16316669049E+03  0.19170959959E+03  0.00000000000E+00 0.  1.
         21    1    1    2  504  501 -0.65621328871E+02 -0.76308865073E+02  0.54822426191E+02  0.11460671928E+03  0.00000000000E+00 0.  1.
<mgrwt>
<rscale>  2 0.10064394E+03</rscale>
<asrwt>0</asrwt>
<pdfrwt beam="1">  1       21 0.40331187E-01 0.10064394E+03</pdfrwt>
<pdfrwt beam="2">  1       21 0.67944003E-02 0.10064394E+03</pdfrwt>
<totfact> 0.94335004E+05</totfact>
</mgrwt>
</event>
<event>
 4    1  0.6055396E+003  0.1019113E+03  0.7546771E-02  0.1276327E+00
         21   -1    0    0  504  501  0.00000000000E+00  0.00000000000E+00  0.14120931018E+03  0.14120931018E+03  0.00000000000E+00 0. -1.
         21   -1    0    0  503  502 -0.00000000000E+00 -0.00000000000E+00 -0.85387055435E+03  0.85387055435E+03  0.00000000000E+00 0.  1.
         21    1    1    2  503  501  0.57073417944E+02  0.84430625984E+02 -0.83195983901E+03  0.83817842932E+03  0.00000000000E+00 0.  1.
         21    1    1    2  504  502 -0.57073417944E+02 -0.84430625984E+02  0.11929859485E+03  0.15690143522E+03  0.00000000000E+00 0. -1.
<mgrwt>
<rscale>  2 0.10191126E+03</rscale>
<asrwt>0</asrwt>
<pdfrwt beam="1">  1       21 0.21724510E-01 0.10191126E+03</pdfrwt>
<pdfrwt beam="2">  1       21 0.13136470E+00 0.10191126E+03</pdfrwt>
<totfact> 0.90501844E+03</totfact>
</mgrwt>
</event>
<event>
 4    1  0.6055396E+003  0.1091957E+03  0.7546771E-02  0.1262067E+00
         21   -1    0    0  504  501  0.00000000000E+00  0.00000000000E+00  0.41820563460E+03  0.41820563460E+03  0.00000000000E+00 0. -1.
         21   -1    0    0  503  502 -0.00000000000E+00 -0.00000000000E+00 -0.30714384899E+02  0.30714384899E+02  0.00000000000E+00 0. -1.
         21    1    1    2  503  501 -0.81442104436E+02 -0.72738443295E+02  0.25385711215E+03  0.27634603471E+03  0.00000000000E+00 0. -1.
         21    1    1    2  504  502  0.81442104436E+02  0.72738443295E+02  0.13363413754E+03  0.17257398479E+03  0.00000000000E+00 0. -1.
<mgrwt>
<rscale>  2 0.10919568E+03</rscale>
<asrwt>0</asrwt>
<pdfrwt beam="1">  1       21 0.64339324E-01 0.10919568E+03</pdfrwt>
<pdfrwt beam="2">  1       21 0.47252903E-02 0.10919568E+03</pdfrwt>
<totfact> 0.66459839E+05</totfact>
</mgrwt>
</event>
<event>
 4    1  0.6055396E+003  0.1159114E+03  0.7546771E-02  0.1249999E+00
         21   -1    0    0  503  501  0.00000000000E+00  0.00000000000E+00  0.59769557655E+03  0.59769557655E+03  0.00000000000E+00 0.  1.
         21   -1    0    0  504  502 -0.00000000000E+00 -0.00000000000E+00 -0.10612117261E+03  0.10612117261E+03  0.00000000000E+00 0. -1.
         21    1    1    2  503  502  0.10155580985E+03  0.55873700126E+02 -0.66634985391E+02  0.13369994075E+03  0.00000000000E+00 0. -1.
         21    1    1    2  504  501 -0.10155580985E+03 -0.55873700126E+02  0.55820938933E+03  0.57011680840E+03  0.00000000000E+00 0.  1.
<mgrwt>
<rscale>  2 0.11591140E+03</rscale>
<asrwt>0</asrwt>
<pdfrwt beam="1">  1       21 0.91953164E-01 0.11591140E+03</pdfrwt>
<pdfrwt beam="2">  1       21 0.16326335E-01 0.11591140E+03</pdfrwt>
<totfact> 0.35168132E+04</totfact>
</mgrwt>
</event>
<event>
 4    1  0.6055396E+003  0.1437993E+03  0.7546771E-02  0.1208306E+00
         21   -1    0    0  502  501  0.00000000000E+00  0.00000000000E+00  0.33658906055E+02  0.33658906055E+02  0.00000000000E+00 0. -1.
         21   -1    0    0  504  502 -0.00000000000E+00 -0.00000000000E+00 -0.64075369005E+03  0.64075369005E+03  0.00000000000E+00 0.  1.
         21    1    1    2  503  501 -0.14339834014E+03 -0.10731196755E+02 -0.23509187932E+03  0.27558380624E+03  0.00000000000E+00 0. -1.
         21    1    1    2  504  503  0.14339834014E+03  0.10731196755E+02 -0.37200290467E+03  0.39882878986E+03  0.00000000000E+00 0.  1.
<mgrwt>
<rscale>  2 0.14379931E+03</rscale>
<asrwt>0</asrwt>
<pdfrwt beam="1">  1       21 0.51782936E-02 0.14379931E+03</pdfrwt>
<pdfrwt beam="2">  1       21 0.98577484E-01 0.14379931E+03</pdfrwt>
<totfact> 0.21852694E+05</totfact>
</mgrwt>
</event>
<event>
 4    1  0.6055396E+003  0.2254823E+03  0.7546771E-02  0.1129861E+00
         21   -1    0    0  502  501  0.00000000000E+00  0.00000000000E+00  0.49728581831E+03  0.49728581831E+03  0.00000000000E+00 0. -1.
         21   -1    0    0  503  502 -0.00000000000E+00 -0.00000000000E+00 -0.31498808906E+03  0.31498808906E+03  0.00000000000E+00 0.  1.
         21    1    1    2  503  504 -0.27165109290E+02 -0.22383995627E+03 -0.24262993851E+03  0.33122734828E+03  0.00000000000E+00 0.  1.
         21    1    1    2  504  501  0.27165109290E+02  0.22383995627E+03  0.42492766776E+03  0.48104655910E+03  0.00000000000E+00 0. -1.
<mgrwt>
<rscale>  2 0.22548230E+03</rscale>
<asrwt>0</asrwt>
<pdfrwt beam="1">  1       21 0.76505511E-01 0.22548230E+03</pdfrwt>
<pdfrwt beam="2">  1       21 0.48459706E-01 0.22548230E+03</pdfrwt>
<totfact> 0.60397067E+03</totfact>
</mgrwt>
</event>
<event>
 4    1  0.6055396E+003  0.1556620E+03  0.7546771E-02  0.1193683E+00
         21   -1    0    0  503  501  0.00000000000E+00  0.00000000000E+00  0.24490626761E+03  0.24490626761E+03  0.00000000000E+00 0.  1.
         21   -1    0    0  501  502 -0.00000000000E+00 -0.00000000000E+00 -0.15915524885E+03  0.15915524885E+03  0.00000000000E+00 0.  1.
         21    1    1    2  503  504  0.11225372239E+03  0.10784142278E+03  0.16714527737E+03  0.22840362170E+03  0.00000000000E+00 0.  1.
         21    1    1    2  504  502 -0.11225372239E+03 -0.10784142278E+03 -0.81394258604E+02  0.17565789476E+03  0.00000000000E+00 0.  1.
<mgrwt>
<rscale>  2 0.15566204E+03</rscale>
<asrwt>0</asrwt>
<pdfrwt beam="1">  1       21 0.37677887E-01 0.15566204E+03</pdfrwt>
<pdfrwt beam="2">  1       21 0.24485423E-01 0.15566204E+03</pdfrwt>
<totfact> 0.10856732E+05</totfact>
</mgrwt>
</event>
<event>
 4    1  0.6055396E+003  0.1306197E+03  0.7546771E-02  0.1226539E+00
         21   -1    0    0  504  501  0.00000000000E+00  0.00000000000E+00  0.81560733850E+03  0.81560733850E+03  0.00000000000E+00 0. -1.
         21   -1    0    0  501  502 -0.00000000000E+00 -0.00000000000E+00 -0.27439368285E+02  0.27439368285E+02  0.00000000000E+00 0. -1.
         21    1    1    2  503  502 -0.13059804680E+03  0.23808182145E+01  0.18860014949E+03  0.22941563702E+03  0.00000000000E+00 0. -1.
         21    1    1    2  504  503  0.13059804680E+03 -0.23808182145E+01  0.59956782072E+03  0.61363106976E+03  0.00000000000E+00 0. -1.
<mgrwt>
<rscale>  2 0.13061975E+03</rscale>
<asrwt>0</asrwt>
<pdfrwt beam="1">  1       21 0.12547803E+00 0.13061975E+03</pdfrwt>
<pdfrwt beam="2">  1       21 0.42214419E-02 0.13061975E+03</pdfrwt>
<totfact> 0.17313323E+05</totfact>
</mgrwt>
</event>
<event>
 4    1  0.6055396E+003  0.1125111E+03  0.7546771E-02  0.1255989E+00
         21   -1    0    0  502  501  0.00000000000E+00  0.00000000000E+00  0.11675744740E+03  0.11675744740E+03  0.00000000000E+00 0. -1.
         21   -1    0    0  504  502 -0.00000000000E+00 -0.00000000000E+00 -0.12761141373E+04  0.12761141373E+04  0.00000000000E+00 0.  1.
         21    1    1    2  503  501  0.73460754208E+02 -0.85218952951E+02  0.86516114323E+02  0.14192882156E+03  0.00000000000E+00 0. -1.
         21    1    1    2  504  503 -0.73460754208E+02  0.85218952951E+02 -0.12458728042E+04  0.12509427631E+04  0.00000000000E+00 0.  1.
<mgrwt>
<rscale>  2 0.11251112E+03</rscale>
<asrwt>0</asrwt>
<pdfrwt beam="1">  1       21 0.17962684E-01 0.11251112E+03</pdfrwt>
<pdfrwt beam="2">  1       21 0.19632525E+00 0.11251112E+03</pdfrwt>
<totfact> 0.43818027E+03</totfact>
</mgrwt>
</event>
<event>
 4    1  0.6055396E+003  0.1102201E+03  0.7546771E-02  0.1260163E+00
         21   -1    0    0  503  501  0.00000000000E+00  0.00000000000E+00  0.61294700784E+02  0.61294700784E+02  0.00000000000E+00 0.  1.
         21   -1    0    0  501  502 -0.00000000000E+00 -0.00000000000E+00 -0.19850463801E+03  0.19850463801E+03  0.00000000000E+00 0. -1.
         21    1    1    2  503  504 -0.67278935446E+02  0.87304190124E+02 -0.73711842280E+02  0.13259680411E+03  0.00000000000E+00 0.  1.
         21    1    1    2  504  502  0.67278935446E+02 -0.87304190124E+02 -0.63498094945E+02  0.12720253468E+03  0.00000000000E+00 0. -1.
<mgrwt>
<rscale>  2 0.11022013E+03</rscale>
<asrwt>0</asrwt>
<pdfrwt beam="1">  1       21 0.94299541E-02 0.11022013E+03</pdfrwt>
<pdfrwt beam="2">  1       21 0.30539175E-01 0.11022013E+03</pdfrwt>
<totfact> 0.92691917E+05</totfact>
</mgrwt>
</event>
<event>
 4    1  0.6055396E+003  0.1080861E+03  0.7546771E-02  0.1264156E+00
         21   -1    0    0  502  501  0.00000000000E+00  0.00000000000E+00  0.62271298541E+02  0.62271298541E+02  0.00000000000E+00 0. -1.
         21   -1    0    0  504  502 -0.00000000000E+00 -0.00000000000E+00 -0.26971529634E+03  0.26971529634E+03  0.00000000000E+00 0. -1.
         21    1    1    2  503  501  0.76057420080E+02 -0.76797666206E+02 -0.12136263606E+02  0.10876535100E+03  0.00000000000E+00 0. -1.
         21    1    1    2  504  503 -0.76057420080E+02  0.76797666206E+02 -0.19530773419E+03  0.22322124388E+03  0.00000000000E+00 0. -1.
<mgrwt>
<rscale>  2 0.10808614E+03</rscale>
<asrwt>0</asrwt>
<pdfrwt beam="1">  1       21 0.95801997E-02 0.10808614E+03</pdfrwt>
<pdfrwt beam="2">  1       21 0.41494661E-01 0.10808614E+03</pdfrwt>
<totfact> 0.49444010E+05</totfact>
</mgrwt>
</event>
<event>
 4    1  0.6055396E+003  0.1055850E+03  0.7546771E-02  0.1268971E+00
         21   -1    0    0  502  501  0.00000000000E+00  0.00000000000E+00  0.14163872223E+03  0.14163872223E+03  0.00000000000E+00 0. -1.
         21   -1    0    0  504  502 -0.00000000000E+00 -0.00000000000E+00 -0.62100322415E+03  0.62100322415E+03  0.00000000000E+00 0. -1.
         21    1    1    2  503  501 -0.33783080176E+02 -0.10003446979E+03  0.11665514142E+03  0.15734234545E+03  0.00000000000E+00 0. -1.
         21    1    1    2  504  503  0.33783080176E+02  0.10003446979E+03 -0.59601964333E+03  0.60529960094E+03  0.00000000000E+00 0. -1.
<mgrwt>
<rscale>  2 0.10558500E+03</rscale>
<asrwt>0</asrwt>
<pdfrwt beam="1">  1       21 0.21790572E-01 0.10558500E+03</pdfrwt>
<pdfrwt beam="2">  1       21 0.95538959E-01 0.10558500E+03</pdfrwt>
<totfact> 0.19148459E+04</totfact>
</mgrwt>
</event>
<event>
 4    1  0.6055396E+003  0.1409115E+03  0.7546771E-02  0.1212108E+00
         21   -1    0    0  503  501  0.00000000000E+00  0.00000000000E+00  0.58394187288E+02  0.58394187288E+02  0.00000000000E+00 0. -1.
         21   -1    0    0  504  502 -0.00000000000E+00 -0.00000000000E+00 -0.96524749757E+03  0.96524749757E+03  0.00000000000E+00 0.  1.
         21    1    1    2  503  502 -0.13737560008E+03  0.31368913063E+02 -0.41507042985E+02  0.14689757936E+03  0.00000000000E+00 0. -1.
         21    1    1    2  504  501  0.13737560008E+03 -0.31368913063E+02 -0.86534626730E+03  0.87674410550E+03  0.00000000000E+00 0.  1.
<mgrwt>
<rscale>  2 0.14091155E+03</rscale>
<asrwt>0</asrwt>
<pdfrwt beam="1">  1       21 0.89837215E-02 0.14091155E+03</pdfrwt>
<pdfrwt beam="2">  1       21 0.14849961E+00 0.14091155E+03</pdfrwt>
<totfact> 0.31116058E+04</totfact>
</mgrwt>
</event>
<event>
 4    1  0.6055396E+003  0.1693969E+03  0.7546771E-02  0.1178478E+00
         21   -1    0    0  503  501  0.00000000000E+00  0.00000000000E+00  0.15931153336E+03  0.15931153336E+03  0.00000000000E+00 0.  1.
         21   -1    0    0  504  502 -0.00000000000E+00 -0.00000000000E+00 -0.18046403755E+03  0.18046403755E+03  0.00000000000E+00 0.  1.
         21    1    1    2  503  502 -0.72306450458E+02  0.15318974284E+03 -0.17985381731E+02  0.17034903594E+03  0.00000000000E+00 0.  1.
         21    1    1    2  504  501  0.72306450458E+02 -0.15318974284E+03 -0.31671224565E+01  0.16942653497E+03  0.00000000000E+00 0.  1.
<mgrwt>
<rscale>  2 0.16939693E+03</rscale>
<asrwt>0</asrwt>
<pdfrwt beam="1">  1       21 0.24509467E-01 0.16939693E+03</pdfrwt>
<pdfrwt beam="2">  1       21 0.27763698E-01 0.16939693E+03</pdfrwt>
<totfact> 0.19613586E+05</totfact>
</mgrwt>
</event>
<event>
 4    1  0.6055396E+003  0.1308168E+03  0.7546771E-02  0.1226249E+00
         21   -1    0    0  504  501  0.00000000000E+00  0.00000000000E+00  0.50921516214E+03  0.50921516214E+03  0.00000000000E+00 0.  1.
         21   -1    0    0  503  502 -0.00000000000E+00 -0.00000000000E+00 -0.94064569057E+02  0.94064569057E+02  0.00000000000E+00 0.  1.
         21    1    1    2  503  501  0.12685954105E+03 -0.31932448083E+02  0.44940087750E+03  0.46805360067E+03  0.00000000000E+00 0.  1.
         21    1    1    2  504  502 -0.12685954105E+03  0.31932448083E+02 -0.34250284417E+02  0.13522613053E+03  0.00000000000E+00 0.  1.
<mgrwt>
<rscale>  2 0.13081676E+03</rscale>
<asrwt>0</asrwt>
<pdfrwt beam="1">  1       21 0.78340793E-01 0.13081676E+03</pdfrwt>
<pdfrwt beam="2">  1       21 0.14471472E-01 0.13081676E+03</pdfrwt>
<totfact> 0.62187899E+04</totfact>
</mgrwt>
</event>
<event>
 4    1  0.6055396E+003  0.2288779E+03  0.7546771E-02  0.1127432E+00
         21   -1    0    0  503  501  0.00000000000E+00  0.00000000000E+00  0.32594409347E+03  0.32594409347E+03  0.00000000000E+00 0.  1.
         21   -1    0    0  504  502 -0.00000000000E+00 -0.00000000000E+00 -0.27967901939E+03  0.27967901939E+03  0.00000000000E+00 0.  1.
         21    1    1    2  503  502  0.22844718202E+03  0.14034846278E+02  0.22062239120E+03  0.31789830352E+03  0.00000000000E+00 0.  1.
         21    1    1    2  504  501 -0.22844718202E+03 -0.14034846278E+02 -0.17435731711E+03  0.28772480934E+03  0.00000000000E+00 0.  1.
<mgrwt>
<rscale>  2 0.22887790E+03</rscale>
<asrwt>0</asrwt>
<pdfrwt beam="1">  1       21 0.50145245E-01 0.22887790E+03</pdfrwt>
<pdfrwt beam="2">  1       21 0.43027541E-01 0.22887790E+03</pdfrwt>
<totfact> 0.19265981E+04</totfact>
</mgrwt>
</event>
<event>
 4    1  0.6055396E+003  0.1143426E+03  0.7546771E-02  0.1252733E+00
         21   -1    0    0  503  501  0.00000000000E+00  0.00000000000E+00  0.40772945160E+02  0.40772945160E+02  0.00000000000E+00 0. -1.
         21   -1    0    0  501  502 -0.00000000000E+00 -0.00000000000E+00 -0.11092565395E+04  0.11092565395E+04  0.00000000000E+00 0. -1.
         21    1    1    2  503  504 -0.85976843686E+02  0.75380524106E+02 -0.49410673146E+02  0.12456185486E+03  0.00000000000E+00 0. -1.
         21    1    1    2  504  502  0.85976843686E+02 -0.75380524106E+02 -0.10190729212E+04  0.10254676298E+04  0.00000000000E+00 0. -1.
<mgrwt>
<rscale>  2 0.11434265E+03</rscale>
<asrwt>0</asrwt>
<pdfrwt beam="1">  1       21 0.62727615E-02 0.11434265E+03</pdfrwt>
<pdfrwt beam="2">  1       21 0.17065483E+00 0.11434265E+03</pdfrwt>
<totfact> 0.40769708E+04</totfact>
</mgrwt>
</event>
<event>
 4    1  0.6055396E+003  0.1432390E+03  0.7546771E-02  0.1209036E+00
         21   -1    0    0  504  501  0.00000000000E+00  0.00000000000E+00  0.57527366993E+03  0.57527366993E+03  0.00000000000E+00 0.  1.
         21   -1    0    0  501  502 -0.00000000000E+00 -0.00000000000E+00 -0.24623497362E+03  0.24623497362E+03  0.00000000000E+00 0. -1.
         21    1    1    2  503  502  0.14095683897E+03 -0.25467237971E+02 -0.21532441588E+03  0.25861557326E+03  0.00000000000E+00 0. -1.
         21    1    1    2  504  503 -0.14095683897E+03  0.25467237971E+02  0.54436311219E+03  0.56289307028E+03  0.00000000000E+00 0.  1.
<mgrwt>
<rscale>  2 0.14323900E+03</rscale>
<asrwt>0</asrwt>
<pdfrwt beam="1">  1       21 0.88503641E-01 0.14323900E+03</pdfrwt>
<pdfrwt beam="2">  1       21 0.37882304E-01 0.14323900E+03</pdfrwt>
<totfact> 0.76335602E+03</totfact>
</mgrwt>
</event>
<event>
 4    1  0.6055396E+003  0.1286901E+03  0.7546771E-02  0.1229412E+00
         21   -1    0    0  503  501  0.00000000000E+00  0.00000000000E+00  0.78209490909E+03  0.78209490909E+03  0.00000000000E+00 0.  1.
         21   -1    0    0  504  502 -0.00000000000E+00 -0.00000000000E+00 -0.13745379806E+03  0.13745379806E+03  0.00000000000E+00 0.  1.
         21    1    1    2  503  502  0.10202547232E+03 -0.78434284752E+02 -0.10055831140E+03  0.16331903753E+03  0.00000000000E+00 0.  1.
         21    1    1    2  504  501 -0.10202547232E+03  0.78434284752E+02  0.74519942243E+03  0.75622966962E+03  0.00000000000E+00 0.  1.
<mgrwt>
<rscale>  2 0.12869007E+03</rscale>
<asrwt>0</asrwt>
<pdfrwt beam="1">  1       21 0.12032229E+00 0.12869007E+03</pdfrwt>
<pdfrwt beam="2">  1       21 0.21146739E-01 0.12869007E+03</pdfrwt>
<totfact> 0.11472964E+04</totfact>
</mgrwt>
</event>
<event>
 4    1  0.6055396E+003  0.1318298E+03  0.7546771E-02  0.1224766E+00
         21   -1    0    0  504  501  0.00000000000E+00  0.00000000000E+00  0.83554966428E+02  0.83554966428E+02  0.00000000000E+00 0. -1.
         21   -1    0    0  501  502 -0.00000000000E+00 -0.00000000000E+00 -0.10400614828E+04  0.10400614828E+04  0.00000000000E+00 0.  1.
         21    1    1    2  503  502 -0.54817394287E+02  0.11989224473E+03 -0.98075473760E+03  0.98957513731E+03  0.00000000000E+00 0.  1.
         21    1    1    2  504  503  0.54817394287E+02 -0.11989224473E+03  0.24248221240E+02  0.13404131190E+03  0.00000000000E+00 0. -1.
<mgrwt>
<rscale>  2 0.13182980E+03</rscale>
<asrwt>0</asrwt>
<pdfrwt beam="1">  1       21 0.12854609E-01 0.13182980E+03</pdfrwt>
<pdfrwt beam="2">  1       21 0.16000947E+00 0.13182980E+03</pdfrwt>
<totfact> 0.13717605E+04</totfact>
</mgrwt>
</event>
<event>
 4    1  0.6055396E+003  0.1097789E+03  0.7546771E-02  0.1260980E+00
         21   -1    0    0  504  501  0.00000000000E+00  0.00000000000E+00  0.15000522322E+03  0.15000522322E+03  0.00000000000E+00 0.  1.
         21   -1    0    0  503  502 -0.00000000000E+00 -0.00000000000E+00 -0.10005968496E+03  0.10005968496E+03  0.00000000000E+00 0. -1.
         21    1    1    2  503  501  0.66542711771E+02  0.87312505942E+02 -0.30533771762E+02  0.11394611622E+03  0.00000000000E+00 0. -1.
         21    1    1    2  504  502 -0.66542711771E+02 -0.87312505942E+02  0.80479310016E+02  0.13611879196E+03  0.00000000000E+00 0.  1.
<mgrwt>
<rscale>  2 0.10977890E+03</rscale>
<asrwt>0</asrwt>
<pdfrwt beam="1">  1       21 0.23077727E-01 0.10977890E+03</pdfrwt>
<pdfrwt beam="2">  1       21 0.15393798E-01 0.10977890E+03</pdfrwt>
<totfact> 0.66332254E+05</totfact>
</mgrwt>
</event>
<event>
 4    1  0.6055396E+003  0.1406484E+03  0.7546771E-02  0.1212459E+00
         21   -1    0    0  503  501  0.00000000000E+00  0.00000000000E+00  0.31718230770E+03  0.31718230770E+03  0.00000000000E+00 0. -1.
         21   -1    0    0  504  502 -0.00000000000E+00 -0.00000000000E+00 -0.66627189236E+02  0.66627189236E+02  0.00000000000E+00 0. -1.
         21    1    1    2  503  502 -0.13290394465E+03 -0.46027457994E+02  0.76756530906E+02  0.16022968024E+03  0.00000000000E+00 0. -1.
         21    1    1    2  504  501  0.13290394465E+03  0.46027457994E+02  0.17379858755E+03  0.22357981669E+03  0.00000000000E+00 0. -1.
<mgrwt>
<rscale>  2 0.14064845E+03</rscale>
<asrwt>0</asrwt>
<pdfrwt beam="1">  1       21 0.48797277E-01 0.14064845E+03</pdfrwt>
<pdfrwt beam="2">  1       21 0.10250337E-01 0.14064845E+03</pdfrwt>
<totfact> 0.31484315E+05</totfact>
</mgrwt>
</event>
<event>
 4    1  0.6055396E+003  0.1323575E+03  0.7546771E-02  0.1223999E+00
         21   -1    0    0  504  501  0.00000000000E+00  0.00000000000E+00  0.33353227002E+03  0.33353227002E+03  0.00000000000E+00 0. -1.
         21   -1    0    0  501  502 -0.00000000000E+00 -0.00000000000E+00 -0.51167432062E+03  0.51167432062E+03  0.00000000000E+00 0. -1.
         21    1    1    2  503  502 -0.96337179166E+02  0.90761517602E+02 -0.48939669114E+03  0.50697892113E+03  0.00000000000E+00 0. -1.
         21    1    1    2  504  503  0.96337179166E+02 -0.90761517602E+02  0.31125464054E+03  0.33822766952E+03  0.00000000000E+00 0. -1.
<mgrwt>
<rscale>  2 0.13235749E+03</rscale>
<asrwt>0</asrwt>
<pdfrwt beam="1">  1       21 0.51312657E-01 0.13235749E+03</pdfrwt>
<pdfrwt beam="2">  1       21 0.78719126E-01 0.13235749E+03</pdfrwt>
<totfact> 0.54251310E+03</totfact>
</mgrwt>
</event>
<event>
 4    1  0.6055396E+003  0.1386453E+03  0.7546771E-02  0.1215164E+00
         21   -1    0    0  503  501  0.00000000000E+00  0.00000000000E+00  0.44173052226E+02  0.44173052226E+02  0.00000000000E+00 0. -1.
         21   -1    0    0  501  502 -0.00000000000E+00 -0.00000000000E+00 -0.61938633175E+03  0.61938633175E+03  0.00000000000E+00 0. -1.
         21    1    1    2  503  504  0.13140127941E+02 -0.13802120356E+03 -0.10666425827E+03  0.17492792684E+03  0.00000000000E+00 0. -1.
         21    1    1    2  504  502 -0.13140127941E+02  0.13802120356E+03 -0.46854902125E+03  0.48863145714E+03  0.00000000000E+00 0. -1.
<mgrwt>
<rscale>  2 0.13864529E+03</rscale>
<asrwt>0</asrwt>
<pdfrwt beam="1">  1       21 0.67958546E-02 0.13864529E+03</pdfrwt>
<pdfrwt beam="2">  1       21 0.95290199E-01 0.13864529E+03</pdfrwt>
<totfact> 0.14927868E+05</totfact>
</mgrwt>
</event>
<event>
 4    1  0.6055396E+003  0.1755273E+03  0.7546771E-02  0.1172203E+00
         21   -1    0    0  504  501  0.00000000000E+00  0.00000000000E+00  0.15840225305E+03  0.15840225305E+03  0.00000000000E+00 0.  1.
         21   -1    0    0  501  502 -0.00000000000E+00 -0.00000000000E+00 -0.36261038450E+03  0.36261038450E+03  0.00000000000E+00 0.  1.
         21    1    1    2  503  502  0.79519003778E+02 -0.15648181653E+03 -0.27947831941E+03  0.33002721386E+03  0.00000000000E+00 0.  1.
         21    1    1    2  504  503 -0.79519003778E+02  0.15648181653E+03  0.75270187964E+02  0.19098542369E+03  0.00000000000E+00 0.  1.
<mgrwt>
<rscale>  2 0.17552729E+03</rscale>
<asrwt>0</asrwt>
<pdfrwt beam="1">  1       21 0.24369577E-01 0.17552729E+03</pdfrwt>
<pdfrwt beam="2">  1       21 0.55786213E-01 0.17552729E+03</pdfrwt>
<totfact> 0.48532544E+04</totfact>
</mgrwt>
</event>
<event>
 4    1  0.6055396E+003  0.1270857E+03  0.7546771E-02  0.1231845E+00
         21   -1    0    0  504  501  0.00000000000E+00  0.00000000000E+00  0.14374352635E+04  0.14374352635E+04  0.00000000000E+00 0. -1.
         21   -1    0    0  503  502 -0.00000000000E+00 -0.00000000000E+00 -0.12161325519E+02  0.12161325519E+02  0.00000000000E+00 0. -1.
         21    1    1    2  503  501  0.48103286544E+02  0.11763018381E+03  0.91258289059E+03  0.92138934144E+03  0.00000000000E+00 0. -1.
         21    1    1    2  504  502 -0.48103286544E+02 -0.11763018381E+03  0.51269104737E+03  0.52820724756E+03  0.00000000000E+00 0. -1.
<mgrwt>
<rscale>  2 0.12708574E+03</rscale>
<asrwt>0</asrwt>
<pdfrwt beam="1">  1       21 0.22114375E+00 0.12708574E+03</pdfrwt>
<pdfrwt beam="2">  1       21 0.18709743E-02 0.12708574E+03</pdfrwt>
<totfact> 0.14154880E+05</totfact>
</mgrwt>
</event>
<event>
 4    1  0.6055396E+003  0.1322346E+03  0.7546771E-02  0.1224177E+00
         21   -1    0    0  503  501  0.00000000000E+00  0.00000000000E+00  0.12760234948E+03  0.12760234948E+03  0.00000000000E+00 0. -1.
         21   -1    0    0  501  502 -0.00000000000E+00 -0.00000000000E+00 -0.13944448966E+03  0.13944448966E+03  0.00000000000E+00 0. -1.
         21    1    1    2  503  504  0.26205725392E+02 -0.12961188941E+03 -0.23472947124E+02  0.13430175415E+03  0.00000000000E+00 0. -1.
         21    1    1    2  504  502 -0.26205725392E+02  0.12961188941E+03  0.11630806949E+02  0.13274508499E+03  0.00000000000E+00 0. -1.
<mgrwt>
<rscale>  2 0.13223457E+03</rscale>
<asrwt>0</asrwt>
<pdfrwt beam="1">  1       21 0.19631131E-01 0.13223457E+03</pdfrwt>
<pdfrwt beam="2">  1       21 0.21452998E-01 0.13223457E+03</pdfrwt>
<totfact> 0.48760077E+05</totfact>
</mgrwt>
</event>
<event>
 4    1  0.6055396E+003  0.1362175E+03  0.7546771E-02  0.1218511E+00
         21   -1    0    0  504  501  0.00000000000E+00  0.00000000000E+00  0.70254791696E+02  0.70254791696E+02  0.00000000000E+00 0. -1.
         21   -1    0    0  501  502 -0.00000000000E+00 -0.00000000000E+00 -0.26455241098E+03  0.26455241098E+03  0.00000000000E+00 0.  1.
         21    1    1    2  503  502  0.90610944463E+02 -0.10170968554E+03 -0.90326250998E+02  0.16344428717E+03  0.00000000000E+00 0. -1.
         21    1    1    2  504  503 -0.90610944463E+02  0.10170968554E+03 -0.10397136829E+03  0.17136291551E+03  0.00000000000E+00 0.  1.
<mgrwt>
<rscale>  2 0.13621749E+03</rscale>
<asrwt>0</asrwt>
<pdfrwt beam="1">  1       21 0.10808430E-01 0.13621749E+03</pdfrwt>
<pdfrwt beam="2">  1       21 0.40700370E-01 0.13621749E+03</pdfrwt>
<totfact> 0.41507634E+05</totfact>
</mgrwt>
</event>
<event>
 4    1  0.6055396E+003  0.1245573E+03  0.7546771E-02  0.1235763E+00
         21   -1    0    0  502  501  0.00000000000E+00  0.00000000000E+00  0.19863513113E+02  0.19863513113E+02  0.00000000000E+00 0. -1.
         21   -1    0    0  503  502 -0.00000000000E+00 -0.00000000000E+00 -0.11154165091E+04  0.11154165091E+04  0.00000000000E+00 0.  1.
         21    1    1    2  503  504  0.31330103446E+02  0.12055270911E+03 -0.85856251139E+03  0.86755064233E+03  0.00000000000E+00 0.  1.
         21    1    1    2  504  501 -0.31330103446E+02 -0.12055270911E+03 -0.23699048456E+03  0.26772937984E+03  0.00000000000E+00 0. -1.
<mgrwt>
<rscale>  2 0.12455734E+03</rscale>
<asrwt>0</asrwt>
<pdfrwt beam="1">  1       21 0.30559246E-02 0.12455734E+03</pdfrwt>
<pdfrwt beam="2">  1       21 0.17160257E+00 0.12455734E+03</pdfrwt>
<totfact> 0.13212834E+05</totfact>
</mgrwt>
</event>
<event>
 4    1  0.6055396E+003  0.1040186E+03  0.7546771E-02  0.1272065E+00
         21   -1    0    0  503  501  0.00000000000E+00  0.00000000000E+00  0.12962372651E+04  0.12962372651E+04  0.00000000000E+00 0. -1.
         21   -1    0    0  504  502 -0.00000000000E+00 -0.00000000000E+00 -0.97457895990E+01  0.97457895990E+01  0.00000000000E+00 0. -1.
         21    1    1    2  503  502  0.20422856823E+02 -0.10199404715E+03  0.39587238393E+03  0.40931017956E+03  0.00000000000E+00 0. -1.
         21    1    1    2  504  501 -0.20422856823E+02  0.10199404715E+03  0.89061909160E+03  0.89667287517E+03  0.00000000000E+00 0. -1.
<mgrwt>
<rscale>  2 0.10401865E+03</rscale>
<asrwt>0</asrwt>
<pdfrwt beam="1">  1       21 0.19942098E+00 0.10401865E+03</pdfrwt>
<pdfrwt beam="2">  1       21 0.14993533E-02 0.10401865E+03</pdfrwt>
<totfact> 0.27778302E+05</totfact>
</mgrwt>
</event>
<event>
 4    1  0.6055396E+003  0.1409938E+03  0.7546771E-02  0.1211998E+00
         21   -1    0    0  503  501  0.00000000000E+00  0.00000000000E+00  0.11149612470E+03  0.11149612470E+03  0.00000000000E+00 0.  1.
         21   -1    0    0  504  502 -0.00000000000E+00 -0.00000000000E+00 -0.96796646736E+03  0.96796646736E+03  0.00000000000E+00 0. -1.
         21    1    1    2  503  502  0.11574700208E+03 -0.80510162931E+02 -0.91573058761E+03  0.92652132405E+03  0.00000000000E+00 0. -1.
         21    1    1    2  504  501 -0.11574700208E+03  0.80510162931E+02  0.59260244955E+02  0.15294126800E+03  0.00000000000E+00 0.  1.
<mgrwt>
<rscale>  2 0.14099381E+03</rscale>
<asrwt>0</asrwt>
<pdfrwt beam="1">  1       21 0.17153250E-01 0.14099381E+03</pdfrwt>
<pdfrwt beam="2">  1       21 0.14891792E+00 0.14099381E+03</pdfrwt>
<totfact> 0.97582787E+03</totfact>
</mgrwt>
</event>
<event>
 4    1  0.6055396E+003  0.1318547E+03  0.7546771E-02  0.1224729E+00
         21   -1    0    0  503  501  0.00000000000E+00  0.00000000000E+00  0.10574881460E+04  0.10574881460E+04  0.00000000000E+00 0.  1.
         21   -1    0    0  501  502 -0.00000000000E+00 -0.00000000000E+00 -0.21257942063E+02  0.21257942063E+02  0.00000000000E+00 0.  1.
         21    1    1    2  503  504  0.90240889363E+02 -0.96136634769E+02  0.77487979822E+03  0.78601804836E+03  0.00000000000E+00 0.  1.
         21    1    1    2  504  502 -0.90240889363E+02  0.96136634769E+02  0.26135040568E+03  0.29272803967E+03  0.00000000000E+00 0.  1.
<mgrwt>
<rscale>  2 0.13185473E+03</rscale>
<asrwt>0</asrwt>
<pdfrwt beam="1">  1       21 0.16269044E+00 0.13185473E+03</pdfrwt>
<pdfrwt beam="2">  1       21 0.32704534E-02 0.13185473E+03</pdfrwt>
<totfact> 0.13584533E+05</totfact>
</mgrwt>
</event>
<event>
 4    1  0.6055396E+003  0.1538164E+03  0.7546771E-02  0.1195860E+00
         21   -1    0    0  503  501  0.00000000000E+00  0.00000000000E+00  0.60779155171E+03  0.60779155171E+03  0.00000000000E+00 0.  1.
         21   -1    0    0  501  502 -0.00000000000E+00 -0.00000000000E+00 -0.45154499922E+02  0.45154499922E+02  0.00000000000E+00 0.  1.
         21    1    1    2  503  504 -0.12052735599E+03  0.95564796489E+02  0.40256112833E+03  0.43094655807E+03  0.00000000000E+00 0.  1.
         21    1    1    2  504  502  0.12052735599E+03 -0.95564796489E+02  0.16007592346E+03  0.22199949357E+03  0.00000000000E+00 0.  1.
<mgrwt>
<rscale>  2 0.15381636E+03</rscale>
<asrwt>0</asrwt>
<pdfrwt beam="1">  1       21 0.93506387E-01 0.15381636E+03</pdfrwt>
<pdfrwt beam="2">  1       21 0.69468466E-02 0.15381636E+03</pdfrwt>
<totfact> 0.14942741E+05</totfact>
</mgrwt>
</event>
<event>
 4    1  0.6055396E+003  0.1352253E+03  0.7546771E-02  0.1219902E+00
         21   -1    0    0  503  501  0.00000000000E+00  0.00000000000E+00  0.12243475859E+03  0.12243475859E+03  0.00000000000E+00 0.  1.
         21   -1    0    0  504  502 -0.00000000000E+00 -0.00000000000E+00 -0.23816699870E+03  0.23816699870E+03  0.00000000000E+00 0.  1.
         21    1    1    2  503  502  0.98967239838E+02 -0.92148622308E+02  0.52237111688E+02  0.14496413002E+03  0.00000000000E+00 0.  1.
         21    1    1    2  504  501 -0.98967239838E+02  0.92148622308E+02 -0.16796935179E+03  0.21563762727E+03  0.00000000000E+00 0.  1.
<mgrwt>
<rscale>  2 0.13522531E+03</rscale>
<asrwt>0</asrwt>
<pdfrwt beam="1">  1       21 0.18836117E-01 0.13522531E+03</pdfrwt>
<pdfrwt beam="2">  1       21 0.36641076E-01 0.13522531E+03</pdfrwt>
<totfact> 0.18846249E+05</totfact>
</mgrwt>
</event>
<event>
 4    1  0.6055396E+003  0.1187813E+03  0.7546771E-02  0.1245121E+00
         21   -1    0    0  504  501  0.00000000000E+00  0.00000000000E+00  0.14467915434E+03  0.14467915434E+03  0.00000000000E+00 0.  1.
         21   -1    0    0  503  502 -0.00000000000E+00 -0.00000000000E+00 -0.28064716724E+03  0.28064716724E+03  0.00000000000E+00 0. -1.
         21    1    1    2  503  501  0.11863489362E+03  0.58965806635E+01 -0.23977056121E+03  0.26757976319E+03  0.00000000000E+00 0. -1.
         21    1    1    2  504  502 -0.11863489362E+03 -0.58965806635E+01  0.10380254831E+03  0.15774655839E+03  0.00000000000E+00 0.  1.
<mgrwt>
<rscale>  2 0.11878134E+03</rscale>
<asrwt>0</asrwt>
<pdfrwt beam="1">  1       21 0.22258331E-01 0.11878134E+03</pdfrwt>
<pdfrwt beam="2">  1       21 0.43176487E-01 0.11878134E+03</pdfrwt>
<totfact> 0.10024778E+05</totfact>
</mgrwt>
</event>
<event>
 4    1  0.6055396E+003  0.1466188E+03  0.7546771E-02  0.1204690E+00
         21   -1    0    0  503  501  0.00000000000E+00  0.00000000000E+00  0.75281787773E+02  0.75281787773E+02  0.00000000000E+00 0. -1.
         21   -1    0    0  504  502 -0.00000000000E+00 -0.00000000000E+00 -0.87775762926E+03  0.87775762926E+03  0.00000000000E+00 0. -1.
         21    1    1    2  503  502 -0.59835491196E+02 -0.13385360166E+03 -0.98307161853E+01  0.14694800327E+03  0.00000000000E+00 0. -1.
         21    1    1    2  504  501  0.59835491196E+02  0.13385360166E+03 -0.79264512530E+03  0.80609141377E+03  0.00000000000E+00 0. -1.
<mgrwt>
<rscale>  2 0.14661880E+03</rscale>
<asrwt>0</asrwt>
<pdfrwt beam="1">  1       21 0.11581814E-01 0.14661880E+03</pdfrwt>
<pdfrwt beam="2">  1       21 0.13503963E+00 0.14661880E+03</pdfrwt>
<totfact> 0.25300509E+04</totfact>
</mgrwt>
</event>
<event>
 4    1  0.6055396E+003  0.1069931E+03  0.7546771E-02  0.1266242E+00
         21   -1    0    0  503  501  0.00000000000E+00  0.00000000000E+00  0.14897567170E+04  0.14897567170E+04  0.00000000000E+00 0.  1.
         21   -1    0    0  504  502 -0.00000000000E+00 -0.00000000000E+00 -0.95923962660E+01  0.95923962660E+01  0.00000000000E+00 0.  1.
         21    1    1    2  503  502 -0.20919928634E+01 -0.10697263989E+03  0.10744510108E+04  0.10797650193E+04  0.00000000000E+00 0.  1.
         21    1    1    2  504  501  0.20919928634E+01  0.10697263989E+03  0.40571330990E+03  0.41958409401E+03  0.00000000000E+00 0.  1.
<mgrwt>
<rscale>  2 0.10699309E+03</rscale>
<asrwt>0</asrwt>
<pdfrwt beam="1">  1       21 0.22919316E+00 0.10699309E+03</pdfrwt>
<pdfrwt beam="2">  1       21 0.14757545E-02 0.10699309E+03</pdfrwt>
<totfact> 0.18829457E+05</totfact>
</mgrwt>
</event>
<event>
 4    1  0.6055396E+003  0.1643562E+03  0.7546771E-02  0.1183865E+00
         21   -1    0    0  502  501  0.00000000000E+00  0.00000000000E+00  0.49555373972E+02  0.49555373972E+02  0.00000000000E+00 0.  1.
         21   -1    0    0  504  502 -0.00000000000E+00 -0.00000000000E+00 -0.10421498435E+04  0.10421498435E+04  0.00000000000E+00 0.  1.
         21    1    1    2  503  501 -0.21706706588E+02 -0.16291645465E+03 -0.11932664066E+03  0.20310539008E+03  0.00000000000E+00 0.  1.
         21    1    1    2  504  503  0.21706706588E+02  0.16291645465E+03 -0.87326782883E+03  0.88859982736E+03  0.00000000000E+00 0.  1.
<mgrwt>
<rscale>  2 0.16435618E+03</rscale>
<asrwt>0</asrwt>
<pdfrwt beam="1">  1       21 0.76239038E-02 0.16435618E+03</pdfrwt>
<pdfrwt beam="2">  1       21 0.16033074E+00 0.16435618E+03</pdfrwt>
<totfact> 0.33267708E+04</totfact>
</mgrwt>
</event>
<event>
 4    1  0.6055396E+003  0.1548444E+03  0.7546771E-02  0.1194643E+00
         21   -1    0    0  503  501  0.00000000000E+00  0.00000000000E+00  0.11576946519E+03  0.11576946519E+03  0.00000000000E+00 0. -1.
         21   -1    0    0  501  502 -0.00000000000E+00 -0.00000000000E+00 -0.72917670488E+03  0.72917670488E+03  0.00000000000E+00 0. -1.
         21    1    1    2  503  504  0.71292973341E+02 -0.13745581039E+03  0.50772029584E+02  0.16295578187E+03  0.00000000000E+00 0. -1.
         21    1    1    2  504  502 -0.71292973341E+02  0.13745581039E+03 -0.66417926927E+03  0.68199038819E+03  0.00000000000E+00 0. -1.
<mgrwt>
<rscale>  2 0.15484440E+03</rscale>
<asrwt>0</asrwt>
<pdfrwt beam="1">  1       21 0.17810687E-01 0.15484440E+03</pdfrwt>
<pdfrwt beam="2">  1       21 0.11218103E+00 0.15484440E+03</pdfrwt>
<totfact> 0.18289935E+04</totfact>
</mgrwt>
</event>
<event>
 4    1  0.6055396E+003  0.1103457E+03  0.7546771E-02  0.1259931E+00
         21   -1    0    0  503  501  0.00000000000E+00  0.00000000000E+00  0.89807459869E+02  0.89807459869E+02  0.00000000000E+00 0.  1.
         21   -1    0    0  504  502 -0.00000000000E+00 -0.00000000000E+00 -0.14068899605E+03  0.14068899605E+03  0.00000000000E+00 0.  1.
         21    1    1    2  503  502  0.22226837741E+02 -0.10808394658E+03 -0.47400943610E+02  0.12009588369E+03  0.00000000000E+00 0.  1.
         21    1    1    2  504  501 -0.22226837741E+02  0.10808394658E+03 -0.34805925678E+01  0.11040057223E+03  0.00000000000E+00 0.  1.
<mgrwt>
<rscale>  2 0.11034569E+03</rscale>
<asrwt>0</asrwt>
<pdfrwt beam="1">  1       21 0.13816532E-01 0.11034569E+03</pdfrwt>
<pdfrwt beam="2">  1       21 0.21644461E-01 0.11034569E+03</pdfrwt>
<totfact> 0.90706498E+05</totfact>
</mgrwt>
</event>
<event>
 4    1  0.6055396E+003  0.1184919E+03  0.7546771E-02  0.1245606E+00
         21   -1    0    0  502  501  0.00000000000E+00  0.00000000000E+00  0.76115845811E+02  0.76115845811E+02  0.00000000000E+00 0. -1.
         21   -1    0    0  503  502 -0.00000000000E+00 -0.00000000000E+00 -0.23399193925E+03  0.23399193925E+03  0.00000000000E+00 0. -1.
         21    1    1    2  503  504 -0.23635998019E+02  0.11611057287E+03 -0.15027672942E+03  0.19137246652E+03  0.00000000000E+00 0. -1.
         21    1    1    2  504  501  0.23635998019E+02 -0.11611057287E+03 -0.75993640157E+01  0.11873531854E+03  0.00000000000E+00 0. -1.
<mgrwt>
<rscale>  2 0.11849188E+03</rscale>
<asrwt>0</asrwt>
<pdfrwt beam="1">  1       21 0.11710130E-01 0.11849188E+03</pdfrwt>
<pdfrwt beam="2">  1       21 0.35998760E-01 0.11849188E+03</pdfrwt>
<totfact> 0.46076047E+05</totfact>
</mgrwt>
</event>
<event>
 4    1  0.6055396E+003  0.1043772E+03  0.7546771E-02  0.1271352E+00
         21   -1    0    0  503  501  0.00000000000E+00  0.00000000000E+00  0.22555121990E+02  0.22555121990E+02  0.00000000000E+00 0. -1.
         21   -1    0    0  504  502 -0.00000000000E+00 -0.00000000000E+00 -0.53084280946E+03  0.53084280946E+03  0.00000000000E+00 0. -1.
         21    1    1    2  503  502  0.33014587757E+02  0.99018351925E+02 -0.17109421782E+03  0.20041913180E+03  0.00000000000E+00 0. -1.
         21    1    1    2  504  501 -0.33014587757E+02 -0.99018351925E+02 -0.33719346965E+03  0.35297879964E+03  0.00000000000E+00 0. -1.
<mgrwt>
<rscale>  2 0.10437719E+03</rscale>
<asrwt>0</asrwt>
<pdfrwt beam="1">  1       21 0.34700193E-02 0.10437719E+03</pdfrwt>
<pdfrwt beam="2">  1       21 0.81668112E-01 0.10437719E+03</pdfrwt>
<totfact> 0.65832942E+05</totfact>
</mgrwt>
</event>
<event>
 4    1  0.6055396E+003  0.1093808E+03  0.7546771E-02  0.1261721E+00
         21   -1    0    0  502  501  0.00000000000E+00  0.00000000000E+00  0.40129442448E+02  0.40129442448E+02  0.00000000000E+00 0.  1.
         21   -1    0    0  504  502 -0.00000000000E+00 -0.00000000000E+00 -0.29821316195E+03  0.29821316195E+03  0.00000000000E+00 0.  1.
         21    1    1    2  503  501  0.70453668860E+02 -0.83668603441E+02 -0.13170840115E+03  0.17120530830E+03  0.00000000000E+00 0.  1.
         21    1    1    2  504  503 -0.70453668860E+02  0.83668603441E+02 -0.12637531835E+03  0.16713729610E+03  0.00000000000E+00 0.  1.
<mgrwt>
<rscale>  2 0.10938078E+03</rscale>
<asrwt>0</asrwt>
<pdfrwt beam="1">  1       21 0.61737604E-02 0.10938078E+03</pdfrwt>
<pdfrwt beam="2">  1       21 0.45878948E-01 0.10938078E+03</pdfrwt>
<totfact> 0.85737566E+05</totfact>
</mgrwt>
</event>
<event>
 4    1  0.6055396E+003  0.1043988E+03  0.7546771E-02  0.1271309E+00
         21   -1    0    0  502  501  0.00000000000E+00  0.00000000000E+00  0.26545132551E+03  0.26545132551E+03  0.00000000000E+00 0.  1.
         21   -1    0    0  504  502 -0.00000000000E+00 -0.00000000000E+00 -0.19842691560E+03  0.19842691560E+03  0.00000000000E+00 0.  1.
         21    1    1    2  503  501 -0.65525658104E+02 -0.81274159476E+02  0.24006551070E+03  0.26178340340E+03  0.00000000000E+00 0.  1.
         21    1    1    2  504  503  0.65525658104E+02  0.81274159476E+02 -0.17304110079E+03  0.20209483772E+03  0.00000000000E+00 0.  1.
<mgrwt>
<rscale>  2 0.10439876E+03</rscale>
<asrwt>0</asrwt>
<pdfrwt beam="1">  1       21 0.40838665E-01 0.10439876E+03</pdfrwt>
<pdfrwt beam="2">  1       21 0.30527218E-01 0.10439876E+03</pdfrwt>
<totfact> 0.62123016E+04</totfact>
</mgrwt>
</event>
<event>
 4    1  0.6055396E+003  0.1028756E+03  0.7546771E-02  0.1274363E+00
         21   -1    0    0  502  501  0.00000000000E+00  0.00000000000E+00  0.13148192120E+04  0.13148192120E+04  0.00000000000E+00 0.  1.
         21   -1    0    0  504  502 -0.00000000000E+00 -0.00000000000E+00 -0.81512815138E+03  0.81512815138E+03  0.00000000000E+00 0.  1.
         21    1    1    2  503  501 -0.12539519957E+02 -0.10210852918E+03  0.13095479094E+04  0.13135825510E+04  0.00000000000E+00 0.  1.
         21    1    1    2  504  503  0.12539519957E+02  0.10210852918E+03 -0.80985684880E+03  0.81636481235E+03  0.00000000000E+00 0.  1.
<mgrwt>
<rscale>  2 0.10287561E+03</rscale>
<asrwt>0</asrwt>
<pdfrwt beam="1">  1       21 0.20227988E+00 0.10287561E+03</pdfrwt>
<pdfrwt beam="2">  1       21 0.12540433E+00 0.10287561E+03</pdfrwt>
<totfact> 0.73733256E+01</totfact>
</mgrwt>
</event>
<event>
 4    1  0.6055396E+003  0.1182049E+03  0.7546771E-02  0.1246088E+00
         21   -1    0    0  503  501  0.00000000000E+00  0.00000000000E+00  0.10218112217E+04  0.10218112217E+04  0.00000000000E+00 0. -1.
         21   -1    0    0  504  502 -0.00000000000E+00 -0.00000000000E+00 -0.16741399899E+02  0.16741399899E+02  0.00000000000E+00 0. -1.
         21    1    1    2  503  502 -0.11177476436E+03  0.38455099515E+02  0.72480330462E+03  0.73437880077E+03  0.00000000000E+00 0. -1.
         21    1    1    2  504  501  0.11177476436E+03 -0.38455099515E+02  0.28026651717E+03  0.30417382082E+03  0.00000000000E+00 0. -1.
<mgrwt>
<rscale>  2 0.11820488E+03</rscale>
<asrwt>0</asrwt>
<pdfrwt beam="1">  1       21 0.15720168E+00 0.11820488E+03</pdfrwt>
<pdfrwt beam="2">  1       21 0.25756008E-02 0.11820488E+03</pdfrwt>
<totfact> 0.22137248E+05</totfact>
</mgrwt>
</event>
<event>
 4    1  0.6055396E+003  0.1051599E+03  0.7546771E-02  0.1269805E+00
         21   -1    0    0  504  501  0.00000000000E+00  0.00000000000E+00  0.21358702851E+02  0.21358702851E+02  0.00000000000E+00 0.  1.
         21   -1    0    0  503  502 -0.00000000000E+00 -0.00000000000E+00 -0.11046557935E+04  0.11046557935E+04  0.00000000000E+00 0.  1.
         21    1    1    2  503  501 -0.47231768915E+02 -0.93956236453E+02 -0.95202474803E+03  0.95781508404E+03  0.00000000000E+00 0.  1.
         21    1    1    2  504  502  0.47231768915E+02  0.93956236453E+02 -0.13127234262E+03  0.16819941231E+03  0.00000000000E+00 0.  1.
<mgrwt>
<rscale>  2 0.10515995E+03</rscale>
<asrwt>0</asrwt>
<pdfrwt beam="1">  1       21 0.32859532E-02 0.10515995E+03</pdfrwt>
<pdfrwt beam="2">  1       21 0.16994710E+00 0.10515995E+03</pdfrwt>
<totfact> 0.12185765E+05</totfact>
</mgrwt>
</event>
<event>
 4    1  0.6055396E+003  0.1023855E+03  0.7546771E-02  0.1275358E+00
         21   -1    0    0  503  501  0.00000000000E+00  0.00000000000E+00  0.68314197261E+02  0.68314197261E+02  0.00000000000E+00 0. -1.
         21   -1    0    0  504  502 -0.00000000000E+00 -0.00000000000E+00 -0.23312806368E+03  0.23312806368E+03  0.00000000000E+00 0.  1.
         21    1    1    2  503  502  0.99001970019E+02 -0.26103457790E+02 -0.17052147081E+03  0.19889784459E+03  0.00000000000E+00 0.  1.
         21    1    1    2  504  501 -0.99001970019E+02  0.26103457790E+02  0.57076043908E+01  0.10254441635E+03  0.00000000000E+00 0. -1.
<mgrwt>
<rscale>  2 0.10238545E+03</rscale>
<asrwt>0</asrwt>
<pdfrwt beam="1">  1       21 0.10509876E-01 0.10238545E+03</pdfrwt>
<pdfrwt beam="2">  1       21 0.35865857E-01 0.10238545E+03</pdfrwt>
<totfact> 0.56157078E+05</totfact>
</mgrwt>
</event>
<event>
 4    1  0.6055396E+003  0.1027188E+03  0.7546771E-02  0.1274680E+00
         21   -1    0    0  503  501  0.00000000000E+00  0.00000000000E+00  0.19927789833E+03  0.19927789833E+03  0.00000000000E+00 0.  1.
         21   -1    0    0  504  502 -0.00000000000E+00 -0.00000000000E+00 -0.14083794571E+03  0.14083794571E+03  0.00000000000E+00 0.  1.
         21    1    1    2  503  502 -0.93753609104E+02 -0.41969262447E+02 -0.10512121754E+03  0.14697492503E+03  0.00000000000E+00 0.  1.
         21    1    1    2  504  501  0.93753609104E+02  0.41969262447E+02  0.16356117016E+03  0.19314091901E+03  0.00000000000E+00 0.  1.
<mgrwt>
<rscale>  2 0.10271883E+03</rscale>
<asrwt>0</asrwt>
<pdfrwt beam="1">  1       21 0.30658138E-01 0.10271883E+03</pdfrwt>
<pdfrwt beam="2">  1       21 0.21667376E-01 0.10271883E+03</pdfrwt>
<totfact> 0.20785004E+05</totfact>
</mgrwt>
</event>
<event>
 4    1  0.6055396E+003  0.1653971E+03  0.7546771E-02  0.1182735E+00
         21   -1    0    0  502  501  0.00000000000E+00  0.00000000000E+00  0.18974779408E+03  0.18974779408E+03  0.00000000000E+00 0. -1.
         21   -1    0    0  503  502 -0.00000000000E+00 -0.00000000000E+00 -0.17348191634E+03  0.17348191634E+03  0.00000000000E+00 0. -1.
         21    1    1    2  503  504 -0.57473049370E+02  0.15509049335E+03 -0.66518074671E+02  0.17827189007E+03  0.00000000000E+00 0. -1.
         21    1    1    2  504  501  0.57473049370E+02 -0.15509049335E+03  0.82783952415E+02  0.18495782035E+03  0.00000000000E+00 0. -1.
<mgrwt>
<rscale>  2 0.16539714E+03</rscale>
<asrwt>0</asrwt>
<pdfrwt beam="1">  1       21 0.29191968E-01 0.16539714E+03</pdfrwt>
<pdfrwt beam="2">  1       21 0.26689526E-01 0.16539714E+03</pdfrwt>
<totfact> 0.15152890E+05</totfact>
</mgrwt>
</event>
<event>
 4    1  0.6055396E+003  0.1516018E+03  0.7546771E-02  0.1198518E+00
         21   -1    0    0  504  501  0.00000000000E+00  0.00000000000E+00  0.16792181069E+03  0.16792181069E+03  0.00000000000E+00 0. -1.
         21   -1    0    0  503  502 -0.00000000000E+00 -0.00000000000E+00 -0.17168527576E+03  0.17168527576E+03  0.00000000000E+00 0.  1.
         21    1    1    2  503  501 -0.12336130633E+03  0.88119741442E+02 -0.78349501786E+02  0.17065094539E+03  0.00000000000E+00 0.  1.
         21    1    1    2  504  502  0.12336130633E+03 -0.88119741442E+02  0.74586036713E+02  0.16895614107E+03  0.00000000000E+00 0. -1.
<mgrwt>
<rscale>  2 0.15160178E+03</rscale>
<asrwt>0</asrwt>
<pdfrwt beam="1">  1       21 0.25834125E-01 0.15160178E+03</pdfrwt>
<pdfrwt beam="2">  1       21 0.26413119E-01 0.15160178E+03</pdfrwt>
<totfact> 0.19622039E+05</totfact>
</mgrwt>
</event>
<event>
 4    1  0.6055396E+003  0.1131390E+03  0.7546771E-02  0.1254865E+00
         21   -1    0    0  503  501  0.00000000000E+00  0.00000000000E+00  0.44295724666E+03  0.44295724666E+03  0.00000000000E+00 0. -1.
         21   -1    0    0  501  502 -0.00000000000E+00 -0.00000000000E+00 -0.32256586946E+02  0.32256586946E+02  0.00000000000E+00 0. -1.
         21    1    1    2  503  504 -0.26392764429E+02 -0.11001748405E+03  0.28202476827E+03  0.30387233294E+03  0.00000000000E+00 0. -1.
         21    1    1    2  504  502  0.26392764429E+02  0.11001748405E+03  0.12867589145E+03  0.17134150067E+03  0.00000000000E+00 0. -1.
<mgrwt>
<rscale>  2 0.11313896E+03</rscale>
<asrwt>0</asrwt>
<pdfrwt beam="1">  1       21 0.68147264E-01 0.11313896E+03</pdfrwt>
<pdfrwt beam="2">  1       21 0.49625522E-02 0.11313896E+03</pdfrwt>
<totfact> 0.54103577E+05</totfact>
</mgrwt>
</event>
<event>
 4    1  0.6055396E+003  0.1269066E+03  0.7546771E-02  0.1232119E+00
         21   -1    0    0  504  501  0.00000000000E+00  0.00000000000E+00  0.53425407578E+02  0.53425407578E+02  0.00000000000E+00 0. -1.
         21   -1    0    0  503  502 -0.00000000000E+00 -0.00000000000E+00 -0.14411547544E+04  0.14411547544E+04  0.00000000000E+00 0.  1.
         21    1    1    2  503  501  0.12319353859E+03  0.30473410278E+02 -0.13584173621E+04  0.13643324398E+04  0.00000000000E+00 0.  1.
         21    1    1    2  504  502 -0.12319353859E+03 -0.30473410278E+02 -0.29311984746E+02  0.13024772218E+03  0.00000000000E+00 0. -1.
<mgrwt>
<rscale>  2 0.12690657E+03</rscale>
<asrwt>0</asrwt>
<pdfrwt beam="1">  1       21 0.82192953E-02 0.12690657E+03</pdfrwt>
<pdfrwt beam="2">  1       21 0.22171607E+00 0.12690657E+03</pdfrwt>
<totfact> 0.12004274E+04</totfact>
</mgrwt>
</event>
<event>
 4    1  0.6055396E+003  0.1377876E+03  0.7546771E-02  0.1216337E+00
         21   -1    0    0  503  501  0.00000000000E+00  0.00000000000E+00  0.21553868817E+03  0.21553868817E+03  0.00000000000E+00 0. -1.
         21   -1    0    0  504  502 -0.00000000000E+00 -0.00000000000E+00 -0.17315684347E+03  0.17315684347E+03  0.00000000000E+00 0.  1.
         21    1    1    2  503  502  0.36579315512E+02  0.13284339291E+03 -0.11503392780E+03  0.17949433949E+03  0.00000000000E+00 0.  1.
         21    1    1    2  504  501 -0.36579315512E+02 -0.13284339291E+03  0.15741577251E+03  0.20920119215E+03  0.00000000000E+00 0. -1.
<mgrwt>
<rscale>  2 0.13778757E+03</rscale>
<asrwt>0</asrwt>
<pdfrwt beam="1">  1       21 0.33159798E-01 0.13778757E+03</pdfrwt>
<pdfrwt beam="2">  1       21 0.26639514E-01 0.13778757E+03</pdfrwt>
<totfact> 0.11974935E+05</totfact>
</mgrwt>
</event>
<event>
 4    1  0.6055396E+003  0.1313942E+03  0.7546771E-02  0.1225401E+00
         21   -1    0    0  503  501  0.00000000000E+00  0.00000000000E+00  0.20775896418E+03  0.20775896418E+03  0.00000000000E+00 0.  1.
         21   -1    0    0  504  502 -0.00000000000E+00 -0.00000000000E+00 -0.17780802436E+03  0.17780802436E+03  0.00000000000E+00 0. -1.
         21    1    1    2  503  502  0.84661931962E+02  0.10048284431E+03  0.15567451403E+03  0.20371303111E+03  0.00000000000E+00 0.  1.
         21    1    1    2  504  501 -0.84661931962E+02 -0.10048284431E+03 -0.12572357421E+03  0.18185395744E+03  0.00000000000E+00 0. -1.
<mgrwt>
<rscale>  2 0.13139423E+03</rscale>
<asrwt>0</asrwt>
<pdfrwt beam="1">  1       21 0.31962918E-01 0.13139423E+03</pdfrwt>
<pdfrwt beam="2">  1       21 0.27355081E-01 0.13139423E+03</pdfrwt>
<totfact> 0.12258567E+05</totfact>
</mgrwt>
</event>
<event>
 4    1  0.6055396E+003  0.1092726E+03  0.7546771E-02  0.1261923E+00
         21   -1    0    0  503  501  0.00000000000E+00  0.00000000000E+00  0.11175943901E+03  0.11175943901E+03  0.00000000000E+00 0.  1.
         21   -1    0    0  504  502 -0.00000000000E+00 -0.00000000000E+00 -0.12417020009E+03  0.12417020009E+03  0.00000000000E+00 0. -1.
         21    1    1    2  503  502 -0.32698291620E+00 -0.10927207592E+03 -0.50274331115E+02  0.12028300737E+03  0.00000000000E+00 0. -1.
         21    1    1    2  504  501  0.32698291620E+00  0.10927207592E+03  0.37863570043E+02  0.11564663173E+03  0.00000000000E+00 0.  1.
<mgrwt>
<rscale>  2 0.10927257E+03</rscale>
<asrwt>0</asrwt>
<pdfrwt beam="1">  1       21 0.17193760E-01 0.10927257E+03</pdfrwt>
<pdfrwt beam="2">  1       21 0.19103108E-01 0.10927257E+03</pdfrwt>
<totfact> 0.77046675E+05</totfact>
</mgrwt>
</event>
<event>
 4    1  0.6055396E+003  0.1754459E+03  0.7546771E-02  0.1172285E+00
         21   -1    0    0  502  501  0.00000000000E+00  0.00000000000E+00  0.12322040471E+02  0.12322040471E+02  0.00000000000E+00 0.  1.
         21   -1    0    0  503  502 -0.00000000000E+00 -0.00000000000E+00 -0.25111638278E+04  0.25111638278E+04  0.00000000000E+00 0.  1.
         21    1    1    2  503  504  0.15984782967E+03 -0.72318399716E+02 -0.11582994547E+04  0.11715113770E+04  0.00000000000E+00 0.  1.
         21    1    1    2  504  501 -0.15984782967E+03  0.72318399716E+02 -0.13405423326E+04  0.13519744913E+04  0.00000000000E+00 0.  1.
<mgrwt>
<rscale>  2 0.17544594E+03</rscale>
<asrwt>0</asrwt>
<pdfrwt beam="1">  1       21 0.18957004E-02 0.17544594E+03</pdfrwt>
<pdfrwt beam="2">  1       21 0.38633252E+00 0.17544594E+03</pdfrwt>
<totfact> 0.14525333E+04</totfact>
</mgrwt>
</event>
<event>
 4    1  0.6055396E+003  0.1210212E+03  0.7546771E-02  0.1241422E+00
         21   -1    0    0  504  501  0.00000000000E+00  0.00000000000E+00  0.12210445286E+03  0.12210445286E+03  0.00000000000E+00 0.  1.
         21   -1    0    0  503  502 -0.00000000000E+00 -0.00000000000E+00 -0.31677673666E+03  0.31677673666E+03  0.00000000000E+00 0.  1.
         21    1    1    2  503  501 -0.10206696126E+03 -0.65026585166E+02 -0.27031186633E+03  0.29616655185E+03  0.00000000000E+00 0.  1.
         21    1    1    2  504  502  0.10206696126E+03  0.65026585166E+02  0.75639582528E+02  0.14271463766E+03  0.00000000000E+00 0.  1.
<mgrwt>
<rscale>  2 0.12102116E+03</rscale>
<asrwt>0</asrwt>
<pdfrwt beam="1">  1       21 0.18785301E-01 0.12102116E+03</pdfrwt>
<pdfrwt beam="2">  1       21 0.48734882E-01 0.12102116E+03</pdfrwt>
<totfact> 0.10714306E+05</totfact>
</mgrwt>
</event>
<event>
 4    1  0.6055396E+003  0.1070788E+03  0.7546771E-02  0.1266077E+00
         21   -1    0    0  504  501  0.00000000000E+00  0.00000000000E+00  0.30130866145E+03  0.30130866145E+03  0.00000000000E+00 0. -1.
         21   -1    0    0  503  502 -0.00000000000E+00 -0.00000000000E+00 -0.48385178522E+02  0.48385178522E+02  0.00000000000E+00 0.  1.
         21    1    1    2  503  501  0.10617602583E+03 -0.13875246515E+02  0.45666508877E+02  0.11641005524E+03  0.00000000000E+00 0.  1.
         21    1    1    2  504  502 -0.10617602583E+03  0.13875246515E+02  0.20725697405E+03  0.23328378473E+03  0.00000000000E+00 0. -1.
<mgrwt>
<rscale>  2 0.10707881E+03</rscale>
<asrwt>0</asrwt>
<pdfrwt beam="1">  1       21 0.46355178E-01 0.10707881E+03</pdfrwt>
<pdfrwt beam="2">  1       21 0.74438738E-02 0.10707881E+03</pdfrwt>
<totfact> 0.61081033E+05</totfact>
</mgrwt>
</event>
<event>
 4    1  0.6055396E+003  0.1488810E+03  0.7546771E-02  0.1201855E+00
         21   -1    0    0  504  501  0.00000000000E+00  0.00000000000E+00  0.13310368703E+03  0.13310368703E+03  0.00000000000E+00 0. -1.
         21   -1    0    0  503  502 -0.00000000000E+00 -0.00000000000E+00 -0.25665831294E+03  0.25665831294E+03  0.00000000000E+00 0. -1.
         21    1    1    2  503  501 -0.14802102167E+03 -0.15979375594E+02  0.53707788137E+02  0.15827220163E+03  0.00000000000E+00 0. -1.
         21    1    1    2  504  502  0.14802102167E+03  0.15979375594E+02 -0.17726241405E+03  0.23148979834E+03  0.00000000000E+00 0. -1.
<mgrwt>
<rscale>  2 0.14888104E+03</rscale>
<asrwt>0</asrwt>
<pdfrwt beam="1">  1       21 0.20477491E-01 0.14888104E+03</pdfrwt>
<pdfrwt beam="2">  1       21 0.39485894E-01 0.14888104E+03</pdfrwt>
<totfact> 0.13858398E+05</totfact>
</mgrwt>
</event>
<event>
 4    1  0.6055396E+003  0.1207773E+03  0.7546771E-02  0.1241820E+00
         21   -1    0    0  503  501  0.00000000000E+00  0.00000000000E+00  0.23515249581E+03  0.23515249581E+03  0.00000000000E+00 0.  1.
         21   -1    0    0  504  502 -0.00000000000E+00 -0.00000000000E+00 -0.14362334331E+03  0.14362334331E+03  0.00000000000E+00 0.  1.
         21    1    1    2  503  502 -0.63919240389E+02  0.10247674171E+03  0.18850922927E+03  0.22388140031E+03  0.00000000000E+00 0.  1.
         21    1    1    2  504  501  0.63919240389E+02 -0.10247674171E+03 -0.96980076779E+02  0.15489443881E+03  0.00000000000E+00 0.  1.
<mgrwt>
<rscale>  2 0.12077728E+03</rscale>
<asrwt>0</asrwt>
<pdfrwt beam="1">  1       21 0.36177307E-01 0.12077728E+03</pdfrwt>
<pdfrwt beam="2">  1       21 0.22095899E-01 0.12077728E+03</pdfrwt>
<totfact> 0.14442939E+05</totfact>
</mgrwt>
</event>
<event>
 4    1  0.6055396E+003  0.1000295E+03  0.7546771E-02  0.1280234E+00
         21   -1    0    0  504  501  0.00000000000E+00  0.00000000000E+00  0.38451070520E+03  0.38451070520E+03  0.00000000000E+00 0. -1.
         21   -1    0    0  501  502 -0.00000000000E+00 -0.00000000000E+00 -0.26141317965E+02  0.26141317965E+02  0.00000000000E+00 0. -1.
         21    1    1    2  503  502 -0.63743123768E+01 -0.99826154791E+02  0.16533640634E+03  0.19324083497E+03  0.00000000000E+00 0. -1.
         21    1    1    2  504  503  0.63743123768E+01  0.99826154791E+02  0.19303298089E+03  0.21741118819E+03  0.00000000000E+00 0. -1.
<mgrwt>
<rscale>  2 0.10002946E+03</rscale>
<asrwt>0</asrwt>
<pdfrwt beam="1">  1       21 0.59155489E-01 0.10002946E+03</pdfrwt>
<pdfrwt beam="2">  1       21 0.40217415E-02 0.10002946E+03</pdfrwt>
<totfact> 0.10372436E+06</totfact>
</mgrwt>
</event>
<event>
 4    1  0.6055396E+003  0.1299064E+03  0.7546771E-02  0.1227595E+00
         21   -1    0    0  503  501  0.00000000000E+00  0.00000000000E+00  0.33116142710E+03  0.33116142710E+03  0.00000000000E+00 0. -1.
         21   -1    0    0  504  502 -0.00000000000E+00 -0.00000000000E+00 -0.57330222154E+02  0.57330222154E+02  0.00000000000E+00 0.  1.
         21    1    1    2  503  502  0.81964091061E+02  0.10078475073E+03  0.20166994273E+03  0.23988839906E+03  0.00000000000E+00 0. -1.
         21    1    1    2  504  501 -0.81964091061E+02 -0.10078475073E+03  0.72161262222E+02  0.14860325020E+03  0.00000000000E+00 0.  1.
<mgrwt>
<rscale>  2 0.12990642E+03</rscale>
<asrwt>0</asrwt>
<pdfrwt beam="1">  1       21 0.50947911E-01 0.12990642E+03</pdfrwt>
<pdfrwt beam="2">  1       21 0.88200344E-02 0.12990642E+03</pdfrwt>
<totfact> 0.37508264E+05</totfact>
</mgrwt>
</event>
<event>
 4    1  0.6055396E+003  0.1072202E+03  0.7546771E-02  0.1265806E+00
         21   -1    0    0  504  501  0.00000000000E+00  0.00000000000E+00  0.30880914819E+02  0.30880914819E+02  0.00000000000E+00 0. -1.
         21   -1    0    0  501  502 -0.00000000000E+00 -0.00000000000E+00 -0.59458669707E+03  0.59458669707E+03  0.00000000000E+00 0. -1.
         21    1    1    2  503  502  0.24089193070E+02 -0.10447911816E+03 -0.47307977031E+03  0.48507797768E+03  0.00000000000E+00 0. -1.
         21    1    1    2  504  503 -0.24089193070E+02  0.10447911816E+03 -0.90626011947E+02  0.14038963421E+03  0.00000000000E+00 0. -1.
<mgrwt>
<rscale>  2 0.10722022E+03</rscale>
<asrwt>0</asrwt>
<pdfrwt beam="1">  1       21 0.47509097E-02 0.10722022E+03</pdfrwt>
<pdfrwt beam="2">  1       21 0.91474881E-01 0.10722022E+03</pdfrwt>
<totfact> 0.30306452E+05</totfact>
</mgrwt>
</event>
<event>
 4    1  0.6055396E+003  0.1137677E+03  0.7546771E-02  0.1253748E+00
         21   -1    0    0  504  501  0.00000000000E+00  0.00000000000E+00  0.14018076721E+03  0.14018076721E+03  0.00000000000E+00 0.  1.
         21   -1    0    0  503  502 -0.00000000000E+00 -0.00000000000E+00 -0.11433198598E+03  0.11433198598E+03  0.00000000000E+00 0.  1.
         21    1    1    2  503  501  0.57419500149E+02  0.98214536625E+02  0.68747273437E+02  0.13292585078E+03  0.00000000000E+00 0.  1.
         21    1    1    2  504  502 -0.57419500149E+02 -0.98214536625E+02 -0.42898492212E+02  0.12158690240E+03  0.00000000000E+00 0.  1.
<mgrwt>
<rscale>  2 0.11376772E+03</rscale>
<asrwt>0</asrwt>
<pdfrwt beam="1">  1       21 0.21566272E-01 0.11376772E+03</pdfrwt>
<pdfrwt beam="2">  1       21 0.17589536E-01 0.11376772E+03</pdfrwt>
<totfact> 0.59109283E+05</totfact>
</mgrwt>
</event>
<event>
 4    1  0.6055396E+003  0.1558738E+03  0.7546771E-02  0.1193436E+00
         21   -1    0    0  503  501  0.00000000000E+00  0.00000000000E+00  0.40184987234E+02  0.40184987234E+02  0.00000000000E+00 0. -1.
         21   -1    0    0  504  502 -0.00000000000E+00 -0.00000000000E+00 -0.13588031469E+04  0.13588031469E+04  0.00000000000E+00 0.  1.
         21    1    1    2  503  502  0.55865451842E+02 -0.14551870859E+03 -0.11804368319E+04  0.11906837352E+04  0.00000000000E+00 0.  1.
         21    1    1    2  504  501 -0.55865451842E+02  0.14551870859E+03 -0.13818132780E+03  0.20830439893E+03  0.00000000000E+00 0. -1.
<mgrwt>
<rscale>  2 0.15587381E+03</rscale>
<asrwt>0</asrwt>
<pdfrwt beam="1">  1       21 0.61823057E-02 0.15587381E+03</pdfrwt>
<pdfrwt beam="2">  1       21 0.20904664E+00 0.15587381E+03</pdfrwt>
<totfact> 0.22709538E+04</totfact>
</mgrwt>
</event>
<event>
 4    1  0.6055396E+003  0.1253896E+03  0.7546771E-02  0.1234462E+00
         21   -1    0    0  503  501  0.00000000000E+00  0.00000000000E+00  0.10006263444E+04  0.10006263444E+04  0.00000000000E+00 0.  1.
         21   -1    0    0  504  502 -0.00000000000E+00 -0.00000000000E+00 -0.30740203583E+02  0.30740203583E+02  0.00000000000E+00 0. -1.
         21    1    1    2  503  502 -0.63564610377E+02 -0.10808369284E+03  0.84549934318E+03  0.85474656107E+03  0.00000000000E+00 0.  1.
         21    1    1    2  504  501  0.63564610377E+02  0.10808369284E+03  0.12438679765E+03  0.17661998692E+03  0.00000000000E+00 0. -1.
<mgrwt>
<rscale>  2 0.12538957E+03</rscale>
<asrwt>0</asrwt>
<pdfrwt beam="1">  1       21 0.15394249E+00 0.12538957E+03</pdfrwt>
<pdfrwt beam="2">  1       21 0.47292629E-02 0.12538957E+03</pdfrwt>
<totfact> 0.85524410E+04</totfact>
</mgrwt>
</event>
<event>
 4    1  0.6055396E+003  0.1662694E+03  0.7546771E-02  0.1181795E+00
         21   -1    0    0  503  501  0.00000000000E+00  0.00000000000E+00  0.33586609858E+03  0.33586609858E+03  0.00000000000E+00 0.  1.
         21   -1    0    0  504  502 -0.00000000000E+00 -0.00000000000E+00 -0.27721103337E+03  0.27721103337E+03  0.00000000000E+00 0.  1.
         21    1    1    2  503  502 -0.16145254878E+03 -0.39731649331E+02  0.28635861180E+03  0.33112955775E+03  0.00000000000E+00 0.  1.
         21    1    1    2  504  501  0.16145254878E+03  0.39731649331E+02 -0.22770354659E+03  0.28194757419E+03  0.00000000000E+00 0.  1.
<mgrwt>
<rscale>  2 0.16626945E+03</rscale>
<asrwt>0</asrwt>
<pdfrwt beam="1">  1       21 0.51671707E-01 0.16626945E+03</pdfrwt>
<pdfrwt beam="2">  1       21 0.42647851E-01 0.16626945E+03</pdfrwt>
<totfact> 0.19125754E+04</totfact>
</mgrwt>
</event>
<event>
 4    1  0.6055396E+003  0.1015515E+03  0.7546771E-02  0.1277067E+00
         21   -1    0    0  504  501  0.00000000000E+00  0.00000000000E+00  0.10950603142E+04  0.10950603142E+04  0.00000000000E+00 0. -1.
         21   -1    0    0  503  502 -0.00000000000E+00 -0.00000000000E+00 -0.10878313739E+02  0.10878313739E+02  0.00000000000E+00 0. -1.
         21    1    1    2  503  501 -0.73618784528E+02  0.69949908295E+02  0.74472847035E+03  0.75162038933E+03  0.00000000000E+00 0. -1.
         21    1    1    2  504  502  0.73618784528E+02 -0.69949908295E+02  0.33945353006E+03  0.35431823856E+03  0.00000000000E+00 0. -1.
<mgrwt>
<rscale>  2 0.10155154E+03</rscale>
<asrwt>0</asrwt>
<pdfrwt beam="1">  1       21 0.16847073E+00 0.10155154E+03</pdfrwt>
<pdfrwt beam="2">  1       21 0.16735876E-02 0.10155154E+03</pdfrwt>
<totfact> 0.37163735E+05</totfact>
</mgrwt>
</event>
<event>
 4    1  0.6055396E+003  0.1026528E+03  0.7546771E-02  0.1274814E+00
         21   -1    0    0  504  501  0.00000000000E+00  0.00000000000E+00  0.43098146356E+02  0.43098146356E+02  0.00000000000E+00 0. -1.
         21   -1    0    0  503  502 -0.00000000000E+00 -0.00000000000E+00 -0.27096845101E+03  0.27096845101E+03  0.00000000000E+00 0. -1.
         21    1    1    2  503  501  0.74028854719E+02  0.71114924154E+02 -0.64858346778E+02  0.12142573416E+03  0.00000000000E+00 0. -1.
         21    1    1    2  504  502 -0.74028854719E+02 -0.71114924154E+02 -0.16301195788E+03  0.19264086321E+03  0.00000000000E+00 0. -1.
<mgrwt>
<rscale>  2 0.10265283E+03</rscale>
<asrwt>0</asrwt>
<pdfrwt beam="1">  1       21 0.66304840E-02 0.10265283E+03</pdfrwt>
<pdfrwt beam="2">  1       21 0.41687454E-01 0.10265283E+03</pdfrwt>
<totfact> 0.92075192E+05</totfact>
</mgrwt>
</event>
<event>
 4    1  0.6055396E+003  0.1308462E+03  0.7546771E-02  0.1226206E+00
         21   -1    0    0  503  501  0.00000000000E+00  0.00000000000E+00  0.16548435964E+02  0.16548435964E+02  0.00000000000E+00 0. -1.
         21   -1    0    0  504  502 -0.00000000000E+00 -0.00000000000E+00 -0.10560643405E+04  0.10560643405E+04  0.00000000000E+00 0. -1.
         21    1    1    2  503  502  0.76639717972E+02  0.10605221727E+03 -0.59624808482E+03  0.61043631757E+03  0.00000000000E+00 0. -1.
         21    1    1    2  504  501 -0.76639717972E+02 -0.10605221727E+03 -0.44326781971E+03  0.46217645888E+03  0.00000000000E+00 0. -1.
<mgrwt>
<rscale>  2 0.13084617E+03</rscale>
<asrwt>0</asrwt>
<pdfrwt beam="1">  1       21 0.25459141E-02 0.13084617E+03</pdfrwt>
<pdfrwt beam="2">  1       21 0.16247138E+00 0.13084617E+03</pdfrwt>
<totfact> 0.20557776E+05</totfact>
</mgrwt>
</event>
<event>
 4    1  0.6055396E+003  0.1093281E+03  0.7546771E-02  0.1261819E+00
         21   -1    0    0  504  501  0.00000000000E+00  0.00000000000E+00  0.55927511425E+02  0.55927511425E+02  0.00000000000E+00 0. -1.
         21   -1    0    0  503  502 -0.00000000000E+00 -0.00000000000E+00 -0.21593727199E+03  0.21593727199E+03  0.00000000000E+00 0. -1.
         21    1    1    2  503  501 -0.70073188937E+02 -0.83918923292E+02 -0.93789713795E+02  0.14404564522E+03  0.00000000000E+00 0. -1.
         21    1    1    2  504  502  0.70073188937E+02  0.83918923292E+02 -0.66220046775E+02  0.12781913820E+03  0.00000000000E+00 0. -1.
<mgrwt>
<rscale>  2 0.10932812E+03</rscale>
<asrwt>0</asrwt>
<pdfrwt beam="1">  1       21 0.86042326E-02 0.10932812E+03</pdfrwt>
<pdfrwt beam="2">  1       21 0.33221118E-01 0.10932812E+03</pdfrwt>
<totfact> 0.92291384E+05</totfact>
</mgrwt>
</event>
<event>
 4    1  0.6055396E+003  0.1121796E+03  0.7546771E-02  0.1256586E+00
         21   -1    0    0  504  501  0.00000000000E+00  0.00000000000E+00  0.67491051510E+02  0.67491051510E+02  0.00000000000E+00 0.  1.
         21   -1    0    0  503  502 -0.00000000000E+00 -0.00000000000E+00 -0.55235458214E+03  0.55235458214E+03  0.00000000000E+00 0.  1.
         21    1    1    2  503  501  0.72163594355E+02 -0.85887643043E+02  0.98137918846E+01  0.11260809069E+03  0.00000000000E+00 0.  1.
         21    1    1    2  504  502 -0.72163594355E+02  0.85887643043E+02 -0.49467732252E+03  0.50723754296E+03  0.00000000000E+00 0.  1.
<mgrwt>
<rscale>  2 0.11217964E+03</rscale>
<asrwt>0</asrwt>
<pdfrwt beam="1">  1       21 0.10383238E-01 0.11217964E+03</pdfrwt>
<pdfrwt beam="2">  1       21 0.84977630E-01 0.11217964E+03</pdfrwt>
<totfact> 0.94249232E+04</totfact>
</mgrwt>
</event>
<event>
 4    1  0.6055396E+003  0.1319192E+03  0.7546771E-02  0.1224636E+00
         21   -1    0    0  503  501  0.00000000000E+00  0.00000000000E+00  0.16308882001E+03  0.16308882001E+03  0.00000000000E+00 0. -1.
         21   -1    0    0  504  502 -0.00000000000E+00 -0.00000000000E+00 -0.49374525616E+03  0.49374525616E+03  0.00000000000E+00 0.  1.
         21    1    1    2  503  502 -0.11421925387E+03  0.66004759447E+02 -0.45609938520E+03  0.47479397154E+03  0.00000000000E+00 0.  1.
         21    1    1    2  504  501  0.11421925387E+03 -0.66004759447E+02  0.12544294906E+03  0.18204010463E+03  0.00000000000E+00 0. -1.
<mgrwt>
<rscale>  2 0.13191917E+03</rscale>
<asrwt>0</asrwt>
<pdfrwt beam="1">  1       21 0.25090588E-01 0.13191917E+03</pdfrwt>
<pdfrwt beam="2">  1       21 0.75960808E-01 0.13191917E+03</pdfrwt>
<totfact> 0.24144416E+04</totfact>
</mgrwt>
</event>
<event>
 4    1  0.6055396E+003  0.1162908E+03  0.7546771E-02  0.1249345E+00
         21   -1    0    0  503  501  0.00000000000E+00  0.00000000000E+00  0.17554120502E+03  0.17554120502E+03  0.00000000000E+00 0.  1.
         21   -1    0    0  504  502 -0.00000000000E+00 -0.00000000000E+00 -0.82636074615E+02  0.82636074615E+02  0.00000000000E+00 0.  1.
         21    1    1    2  503  502 -0.35078537241E+02  0.11087396211E+03  0.12857210188E+02  0.11699934659E+03  0.00000000000E+00 0.  1.
         21    1    1    2  504  501  0.35078537241E+02 -0.11087396211E+03  0.80047920222E+02  0.14117793305E+03  0.00000000000E+00 0.  1.
<mgrwt>
<rscale>  2 0.11629075E+03</rscale>
<asrwt>0</asrwt>
<pdfrwt beam="1">  1       21 0.27006339E-01 0.11629075E+03</pdfrwt>
<pdfrwt beam="2">  1       21 0.12713242E-01 0.11629075E+03</pdfrwt>
<totfact> 0.69443706E+05</totfact>
</mgrwt>
</event>
<event>
 4    1  0.6055396E+003  0.1178830E+03  0.7546771E-02  0.1246631E+00
         21   -1    0    0  503  501  0.00000000000E+00  0.00000000000E+00  0.19585523231E+02  0.19585523231E+02  0.00000000000E+00 0.  1.
         21   -1    0    0  504  502 -0.00000000000E+00 -0.00000000000E+00 -0.76517408631E+03  0.76517408631E+03  0.00000000000E+00 0.  1.
         21    1    1    2  503  502 -0.10141053928E+03 -0.60102398345E+02 -0.26697616112E+03  0.29184356490E+03  0.00000000000E+00 0.  1.
         21    1    1    2  504  501  0.10141053928E+03  0.60102398345E+02 -0.47861240195E+03  0.49291604464E+03  0.00000000000E+00 0.  1.
<mgrwt>
<rscale>  2 0.11788297E+03</rscale>
<asrwt>0</asrwt>
<pdfrwt beam="1">  1       21 0.30131580E-02 0.11788297E+03</pdfrwt>
<pdfrwt beam="2">  1       21 0.11771907E+00 0.11788297E+03</pdfrwt>
<totfact> 0.35464119E+05</totfact>
</mgrwt>
</event>
<event>
 4    1  0.6055396E+003  0.1379872E+03  0.7546771E-02  0.1216063E+00
         21   -1    0    0  504  501  0.00000000000E+00  0.00000000000E+00  0.91375398265E+02  0.91375398265E+02  0.00000000000E+00 0.  1.
         21   -1    0    0  503  502 -0.00000000000E+00 -0.00000000000E+00 -0.21372572824E+03  0.21372572824E+03  0.00000000000E+00 0.  1.
         21    1    1    2  503  501 -0.25496186438E+02  0.13561122101E+03 -0.37040408420E+02  0.14287214789E+03  0.00000000000E+00 0.  1.
         21    1    1    2  504  502  0.25496186438E+02 -0.13561122101E+03 -0.85309921554E+02  0.16222897861E+03  0.00000000000E+00 0.  1.
<mgrwt>
<rscale>  2 0.13798717E+03</rscale>
<asrwt>0</asrwt>
<pdfrwt beam="1">  1       21 0.14057754E-01 0.13798717E+03</pdfrwt>
<pdfrwt beam="2">  1       21 0.32880881E-01 0.13798717E+03</pdfrwt>
<totfact> 0.39663900E+05</totfact>
</mgrwt>
</event>
<event>
 4    1  0.6055396E+003  0.1966644E+03  0.7546771E-02  0.1152584E+00
         21   -1    0    0  504  501  0.00000000000E+00  0.00000000000E+00  0.93392929695E+02  0.93392929695E+02  0.00000000000E+00 0.  1.
         21   -1    0    0  503  502 -0.00000000000E+00 -0.00000000000E+00 -0.52509754974E+03  0.52509754974E+03  0.00000000000E+00 0. -1.
         21    1    1    2  503  501  0.95595934629E+02 -0.17186715851E+03 -0.35801288211E+03  0.40847292033E+03  0.00000000000E+00 0. -1.
         21    1    1    2  504  502 -0.95595934629E+02  0.17186715851E+03 -0.73691737937E+02  0.21001755910E+03  0.00000000000E+00 0.  1.
<mgrwt>
<rscale>  2 0.19666444E+03</rscale>
<asrwt>0</asrwt>
<pdfrwt beam="1">  1       21 0.14368143E-01 0.19666444E+03</pdfrwt>
<pdfrwt beam="2">  1       21 0.80784239E-01 0.19666444E+03</pdfrwt>
<totfact> 0.56959882E+04</totfact>
</mgrwt>
</event>
<event>
 4    1  0.6055396E+003  0.1490074E+03  0.7546771E-02  0.1201698E+00
         21   -1    0    0  504  501  0.00000000000E+00  0.00000000000E+00  0.43816535989E+03  0.43816535989E+03  0.00000000000E+00 0. -1.
         21   -1    0    0  503  502 -0.00000000000E+00 -0.00000000000E+00 -0.61482938507E+02  0.61482938507E+02  0.00000000000E+00 0. -1.
         21    1    1    2  503  501  0.14468018283E+03 -0.35648907448E+02  0.29309423815E+03  0.32879694698E+03  0.00000000000E+00 0. -1.
         21    1    1    2  504  502 -0.14468018283E+03  0.35648907448E+02  0.83588183239E+02  0.17085135142E+03  0.00000000000E+00 0. -1.
<mgrwt>
<rscale>  2 0.14900738E+03</rscale>
<asrwt>0</asrwt>
<pdfrwt beam="1">  1       21 0.67410053E-01 0.14900738E+03</pdfrwt>
<pdfrwt beam="2">  1       21 0.94589139E-02 0.14900738E+03</pdfrwt>
<totfact> 0.18262469E+05</totfact>
</mgrwt>
</event>
<event>
 4    1  0.6055396E+003  0.1073397E+03  0.7546771E-02  0.1265577E+00
         21   -1    0    0  504  501  0.00000000000E+00  0.00000000000E+00  0.82933702832E+02  0.82933702832E+02  0.00000000000E+00 0.  1.
         21   -1    0    0  503  502 -0.00000000000E+00 -0.00000000000E+00 -0.22924210523E+03  0.22924210523E+03  0.00000000000E+00 0.  1.
         21    1    1    2  503  501 -0.70695892136E+02  0.80770724500E+02  0.24817282083E+02  0.11017130566E+03  0.00000000000E+00 0.  1.
         21    1    1    2  504  502  0.70695892136E+02 -0.80770724500E+02 -0.17112568448E+03  0.20200450240E+03  0.00000000000E+00 0.  1.
<mgrwt>
<rscale>  2 0.10733974E+03</rscale>
<asrwt>0</asrwt>
<pdfrwt beam="1">  1       21 0.12759031E-01 0.10733974E+03</pdfrwt>
<pdfrwt beam="2">  1       21 0.35268015E-01 0.10733974E+03</pdfrwt>
<totfact> 0.41264017E+05</totfact>
</mgrwt>
</event>
<event>
 4    1  0.6055396E+003  0.1016287E+03  0.7546771E-02  0.1276908E+00
         21   -1    0    0  502  501  0.00000000000E+00  0.00000000000E+00  0.14755769594E+02  0.14755769594E+02  0.00000000000E+00 0.  1.
         21   -1    0    0  504  502 -0.00000000000E+00 -0.00000000000E+00 -0.92648800396E+03  0.92648800396E+03  0.00000000000E+00 0.  1.
         21    1    1    2  503  501  0.10030777189E+03  0.16332327551E+02 -0.22315522702E+03  0.24520735995E+03  0.00000000000E+00 0.  1.
         21    1    1    2  504  503 -0.10030777189E+03 -0.16332327551E+02 -0.68857700734E+03  0.69603641361E+03  0.00000000000E+00 0.  1.
<mgrwt>
<rscale>  2 0.10162871E+03</rscale>
<asrwt>0</asrwt>
<pdfrwt beam="1">  1       21 0.22701177E-02 0.10162871E+03</pdfrwt>
<pdfrwt beam="2">  1       21 0.14253666E+00 0.10162871E+03</pdfrwt>
<totfact> 0.35165570E+05</totfact>
</mgrwt>
</event>
<event>
 4    1  0.6055396E+003  0.1146605E+03  0.7546771E-02  0.1252175E+00
         21   -1    0    0  503  501  0.00000000000E+00  0.00000000000E+00  0.39131643188E+02  0.39131643188E+02  0.00000000000E+00 0.  1.
         21   -1    0    0  501  502 -0.00000000000E+00 -0.00000000000E+00 -0.33697344136E+03  0.33697344136E+03  0.00000000000E+00 0.  1.
         21    1    1    2  503  504  0.11424528581E+03 -0.97489263432E+01 -0.13865492371E+03  0.17992280223E+03  0.00000000000E+00 0.  1.
         21    1    1    2  504  502 -0.11424528581E+03  0.97489263432E+01 -0.15918687447E+03  0.19618228232E+03  0.00000000000E+00 0.  1.
<mgrwt>
<rscale>  2 0.11466049E+03</rscale>
<asrwt>0</asrwt>
<pdfrwt beam="1">  1       21 0.60202526E-02 0.11466049E+03</pdfrwt>
<pdfrwt beam="2">  1       21 0.51842069E-01 0.11466049E+03</pdfrwt>
<totfact> 0.69669743E+05</totfact>
</mgrwt>
</event>
<event>
 4    1  0.6055396E+003  0.1018979E+03  0.7546771E-02  0.1276355E+00
         21   -1    0    0  503  501  0.00000000000E+00  0.00000000000E+00  0.14296125546E+03  0.14296125546E+03  0.00000000000E+00 0. -1.
         21   -1    0    0  504  502 -0.00000000000E+00 -0.00000000000E+00 -0.88380912217E+02  0.88380912217E+02  0.00000000000E+00 0. -1.
         21    1    1    2  503  502  0.68599519952E+02  0.75347786948E+02 -0.21542150206E+02  0.10415011940E+03  0.00000000000E+00 0. -1.
         21    1    1    2  504  501 -0.68599519952E+02 -0.75347786948E+02  0.76122493448E+02  0.12719204827E+03  0.00000000000E+00 0. -1.
<mgrwt>
<rscale>  2 0.10189791E+03</rscale>
<asrwt>0</asrwt>
<pdfrwt beam="1">  1       21 0.21994039E-01 0.10189791E+03</pdfrwt>
<pdfrwt beam="2">  1       21 0.13597063E-01 0.10189791E+03</pdfrwt>
<totfact> 0.90504649E+05</totfact>
</mgrwt>
</event>
<event>
 4    1  0.6055396E+003  0.1062790E+03  0.7546771E-02  0.1267620E+00
         21   -1    0    0  503  501  0.00000000000E+00  0.00000000000E+00  0.86764915829E+02  0.86764915829E+02  0.00000000000E+00 0. -1.
         21   -1    0    0  504  502 -0.00000000000E+00 -0.00000000000E+00 -0.21740639732E+03  0.21740639732E+03  0.00000000000E+00 0. -1.
         21    1    1    2  503  502  0.67986936147E+02 -0.81688447058E+02 -0.16165288168E+03  0.19346028022E+03  0.00000000000E+00 0. -1.
         21    1    1    2  504  501 -0.67986936147E+02  0.81688447058E+02  0.31011400188E+02  0.11071103292E+03  0.00000000000E+00 0. -1.
<mgrwt>
<rscale>  2 0.10627900E+03</rscale>
<asrwt>0</asrwt>
<pdfrwt beam="1">  1       21 0.13348449E-01 0.10627900E+03</pdfrwt>
<pdfrwt beam="2">  1       21 0.33447137E-01 0.10627900E+03</pdfrwt>
<totfact> 0.42237420E+05</totfact>
</mgrwt>
</event>
<event>
 4    1  0.6055396E+003  0.1233826E+03  0.7546771E-02  0.1237619E+00
         21   -1    0    0  503  501  0.00000000000E+00  0.00000000000E+00  0.47528268279E+03  0.47528268279E+03  0.00000000000E+00 0.  1.
         21   -1    0    0  504  502 -0.00000000000E+00 -0.00000000000E+00 -0.16047446979E+03  0.16047446979E+03  0.00000000000E+00 0. -1.
         21    1    1    2  503  502  0.94887309208E+02 -0.78864842654E+02 -0.12698707801E+03  0.17705643969E+03  0.00000000000E+00 0. -1.
         21    1    1    2  504  501 -0.94887309208E+02  0.78864842654E+02  0.44179529100E+03  0.45870071289E+03  0.00000000000E+00 0.  1.
<mgrwt>
<rscale>  2 0.12338260E+03</rscale>
<asrwt>0</asrwt>
<pdfrwt beam="1">  1       21 0.73120412E-01 0.12338260E+03</pdfrwt>
<pdfrwt beam="2">  1       21 0.24688380E-01 0.12338260E+03</pdfrwt>
<totfact> 0.27238664E+04</totfact>
</mgrwt>
</event>
<event>
 4    1  0.6055396E+003  0.1094270E+03  0.7546771E-02  0.1261635E+00
         21   -1    0    0  504  501  0.00000000000E+00  0.00000000000E+00  0.89858892605E+03  0.89858892605E+03  0.00000000000E+00 0. -1.
         21   -1    0    0  503  502 -0.00000000000E+00 -0.00000000000E+00 -0.25969538110E+02  0.25969538110E+02  0.00000000000E+00 0.  1.
         21    1    1    2  503  501 -0.93626251659E+02  0.56642764485E+02  0.75887129362E+03  0.76672023454E+03  0.00000000000E+00 0. -1.
         21    1    1    2  504  502  0.93626251659E+02 -0.56642764485E+02  0.11374809431E+03  0.15783822961E+03  0.00000000000E+00 0.  1.
<mgrwt>
<rscale>  2 0.10942704E+03</rscale>
<asrwt>0</asrwt>
<pdfrwt beam="1">  1       21 0.13824443E+00 0.10942704E+03</pdfrwt>
<pdfrwt beam="2">  1       21 0.39953143E-02 0.10942704E+03</pdfrwt>
<totfact> 0.15046252E+05</totfact>
</mgrwt>
</event>
<event>
 4    1  0.6055396E+003  0.1068877E+03  0.7546771E-02  0.1266444E+00
         21   -1    0    0  503  501  0.00000000000E+00  0.00000000000E+00  0.28105176851E+03  0.28105176851E+03  0.00000000000E+00 0. -1.
         21   -1    0    0  504  502 -0.00000000000E+00 -0.00000000000E+00 -0.11166483222E+03  0.11166483222E+03  0.00000000000E+00 0. -1.
         21    1    1    2  503  502 -0.79765920243E+02  0.71150337125E+02  0.24128317642E+03  0.26389873765E+03  0.00000000000E+00 0. -1.
         21    1    1    2  504  501  0.79765920243E+02 -0.71150337125E+02 -0.71896240134E+02  0.12881786309E+03  0.00000000000E+00 0. -1.
<mgrwt>
<rscale>  2 0.10688766E+03</rscale>
<asrwt>0</asrwt>
<pdfrwt beam="1">  1       21 0.43238733E-01 0.10688766E+03</pdfrwt>
<pdfrwt beam="2">  1       21 0.17179205E-01 0.10688766E+03</pdfrwt>
<totfact> 0.16167946E+05</totfact>
</mgrwt>
</event>
<event>
 4    1  0.6055396E+003  0.1122600E+03  0.7546771E-02  0.1256441E+00
         21   -1    0    0  503  501  0.00000000000E+00  0.00000000000E+00  0.16267317471E+03  0.16267317471E+03  0.00000000000E+00 0. -1.
         21   -1    0    0  504  502 -0.00000000000E+00 -0.00000000000E+00 -0.15668732036E+03  0.15668732036E+03  0.00000000000E+00 0.  1.
         21    1    1    2  503  502  0.11058758490E+03 -0.19305460961E+02  0.11653163346E+03  0.16180833216E+03  0.00000000000E+00 0. -1.
         21    1    1    2  504  501 -0.11058758490E+03  0.19305460961E+02 -0.11054577912E+03  0.15755216291E+03  0.00000000000E+00 0.  1.
<mgrwt>
<rscale>  2 0.11226003E+03</rscale>
<asrwt>0</asrwt>
<pdfrwt beam="1">  1       21 0.25026642E-01 0.11226003E+03</pdfrwt>
<pdfrwt beam="2">  1       21 0.24105742E-01 0.11226003E+03</pdfrwt>
<totfact> 0.25007243E+05</totfact>
</mgrwt>
</event>
<event>
 4    1  0.6055396E+003  0.1281280E+03  0.7546771E-02  0.1230260E+00
         21   -1    0    0  504  501  0.00000000000E+00  0.00000000000E+00  0.17603084906E+03  0.17603084906E+03  0.00000000000E+00 0. -1.
         21   -1    0    0  503  502 -0.00000000000E+00 -0.00000000000E+00 -0.27595879361E+03  0.27595879361E+03  0.00000000000E+00 0. -1.
         21    1    1    2  503  501  0.36991740869E+02 -0.12267187987E+03 -0.23384767892E+03  0.26664867511E+03  0.00000000000E+00 0. -1.
         21    1    1    2  504  502 -0.36991740869E+02  0.12267187987E+03  0.13391973437E+03  0.18534096756E+03  0.00000000000E+00 0. -1.
<mgrwt>
<rscale>  2 0.12812798E+03</rscale>
<asrwt>0</asrwt>
<pdfrwt beam="1">  1       21 0.27081669E-01 0.12812798E+03</pdfrwt>
<pdfrwt beam="2">  1       21 0.42455199E-01 0.12812798E+03</pdfrwt>
<totfact> 0.71362436E+04</totfact>
</mgrwt>
</event>
<event>
 4    1  0.6055396E+003  0.1110515E+03  0.7546771E-02  0.1258635E+00
         21   -1    0    0  504  501  0.00000000000E+00  0.00000000000E+00  0.11748907312E+02  0.11748907312E+02  0.00000000000E+00 0. -1.
         21   -1    0    0  503  502 -0.00000000000E+00 -0.00000000000E+00 -0.14743848947E+04  0.14743848947E+04  0.00000000000E+00 0.  1.
         21    1    1    2  503  501 -0.10155284410E+03 -0.44938248118E+02 -0.11301347247E+04  0.11355777923E+04  0.00000000000E+00 0.  1.
         21    1    1    2  504  502  0.10155284410E+03  0.44938248118E+02 -0.33250126268E+03  0.35055600975E+03  0.00000000000E+00 0. -1.
<mgrwt>
<rscale>  2 0.11105146E+03</rscale>
<asrwt>0</asrwt>
<pdfrwt beam="1">  1       21 0.18075257E-02 0.11105146E+03</pdfrwt>
<pdfrwt beam="2">  1       21 0.22682826E+00 0.11105146E+03</pdfrwt>
<totfact> 0.14017711E+05</totfact>
</mgrwt>
</event>
<event>
 4    1  0.6055396E+003  0.1090130E+03  0.7546771E-02  0.1262409E+00
         21   -1    0    0  504  501  0.00000000000E+00  0.00000000000E+00  0.71725434258E+02  0.71725434258E+02  0.00000000000E+00 0.  1.
         21   -1    0    0  503  502 -0.00000000000E+00 -0.00000000000E+00 -0.17853105207E+03  0.17853105207E+03  0.00000000000E+00 0. -1.
         21    1    1    2  503  501 -0.97677783945E+02 -0.48403247993E+02 -0.86967635459E+02  0.13945319469E+03  0.00000000000E+00 0. -1.
         21    1    1    2  504  502  0.97677783945E+02  0.48403247993E+02 -0.19837982349E+02  0.11080329163E+03  0.00000000000E+00 0.  1.
<mgrwt>
<rscale>  2 0.10901295E+03</rscale>
<asrwt>0</asrwt>
<pdfrwt beam="1">  1       21 0.11034682E-01 0.10901295E+03</pdfrwt>
<pdfrwt beam="2">  1       21 0.27466315E-01 0.10901295E+03</pdfrwt>
<totfact> 0.86304853E+05</totfact>
</mgrwt>
</event>
<event>
 4    1  0.6055396E+003  0.1667234E+03  0.7546771E-02  0.1181309E+00
         21   -1    0    0  504  501  0.00000000000E+00  0.00000000000E+00  0.55409463797E+02  0.55409463797E+02  0.00000000000E+00 0. -1.
         21   -1    0    0  503  502 -0.00000000000E+00 -0.00000000000E+00 -0.51075657636E+03  0.51075657636E+03  0.00000000000E+00 0. -1.
         21    1    1    2  503  501 -0.16384375329E+03 -0.30852908199E+02 -0.26545343349E+03  0.31346802514E+03  0.00000000000E+00 0. -1.
         21    1    1    2  504  502  0.16384375329E+03  0.30852908199E+02 -0.18989367907E+03  0.25269801501E+03  0.00000000000E+00 0. -1.
<mgrwt>
<rscale>  2 0.16672336E+03</rscale>
<asrwt>0</asrwt>
<pdfrwt beam="1">  1       21 0.85245331E-02 0.16672336E+03</pdfrwt>
<pdfrwt beam="2">  1       21 0.78577933E-01 0.16672336E+03</pdfrwt>
<totfact> 0.15523083E+05</totfact>
</mgrwt>
</event>
<event>
 4    1  0.6055396E+003  0.1028319E+03  0.7546771E-02  0.1274451E+00
         21   -1    0    0  503  501  0.00000000000E+00  0.00000000000E+00  0.32265415741E+02  0.32265415741E+02  0.00000000000E+00 0.  1.
         21   -1    0    0  504  502 -0.00000000000E+00 -0.00000000000E+00 -0.60734213320E+03  0.60734213320E+03  0.00000000000E+00 0.  1.
         21    1    1    2  503  502 -0.34281303134E+02  0.96949470686E+02 -0.70546533889E+02  0.12470453502E+03  0.00000000000E+00 0.  1.
         21    1    1    2  504  501  0.34281303134E+02 -0.96949470686E+02 -0.50453018357E+03  0.51490301392E+03  0.00000000000E+00 0.  1.
<mgrwt>
<rscale>  2 0.10283194E+03</rscale>
<asrwt>0</asrwt>
<pdfrwt beam="1">  1       21 0.49639099E-02 0.10283194E+03</pdfrwt>
<pdfrwt beam="2">  1       21 0.93437254E-01 0.10283194E+03</pdfrwt>
<totfact> 0.26864848E+05</totfact>
</mgrwt>
</event>
<event>
 4    1  0.6055396E+003  0.1100010E+03  0.7546771E-02  0.1260568E+00
         21   -1    0    0  504  501  0.00000000000E+00  0.00000000000E+00  0.36914392897E+03  0.36914392897E+03  0.00000000000E+00 0.  1.
         21   -1    0    0  503  502 -0.00000000000E+00 -0.00000000000E+00 -0.32986094629E+02  0.32986094629E+02  0.00000000000E+00 0.  1.
         21    1    1    2  503  501 -0.10973983051E+03 -0.75757384389E+01  0.15215302253E+03  0.18775186943E+03  0.00000000000E+00 0.  1.
         21    1    1    2  504  502  0.10973983051E+03  0.75757384389E+01  0.18400481182E+03  0.21437815417E+03  0.00000000000E+00 0.  1.
<mgrwt>
<rscale>  2 0.11000101E+03</rscale>
<asrwt>0</asrwt>
<pdfrwt beam="1">  1       21 0.56791371E-01 0.11000101E+03</pdfrwt>
<pdfrwt beam="2">  1       21 0.50747840E-02 0.11000101E+03</pdfrwt>
<totfact> 0.76822427E+05</totfact>
</mgrwt>
</event>
<event>
 4    1  0.6055396E+003  0.1001351E+03  0.7546771E-02  0.1280012E+00
         21   -1    0    0  503  501  0.00000000000E+00  0.00000000000E+00  0.17998216374E+02  0.17998216374E+02  0.00000000000E+00 0.  1.
         21   -1    0    0  504  502 -0.00000000000E+00 -0.00000000000E+00 -0.10277799588E+04  0.10277799588E+04  0.00000000000E+00 0. -1.
         21    1    1    2  503  502 -0.90375248565E+02 -0.43120271636E+02 -0.15104324759E+03  0.18122115225E+03  0.00000000000E+00 0.  1.
         21    1    1    2  504  501  0.90375248565E+02  0.43120271636E+02 -0.85873849485E+03  0.86455702294E+03  0.00000000000E+00 0. -1.
<mgrwt>
<rscale>  2 0.10013513E+03</rscale>
<asrwt>0</asrwt>
<pdfrwt beam="1">  1       21 0.27689560E-02 0.10013513E+03</pdfrwt>
<pdfrwt beam="2">  1       21 0.15812001E+00 0.10013513E+03</pdfrwt>
<totfact> 0.19553471E+05</totfact>
</mgrwt>
</event>
<event>
 4    1  0.6055396E+003  0.1091932E+03  0.7546771E-02  0.1262071E+00
         21   -1    0    0  504  501  0.00000000000E+00  0.00000000000E+00  0.33751587414E+02  0.33751587414E+02  0.00000000000E+00 0.  1.
         21   -1    0    0  503  502 -0.00000000000E+00 -0.00000000000E+00 -0.36720153771E+03  0.36720153771E+03  0.00000000000E+00 0.  1.
         21    1    1    2  503  501  0.66909604487E+02  0.86291728584E+02 -0.20578509330E+03  0.23296064521E+03  0.00000000000E+00 0.  1.
         21    1    1    2  504  502 -0.66909604487E+02 -0.86291728584E+02 -0.12766485700E+03  0.16799247991E+03  0.00000000000E+00 0.  1.
<mgrwt>
<rscale>  2 0.10919321E+03</rscale>
<asrwt>0</asrwt>
<pdfrwt beam="1">  1       21 0.51925522E-02 0.10919321E+03</pdfrwt>
<pdfrwt beam="2">  1       21 0.56492541E-01 0.10919321E+03</pdfrwt>
<totfact> 0.74745442E+05</totfact>
</mgrwt>
</event>
<event>
 4    1  0.6055396E+003  0.2422304E+03  0.7546771E-02  0.1118316E+00
         21   -1    0    0  502  501  0.00000000000E+00  0.00000000000E+00  0.12077985715E+04  0.12077985715E+04  0.00000000000E+00 0.  1.
         21   -1    0    0  504  502 -0.00000000000E+00 -0.00000000000E+00 -0.96931689092E+02  0.96931689092E+02  0.00000000000E+00 0.  1.
         21    1    1    2  503  501 -0.17793000546E+03  0.16436696608E+03  0.10161787830E+04  0.10446506140E+04  0.00000000000E+00 0.  1.
         21    1    1    2  504  503  0.17793000546E+03 -0.16436696608E+03  0.94688099401E+02  0.26007964655E+03  0.00000000000E+00 0.  1.
<mgrwt>
<rscale>  2 0.24223044E+03</rscale>
<asrwt>0</asrwt>
<pdfrwt beam="1">  1       21 0.18581515E+00 0.24223044E+03</pdfrwt>
<pdfrwt beam="2">  1       21 0.14912568E-01 0.24223044E+03</pdfrwt>
<totfact> 0.63369940E+03</totfact>
</mgrwt>
</event>
<event>
 4    1  0.6055396E+003  0.1126663E+03  0.7546771E-02  0.1255711E+00
         21   -1    0    0  503  501  0.00000000000E+00  0.00000000000E+00  0.20329503150E+03  0.20329503150E+03  0.00000000000E+00 0.  1.
         21   -1    0    0  504  502 -0.00000000000E+00 -0.00000000000E+00 -0.70390699648E+02  0.70390699648E+02  0.00000000000E+00 0.  1.
         21    1    1    2  503  502  0.68346119978E+02 -0.89568397892E+02  0.11244330278E+03  0.15917658860E+03  0.00000000000E+00 0.  1.
         21    1    1    2  504  501 -0.68346119978E+02  0.89568397892E+02  0.20461029072E+02  0.11450914255E+03  0.00000000000E+00 0.  1.
<mgrwt>
<rscale>  2 0.11266628E+03</rscale>
<asrwt>0</asrwt>
<pdfrwt beam="1">  1       21 0.31276158E-01 0.11266628E+03</pdfrwt>
<pdfrwt beam="2">  1       21 0.10829339E-01 0.11266628E+03</pdfrwt>
<totfact> 0.69552960E+05</totfact>
</mgrwt>
</event>
<event>
 4    1  0.6055396E+003  0.1362794E+03  0.7546771E-02  0.1218425E+00
         21   -1    0    0  502  501  0.00000000000E+00  0.00000000000E+00  0.19679759931E+03  0.19679759931E+03  0.00000000000E+00 0. -1.
         21   -1    0    0  503  502 -0.00000000000E+00 -0.00000000000E+00 -0.11652674250E+03  0.11652674250E+03  0.00000000000E+00 0. -1.
         21    1    1    2  503  504 -0.83532722745E+02 -0.10767715060E+03 -0.28175407053E+02  0.13916155394E+03  0.00000000000E+00 0. -1.
         21    1    1    2  504  501  0.83532722745E+02  0.10767715060E+03  0.10844626387E+03  0.17416278787E+03  0.00000000000E+00 0. -1.
<mgrwt>
<rscale>  2 0.13627944E+03</rscale>
<asrwt>0</asrwt>
<pdfrwt beam="1">  1       21 0.30276554E-01 0.13627944E+03</pdfrwt>
<pdfrwt beam="2">  1       21 0.17927191E-01 0.13627944E+03</pdfrwt>
<totfact> 0.29963774E+05</totfact>
</mgrwt>
</event>
<event>
 4    1  0.6055396E+003  0.1174553E+03  0.7546771E-02  0.1247355E+00
         21   -1    0    0  504  501  0.00000000000E+00  0.00000000000E+00  0.90216426503E+02  0.90216426503E+02  0.00000000000E+00 0. -1.
         21   -1    0    0  503  502 -0.00000000000E+00 -0.00000000000E+00 -0.15473450097E+03  0.15473450097E+03  0.00000000000E+00 0. -1.
         21    1    1    2  503  501  0.97839290309E+02  0.64986395866E+02 -0.45527375054E+02  0.12597023559E+03  0.00000000000E+00 0. -1.
         21    1    1    2  504  502 -0.97839290309E+02 -0.64986395866E+02 -0.18990699412E+02  0.11898069188E+03  0.00000000000E+00 0. -1.
<mgrwt>
<rscale>  2 0.11745535E+03</rscale>
<asrwt>0</asrwt>
<pdfrwt beam="1">  1       21 0.13879450E-01 0.11745535E+03</pdfrwt>
<pdfrwt beam="2">  1       21 0.23805307E-01 0.11745535E+03</pdfrwt>
<totfact> 0.75366305E+05</totfact>
</mgrwt>
</event>
<event>
 4    1  0.6055396E+003  0.1217875E+03  0.7546771E-02  0.1240177E+00
         21   -1    0    0  504  501  0.00000000000E+00  0.00000000000E+00  0.34297919249E+02  0.34297919249E+02  0.00000000000E+00 0. -1.
         21   -1    0    0  503  502 -0.00000000000E+00 -0.00000000000E+00 -0.12638978093E+04  0.12638978093E+04  0.00000000000E+00 0.  1.
         21    1    1    2  503  501  0.31786581248E+02  0.11756619035E+03 -0.88332847667E+02  0.15044895426E+03  0.00000000000E+00 0. -1.
         21    1    1    2  504  502 -0.31786581248E+02 -0.11756619035E+03 -0.11412670424E+04  0.11477467743E+04  0.00000000000E+00 0.  1.
<mgrwt>
<rscale>  2 0.12178750E+03</rscale>
<asrwt>0</asrwt>
<pdfrwt beam="1">  1       21 0.52766041E-02 0.12178750E+03</pdfrwt>
<pdfrwt beam="2">  1       21 0.19444577E+00 0.12178750E+03</pdfrwt>
<totfact> 0.37789841E+04</totfact>
</mgrwt>
</event>
<event>
 4    1  0.6055396E+003  0.1081403E+03  0.7546771E-02  0.1264053E+00
         21   -1    0    0  504  501  0.00000000000E+00  0.00000000000E+00  0.10877088636E+03  0.10877088636E+03  0.00000000000E+00 0. -1.
         21   -1    0    0  503  502 -0.00000000000E+00 -0.00000000000E+00 -0.24483226375E+03  0.24483226375E+03  0.00000000000E+00 0.  1.
         21    1    1    2  503  501  0.10590708492E+03 -0.21863289392E+02 -0.20043956689E+03  0.22775059613E+03  0.00000000000E+00 0.  1.
         21    1    1    2  504  502 -0.10590708492E+03  0.21863289392E+02  0.64378189509E+02  0.12585255398E+03  0.00000000000E+00 0. -1.
<mgrwt>
<rscale>  2 0.10814025E+03</rscale>
<asrwt>0</asrwt>
<pdfrwt beam="1">  1       21 0.16733983E-01 0.10814025E+03</pdfrwt>
<pdfrwt beam="2">  1       21 0.37666502E-01 0.10814025E+03</pdfrwt>
<totfact> 0.22309170E+05</totfact>
</mgrwt>
</event>
<event>
 4    1  0.6055396E+003  0.1145751E+03  0.7546771E-02  0.1252325E+00
         21   -1    0    0  502  501  0.00000000000E+00  0.00000000000E+00  0.11688344768E+03  0.11688344768E+03  0.00000000000E+00 0. -1.
         21   -1    0    0  503  502 -0.00000000000E+00 -0.00000000000E+00 -0.13590501453E+03  0.13590501453E+03  0.00000000000E+00 0.  1.
         21    1    1    2  503  504  0.10328407597E+03 -0.49596984763E+02 -0.62172800700E+02  0.13035688855E+03  0.00000000000E+00 0.  1.
         21    1    1    2  504  501 -0.10328407597E+03  0.49596984763E+02  0.43151233845E+02  0.12243157366E+03  0.00000000000E+00 0. -1.
<mgrwt>
<rscale>  2 0.11457513E+03</rscale>
<asrwt>0</asrwt>
<pdfrwt beam="1">  1       21 0.17982069E-01 0.11457513E+03</pdfrwt>
<pdfrwt beam="2">  1       21 0.20908464E-01 0.11457513E+03</pdfrwt>
<totfact> 0.60132495E+05</totfact>
</mgrwt>
</event>
<event>
 4    1  0.6055396E+003  0.1507950E+03  0.7546771E-02  0.1199500E+00
         21   -1    0    0  503  501  0.00000000000E+00  0.00000000000E+00  0.40211354491E+02  0.40211354491E+02  0.00000000000E+00 0. -1.
         21   -1    0    0  504  502 -0.00000000000E+00 -0.00000000000E+00 -0.56848347182E+03  0.56848347182E+03  0.00000000000E+00 0. -1.
         21    1    1    2  503  502  0.26737281148E+02  0.14840565470E+03 -0.24205117004E+03  0.28518045071E+03  0.00000000000E+00 0. -1.
         21    1    1    2  504  501 -0.26737281148E+02 -0.14840565470E+03 -0.28622094729E+03  0.32351437560E+03  0.00000000000E+00 0. -1.
<mgrwt>
<rscale>  2 0.15079496E+03</rscale>
<asrwt>0</asrwt>
<pdfrwt beam="1">  1       21 0.61863623E-02 0.15079496E+03</pdfrwt>
<pdfrwt beam="2">  1       21 0.87458995E-01 0.15079496E+03</pdfrwt>
<totfact> 0.21271049E+05</totfact>
</mgrwt>
</event>
<event>
 4    1  0.6055396E+003  0.1025585E+03  0.7546771E-02  0.1275006E+00
         21   -1    0    0  504  501  0.00000000000E+00  0.00000000000E+00  0.23855672848E+03  0.23855672848E+03  0.00000000000E+00 0.  1.
         21   -1    0    0  503  502 -0.00000000000E+00 -0.00000000000E+00 -0.49062798046E+02  0.49062798046E+02  0.00000000000E+00 0. -1.
         21    1    1    2  503  501  0.36162376859E+02 -0.95971549762E+02  0.48968672666E+02  0.11364940284E+03  0.00000000000E+00 0. -1.
         21    1    1    2  504  502 -0.36162376859E+02  0.95971549762E+02  0.14052525777E+03  0.17397012369E+03  0.00000000000E+00 0.  1.
<mgrwt>
<rscale>  2 0.10255855E+03</rscale>
<asrwt>0</asrwt>
<pdfrwt beam="1">  1       21 0.36701035E-01 0.10255855E+03</pdfrwt>
<pdfrwt beam="2">  1       21 0.75481229E-02 0.10255855E+03</pdfrwt>
<totfact> 0.95039182E+05</totfact>
</mgrwt>
</event>
<event>
 4    1  0.6055396E+003  0.1004792E+03  0.7546771E-02  0.1279292E+00
         21   -1    0    0  504  501  0.00000000000E+00  0.00000000000E+00  0.22693489368E+03  0.22693489368E+03  0.00000000000E+00 0.  1.
         21   -1    0    0  503  502 -0.00000000000E+00 -0.00000000000E+00 -0.47008641881E+02  0.47008641881E+02  0.00000000000E+00 0.  1.
         21    1    1    2  503  501 -0.28616603630E+02 -0.96317989741E+02  0.58250857058E+02  0.11614313367E+03  0.00000000000E+00 0.  1.
         21    1    1    2  504  502  0.28616603630E+02  0.96317989741E+02  0.12167539474E+03  0.15780040189E+03  0.00000000000E+00 0.  1.
<mgrwt>
<rscale>  2 0.10047918E+03</rscale>
<asrwt>0</asrwt>
<pdfrwt beam="1">  1       21 0.34913060E-01 0.10047918E+03</pdfrwt>
<pdfrwt beam="2">  1       21 0.72320989E-02 0.10047918E+03</pdfrwt>
<totfact> 0.11268946E+06</totfact>
</mgrwt>
</event>
<event>
 4    1  0.6055396E+003  0.1090797E+03  0.7546771E-02  0.1262284E+00
         21   -1    0    0  503  501  0.00000000000E+00  0.00000000000E+00  0.39742326687E+02  0.39742326687E+02  0.00000000000E+00 0.  1.
         21   -1    0    0  504  502 -0.00000000000E+00 -0.00000000000E+00 -0.30112046295E+03  0.30112046295E+03  0.00000000000E+00 0.  1.
         21    1    1    2  503  502  0.10767748014E+03  0.17433938762E+02 -0.11776224705E+03  0.16051893589E+03  0.00000000000E+00 0.  1.
         21    1    1    2  504  501 -0.10767748014E+03 -0.17433938762E+02 -0.14361588922E+03  0.18034385375E+03  0.00000000000E+00 0.  1.
<mgrwt>
<rscale>  2 0.10907970E+03</rscale>
<asrwt>0</asrwt>
<pdfrwt beam="1">  1       21 0.61142041E-02 0.10907970E+03</pdfrwt>
<pdfrwt beam="2">  1       21 0.46326225E-01 0.10907970E+03</pdfrwt>
<totfact> 0.85453117E+05</totfact>
</mgrwt>
</event>
<event>
 4    1  0.6055396E+003  0.1278692E+03  0.7546771E-02  0.1230652E+00
         21   -1    0    0  502  501  0.00000000000E+00  0.00000000000E+00  0.37086751733E+02  0.37086751733E+02  0.00000000000E+00 0. -1.
         21   -1    0    0  503  502 -0.00000000000E+00 -0.00000000000E+00 -0.52505917315E+03  0.52505917315E+03  0.00000000000E+00 0. -1.
         21    1    1    2  503  504  0.63627504316E+01  0.12771083399E+03 -0.35653367959E+03  0.37877012341E+03  0.00000000000E+00 0. -1.
         21    1    1    2  504  501 -0.63627504316E+01 -0.12771083399E+03 -0.13143874183E+03  0.18337580147E+03  0.00000000000E+00 0. -1.
<mgrwt>
<rscale>  2 0.12786924E+03</rscale>
<asrwt>0</asrwt>
<pdfrwt beam="1">  1       21 0.57056546E-02 0.12786924E+03</pdfrwt>
<pdfrwt beam="2">  1       21 0.80778328E-01 0.12786924E+03</pdfrwt>
<totfact> 0.29371028E+05</totfact>
</mgrwt>
</event>
<event>
 4    1  0.6055396E+003  0.1219630E+03  0.7546771E-02  0.1239893E+00
         21   -1    0    0  502  501  0.00000000000E+00  0.00000000000E+00  0.13099631465E+03  0.13099631465E+03  0.00000000000E+00 0.  1.
         21   -1    0    0  504  502 -0.00000000000E+00 -0.00000000000E+00 -0.45167789190E+03  0.45167789190E+03  0.00000000000E+00 0. -1.
         21    1    1    2  503  501  0.65964896766E+02 -0.10258466421E+03  0.91728633821E+02  0.15260774292E+03  0.00000000000E+00 0.  1.
         21    1    1    2  504  503 -0.65964896766E+02  0.10258466421E+03 -0.41241021107E+03  0.43006646362E+03  0.00000000000E+00 0. -1.
<mgrwt>
<rscale>  2 0.12196303E+03</rscale>
<asrwt>0</asrwt>
<pdfrwt beam="1">  1       21 0.20153279E-01 0.12196303E+03</pdfrwt>
<pdfrwt beam="2">  1       21 0.69488907E-01 0.12196303E+03</pdfrwt>
<totfact> 0.44503250E+04</totfact>
</mgrwt>
</event>
<event>
 4    1  0.6055396E+003  0.1696360E+03  0.7546771E-02  0.1178228E+00
         21   -1    0    0  504  501  0.00000000000E+00  0.00000000000E+00  0.84382564966E+02  0.84382564966E+02  0.00000000000E+00 0. -1.
         21   -1    0    0  503  502 -0.00000000000E+00 -0.00000000000E+00 -0.34648253846E+03  0.34648253846E+03  0.00000000000E+00 0. -1.
         21    1    1    2  503  501  0.57063137664E+02 -0.15975031086E+03 -0.10400643842E+03  0.19898166431E+03  0.00000000000E+00 0. -1.
         21    1    1    2  504  502 -0.57063137664E+02  0.15975031086E+03 -0.15809353508E+03  0.23188343911E+03  0.00000000000E+00 0. -1.
<mgrwt>
<rscale>  2 0.16963597E+03</rscale>
<asrwt>0</asrwt>
<pdfrwt beam="1">  1       21 0.12981933E-01 0.16963597E+03</pdfrwt>
<pdfrwt beam="2">  1       21 0.53305005E-01 0.16963597E+03</pdfrwt>
<totfact> 0.17104548E+05</totfact>
</mgrwt>
</event>
<event>
 4    1  0.6055396E+003  0.1081786E+03  0.7546771E-02  0.1263980E+00
         21   -1    0    0  504  501  0.00000000000E+00  0.00000000000E+00  0.24193919041E+03  0.24193919041E+03  0.00000000000E+00 0.  1.
         21   -1    0    0  501  502 -0.00000000000E+00 -0.00000000000E+00 -0.58378763215E+02  0.58378763215E+02  0.00000000000E+00 0.  1.
         21    1    1    2  503  502  0.10133853639E+03  0.37856428446E+02  0.29605583286E+02  0.11215658114E+03  0.00000000000E+00 0.  1.
         21    1    1    2  504  503 -0.10133853639E+03 -0.37856428446E+02  0.15395484391E+03  0.18816137249E+03  0.00000000000E+00 0.  1.
<mgrwt>
<rscale>  2 0.10817859E+03</rscale>
<asrwt>0</asrwt>
<pdfrwt beam="1">  1       21 0.37221413E-01 0.10817859E+03</pdfrwt>
<pdfrwt beam="2">  1       21 0.89813483E-02 0.10817859E+03</pdfrwt>
<totfact> 0.68604845E+05</totfact>
</mgrwt>
</event>
<event>
 4    1  0.6055396E+003  0.1844140E+03  0.7546771E-02  0.1163598E+00
         21   -1    0    0  504  501  0.00000000000E+00  0.00000000000E+00  0.98058525922E+03  0.98058525922E+03  0.00000000000E+00 0.  1.
         21   -1    0    0  503  502 -0.00000000000E+00 -0.00000000000E+00 -0.14569428411E+03  0.14569428411E+03  0.00000000000E+00 0.  1.
         21    1    1    2  503  501  0.95537698533E+01 -0.18416635882E+03 -0.74119263915E+02  0.19875157238E+03  0.00000000000E+00 0.  1.
         21    1    1    2  504  502 -0.95537698533E+01  0.18416635882E+03  0.90901023903E+03  0.92752797095E+03  0.00000000000E+00 0.  1.
<mgrwt>
<rscale>  2 0.18441400E+03</rscale>
<asrwt>0</asrwt>
<pdfrwt beam="1">  1       21 0.15085927E+00 0.18441400E+03</pdfrwt>
<pdfrwt beam="2">  1       21 0.22414506E-01 0.18441400E+03</pdfrwt>
<totfact> 0.55250431E+03</totfact>
</mgrwt>
</event>
<event>
 4    1  0.6055396E+003  0.1139940E+03  0.7546771E-02  0.1253347E+00
         21   -1    0    0  504  501  0.00000000000E+00  0.00000000000E+00  0.15840120513E+04  0.15840120513E+04  0.00000000000E+00 0. -1.
         21   -1    0    0  501  502 -0.00000000000E+00 -0.00000000000E+00 -0.44239799983E+02  0.44239799983E+02  0.00000000000E+00 0.  1.
         21    1    1    2  503  502 -0.14775928496E+02  0.11303231464E+03  0.35111104367E+02  0.11927875697E+03  0.00000000000E+00 0.  1.
         21    1    1    2  504  503  0.14775928496E+02 -0.11303231464E+03  0.15046611470E+04  0.15089730943E+04  0.00000000000E+00 0. -1.
<mgrwt>
<rscale>  2 0.11399400E+03</rscale>
<asrwt>0</asrwt>
<pdfrwt beam="1">  1       21 0.24369412E+00 0.11399400E+03</pdfrwt>
<pdfrwt beam="2">  1       21 0.68061243E-02 0.11399400E+03</pdfrwt>
<totfact> 0.12548782E+04</totfact>
</mgrwt>
</event>
<event>
 4    1  0.6055396E+003  0.1183397E+03  0.7546771E-02  0.1245861E+00
         21   -1    0    0  503  501  0.00000000000E+00  0.00000000000E+00  0.59361382586E+02  0.59361382586E+02  0.00000000000E+00 0.  1.
         21   -1    0    0  504  502 -0.00000000000E+00 -0.00000000000E+00 -0.80314876924E+03  0.80314876924E+03  0.00000000000E+00 0.  1.
         21    1    1    2  503  502 -0.97763330856E+02  0.66682941769E+02 -0.73431772087E+03  0.74379217444E+03  0.00000000000E+00 0.  1.
         21    1    1    2  504  501  0.97763330856E+02 -0.66682941769E+02 -0.94696657823E+01  0.11871797738E+03  0.00000000000E+00 0.  1.
<mgrwt>
<rscale>  2 0.11833970E+03</rscale>
<asrwt>0</asrwt>
<pdfrwt beam="1">  1       21 0.91325211E-02 0.11833970E+03</pdfrwt>
<pdfrwt beam="2">  1       21 0.12356134E+00 0.11833970E+03</pdfrwt>
<totfact> 0.48804485E+04</totfact>
</mgrwt>
</event>
<event>
 4    1  0.6055396E+003  0.1140708E+03  0.7546771E-02  0.1253212E+00
         21   -1    0    0  503  501  0.00000000000E+00  0.00000000000E+00  0.77256845418E+02  0.77256845418E+02  0.00000000000E+00 0.  1.
         21   -1    0    0  504  502 -0.00000000000E+00 -0.00000000000E+00 -0.44624084048E+03  0.44624084048E+03  0.00000000000E+00 0.  1.
         21    1    1    2  503  502 -0.75234395210E+02  0.85743383382E+02  0.22035089084E+02  0.11617954711E+03  0.00000000000E+00 0.  1.
         21    1    1    2  504  501  0.75234395210E+02 -0.85743383382E+02 -0.39101908414E+03  0.40731813878E+03  0.00000000000E+00 0.  1.
<mgrwt>
<rscale>  2 0.11407078E+03</rscale>
<asrwt>0</asrwt>
<pdfrwt beam="1">  1       21 0.11885669E-01 0.11407078E+03</pdfrwt>
<pdfrwt beam="2">  1       21 0.68652437E-01 0.11407078E+03</pdfrwt>
<totfact> 0.11892991E+05</totfact>
</mgrwt>
</event>
<event>
 4    1  0.6055396E+003  0.1451423E+03  0.7546771E-02  0.1206572E+00
         21   -1    0    0  503  501  0.00000000000E+00  0.00000000000E+00  0.32292922554E+03  0.32292922554E+03  0.00000000000E+00 0.  1.
         21   -1    0    0  504  502 -0.00000000000E+00 -0.00000000000E+00 -0.65248489600E+02  0.65248489600E+02  0.00000000000E+00 0.  1.
         21    1    1    2  503  502 -0.73455846242E+02  0.12518191593E+03  0.12604498241E+03  0.19223322037E+03  0.00000000000E+00 0.  1.
         21    1    1    2  504  501  0.73455846242E+02 -0.12518191593E+03  0.13163575353E+03  0.19594449477E+03  0.00000000000E+00 0.  1.
<mgrwt>
<rscale>  2 0.14514225E+03</rscale>
<asrwt>0</asrwt>
<pdfrwt beam="1">  1       21 0.49681419E-01 0.14514225E+03</pdfrwt>
<pdfrwt beam="2">  1       21 0.10038229E-01 0.14514225E+03</pdfrwt>
<totfact> 0.31447845E+05</totfact>
</mgrwt>
</event>
<event>
 4    1  0.6055396E+003  0.1026402E+03  0.7546771E-02  0.1274840E+00
         21   -1    0    0  504  501  0.00000000000E+00  0.00000000000E+00  0.47963708481E+02  0.47963708481E+02  0.00000000000E+00 0.  1.
         21   -1    0    0  501  502 -0.00000000000E+00 -0.00000000000E+00 -0.91638303658E+03  0.91638303658E+03  0.00000000000E+00 0. -1.
         21    1    1    2  503  502  0.95567054233E+02 -0.37442639139E+02 -0.85464509206E+03  0.86078641164E+03  0.00000000000E+00 0. -1.
         21    1    1    2  504  503 -0.95567054233E+02  0.37442639139E+02 -0.13774236041E+02  0.10356033342E+03  0.00000000000E+00 0.  1.
<mgrwt>
<rscale>  2 0.10264021E+03</rscale>
<asrwt>0</asrwt>
<pdfrwt beam="1">  1       21 0.73790325E-02 0.10264021E+03</pdfrwt>
<pdfrwt beam="2">  1       21 0.14098200E+00 0.10264021E+03</pdfrwt>
<totfact> 0.51345187E+04</totfact>
</mgrwt>
</event>
<event>
 4    1  0.6055396E+003  0.1223423E+03  0.7546771E-02  0.1239282E+00
         21   -1    0    0  504  501  0.00000000000E+00  0.00000000000E+00  0.11531358349E+03  0.11531358349E+03  0.00000000000E+00 0. -1.
         21   -1    0    0  501  502 -0.00000000000E+00 -0.00000000000E+00 -0.14449121753E+03  0.14449121753E+03  0.00000000000E+00 0. -1.
         21    1    1    2  503  502  0.88833363734E+02 -0.84120621062E+02 -0.56010977469E+02  0.13455435704E+03  0.00000000000E+00 0. -1.
         21    1    1    2  504  503 -0.88833363734E+02  0.84120621062E+02  0.26833343431E+02  0.12525044399E+03  0.00000000000E+00 0. -1.
<mgrwt>
<rscale>  2 0.12234233E+03</rscale>
<asrwt>0</asrwt>
<pdfrwt beam="1">  1       21 0.17740551E-01 0.12234233E+03</pdfrwt>
<pdfrwt beam="2">  1       21 0.22229418E-01 0.12234233E+03</pdfrwt>
<totfact> 0.54988898E+05</totfact>
</mgrwt>
</event>
<event>
 4    1  0.6055396E+003  0.1083728E+03  0.7546771E-02  0.1263613E+00
         21   -1    0    0  503  501  0.00000000000E+00  0.00000000000E+00  0.31561267145E+03  0.31561267145E+03  0.00000000000E+00 0.  1.
         21   -1    0    0  501  502 -0.00000000000E+00 -0.00000000000E+00 -0.53568406118E+02  0.53568406118E+02  0.00000000000E+00 0. -1.
         21    1    1    2  503  504  0.36027521093E+02 -0.10220899139E+03  0.23302105679E+03  0.25698924707E+03  0.00000000000E+00 0.  1.
         21    1    1    2  504  502 -0.36027521093E+02  0.10220899139E+03  0.29023208540E+02  0.11219183050E+03  0.00000000000E+00 0. -1.
<mgrwt>
<rscale>  2 0.10837278E+03</rscale>
<asrwt>0</asrwt>
<pdfrwt beam="1">  1       21 0.48555794E-01 0.10837278E+03</pdfrwt>
<pdfrwt beam="2">  1       21 0.82412935E-02 0.10837278E+03</pdfrwt>
<totfact> 0.46677433E+05</totfact>
</mgrwt>
</event>
<event>
 4    1  0.6055396E+003  0.1130901E+03  0.7546771E-02  0.1254952E+00
         21   -1    0    0  502  501  0.00000000000E+00  0.00000000000E+00  0.37131646107E+02  0.37131646107E+02  0.00000000000E+00 0. -1.
         21   -1    0    0  503  502 -0.00000000000E+00 -0.00000000000E+00 -0.37054838441E+03  0.37054838441E+03  0.00000000000E+00 0. -1.
         21    1    1    2  503  504  0.28009228107E+02  0.10956664551E+03 -0.22082299426E+03  0.24809708072E+03  0.00000000000E+00 0. -1.
         21    1    1    2  504  501 -0.28009228107E+02 -0.10956664551E+03 -0.11259374404E+03  0.15958294980E+03  0.00000000000E+00 0. -1.
<mgrwt>
<rscale>  2 0.11309008E+03</rscale>
<asrwt>0</asrwt>
<pdfrwt beam="1">  1       21 0.57125612E-02 0.11309008E+03</pdfrwt>
<pdfrwt beam="2">  1       21 0.57007441E-01 0.11309008E+03</pdfrwt>
<totfact> 0.62466199E+05</totfact>
</mgrwt>
</event>
<event>
 4    1  0.6055396E+003  0.1341403E+03  0.7546771E-02  0.1221438E+00
         21   -1    0    0  504  501  0.00000000000E+00  0.00000000000E+00  0.40700424297E+02  0.40700424297E+02  0.00000000000E+00 0.  1.
         21   -1    0    0  503  502 -0.00000000000E+00 -0.00000000000E+00 -0.14252325473E+04  0.14252325473E+04  0.00000000000E+00 0. -1.
         21    1    1    2  503  501 -0.13330156685E+03 -0.14977206665E+02 -0.13010279679E+04  0.13079248441E+04  0.00000000000E+00 0. -1.
         21    1    1    2  504  502  0.13330156685E+03  0.14977206665E+02 -0.83504155076E+02  0.15800812751E+03  0.00000000000E+00 0.  1.
<mgrwt>
<rscale>  2 0.13414032E+03</rscale>
<asrwt>0</asrwt>
<pdfrwt beam="1">  1       21 0.62616034E-02 0.13414032E+03</pdfrwt>
<pdfrwt beam="2">  1       21 0.21926656E+00 0.13414032E+03</pdfrwt>
<totfact> 0.19632581E+04</totfact>
</mgrwt>
</event>
<event>
 4    1  0.6055396E+003  0.1183683E+03  0.7546771E-02  0.1245813E+00
         21   -1    0    0  504  501  0.00000000000E+00  0.00000000000E+00  0.80506257069E+02  0.80506257069E+02  0.00000000000E+00 0. -1.
         21   -1    0    0  501  502 -0.00000000000E+00 -0.00000000000E+00 -0.19080685386E+03  0.19080685386E+03  0.00000000000E+00 0. -1.
         21    1    1    2  503  502  0.75883921015E+02  0.90844345640E+02 -0.95367226885E+02  0.15200648857E+03  0.00000000000E+00 0. -1.
         21    1    1    2  504  503 -0.75883921015E+02 -0.90844345640E+02 -0.14933369910E+02  0.11930662236E+03  0.00000000000E+00 0. -1.
<mgrwt>
<rscale>  2 0.11836834E+03</rscale>
<asrwt>0</asrwt>
<pdfrwt beam="1">  1       21 0.12385578E-01 0.11836834E+03</pdfrwt>
<pdfrwt beam="2">  1       21 0.29354900E-01 0.11836834E+03</pdfrwt>
<totfact> 0.62022851E+05</totfact>
</mgrwt>
</event>
<event>
 4    1  0.6055396E+003  0.1112146E+03  0.7546771E-02  0.1258337E+00
         21   -1    0    0  504  501  0.00000000000E+00  0.00000000000E+00  0.24290734562E+02  0.24290734562E+02  0.00000000000E+00 0. -1.
         21   -1    0    0  503  502 -0.00000000000E+00 -0.00000000000E+00 -0.50922493890E+03  0.50922493890E+03  0.00000000000E+00 0. -1.
         21    1    1    2  503  501  0.93298726691E+02  0.60531318212E+02 -0.24455109995E+03  0.26865206750E+03  0.00000000000E+00 0. -1.
         21    1    1    2  504  502 -0.93298726691E+02 -0.60531318212E+02 -0.24038310439E+03  0.26486360596E+03  0.00000000000E+00 0. -1.
<mgrwt>
<rscale>  2 0.11121463E+03</rscale>
<asrwt>0</asrwt>
<pdfrwt beam="1">  1       21 0.37370362E-02 0.11121463E+03</pdfrwt>
<pdfrwt beam="2">  1       21 0.78342297E-01 0.11121463E+03</pdfrwt>
<totfact> 0.63893536E+05</totfact>
</mgrwt>
</event>
<event>
 4    1  0.6055396E+003  0.2562698E+03  0.7546771E-02  0.1109405E+00
         21   -1    0    0  504  501  0.00000000000E+00  0.00000000000E+00  0.82549947900E+02  0.82549947900E+02  0.00000000000E+00 0.  1.
         21   -1    0    0  503  502 -0.00000000000E+00 -0.00000000000E+00 -0.10184619484E+04  0.10184619484E+04  0.00000000000E+00 0.  1.
         21    1    1    2  503  501 -0.23347300907E+03  0.10566258577E+03 -0.21042044013E+03  0.33158858487E+03  0.00000000000E+00 0.  1.
         21    1    1    2  504  502  0.23347300907E+03 -0.10566258577E+03 -0.72549156032E+03  0.76942331138E+03  0.00000000000E+00 0.  1.
<mgrwt>
<rscale>  2 0.25626983E+03</rscale>
<asrwt>0</asrwt>
<pdfrwt beam="1">  1       21 0.12699991E-01 0.25626983E+03</pdfrwt>
<pdfrwt beam="2">  1       21 0.15668646E+00 0.25626983E+03</pdfrwt>
<totfact> 0.13541923E+04</totfact>
</mgrwt>
</event>
<event>
 4    1  0.6055396E+003  0.1431845E+03  0.7546771E-02  0.1209107E+00
         21   -1    0    0  504  501  0.00000000000E+00  0.00000000000E+00  0.27575253296E+04  0.27575253296E+04  0.00000000000E+00 0. -1.
         21   -1    0    0  503  502 -0.00000000000E+00 -0.00000000000E+00 -0.10409827275E+02  0.10409827275E+02  0.00000000000E+00 0. -1.
         21    1    1    2  503  501 -0.10305582237E+03  0.99404670649E+02  0.21134114991E+04  0.21182563479E+04  0.00000000000E+00 0. -1.
         21    1    1    2  504  502  0.10305582237E+03 -0.99404670649E+02  0.63370400323E+03  0.64967880894E+03  0.00000000000E+00 0. -1.
<mgrwt>
<rscale>  2 0.14318447E+03</rscale>
<asrwt>0</asrwt>
<pdfrwt beam="1">  1       21 0.42423408E+00 0.14318447E+03</pdfrwt>
<pdfrwt beam="2">  1       21 0.16015141E-02 0.14318447E+03</pdfrwt>
<totfact> 0.11634716E+04</totfact>
</mgrwt>
</event>
<event>
 4    1  0.6055396E+003  0.1273879E+03  0.7546771E-02  0.1231384E+00
         21   -1    0    0  504  501  0.00000000000E+00  0.00000000000E+00  0.18305938346E+03  0.18305938346E+03  0.00000000000E+00 0.  1.
         21   -1    0    0  503  502 -0.00000000000E+00 -0.00000000000E+00 -0.21795596308E+03  0.21795596308E+03  0.00000000000E+00 0.  1.
         21    1    1    2  503  501 -0.79539376672E+02  0.99504635885E+02  0.13699205133E+03  0.18706818845E+03  0.00000000000E+00 0.  1.
         21    1    1    2  504  502  0.79539376672E+02 -0.99504635885E+02 -0.17188863095E+03  0.21394715809E+03  0.00000000000E+00 0.  1.
<mgrwt>
<rscale>  2 0.12738793E+03</rscale>
<asrwt>0</asrwt>
<pdfrwt beam="1">  1       21 0.28162982E-01 0.12738793E+03</pdfrwt>
<pdfrwt beam="2">  1       21 0.33531686E-01 0.12738793E+03</pdfrwt>
<totfact> 0.10576966E+05</totfact>
</mgrwt>
</event>
<event>
 4    1  0.6055396E+003  0.1054177E+03  0.7546771E-02  0.1269299E+00
         21   -1    0    0  503  501  0.00000000000E+00  0.00000000000E+00  0.33979538670E+02  0.33979538670E+02  0.00000000000E+00 0. -1.
         21   -1    0    0  504  502 -0.00000000000E+00 -0.00000000000E+00 -0.53674301155E+03  0.53674301155E+03  0.00000000000E+00 0.  1.
         21    1    1    2  503  502  0.75391561564E+02  0.73681822853E+02 -0.73017756422E+02  0.12823607654E+03  0.00000000000E+00 0. -1.
         21    1    1    2  504  501 -0.75391561564E+02 -0.73681822853E+02 -0.42974571646E+03  0.44248647368E+03  0.00000000000E+00 0.  1.
<mgrwt>
<rscale>  2 0.10541773E+03</rscale>
<asrwt>0</asrwt>
<pdfrwt beam="1">  1       21 0.52276218E-02 0.10541773E+03</pdfrwt>
<pdfrwt beam="2">  1       21 0.82575841E-01 0.10541773E+03</pdfrwt>
<totfact> 0.32555221E+05</totfact>
</mgrwt>
</event>
<event>
 4    1  0.6055396E+003  0.1047867E+03  0.7546771E-02  0.1270541E+00
         21   -1    0    0  502  501  0.00000000000E+00  0.00000000000E+00  0.51448787168E+02  0.51448787168E+02  0.00000000000E+00 0.  1.
         21   -1    0    0  504  502 -0.00000000000E+00 -0.00000000000E+00 -0.43907484465E+03  0.43907484465E+03  0.00000000000E+00 0. -1.
         21    1    1    2  503  501  0.44885103840E+02 -0.94686692799E+02 -0.17987390218E+02  0.10631927646E+03  0.00000000000E+00 0.  1.
         21    1    1    2  504  503 -0.44885103840E+02  0.94686692799E+02 -0.36963866726E+03  0.38420435536E+03  0.00000000000E+00 0. -1.
<mgrwt>
<rscale>  2 0.10478665E+03</rscale>
<asrwt>0</asrwt>
<pdfrwt beam="1">  1       21 0.79151982E-02 0.10478665E+03</pdfrwt>
<pdfrwt beam="2">  1       21 0.67549975E-01 0.10478665E+03</pdfrwt>
<totfact> 0.25049973E+05</totfact>
</mgrwt>
</event>
<event>
 4    1  0.6055396E+003  0.1144893E+03  0.7546771E-02  0.1252475E+00
         21   -1    0    0  503  501  0.00000000000E+00  0.00000000000E+00  0.14745544474E+03  0.14745544474E+03  0.00000000000E+00 0. -1.
         21   -1    0    0  501  502 -0.00000000000E+00 -0.00000000000E+00 -0.24233319459E+03  0.24233319459E+03  0.00000000000E+00 0.  1.
         21    1    1    2  503  504 -0.17543123224E+02 -0.11313724726E+03  0.10764330752E+03  0.15714604527E+03  0.00000000000E+00 0. -1.
         21    1    1    2  504  502  0.17543123224E+02  0.11313724726E+03 -0.20252105737E+03  0.23264259405E+03  0.00000000000E+00 0.  1.
<mgrwt>
<rscale>  2 0.11448929E+03</rscale>
<asrwt>0</asrwt>
<pdfrwt beam="1">  1       21 0.22685453E-01 0.11448929E+03</pdfrwt>
<pdfrwt beam="2">  1       21 0.37282030E-01 0.11448929E+03</pdfrwt>
<totfact> 0.12989400E+05</totfact>
</mgrwt>
</event>
<event>
 4    1  0.6055396E+003  0.1002567E+03  0.7546771E-02  0.1279757E+00
         21   -1    0    0  504  501  0.00000000000E+00  0.00000000000E+00  0.52094462049E+03  0.52094462049E+03  0.00000000000E+00 0. -1.
         21   -1    0    0  501  502 -0.00000000000E+00 -0.00000000000E+00 -0.36183519047E+02  0.36183519047E+02  0.00000000000E+00 0. -1.
         21    1    1    2  503  502 -0.94039252454E+02  0.34756747125E+02  0.52066539471E+02  0.11297051388E+03  0.00000000000E+00 0. -1.
         21    1    1    2  504  503  0.94039252454E+02 -0.34756747125E+02  0.43269456198E+03  0.44415762566E+03  0.00000000000E+00 0. -1.
<mgrwt>
<rscale>  2 0.10025673E+03</rscale>
<asrwt>0</asrwt>
<pdfrwt beam="1">  1       21 0.80145321E-01 0.10025673E+03</pdfrwt>
<pdfrwt beam="2">  1       21 0.55666956E-02 0.10025673E+03</pdfrwt>
<totfact> 0.31348215E+05</totfact>
</mgrwt>
</event>
<event>
 4    1  0.6055396E+003  0.1091997E+03  0.7546771E-02  0.1262059E+00
         21   -1    0    0  504  501  0.00000000000E+00  0.00000000000E+00  0.96710127474E+03  0.96710127474E+03  0.00000000000E+00 0.  1.
         21   -1    0    0  503  502 -0.00000000000E+00 -0.00000000000E+00 -0.46141039730E+02  0.46141039730E+02  0.00000000000E+00 0. -1.
         21    1    1    2  503  501  0.16026015771E+02  0.10801735267E+03  0.26802092165E+02  0.11244080133E+03  0.00000000000E+00 0. -1.
         21    1    1    2  504  502 -0.16026015771E+02 -0.10801735267E+03  0.89415814284E+03  0.90080151314E+03  0.00000000000E+00 0.  1.
<mgrwt>
<rscale>  2 0.10919973E+03</rscale>
<asrwt>0</asrwt>
<pdfrwt beam="1">  1       21 0.14878480E+00 0.10919973E+03</pdfrwt>
<pdfrwt beam="2">  1       21 0.70986222E-02 0.10919973E+03</pdfrwt>
<totfact> 0.47573390E+04</totfact>
</mgrwt>
</event>
<event>
 4    1  0.6055396E+003  0.1593105E+03  0.7546771E-02  0.1189477E+00
         21   -1    0    0  502  501  0.00000000000E+00  0.00000000000E+00  0.80950484139E+03  0.80950484139E+03  0.00000000000E+00 0. -1.
         21   -1    0    0  504  502 -0.00000000000E+00 -0.00000000000E+00 -0.17423683820E+03  0.17423683820E+03  0.00000000000E+00 0.  1.
         21    1    1    2  503  501  0.14060429917E+03 -0.74901663671E+02  0.76305811389E+03  0.77951107327E+03  0.00000000000E+00 0. -1.
         21    1    1    2  504  503 -0.14060429917E+03  0.74901663671E+02 -0.12779011070E+03  0.20423060633E+03  0.00000000000E+00 0.  1.
<mgrwt>
<rscale>  2 0.15931048E+03</rscale>
<asrwt>0</asrwt>
<pdfrwt beam="1">  1       21 0.12453920E+00 0.15931048E+03</pdfrwt>
<pdfrwt beam="2">  1       21 0.26805668E-01 0.15931048E+03</pdfrwt>
<totfact> 0.65599110E+03</totfact>
</mgrwt>
</event>
<event>
 4    1  0.6055396E+003  0.1128870E+03  0.7546771E-02  0.1255315E+00
         21   -1    0    0  502  501  0.00000000000E+00  0.00000000000E+00  0.91769750683E+03  0.91769750683E+03  0.00000000000E+00 0. -1.
         21   -1    0    0  504  502 -0.00000000000E+00 -0.00000000000E+00 -0.17911627812E+02  0.17911627812E+02  0.00000000000E+00 0. -1.
         21    1    1    2  503  501  0.77654624532E+02  0.81934326290E+02  0.67165871344E+03  0.68107921850E+03  0.00000000000E+00 0. -1.
         21    1    1    2  504  503 -0.77654624532E+02 -0.81934326290E+02  0.22812716558E+03  0.25452991614E+03  0.00000000000E+00 0. -1.
<mgrwt>
<rscale>  2 0.11288700E+03</rscale>
<asrwt>0</asrwt>
<pdfrwt beam="1">  1       21 0.14118420E+00 0.11288700E+03</pdfrwt>
<pdfrwt beam="2">  1       21 0.27556358E-02 0.11288700E+03</pdfrwt>
<totfact> 0.26210488E+05</totfact>
</mgrwt>
</event>
<event>
 4    1  0.6055396E+003  0.1228040E+03  0.7546771E-02  0.1238542E+00
         21   -1    0    0  504  501  0.00000000000E+00  0.00000000000E+00  0.33535775310E+03  0.33535775310E+03  0.00000000000E+00 0. -1.
         21   -1    0    0  503  502 -0.00000000000E+00 -0.00000000000E+00 -0.44970015065E+02  0.44970015065E+02  0.00000000000E+00 0. -1.
         21    1    1    2  503  501 -0.11125434890E+03 -0.51993163614E+02  0.14446098666E+03  0.18960431397E+03  0.00000000000E+00 0. -1.
         21    1    1    2  504  502  0.11125434890E+03  0.51993163614E+02  0.14592675137E+03  0.19072345419E+03  0.00000000000E+00 0. -1.
<mgrwt>
<rscale>  2 0.12280399E+03</rscale>
<asrwt>0</asrwt>
<pdfrwt beam="1">  1       21 0.51593499E-01 0.12280399E+03</pdfrwt>
<pdfrwt beam="2">  1       21 0.69184641E-02 0.12280399E+03</pdfrwt>
<totfact> 0.55539040E+05</totfact>
</mgrwt>
</event>
<event>
 4    1  0.6055396E+003  0.1672682E+03  0.7546771E-02  0.1180727E+00
         21   -1    0    0  503  501  0.00000000000E+00  0.00000000000E+00  0.87414027114E+02  0.87414027114E+02  0.00000000000E+00 0.  1.
         21   -1    0    0  504  502 -0.00000000000E+00 -0.00000000000E+00 -0.86959853979E+03  0.86959853979E+03  0.00000000000E+00 0. -1.
         21    1    1    2  503  502 -0.14779039752E+02 -0.16661402470E+03 -0.77147706499E+03  0.78940199838E+03  0.00000000000E+00 0. -1.
         21    1    1    2  504  501  0.14779039752E+02  0.16661402470E+03 -0.10707447684E+02  0.16761056852E+03  0.00000000000E+00 0.  1.
<mgrwt>
<rscale>  2 0.16726821E+03</rscale>
<asrwt>0</asrwt>
<pdfrwt beam="1">  1       21 0.13448312E-01 0.16726821E+03</pdfrwt>
<pdfrwt beam="2">  1       21 0.13378439E+00 0.16726821E+03</pdfrwt>
<totfact> 0.19554448E+04</totfact>
</mgrwt>
</event>
<event>
 4    1  0.6055396E+003  0.1294145E+03  0.7546771E-02  0.1228327E+00
         21   -1    0    0  503  501  0.00000000000E+00  0.00000000000E+00  0.18023969166E+03  0.18023969166E+03  0.00000000000E+00 0. -1.
         21   -1    0    0  504  502 -0.00000000000E+00 -0.00000000000E+00 -0.16529498922E+03  0.16529498922E+03  0.00000000000E+00 0.  1.
         21    1    1    2  503  502 -0.77632777083E+02  0.10354350661E+03  0.12179233905E+03  0.17771178827E+03  0.00000000000E+00 0. -1.
         21    1    1    2  504  501  0.77632777083E+02 -0.10354350661E+03 -0.10684763661E+03  0.16782289262E+03  0.00000000000E+00 0.  1.
<mgrwt>
<rscale>  2 0.12941447E+03</rscale>
<asrwt>0</asrwt>
<pdfrwt beam="1">  1       21 0.27729183E-01 0.12941447E+03</pdfrwt>
<pdfrwt beam="2">  1       21 0.25429998E-01 0.12941447E+03</pdfrwt>
<totfact> 0.18532040E+05</totfact>
</mgrwt>
</event>
<event>
 4    1  0.6055396E+003  0.1056094E+03  0.7546771E-02  0.1268924E+00
         21   -1    0    0  504  501  0.00000000000E+00  0.00000000000E+00  0.23674567970E+04  0.23674567970E+04  0.00000000000E+00 0.  1.
         21   -1    0    0  503  502 -0.00000000000E+00 -0.00000000000E+00 -0.33724121968E+02  0.33724121968E+02  0.00000000000E+00 0. -1.
         21    1    1    2  503  501 -0.51872516710E+02 -0.91992289866E+02  0.53287414211E+02  0.11829153773E+03  0.00000000000E+00 0. -1.
         21    1    1    2  504  502  0.51872516710E+02  0.91992289866E+02  0.22804452609E+04  0.22828893813E+04  0.00000000000E+00 0.  1.
<mgrwt>
<rscale>  2 0.10560937E+03</rscale>
<asrwt>0</asrwt>
<pdfrwt beam="1">  1       21 0.36422399E+00 0.10560937E+03</pdfrwt>
<pdfrwt beam="2">  1       21 0.51883283E-02 0.10560937E+03</pdfrwt>
<totfact> 0.42308945E+03</totfact>
</mgrwt>
</event>
<event>
 4    1  0.6055396E+003  0.1033080E+03  0.7546771E-02  0.1273490E+00
         21   -1    0    0  503  501  0.00000000000E+00  0.00000000000E+00  0.52214706940E+02  0.52214706940E+02  0.00000000000E+00 0. -1.
         21   -1    0    0  504  502 -0.00000000000E+00 -0.00000000000E+00 -0.20718924846E+03  0.20718924846E+03  0.00000000000E+00 0. -1.
         21    1    1    2  503  502  0.62288664871E+02 -0.82417597439E+02 -0.62430664759E+02  0.12070677711E+03  0.00000000000E+00 0. -1.
         21    1    1    2  504  501 -0.62288664871E+02  0.82417597439E+02 -0.92543876766E+02  0.13869717829E+03  0.00000000000E+00 0. -1.
<mgrwt>
<rscale>  2 0.10330798E+03</rscale>
<asrwt>0</asrwt>
<pdfrwt beam="1">  1       21 0.80330320E-02 0.10330798E+03</pdfrwt>
<pdfrwt beam="2">  1       21 0.31875268E-01 0.10330798E+03</pdfrwt>
<totfact> 0.11242560E+06</totfact>
</mgrwt>
</event>
<event>
 4    1  0.6055396E+003  0.1098120E+03  0.7546771E-02  0.1260918E+00
         21   -1    0    0  504  501  0.00000000000E+00  0.00000000000E+00  0.25728117965E+02  0.25728117965E+02  0.00000000000E+00 0.  1.
         21   -1    0    0  503  502 -0.00000000000E+00 -0.00000000000E+00 -0.63982749631E+03  0.63982749631E+03  0.00000000000E+00 0. -1.
         21    1    1    2  503  501 -0.10874769612E+03  0.15251790004E+02 -0.13494715648E+03  0.17398107239E+03  0.00000000000E+00 0.  1.
         21    1    1    2  504  502  0.10874769612E+03 -0.15251790004E+02 -0.47915222187E+03  0.49157454188E+03  0.00000000000E+00 0. -1.
<mgrwt>
<rscale>  2 0.10981201E+03</rscale>
<asrwt>0</asrwt>
<pdfrwt beam="1">  1       21 0.39581717E-02 0.10981201E+03</pdfrwt>
<pdfrwt beam="2">  1       21 0.98435006E-01 0.10981201E+03</pdfrwt>
<totfact> 0.34651765E+05</totfact>
</mgrwt>
</event>
<event>
 4    1  0.6055396E+003  0.1083277E+03  0.7546771E-02  0.1263698E+00
         21   -1    0    0  504  501  0.00000000000E+00  0.00000000000E+00  0.15468482449E+04  0.15468482449E+04  0.00000000000E+00 0.  1.
         21   -1    0    0  501  502 -0.00000000000E+00 -0.00000000000E+00 -0.21928540769E+03  0.21928540769E+03  0.00000000000E+00 0.  1.
         21    1    1    2  503  502 -0.90672914648E+02 -0.59273139511E+02 -0.20387582985E+03  0.23086843984E+03  0.00000000000E+00 0.  1.
         21    1    1    2  504  503  0.90672914648E+02  0.59273139511E+02  0.15314386670E+04  0.15352652127E+04  0.00000000000E+00 0.  1.
<mgrwt>
<rscale>  2 0.10832766E+03</rscale>
<asrwt>0</asrwt>
<pdfrwt beam="1">  1       21 0.23797665E+00 0.10832766E+03</pdfrwt>
<pdfrwt beam="2">  1       21 0.33736218E-01 0.10832766E+03</pdfrwt>
<totfact> 0.75899459E+02</totfact>
</mgrwt>
</event>
<event>
 4    1  0.6055396E+003  0.1019444E+03  0.7546771E-02  0.1276259E+00
         21   -1    0    0  502  501  0.00000000000E+00  0.00000000000E+00  0.42042038998E+03  0.42042038998E+03  0.00000000000E+00 0.  1.
         21   -1    0    0  504  502 -0.00000000000E+00 -0.00000000000E+00 -0.25644422554E+02  0.25644422554E+02  0.00000000000E+00 0.  1.
         21    1    1    2  503  501  0.50346392697E+02  0.88644841161E+02  0.23974024060E+03  0.26051497094E+03  0.00000000000E+00 0.  1.
         21    1    1    2  504  503 -0.50346392697E+02 -0.88644841161E+02  0.15503572683E+03  0.18554984159E+03  0.00000000000E+00 0.  1.
<mgrwt>
<rscale>  2 0.10194443E+03</rscale>
<asrwt>0</asrwt>
<pdfrwt beam="1">  1       21 0.64680055E-01 0.10194443E+03</pdfrwt>
<pdfrwt beam="2">  1       21 0.39452961E-02 0.10194443E+03</pdfrwt>
<totfact> 0.88621424E+05</totfact>
</mgrwt>
</event>
<event>
 4    1  0.6055396E+003  0.1112483E+03  0.7546771E-02  0.1258276E+00
         21   -1    0    0  503  501  0.00000000000E+00  0.00000000000E+00  0.17907364419E+03  0.17907364419E+03  0.00000000000E+00 0. -1.
         21   -1    0    0  504  502 -0.00000000000E+00 -0.00000000000E+00 -0.79789201168E+02  0.79789201168E+02  0.00000000000E+00 0. -1.
         21    1    1    2  503  502  0.55859202719E+02  0.96207736160E+02  0.96989136352E+02  0.14759089266E+03  0.00000000000E+00 0. -1.
         21    1    1    2  504  501 -0.55859202719E+02 -0.96207736160E+02  0.22953066729E+01  0.11127195270E+03  0.00000000000E+00 0. -1.
<mgrwt>
<rscale>  2 0.11124828E+03</rscale>
<asrwt>0</asrwt>
<pdfrwt beam="1">  1       21 0.27549791E-01 0.11124828E+03</pdfrwt>
<pdfrwt beam="2">  1       21 0.12275262E-01 0.11124828E+03</pdfrwt>
<totfact> 0.71141775E+05</totfact>
</mgrwt>
</event>
<event>
 4    1  0.6055396E+003  0.4135565E+03  0.7546771E-02  0.1039184E+00
         21   -1    0    0  502  501  0.00000000000E+00  0.00000000000E+00  0.73371523134E+03  0.73371523134E+03  0.00000000000E+00 0.  1.
         21   -1    0    0  504  502 -0.00000000000E+00 -0.00000000000E+00 -0.23542360057E+03  0.23542360057E+03  0.00000000000E+00 0.  1.
         21    1    1    2  503  501  0.29742303841E+03  0.28734741841E+03  0.29728669293E+03  0.50932149026E+03  0.00000000000E+00 0.  1.
         21    1    1    2  504  503 -0.29742303841E+03 -0.28734741841E+03  0.20100493784E+03  0.45981734165E+03  0.00000000000E+00 0.  1.
<mgrwt>
<rscale>  2 0.41355653E+03</rscale>
<asrwt>0</asrwt>
<pdfrwt beam="1">  1       21 0.11287927E+00 0.41355653E+03</pdfrwt>
<pdfrwt beam="2">  1       21 0.36219016E-01 0.41355653E+03</pdfrwt>
<totfact> 0.39882456E+03</totfact>
</mgrwt>
</event>
<event>
 4    1  0.6055396E+003  0.1597126E+03  0.7546771E-02  0.1189022E+00
         21   -1    0    0  503  501  0.00000000000E+00  0.00000000000E+00  0.28825756081E+03  0.28825756081E+03  0.00000000000E+00 0.  1.
         21   -1    0    0  504  502 -0.00000000000E+00 -0.00000000000E+00 -0.30693643503E+03  0.30693643503E+03  0.00000000000E+00 0.  1.
         21    1    1    2  503  502  0.27114944516E+02 -0.15739412140E+03  0.24171971176E+03  0.28971805039E+03  0.00000000000E+00 0.  1.
         21    1    1    2  504  501 -0.27114944516E+02  0.15739412140E+03 -0.26039858598E+03  0.30547594545E+03  0.00000000000E+00 0.  1.
<mgrwt>
<rscale>  2 0.15971265E+03</rscale>
<asrwt>0</asrwt>
<pdfrwt beam="1">  1       21 0.44347317E-01 0.15971265E+03</pdfrwt>
<pdfrwt beam="2">  1       21 0.47220990E-01 0.15971265E+03</pdfrwt>
<totfact> 0.21382179E+04</totfact>
</mgrwt>
</event>
<event>
 4    1  0.6055396E+003  0.1129517E+03  0.7546771E-02  0.1255199E+00
         21   -1    0    0  503  501  0.00000000000E+00  0.00000000000E+00  0.34190513328E+03  0.34190513328E+03  0.00000000000E+00 0. -1.
         21   -1    0    0  504  502 -0.00000000000E+00 -0.00000000000E+00 -0.88135032572E+02  0.88135032572E+02  0.00000000000E+00 0. -1.
         21    1    1    2  503  502 -0.83509023740E+01  0.11264261760E+03 -0.36391333883E+02  0.11866939813E+03  0.00000000000E+00 0. -1.
         21    1    1    2  504  501  0.83509023740E+01 -0.11264261760E+03  0.29016143459E+03  0.31137076773E+03  0.00000000000E+00 0. -1.
<mgrwt>
<rscale>  2 0.11295175E+03</rscale>
<asrwt>0</asrwt>
<pdfrwt beam="1">  1       21 0.52600789E-01 0.11295175E+03</pdfrwt>
<pdfrwt beam="2">  1       21 0.13559236E-01 0.11295175E+03</pdfrwt>
<totfact> 0.16552944E+05</totfact>
</mgrwt>
</event>
<event>
 4    1  0.6055396E+003  0.1073576E+03  0.7546771E-02  0.1265543E+00
         21   -1    0    0  504  501  0.00000000000E+00  0.00000000000E+00  0.23954482961E+04  0.23954482961E+04  0.00000000000E+00 0.  1.
         21   -1    0    0  501  502 -0.00000000000E+00 -0.00000000000E+00 -0.26759029393E+03  0.26759029393E+03  0.00000000000E+00 0.  1.
         21    1    1    2  503  502 -0.79472046702E+02  0.72179265838E+02 -0.25556511988E+03  0.27719881516E+03  0.00000000000E+00 0.  1.
         21    1    1    2  504  503  0.79472046702E+02 -0.72179265838E+02  0.23834231221E+04  0.23858397749E+04  0.00000000000E+00 0.  1.
<mgrwt>
<rscale>  2 0.10735759E+03</rscale>
<asrwt>0</asrwt>
<pdfrwt beam="1">  1       21 0.36853049E+00 0.10735759E+03</pdfrwt>
<pdfrwt beam="2">  1       21 0.41167739E-01 0.10735759E+03</pdfrwt>
<totfact> 0.94609329E+01</totfact>
</mgrwt>
</event>
<event>
 4    1  0.6055396E+003  0.1091170E+03  0.7546771E-02  0.1262214E+00
         21   -1    0    0  503  501  0.00000000000E+00  0.00000000000E+00  0.92864325416E+02  0.92864325416E+02  0.00000000000E+00 0.  1.
         21   -1    0    0  504  502 -0.00000000000E+00 -0.00000000000E+00 -0.12825286913E+03  0.12825286913E+03  0.00000000000E+00 0.  1.
         21    1    1    2  503  502 -0.58641833282E+02 -0.92019912575E+02 -0.19613009364E+02  0.11086568025E+03  0.00000000000E+00 0.  1.
         21    1    1    2  504  501  0.58641833282E+02  0.92019912575E+02 -0.15775534352E+02  0.11025151430E+03  0.00000000000E+00 0.  1.
<mgrwt>
<rscale>  2 0.10911704E+03</rscale>
<asrwt>0</asrwt>
<pdfrwt beam="1">  1       21 0.14286819E-01 0.10911704E+03</pdfrwt>
<pdfrwt beam="2">  1       21 0.19731210E-01 0.10911704E+03</pdfrwt>
<totfact> 0.10135367E+06</totfact>
</mgrwt>
</event>
<event>
 4    1  0.6055396E+003  0.1261192E+03  0.7546771E-02  0.1233331E+00
         21   -1    0    0  503  501  0.00000000000E+00  0.00000000000E+00  0.81758412821E+02  0.81758412821E+02  0.00000000000E+00 0. -1.
         21   -1    0    0  504  502 -0.00000000000E+00 -0.00000000000E+00 -0.25844701636E+03  0.25844701636E+03  0.00000000000E+00 0. -1.
         21    1    1    2  503  502  0.81852903042E+02 -0.95948651214E+02 -0.37642054188E+01  0.12617531711E+03  0.00000000000E+00 0. -1.
         21    1    1    2  504  501 -0.81852903042E+02  0.95948651214E+02 -0.17292439812E+03  0.21403011207E+03  0.00000000000E+00 0. -1.
<mgrwt>
<rscale>  2 0.12611916E+03</rscale>
<asrwt>0</asrwt>
<pdfrwt beam="1">  1       21 0.12578218E-01 0.12611916E+03</pdfrwt>
<pdfrwt beam="2">  1       21 0.39761079E-01 0.12611916E+03</pdfrwt>
<totfact> 0.33308930E+05</totfact>
</mgrwt>
</event>
<event>
 4    1  0.6055396E+003  0.1033999E+03  0.7546771E-02  0.1273305E+00
         21   -1    0    0  503  501  0.00000000000E+00  0.00000000000E+00  0.10928345949E+03  0.10928345949E+03  0.00000000000E+00 0.  1.
         21   -1    0    0  501  502 -0.00000000000E+00 -0.00000000000E+00 -0.28866878495E+03  0.28866878495E+03  0.00000000000E+00 0. -1.
         21    1    1    2  503  504 -0.10310699997E+03 -0.77772062397E+01  0.72089582242E+02  0.12604938019E+03  0.00000000000E+00 0.  1.
         21    1    1    2  504  502  0.10310699997E+03  0.77772062397E+01 -0.25147490771E+03  0.27190286425E+03  0.00000000000E+00 0. -1.
<mgrwt>
<rscale>  2 0.10339990E+03</rscale>
<asrwt>0</asrwt>
<pdfrwt beam="1">  1       21 0.16812840E-01 0.10339990E+03</pdfrwt>
<pdfrwt beam="2">  1       21 0.44410582E-01 0.10339990E+03</pdfrwt>
<totfact> 0.15949771E+05</totfact>
</mgrwt>
</event>
<event>
 4    1  0.6055396E+003  0.2132987E+03  0.7546771E-02  0.1138980E+00
         21   -1    0    0  503  501  0.00000000000E+00  0.00000000000E+00  0.13265907301E+03  0.13265907301E+03  0.00000000000E+00 0.  1.
         21   -1    0    0  501  502 -0.00000000000E+00 -0.00000000000E+00 -0.36593995352E+03  0.36593995352E+03  0.00000000000E+00 0.  1.
         21    1    1    2  503  504 -0.13807753552E+01  0.21329419128E+03 -0.54163144666E+02  0.22006809132E+03  0.00000000000E+00 0.  1.
         21    1    1    2  504  502  0.13807753552E+01 -0.21329419128E+03 -0.17911773585E+03  0.27853093521E+03  0.00000000000E+00 0.  1.
<mgrwt>
<rscale>  2 0.21329866E+03</rscale>
<asrwt>0</asrwt>
<pdfrwt beam="1">  1       21 0.20409088E-01 0.21329866E+03</pdfrwt>
<pdfrwt beam="2">  1       21 0.56298455E-01 0.21329866E+03</pdfrwt>
<totfact> 0.65368868E+04</totfact>
</mgrwt>
</event>
<event>
 4    1  0.6055396E+003  0.1295178E+03  0.7546771E-02  0.1228173E+00
         21   -1    0    0  504  501  0.00000000000E+00  0.00000000000E+00  0.33093972088E+02  0.33093972088E+02  0.00000000000E+00 0. -1.
         21   -1    0    0  503  502 -0.00000000000E+00 -0.00000000000E+00 -0.17709814959E+04  0.17709814959E+04  0.00000000000E+00 0.  1.
         21    1    1    2  503  501 -0.11900908553E+03 -0.51104749740E+02 -0.10685123264E+03  0.16790486533E+03  0.00000000000E+00 0. -1.
         21    1    1    2  504  502  0.11900908553E+03  0.51104749740E+02 -0.16310362912E+04  0.16361706027E+04  0.00000000000E+00 0.  1.
<mgrwt>
<rscale>  2 0.12951779E+03</rscale>
<asrwt>0</asrwt>
<pdfrwt beam="1">  1       21 0.50913809E-02 0.12951779E+03</pdfrwt>
<pdfrwt beam="2">  1       21 0.27245866E+00 0.12951779E+03</pdfrwt>
<totfact> 0.13776619E+04</totfact>
</mgrwt>
</event>
<event>
 4    1  0.6055396E+003  0.1246127E+03  0.7546771E-02  0.1235676E+00
         21   -1    0    0  504  501  0.00000000000E+00  0.00000000000E+00  0.18936495704E+03  0.18936495704E+03  0.00000000000E+00 0.  1.
         21   -1    0    0  503  502 -0.00000000000E+00 -0.00000000000E+00 -0.87043152135E+02  0.87043152135E+02  0.00000000000E+00 0.  1.
         21    1    1    2  503  501 -0.12363265622E+03  0.15598131974E+02  0.84420080500E+02  0.15051606359E+03  0.00000000000E+00 0.  1.
         21    1    1    2  504  502  0.12363265622E+03 -0.15598131974E+02  0.17901724404E+02  0.12589204559E+03  0.00000000000E+00 0.  1.
<mgrwt>
<rscale>  2 0.12461274E+03</rscale>
<asrwt>0</asrwt>
<pdfrwt beam="1">  1       21 0.29133070E-01 0.12461274E+03</pdfrwt>
<pdfrwt beam="2">  1       21 0.13391254E-01 0.12461274E+03</pdfrwt>
<totfact> 0.54763271E+05</totfact>
</mgrwt>
</event>
<event>
 4    1  0.6055396E+003  0.1021909E+03  0.7546771E-02  0.1275755E+00
         21   -1    0    0  502  501  0.00000000000E+00  0.00000000000E+00  0.41905369580E+03  0.41905369580E+03  0.00000000000E+00 0. -1.
         21   -1    0    0  504  502 -0.00000000000E+00 -0.00000000000E+00 -0.60628097221E+02  0.60628097221E+02  0.00000000000E+00 0.  1.
         21    1    1    2  503  501 -0.10199287911E+03  0.63592703122E+01  0.36327608174E+03  0.37737580642E+03  0.00000000000E+00 0. -1.
         21    1    1    2  504  503  0.10199287911E+03 -0.63592703122E+01 -0.48504831561E+01  0.10230598660E+03  0.00000000000E+00 0.  1.
<mgrwt>
<rscale>  2 0.10219094E+03</rscale>
<asrwt>0</asrwt>
<pdfrwt beam="1">  1       21 0.64469797E-01 0.10219094E+03</pdfrwt>
<pdfrwt beam="2">  1       21 0.93273999E-02 0.10219094E+03</pdfrwt>
<totfact> 0.20883264E+05</totfact>
</mgrwt>
</event>
<event>
 4    1  0.6055396E+003  0.1175058E+03  0.7546771E-02  0.1247269E+00
         21   -1    0    0  504  501  0.00000000000E+00  0.00000000000E+00  0.29689124195E+03  0.29689124195E+03  0.00000000000E+00 0.  1.
         21   -1    0    0  503  502 -0.00000000000E+00 -0.00000000000E+00 -0.59744665710E+02  0.59744665710E+02  0.00000000000E+00 0.  1.
         21    1    1    2  503  501 -0.29535357980E+02 -0.11373331908E+03  0.20250895671E+03  0.23413133662E+03  0.00000000000E+00 0.  1.
         21    1    1    2  504  502  0.29535357980E+02  0.11373331908E+03  0.34637619529E+02  0.12250457104E+03  0.00000000000E+00 0.  1.
<mgrwt>
<rscale>  2 0.11750577E+03</rscale>
<asrwt>0</asrwt>
<pdfrwt beam="1">  1       21 0.45675575E-01 0.11750577E+03</pdfrwt>
<pdfrwt beam="2">  1       21 0.91914872E-02 0.11750577E+03</pdfrwt>
<totfact> 0.43747830E+05</totfact>
</mgrwt>
</event>
<event>
 4    1  0.6055396E+003  0.1069573E+03  0.7546771E-02  0.1266311E+00
         21   -1    0    0  503  501  0.00000000000E+00  0.00000000000E+00  0.17803454303E+02  0.17803454303E+02  0.00000000000E+00 0.  1.
         21   -1    0    0  504  502 -0.00000000000E+00 -0.00000000000E+00 -0.67171606644E+03  0.67171606644E+03  0.00000000000E+00 0.  1.
         21    1    1    2  503  502  0.10057840554E+03  0.36384701176E+02 -0.39877822130E+03  0.41287277934E+03  0.00000000000E+00 0.  1.
         21    1    1    2  504  501 -0.10057840554E+03 -0.36384701176E+02 -0.25513439084E+03  0.27664674140E+03  0.00000000000E+00 0.  1.
<mgrwt>
<rscale>  2 0.10695729E+03</rscale>
<asrwt>0</asrwt>
<pdfrwt beam="1">  1       21 0.27389929E-02 0.10695729E+03</pdfrwt>
<pdfrwt beam="2">  1       21 0.10334094E+00 0.10695729E+03</pdfrwt>
<totfact> 0.56599370E+05</totfact>
</mgrwt>
</event>
<event>
 4    1  0.6055396E+003  0.1324280E+03  0.7546771E-02  0.1223897E+00
         21   -1    0    0  503  501  0.00000000000E+00  0.00000000000E+00  0.12279801706E+03  0.12279801706E+03  0.00000000000E+00 0. -1.
         21   -1    0    0  501  502 -0.00000000000E+00 -0.00000000000E+00 -0.19829189203E+03  0.19829189203E+03  0.00000000000E+00 0. -1.
         21    1    1    2  503  504 -0.39061684427E+02 -0.12653605441E+03  0.47172470098E+02  0.14057891090E+03  0.00000000000E+00 0. -1.
         21    1    1    2  504  502  0.39061684427E+02  0.12653605441E+03 -0.12266634506E+03  0.18051099819E+03  0.00000000000E+00 0. -1.
<mgrwt>
<rscale>  2 0.13242805E+03</rscale>
<asrwt>0</asrwt>
<pdfrwt beam="1">  1       21 0.18892003E-01 0.13242805E+03</pdfrwt>
<pdfrwt beam="2">  1       21 0.30506445E-01 0.13242805E+03</pdfrwt>
<totfact> 0.26839674E+05</totfact>
</mgrwt>
</event>
<event>
 4    1  0.6055396E+003  0.1333454E+03  0.7546771E-02  0.1222575E+00
         21   -1    0    0  503  501  0.00000000000E+00  0.00000000000E+00  0.44662820991E+02  0.44662820991E+02  0.00000000000E+00 0.  1.
         21   -1    0    0  501  502 -0.00000000000E+00 -0.00000000000E+00 -0.51361608761E+03  0.51361608761E+03  0.00000000000E+00 0. -1.
         21    1    1    2  503  504 -0.12920549704E+03  0.32968530066E+02 -0.10210557557E+03  0.16794800684E+03  0.00000000000E+00 0.  1.
         21    1    1    2  504  502  0.12920549704E+03 -0.32968530066E+02 -0.36684769105E+03  0.39033090176E+03  0.00000000000E+00 0. -1.
<mgrwt>
<rscale>  2 0.13334536E+03</rscale>
<asrwt>0</asrwt>
<pdfrwt beam="1">  1       21 0.68712033E-02 0.13334536E+03</pdfrwt>
<pdfrwt beam="2">  1       21 0.79017859E-01 0.13334536E+03</pdfrwt>
<totfact> 0.22462696E+05</totfact>
</mgrwt>
</event>
<event>
 4    1  0.6055396E+003  0.1187409E+03  0.7546771E-02  0.1245189E+00
         21   -1    0    0  503  501  0.00000000000E+00  0.00000000000E+00  0.12061533142E+03  0.12061533142E+03  0.00000000000E+00 0.  1.
         21   -1    0    0  504  502 -0.00000000000E+00 -0.00000000000E+00 -0.13056258101E+03  0.13056258101E+03  0.00000000000E+00 0.  1.
         21    1    1    2  503  502 -0.69302374629E+02 -0.96418780047E+02  0.35659343490E+02  0.12397979292E+03  0.00000000000E+00 0.  1.
         21    1    1    2  504  501  0.69302374629E+02  0.96418780047E+02 -0.45606593074E+02  0.12719811951E+03  0.00000000000E+00 0.  1.
<mgrwt>
<rscale>  2 0.11874090E+03</rscale>
<asrwt>0</asrwt>
<pdfrwt beam="1">  1       21 0.18556205E-01 0.11874090E+03</pdfrwt>
<pdfrwt beam="2">  1       21 0.20086551E-01 0.11874090E+03</pdfrwt>
<totfact> 0.61137297E+05</totfact>
</mgrwt>
</event>
<event>
 4    1  0.6055396E+003  0.1258853E+03  0.7546771E-02  0.1233692E+00
         21   -1    0    0  502  501  0.00000000000E+00  0.00000000000E+00  0.68329096505E+03  0.68329096505E+03  0.00000000000E+00 0. -1.
         21   -1    0    0  504  502 -0.00000000000E+00 -0.00000000000E+00 -0.14616168453E+03  0.14616168453E+03  0.00000000000E+00 0.  1.
         21    1    1    2  503  501 -0.60950240591E+02  0.11014617367E+03  0.64896706384E+03  0.66106381035E+03  0.00000000000E+00 0. -1.
         21    1    1    2  504  503  0.60950240591E+02 -0.11014617367E+03 -0.11183778332E+03  0.16838883923E+03  0.00000000000E+00 0.  1.
<mgrwt>
<rscale>  2 0.12588531E+03</rscale>
<asrwt>0</asrwt>
<pdfrwt beam="1">  1       21 0.10512169E+00 0.12588531E+03</pdfrwt>
<pdfrwt beam="2">  1       21 0.22486413E-01 0.12588531E+03</pdfrwt>
<totfact> 0.14182712E+04</totfact>
</mgrwt>
</event>
<event>
 4    1  0.6055396E+003  0.1401758E+03  0.7546771E-02  0.1213093E+00
         21   -1    0    0  503  501  0.00000000000E+00  0.00000000000E+00  0.45694552875E+03  0.45694552875E+03  0.00000000000E+00 0. -1.
         21   -1    0    0  501  502 -0.00000000000E+00 -0.00000000000E+00 -0.10174900469E+03  0.10174900469E+03  0.00000000000E+00 0.  1.
         21    1    1    2  503  504 -0.13423921018E+03  0.40361888715E+02  0.38986152043E+03  0.41429609305E+03  0.00000000000E+00 0. -1.
         21    1    1    2  504  502  0.13423921018E+03 -0.40361888715E+02 -0.34664996368E+02  0.14439844038E+03  0.00000000000E+00 0.  1.
<mgrwt>
<rscale>  2 0.14017577E+03</rscale>
<asrwt>0</asrwt>
<pdfrwt beam="1">  1       21 0.70299311E-01 0.14017577E+03</pdfrwt>
<pdfrwt beam="2">  1       21 0.15653693E-01 0.14017577E+03</pdfrwt>
<totfact> 0.68219602E+04</totfact>
</mgrwt>
</event>
<event>
 4    1  0.6055396E+003  0.1312219E+03  0.7546771E-02  0.1225654E+00
         21   -1    0    0  503  501  0.00000000000E+00  0.00000000000E+00  0.29720852608E+03  0.29720852608E+03  0.00000000000E+00 0. -1.
         21   -1    0    0  504  502 -0.00000000000E+00 -0.00000000000E+00 -0.12376397592E+03  0.12376397592E+03  0.00000000000E+00 0.  1.
         21    1    1    2  503  502 -0.10101106898E+03  0.83761241279E+02  0.24023014800E+03  0.27373290924E+03  0.00000000000E+00 0. -1.
         21    1    1    2  504  501  0.10101106898E+03 -0.83761241279E+02 -0.66785597834E+02  0.14723959275E+03  0.00000000000E+00 0.  1.
<mgrwt>
<rscale>  2 0.13122188E+03</rscale>
<asrwt>0</asrwt>
<pdfrwt beam="1">  1       21 0.45724388E-01 0.13122188E+03</pdfrwt>
<pdfrwt beam="2">  1       21 0.19040612E-01 0.13122188E+03</pdfrwt>
<totfact> 0.11859986E+05</totfact>
</mgrwt>
</event>
<event>
 4    1  0.6055396E+003  0.1088420E+03  0.7546771E-02  0.1262730E+00
         21   -1    0    0  502  501  0.00000000000E+00  0.00000000000E+00  0.11110493353E+03  0.11110493353E+03  0.00000000000E+00 0.  1.
         21   -1    0    0  503  502 -0.00000000000E+00 -0.00000000000E+00 -0.12338720667E+03  0.12338720667E+03  0.00000000000E+00 0.  1.
         21    1    1    2  503  504  0.71010241681E+02  0.82487072246E+02 -0.49355477535E+02  0.11950955892E+03  0.00000000000E+00 0.  1.
         21    1    1    2  504  501 -0.71010241681E+02 -0.82487072246E+02  0.37073204394E+02  0.11498258127E+03  0.00000000000E+00 0.  1.
<mgrwt>
<rscale>  2 0.10884196E+03</rscale>
<asrwt>0</asrwt>
<pdfrwt beam="1">  1       21 0.17093067E-01 0.10884196E+03</pdfrwt>
<pdfrwt beam="2">  1       21 0.18982647E-01 0.10884196E+03</pdfrwt>
<totfact> 0.78777265E+05</totfact>
</mgrwt>
</event>
<event>
 4    1  0.6055396E+003  0.1682541E+03  0.7546771E-02  0.1179681E+00
         21   -1    0    0  502  501  0.00000000000E+00  0.00000000000E+00  0.95584131334E+02  0.95584131334E+02  0.00000000000E+00 0. -1.
         21   -1    0    0  503  502 -0.00000000000E+00 -0.00000000000E+00 -0.87326583217E+03  0.87326583217E+03  0.00000000000E+00 0.  1.
         21    1    1    2  503  504  0.14809506903E+03  0.79858049673E+02 -0.78264117000E+03  0.80052274080E+03  0.00000000000E+00 0.  1.
         21    1    1    2  504  501 -0.14809506903E+03 -0.79858049673E+02  0.49594691570E+01  0.16832722270E+03  0.00000000000E+00 0. -1.
<mgrwt>
<rscale>  2 0.16825415E+03</rscale>
<asrwt>0</asrwt>
<pdfrwt beam="1">  1       21 0.14705250E-01 0.16825415E+03</pdfrwt>
<pdfrwt beam="2">  1       21 0.13434860E+00 0.16825415E+03</pdfrwt>
<totfact> 0.16453183E+04</totfact>
</mgrwt>
</event>
<event>
 4    1  0.6055396E+003  0.1223565E+03  0.7546771E-02  0.1239259E+00
         21   -1    0    0  502  501  0.00000000000E+00  0.00000000000E+00  0.56430480253E+02  0.56430480253E+02  0.00000000000E+00 0.  1.
         21   -1    0    0  503  502 -0.00000000000E+00 -0.00000000000E+00 -0.35011700931E+03  0.35011700931E+03  0.00000000000E+00 0. -1.
         21    1    1    2  503  504 -0.62187677219E+02  0.10537460366E+03 -0.24689192213E+03  0.27554806387E+03  0.00000000000E+00 0. -1.
         21    1    1    2  504  501  0.62187677219E+02 -0.10537460366E+03 -0.46794606932E+02  0.13099942569E+03  0.00000000000E+00 0.  1.
<mgrwt>
<rscale>  2 0.12235650E+03</rscale>
<asrwt>0</asrwt>
<pdfrwt beam="1">  1       21 0.86816120E-02 0.12235650E+03</pdfrwt>
<pdfrwt beam="2">  1       21 0.53864158E-01 0.12235650E+03</pdfrwt>
<totfact> 0.34382369E+05</totfact>
</mgrwt>
</event>
<event>
 4    1  0.6055396E+003  0.1227644E+03  0.7546771E-02  0.1238605E+00
         21   -1    0    0  503  501  0.00000000000E+00  0.00000000000E+00  0.18600328491E+03  0.18600328491E+03  0.00000000000E+00 0.  1.
         21   -1    0    0  501  502 -0.00000000000E+00 -0.00000000000E+00 -0.14412552380E+03  0.14412552380E+03  0.00000000000E+00 0.  1.
         21    1    1    2  503  504 -0.11529545358E+03  0.42167089863E+02  0.13015731992E+03  0.17891906833E+03  0.00000000000E+00 0.  1.
         21    1    1    2  504  502  0.11529545358E+03 -0.42167089863E+02 -0.88279558811E+02  0.15120974038E+03  0.00000000000E+00 0.  1.
<mgrwt>
<rscale>  2 0.12276443E+03</rscale>
<asrwt>0</asrwt>
<pdfrwt beam="1">  1       21 0.28615890E-01 0.12276443E+03</pdfrwt>
<pdfrwt beam="2">  1       21 0.22173157E-01 0.12276443E+03</pdfrwt>
<totfact> 0.22610719E+05</totfact>
</mgrwt>
</event>
<event>
 4    1  0.6055396E+003  0.1581489E+03  0.7546771E-02  0.1190803E+00
         21   -1    0    0  504  501  0.00000000000E+00  0.00000000000E+00  0.19182641202E+03  0.19182641202E+03  0.00000000000E+00 0. -1.
         21   -1    0    0  503  502 -0.00000000000E+00 -0.00000000000E+00 -0.13040996482E+03  0.13040996482E+03  0.00000000000E+00 0. -1.
         21    1    1    2  503  501 -0.13643338978E+03  0.79981253175E+02  0.28429276437E+02  0.16068383386E+03  0.00000000000E+00 0. -1.
         21    1    1    2  504  502  0.13643338978E+03 -0.79981253175E+02  0.32987170763E+02  0.16155254298E+03  0.00000000000E+00 0. -1.
<mgrwt>
<rscale>  2 0.15814889E+03</rscale>
<asrwt>0</asrwt>
<pdfrwt beam="1">  1       21 0.29511756E-01 0.15814889E+03</pdfrwt>
<pdfrwt beam="2">  1       21 0.20063071E-01 0.15814889E+03</pdfrwt>
<totfact> 0.25472867E+05</totfact>
</mgrwt>
</event>
<event>
 4    1  0.6055396E+003  0.2113258E+03  0.7546771E-02  0.1140520E+00
         21   -1    0    0  504  501  0.00000000000E+00  0.00000000000E+00  0.16570543830E+03  0.16570543830E+03  0.00000000000E+00 0. -1.
         21   -1    0    0  503  502 -0.00000000000E+00 -0.00000000000E+00 -0.43518379021E+03  0.43518379021E+03  0.00000000000E+00 0. -1.
         21    1    1    2  503  501  0.38516236648E+02  0.20778619262E+03 -0.32011806465E+03  0.38358073159E+03  0.00000000000E+00 0. -1.
         21    1    1    2  504  502 -0.38516236648E+02 -0.20778619262E+03  0.50639712736E+02  0.21730849692E+03  0.00000000000E+00 0. -1.
<mgrwt>
<rscale>  2 0.21132582E+03</rscale>
<asrwt>0</asrwt>
<pdfrwt beam="1">  1       21 0.25493144E-01 0.21132582E+03</pdfrwt>
<pdfrwt beam="2">  1       21 0.66951353E-01 0.21132582E+03</pdfrwt>
<totfact> 0.29510364E+04</totfact>
</mgrwt>
</event>
<event>
 4    1  0.6055396E+003  0.1220799E+03  0.7546771E-02  0.1239705E+00
         21   -1    0    0  503  501  0.00000000000E+00  0.00000000000E+00  0.36329878064E+03  0.36329878064E+03  0.00000000000E+00 0.  1.
         21   -1    0    0  504  502 -0.00000000000E+00 -0.00000000000E+00 -0.48705537808E+02  0.48705537808E+02  0.00000000000E+00 0. -1.
         21    1    1    2  503  502  0.96859909975E+02  0.74307930774E+02  0.23911339628E+03  0.26847481635E+03  0.00000000000E+00 0.  1.
         21    1    1    2  504  501 -0.96859909975E+02 -0.74307930774E+02  0.75479846557E+02  0.14352950210E+03  0.00000000000E+00 0. -1.
<mgrwt>
<rscale>  2 0.12207994E+03</rscale>
<asrwt>0</asrwt>
<pdfrwt beam="1">  1       21 0.55892118E-01 0.12207994E+03</pdfrwt>
<pdfrwt beam="2">  1       21 0.74931599E-02 0.12207994E+03</pdfrwt>
<totfact> 0.41016305E+05</totfact>
</mgrwt>
</event>
<event>
 4    1  0.6055396E+003  0.1022008E+03  0.7546771E-02  0.1275735E+00
         21   -1    0    0  504  501  0.00000000000E+00  0.00000000000E+00  0.71200406129E+03  0.71200406129E+03  0.00000000000E+00 0.  1.
         21   -1    0    0  503  502 -0.00000000000E+00 -0.00000000000E+00 -0.18247048852E+02  0.18247048852E+02  0.00000000000E+00 0.  1.
         21    1    1    2  503  501  0.28436343400E+02  0.98165080549E+02  0.18521347155E+03  0.21153968589E+03  0.00000000000E+00 0.  1.
         21    1    1    2  504  502 -0.28436343400E+02 -0.98165080549E+02  0.50854354090E+03  0.51871142426E+03  0.00000000000E+00 0.  1.
<mgrwt>
<rscale>  2 0.10220083E+03</rscale>
<asrwt>0</asrwt>
<pdfrwt beam="1">  1       21 0.10953906E+00 0.10220083E+03</pdfrwt>
<pdfrwt beam="2">  1       21 0.28072388E-02 0.10220083E+03</pdfrwt>
<totfact> 0.47431144E+05</totfact>
</mgrwt>
</event>
<event>
 4    1  0.6055396E+003  0.1101144E+03  0.7546771E-02  0.1260358E+00
         21   -1    0    0  504  501  0.00000000000E+00  0.00000000000E+00  0.14192336055E+04  0.14192336055E+04  0.00000000000E+00 0.  1.
         21   -1    0    0  501  502 -0.00000000000E+00 -0.00000000000E+00 -0.12638396207E+02  0.12638396207E+02  0.00000000000E+00 0.  1.
         21    1    1    2  503  502 -0.42079929485E+02 -0.10175691920E+03  0.29577581517E+03  0.31560818099E+03  0.00000000000E+00 0.  1.
         21    1    1    2  504  503  0.42079929485E+02  0.10175691920E+03  0.11108193942E+04  0.11162638208E+04  0.00000000000E+00 0.  1.
<mgrwt>
<rscale>  2 0.11011445E+03</rscale>
<asrwt>0</asrwt>
<pdfrwt beam="1">  1       21 0.21834351E+00 0.11011445E+03</pdfrwt>
<pdfrwt beam="2">  1       21 0.19443698E-02 0.11011445E+03</pdfrwt>
<totfact> 0.14007338E+05</totfact>
</mgrwt>
</event>
<event>
 4    1  0.6055396E+003  0.1284395E+03  0.7546771E-02  0.1229790E+00
         21   -1    0    0  502  501  0.00000000000E+00  0.00000000000E+00  0.40627134958E+02  0.40627134958E+02  0.00000000000E+00 0. -1.
         21   -1    0    0  503  502 -0.00000000000E+00 -0.00000000000E+00 -0.51731042664E+03  0.51731042664E+03  0.00000000000E+00 0. -1.
         21    1    1    2  503  504 -0.27658422526E+01 -0.12840971212E+03 -0.36771584175E+03  0.38950178988E+03  0.00000000000E+00 0. -1.
         21    1    1    2  504  501  0.27658422526E+01  0.12840971212E+03 -0.10896744994E+03  0.16843577172E+03  0.00000000000E+00 0. -1.
<mgrwt>
<rscale>  2 0.12843950E+03</rscale>
<asrwt>0</asrwt>
<pdfrwt beam="1">  1       21 0.62503290E-02 0.12843950E+03</pdfrwt>
<pdfrwt beam="2">  1       21 0.79586212E-01 0.12843950E+03</pdfrwt>
<totfact> 0.26012319E+05</totfact>
</mgrwt>
</event>
<event>
 4    1  0.6055396E+003  0.1317760E+03  0.7546771E-02  0.1224844E+00
         21   -1    0    0  504  501  0.00000000000E+00  0.00000000000E+00  0.50192896124E+02  0.50192896124E+02  0.00000000000E+00 0. -1.
         21   -1    0    0  503  502 -0.00000000000E+00 -0.00000000000E+00 -0.79544162225E+03  0.79544162225E+03  0.00000000000E+00 0. -1.
         21    1    1    2  503  501 -0.11134272294E+03 -0.70482080507E+02 -0.69046006513E+03  0.70292249016E+03  0.00000000000E+00 0. -1.
         21    1    1    2  504  502  0.11134272294E+03  0.70482080507E+02 -0.54788660987E+02  0.14271202821E+03  0.00000000000E+00 0. -1.
<mgrwt>
<rscale>  2 0.13177604E+03</rscale>
<asrwt>0</asrwt>
<pdfrwt beam="1">  1       21 0.77219842E-02 0.13177604E+03</pdfrwt>
<pdfrwt beam="2">  1       21 0.12237563E+00 0.13177604E+03</pdfrwt>
<totfact> 0.66226164E+04</totfact>
</mgrwt>
</event>
<event>
 4    1  0.6055396E+003  0.1311966E+03  0.7546771E-02  0.1225691E+00
         21   -1    0    0  504  501  0.00000000000E+00  0.00000000000E+00  0.41576885546E+02  0.41576885546E+02  0.00000000000E+00 0.  1.
         21   -1    0    0  503  502 -0.00000000000E+00 -0.00000000000E+00 -0.69178012435E+03  0.69178012435E+03  0.00000000000E+00 0. -1.
         21    1    1    2  503  501  0.84964699336E+02  0.99967730427E+02 -0.92743783229E+02  0.16066722313E+03  0.00000000000E+00 0.  1.
         21    1    1    2  504  502 -0.84964699336E+02 -0.99967730427E+02 -0.55745945558E+03  0.57268978677E+03  0.00000000000E+00 0. -1.
<mgrwt>
<rscale>  2 0.13119660E+03</rscale>
<asrwt>0</asrwt>
<pdfrwt beam="1">  1       21 0.63964438E-02 0.13119660E+03</pdfrwt>
<pdfrwt beam="2">  1       21 0.10642771E+00 0.13119660E+03</pdfrwt>
<totfact> 0.12803525E+05</totfact>
</mgrwt>
</event>
<event>
 4    1  0.6055396E+003  0.1647853E+03  0.7546771E-02  0.1183398E+00
         21   -1    0    0  503  501  0.00000000000E+00  0.00000000000E+00  0.33155728179E+03  0.33155728179E+03  0.00000000000E+00 0.  1.
         21   -1    0    0  504  502 -0.00000000000E+00 -0.00000000000E+00 -0.43292171978E+03  0.43292171978E+03  0.00000000000E+00 0.  1.
         21    1    1    2  503  502 -0.64304669160E+02  0.15172043885E+03 -0.39487245253E+03  0.42787665957E+03  0.00000000000E+00 0.  1.
         21    1    1    2  504  501  0.64304669160E+02 -0.15172043885E+03  0.29350801454E+03  0.33660234200E+03  0.00000000000E+00 0.  1.
<mgrwt>
<rscale>  2 0.16478526E+03</rscale>
<asrwt>0</asrwt>
<pdfrwt beam="1">  1       21 0.51008813E-01 0.16478526E+03</pdfrwt>
<pdfrwt beam="2">  1       21 0.66603341E-01 0.16478526E+03</pdfrwt>
<totfact> 0.77148714E+03</totfact>
</mgrwt>
</event>
<event>
 4    1  0.6055396E+003  0.1107706E+03  0.7546771E-02  0.1259149E+00
         21   -1    0    0  503  501  0.00000000000E+00  0.00000000000E+00  0.47177952577E+03  0.47177952577E+03  0.00000000000E+00 0.  1.
         21   -1    0    0  501  502 -0.00000000000E+00 -0.00000000000E+00 -0.59206168653E+02  0.59206168653E+02  0.00000000000E+00 0.  1.
         21    1    1    2  503  504  0.11004874845E+03 -0.12625436012E+02  0.40509071896E+03  0.41996264031E+03  0.00000000000E+00 0.  1.
         21    1    1    2  504  502 -0.11004874845E+03  0.12625436012E+02  0.74826381552E+01  0.11102305411E+03  0.00000000000E+00 0.  1.
<mgrwt>
<rscale>  2 0.11077061E+03</rscale>
<asrwt>0</asrwt>
<pdfrwt beam="1">  1       21 0.72581463E-01 0.11077061E+03</pdfrwt>
<pdfrwt beam="2">  1       21 0.91086416E-02 0.11077061E+03</pdfrwt>
<totfact> 0.16799724E+05</totfact>
</mgrwt>
</event>
<event>
 4    1  0.6055396E+003  0.1414222E+03  0.7546771E-02  0.1211428E+00
         21   -1    0    0  502  501  0.00000000000E+00  0.00000000000E+00  0.21004850400E+03  0.21004850400E+03  0.00000000000E+00 0.  1.
         21   -1    0    0  503  502 -0.00000000000E+00 -0.00000000000E+00 -0.55671566869E+03  0.55671566869E+03  0.00000000000E+00 0.  1.
         21    1    1    2  503  504 -0.10411204753E+03  0.95712684158E+02 -0.52239368576E+03  0.54119811462E+03  0.00000000000E+00 0.  1.
         21    1    1    2  504  501  0.10411204753E+03 -0.95712684158E+02  0.17572652106E+03  0.22556605807E+03  0.00000000000E+00 0.  1.
<mgrwt>
<rscale>  2 0.14142219E+03</rscale>
<asrwt>0</asrwt>
<pdfrwt beam="1">  1       21 0.32315155E-01 0.14142219E+03</pdfrwt>
<pdfrwt beam="2">  1       21 0.85648564E-01 0.14142219E+03</pdfrwt>
<totfact> 0.11266548E+04</totfact>
</mgrwt>
</event>
<event>
 4    1  0.6055396E+003  0.1053791E+03  0.7546771E-02  0.1269375E+00
         21   -1    0    0  503  501  0.00000000000E+00  0.00000000000E+00  0.15462911824E+03  0.15462911824E+03  0.00000000000E+00 0. -1.
         21   -1    0    0  504  502 -0.00000000000E+00 -0.00000000000E+00 -0.10728020161E+03  0.10728020161E+03  0.00000000000E+00 0. -1.
         21    1    1    2  503  502  0.57607022323E+02  0.88239344710E+02  0.98968389651E+02  0.14456656988E+03  0.00000000000E+00 0. -1.
         21    1    1    2  504  501 -0.57607022323E+02 -0.88239344710E+02 -0.51619473022E+02  0.11734274997E+03  0.00000000000E+00 0. -1.
<mgrwt>
<rscale>  2 0.10537908E+03</rscale>
<asrwt>0</asrwt>
<pdfrwt beam="1">  1       21 0.23789095E-01 0.10537908E+03</pdfrwt>
<pdfrwt beam="2">  1       21 0.16504646E-01 0.10537908E+03</pdfrwt>
<totfact> 0.55271621E+05</totfact>
</mgrwt>
</event>
<event>
 4    1  0.6055396E+003  0.1486826E+03  0.7546771E-02  0.1202101E+00
         21   -1    0    0  503  501  0.00000000000E+00  0.00000000000E+00  0.73167748397E+03  0.73167748397E+03  0.00000000000E+00 0.  1.
         21   -1    0    0  504  502 -0.00000000000E+00 -0.00000000000E+00 -0.55108345455E+02  0.55108345455E+02  0.00000000000E+00 0.  1.
         21    1    1    2  503  502  0.46021825574E+02  0.14138070597E+03  0.60269151862E+03  0.62076048445E+03  0.00000000000E+00 0.  1.
         21    1    1    2  504  501 -0.46021825574E+02 -0.14138070597E+03  0.73877619898E+02  0.16602534497E+03  0.00000000000E+00 0.  1.
<mgrwt>
<rscale>  2 0.14868259E+03</rscale>
<asrwt>0</asrwt>
<pdfrwt beam="1">  1       21 0.11256576E+00 0.14868259E+03</pdfrwt>
<pdfrwt beam="2">  1       21 0.84782075E-02 0.14868259E+03</pdfrwt>
<totfact> 0.68431654E+04</totfact>
</mgrwt>
</event>
<event>
 4    1  0.6055396E+003  0.2121176E+03  0.7546771E-02  0.1139900E+00
         21   -1    0    0  504  501  0.00000000000E+00  0.00000000000E+00  0.45824154912E+02  0.45824154912E+02  0.00000000000E+00 0.  1.
         21   -1    0    0  503  502 -0.00000000000E+00 -0.00000000000E+00 -0.10521379377E+04  0.10521379377E+04  0.00000000000E+00 0.  1.
         21    1    1    2  503  501  0.19776641969E+03  0.76696189472E+02 -0.64501884715E+03  0.67900160192E+03  0.00000000000E+00 0.  1.
         21    1    1    2  504  502 -0.19776641969E+03 -0.76696189472E+02 -0.36129493564E+03  0.41896049068E+03  0.00000000000E+00 0.  1.
<mgrwt>
<rscale>  2 0.21211757E+03</rscale>
<asrwt>0</asrwt>
<pdfrwt beam="1">  1       21 0.70498705E-02 0.21211757E+03</pdfrwt>
<pdfrwt beam="2">  1       21 0.16186736E+00 0.21211757E+03</pdfrwt>
<totfact> 0.36014785E+04</totfact>
</mgrwt>
</event>
<event>
 4    1  0.6055396E+003  0.1497025E+03  0.7546771E-02  0.1200839E+00
         21   -1    0    0  503  501  0.00000000000E+00  0.00000000000E+00  0.16186969067E+03  0.16186969067E+03  0.00000000000E+00 0.  1.
         21   -1    0    0  504  502 -0.00000000000E+00 -0.00000000000E+00 -0.57795110559E+03  0.57795110559E+03  0.00000000000E+00 0. -1.
         21    1    1    2  503  502 -0.34978120573E+02 -0.14555884481E+03 -0.53061593626E+03  0.55132940973E+03  0.00000000000E+00 0. -1.
         21    1    1    2  504  501  0.34978120573E+02  0.14555884481E+03  0.11453452133E+03  0.18849138654E+03  0.00000000000E+00 0.  1.
<mgrwt>
<rscale>  2 0.14970253E+03</rscale>
<asrwt>0</asrwt>
<pdfrwt beam="1">  1       21 0.24903030E-01 0.14970253E+03</pdfrwt>
<pdfrwt beam="2">  1       21 0.88915554E-01 0.14970253E+03</pdfrwt>
<totfact> 0.16966902E+04</totfact>
</mgrwt>
</event>
<event>
 4    1  0.6055396E+003  0.1191851E+03  0.7546771E-02  0.1244448E+00
         21   -1    0    0  502  501  0.00000000000E+00  0.00000000000E+00  0.38751647142E+02  0.38751647142E+02  0.00000000000E+00 0. -1.
         21   -1    0    0  504  502 -0.00000000000E+00 -0.00000000000E+00 -0.13963858545E+04  0.13963858545E+04  0.00000000000E+00 0.  1.
         21    1    1    2  503  501 -0.65135332671E+02 -0.99812158148E+02 -0.62589429928E+02  0.13461989160E+03  0.00000000000E+00 0. -1.
         21    1    1    2  504  503  0.65135332671E+02  0.99812158148E+02 -0.12950447774E+04  0.13005176100E+04  0.00000000000E+00 0.  1.
<mgrwt>
<rscale>  2 0.11918506E+03</rscale>
<asrwt>0</asrwt>
<pdfrwt beam="1">  1       21 0.59617926E-02 0.11918506E+03</pdfrwt>
<pdfrwt beam="2">  1       21 0.21482857E+00 0.11918506E+03</pdfrwt>
<totfact> 0.23061281E+04</totfact>
</mgrwt>
</event>
<event>
 4    1  0.6055396E+003  0.1628951E+03  0.7546771E-02  0.1185466E+00
         21   -1    0    0  503  501  0.00000000000E+00  0.00000000000E+00  0.14245805296E+03  0.14245805296E+03  0.00000000000E+00 0. -1.
         21   -1    0    0  504  502 -0.00000000000E+00 -0.00000000000E+00 -0.18899971878E+03  0.18899971878E+03  0.00000000000E+00 0.  1.
         21    1    1    2  503  502 -0.14149954540E+03 -0.80701236270E+02 -0.33319386345E+01  0.16292916466E+03  0.00000000000E+00 0. -1.
         21    1    1    2  504  501  0.14149954540E+03  0.80701236270E+02 -0.43209727185E+02  0.16852860708E+03  0.00000000000E+00 0.  1.
<mgrwt>
<rscale>  2 0.16289509E+03</rscale>
<asrwt>0</asrwt>
<pdfrwt beam="1">  1       21 0.21916624E-01 0.16289509E+03</pdfrwt>
<pdfrwt beam="2">  1       21 0.29076880E-01 0.16289509E+03</pdfrwt>
<totfact> 0.22199637E+05</totfact>
</mgrwt>
</event>
<event>
 4    1  0.6055396E+003  0.1010254E+03  0.7546771E-02  0.1278154E+00
         21   -1    0    0  502  501  0.00000000000E+00  0.00000000000E+00  0.94970178568E+03  0.94970178568E+03  0.00000000000E+00 0. -1.
         21   -1    0    0  503  502 -0.00000000000E+00 -0.00000000000E+00 -0.27913015821E+02  0.27913015821E+02  0.00000000000E+00 0. -1.
         21    1    1    2  503  504 -0.70451502690E+02 -0.72406629620E+02  0.77563963664E+02  0.12736680377E+03  0.00000000000E+00 0. -1.
         21    1    1    2  504  501  0.70451502690E+02  0.72406629620E+02  0.84422480620E+03  0.85024799773E+03  0.00000000000E+00 0. -1.
<mgrwt>
<rscale>  2 0.10102541E+03</rscale>
<asrwt>0</asrwt>
<pdfrwt beam="1">  1       21 0.14610794E+00 0.10102541E+03</pdfrwt>
<pdfrwt beam="2">  1       21 0.42943109E-02 0.10102541E+03</pdfrwt>
<totfact> 0.11661083E+05</totfact>
</mgrwt>
</event>
<event>
 4    1  0.6055396E+003  0.1126898E+03  0.7546771E-02  0.1255668E+00
         21   -1    0    0  503  501  0.00000000000E+00  0.00000000000E+00  0.21076448596E+02  0.21076448596E+02  0.00000000000E+00 0.  1.
         21   -1    0    0  504  502 -0.00000000000E+00 -0.00000000000E+00 -0.63989067883E+03  0.63989067883E+03  0.00000000000E+00 0.  1.
         21    1    1    2  503  502 -0.10820992270E+03 -0.31457971914E+02 -0.22954150181E+03  0.25571134590E+03  0.00000000000E+00 0.  1.
         21    1    1    2  504  501  0.10820992270E+03  0.31457971914E+02 -0.38927272842E+03  0.40525578152E+03  0.00000000000E+00 0.  1.
<mgrwt>
<rscale>  2 0.11268980E+03</rscale>
<asrwt>0</asrwt>
<pdfrwt beam="1">  1       21 0.32425304E-02 0.11268980E+03</pdfrwt>
<pdfrwt beam="2">  1       21 0.98444724E-01 0.11268980E+03</pdfrwt>
<totfact> 0.48086498E+05</totfact>
</mgrwt>
</event>
<event>
 4    1  0.6055396E+003  0.1078827E+03  0.7546771E-02  0.1264542E+00
         21   -1    0    0  502  501  0.00000000000E+00  0.00000000000E+00  0.19161651539E+02  0.19161651539E+02  0.00000000000E+00 0.  1.
         21   -1    0    0  503  502 -0.00000000000E+00 -0.00000000000E+00 -0.62661943843E+03  0.62661943843E+03  0.00000000000E+00 0.  1.
         21    1    1    2  503  504 -0.42874385530E+02 -0.98997297436E+02 -0.36028613072E+03  0.37609144343E+03  0.00000000000E+00 0.  1.
         21    1    1    2  504  501  0.42874385530E+02  0.98997297436E+02 -0.24717165617E+03  0.26968964654E+03  0.00000000000E+00 0.  1.
<mgrwt>
<rscale>  2 0.10788270E+03</rscale>
<asrwt>0</asrwt>
<pdfrwt beam="1">  1       21 0.29479466E-02 0.10788270E+03</pdfrwt>
<pdfrwt beam="2">  1       21 0.96402983E-01 0.10788270E+03</pdfrwt>
<totfact> 0.59021031E+05</totfact>
</mgrwt>
</event>
<event>
 4    1  0.6055396E+003  0.1006310E+03  0.7546771E-02  0.1278975E+00
         21   -1    0    0  503  501  0.00000000000E+00  0.00000000000E+00  0.10796695935E+03  0.10796695935E+03  0.00000000000E+00 0. -1.
         21   -1    0    0  504  502 -0.00000000000E+00 -0.00000000000E+00 -0.12501931802E+03  0.12501931802E+03  0.00000000000E+00 0. -1.
         21    1    1    2  503  502 -0.99831385815E+02 -0.12660576593E+02  0.49693378499E+02  0.11223202600E+03  0.00000000000E+00 0. -1.
         21    1    1    2  504  501  0.99831385815E+02  0.12660576593E+02 -0.66745737171E+02  0.12075425137E+03  0.00000000000E+00 0. -1.
<mgrwt>
<rscale>  2 0.10063099E+03</rscale>
<asrwt>0</asrwt>
<pdfrwt beam="1">  1       21 0.16610301E-01 0.10063099E+03</pdfrwt>
<pdfrwt beam="2">  1       21 0.19233741E-01 0.10063099E+03</pdfrwt>
<totfact> 0.80934793E+05</totfact>
</mgrwt>
</event>
<event>
 4    1  0.6055396E+003  0.1093165E+03  0.7546771E-02  0.1261841E+00
         21   -1    0    0  504  501  0.00000000000E+00  0.00000000000E+00  0.82033896918E+03  0.82033896918E+03  0.00000000000E+00 0.  1.
         21   -1    0    0  501  502 -0.00000000000E+00 -0.00000000000E+00 -0.14397580997E+03  0.14397580997E+03  0.00000000000E+00 0.  1.
         21    1    1    2  503  502  0.59523930239E+02 -0.91689631297E+02 -0.11893350832E+03  0.16154029268E+03  0.00000000000E+00 0.  1.
         21    1    1    2  504  503 -0.59523930239E+02  0.91689631297E+02  0.79529666753E+03  0.80277448648E+03  0.00000000000E+00 0.  1.
<mgrwt>
<rscale>  2 0.10931645E+03</rscale>
<asrwt>0</asrwt>
<pdfrwt beam="1">  1       21 0.12620599E+00 0.10931645E+03</pdfrwt>
<pdfrwt beam="2">  1       21 0.22150125E-01 0.10931645E+03</pdfrwt>
<totfact> 0.95502947E+03</totfact>
</mgrwt>
</event>
<event>
 4    1  0.6055396E+003  0.1079309E+03  0.7546771E-02  0.1264450E+00
         21   -1    0    0  502  501  0.00000000000E+00  0.00000000000E+00  0.25490739182E+03  0.25490739182E+03  0.00000000000E+00 0.  1.
         21   -1    0    0  503  502 -0.00000000000E+00 -0.00000000000E+00 -0.68559981102E+02  0.68559981102E+02  0.00000000000E+00 0.  1.
         21    1    1    2  503  504  0.85125157592E+02 -0.66353490932E+02 -0.21839433967E+00  0.10793111651E+03  0.00000000000E+00 0.  1.
         21    1    1    2  504  501 -0.85125157592E+02  0.66353490932E+02  0.18656580506E+03  0.21553625642E+03  0.00000000000E+00 0.  1.
<mgrwt>
<rscale>  2 0.10793090E+03</rscale>
<asrwt>0</asrwt>
<pdfrwt beam="1">  1       21 0.39216521E-01 0.10793090E+03</pdfrwt>
<pdfrwt beam="2">  1       21 0.10547690E-01 0.10793090E+03</pdfrwt>
<totfact> 0.46792809E+05</totfact>
</mgrwt>
</event>
<event>
 4    1  0.6055396E+003  0.1039712E+03  0.7546771E-02  0.1272160E+00
         21   -1    0    0  503  501  0.00000000000E+00  0.00000000000E+00  0.97555842599E+03  0.97555842599E+03  0.00000000000E+00 0. -1.
         21   -1    0    0  501  502 -0.00000000000E+00 -0.00000000000E+00 -0.16375408810E+02  0.16375408810E+02  0.00000000000E+00 0. -1.
         21    1    1    2  503  504 -0.72866412573E+02 -0.74165339883E+02  0.76160619525E+03  0.76867028586E+03  0.00000000000E+00 0. -1.
         21    1    1    2  504  502  0.72866412573E+02  0.74165339883E+02  0.19757682193E+03  0.22326354894E+03  0.00000000000E+00 0. -1.
<mgrwt>
<rscale>  2 0.10397121E+03</rscale>
<asrwt>0</asrwt>
<pdfrwt beam="1">  1       21 0.15008587E+00 0.10397121E+03</pdfrwt>
<pdfrwt beam="2">  1       21 0.25192944E-02 0.10397121E+03</pdfrwt>
<totfact> 0.26034305E+05</totfact>
</mgrwt>
</event>
<event>
 4    1  0.6055396E+003  0.1016402E+03  0.7546771E-02  0.1276884E+00
         21   -1    0    0  504  501  0.00000000000E+00  0.00000000000E+00  0.44343753133E+02  0.44343753133E+02  0.00000000000E+00 0. -1.
         21   -1    0    0  503  502 -0.00000000000E+00 -0.00000000000E+00 -0.37615661598E+03  0.37615661598E+03  0.00000000000E+00 0. -1.
         21    1    1    2  503  501  0.92315404416E+02  0.42527514953E+02 -0.29562574427E+03  0.31261046703E+03  0.00000000000E+00 0. -1.
         21    1    1    2  504  502 -0.92315404416E+02 -0.42527514953E+02 -0.36187118575E+02  0.10788990208E+03  0.00000000000E+00 0. -1.
<mgrwt>
<rscale>  2 0.10164017E+03</rscale>
<asrwt>0</asrwt>
<pdfrwt beam="1">  1       21 0.68221158E-02 0.10164017E+03</pdfrwt>
<pdfrwt beam="2">  1       21 0.57870249E-01 0.10164017E+03</pdfrwt>
<totfact> 0.44858780E+05</totfact>
</mgrwt>
</event>
<event>
 4    1  0.6055396E+003  0.1031518E+03  0.7546771E-02  0.1273804E+00
         21   -1    0    0  504  501  0.00000000000E+00  0.00000000000E+00  0.19119219808E+03  0.19119219808E+03  0.00000000000E+00 0. -1.
         21   -1    0    0  503  502 -0.00000000000E+00 -0.00000000000E+00 -0.10777225601E+03  0.10777225601E+03  0.00000000000E+00 0. -1.
         21    1    1    2  503  501  0.10314693190E+03 -0.10054946801E+01  0.14566314775E+03  0.17848824385E+03  0.00000000000E+00 0. -1.
         21    1    1    2  504  502 -0.10314693190E+03  0.10054946801E+01 -0.62243205685E+02  0.12047621024E+03  0.00000000000E+00 0. -1.
<mgrwt>
<rscale>  2 0.10315183E+03</rscale>
<asrwt>0</asrwt>
<pdfrwt beam="1">  1       21 0.29414184E-01 0.10315183E+03</pdfrwt>
<pdfrwt beam="2">  1       21 0.16580347E-01 0.10315183E+03</pdfrwt>
<totfact> 0.36702491E+05</totfact>
</mgrwt>
</event>
<event>
 4    1  0.6055396E+003  0.1090042E+03  0.7546771E-02  0.1262425E+00
         21   -1    0    0  504  501  0.00000000000E+00  0.00000000000E+00  0.71592463069E+03  0.71592463069E+03  0.00000000000E+00 0. -1.
         21   -1    0    0  503  502 -0.00000000000E+00 -0.00000000000E+00 -0.93744530601E+02  0.93744530601E+02  0.00000000000E+00 0. -1.
         21    1    1    2  503  501  0.10003757709E+03  0.43294236172E+02  0.67834427546E+03  0.68704647861E+03  0.00000000000E+00 0. -1.
         21    1    1    2  504  502 -0.10003757709E+03 -0.43294236172E+02 -0.56164175367E+02  0.12262268269E+03  0.00000000000E+00 0. -1.
<mgrwt>
<rscale>  2 0.10900416E+03</rscale>
<asrwt>0</asrwt>
<pdfrwt beam="1">  1       21 0.11014225E+00 0.10900416E+03</pdfrwt>
<pdfrwt beam="2">  1       21 0.14422236E-01 0.10900416E+03</pdfrwt>
<totfact> 0.29001027E+04</totfact>
</mgrwt>
</event>
<event>
 4    1  0.6055396E+003  0.1196974E+03  0.7546771E-02  0.1243597E+00
         21   -1    0    0  502  501  0.00000000000E+00  0.00000000000E+00  0.59183950581E+02  0.59183950581E+02  0.00000000000E+00 0. -1.
         21   -1    0    0  504  502 -0.00000000000E+00 -0.00000000000E+00 -0.26413076353E+03  0.26413076353E+03  0.00000000000E+00 0. -1.
         21    1    1    2  503  501 -0.11950187431E+03 -0.68395516430E+01 -0.55768761275E+02  0.13205162689E+03  0.00000000000E+00 0. -1.
         21    1    1    2  504  503  0.11950187431E+03  0.68395516430E+01 -0.14917805167E+03  0.19126308722E+03  0.00000000000E+00 0. -1.
<mgrwt>
<rscale>  2 0.11969744E+03</rscale>
<asrwt>0</asrwt>
<pdfrwt beam="1">  1       21 0.91052231E-02 0.11969744E+03</pdfrwt>
<pdfrwt beam="2">  1       21 0.40635502E-01 0.11969744E+03</pdfrwt>
<totfact> 0.56274199E+05</totfact>
</mgrwt>
</event>
<event>
 4    1  0.6055396E+003  0.1039363E+03  0.7546771E-02  0.1272230E+00
         21   -1    0    0  503  501  0.00000000000E+00  0.00000000000E+00  0.75772759021E+02  0.75772759021E+02  0.00000000000E+00 0.  1.
         21   -1    0    0  504  502 -0.00000000000E+00 -0.00000000000E+00 -0.56146497775E+03  0.56146497775E+03  0.00000000000E+00 0. -1.
         21    1    1    2  503  502 -0.10130053547E+03 -0.23258442111E+02  0.32363684768E+02  0.10885844804E+03  0.00000000000E+00 0.  1.
         21    1    1    2  504  501  0.10130053547E+03  0.23258442111E+02 -0.51805590350E+03  0.52837928874E+03  0.00000000000E+00 0. -1.
<mgrwt>
<rscale>  2 0.10393630E+03</rscale>
<asrwt>0</asrwt>
<pdfrwt beam="1">  1       21 0.11657348E-01 0.10393630E+03</pdfrwt>
<pdfrwt beam="2">  1       21 0.86379226E-01 0.10393630E+03</pdfrwt>
<totfact> 0.74494751E+04</totfact>
</mgrwt>
</event>
<event>
 4    1  0.6055396E+003  0.1044274E+03  0.7546771E-02  0.1271252E+00
         21   -1    0    0  503  501  0.00000000000E+00  0.00000000000E+00  0.14285392139E+03  0.14285392139E+03  0.00000000000E+00 0. -1.
         21   -1    0    0  501  502 -0.00000000000E+00 -0.00000000000E+00 -0.78213795218E+03  0.78213795218E+03  0.00000000000E+00 0.  1.
         21    1    1    2  503  504  0.10004824890E+03  0.29923823996E+02  0.11970457384E+03  0.15885298974E+03  0.00000000000E+00 0. -1.
         21    1    1    2  504  502 -0.10004824890E+03 -0.29923823996E+02 -0.75898860463E+03  0.76613888382E+03  0.00000000000E+00 0.  1.
<mgrwt>
<rscale>  2 0.10442743E+03</rscale>
<asrwt>0</asrwt>
<pdfrwt beam="1">  1       21 0.21977526E-01 0.10442743E+03</pdfrwt>
<pdfrwt beam="2">  1       21 0.12032892E+00 0.10442743E+03</pdfrwt>
<totfact> 0.10948341E+04</totfact>
</mgrwt>
</event>
<event>
 4    1  0.6055396E+003  0.1039158E+03  0.7546771E-02  0.1272271E+00
         21   -1    0    0  503  501  0.00000000000E+00  0.00000000000E+00  0.17773116149E+02  0.17773116149E+02  0.00000000000E+00 0.  1.
         21   -1    0    0  504  502 -0.00000000000E+00 -0.00000000000E+00 -0.63053663846E+03  0.63053663846E+03  0.00000000000E+00 0.  1.
         21    1    1    2  503  502 -0.75559838723E+02  0.71338624920E+02 -0.24452239895E+03  0.26568720749E+03  0.00000000000E+00 0.  1.
         21    1    1    2  504  501  0.75559838723E+02 -0.71338624920E+02 -0.36824112336E+03  0.38262254712E+03  0.00000000000E+00 0.  1.
<mgrwt>
<rscale>  2 0.10391578E+03</rscale>
<asrwt>0</asrwt>
<pdfrwt beam="1">  1       21 0.27343261E-02 0.10391578E+03</pdfrwt>
<pdfrwt beam="2">  1       21 0.97005619E-01 0.10391578E+03</pdfrwt>
<totfact> 0.65778693E+05</totfact>
</mgrwt>
</event>
<event>
 4    1  0.6055396E+003  0.1212036E+03  0.7546771E-02  0.1241125E+00
         21   -1    0    0  503  501  0.00000000000E+00  0.00000000000E+00  0.19739707896E+03  0.19739707896E+03  0.00000000000E+00 0. -1.
         21   -1    0    0  504  502 -0.00000000000E+00 -0.00000000000E+00 -0.98149414635E+02  0.98149414635E+02  0.00000000000E+00 0. -1.
         21    1    1    2  503  502  0.12007603173E+03 -0.16493898906E+02  0.12228375609E+03  0.17217322411E+03  0.00000000000E+00 0. -1.
         21    1    1    2  504  501 -0.12007603173E+03  0.16493898906E+02 -0.23036091773E+02  0.12337326948E+03  0.00000000000E+00 0. -1.
<mgrwt>
<rscale>  2 0.12120356E+03</rscale>
<asrwt>0</asrwt>
<pdfrwt beam="1">  1       21 0.30368781E-01 0.12120356E+03</pdfrwt>
<pdfrwt beam="2">  1       21 0.15099910E-01 0.12120356E+03</pdfrwt>
<totfact> 0.40773873E+05</totfact>
</mgrwt>
</event>
<event>
 4    1  0.6055396E+003  0.1195346E+03  0.7546771E-02  0.1243867E+00
         21   -1    0    0  503  501  0.00000000000E+00  0.00000000000E+00  0.86706097456E+02  0.86706097456E+02  0.00000000000E+00 0.  1.
         21   -1    0    0  501  502 -0.00000000000E+00 -0.00000000000E+00 -0.16480583392E+03  0.16480583392E+03  0.00000000000E+00 0.  1.
         21    1    1    2  503  504 -0.10264695353E+03 -0.61254511018E+02 -0.37917553422E+02  0.12540435816E+03  0.00000000000E+00 0.  1.
         21    1    1    2  504  502  0.10264695353E+03  0.61254511018E+02 -0.40182183044E+02  0.12610757322E+03  0.00000000000E+00 0.  1.
<mgrwt>
<rscale>  2 0.11953456E+03</rscale>
<asrwt>0</asrwt>
<pdfrwt beam="1">  1       21 0.13339400E-01 0.11953456E+03</pdfrwt>
<pdfrwt beam="2">  1       21 0.25354744E-01 0.11953456E+03</pdfrwt>
<totfact> 0.71848984E+05</totfact>
</mgrwt>
</event>
<event>
 4    1  0.6055396E+003  0.1044515E+03  0.7546771E-02  0.1271204E+00
         21   -1    0    0  502  501  0.00000000000E+00  0.00000000000E+00  0.36300072933E+03  0.36300072933E+03  0.00000000000E+00 0. -1.
         21   -1    0    0  503  502 -0.00000000000E+00 -0.00000000000E+00 -0.50202178318E+02  0.50202178318E+02  0.00000000000E+00 0. -1.
         21    1    1    2  503  504  0.91478964819E+02  0.50415485122E+02  0.25518701100E+02  0.10752360787E+03  0.00000000000E+00 0. -1.
         21    1    1    2  504  501 -0.91478964819E+02 -0.50415485122E+02  0.28727984992E+03  0.30567929978E+03  0.00000000000E+00 0. -1.
<mgrwt>
<rscale>  2 0.10445153E+03</rscale>
<asrwt>0</asrwt>
<pdfrwt beam="1">  1       21 0.55846264E-01 0.10445153E+03</pdfrwt>
<pdfrwt beam="2">  1       21 0.77234123E-02 0.10445153E+03</pdfrwt>
<totfact> 0.39101673E+05</totfact>
</mgrwt>
</event>
<event>
 4    1  0.6055396E+003  0.1203340E+03  0.7546771E-02  0.1242547E+00
         21   -1    0    0  503  501  0.00000000000E+00  0.00000000000E+00  0.85070933990E+02  0.85070933990E+02  0.00000000000E+00 0.  1.
         21   -1    0    0  501  502 -0.00000000000E+00 -0.00000000000E+00 -0.22001339954E+03  0.22001339954E+03  0.00000000000E+00 0. -1.
         21    1    1    2  503  504 -0.11930510329E+03 -0.15702210275E+02  0.51021285357E+01  0.12044209727E+03  0.00000000000E+00 0.  1.
         21    1    1    2  504  502  0.11930510329E+03  0.15702210275E+02 -0.14004459409E+03  0.18464223626E+03  0.00000000000E+00 0. -1.
<mgrwt>
<rscale>  2 0.12033398E+03</rscale>
<asrwt>0</asrwt>
<pdfrwt beam="1">  1       21 0.13087836E-01 0.12033398E+03</pdfrwt>
<pdfrwt beam="2">  1       21 0.33848215E-01 0.12033398E+03</pdfrwt>
<totfact> 0.42679306E+05</totfact>
</mgrwt>
</event>
<event>
 4    1  0.6055396E+003  0.1466691E+03  0.7546771E-02  0.1204627E+00
         21   -1    0    0  503  501  0.00000000000E+00  0.00000000000E+00  0.48275351037E+03  0.48275351037E+03  0.00000000000E+00 0. -1.
         21   -1    0    0  504  502 -0.00000000000E+00 -0.00000000000E+00 -0.17667413454E+03  0.17667413454E+03  0.00000000000E+00 0.  1.
         21    1    1    2  503  502  0.14663451138E+03 -0.31856704702E+01  0.43815738837E+03  0.46205381224E+03  0.00000000000E+00 0. -1.
         21    1    1    2  504  501 -0.14663451138E+03  0.31856704702E+01 -0.13207801254E+03  0.19737383267E+03  0.00000000000E+00 0.  1.
<mgrwt>
<rscale>  2 0.14666911E+03</rscale>
<asrwt>0</asrwt>
<pdfrwt beam="1">  1       21 0.74269770E-01 0.14666911E+03</pdfrwt>
<pdfrwt beam="2">  1       21 0.27180636E-01 0.14666911E+03</pdfrwt>
<totfact> 0.21578459E+04</totfact>
</mgrwt>
</event>
<event>
 4    1  0.6055396E+003  0.1530411E+03  0.7546771E-02  0.1196785E+00
         21   -1    0    0  503  501  0.00000000000E+00  0.00000000000E+00  0.21479044119E+03  0.21479044119E+03  0.00000000000E+00 0.  1.
         21   -1    0    0  504  502 -0.00000000000E+00 -0.00000000000E+00 -0.11252775163E+03  0.11252775163E+03  0.00000000000E+00 0.  1.
         21    1    1    2  503  502  0.15231219972E+03 -0.14919136196E+02  0.79927885710E+02  0.17265588238E+03  0.00000000000E+00 0.  1.
         21    1    1    2  504  501 -0.15231219972E+03  0.14919136196E+02  0.22334803848E+02  0.15466231044E+03  0.00000000000E+00 0.  1.
<mgrwt>
<rscale>  2 0.15304113E+03</rscale>
<asrwt>0</asrwt>
<pdfrwt beam="1">  1       21 0.33044683E-01 0.15304113E+03</pdfrwt>
<pdfrwt beam="2">  1       21 0.17311962E-01 0.15304113E+03</pdfrwt>
<totfact> 0.26857397E+05</totfact>
</mgrwt>
</event>
<event>
 4    1  0.6055396E+003  0.1158474E+03  0.7546771E-02  0.1250109E+00
         21   -1    0    0  504  501  0.00000000000E+00  0.00000000000E+00  0.11284921878E+03  0.11284921878E+03  0.00000000000E+00 0.  1.
         21   -1    0    0  503  502 -0.00000000000E+00 -0.00000000000E+00 -0.11968686938E+03  0.11968686938E+03  0.00000000000E+00 0.  1.
         21    1    1    2  503  501 -0.11577141018E+03 -0.41953714143E+01 -0.12693712432E+02  0.11654076922E+03  0.00000000000E+00 0.  1.
         21    1    1    2  504  502  0.11577141018E+03  0.41953714143E+01  0.58560618405E+01  0.11599531894E+03  0.00000000000E+00 0.  1.
<mgrwt>
<rscale>  2 0.11584740E+03</rscale>
<asrwt>0</asrwt>
<pdfrwt beam="1">  1       21 0.17361418E-01 0.11584740E+03</pdfrwt>
<pdfrwt beam="2">  1       21 0.18413365E-01 0.11584740E+03</pdfrwt>
<totfact> 0.80994828E+05</totfact>
</mgrwt>
</event>
<event>
 4    1  0.6055396E+003  0.1047795E+03  0.7546771E-02  0.1270555E+00
         21   -1    0    0  503  501  0.00000000000E+00  0.00000000000E+00  0.11459970594E+03  0.11459970594E+03  0.00000000000E+00 0. -1.
         21   -1    0    0  501  502 -0.00000000000E+00 -0.00000000000E+00 -0.20208132691E+03  0.20208132691E+03  0.00000000000E+00 0. -1.
         21    1    1    2  503  504 -0.27215911624E+02  0.10118318997E+03  0.71089307022E+02  0.12661924558E+03  0.00000000000E+00 0. -1.
         21    1    1    2  504  502  0.27215911624E+02 -0.10118318997E+03 -0.15857092799E+03  0.19006178727E+03  0.00000000000E+00 0. -1.
<mgrwt>
<rscale>  2 0.10477950E+03</rscale>
<asrwt>0</asrwt>
<pdfrwt beam="1">  1       21 0.17630724E-01 0.10477950E+03</pdfrwt>
<pdfrwt beam="2">  1       21 0.31089434E-01 0.10477950E+03</pdfrwt>
<totfact> 0.29518403E+05</totfact>
</mgrwt>
</event>
<event>
 4    1  0.6055396E+003  0.1893872E+03  0.7546771E-02  0.1159015E+00
         21   -1    0    0  503  501  0.00000000000E+00  0.00000000000E+00  0.11241103264E+04  0.11241103264E+04  0.00000000000E+00 0. -1.
         21   -1    0    0  504  502 -0.00000000000E+00 -0.00000000000E+00 -0.10296848283E+03  0.10296848283E+03  0.00000000000E+00 0. -1.
         21    1    1    2  503  502 -0.47651742089E+02 -0.18329431380E+03  0.10202608614E+04  0.10376896064E+04  0.00000000000E+00 0. -1.
         21    1    1    2  504  501  0.47651742089E+02  0.18329431380E+03  0.88098214738E+00  0.18938920277E+03  0.00000000000E+00 0. -1.
<mgrwt>
<rscale>  2 0.18938715E+03</rscale>
<asrwt>0</asrwt>
<pdfrwt beam="1">  1       21 0.17294004E+00 0.18938715E+03</pdfrwt>
<pdfrwt beam="2">  1       21 0.15841306E-01 0.18938715E+03</pdfrwt>
<totfact> 0.72467337E+03</totfact>
</mgrwt>
</event>
<event>
 4    1  0.6055396E+003  0.1228759E+03  0.7546771E-02  0.1238427E+00
         21   -1    0    0  504  501  0.00000000000E+00  0.00000000000E+00  0.14662709057E+04  0.14662709057E+04  0.00000000000E+00 0. -1.
         21   -1    0    0  503  502 -0.00000000000E+00 -0.00000000000E+00 -0.15653034157E+02  0.15653034157E+02  0.00000000000E+00 0. -1.
         21    1    1    2  503  501 -0.82616311610E+01  0.12259787523E+03  0.29188791655E+03  0.31669709407E+03  0.00000000000E+00 0. -1.
         21    1    1    2  504  502  0.82616311610E+01 -0.12259787523E+03  0.11587299550E+04  0.11652268458E+04  0.00000000000E+00 0. -1.
<mgrwt>
<rscale>  2 0.12287593E+03</rscale>
<asrwt>0</asrwt>
<pdfrwt beam="1">  1       21 0.22558003E+00 0.12287593E+03</pdfrwt>
<pdfrwt beam="2">  1       21 0.24081602E-02 0.12287593E+03</pdfrwt>
<totfact> 0.88882783E+04</totfact>
</mgrwt>
</event>
<event>
 4    1  0.6055396E+003  0.1373289E+03  0.7546771E-02  0.1216969E+00
         21   -1    0    0  502  501  0.00000000000E+00  0.00000000000E+00  0.17333031147E+03  0.17333031147E+03  0.00000000000E+00 0.  1.
         21   -1    0    0  504  502 -0.00000000000E+00 -0.00000000000E+00 -0.70394240805E+03  0.70394240805E+03  0.00000000000E+00 0.  1.
         21    1    1    2  503  501 -0.10731334204E+03  0.85691757256E+02  0.13800919235E+03  0.19469403641E+03  0.00000000000E+00 0.  1.
         21    1    1    2  504  503  0.10731334204E+03 -0.85691757256E+02 -0.66862128892E+03  0.68257868311E+03  0.00000000000E+00 0.  1.
<mgrwt>
<rscale>  2 0.13732891E+03</rscale>
<asrwt>0</asrwt>
<pdfrwt beam="1">  1       21 0.26666201E-01 0.13732891E+03</pdfrwt>
<pdfrwt beam="2">  1       21 0.10829883E+00 0.13732891E+03</pdfrwt>
<totfact> 0.94826343E+03</totfact>
</mgrwt>
</event>
<event>
 4    1  0.6055396E+003  0.1025571E+03  0.7546771E-02  0.1275009E+00
         21   -1    0    0  502  501  0.00000000000E+00  0.00000000000E+00  0.70627029405E+02  0.70627029405E+02  0.00000000000E+00 0.  1.
         21   -1    0    0  504  502 -0.00000000000E+00 -0.00000000000E+00 -0.42797732772E+03  0.42797732772E+03  0.00000000000E+00 0.  1.
         21    1    1    2  503  501  0.68163930069E+02 -0.76626578702E+02  0.22632585151E+02  0.10502470108E+03  0.00000000000E+00 0.  1.
         21    1    1    2  504  503 -0.68163930069E+02  0.76626578702E+02 -0.37998288347E+03  0.39357965605E+03  0.00000000000E+00 0.  1.
<mgrwt>
<rscale>  2 0.10255708E+03</rscale>
<asrwt>0</asrwt>
<pdfrwt beam="1">  1       21 0.10865697E-01 0.10255708E+03</pdfrwt>
<pdfrwt beam="2">  1       21 0.65842666E-01 0.10255708E+03</pdfrwt>
<totfact> 0.15305314E+05</totfact>
</mgrwt>
</event>
<event>
 4    1  0.6055396E+003  0.1457997E+03  0.7546771E-02  0.1205731E+00
         21   -1    0    0  503  501  0.00000000000E+00  0.00000000000E+00  0.79942977454E+02  0.79942977454E+02  0.00000000000E+00 0.  1.
         21   -1    0    0  504  502 -0.00000000000E+00 -0.00000000000E+00 -0.26729820418E+03  0.26729820418E+03  0.00000000000E+00 0.  1.
         21    1    1    2  503  502 -0.17226552479E+02 -0.14477844660E+03 -0.10619446233E+03  0.18037410163E+03  0.00000000000E+00 0.  1.
         21    1    1    2  504  501  0.17226552479E+02  0.14477844660E+03 -0.81160764395E+02  0.16686708000E+03  0.00000000000E+00 0.  1.
<mgrwt>
<rscale>  2 0.14579970E+03</rscale>
<asrwt>0</asrwt>
<pdfrwt beam="1">  1       21 0.12298920E-01 0.14579970E+03</pdfrwt>
<pdfrwt beam="2">  1       21 0.41122800E-01 0.14579970E+03</pdfrwt>
<totfact> 0.32296883E+05</totfact>
</mgrwt>
</event>
<event>
 4    1  0.6055396E+003  0.1205994E+03  0.7546771E-02  0.1242111E+00
         21   -1    0    0  502  501  0.00000000000E+00  0.00000000000E+00  0.11972120983E+03  0.11972120983E+03  0.00000000000E+00 0.  1.
         21   -1    0    0  504  502 -0.00000000000E+00 -0.00000000000E+00 -0.16358890305E+03  0.16358890305E+03  0.00000000000E+00 0.  1.
         21    1    1    2  503  501 -0.10125618378E+03 -0.65508850512E+02  0.49931735229E+02  0.13052740107E+03  0.00000000000E+00 0.  1.
         21    1    1    2  504  503  0.10125618378E+03  0.65508850512E+02 -0.93799428449E+02  0.15278271180E+03  0.00000000000E+00 0.  1.
<mgrwt>
<rscale>  2 0.12059944E+03</rscale>
<asrwt>0</asrwt>
<pdfrwt beam="1">  1       21 0.18418648E-01 0.12059944E+03</pdfrwt>
<pdfrwt beam="2">  1       21 0.25167523E-01 0.12059944E+03</pdfrwt>
<totfact> 0.40682358E+05</totfact>
</mgrwt>
</event>
<event>
 4    1  0.6055396E+003  0.1159025E+03  0.7546771E-02  0.1250014E+00
         21   -1    0    0  504  501  0.00000000000E+00  0.00000000000E+00  0.26836092238E+03  0.26836092238E+03  0.00000000000E+00 0.  1.
         21   -1    0    0  503  502 -0.00000000000E+00 -0.00000000000E+00 -0.74890090376E+03  0.74890090376E+03  0.00000000000E+00 0. -1.
         21    1    1    2  503  501 -0.11316265515E+03 -0.25052002545E+02  0.25106830031E+03  0.27652971047E+03  0.00000000000E+00 0.  1.
         21    1    1    2  504  502  0.11316265515E+03  0.25052002545E+02 -0.73160828169E+03  0.74073211568E+03  0.00000000000E+00 0. -1.
<mgrwt>
<rscale>  2 0.11590250E+03</rscale>
<asrwt>0</asrwt>
<pdfrwt beam="1">  1       21 0.41286296E-01 0.11590250E+03</pdfrwt>
<pdfrwt beam="2">  1       21 0.11521552E+00 0.11590250E+03</pdfrwt>
<totfact> 0.35649339E+03</totfact>
</mgrwt>
</event>
<event>
 4    1  0.6055396E+003  0.1751673E+03  0.7546771E-02  0.1172564E+00
         21   -1    0    0  503  501  0.00000000000E+00  0.00000000000E+00  0.85953191480E+03  0.85953191480E+03  0.00000000000E+00 0. -1.
         21   -1    0    0  504  502 -0.00000000000E+00 -0.00000000000E+00 -0.10977098956E+03  0.10977098956E+03  0.00000000000E+00 0.  1.
         21    1    1    2  503  502  0.60069600875E+02  0.16454555667E+03 -0.23240984084E+02  0.17670240664E+03  0.00000000000E+00 0.  1.
         21    1    1    2  504  501 -0.60069600875E+02 -0.16454555667E+03  0.77300190933E+03  0.79260049773E+03  0.00000000000E+00 0. -1.
<mgrwt>
<rscale>  2 0.17516734E+03</rscale>
<asrwt>0</asrwt>
<pdfrwt beam="1">  1       21 0.13223568E+00 0.17516734E+03</pdfrwt>
<pdfrwt beam="2">  1       21 0.16887845E-01 0.17516734E+03</pdfrwt>
<totfact> 0.13238623E+04</totfact>
</mgrwt>
</event>
<event>
 4    1  0.6055396E+003  0.1241244E+03  0.7546771E-02  0.1236444E+00
         21   -1    0    0  502  501  0.00000000000E+00  0.00000000000E+00  0.20728533796E+04  0.20728533796E+04  0.00000000000E+00 0.  1.
         21   -1    0    0  503  502 -0.00000000000E+00 -0.00000000000E+00 -0.10656621078E+02  0.10656621078E+02  0.00000000000E+00 0. -1.
         21    1    1    2  503  504 -0.19569860041E+02 -0.12257200020E+03  0.45810610142E+03  0.47462414057E+03  0.00000000000E+00 0. -1.
         21    1    1    2  504  501  0.19569860041E+02  0.12257200020E+03  0.16040906571E+04  0.16088858601E+04  0.00000000000E+00 0.  1.
<mgrwt>
<rscale>  2 0.12412443E+03</rscale>
<asrwt>0</asrwt>
<pdfrwt beam="1">  1       21 0.31890020E+00 0.12412443E+03</pdfrwt>
<pdfrwt beam="2">  1       21 0.16394818E-02 0.12412443E+03</pdfrwt>
<totfact> 0.48706869E+04</totfact>
</mgrwt>
</event>
<event>
 4    1  0.6055396E+003  0.1031491E+03  0.7546771E-02  0.1273810E+00
         21   -1    0    0  504  501  0.00000000000E+00  0.00000000000E+00  0.73427248587E+02  0.73427248587E+02  0.00000000000E+00 0.  1.
         21   -1    0    0  503  502 -0.00000000000E+00 -0.00000000000E+00 -0.19440661251E+03  0.19440661251E+03  0.00000000000E+00 0. -1.
         21    1    1    2  503  501  0.48964707608E+02 -0.90786475425E+02  0.70881886785E+01  0.10339230692E+03  0.00000000000E+00 0.  1.
         21    1    1    2  504  502 -0.48964707608E+02  0.90786475425E+02 -0.12806755260E+03  0.16444155418E+03  0.00000000000E+00 0. -1.
<mgrwt>
<rscale>  2 0.10314905E+03</rscale>
<asrwt>0</asrwt>
<pdfrwt beam="1">  1       21 0.11296500E-01 0.10314905E+03</pdfrwt>
<pdfrwt beam="2">  1       21 0.29908710E-01 0.10314905E+03</pdfrwt>
<totfact> 0.70364621E+05</totfact>
</mgrwt>
</event>
<event>
 4    1  0.6055396E+003  0.1206944E+03  0.7546771E-02  0.1241956E+00
         21   -1    0    0  504  501  0.00000000000E+00  0.00000000000E+00  0.18087132431E+03  0.18087132431E+03  0.00000000000E+00 0.  1.
         21   -1    0    0  501  502 -0.00000000000E+00 -0.00000000000E+00 -0.90953308916E+02  0.90953308916E+02  0.00000000000E+00 0.  1.
         21    1    1    2  503  502 -0.68513574806E+02  0.99363058292E+02 -0.10319724324E+01  0.12069876658E+03  0.00000000000E+00 0.  1.
         21    1    1    2  504  503  0.68513574806E+02 -0.99363058292E+02  0.90949987829E+02  0.15112586665E+03  0.00000000000E+00 0.  1.
<mgrwt>
<rscale>  2 0.12069435E+03</rscale>
<asrwt>0</asrwt>
<pdfrwt beam="1">  1       21 0.27826358E-01 0.12069435E+03</pdfrwt>
<pdfrwt beam="2">  1       21 0.13992817E-01 0.12069435E+03</pdfrwt>
<totfact> 0.55286795E+05</totfact>
</mgrwt>
</event>
<event>
 4    1  0.6055396E+003  0.1025673E+03  0.7546771E-02  0.1274988E+00
         21   -1    0    0  503  501  0.00000000000E+00  0.00000000000E+00  0.53307289609E+02  0.53307289609E+02  0.00000000000E+00 0.  1.
         21   -1    0    0  504  502 -0.00000000000E+00 -0.00000000000E+00 -0.25614473823E+03  0.25614473823E+03  0.00000000000E+00 0.  1.
         21    1    1    2  503  502  0.12928078846E+02  0.10174932455E+03 -0.17554959245E+03  0.20331679635E+03  0.00000000000E+00 0.  1.
         21    1    1    2  504  501 -0.12928078846E+02 -0.10174932455E+03 -0.27287856175E+02  0.10613523149E+03  0.00000000000E+00 0.  1.
<mgrwt>
<rscale>  2 0.10256735E+03</rscale>
<asrwt>0</asrwt>
<pdfrwt beam="1">  1       21 0.82011214E-02 0.10256735E+03</pdfrwt>
<pdfrwt beam="2">  1       21 0.39406883E-01 0.10256735E+03</pdfrwt>
<totfact> 0.71659634E+05</totfact>
</mgrwt>
</event>
<event>
 4    1  0.6055396E+003  0.1209917E+03  0.7546771E-02  0.1241470E+00
         21   -1    0    0  503  501  0.00000000000E+00  0.00000000000E+00  0.41410774355E+02  0.41410774355E+02  0.00000000000E+00 0.  1.
         21   -1    0    0  504  502 -0.00000000000E+00 -0.00000000000E+00 -0.35352236157E+03  0.35352236157E+03  0.00000000000E+00 0.  1.
         21    1    1    2  503  502 -0.10839946839E+03  0.53745224193E+02 -0.15474927763E+03  0.19643404185E+03  0.00000000000E+00 0.  1.
         21    1    1    2  504  501  0.10839946839E+03 -0.53745224193E+02 -0.15736230958E+03  0.19849909407E+03  0.00000000000E+00 0.  1.
<mgrwt>
<rscale>  2 0.12099171E+03</rscale>
<asrwt>0</asrwt>
<pdfrwt beam="1">  1       21 0.63708883E-02 0.12099171E+03</pdfrwt>
<pdfrwt beam="2">  1       21 0.54388056E-01 0.12099171E+03</pdfrwt>
<totfact> 0.57284812E+05</totfact>
</mgrwt>
</event>
<event>
 4    1  0.6055396E+003  0.1131121E+03  0.7546771E-02  0.1254913E+00
         21   -1    0    0  502  501  0.00000000000E+00  0.00000000000E+00  0.12532946514E+03  0.12532946514E+03  0.00000000000E+00 0. -1.
         21   -1    0    0  504  502 -0.00000000000E+00 -0.00000000000E+00 -0.29554775176E+03  0.29554775176E+03  0.00000000000E+00 0.  1.
         21    1    1    2  503  501 -0.10480474341E+03  0.42547840308E+02  0.85149600705E+02  0.14157968589E+03  0.00000000000E+00 0. -1.
         21    1    1    2  504  503  0.10480474341E+03 -0.42547840308E+02 -0.25536788732E+03  0.27929753101E+03  0.00000000000E+00 0.  1.
<mgrwt>
<rscale>  2 0.11311213E+03</rscale>
<asrwt>0</asrwt>
<pdfrwt beam="1">  1       21 0.19281456E-01 0.11311213E+03</pdfrwt>
<pdfrwt beam="2">  1       21 0.45468884E-01 0.11311213E+03</pdfrwt>
<totfact> 0.11804679E+05</totfact>
</mgrwt>
</event>
<event>
 4    1  0.6055396E+003  0.1561043E+03  0.7546771E-02  0.1193166E+00
         21   -1    0    0  504  501  0.00000000000E+00  0.00000000000E+00  0.28404099470E+03  0.28404099470E+03  0.00000000000E+00 0. -1.
         21   -1    0    0  503  502 -0.00000000000E+00 -0.00000000000E+00 -0.15896361395E+03  0.15896361395E+03  0.00000000000E+00 0. -1.
         21    1    1    2  503  501  0.13682293139E+03  0.75153501335E+02  0.21281809506E+03  0.26393200811E+03  0.00000000000E+00 0. -1.
         21    1    1    2  504  502 -0.13682293139E+03 -0.75153501335E+02 -0.87740714312E+02  0.17907260054E+03  0.00000000000E+00 0. -1.
<mgrwt>
<rscale>  2 0.15610433E+03</rscale>
<asrwt>0</asrwt>
<pdfrwt beam="1">  1       21 0.43698615E-01 0.15610433E+03</pdfrwt>
<pdfrwt beam="2">  1       21 0.24455941E-01 0.15610433E+03</pdfrwt>
<totfact> 0.80724862E+04</totfact>
</mgrwt>
</event>
<event>
 4    1  0.6055396E+003  0.1028602E+03  0.7546771E-02  0.1274394E+00
         21   -1    0    0  503  501  0.00000000000E+00  0.00000000000E+00  0.23393457071E+02  0.23393457071E+02  0.00000000000E+00 0.  1.
         21   -1    0    0  504  502 -0.00000000000E+00 -0.00000000000E+00 -0.15269093631E+04  0.15269093631E+04  0.00000000000E+00 0.  1.
         21    1    1    2  503  502  0.71199279728E+02  0.74235358445E+02 -0.14020533881E+04  0.14058214427E+04  0.00000000000E+00 0.  1.
         21    1    1    2  504  501 -0.71199279728E+02 -0.74235358445E+02 -0.10146251801E+03  0.14448137748E+03  0.00000000000E+00 0.  1.
<mgrwt>
<rscale>  2 0.10286022E+03</rscale>
<asrwt>0</asrwt>
<pdfrwt beam="1">  1       21 0.35989937E-02 0.10286022E+03</pdfrwt>
<pdfrwt beam="2">  1       21 0.23490912E+00 0.10286022E+03</pdfrwt>
<totfact> 0.41516554E+04</totfact>
</mgrwt>
</event>
<event>
 4    1  0.6055396E+003  0.1744376E+03  0.7546771E-02  0.1173298E+00
         21   -1    0    0  502  501  0.00000000000E+00  0.00000000000E+00  0.16039958206E+03  0.16039958206E+03  0.00000000000E+00 0.  1.
         21   -1    0    0  503  502 -0.00000000000E+00 -0.00000000000E+00 -0.33863413650E+03  0.33863413650E+03  0.00000000000E+00 0. -1.
         21    1    1    2  503  504  0.16518668196E+03 -0.56051995287E+02 -0.25458969220E+03  0.30861687809E+03  0.00000000000E+00 0. -1.
         21    1    1    2  504  501 -0.16518668196E+03  0.56051995287E+02  0.76355137757E+02  0.19041684047E+03  0.00000000000E+00 0.  1.
<mgrwt>
<rscale>  2 0.17443757E+03</rscale>
<asrwt>0</asrwt>
<pdfrwt beam="1">  1       21 0.24676859E-01 0.17443757E+03</pdfrwt>
<pdfrwt beam="2">  1       21 0.52097559E-01 0.17443757E+03</pdfrwt>
<totfact> 0.54755019E+04</totfact>
</mgrwt>
</event>
<event>
 4    1  0.6055396E+003  0.1241662E+03  0.7546771E-02  0.1236378E+00
         21   -1    0    0  504  501  0.00000000000E+00  0.00000000000E+00  0.79532744459E+02  0.79532744459E+02  0.00000000000E+00 0. -1.
         21   -1    0    0  503  502 -0.00000000000E+00 -0.00000000000E+00 -0.15461643957E+04  0.15461643957E+04  0.00000000000E+00 0. -1.
         21    1    1    2  503  501  0.58241197867E+02  0.10965951748E+03  0.26872160979E+02  0.12704078061E+03  0.00000000000E+00 0. -1.
         21    1    1    2  504  502 -0.58241197867E+02 -0.10965951748E+03 -0.14935038122E+04  0.14986563595E+04  0.00000000000E+00 0. -1.
<mgrwt>
<rscale>  2 0.12416621E+03</rscale>
<asrwt>0</asrwt>
<pdfrwt beam="1">  1       21 0.12235807E-01 0.12416621E+03</pdfrwt>
<pdfrwt beam="2">  1       21 0.23787144E+00 0.12416621E+03</pdfrwt>
<totfact> 0.48267321E+03</totfact>
</mgrwt>
</event>
<event>
 4    1  0.6055396E+003  0.1092457E+03  0.7546771E-02  0.1261973E+00
         21   -1    0    0  503  501  0.00000000000E+00  0.00000000000E+00  0.33567322101E+03  0.33567322101E+03  0.00000000000E+00 0. -1.
         21   -1    0    0  501  502 -0.00000000000E+00 -0.00000000000E+00 -0.46132343038E+02  0.46132343038E+02  0.00000000000E+00 0. -1.
         21    1    1    2  503  504  0.19180436443E+02  0.10754872673E+03  0.23618443507E+03  0.26022625758E+03  0.00000000000E+00 0. -1.
         21    1    1    2  504  502 -0.19180436443E+02 -0.10754872673E+03  0.53356442898E+02  0.12157930647E+03  0.00000000000E+00 0. -1.
<mgrwt>
<rscale>  2 0.10924568E+03</rscale>
<asrwt>0</asrwt>
<pdfrwt beam="1">  1       21 0.51642032E-01 0.10924568E+03</pdfrwt>
<pdfrwt beam="2">  1       21 0.70972838E-02 0.10924568E+03</pdfrwt>
<totfact> 0.53118066E+05</totfact>
</mgrwt>
</event>
<event>
 4    1  0.6055396E+003  0.1430665E+03  0.7546771E-02  0.1209261E+00
         21   -1    0    0  504  501  0.00000000000E+00  0.00000000000E+00  0.49906169136E+02  0.49906169136E+02  0.00000000000E+00 0.  1.
         21   -1    0    0  503  502 -0.00000000000E+00 -0.00000000000E+00 -0.43466915700E+03  0.43466915700E+03  0.00000000000E+00 0.  1.
         21    1    1    2  503  501 -0.40581993931E+02  0.13719013847E+03 -0.24994921229E+03  0.28799764071E+03  0.00000000000E+00 0.  1.
         21    1    1    2  504  502  0.40581993931E+02 -0.13719013847E+03 -0.13481377558E+03  0.19657768544E+03  0.00000000000E+00 0.  1.
<mgrwt>
<rscale>  2 0.14306653E+03</rscale>
<asrwt>0</asrwt>
<pdfrwt beam="1">  1       21 0.76778722E-02 0.14306653E+03</pdfrwt>
<pdfrwt beam="2">  1       21 0.66872178E-01 0.14306653E+03</pdfrwt>
<totfact> 0.26734455E+05</totfact>
</mgrwt>
</event>
<event>
 4    1  0.6055396E+003  0.1235030E+03  0.7546771E-02  0.1237428E+00
         21   -1    0    0  503  501  0.00000000000E+00  0.00000000000E+00  0.35352647502E+02  0.35352647502E+02  0.00000000000E+00 0.  1.
         21   -1    0    0  504  502 -0.00000000000E+00 -0.00000000000E+00 -0.43152612499E+03  0.43152612499E+03  0.00000000000E+00 0.  1.
         21    1    1    2  503  502 -0.10128363869E+03  0.70672630115E+02 -0.20113124903E+03  0.23602282824E+03  0.00000000000E+00 0.  1.
         21    1    1    2  504  501  0.10128363869E+03 -0.70672630115E+02 -0.19504222845E+03  0.23085594424E+03  0.00000000000E+00 0.  1.
<mgrwt>
<rscale>  2 0.12350302E+03</rscale>
<asrwt>0</asrwt>
<pdfrwt beam="1">  1       21 0.54388690E-02 0.12350302E+03</pdfrwt>
<pdfrwt beam="2">  1       21 0.66388632E-01 0.12350302E+03</pdfrwt>
<totfact> 0.49032344E+05</totfact>
</mgrwt>
</event>
<event>
 4    1  0.6055396E+003  0.1023241E+03  0.7546771E-02  0.1275483E+00
         21   -1    0    0  503  501  0.00000000000E+00  0.00000000000E+00  0.75799752873E+03  0.75799752873E+03  0.00000000000E+00 0.  1.
         21   -1    0    0  504  502 -0.00000000000E+00 -0.00000000000E+00 -0.22623059958E+02  0.22623059958E+02  0.00000000000E+00 0. -1.
         21    1    1    2  503  502  0.11257900257E+02 -0.10170294029E+03  0.12411740739E+03  0.16085819593E+03  0.00000000000E+00 0. -1.
         21    1    1    2  504  501 -0.11257900257E+02  0.10170294029E+03  0.61125706138E+03  0.61976239276E+03  0.00000000000E+00 0.  1.
<mgrwt>
<rscale>  2 0.10232413E+03</rscale>
<asrwt>0</asrwt>
<pdfrwt beam="1">  1       21 0.11661498E+00 0.10232413E+03</pdfrwt>
<pdfrwt beam="2">  1       21 0.34804713E-02 0.10232413E+03</pdfrwt>
<totfact> 0.28763830E+05</totfact>
</mgrwt>
</event>
<event>
 4    1  0.6055396E+003  0.1015467E+03  0.7546771E-02  0.1277077E+00
         21   -1    0    0  503  501  0.00000000000E+00  0.00000000000E+00  0.76848414241E+03  0.76848414241E+03  0.00000000000E+00 0.  1.
         21   -1    0    0  504  502 -0.00000000000E+00 -0.00000000000E+00 -0.24193128546E+02  0.24193128546E+02  0.00000000000E+00 0.  1.
         21    1    1    2  503  502  0.92924126036E+02 -0.40949268245E+02  0.63664568624E+03  0.64469331126E+03  0.00000000000E+00 0.  1.
         21    1    1    2  504  501 -0.92924126036E+02  0.40949268245E+02  0.10764532762E+03  0.14798395970E+03  0.00000000000E+00 0.  1.
<mgrwt>
<rscale>  2 0.10154672E+03</rscale>
<asrwt>0</asrwt>
<pdfrwt beam="1">  1       21 0.11822831E+00 0.10154672E+03</pdfrwt>
<pdfrwt beam="2">  1       21 0.37220204E-02 0.10154672E+03</pdfrwt>
<totfact> 0.24932976E+05</totfact>
</mgrwt>
</event>
<event>
 4    1  0.6055396E+003  0.1002397E+03  0.7546771E-02  0.1279793E+00
         21   -1    0    0  503  501  0.00000000000E+00  0.00000000000E+00  0.38682072453E+03  0.38682072453E+03  0.00000000000E+00 0.  1.
         21   -1    0    0  504  502 -0.00000000000E+00 -0.00000000000E+00 -0.84438310275E+02  0.84438310275E+02  0.00000000000E+00 0. -1.
         21    1    1    2  503  502  0.92947647393E+02  0.37532949747E+02 -0.44873111002E+02  0.10982524101E+03  0.00000000000E+00 0. -1.
         21    1    1    2  504  501 -0.92947647393E+02 -0.37532949747E+02  0.34725552526E+03  0.36143379379E+03  0.00000000000E+00 0.  1.
<mgrwt>
<rscale>  2 0.10023965E+03</rscale>
<asrwt>0</asrwt>
<pdfrwt beam="1">  1       21 0.59510880E-01 0.10023965E+03</pdfrwt>
<pdfrwt beam="2">  1       21 0.12990510E-01 0.10023965E+03</pdfrwt>
<totfact> 0.13869265E+05</totfact>
</mgrwt>
</event>
<event>
 4    1  0.6055396E+003  0.1350038E+03  0.7546771E-02  0.1220214E+00
         21   -1    0    0  504  501  0.00000000000E+00  0.00000000000E+00  0.86940094803E+03  0.86940094803E+03  0.00000000000E+00 0. -1.
         21   -1    0    0  503  502 -0.00000000000E+00 -0.00000000000E+00 -0.27975087466E+02  0.27975087466E+02  0.00000000000E+00 0. -1.
         21    1    1    2  503  501  0.87647859204E+02  0.10268344168E+03  0.64533605684E+03  0.65930619797E+03  0.00000000000E+00 0. -1.
         21    1    1    2  504  502 -0.87647859204E+02 -0.10268344168E+03  0.19608980372E+03  0.23806983753E+03  0.00000000000E+00 0. -1.
<mgrwt>
<rscale>  2 0.13500384E+03</rscale>
<asrwt>0</asrwt>
<pdfrwt beam="1">  1       21 0.13375397E+00 0.13500384E+03</pdfrwt>
<pdfrwt beam="2">  1       21 0.43038603E-02 0.13500384E+03</pdfrwt>
<totfact> 0.14275563E+05</totfact>
</mgrwt>
</event>
<event>
 4    1  0.6055396E+003  0.1117078E+03  0.7546771E-02  0.1257440E+00
         21   -1    0    0  502  501  0.00000000000E+00  0.00000000000E+00  0.90929548511E+02  0.90929548511E+02  0.00000000000E+00 0.  1.
         21   -1    0    0  504  502 -0.00000000000E+00 -0.00000000000E+00 -0.14780897915E+03  0.14780897915E+03  0.00000000000E+00 0.  1.
         21    1    1    2  503  501 -0.92468400411E+02 -0.62675619095E+02  0.34888211207E+01  0.11176229318E+03  0.00000000000E+00 0.  1.
         21    1    1    2  504  503  0.92468400411E+02  0.62675619095E+02 -0.60368251763E+02  0.12697623449E+03  0.00000000000E+00 0.  1.
<mgrwt>
<rscale>  2 0.11170783E+03</rscale>
<asrwt>0</asrwt>
<pdfrwt beam="1">  1       21 0.13989161E-01 0.11170783E+03</pdfrwt>
<pdfrwt beam="2">  1       21 0.22739843E-01 0.11170783E+03</pdfrwt>
<totfact> 0.80941703E+05</totfact>
</mgrwt>
</event>
<event>
 4    1  0.6055396E+003  0.1007795E+03  0.7546771E-02  0.1278665E+00
         21   -1    0    0  504  501  0.00000000000E+00  0.00000000000E+00  0.77762901888E+01  0.77762901888E+01  0.00000000000E+00 0.  1.
         21   -1    0    0  503  502 -0.00000000000E+00 -0.00000000000E+00 -0.21384414337E+04  0.21384414337E+04  0.00000000000E+00 0.  1.
         21    1    1    2  503  501 -0.25382249880E+02 -0.97530793580E+02 -0.39583476845E+03  0.40846257872E+03  0.00000000000E+00 0.  1.
         21    1    1    2  504  502  0.25382249880E+02  0.97530793580E+02 -0.17348303751E+04  0.17377551452E+04  0.00000000000E+00 0.  1.
<mgrwt>
<rscale>  2 0.10077953E+03</rscale>
<asrwt>0</asrwt>
<pdfrwt beam="1">  1       21 0.11963522E-02 0.10077953E+03</pdfrwt>
<pdfrwt beam="2">  1       21 0.32899104E+00 0.10077953E+03</pdfrwt>
<totfact> 0.73034714E+04</totfact>
</mgrwt>
</event>
<event>
 4    1  0.6055396E+003  0.1095291E+03  0.7546771E-02  0.1261444E+00
         21   -1    0    0  504  501  0.00000000000E+00  0.00000000000E+00  0.24682437897E+02  0.24682437897E+02  0.00000000000E+00 0.  1.
         21   -1    0    0  503  502 -0.00000000000E+00 -0.00000000000E+00 -0.10776233294E+04  0.10776233294E+04  0.00000000000E+00 0. -1.
         21    1    1    2  503  501  0.10654316897E+01 -0.10952389314E+03 -0.93483407788E+03  0.94122864994E+03  0.00000000000E+00 0. -1.
         21    1    1    2  504  502 -0.10654316897E+01  0.10952389314E+03 -0.11810681367E+03  0.16107711740E+03  0.00000000000E+00 0.  1.
<mgrwt>
<rscale>  2 0.10952908E+03</rscale>
<asrwt>0</asrwt>
<pdfrwt beam="1">  1       21 0.37972984E-02 0.10952908E+03</pdfrwt>
<pdfrwt beam="2">  1       21 0.16578819E+00 0.10952908E+03</pdfrwt>
<totfact> 0.10232482E+05</totfact>
</mgrwt>
</event>
<event>
 4    1  0.6055396E+003  0.1008273E+03  0.7546771E-02  0.1278566E+00
         21   -1    0    0  504  501  0.00000000000E+00  0.00000000000E+00  0.81679469472E+02  0.81679469472E+02  0.00000000000E+00 0. -1.
         21   -1    0    0  503  502 -0.00000000000E+00 -0.00000000000E+00 -0.48711051896E+03  0.48711051896E+03  0.00000000000E+00 0. -1.
         21    1    1    2  503  501 -0.99986602004E+02 -0.12993417644E+02  0.42670587362E+02  0.10948483232E+03  0.00000000000E+00 0. -1.
         21    1    1    2  504  502  0.99986602004E+02  0.12993417644E+02 -0.44810163685E+03  0.45930515611E+03  0.00000000000E+00 0. -1.
<mgrwt>
<rscale>  2 0.10082733E+03</rscale>
<asrwt>0</asrwt>
<pdfrwt beam="1">  1       21 0.12566072E-01 0.10082733E+03</pdfrwt>
<pdfrwt beam="2">  1       21 0.74940081E-01 0.10082733E+03</pdfrwt>
<totfact> 0.89634850E+04</totfact>
</mgrwt>
</event>
<event>
 4    1  0.6055396E+003  0.1055742E+03  0.7546771E-02  0.1268992E+00
         21   -1    0    0  504  501  0.00000000000E+00  0.00000000000E+00  0.19223818470E+02  0.19223818470E+02  0.00000000000E+00 0. -1.
         21   -1    0    0  501  502 -0.00000000000E+00 -0.00000000000E+00 -0.90426422441E+03  0.90426422441E+03  0.00000000000E+00 0. -1.
         21    1    1    2  503  502 -0.74387359228E+01 -0.10531185765E+03 -0.71911160736E+03  0.72682007815E+03  0.00000000000E+00 0. -1.
         21    1    1    2  504  503  0.74387359228E+01  0.10531185765E+03 -0.16592879858E+03  0.19666796473E+03  0.00000000000E+00 0. -1.
<mgrwt>
<rscale>  2 0.10557425E+03</rscale>
<asrwt>0</asrwt>
<pdfrwt beam="1">  1       21 0.29575103E-02 0.10557425E+03</pdfrwt>
<pdfrwt beam="2">  1       21 0.13911758E+00 0.10557425E+03</pdfrwt>
<totfact> 0.24313828E+05</totfact>
</mgrwt>
</event>
<event>
 4    1  0.6055396E+003  0.1022871E+03  0.7546771E-02  0.1275559E+00
         21   -1    0    0  503  501  0.00000000000E+00  0.00000000000E+00  0.34665634290E+02  0.34665634290E+02  0.00000000000E+00 0.  1.
         21   -1    0    0  501  502 -0.00000000000E+00 -0.00000000000E+00 -0.56188212455E+03  0.56188212455E+03  0.00000000000E+00 0. -1.
         21    1    1    2  503  504  0.10097628530E+03 -0.16322809605E+02 -0.60683748073E+02  0.11893343343E+03  0.00000000000E+00 0.  1.
         21    1    1    2  504  502 -0.10097628530E+03  0.16322809605E+02 -0.46653274219E+03  0.47761432541E+03  0.00000000000E+00 0. -1.
<mgrwt>
<rscale>  2 0.10228707E+03</rscale>
<asrwt>0</asrwt>
<pdfrwt beam="1">  1       21 0.53331748E-02 0.10228707E+03</pdfrwt>
<pdfrwt beam="2">  1       21 0.86443399E-01 0.10228707E+03</pdfrwt>
<totfact> 0.28431912E+05</totfact>
</mgrwt>
</event>
<event>
 4    1  0.6055396E+003  0.1093772E+03  0.7546771E-02  0.1261727E+00
         21   -1    0    0  504  501  0.00000000000E+00  0.00000000000E+00  0.29008976577E+02  0.29008976577E+02  0.00000000000E+00 0. -1.
         21   -1    0    0  503  502 -0.00000000000E+00 -0.00000000000E+00 -0.23010216574E+04  0.23010216574E+04  0.00000000000E+00 0. -1.
         21    1    1    2  503  501 -0.10814712263E+03  0.16357941093E+02 -0.80542288814E+02  0.13583240651E+03  0.00000000000E+00 0. -1.
         21    1    1    2  504  502  0.10814712263E+03 -0.16357941093E+02 -0.21914703920E+04  0.21941982275E+04  0.00000000000E+00 0. -1.
<mgrwt>
<rscale>  2 0.10937725E+03</rscale>
<asrwt>0</asrwt>
<pdfrwt beam="1">  1       21 0.44629211E-02 0.10937725E+03</pdfrwt>
<pdfrwt beam="2">  1       21 0.35400320E+00 0.10937725E+03</pdfrwt>
<totfact> 0.61739625E+03</totfact>
</mgrwt>
</event>
<event>
 4    1  0.6055396E+003  0.1520423E+03  0.7546771E-02  0.1197986E+00
         21   -1    0    0  504  501  0.00000000000E+00  0.00000000000E+00  0.24837791397E+03  0.24837791397E+03  0.00000000000E+00 0.  1.
         21   -1    0    0  503  502 -0.00000000000E+00 -0.00000000000E+00 -0.10396072878E+03  0.10396072878E+03  0.00000000000E+00 0.  1.
         21    1    1    2  503  501  0.11379505583E+03 -0.10083420016E+03  0.15192355786E+02  0.15279940553E+03  0.00000000000E+00 0.  1.
         21    1    1    2  504  502 -0.11379505583E+03  0.10083420016E+03  0.12922482940E+03  0.19953923722E+03  0.00000000000E+00 0.  1.
<mgrwt>
<rscale>  2 0.15204227E+03</rscale>
<asrwt>0</asrwt>
<pdfrwt beam="1">  1       21 0.38211987E-01 0.15204227E+03</pdfrwt>
<pdfrwt beam="2">  1       21 0.15993958E-01 0.15204227E+03</pdfrwt>
<totfact> 0.23291925E+05</totfact>
</mgrwt>
</event>
<event>
 4    1  0.6055396E+003  0.1024582E+03  0.7546771E-02  0.1275210E+00
         21   -1    0    0  503  501  0.00000000000E+00  0.00000000000E+00  0.12387733759E+03  0.12387733759E+03  0.00000000000E+00 0.  1.
         21   -1    0    0  504  502 -0.00000000000E+00 -0.00000000000E+00 -0.32308605816E+03  0.32308605816E+03  0.00000000000E+00 0.  1.
         21    1    1    2  503  502  0.27707688877E+02 -0.98640574244E+02 -0.29155277776E+03  0.30903187721E+03  0.00000000000E+00 0.  1.
         21    1    1    2  504  501 -0.27707688877E+02  0.98640574244E+02  0.92344057187E+02  0.13793151854E+03  0.00000000000E+00 0.  1.
<mgrwt>
<rscale>  2 0.10245818E+03</rscale>
<asrwt>0</asrwt>
<pdfrwt beam="1">  1       21 0.19058052E-01 0.10245818E+03</pdfrwt>
<pdfrwt beam="2">  1       21 0.49705547E-01 0.10245818E+03</pdfrwt>
<totfact> 0.10105280E+05</totfact>
</mgrwt>
</event>
<event>
 4    1  0.6055396E+003  0.2248590E+03  0.7546771E-02  0.1130311E+00
         21   -1    0    0  504  501  0.00000000000E+00  0.00000000000E+00  0.53028665821E+03  0.53028665821E+03  0.00000000000E+00 0.  1.
         21   -1    0    0  503  502 -0.00000000000E+00 -0.00000000000E+00 -0.11897289029E+03  0.11897289029E+03  0.00000000000E+00 0. -1.
         21    1    1    2  503  501  0.15610147899E+03  0.16184528470E+03  0.35031832466E+03  0.41627454464E+03  0.00000000000E+00 0.  1.
         21    1    1    2  504  502 -0.15610147899E+03 -0.16184528470E+03  0.60995443265E+02  0.23298500386E+03  0.00000000000E+00 0. -1.
<mgrwt>
<rscale>  2 0.22485900E+03</rscale>
<asrwt>0</asrwt>
<pdfrwt beam="1">  1       21 0.81582562E-01 0.22485900E+03</pdfrwt>
<pdfrwt beam="2">  1       21 0.18303522E-01 0.22485900E+03</pdfrwt>
<totfact> 0.35217634E+04</totfact>
</mgrwt>
</event>
<event>
 4    1  0.6055396E+003  0.1268317E+03  0.7546771E-02  0.1232234E+00
         21   -1    0    0  504  501  0.00000000000E+00  0.00000000000E+00  0.89234938219E+02  0.89234938219E+02  0.00000000000E+00 0. -1.
         21   -1    0    0  503  502 -0.00000000000E+00 -0.00000000000E+00 -0.14169108868E+04  0.14169108868E+04  0.00000000000E+00 0. -1.
         21    1    1    2  503  501 -0.23154854756E+02  0.12470013486E+03 -0.13673763275E+04  0.13732458964E+04  0.00000000000E+00 0. -1.
         21    1    1    2  504  502  0.23154854756E+02 -0.12470013486E+03  0.39700378950E+02  0.13289992860E+03  0.00000000000E+00 0. -1.
<mgrwt>
<rscale>  2 0.12683166E+03</rscale>
<asrwt>0</asrwt>
<pdfrwt beam="1">  1       21 0.13728453E-01 0.12683166E+03</pdfrwt>
<pdfrwt beam="2">  1       21 0.21798628E+00 0.12683166E+03</pdfrwt>
<totfact> 0.51339291E+03</totfact>
</mgrwt>
</event>
<event>
 4    1  0.6055396E+003  0.1059351E+03  0.7546771E-02  0.1268288E+00
         21   -1    0    0  502  501  0.00000000000E+00  0.00000000000E+00  0.20098611999E+02  0.20098611999E+02  0.00000000000E+00 0. -1.
         21   -1    0    0  504  502 -0.00000000000E+00 -0.00000000000E+00 -0.58269136429E+03  0.58269136429E+03  0.00000000000E+00 0.  1.
         21    1    1    2  503  501  0.97159458352E+02 -0.42217218292E+02 -0.21970737923E+03  0.24391307131E+03  0.00000000000E+00 0.  1.
         21    1    1    2  504  503 -0.97159458352E+02  0.42217218292E+02 -0.34288537307E+03  0.35887690499E+03  0.00000000000E+00 0. -1.
<mgrwt>
<rscale>  2 0.10593514E+03</rscale>
<asrwt>0</asrwt>
<pdfrwt beam="1">  1       21 0.30920944E-02 0.10593514E+03</pdfrwt>
<pdfrwt beam="2">  1       21 0.89644817E-01 0.10593514E+03</pdfrwt>
<totfact> 0.64480156E+05</totfact>
</mgrwt>
</event>
<event>
 4    1  0.6055396E+003  0.1132124E+03  0.7546771E-02  0.1254734E+00
         21   -1    0    0  503  501  0.00000000000E+00  0.00000000000E+00  0.12266306629E+04  0.12266306629E+04  0.00000000000E+00 0. -1.
         21   -1    0    0  504  502 -0.00000000000E+00 -0.00000000000E+00 -0.46370497930E+02  0.46370497930E+02  0.00000000000E+00 0.  1.
         21    1    1    2  503  502 -0.11313625202E+03  0.41528568799E+01  0.11503456505E+04  0.11559031851E+04  0.00000000000E+00 0. -1.
         21    1    1    2  504  501  0.11313625202E+03 -0.41528568799E+01  0.29914514471E+02  0.11709797571E+03  0.00000000000E+00 0.  1.
<mgrwt>
<rscale>  2 0.11321245E+03</rscale>
<asrwt>0</asrwt>
<pdfrwt beam="1">  1       21 0.18871239E+00 0.11321245E+03</pdfrwt>
<pdfrwt beam="2">  1       21 0.71339237E-02 0.11321245E+03</pdfrwt>
<totfact> 0.24878829E+04</totfact>
</mgrwt>
</event>
<event>
 4    1  0.6055396E+003  0.1667278E+03  0.7546771E-02  0.1181304E+00
         21   -1    0    0  502  501  0.00000000000E+00  0.00000000000E+00  0.92124971842E+03  0.92124971842E+03  0.00000000000E+00 0. -1.
         21   -1    0    0  503  502 -0.00000000000E+00 -0.00000000000E+00 -0.77729941608E+02  0.77729941608E+02  0.00000000000E+00 0.  1.
         21    1    1    2  503  504 -0.16642327609E+03  0.10072274804E+02  0.31069213722E+02  0.16959791740E+03  0.00000000000E+00 0.  1.
         21    1    1    2  504  501  0.16642327609E+03 -0.10072274804E+02  0.81245056309E+03  0.82938174264E+03  0.00000000000E+00 0. -1.
<mgrwt>
<rscale>  2 0.16672779E+03</rscale>
<asrwt>0</asrwt>
<pdfrwt beam="1">  1       21 0.14173072E+00 0.16672779E+03</pdfrwt>
<pdfrwt beam="2">  1       21 0.11958453E-01 0.16672779E+03</pdfrwt>
<totfact> 0.20831982E+04</totfact>
</mgrwt>
</event>
<event>
 4    1  0.6055396E+003  0.1019899E+03  0.7546771E-02  0.1276166E+00
         21   -1    0    0  504  501  0.00000000000E+00  0.00000000000E+00  0.17197849409E+03  0.17197849409E+03  0.00000000000E+00 0.  1.
         21   -1    0    0  503  502 -0.00000000000E+00 -0.00000000000E+00 -0.81922460263E+02  0.81922460263E+02  0.00000000000E+00 0.  1.
         21    1    1    2  503  501 -0.39844412263E+02 -0.93884830474E+02  0.10997068835E+03  0.14998496884E+03  0.00000000000E+00 0.  1.
         21    1    1    2  504  502  0.39844412263E+02  0.93884830474E+02 -0.19914654516E+02  0.10391598552E+03  0.00000000000E+00 0.  1.
<mgrwt>
<rscale>  2 0.10198989E+03</rscale>
<asrwt>0</asrwt>
<pdfrwt beam="1">  1       21 0.26458230E-01 0.10198989E+03</pdfrwt>
<pdfrwt beam="2">  1       21 0.12603455E-01 0.10198989E+03</pdfrwt>
<totfact> 0.73271131E+05</totfact>
</mgrwt>
</event>
<event>
 4    1  0.6055396E+003  0.1329784E+03  0.7546771E-02  0.1223102E+00
         21   -1    0    0  504  501  0.00000000000E+00  0.00000000000E+00  0.39362237379E+03  0.39362237379E+03  0.00000000000E+00 0.  1.
         21   -1    0    0  503  502 -0.00000000000E+00 -0.00000000000E+00 -0.48551017241E+02  0.48551017241E+02  0.00000000000E+00 0.  1.
         21    1    1    2  503  501 -0.99474606055E+02  0.88250007641E+02  0.11211126285E+03  0.17393158527E+03  0.00000000000E+00 0.  1.
         21    1    1    2  504  502  0.99474606055E+02 -0.88250007641E+02  0.23296009370E+03  0.26824180576E+03  0.00000000000E+00 0.  1.
<mgrwt>
<rscale>  2 0.13297842E+03</rscale>
<asrwt>0</asrwt>
<pdfrwt beam="1">  1       21 0.60557286E-01 0.13297842E+03</pdfrwt>
<pdfrwt beam="2">  1       21 0.74693875E-02 0.13297842E+03</pdfrwt>
<totfact> 0.34761778E+05</totfact>
</mgrwt>
</event>
<event>
 4    1  0.6055396E+003  0.1012949E+03  0.7546771E-02  0.1277596E+00
         21   -1    0    0  504  501  0.00000000000E+00  0.00000000000E+00  0.47209282268E+03  0.47209282268E+03  0.00000000000E+00 0.  1.
         21   -1    0    0  503  502 -0.00000000000E+00 -0.00000000000E+00 -0.27464181924E+02  0.27464181924E+02  0.00000000000E+00 0.  1.
         21    1    1    2  503  501 -0.36280543994E+02  0.94574740909E+02  0.10822621998E+03  0.14823486156E+03  0.00000000000E+00 0.  1.
         21    1    1    2  504  502  0.36280543994E+02 -0.94574740909E+02  0.33640242078E+03  0.35132214305E+03  0.00000000000E+00 0.  1.
<mgrwt>
<rscale>  2 0.10129491E+03</rscale>
<asrwt>0</asrwt>
<pdfrwt beam="1">  1       21 0.72629659E-01 0.10129491E+03</pdfrwt>
<pdfrwt beam="2">  1       21 0.42252591E-02 0.10129491E+03</pdfrwt>
<totfact> 0.61621204E+05</totfact>
</mgrwt>
</event>
<event>
 4    1  0.6055396E+003  0.1097912E+03  0.7546771E-02  0.1260957E+00
         21   -1    0    0  503  501  0.00000000000E+00  0.00000000000E+00  0.27286723206E+02  0.27286723206E+02  0.00000000000E+00 0.  1.
         21   -1    0    0  504  502 -0.00000000000E+00 -0.00000000000E+00 -0.51340093121E+03  0.51340093121E+03  0.00000000000E+00 0.  1.
         21    1    1    2  503  502  0.92969287037E+02  0.58402286772E+02 -0.14206760194E+03  0.17954753954E+03  0.00000000000E+00 0.  1.
         21    1    1    2  504  501 -0.92969287037E+02 -0.58402286772E+02 -0.34404660606E+03  0.36114011488E+03  0.00000000000E+00 0.  1.
<mgrwt>
<rscale>  2 0.10979124E+03</rscale>
<asrwt>0</asrwt>
<pdfrwt beam="1">  1       21 0.41979576E-02 0.10979124E+03</pdfrwt>
<pdfrwt beam="2">  1       21 0.78984756E-01 0.10979124E+03</pdfrwt>
<totfact> 0.51772897E+05</totfact>
</mgrwt>
</event>
<event>
 4    1  0.6055396E+003  0.1445178E+03  0.7546771E-02  0.1207376E+00
         21   -1    0    0  503  501  0.00000000000E+00  0.00000000000E+00  0.58102445854E+03  0.58102445854E+03  0.00000000000E+00 0. -1.
         21   -1    0    0  504  502 -0.00000000000E+00 -0.00000000000E+00 -0.52060745566E+03  0.52060745566E+03  0.00000000000E+00 0.  1.
         21    1    1    2  503  502  0.12196547669E+03  0.77522949672E+02 -0.50125158673E+03  0.52166899317E+03  0.00000000000E+00 0.  1.
         21    1    1    2  504  501 -0.12196547669E+03 -0.77522949672E+02  0.56166858960E+03  0.57996292104E+03  0.00000000000E+00 0. -1.
<mgrwt>
<rscale>  2 0.14451777E+03</rscale>
<asrwt>0</asrwt>
<pdfrwt beam="1">  1       21 0.89388378E-01 0.14451777E+03</pdfrwt>
<pdfrwt beam="2">  1       21 0.80093455E-01 0.14451777E+03</pdfrwt>
<totfact> 0.15400964E+03</totfact>
</mgrwt>
</event>
<event>
 4    1  0.6055396E+003  0.1083339E+03  0.7546771E-02  0.1263687E+00
         21   -1    0    0  504  501  0.00000000000E+00  0.00000000000E+00  0.17487517033E+03  0.17487517033E+03  0.00000000000E+00 0. -1.
         21   -1    0    0  503  502 -0.00000000000E+00 -0.00000000000E+00 -0.75018367059E+02  0.75018367059E+02  0.00000000000E+00 0. -1.
         21    1    1    2  503  501 -0.79742995710E+02 -0.73329981755E+02  0.90491234127E+02  0.14115557036E+03  0.00000000000E+00 0. -1.
         21    1    1    2  504  502  0.79742995710E+02  0.73329981755E+02  0.93655691450E+01  0.10873796703E+03  0.00000000000E+00 0. -1.
<mgrwt>
<rscale>  2 0.10833389E+03</rscale>
<asrwt>0</asrwt>
<pdfrwt beam="1">  1       21 0.26903872E-01 0.10833389E+03</pdfrwt>
<pdfrwt beam="2">  1       21 0.11541287E-01 0.10833389E+03</pdfrwt>
<totfact> 0.82952990E+05</totfact>
</mgrwt>
</event>
<event>
 4    1  0.6055396E+003  0.1308310E+03  0.7546771E-02  0.1226228E+00
         21   -1    0    0  503  501  0.00000000000E+00  0.00000000000E+00  0.60332807879E+03  0.60332807879E+03  0.00000000000E+00 0. -1.
         21   -1    0    0  501  502 -0.00000000000E+00 -0.00000000000E+00 -0.28434783028E+02  0.28434783028E+02  0.00000000000E+00 0. -1.
         21    1    1    2  503  504 -0.93662138115E+02  0.91346325840E+02  0.30246042296E+03  0.32954370699E+03  0.00000000000E+00 0. -1.
         21    1    1    2  504  502  0.93662138115E+02 -0.91346325840E+02  0.27243287280E+03  0.30221915483E+03  0.00000000000E+00 0. -1.
<mgrwt>
<rscale>  2 0.13083099E+03</rscale>
<asrwt>0</asrwt>
<pdfrwt beam="1">  1       21 0.92819695E-01 0.13083099E+03</pdfrwt>
<pdfrwt beam="2">  1       21 0.43745824E-02 0.13083099E+03</pdfrwt>
<totfact> 0.33456941E+05</totfact>
</mgrwt>
</event>
<event>
 4    1  0.6055396E+003  0.1096411E+03  0.7546771E-02  0.1261236E+00
         21   -1    0    0  504  501  0.00000000000E+00  0.00000000000E+00  0.97152768170E+03  0.97152768170E+03  0.00000000000E+00 0. -1.
         21   -1    0    0  503  502 -0.00000000000E+00 -0.00000000000E+00 -0.12424696706E+02  0.12424696706E+02  0.00000000000E+00 0. -1.
         21    1    1    2  503  501  0.44589976483E+02  0.10016441363E+03  0.51113921101E+03  0.52276617028E+03  0.00000000000E+00 0. -1.
         21    1    1    2  504  502 -0.44589976483E+02 -0.10016441363E+03  0.44796377398E+03  0.46118620812E+03  0.00000000000E+00 0. -1.
<mgrwt>
<rscale>  2 0.10964112E+03</rscale>
<asrwt>0</asrwt>
<pdfrwt beam="1">  1       21 0.14946574E+00 0.10964112E+03</pdfrwt>
<pdfrwt beam="2">  1       21 0.19114926E-02 0.10964112E+03</pdfrwt>
<totfact> 0.40979032E+05</totfact>
</mgrwt>
</event>
<event>
 4    1  0.6055396E+003  0.1149493E+03  0.7546771E-02  0.1251670E+00
         21   -1    0    0  502  501  0.00000000000E+00  0.00000000000E+00  0.30916439283E+03  0.30916439283E+03  0.00000000000E+00 0. -1.
         21   -1    0    0  504  502 -0.00000000000E+00 -0.00000000000E+00 -0.50909769263E+02  0.50909769263E+02  0.00000000000E+00 0.  1.
         21    1    1    2  503  501  0.11352321979E+03  0.18050720759E+02  0.20125386785E+03  0.23176813689E+03  0.00000000000E+00 0. -1.
         21    1    1    2  504  503 -0.11352321979E+03 -0.18050720759E+02  0.57000755714E+02  0.12830602520E+03  0.00000000000E+00 0.  1.
<mgrwt>
<rscale>  2 0.11494934E+03</rscale>
<asrwt>0</asrwt>
<pdfrwt beam="1">  1       21 0.47563752E-01 0.11494934E+03</pdfrwt>
<pdfrwt beam="2">  1       21 0.78322724E-02 0.11494934E+03</pdfrwt>
<totfact> 0.53110335E+05</totfact>
</mgrwt>
</event>
<event>
 4    1  0.6055396E+003  0.1204441E+03  0.7546771E-02  0.1242366E+00
         21   -1    0    0  504  501  0.00000000000E+00  0.00000000000E+00  0.51899188482E+02  0.51899188482E+02  0.00000000000E+00 0. -1.
         21   -1    0    0  503  502 -0.00000000000E+00 -0.00000000000E+00 -0.56139468608E+03  0.56139468608E+03  0.00000000000E+00 0. -1.
         21    1    1    2  503  501  0.12044404380E+03  0.11859499271E+00 -0.47203472648E+03  0.48715866487E+03  0.00000000000E+00 0. -1.
         21    1    1    2  504  502 -0.12044404380E+03 -0.11859499271E+00 -0.37460771114E+02  0.12613520969E+03  0.00000000000E+00 0. -1.
<mgrwt>
<rscale>  2 0.12044410E+03</rscale>
<asrwt>0</asrwt>
<pdfrwt beam="1">  1       21 0.79844905E-02 0.12044410E+03</pdfrwt>
<pdfrwt beam="2">  1       21 0.86368414E-01 0.12044410E+03</pdfrwt>
<totfact> 0.14275449E+05</totfact>
</mgrwt>
</event>
<event>
 4    1  0.6055396E+003  0.1170561E+03  0.7546771E-02  0.1248034E+00
         21   -1    0    0  504  501  0.00000000000E+00  0.00000000000E+00  0.80778847179E+01  0.80778847179E+01  0.00000000000E+00 0.  1.
         21   -1    0    0  503  502 -0.00000000000E+00 -0.00000000000E+00 -0.18469147700E+04  0.18469147700E+04  0.00000000000E+00 0.  1.
         21    1    1    2  503  501 -0.99987134070E+02 -0.60866211744E+02 -0.65451188554E+03  0.66489693263E+03  0.00000000000E+00 0.  1.
         21    1    1    2  504  502  0.99987134070E+02  0.60866211744E+02 -0.11843249998E+04  0.11900957221E+04  0.00000000000E+00 0.  1.
<mgrwt>
<rscale>  2 0.11705607E+03</rscale>
<asrwt>0</asrwt>
<pdfrwt beam="1">  1       21 0.12427507E-02 0.11705607E+03</pdfrwt>
<pdfrwt beam="2">  1       21 0.28414092E+00 0.11705607E+03</pdfrwt>
<totfact> 0.11953290E+05</totfact>
</mgrwt>
</event>
<event>
 4    1  0.6055396E+003  0.1636354E+03  0.7546771E-02  0.1184652E+00
         21   -1    0    0  504  501  0.00000000000E+00  0.00000000000E+00  0.30016351724E+03  0.30016351724E+03  0.00000000000E+00 0.  1.
         21   -1    0    0  503  502 -0.00000000000E+00 -0.00000000000E+00 -0.21084824527E+03  0.21084824527E+03  0.00000000000E+00 0.  1.
         21    1    1    2  503  501  0.16046508005E+03  0.32054825030E+02  0.23872706422E+03  0.28942557751E+03  0.00000000000E+00 0.  1.
         21    1    1    2  504  502 -0.16046508005E+03 -0.32054825030E+02 -0.14941179225E+03  0.22158618501E+03  0.00000000000E+00 0.  1.
<mgrwt>
<rscale>  2 0.16363543E+03</rscale>
<asrwt>0</asrwt>
<pdfrwt beam="1">  1       21 0.46179003E-01 0.16363543E+03</pdfrwt>
<pdfrwt beam="2">  1       21 0.32438192E-01 0.16363543E+03</pdfrwt>
<totfact> 0.41706973E+04</totfact>
</mgrwt>
</event>
<event>
 4    1  0.6055396E+003  0.1051723E+03  0.7546771E-02  0.1269780E+00
         21   -1    0    0  503  501  0.00000000000E+00  0.00000000000E+00  0.35300755959E+03  0.35300755959E+03  0.00000000000E+00 0. -1.
         21   -1    0    0  504  502 -0.00000000000E+00 -0.00000000000E+00 -0.65693544536E+02  0.65693544536E+02  0.00000000000E+00 0. -1.
         21    1    1    2  503  502 -0.85257891498E+02 -0.61581724647E+02  0.29506021145E+03  0.31324390697E+03  0.00000000000E+00 0. -1.
         21    1    1    2  504  501  0.85257891498E+02  0.61581724647E+02 -0.77461963970E+01  0.10545719715E+03  0.00000000000E+00 0. -1.
<mgrwt>
<rscale>  2 0.10517232E+03</rscale>
<asrwt>0</asrwt>
<pdfrwt beam="1">  1       21 0.54308854E-01 0.10517232E+03</pdfrwt>
<pdfrwt beam="2">  1       21 0.10106699E-01 0.10517232E+03</pdfrwt>
<totfact> 0.26049218E+05</totfact>
</mgrwt>
</event>
<event>
 4    1  0.6055396E+003  0.1110441E+03  0.7546771E-02  0.1258648E+00
         21   -1    0    0  503  501  0.00000000000E+00  0.00000000000E+00  0.69389267990E+03  0.69389267990E+03  0.00000000000E+00 0. -1.
         21   -1    0    0  504  502 -0.00000000000E+00 -0.00000000000E+00 -0.66768636148E+02  0.66768636148E+02  0.00000000000E+00 0. -1.
         21    1    1    2  503  502 -0.71762385747E+02 -0.84740512225E+02  0.63937248320E+03  0.64894373153E+03  0.00000000000E+00 0. -1.
         21    1    1    2  504  501  0.71762385747E+02  0.84740512225E+02 -0.12248439454E+02  0.11171758451E+03  0.00000000000E+00 0. -1.
<mgrwt>
<rscale>  2 0.11104411E+03</rscale>
<asrwt>0</asrwt>
<pdfrwt beam="1">  1       21 0.10675271E+00 0.11104411E+03</pdfrwt>
<pdfrwt beam="2">  1       21 0.10272098E-01 0.11104411E+03</pdfrwt>
<totfact> 0.56789837E+04</totfact>
</mgrwt>
</event>
<event>
 4    1  0.6055396E+003  0.1035477E+03  0.7546771E-02  0.1273008E+00
         21   -1    0    0  502  501  0.00000000000E+00  0.00000000000E+00  0.14037752499E+03  0.14037752499E+03  0.00000000000E+00 0.  1.
         21   -1    0    0  503  502 -0.00000000000E+00 -0.00000000000E+00 -0.48610187832E+03  0.48610187832E+03  0.00000000000E+00 0. -1.
         21    1    1    2  503  504  0.26161045177E+02  0.10018841446E+03 -0.46044133942E+03  0.47194104052E+03  0.00000000000E+00 0. -1.
         21    1    1    2  504  501 -0.26161045177E+02 -0.10018841446E+03  0.11471698609E+03  0.15453836279E+03  0.00000000000E+00 0.  1.
<mgrwt>
<rscale>  2 0.10354766E+03</rscale>
<asrwt>0</asrwt>
<pdfrwt beam="1">  1       21 0.21596542E-01 0.10354766E+03</pdfrwt>
<pdfrwt beam="2">  1       21 0.74784905E-01 0.10354766E+03</pdfrwt>
<totfact> 0.33790532E+04</totfact>
</mgrwt>
</event>
<event>
 4    1  0.6055396E+003  0.1201930E+03  0.7546771E-02  0.1242779E+00
         21   -1    0    0  503  501  0.00000000000E+00  0.00000000000E+00  0.37623775495E+02  0.37623775495E+02  0.00000000000E+00 0. -1.
         21   -1    0    0  504  502 -0.00000000000E+00 -0.00000000000E+00 -0.54713822873E+03  0.54713822873E+03  0.00000000000E+00 0. -1.
         21    1    1    2  503  502 -0.47944714904E+02  0.11021644305E+03 -0.41442595720E+03  0.43150345770E+03  0.00000000000E+00 0. -1.
         21    1    1    2  504  501  0.47944714904E+02 -0.11021644305E+03 -0.95088496036E+02  0.15325854653E+03  0.00000000000E+00 0. -1.
<mgrwt>
<rscale>  2 0.12019301E+03</rscale>
<asrwt>0</asrwt>
<pdfrwt beam="1">  1       21 0.57882737E-02 0.12019301E+03</pdfrwt>
<pdfrwt beam="2">  1       21 0.84175105E-01 0.12019301E+03</pdfrwt>
<totfact> 0.26182264E+05</totfact>
</mgrwt>
</event>
<event>
 4    1  0.6055396E+003  0.1010741E+03  0.7546771E-02  0.1278053E+00
         21   -1    0    0  503  501  0.00000000000E+00  0.00000000000E+00  0.15433500710E+02  0.15433500710E+02  0.00000000000E+00 0.  1.
         21   -1    0    0  504  502 -0.00000000000E+00 -0.00000000000E+00 -0.66463751600E+03  0.66463751600E+03  0.00000000000E+00 0.  1.
         21    1    1    2  503  502  0.86427000773E+02 -0.52405613118E+02 -0.30291929534E+03  0.31933692902E+03  0.00000000000E+00 0.  1.
         21    1    1    2  504  501 -0.86427000773E+02  0.52405613118E+02 -0.34628471996E+03  0.36073408769E+03  0.00000000000E+00 0.  1.
<mgrwt>
<rscale>  2 0.10107411E+03</rscale>
<asrwt>0</asrwt>
<pdfrwt beam="1">  1       21 0.23743860E-02 0.10107411E+03</pdfrwt>
<pdfrwt beam="2">  1       21 0.10225187E+00 0.10107411E+03</pdfrwt>
<totfact> 0.73168738E+05</totfact>
</mgrwt>
</event>
<event>
 4    1  0.6055396E+003  0.1064515E+03  0.7546771E-02  0.1267286E+00
         21   -1    0    0  503  501  0.00000000000E+00  0.00000000000E+00  0.25331565021E+04  0.25331565021E+04  0.00000000000E+00 0. -1.
         21   -1    0    0  501  502 -0.00000000000E+00 -0.00000000000E+00 -0.93629577177E+01  0.93629577177E+01  0.00000000000E+00 0. -1.
         21    1    1    2  503  504  0.36597146325E+02  0.99962834677E+02  0.21805695433E+04  0.21831663823E+04  0.00000000000E+00 0. -1.
         21    1    1    2  504  502 -0.36597146325E+02 -0.99962834677E+02  0.34322400109E+03  0.35935307757E+03  0.00000000000E+00 0. -1.
<mgrwt>
<rscale>  2 0.10645149E+03</rscale>
<asrwt>0</asrwt>
<pdfrwt beam="1">  1       21 0.38971584E+00 0.10645149E+03</pdfrwt>
<pdfrwt beam="2">  1       21 0.14404571E-02 0.10645149E+03</pdfrwt>
<totfact> 0.24075933E+04</totfact>
</mgrwt>
</event>
<event>
 4    1  0.6055396E+003  0.1107647E+03  0.7546771E-02  0.1259160E+00
         21   -1    0    0  504  501  0.00000000000E+00  0.00000000000E+00  0.43735465801E+03  0.43735465801E+03  0.00000000000E+00 0. -1.
         21   -1    0    0  503  502 -0.00000000000E+00 -0.00000000000E+00 -0.10334355664E+03  0.10334355664E+03  0.00000000000E+00 0. -1.
         21    1    1    2  503  501  0.28072914044E+02 -0.10714815950E+03 -0.63751738396E+02  0.12780102009E+03  0.00000000000E+00 0. -1.
         21    1    1    2  504  502 -0.28072914044E+02  0.10714815950E+03  0.39776283976E+03  0.41289719456E+03  0.00000000000E+00 0. -1.
<mgrwt>
<rscale>  2 0.11076469E+03</rscale>
<asrwt>0</asrwt>
<pdfrwt beam="1">  1       21 0.67285331E-01 0.11076469E+03</pdfrwt>
<pdfrwt beam="2">  1       21 0.15899009E-01 0.11076469E+03</pdfrwt>
<totfact> 0.74040705E+04</totfact>
</mgrwt>
</event>
<event>
 4    1  0.6055396E+003  0.1474679E+03  0.7546771E-02  0.1203619E+00
         21   -1    0    0  502  501  0.00000000000E+00  0.00000000000E+00  0.11997472649E+03  0.11997472649E+03  0.00000000000E+00 0.  1.
         21   -1    0    0  503  502 -0.00000000000E+00 -0.00000000000E+00 -0.18789254988E+03  0.18789254988E+03  0.00000000000E+00 0.  1.
         21    1    1    2  503  504  0.44890915659E+02  0.14046912631E+03 -0.62877550856E+02  0.16031330624E+03  0.00000000000E+00 0.  1.
         21    1    1    2  504  501 -0.44890915659E+02 -0.14046912631E+03 -0.50402725342E+01  0.14755397014E+03  0.00000000000E+00 0.  1.
<mgrwt>
<rscale>  2 0.14746786E+03</rscale>
<asrwt>0</asrwt>
<pdfrwt beam="1">  1       21 0.18457650E-01 0.14746786E+03</pdfrwt>
<pdfrwt beam="2">  1       21 0.28906546E-01 0.14746786E+03</pdfrwt>
<totfact> 0.30996009E+05</totfact>
</mgrwt>
</event>
<event>
 4    1  0.6055396E+003  0.1000235E+03  0.7546771E-02  0.1280247E+00
         21   -1    0    0  503  501  0.00000000000E+00  0.00000000000E+00  0.58675707409E+02  0.58675707409E+02  0.00000000000E+00 0. -1.
         21   -1    0    0  501  502 -0.00000000000E+00 -0.00000000000E+00 -0.22289598307E+03  0.22289598307E+03  0.00000000000E+00 0. -1.
         21    1    1    2  503  504  0.56134852587E+02 -0.82786332678E+02 -0.13857062428E+02  0.10097879348E+03  0.00000000000E+00 0. -1.
         21    1    1    2  504  502 -0.56134852587E+02  0.82786332678E+02 -0.15036321324E+03  0.18059289700E+03  0.00000000000E+00 0. -1.
<mgrwt>
<rscale>  2 0.10002349E+03</rscale>
<asrwt>0</asrwt>
<pdfrwt beam="1">  1       21 0.90270321E-02 0.10002349E+03</pdfrwt>
<pdfrwt beam="2">  1       21 0.34291689E-01 0.10002349E+03</pdfrwt>
<totfact> 0.79804102E+05</totfact>
</mgrwt>
</event>
<event>
 4    1  0.6055396E+003  0.1383737E+03  0.7546771E-02  0.1215534E+00
         21   -1    0    0  502  501  0.00000000000E+00  0.00000000000E+00  0.45869851507E+02  0.45869851507E+02  0.00000000000E+00 0.  1.
         21   -1    0    0  504  502 -0.00000000000E+00 -0.00000000000E+00 -0.68246364116E+03  0.68246364116E+03  0.00000000000E+00 0.  1.
         21    1    1    2  503  501  0.78525369136E+00 -0.13837142374E+03 -0.91355183748E+02  0.16581024435E+03  0.00000000000E+00 0.  1.
         21    1    1    2  504  503 -0.78525369136E+00  0.13837142374E+03 -0.54523860591E+03  0.56252324832E+03  0.00000000000E+00 0.  1.
<mgrwt>
<rscale>  2 0.13837365E+03</rscale>
<asrwt>0</asrwt>
<pdfrwt beam="1">  1       21 0.70569000E-02 0.13837365E+03</pdfrwt>
<pdfrwt beam="2">  1       21 0.10499441E+00 0.13837365E+03</pdfrwt>
<totfact> 0.11145805E+05</totfact>
</mgrwt>
</event>
<event>
 4    1  0.6055396E+003  0.1030502E+03  0.7546771E-02  0.1274010E+00
         21   -1    0    0  502  501  0.00000000000E+00  0.00000000000E+00  0.10274453002E+03  0.10274453002E+03  0.00000000000E+00 0. -1.
         21   -1    0    0  504  502 -0.00000000000E+00 -0.00000000000E+00 -0.35595468396E+03  0.35595468396E+03  0.00000000000E+00 0. -1.
         21    1    1    2  503  501 -0.56310326106E+02  0.86304614636E+02  0.66598673509E+02  0.12269768803E+03  0.00000000000E+00 0. -1.
         21    1    1    2  504  503  0.56310326106E+02 -0.86304614636E+02 -0.31980882745E+03  0.33600152596E+03  0.00000000000E+00 0. -1.
<mgrwt>
<rscale>  2 0.10305018E+03</rscale>
<asrwt>0</asrwt>
<pdfrwt beam="1">  1       21 0.15806851E-01 0.10305018E+03</pdfrwt>
<pdfrwt beam="2">  1       21 0.54762260E-01 0.10305018E+03</pdfrwt>
<totfact> 0.11613594E+05</totfact>
</mgrwt>
</event>
<event>
 4    1  0.6055396E+003  0.1252487E+03  0.7546771E-02  0.1234681E+00
         21   -1    0    0  503  501  0.00000000000E+00  0.00000000000E+00  0.37012283101E+02  0.37012283101E+02  0.00000000000E+00 0. -1.
         21   -1    0    0  504  502 -0.00000000000E+00 -0.00000000000E+00 -0.42478393543E+03  0.42478393543E+03  0.00000000000E+00 0. -1.
         21    1    1    2  503  502 -0.11673727932E+03  0.45383241930E+02 -0.18299278140E+03  0.22175118732E+03  0.00000000000E+00 0. -1.
         21    1    1    2  504  501  0.11673727932E+03 -0.45383241930E+02 -0.20477887093E+03  0.24004503121E+03  0.00000000000E+00 0. -1.
<mgrwt>
<rscale>  2 0.12524868E+03</rscale>
<asrwt>0</asrwt>
<pdfrwt beam="1">  1       21 0.56941974E-02 0.12524868E+03</pdfrwt>
<pdfrwt beam="2">  1       21 0.65351375E-01 0.12524868E+03</pdfrwt>
<totfact> 0.46938053E+05</totfact>
</mgrwt>
</event>
<event>
 4    1  0.6055396E+003  0.1251136E+03  0.7546771E-02  0.1234892E+00
         21   -1    0    0  504  501  0.00000000000E+00  0.00000000000E+00  0.89111886735E+02  0.89111886735E+02  0.00000000000E+00 0. -1.
         21   -1    0    0  503  502 -0.00000000000E+00 -0.00000000000E+00 -0.39235648366E+03  0.39235648366E+03  0.00000000000E+00 0. -1.
         21    1    1    2  503  501  0.12150326706E+03  0.29839056596E+02  0.27282943493E+02  0.12805378640E+03  0.00000000000E+00 0. -1.
         21    1    1    2  504  502 -0.12150326706E+03 -0.29839056596E+02 -0.33052754041E+03  0.35341458399E+03  0.00000000000E+00 0. -1.
<mgrwt>
<rscale>  2 0.12511360E+03</rscale>
<asrwt>0</asrwt>
<pdfrwt beam="1">  1       21 0.13709521E-01 0.12511360E+03</pdfrwt>
<pdfrwt beam="2">  1       21 0.60362537E-01 0.12511360E+03</pdfrwt>
<totfact> 0.12107634E+05</totfact>
</mgrwt>
</event>
<event>
 4    1  0.6055396E+003  0.1071464E+03  0.7546771E-02  0.1265947E+00
         21   -1    0    0  503  501  0.00000000000E+00  0.00000000000E+00  0.20489218562E+03  0.20489218562E+03  0.00000000000E+00 0.  1.
         21   -1    0    0  504  502 -0.00000000000E+00 -0.00000000000E+00 -0.56506070620E+02  0.56506070620E+02  0.00000000000E+00 0.  1.
         21    1    1    2  503  502  0.43302449870E+02  0.98006336402E+02  0.86175272074E+02  0.13750098784E+03  0.00000000000E+00 0.  1.
         21    1    1    2  504  501 -0.43302449870E+02 -0.98006336402E+02  0.62210842926E+02  0.12389726840E+03  0.00000000000E+00 0.  1.
<mgrwt>
<rscale>  2 0.10714637E+03</rscale>
<asrwt>0</asrwt>
<pdfrwt beam="1">  1       21 0.31521874E-01 0.10714637E+03</pdfrwt>
<pdfrwt beam="2">  1       21 0.86932417E-02 0.10714637E+03</pdfrwt>
<totfact> 0.10034378E+06</totfact>
</mgrwt>
</event>
<event>
 4    1  0.6055396E+003  0.1382583E+03  0.7546771E-02  0.1215692E+00
         21   -1    0    0  503  501  0.00000000000E+00  0.00000000000E+00  0.25675097070E+02  0.25675097070E+02  0.00000000000E+00 0. -1.
         21   -1    0    0  504  502 -0.00000000000E+00 -0.00000000000E+00 -0.77263505772E+03  0.77263505772E+03  0.00000000000E+00 0. -1.
         21    1    1    2  503  502  0.10797251887E+03 -0.86355660760E+02 -0.29732441825E+03  0.32789811629E+03  0.00000000000E+00 0. -1.
         21    1    1    2  504  501 -0.10797251887E+03  0.86355660760E+02 -0.44963554240E+03  0.47041203850E+03  0.00000000000E+00 0. -1.
<mgrwt>
<rscale>  2 0.13825833E+03</rscale>
<asrwt>0</asrwt>
<pdfrwt beam="1">  1       21 0.39500143E-02 0.13825833E+03</pdfrwt>
<pdfrwt beam="2">  1       21 0.11886695E+00 0.13825833E+03</pdfrwt>
<totfact> 0.22031179E+05</totfact>
</mgrwt>
</event>
