<event>
 4    1  0.5006371E+003  0.1253686E+03  0.7546771E-02  0.1234494E+00
         21   -1    0    0  501  502  0.00000000000E+00  0.00000000000E+00  0.51786868661E+03  0.51786868661E+03  0.00000000000E+00 0.  1.
          1   -1    0    0  503    0 -0.00000000000E+00 -0.00000000000E+00 -0.20958637577E+03  0.20958637577E+03  0.00000000000E+00 0.  1.
         21    1    1    2  503  502  0.92594042552E+02  0.84519952266E+02  0.49050384081E+03  0.50627195942E+03  0.00000000000E+00 0.  1.
          1    1    1    2  501    0 -0.92594042552E+02 -0.84519952266E+02 -0.18222152997E+03  0.22118310295E+03  0.00000000000E+00 0.  1.
<mgrwt>
<rscale>  2 0.12536857E+03</rscale>
<asrwt>0</asrwt>
<pdfrwt beam="1">  1       21 0.79672105E-01 0.12536857E+03</pdfrwt>
<pdfrwt beam="2">  1        1 0.32244058E-01 0.12536857E+03</pdfrwt>
<totfact> 0.21470394E+03</totfact>
</mgrwt>
</event>
<event>
 4    1  0.5006371E+003  0.1801629E+03  0.7546771E-02  0.1167646E+00
         21   -1    0    0  501  502  0.00000000000E+00  0.00000000000E+00  0.34991678764E+02  0.34991678764E+02  0.00000000000E+00 0. -1.
          1   -1    0    0  503    0 -0.00000000000E+00 -0.00000000000E+00 -0.12596445120E+04  0.12596445120E+04  0.00000000000E+00 0. -1.
         21    1    1    2  503  502  0.11657662249E+03  0.13736282690E+03 -0.27998465819E+03  0.33294153232E+03  0.00000000000E+00 0. -1.
          1    1    1    2  501    0 -0.11657662249E+03 -0.13736282690E+03 -0.94466817506E+03  0.96169465845E+03  0.00000000000E+00 0. -1.
<mgrwt>
<rscale>  2 0.18016286E+03</rscale>
<asrwt>0</asrwt>
<pdfrwt beam="1">  1       21 0.53833347E-02 0.18016286E+03</pdfrwt>
<pdfrwt beam="2">  1        1 0.19379148E+00 0.18016286E+03</pdfrwt>
<totfact> 0.27981667E+04</totfact>
</mgrwt>
</event>
<event>
 4    1  0.5006371E+003  0.1486848E+03  0.7546771E-02  0.1202099E+00
          2   -1    0    0  502    0 -0.00000000000E+00  0.00000000000E+00  0.40291788415E+04  0.40291788415E+04  0.00000000000E+00 0. -1.
         21   -1    0    0  503  502  0.00000000000E+00 -0.00000000000E+00 -0.19072771997E+02  0.19072771997E+02  0.00000000000E+00 0.  1.
         21    1    1    2  503  501  0.11891842443E+03 -0.89250028926E+02  0.29670440793E+03  0.33187447178E+03  0.00000000000E+00 0.  1.
          2    1    1    2  501    0 -0.11891842443E+03  0.89250028926E+02  0.37134016616E+04  0.37163771417E+04  0.00000000000E+00 0. -1.
<mgrwt>
<rscale>  2 0.14868476E+03</rscale>
<asrwt>0</asrwt>
<pdfrwt beam="2">  1       21 0.29342758E-02 0.14868476E+03</pdfrwt>
<pdfrwt beam="1">  1        2 0.61987299E+00 0.14868476E+03</pdfrwt>
<totfact> 0.38765510E+03</totfact>
</mgrwt>
</event>
<event>
 4    1  0.5006371E+003  0.1311862E+03  0.7546771E-02  0.1225706E+00
          1   -1    0    0  503    0 -0.00000000000E+00  0.00000000000E+00  0.15962915808E+04  0.15962915808E+04  0.00000000000E+00 0. -1.
         21   -1    0    0  501  502  0.00000000000E+00 -0.00000000000E+00 -0.16457915790E+02  0.16457915790E+02  0.00000000000E+00 0. -1.
         21    1    1    2  503  502 -0.12931914252E+03 -0.22053982779E+02  0.31632854516E+03  0.34245228465E+03  0.00000000000E+00 0. -1.
          1    1    1    2  501    0  0.12931914252E+03  0.22053982779E+02  0.12635051198E+04  0.12702972119E+04  0.00000000000E+00 0. -1.
<mgrwt>
<rscale>  2 0.13118620E+03</rscale>
<asrwt>0</asrwt>
<pdfrwt beam="2">  1       21 0.25319883E-02 0.13118620E+03</pdfrwt>
<pdfrwt beam="1">  1        1 0.24558320E+00 0.13118620E+03</pdfrwt>
<totfact> 0.59306439E+04</totfact>
</mgrwt>
</event>
<event>
 4    1  0.5006371E+003  0.1014923E+03  0.7546771E-02  0.1277189E+00
         21   -1    0    0  501  502  0.00000000000E+00  0.00000000000E+00  0.34553718740E+03  0.34553718740E+03  0.00000000000E+00 0.  1.
          2   -1    0    0  503    0 -0.00000000000E+00 -0.00000000000E+00 -0.53728436812E+03  0.53728436812E+03  0.00000000000E+00 0. -1.
         21    1    1    2  503  502 -0.72909054520E+02 -0.70604256647E+02  0.33311683971E+03  0.34823486354E+03  0.00000000000E+00 0.  1.
          2    1    1    2  501    0  0.72909054520E+02  0.70604256647E+02 -0.52486402044E+03  0.53458669198E+03  0.00000000000E+00 0. -1.
<mgrwt>
<rscale>  2 0.10149232E+03</rscale>
<asrwt>0</asrwt>
<pdfrwt beam="1">  1       21 0.53159567E-01 0.10149232E+03</pdfrwt>
<pdfrwt beam="2">  1        2 0.82659134E-01 0.10149232E+03</pdfrwt>
<totfact> 0.25297395E+03</totfact>
</mgrwt>
</event>
<event>
 4    1  0.5006371E+003  0.1090714E+03  0.7546771E-02  0.1262299E+00
          2   -1    0    0  503    0 -0.00000000000E+00  0.00000000000E+00  0.15686728886E+04  0.15686728886E+04  0.00000000000E+00 0.  1.
         21   -1    0    0  501  502  0.00000000000E+00 -0.00000000000E+00 -0.11282560602E+02  0.11282560602E+02  0.00000000000E+00 0. -1.
         21    1    1    2  503  502  0.81261496209E+02 -0.72753949516E+02  0.32638470394E+03  0.34412721906E+03  0.00000000000E+00 0. -1.
          2    1    1    2  501    0 -0.81261496209E+02  0.72753949516E+02  0.12310056240E+04  0.12358282301E+04  0.00000000000E+00 0.  1.
<mgrwt>
<rscale>  2 0.10907139E+03</rscale>
<asrwt>0</asrwt>
<pdfrwt beam="2">  1       21 0.17357798E-02 0.10907139E+03</pdfrwt>
<pdfrwt beam="1">  1        2 0.24133412E+00 0.10907139E+03</pdfrwt>
<totfact> 0.24847951E+05</totfact>
</mgrwt>
</event>
<event>
 4    1  0.5006371E+003  0.2458077E+03  0.7546771E-02  0.1115983E+00
          1   -1    0    0  502    0 -0.00000000000E+00  0.00000000000E+00  0.10854366005E+04  0.10854366005E+04  0.00000000000E+00 0.  1.
         21   -1    0    0  503  502  0.00000000000E+00 -0.00000000000E+00 -0.27233895122E+03  0.27233895122E+03  0.00000000000E+00 0.  1.
         21    1    1    2  503  501  0.18878036362E+03  0.15742744113E+03 -0.19899545968E+03  0.31626036407E+03  0.00000000000E+00 0.  1.
          1    1    1    2  501    0 -0.18878036362E+03 -0.15742744113E+03  0.10120931090E+04  0.10415151877E+04  0.00000000000E+00 0.  1.
<mgrwt>
<rscale>  2 0.24580770E+03</rscale>
<asrwt>0</asrwt>
<pdfrwt beam="2">  1       21 0.41898301E-01 0.24580770E+03</pdfrwt>
<pdfrwt beam="1">  1        1 0.16699024E+00 0.24580770E+03</pdfrwt>
<totfact> 0.82920046E+02</totfact>
</mgrwt>
</event>
<event>
 4    1  0.5006371E+003  0.1039035E+03  0.7546771E-02  0.1272295E+00
          4   -1    0    0  503    0 -0.00000000000E+00  0.00000000000E+00  0.23204226158E+03  0.23204226158E+03  0.00000000000E+00 0. -1.
         21   -1    0    0  501  502  0.00000000000E+00 -0.00000000000E+00 -0.14547934018E+03  0.14547934018E+03  0.00000000000E+00 0.  1.
         21    1    1    2  503  502 -0.46537727518E+01  0.10379918890E+03 -0.11239646352E+03  0.15306500001E+03  0.00000000000E+00 0.  1.
          4    1    1    2  501    0  0.46537727518E+01 -0.10379918890E+03  0.19895938492E+03  0.22445660174E+03  0.00000000000E+00 0. -1.
<mgrwt>
<rscale>  2 0.10390346E+03</rscale>
<asrwt>0</asrwt>
<pdfrwt beam="2">  1       21 0.22381437E-01 0.10390346E+03</pdfrwt>
<pdfrwt beam="1">  1        4 0.35698809E-01 0.10390346E+03</pdfrwt>
<totfact> 0.57345032E+03</totfact>
</mgrwt>
</event>
<event>
 4    1  0.5006371E+003  0.1413393E+03  0.7546771E-02  0.1211538E+00
          3   -1    0    0  503    0 -0.00000000000E+00  0.00000000000E+00  0.50025732980E+02  0.50025732980E+02  0.00000000000E+00 0. -1.
         21   -1    0    0  501  502  0.00000000000E+00 -0.00000000000E+00 -0.52466635681E+03  0.52466635681E+03  0.00000000000E+00 0. -1.
         21    1    1    2  503  502 -0.97633014618E+02 -0.10219884141E+03 -0.37776360804E+03  0.40333875625E+03  0.00000000000E+00 0. -1.
          3    1    1    2  501    0  0.97633014618E+02  0.10219884141E+03 -0.96877015788E+02  0.17135333354E+03  0.00000000000E+00 0. -1.
<mgrwt>
<rscale>  2 0.14133934E+03</rscale>
<asrwt>0</asrwt>
<pdfrwt beam="2">  1       21 0.80717903E-01 0.14133934E+03</pdfrwt>
<pdfrwt beam="1">  1        3 0.76962664E-02 0.14133934E+03</pdfrwt>
<totfact> 0.74808939E+03</totfact>
</mgrwt>
</event>
<event>
 4    1  0.5006371E+003  0.1835595E+03  0.7546771E-02  0.1164402E+00
          2   -1    0    0  502    0 -0.00000000000E+00  0.00000000000E+00  0.22187762379E+04  0.22187762379E+04  0.00000000000E+00 0.  1.
         21   -1    0    0  503  502  0.00000000000E+00 -0.00000000000E+00 -0.85364825136E+02  0.85364825136E+02  0.00000000000E+00 0. -1.
         21    1    1    2  503  501  0.11444093318E+03 -0.14351785610E+03  0.22122683379E+02  0.18488784526E+03  0.00000000000E+00 0. -1.
          2    1    1    2  501    0 -0.11444093318E+03  0.14351785610E+03  0.21112887294E+04  0.21192532178E+04  0.00000000000E+00 0.  1.
<mgrwt>
<rscale>  2 0.18355953E+03</rscale>
<asrwt>0</asrwt>
<pdfrwt beam="2">  1       21 0.13133052E-01 0.18355953E+03</pdfrwt>
<pdfrwt beam="1">  1        2 0.34135015E+00 0.18355953E+03</pdfrwt>
<totfact> 0.37158757E+03</totfact>
</mgrwt>
</event>
<event>
 4    1  0.5006371E+003  0.1032368E+03  0.7546771E-02  0.1273633E+00
         21   -1    0    0  501  502  0.00000000000E+00  0.00000000000E+00  0.41654833613E+03  0.41654833613E+03  0.00000000000E+00 0.  1.
          4   -1    0    0  503    0 -0.00000000000E+00 -0.00000000000E+00 -0.16149487965E+03  0.16149487965E+03  0.00000000000E+00 0.  1.
         21    1    1    2  503  502 -0.89335362274E+02 -0.51739929189E+02  0.39266643276E+03  0.40601078143E+03  0.00000000000E+00 0.  1.
          4    1    1    2  501    0  0.89335362274E+02  0.51739929189E+02 -0.13761297628E+03  0.17203243434E+03  0.00000000000E+00 0.  1.
<mgrwt>
<rscale>  2 0.10323675E+03</rscale>
<asrwt>0</asrwt>
<pdfrwt beam="1">  1       21 0.64084359E-01 0.10323675E+03</pdfrwt>
<pdfrwt beam="2">  1        4 0.24845366E-01 0.10323675E+03</pdfrwt>
<totfact> 0.14102361E+03</totfact>
</mgrwt>
</event>
<event>
 4    1  0.5006371E+003  0.1505681E+03  0.7546771E-02  0.1199777E+00
         -3   -1    0    0    0  501 -0.00000000000E+00  0.00000000000E+00  0.17914251014E+04  0.17914251014E+04  0.00000000000E+00 0.  1.
         21   -1    0    0  501  502  0.00000000000E+00 -0.00000000000E+00 -0.32934325333E+02  0.32934325333E+02  0.00000000000E+00 0. -1.
         21    1    1    2  503  502  0.14408938395E+03  0.43691983000E+02  0.16346260308E+03  0.22224032611E+03  0.00000000000E+00 0. -1.
         -3    1    1    2    0  503 -0.14408938395E+03 -0.43691983000E+02  0.15950281730E+04  0.16021191006E+04  0.00000000000E+00 0.  1.
<mgrwt>
<rscale>  2 0.15056806E+03</rscale>
<asrwt>0</asrwt>
<pdfrwt beam="2">  1       21 0.50668207E-02 0.15056806E+03</pdfrwt>
<pdfrwt beam="1">  1       -3 0.27560379E+00 0.15056806E+03</pdfrwt>
<totfact> 0.78755913E+02</totfact>
</mgrwt>
</event>
<event>
 4    1  0.5006371E+003  0.1005293E+03  0.7546771E-02  0.1279187E+00
         21   -1    0    0  503  502  0.00000000000E+00  0.00000000000E+00  0.13184984525E+03  0.13184984525E+03  0.00000000000E+00 0. -1.
          2   -1    0    0  502    0 -0.00000000000E+00 -0.00000000000E+00 -0.26296841577E+03  0.26296841577E+03  0.00000000000E+00 0. -1.
         21    1    1    2  503  501  0.33190140294E+02 -0.94892307504E+02  0.10060768598E+03  0.14222532093E+03  0.00000000000E+00 0. -1.
          2    1    1    2  501    0 -0.33190140294E+02  0.94892307504E+02 -0.23172625649E+03  0.25259294009E+03  0.00000000000E+00 0. -1.
<mgrwt>
<rscale>  2 0.10052928E+03</rscale>
<asrwt>0</asrwt>
<pdfrwt beam="1">  1       21 0.20284592E-01 0.10052928E+03</pdfrwt>
<pdfrwt beam="2">  1        2 0.40456679E-01 0.10052928E+03</pdfrwt>
<totfact> 0.35064334E+04</totfact>
</mgrwt>
</event>
<event>
 4    1  0.5006371E+003  0.1665449E+03  0.7546771E-02  0.1181500E+00
          4   -1    0    0  502    0 -0.00000000000E+00  0.00000000000E+00  0.77216044587E+03  0.77216044587E+03  0.00000000000E+00 0. -1.
         21   -1    0    0  503  502  0.00000000000E+00 -0.00000000000E+00 -0.20271981085E+03  0.20271981085E+03  0.00000000000E+00 0. -1.
         21    1    1    2  503  501 -0.13427381280E+03 -0.98527872380E+02 -0.15742898587E+03  0.22917478925E+03  0.00000000000E+00 0. -1.
          4    1    1    2  501    0  0.13427381280E+03  0.98527872380E+02  0.72686962089E+03  0.74570546746E+03  0.00000000000E+00 0. -1.
<mgrwt>
<rscale>  2 0.16654488E+03</rscale>
<asrwt>0</asrwt>
<pdfrwt beam="2">  1       21 0.31187664E-01 0.16654488E+03</pdfrwt>
<pdfrwt beam="1">  1        4 0.11879391E+00 0.16654488E+03</pdfrwt>
<totfact> 0.23664101E+02</totfact>
</mgrwt>
</event>
<event>
 4    1  0.5006371E+003  0.1036393E+03  0.7546771E-02  0.1272824E+00
         -3   -1    0    0    0  501 -0.00000000000E+00  0.00000000000E+00  0.36285288884E+03  0.36285288884E+03  0.00000000000E+00 0.  1.
         21   -1    0    0  501  502  0.00000000000E+00 -0.00000000000E+00 -0.30946937440E+03  0.30946937440E+03  0.00000000000E+00 0.  1.
         21    1    1    2  503  502 -0.84083010355E+02  0.60590094805E+02 -0.29298784151E+03  0.31077803573E+03  0.00000000000E+00 0.  1.
         -3    1    1    2    0  503  0.84083010355E+02 -0.60590094805E+02  0.34637135595E+03  0.36154422751E+03  0.00000000000E+00 0.  1.
<mgrwt>
<rscale>  2 0.10363934E+03</rscale>
<asrwt>0</asrwt>
<pdfrwt beam="2">  1       21 0.47610673E-01 0.10363934E+03</pdfrwt>
<pdfrwt beam="1">  1       -3 0.55823521E-01 0.10363934E+03</pdfrwt>
<totfact> 0.67109184E+02</totfact>
</mgrwt>
</event>
<event>
 4    1  0.5006371E+003  0.1850510E+03  0.7546771E-02  0.1163002E+00
         21   -1    0    0  503  502  0.00000000000E+00  0.00000000000E+00  0.85628667959E+02  0.85628667959E+02  0.00000000000E+00 0. -1.
          4   -1    0    0  502    0 -0.00000000000E+00 -0.00000000000E+00 -0.45172018264E+03  0.45172018264E+03  0.00000000000E+00 0. -1.
         21    1    1    2  503  501 -0.17814116381E+03  0.50095947113E+02 -0.27403569945E+03  0.33066515198E+03  0.00000000000E+00 0. -1.
          4    1    1    2  501    0  0.17814116381E+03 -0.50095947113E+02 -0.92055815234E+02  0.20668369863E+03  0.00000000000E+00 0. -1.
<mgrwt>
<rscale>  2 0.18505102E+03</rscale>
<asrwt>0</asrwt>
<pdfrwt beam="1">  1       21 0.13173641E-01 0.18505102E+03</pdfrwt>
<pdfrwt beam="2">  1        4 0.69495413E-01 0.18505102E+03</pdfrwt>
<totfact> 0.40335315E+03</totfact>
</mgrwt>
</event>
<event>
 4    1  0.5006371E+003  0.1031055E+03  0.7546771E-02  0.1273898E+00
         21   -1    0    0  501  502  0.00000000000E+00  0.00000000000E+00  0.16616907047E+03  0.16616907047E+03  0.00000000000E+00 0. -1.
          4   -1    0    0  503    0 -0.00000000000E+00 -0.00000000000E+00 -0.65377712355E+02  0.65377712355E+02  0.00000000000E+00 0. -1.
         21    1    1    2  503  502 -0.43477856859E+02  0.93490250120E+02  0.67350740111E+02  0.12315385945E+03  0.00000000000E+00 0. -1.
          4    1    1    2  501    0  0.43477856859E+02 -0.93490250120E+02  0.33440618003E+02  0.10839292337E+03  0.00000000000E+00 0. -1.
<mgrwt>
<rscale>  2 0.10310553E+03</rscale>
<asrwt>0</asrwt>
<pdfrwt beam="1">  1       21 0.25564472E-01 0.10310553E+03</pdfrwt>
<pdfrwt beam="2">  1        4 0.10058110E-01 0.10310553E+03</pdfrwt>
<totfact> 0.42876089E+04</totfact>
</mgrwt>
</event>
<event>
 4    1  0.5006371E+003  0.1046842E+03  0.7546771E-02  0.1270743E+00
         21   -1    0    0  501  502  0.00000000000E+00  0.00000000000E+00  0.53280688950E+03  0.53280688950E+03  0.00000000000E+00 0. -1.
          2   -1    0    0  503    0 -0.00000000000E+00 -0.00000000000E+00 -0.39414366315E+02  0.39414366315E+02  0.00000000000E+00 0.  1.
         21    1    1    2  503  502 -0.10446700730E+03 -0.67394436205E+01  0.44453915377E+03  0.45669884492E+03  0.00000000000E+00 0. -1.
          2    1    1    2  501    0  0.10446700730E+03  0.67394436205E+01  0.48853369412E+02  0.11552241089E+03  0.00000000000E+00 0.  1.
<mgrwt>
<rscale>  2 0.10468417E+03</rscale>
<asrwt>0</asrwt>
<pdfrwt beam="1">  1       21 0.81970285E-01 0.10468417E+03</pdfrwt>
<pdfrwt beam="2">  1        2 0.60637491E-02 0.10468417E+03</pdfrwt>
<totfact> 0.19165054E+04</totfact>
</mgrwt>
</event>
<event>
 4    1  0.5006371E+003  0.2846033E+03  0.7546771E-02  0.1093201E+00
          1   -1    0    0  503    0 -0.00000000000E+00  0.00000000000E+00  0.10142026660E+04  0.10142026660E+04  0.00000000000E+00 0. -1.
         21   -1    0    0  501  502  0.00000000000E+00 -0.00000000000E+00 -0.13923677296E+03  0.13923677296E+03  0.00000000000E+00 0. -1.
         21    1    1    2  503  502 -0.10289880802E+03 -0.26535051761E+03  0.60884365237E+02  0.29104289687E+03  0.00000000000E+00 0. -1.
          1    1    1    2  501    0  0.10289880802E+03  0.26535051761E+03  0.81408152784E+03  0.86239654212E+03  0.00000000000E+00 0. -1.
<mgrwt>
<rscale>  2 0.28460334E+03</rscale>
<asrwt>0</asrwt>
<pdfrwt beam="2">  1       21 0.21421043E-01 0.28460334E+03</pdfrwt>
<pdfrwt beam="1">  1        1 0.15603117E+00 0.28460334E+03</pdfrwt>
<totfact> 0.34452887E+03</totfact>
</mgrwt>
</event>
<event>
 4    1  0.5006371E+003  0.1139772E+03  0.7546771E-02  0.1253377E+00
         21   -1    0    0  503  502  0.00000000000E+00  0.00000000000E+00  0.57140197807E+02  0.57140197807E+02  0.00000000000E+00 0. -1.
          2   -1    0    0  502    0 -0.00000000000E+00 -0.00000000000E+00 -0.94392358651E+03  0.94392358651E+03  0.00000000000E+00 0.  1.
         21    1    1    2  503  501  0.98486847594E+02 -0.57368509098E+02 -0.72839149130E+01  0.11420972113E+03  0.00000000000E+00 0. -1.
          2    1    1    2  501    0 -0.98486847594E+02  0.57368509098E+02 -0.87949947379E+03  0.88685406318E+03  0.00000000000E+00 0.  1.
<mgrwt>
<rscale>  2 0.11397721E+03</rscale>
<asrwt>0</asrwt>
<pdfrwt beam="1">  1       21 0.87907998E-02 0.11397721E+03</pdfrwt>
<pdfrwt beam="2">  1        2 0.14521901E+00 0.11397721E+03</pdfrwt>
<totfact> 0.37119829E+04</totfact>
</mgrwt>
</event>
<event>
 4    1  0.5006371E+003  0.1678085E+03  0.7546771E-02  0.1180153E+00
         -4   -1    0    0    0  501 -0.00000000000E+00  0.00000000000E+00  0.18210248171E+03  0.18210248171E+03  0.00000000000E+00 0. -1.
         21   -1    0    0  503  502  0.00000000000E+00 -0.00000000000E+00 -0.24002860309E+03  0.24002860309E+03  0.00000000000E+00 0.  1.
         21    1    1    2  503  501 -0.15225371999E+03  0.70558583565E+02 -0.15485398875E+03  0.22834068143E+03  0.00000000000E+00 0.  1.
         -4    1    1    2    0  502  0.15225371999E+03 -0.70558583565E+02  0.96927867375E+02  0.19379040337E+03  0.00000000000E+00 0. -1.
<mgrwt>
<rscale>  2 0.16780855E+03</rscale>
<asrwt>0</asrwt>
<pdfrwt beam="2">  1       21 0.36927477E-01 0.16780855E+03</pdfrwt>
<pdfrwt beam="1">  1       -4 0.28015767E-01 0.16780855E+03</pdfrwt>
<totfact> 0.35811747E+03</totfact>
</mgrwt>
</event>
<event>
 4    1  0.5006371E+003  0.1417410E+03  0.7546771E-02  0.1211005E+00
         -1   -1    0    0    0  501 -0.00000000000E+00  0.00000000000E+00  0.93900510303E+03  0.93900510303E+03  0.00000000000E+00 0. -1.
         21   -1    0    0  501  502  0.00000000000E+00 -0.00000000000E+00 -0.10363347039E+03  0.10363347039E+03  0.00000000000E+00 0. -1.
         21    1    1    2  503  502  0.14161091296E+03 -0.60707641300E+01 -0.46711716443E+02  0.14923970417E+03  0.00000000000E+00 0. -1.
         -1    1    1    2    0  503 -0.14161091296E+03  0.60707641300E+01  0.88208334909E+03  0.89339886925E+03  0.00000000000E+00 0. -1.
<mgrwt>
<rscale>  2 0.14174098E+03</rscale>
<asrwt>0</asrwt>
<pdfrwt beam="2">  1       21 0.15943611E-01 0.14174098E+03</pdfrwt>
<pdfrwt beam="1">  1       -1 0.14446232E+00 0.14174098E+03</pdfrwt>
<totfact> 0.14109825E+03</totfact>
</mgrwt>
</event>
<event>
 4    1  0.5006371E+003  0.1026779E+03  0.7546771E-02  0.1274763E+00
          2   -1    0    0  503    0 -0.00000000000E+00  0.00000000000E+00  0.30162181541E+04  0.30162181541E+04  0.00000000000E+00 0.  1.
         21   -1    0    0  501  502  0.00000000000E+00 -0.00000000000E+00 -0.35111448387E+01  0.35111448387E+01  0.00000000000E+00 0.  1.
         21    1    1    2  503  502 -0.85429793768E+02  0.56960480125E+02  0.14050940629E+04  0.14088406836E+04  0.00000000000E+00 0.  1.
          2    1    1    2  501    0  0.85429793768E+02 -0.56960480125E+02  0.16076129463E+04  0.16108886153E+04  0.00000000000E+00 0.  1.
<mgrwt>
<rscale>  2 0.10267787E+03</rscale>
<asrwt>0</asrwt>
<pdfrwt beam="2">  1       21 0.54017854E-03 0.10267787E+03</pdfrwt>
<pdfrwt beam="1">  1        2 0.46403149E+00 0.10267787E+03</pdfrwt>
<totfact> 0.26933561E+05</totfact>
</mgrwt>
</event>
<event>
 4    1  0.5006371E+003  0.1101106E+03  0.7546771E-02  0.1260365E+00
          2   -1    0    0  503    0 -0.00000000000E+00  0.00000000000E+00  0.12967414195E+03  0.12967414195E+03  0.00000000000E+00 0. -1.
         21   -1    0    0  501  502  0.00000000000E+00 -0.00000000000E+00 -0.13999841427E+03  0.13999841427E+03  0.00000000000E+00 0. -1.
         21    1    1    2  503  502  0.78351589775E+02  0.77365144061E+02 -0.82871131908E+02  0.13781132624E+03  0.00000000000E+00 0. -1.
          2    1    1    2  501    0 -0.78351589775E+02 -0.77365144061E+02  0.72546859589E+02  0.13186122998E+03  0.00000000000E+00 0. -1.
<mgrwt>
<rscale>  2 0.11011057E+03</rscale>
<asrwt>0</asrwt>
<pdfrwt beam="2">  1       21 0.21538218E-01 0.11011057E+03</pdfrwt>
<pdfrwt beam="1">  1        2 0.19949868E-01 0.11011057E+03</pdfrwt>
<totfact> 0.67621198E+04</totfact>
</mgrwt>
</event>
<event>
 4    1  0.5006371E+003  0.1006633E+03  0.7546771E-02  0.1278907E+00
         -3   -1    0    0    0  501 -0.00000000000E+00  0.00000000000E+00  0.35815095632E+03  0.35815095632E+03  0.00000000000E+00 0.  1.
         21   -1    0    0  503  502  0.00000000000E+00 -0.00000000000E+00 -0.69899775023E+03  0.69899775023E+03  0.00000000000E+00 0. -1.
         21    1    1    2  503  501  0.15832915928E+02 -0.99410333215E+02 -0.68818990204E+03  0.69551307454E+03  0.00000000000E+00 0. -1.
         -3    1    1    2    0  502 -0.15832915928E+02  0.99410333215E+02  0.34734310813E+03  0.36163563201E+03  0.00000000000E+00 0.  1.
<mgrwt>
<rscale>  2 0.10066328E+03</rscale>
<asrwt>0</asrwt>
<pdfrwt beam="2">  1       21 0.10753812E+00 0.10066328E+03</pdfrwt>
<pdfrwt beam="1">  1       -3 0.55100147E-01 0.10066328E+03</pdfrwt>
<totfact> 0.11660354E+02</totfact>
</mgrwt>
</event>
<event>
 4    1  0.5006371E+003  0.1182578E+03  0.7546771E-02  0.1245999E+00
         21   -1    0    0  503  502  0.00000000000E+00  0.00000000000E+00  0.21374839344E+02  0.21374839344E+02  0.00000000000E+00 0.  1.
         -3   -1    0    0    0  501 -0.00000000000E+00 -0.00000000000E+00 -0.11653552121E+04  0.11653552121E+04  0.00000000000E+00 0.  1.
         21    1    1    2  503  501  0.10771465487E+03  0.48810439540E+02 -0.17903805894E+03  0.21456824656E+03  0.00000000000E+00 0.  1.
         -3    1    1    2    0  502 -0.10771465487E+03 -0.48810439540E+02 -0.96494231379E+03  0.97216180486E+03  0.00000000000E+00 0.  1.
<mgrwt>
<rscale>  2 0.11825779E+03</rscale>
<asrwt>0</asrwt>
<pdfrwt beam="1">  1       21 0.32884357E-02 0.11825779E+03</pdfrwt>
<pdfrwt beam="2">  1       -3 0.17928548E+00 0.11825779E+03</pdfrwt>
<totfact> 0.56925917E+03</totfact>
</mgrwt>
</event>
<event>
 4    1  0.5006371E+003  0.1258131E+03  0.7546771E-02  0.1233804E+00
          2   -1    0    0  503    0 -0.00000000000E+00  0.00000000000E+00  0.16966338445E+04  0.16966338445E+04  0.00000000000E+00 0.  1.
         21   -1    0    0  501  502  0.00000000000E+00 -0.00000000000E+00 -0.29230323385E+02  0.29230323385E+02  0.00000000000E+00 0. -1.
         21    1    1    2  503  502 -0.25586594888E+02 -0.12318386587E+03  0.12167865562E+03  0.17502752321E+03  0.00000000000E+00 0. -1.
          2    1    1    2  501    0  0.25586594888E+02  0.12318386587E+03  0.15457248655E+04  0.15508366447E+04  0.00000000000E+00 0.  1.
<mgrwt>
<rscale>  2 0.12581311E+03</rscale>
<asrwt>0</asrwt>
<pdfrwt beam="2">  1       21 0.44969742E-02 0.12581311E+03</pdfrwt>
<pdfrwt beam="1">  1        2 0.26102051E+00 0.12581311E+03</pdfrwt>
<totfact> 0.45176715E+04</totfact>
</mgrwt>
</event>
<event>
 4    1  0.5006371E+003  0.1491636E+03  0.7546771E-02  0.1201505E+00
         21   -1    0    0  503  502  0.00000000000E+00  0.00000000000E+00  0.88195171213E+03  0.88195171213E+03  0.00000000000E+00 0.  1.
         -2   -1    0    0    0  501 -0.00000000000E+00 -0.00000000000E+00 -0.25893471692E+02  0.25893471692E+02  0.00000000000E+00 0.  1.
         21    1    1    2  503  501  0.14832265027E+03  0.15816825832E+02  0.50080499267E+03  0.52254705171E+03  0.00000000000E+00 0.  1.
         -2    1    1    2    0  502 -0.14832265027E+03 -0.15816825832E+02  0.35525324776E+03  0.38529813211E+03  0.00000000000E+00 0.  1.
<mgrwt>
<rscale>  2 0.14916360E+03</rscale>
<asrwt>0</asrwt>
<pdfrwt beam="1">  1       21 0.13568486E+00 0.14916360E+03</pdfrwt>
<pdfrwt beam="2">  1       -2 0.39836117E-02 0.14916360E+03</pdfrwt>
<totfact> 0.83808164E+03</totfact>
</mgrwt>
</event>
<event>
 4    1  0.5006371E+003  0.1897404E+03  0.7546771E-02  0.1158696E+00
          1   -1    0    0  503    0 -0.00000000000E+00  0.00000000000E+00  0.17358853041E+04  0.17358853041E+04  0.00000000000E+00 0.  1.
         21   -1    0    0  501  502  0.00000000000E+00 -0.00000000000E+00 -0.71374847852E+02  0.71374847852E+02  0.00000000000E+00 0. -1.
         21    1    1    2  503  502  0.17817119990E+03 -0.65241367898E+02  0.71149604525E+02  0.20264174985E+03  0.00000000000E+00 0. -1.
          1    1    1    2  501    0 -0.17817119990E+03  0.65241367898E+02  0.15933608517E+04  0.16046184021E+04  0.00000000000E+00 0.  1.
<mgrwt>
<rscale>  2 0.18974038E+03</rscale>
<asrwt>0</asrwt>
<pdfrwt beam="2">  1       21 0.10980747E-01 0.18974038E+03</pdfrwt>
<pdfrwt beam="1">  1        1 0.26705925E+00 0.18974038E+03</pdfrwt>
<totfact> 0.39318885E+03</totfact>
</mgrwt>
</event>
<event>
 4    1  0.5006371E+003  0.1268227E+03  0.7546771E-02  0.1232248E+00
          2   -1    0    0  502    0 -0.00000000000E+00  0.00000000000E+00  0.77428390307E+03  0.77428390307E+03  0.00000000000E+00 0. -1.
         21   -1    0    0  503  502  0.00000000000E+00 -0.00000000000E+00 -0.47264106689E+02  0.47264106689E+02  0.00000000000E+00 0. -1.
         21    1    1    2  503  501  0.94499826056E+02 -0.84580058541E+02  0.55978578425E+02  0.13862757543E+03  0.00000000000E+00 0. -1.
          2    1    1    2  501    0 -0.94499826056E+02  0.84580058541E+02  0.67104121796E+03  0.68292043433E+03  0.00000000000E+00 0. -1.
<mgrwt>
<rscale>  2 0.12682272E+03</rscale>
<asrwt>0</asrwt>
<pdfrwt beam="2">  1       21 0.72714016E-02 0.12682272E+03</pdfrwt>
<pdfrwt beam="1">  1        2 0.11912059E+00 0.12682272E+03</pdfrwt>
<totfact> 0.66196744E+04</totfact>
</mgrwt>
</event>
<event>
 4    1  0.5006371E+003  0.1085888E+03  0.7546771E-02  0.1263206E+00
         -4   -1    0    0    0  501 -0.00000000000E+00  0.00000000000E+00  0.14557692101E+03  0.14557692101E+03  0.00000000000E+00 0. -1.
         21   -1    0    0  503  502  0.00000000000E+00 -0.00000000000E+00 -0.21093738718E+03  0.21093738718E+03  0.00000000000E+00 0. -1.
         21    1    1    2  503  501 -0.77850905242E+02 -0.75701782887E+02 -0.17258729331E+03  0.20390658938E+03  0.00000000000E+00 0. -1.
         -4    1    1    2    0  502  0.77850905242E+02  0.75701782887E+02  0.10722682715E+03  0.15260771881E+03  0.00000000000E+00 0. -1.
<mgrwt>
<rscale>  2 0.10858878E+03</rscale>
<asrwt>0</asrwt>
<pdfrwt beam="2">  1       21 0.32451906E-01 0.10858878E+03</pdfrwt>
<pdfrwt beam="1">  1       -4 0.22396450E-01 0.10858878E+03</pdfrwt>
<totfact> 0.67934300E+03</totfact>
</mgrwt>
</event>
<event>
 4    1  0.5006371E+003  0.1084185E+03  0.7546771E-02  0.1263527E+00
         21   -1    0    0  503  502  0.00000000000E+00  0.00000000000E+00  0.14158551311E+04  0.14158551311E+04  0.00000000000E+00 0.  1.
          3   -1    0    0  502    0 -0.00000000000E+00 -0.00000000000E+00 -0.13577206266E+02  0.13577206266E+02  0.00000000000E+00 0.  1.
         21    1    1    2  503  501 -0.27265225827E+02  0.10493414630E+03  0.11466352620E+04  0.11517495352E+04  0.00000000000E+00 0.  1.
          3    1    1    2  501    0  0.27265225827E+02 -0.10493414630E+03  0.25564266284E+03  0.27768280225E+03  0.00000000000E+00 0.  1.
<mgrwt>
<rscale>  2 0.10841848E+03</rscale>
<asrwt>0</asrwt>
<pdfrwt beam="1">  1       21 0.21782375E+00 0.10841848E+03</pdfrwt>
<pdfrwt beam="2">  1        3 0.20888021E-02 0.10841848E+03</pdfrwt>
<totfact> 0.46232687E+03</totfact>
</mgrwt>
</event>
<event>
 4    1  0.5006371E+003  0.1095155E+03  0.7546771E-02  0.1261470E+00
         -3   -1    0    0    0  501 -0.00000000000E+00  0.00000000000E+00  0.18454946877E+04  0.18454946877E+04  0.00000000000E+00 0.  1.
         21   -1    0    0  501  502  0.00000000000E+00 -0.00000000000E+00 -0.69879281556E+02  0.69879281556E+02  0.00000000000E+00 0.  1.
         21    1    1    2  503  502  0.43379245500E+02  0.10055788053E+03 -0.24259558141E+02  0.11217028322E+03  0.00000000000E+00 0.  1.
         -3    1    1    2    0  503 -0.43379245500E+02 -0.10055788053E+03  0.17998749643E+04  0.18032036861E+04  0.00000000000E+00 0.  1.
<mgrwt>
<rscale>  2 0.10951551E+03</rscale>
<asrwt>0</asrwt>
<pdfrwt beam="2">  1       21 0.10750660E-01 0.10951551E+03</pdfrwt>
<pdfrwt beam="1">  1       -3 0.28392222E+00 0.10951551E+03</pdfrwt>
<totfact> 0.19790584E+02</totfact>
</mgrwt>
</event>
<event>
 4    1  0.5006371E+003  0.1196416E+03  0.7546771E-02  0.1243689E+00
          1   -1    0    0  503    0 -0.00000000000E+00  0.00000000000E+00  0.14594439337E+04  0.14594439337E+04  0.00000000000E+00 0.  1.
         21   -1    0    0  501  502  0.00000000000E+00 -0.00000000000E+00 -0.11295002592E+02  0.11295002592E+02  0.00000000000E+00 0.  1.
         21    1    1    2  503  502  0.11812145146E+03  0.19011725773E+02  0.45724818365E+03  0.47264153908E+03  0.00000000000E+00 0.  1.
          1    1    1    2  501    0 -0.11812145146E+03 -0.19011725773E+02  0.99090074749E+03  0.99809739725E+03  0.00000000000E+00 0.  1.
<mgrwt>
<rscale>  2 0.11964164E+03</rscale>
<asrwt>0</asrwt>
<pdfrwt beam="2">  1       21 0.17376939E-02 0.11964164E+03</pdfrwt>
<pdfrwt beam="1">  1        1 0.22452969E+00 0.11964164E+03</pdfrwt>
<totfact> 0.13349722E+05</totfact>
</mgrwt>
</event>
<event>
 4    1  0.5006371E+003  0.1141556E+03  0.7546771E-02  0.1253062E+00
         21   -1    0    0  503  502  0.00000000000E+00  0.00000000000E+00  0.83391889605E+02  0.83391889605E+02  0.00000000000E+00 0. -1.
         -1   -1    0    0    0  501 -0.00000000000E+00 -0.00000000000E+00 -0.24094860745E+03  0.24094860745E+03  0.00000000000E+00 0.  1.
         21    1    1    2  503  501 -0.91591133794E+02 -0.68136296342E+02  0.17360894053E+02  0.11546813981E+03  0.00000000000E+00 0. -1.
         -1    1    1    2    0  502  0.91591133794E+02  0.68136296342E+02 -0.17491761190E+03  0.20887235724E+03  0.00000000000E+00 0.  1.
<mgrwt>
<rscale>  2 0.11415555E+03</rscale>
<asrwt>0</asrwt>
<pdfrwt beam="1">  1       21 0.12829522E-01 0.11415555E+03</pdfrwt>
<pdfrwt beam="2">  1       -1 0.37069016E-01 0.11415555E+03</pdfrwt>
<totfact> 0.33485730E+04</totfact>
</mgrwt>
</event>
<event>
 4    1  0.5006371E+003  0.1024764E+03  0.7546771E-02  0.1275173E+00
         21   -1    0    0  501  502  0.00000000000E+00  0.00000000000E+00  0.75151746884E+01  0.75151746884E+01  0.00000000000E+00 0.  1.
          1   -1    0    0  503    0 -0.00000000000E+00 -0.00000000000E+00 -0.25898837428E+04  0.25898837428E+04  0.00000000000E+00 0.  1.
         21    1    1    2  503  502  0.48540660085E+01  0.10236135306E+03 -0.40992857447E+03  0.42254330514E+03  0.00000000000E+00 0.  1.
          1    1    1    2  501    0 -0.48540660085E+01 -0.10236135306E+03 -0.21724399936E+04  0.21748556123E+04  0.00000000000E+00 0.  1.
<mgrwt>
<rscale>  2 0.10247638E+03</rscale>
<asrwt>0</asrwt>
<pdfrwt beam="1">  1       21 0.11561819E-02 0.10247638E+03</pdfrwt>
<pdfrwt beam="2">  1        1 0.39844323E+00 0.10247638E+03</pdfrwt>
<totfact> 0.48600993E+04</totfact>
</mgrwt>
</event>
<event>
 4    1  0.5006371E+003  0.1171211E+03  0.7546771E-02  0.1247923E+00
          2   -1    0    0  503    0 -0.00000000000E+00  0.00000000000E+00  0.10507225662E+04  0.10507225662E+04  0.00000000000E+00 0. -1.
         21   -1    0    0  501  502  0.00000000000E+00 -0.00000000000E+00 -0.24181309108E+02  0.24181309108E+02  0.00000000000E+00 0. -1.
         21    1    1    2  503  502  0.95642909498E+02  0.67600114601E+02  0.14870783401E+03  0.18929173656E+03  0.00000000000E+00 0. -1.
          2    1    1    2  501    0 -0.95642909498E+02 -0.67600114601E+02  0.87783342310E+03  0.88561213877E+03  0.00000000000E+00 0. -1.
<mgrwt>
<rscale>  2 0.11712106E+03</rscale>
<asrwt>0</asrwt>
<pdfrwt beam="2">  1       21 0.37202022E-02 0.11712106E+03</pdfrwt>
<pdfrwt beam="1">  1        2 0.16164959E+00 0.11712106E+03</pdfrwt>
<totfact> 0.13694936E+05</totfact>
</mgrwt>
</event>
<event>
 4    1  0.5006371E+003  0.1345428E+03  0.7546771E-02  0.1220867E+00
         21   -1    0    0  501  502  0.00000000000E+00  0.00000000000E+00  0.11438139375E+03  0.11438139375E+03  0.00000000000E+00 0. -1.
          3   -1    0    0  503    0 -0.00000000000E+00 -0.00000000000E+00 -0.91547309408E+03  0.91547309408E+03  0.00000000000E+00 0.  1.
         21    1    1    2  503  502  0.10694361205E+03  0.81638459397E+02  0.67763361010E+02  0.15064410810E+03  0.00000000000E+00 0. -1.
          3    1    1    2  501    0 -0.10694361205E+03 -0.81638459397E+02 -0.86885506134E+03  0.87921037973E+03  0.00000000000E+00 0.  1.
<mgrwt>
<rscale>  2 0.13454283E+03</rscale>
<asrwt>0</asrwt>
<pdfrwt beam="1">  1       21 0.17597138E-01 0.13454283E+03</pdfrwt>
<pdfrwt beam="2">  1        3 0.14084201E+00 0.13454283E+03</pdfrwt>
<totfact> 0.58584050E+02</totfact>
</mgrwt>
</event>
<event>
 4    1  0.5006371E+003  0.1177521E+03  0.7546771E-02  0.1246852E+00
          2   -1    0    0  503    0 -0.00000000000E+00  0.00000000000E+00  0.90109266443E+03  0.90109266443E+03  0.00000000000E+00 0. -1.
         21   -1    0    0  501  502  0.00000000000E+00 -0.00000000000E+00 -0.16546490142E+02  0.16546490142E+02  0.00000000000E+00 0.  1.
         21    1    1    2  503  502 -0.11407869650E+03 -0.29182524183E+02  0.32084259401E+03  0.34176825312E+03  0.00000000000E+00 0.  1.
          2    1    1    2  501    0  0.11407869650E+03  0.29182524183E+02  0.56370358028E+03  0.57587090144E+03  0.00000000000E+00 0. -1.
<mgrwt>
<rscale>  2 0.11775215E+03</rscale>
<asrwt>0</asrwt>
<pdfrwt beam="2">  1       21 0.25456146E-02 0.11775215E+03</pdfrwt>
<pdfrwt beam="1">  1        2 0.13862960E+00 0.11775215E+03</pdfrwt>
<totfact> 0.31372186E+05</totfact>
</mgrwt>
</event>
<event>
 4    1  0.5006371E+003  0.1107231E+03  0.7546771E-02  0.1259237E+00
         21   -1    0    0  503  502  0.00000000000E+00  0.00000000000E+00  0.32183358640E+02  0.32183358640E+02  0.00000000000E+00 0.  1.
          1   -1    0    0  502    0 -0.00000000000E+00 -0.00000000000E+00 -0.61456489651E+03  0.61456489651E+03  0.00000000000E+00 0. -1.
         21    1    1    2  503  501 -0.50140657007E+02  0.98719413885E+02 -0.91806811683E+02  0.14383358034E+03  0.00000000000E+00 0.  1.
          1    1    1    2  501    0  0.50140657007E+02 -0.98719413885E+02 -0.49057472619E+03  0.50291467481E+03  0.00000000000E+00 0. -1.
<mgrwt>
<rscale>  2 0.11072311E+03</rscale>
<asrwt>0</asrwt>
<pdfrwt beam="1">  1       21 0.49512866E-02 0.11072311E+03</pdfrwt>
<pdfrwt beam="2">  1        1 0.94548434E-01 0.11072311E+03</pdfrwt>
<totfact> 0.10214606E+05</totfact>
</mgrwt>
</event>
<event>
 4    1  0.5006371E+003  0.1338308E+03  0.7546771E-02  0.1221880E+00
         21   -1    0    0  503  502  0.00000000000E+00  0.00000000000E+00  0.30387699753E+02  0.30387699753E+02  0.00000000000E+00 0.  1.
         -2   -1    0    0    0  501 -0.00000000000E+00 -0.00000000000E+00 -0.62770979867E+03  0.62770979867E+03  0.00000000000E+00 0.  1.
         21    1    1    2  503  501 -0.10768290283E+03  0.79467366102E+02 -0.21737688376E+03  0.25527118801E+03  0.00000000000E+00 0.  1.
         -2    1    1    2    0  502  0.10768290283E+03 -0.79467366102E+02 -0.37994521516E+03  0.40282631041E+03  0.00000000000E+00 0.  1.
<mgrwt>
<rscale>  2 0.13383075E+03</rscale>
<asrwt>0</asrwt>
<pdfrwt beam="1">  1       21 0.46750308E-02 0.13383075E+03</pdfrwt>
<pdfrwt beam="2">  1       -2 0.96570737E-01 0.13383075E+03</pdfrwt>
<totfact> 0.22795474E+04</totfact>
</mgrwt>
</event>
<event>
 4    1  0.5006371E+003  0.1254871E+03  0.7546771E-02  0.1234310E+00
         21   -1    0    0  503  502  0.00000000000E+00  0.00000000000E+00  0.99422428538E+02  0.99422428538E+02  0.00000000000E+00 0.  1.
          2   -1    0    0  502    0 -0.00000000000E+00 -0.00000000000E+00 -0.73599130799E+03  0.73599130799E+03  0.00000000000E+00 0.  1.
         21    1    1    2  503  501 -0.12443975586E+03  0.16178718814E+02  0.51757802459E+02  0.13574193860E+03  0.00000000000E+00 0.  1.
          2    1    1    2  501    0  0.12443975586E+03 -0.16178718814E+02 -0.68832668192E+03  0.69967179793E+03  0.00000000000E+00 0.  1.
<mgrwt>
<rscale>  2 0.12548707E+03</rscale>
<asrwt>0</asrwt>
<pdfrwt beam="1">  1       21 0.15295758E-01 0.12548707E+03</pdfrwt>
<pdfrwt beam="2">  1        2 0.11322943E+00 0.12548707E+03</pdfrwt>
<totfact> 0.19076311E+04</totfact>
</mgrwt>
</event>
<event>
 4    1  0.5006371E+003  0.1247820E+03  0.7546771E-02  0.1235410E+00
          1   -1    0    0  503    0 -0.00000000000E+00  0.00000000000E+00  0.29143004426E+04  0.29143004426E+04  0.00000000000E+00 0.  1.
         21   -1    0    0  501  502  0.00000000000E+00 -0.00000000000E+00 -0.97599872129E+02  0.97599872129E+02  0.00000000000E+00 0. -1.
         21    1    1    2  503  502 -0.61777802049E+02  0.10841615280E+03 -0.55800415802E+02  0.13669032672E+03  0.00000000000E+00 0. -1.
          1    1    1    2  501    0  0.61777802049E+02 -0.10841615280E+03  0.28725009862E+04  0.28752099880E+04  0.00000000000E+00 0.  1.
<mgrwt>
<rscale>  2 0.12478205E+03</rscale>
<asrwt>0</asrwt>
<pdfrwt beam="2">  1       21 0.15015367E-01 0.12478205E+03</pdfrwt>
<pdfrwt beam="1">  1        1 0.44835385E+00 0.12478205E+03</pdfrwt>
<totfact> 0.40337060E+02</totfact>
</mgrwt>
</event>
<event>
 4    1  0.5006371E+003  0.1363519E+03  0.7546771E-02  0.1218324E+00
         21   -1    0    0  501  502  0.00000000000E+00  0.00000000000E+00  0.59737790735E+03  0.59737790735E+03  0.00000000000E+00 0. -1.
         -2   -1    0    0    0  501 -0.00000000000E+00 -0.00000000000E+00 -0.24512009961E+03  0.24512009961E+03  0.00000000000E+00 0. -1.
         21    1    1    2  503  502  0.57722808780E+02 -0.12353102842E+03  0.56972788981E+03  0.58581712681E+03  0.00000000000E+00 0. -1.
         -2    1    1    2    0  503 -0.57722808780E+02  0.12353102842E+03 -0.21747008207E+03  0.25668088014E+03  0.00000000000E+00 0. -1.
<mgrwt>
<rscale>  2 0.13635189E+03</rscale>
<asrwt>0</asrwt>
<pdfrwt beam="1">  1       21 0.91904294E-01 0.13635189E+03</pdfrwt>
<pdfrwt beam="2">  1       -2 0.37710785E-01 0.13635189E+03</pdfrwt>
<totfact> 0.55430570E+02</totfact>
</mgrwt>
</event>
<event>
 4    1  0.5006371E+003  0.1000506E+03  0.7546771E-02  0.1280189E+00
          2   -1    0    0  502    0 -0.00000000000E+00  0.00000000000E+00  0.14941037964E+04  0.14941037964E+04  0.00000000000E+00 0. -1.
         21   -1    0    0  503  502  0.00000000000E+00 -0.00000000000E+00 -0.13924438372E+02  0.13924438372E+02  0.00000000000E+00 0. -1.
         21    1    1    2  503  501 -0.40435843911E+02  0.91515424612E+02  0.19696439364E+03  0.22091876963E+03  0.00000000000E+00 0. -1.
          2    1    1    2  501    0  0.40435843911E+02 -0.91515424612E+02  0.12832149644E+04  0.12871094651E+04  0.00000000000E+00 0. -1.
<mgrwt>
<rscale>  2 0.10005064E+03</rscale>
<asrwt>0</asrwt>
<pdfrwt beam="2">  1       21 0.21422225E-02 0.10005064E+03</pdfrwt>
<pdfrwt beam="1">  1        2 0.22986200E+00 0.10005064E+03</pdfrwt>
<totfact> 0.19330701E+05</totfact>
</mgrwt>
</event>
<event>
 4    1  0.5006371E+003  0.1558297E+03  0.7546771E-02  0.1193487E+00
          1   -1    0    0  503    0 -0.00000000000E+00  0.00000000000E+00  0.43609700021E+03  0.43609700021E+03  0.00000000000E+00 0.  1.
         21   -1    0    0  501  502  0.00000000000E+00 -0.00000000000E+00 -0.74805795803E+03  0.74805795803E+03  0.00000000000E+00 0. -1.
         21    1    1    2  503  502 -0.21054896052E+02 -0.15440070778E+03 -0.72559599598E+03  0.74214044263E+03  0.00000000000E+00 0. -1.
          1    1    1    2  501    0  0.21054896052E+02  0.15440070778E+03  0.41363503816E+03  0.44201451561E+03  0.00000000000E+00 0.  1.
<mgrwt>
<rscale>  2 0.15582967E+03</rscale>
<asrwt>0</asrwt>
<pdfrwt beam="2">  1       21 0.11508584E+00 0.15582967E+03</pdfrwt>
<pdfrwt beam="1">  1        1 0.67091846E-01 0.15582967E+03</pdfrwt>
<totfact> 0.35878177E+02</totfact>
</mgrwt>
</event>
<event>
 4    1  0.5006371E+003  0.1203739E+03  0.7546771E-02  0.1242481E+00
          2   -1    0    0  502    0 -0.00000000000E+00  0.00000000000E+00  0.72426114297E+03  0.72426114297E+03  0.00000000000E+00 0. -1.
         21   -1    0    0  503  502  0.00000000000E+00 -0.00000000000E+00 -0.20731026870E+02  0.20731026870E+02  0.00000000000E+00 0. -1.
         21    1    1    2  503  501 -0.31999210623E+02 -0.11604280837E+03  0.28212513336E+03  0.30673192486E+03  0.00000000000E+00 0. -1.
          2    1    1    2  501    0  0.31999210623E+02  0.11604280837E+03  0.42140498274E+03  0.43826024498E+03  0.00000000000E+00 0. -1.
<mgrwt>
<rscale>  2 0.12037393E+03</rscale>
<asrwt>0</asrwt>
<pdfrwt beam="2">  1       21 0.31893893E-02 0.12037393E+03</pdfrwt>
<pdfrwt beam="1">  1        2 0.11142477E+00 0.12037393E+03</pdfrwt>
<totfact> 0.28509009E+05</totfact>
</mgrwt>
</event>
<event>
 4    1  0.5006371E+003  0.1092782E+03  0.7546771E-02  0.1261912E+00
         21   -1    0    0  501  502  0.00000000000E+00  0.00000000000E+00  0.19163172865E+02  0.19163172865E+02  0.00000000000E+00 0. -1.
          2   -1    0    0  503    0 -0.00000000000E+00 -0.00000000000E+00 -0.19582063134E+04  0.19582063134E+04  0.00000000000E+00 0.  1.
         21    1    1    2  503  502  0.10481977662E+02 -0.10877430277E+03 -0.15317082774E+03  0.18815691130E+03  0.00000000000E+00 0. -1.
          2    1    1    2  501    0 -0.10481977662E+02  0.10877430277E+03 -0.17858723128E+04  0.17892125750E+04  0.00000000000E+00 0.  1.
<mgrwt>
<rscale>  2 0.10927818E+03</rscale>
<asrwt>0</asrwt>
<pdfrwt beam="1">  1       21 0.29481816E-02 0.10927818E+03</pdfrwt>
<pdfrwt beam="2">  1        2 0.30126239E+00 0.10927818E+03</pdfrwt>
<totfact> 0.67023512E+04</totfact>
</mgrwt>
</event>
<event>
 4    1  0.5006371E+003  0.1326947E+03  0.7546771E-02  0.1223511E+00
         21   -1    0    0  501  502  0.00000000000E+00  0.00000000000E+00  0.63365578214E+03  0.63365578214E+03  0.00000000000E+00 0. -1.
         -3   -1    0    0    0  501 -0.00000000000E+00 -0.00000000000E+00 -0.31437047941E+02  0.31437047941E+02  0.00000000000E+00 0. -1.
         21    1    1    2  503  502 -0.78671779073E+02 -0.10685804491E+03  0.41441042767E+03  0.43513663732E+03  0.00000000000E+00 0. -1.
         -3    1    1    2    0  503  0.78671779073E+02  0.10685804491E+03  0.18780830653E+03  0.22995619275E+03  0.00000000000E+00 0. -1.
<mgrwt>
<rscale>  2 0.13269473E+03</rscale>
<asrwt>0</asrwt>
<pdfrwt beam="1">  1       21 0.97485496E-01 0.13269473E+03</pdfrwt>
<pdfrwt beam="2">  1       -3 0.48364694E-02 0.13269473E+03</pdfrwt>
<totfact> 0.10198952E+04</totfact>
</mgrwt>
</event>
<event>
 4    1  0.5006371E+003  0.1649670E+03  0.7546771E-02  0.1183201E+00
         -1   -1    0    0    0  501 -0.00000000000E+00  0.00000000000E+00  0.43149155696E+02  0.43149155696E+02  0.00000000000E+00 0. -1.
         21   -1    0    0  503  502  0.00000000000E+00 -0.00000000000E+00 -0.85472361956E+03  0.85472361956E+03  0.00000000000E+00 0. -1.
         21    1    1    2  503  501  0.11917934171E+03  0.11406304949E+03 -0.63562458234E+03  0.65668310807E+03  0.00000000000E+00 0. -1.
         -1    1    1    2    0  502 -0.11917934171E+03 -0.11406304949E+03 -0.17594988152E+03  0.24118966719E+03  0.00000000000E+00 0. -1.
<mgrwt>
<rscale>  2 0.16496695E+03</rscale>
<asrwt>0</asrwt>
<pdfrwt beam="2">  1       21 0.13149594E+00 0.16496695E+03</pdfrwt>
<pdfrwt beam="1">  1       -1 0.66383319E-02 0.16496695E+03</pdfrwt>
<totfact> 0.43055428E+03</totfact>
</mgrwt>
</event>
<event>
 4    1  0.5006371E+003  0.1198184E+03  0.7546771E-02  0.1243397E+00
          2   -1    0    0  503    0 -0.00000000000E+00  0.00000000000E+00  0.62770635656E+03  0.62770635656E+03  0.00000000000E+00 0. -1.
         21   -1    0    0  501  502  0.00000000000E+00 -0.00000000000E+00 -0.34160433710E+02  0.34160433710E+02  0.00000000000E+00 0. -1.
         21    1    1    2  503  502 -0.94482396764E+02  0.73685292468E+02  0.10652953124E+03  0.16032774760E+03  0.00000000000E+00 0. -1.
          2    1    1    2  501    0  0.94482396764E+02 -0.73685292468E+02  0.48701639161E+03  0.50153904267E+03  0.00000000000E+00 0. -1.
<mgrwt>
<rscale>  2 0.11981839E+03</rscale>
<asrwt>0</asrwt>
<pdfrwt beam="2">  1       21 0.52554518E-02 0.11981839E+03</pdfrwt>
<pdfrwt beam="1">  1        2 0.96570200E-01 0.11981839E+03</pdfrwt>
<totfact> 0.14700547E+05</totfact>
</mgrwt>
</event>
<event>
 4    1  0.5006371E+003  0.1185946E+03  0.7546771E-02  0.1245434E+00
          1   -1    0    0  502    0 -0.00000000000E+00  0.00000000000E+00  0.29855832071E+03  0.29855832071E+03  0.00000000000E+00 0.  1.
         21   -1    0    0  503  502  0.00000000000E+00 -0.00000000000E+00 -0.82529667648E+02  0.82529667648E+02  0.00000000000E+00 0.  1.
         21    1    1    2  503  501 -0.11620418582E+03  0.23691259504E+02 -0.16816126307E+02  0.11978092788E+03  0.00000000000E+00 0.  1.
          1    1    1    2  501    0  0.11620418582E+03 -0.23691259504E+02  0.23284477937E+03  0.26130706049E+03  0.00000000000E+00 0.  1.
<mgrwt>
<rscale>  2 0.11859464E+03</rscale>
<asrwt>0</asrwt>
<pdfrwt beam="2">  1       21 0.12696872E-01 0.11859464E+03</pdfrwt>
<pdfrwt beam="1">  1        1 0.45932049E-01 0.11859464E+03</pdfrwt>
<totfact> 0.50833570E+04</totfact>
</mgrwt>
</event>
<event>
 4    1  0.5006371E+003  0.1105317E+03  0.7546771E-02  0.1259589E+00
         -3   -1    0    0    0  501 -0.00000000000E+00  0.00000000000E+00  0.18645771891E+03  0.18645771891E+03  0.00000000000E+00 0.  1.
         21   -1    0    0  501  502  0.00000000000E+00 -0.00000000000E+00 -0.11891752899E+03  0.11891752899E+03  0.00000000000E+00 0.  1.
         21    1    1    2  503  502 -0.11024555769E+03  0.79475554094E+01 -0.68542657673E+02  0.13005899641E+03  0.00000000000E+00 0.  1.
         -3    1    1    2    0  503  0.11024555769E+03 -0.79475554094E+01  0.13608284759E+03  0.17531625149E+03  0.00000000000E+00 0.  1.
<mgrwt>
<rscale>  2 0.11053165E+03</rscale>
<asrwt>0</asrwt>
<pdfrwt beam="2">  1       21 0.18295004E-01 0.11053165E+03</pdfrwt>
<pdfrwt beam="1">  1       -3 0.28685803E-01 0.11053165E+03</pdfrwt>
<totfact> 0.15151870E+04</totfact>
</mgrwt>
</event>
<event>
 4    1  0.5006371E+003  0.1026560E+03  0.7546771E-02  0.1274808E+00
          2   -1    0    0  503    0 -0.00000000000E+00  0.00000000000E+00  0.13393563118E+04  0.13393563118E+04  0.00000000000E+00 0.  1.
         21   -1    0    0  501  502  0.00000000000E+00 -0.00000000000E+00 -0.86950432284E+01  0.86950432284E+01  0.00000000000E+00 0.  1.
         21    1    1    2  503  502  0.10188081011E+03 -0.12591849147E+02  0.45747312251E+03  0.46884956218E+03  0.00000000000E+00 0.  1.
          2    1    1    2  501    0 -0.10188081011E+03  0.12591849147E+02  0.87318814610E+03  0.87920179289E+03  0.00000000000E+00 0.  1.
<mgrwt>
<rscale>  2 0.10265600E+03</rscale>
<asrwt>0</asrwt>
<pdfrwt beam="2">  1       21 0.13377000E-02 0.10265600E+03</pdfrwt>
<pdfrwt beam="1">  1        2 0.20605465E+00 0.10265600E+03</pdfrwt>
<totfact> 0.49345466E+05</totfact>
</mgrwt>
</event>
<event>
 4    1  0.5006371E+003  0.1019624E+03  0.7546771E-02  0.1276223E+00
         21   -1    0    0  501  502  0.00000000000E+00  0.00000000000E+00  0.77811894636E+02  0.77811894636E+02  0.00000000000E+00 0. -1.
          2   -1    0    0  503    0 -0.00000000000E+00 -0.00000000000E+00 -0.81459876444E+03  0.81459876444E+03  0.00000000000E+00 0. -1.
         21    1    1    2  503  502 -0.59505048581E+02 -0.82797851920E+02  0.39581341092E+02  0.10937558069E+03  0.00000000000E+00 0. -1.
          2    1    1    2  501    0  0.59505048581E+02  0.82797851920E+02 -0.77636821089E+03  0.78303507838E+03  0.00000000000E+00 0. -1.
<mgrwt>
<rscale>  2 0.10196242E+03</rscale>
<asrwt>0</asrwt>
<pdfrwt beam="1">  1       21 0.11971061E-01 0.10196242E+03</pdfrwt>
<pdfrwt beam="2">  1        2 0.12532289E+00 0.10196242E+03</pdfrwt>
<totfact> 0.26188146E+04</totfact>
</mgrwt>
</event>
<event>
 4    1  0.5006371E+003  0.1042895E+03  0.7546771E-02  0.1271526E+00
         -1   -1    0    0    0  501 -0.00000000000E+00  0.00000000000E+00  0.73296005877E+02  0.73296005877E+02  0.00000000000E+00 0. -1.
         21   -1    0    0  503  502  0.00000000000E+00 -0.00000000000E+00 -0.72448718092E+03  0.72448718092E+03  0.00000000000E+00 0. -1.
         21    1    1    2  503  501  0.10340530910E+03 -0.13551376546E+02 -0.68129889424E+03  0.68923470679E+03  0.00000000000E+00 0. -1.
         -1    1    1    2    0  502 -0.10340530910E+03  0.13551376546E+02  0.30107719194E+02  0.10854848001E+03  0.00000000000E+00 0. -1.
<mgrwt>
<rscale>  2 0.10428949E+03</rscale>
<asrwt>0</asrwt>
<pdfrwt beam="2">  1       21 0.11145957E+00 0.10428949E+03</pdfrwt>
<pdfrwt beam="1">  1       -1 0.11276308E-01 0.10428949E+03</pdfrwt>
<totfact> 0.29557537E+03</totfact>
</mgrwt>
</event>
<event>
 4    1  0.5006371E+003  0.1454110E+03  0.7546771E-02  0.1206228E+00
          1   -1    0    0  503    0 -0.00000000000E+00  0.00000000000E+00  0.28625548438E+03  0.28625548438E+03  0.00000000000E+00 0. -1.
         21   -1    0    0  501  502  0.00000000000E+00 -0.00000000000E+00 -0.82505530790E+02  0.82505530790E+02  0.00000000000E+00 0. -1.
         21    1    1    2  503  502 -0.56279063050E+02 -0.13407838721E+03  0.42207705178E+02  0.15141280405E+03  0.00000000000E+00 0. -1.
          1    1    1    2  501    0  0.56279063050E+02  0.13407838721E+03  0.16154224841E+03  0.21734821112E+03  0.00000000000E+00 0. -1.
<mgrwt>
<rscale>  2 0.14541096E+03</rscale>
<asrwt>0</asrwt>
<pdfrwt beam="2">  1       21 0.12693159E-01 0.14541096E+03</pdfrwt>
<pdfrwt beam="1">  1        1 0.44039305E-01 0.14541096E+03</pdfrwt>
<totfact> 0.53760646E+04</totfact>
</mgrwt>
</event>
<event>
 4    1  0.5006371E+003  0.1214597E+03  0.7546771E-02  0.1240708E+00
         21   -1    0    0  503  502  0.00000000000E+00  0.00000000000E+00  0.16265362850E+03  0.16265362850E+03  0.00000000000E+00 0.  1.
         -1   -1    0    0    0  501 -0.00000000000E+00 -0.00000000000E+00 -0.19080859919E+03  0.19080859919E+03  0.00000000000E+00 0. -1.
         21    1    1    2  503  501  0.10215078369E+03 -0.65709096083E+02  0.11393508512E+03  0.16653429538E+03  0.00000000000E+00 0.  1.
         -1    1    1    2    0  502 -0.10215078369E+03  0.65709096083E+02 -0.14209005581E+03  0.18692793231E+03  0.00000000000E+00 0. -1.
<mgrwt>
<rscale>  2 0.12145974E+03</rscale>
<asrwt>0</asrwt>
<pdfrwt beam="1">  1       21 0.25023635E-01 0.12145974E+03</pdfrwt>
<pdfrwt beam="2">  1       -1 0.29355169E-01 0.12145974E+03</pdfrwt>
<totfact> 0.14683389E+04</totfact>
</mgrwt>
</event>
<event>
 4    1  0.5006371E+003  0.1024265E+03  0.7546771E-02  0.1275275E+00
         21   -1    0    0  503  502  0.00000000000E+00  0.00000000000E+00  0.42328618667E+02  0.42328618667E+02  0.00000000000E+00 0.  1.
         -2   -1    0    0    0  501 -0.00000000000E+00 -0.00000000000E+00 -0.35846278987E+03  0.35846278987E+03  0.00000000000E+00 0. -1.
         21    1    1    2  503  501  0.18401688402E+02  0.10075989780E+03 -0.46748519753E+02  0.11259042251E+03  0.00000000000E+00 0.  1.
         -2    1    1    2    0  502 -0.18401688402E+02 -0.10075989780E+03 -0.26938565145E+03  0.28820098603E+03  0.00000000000E+00 0. -1.
<mgrwt>
<rscale>  2 0.10242646E+03</rscale>
<asrwt>0</asrwt>
<pdfrwt beam="1">  1       21 0.65120956E-02 0.10242646E+03</pdfrwt>
<pdfrwt beam="2">  1       -2 0.55148118E-01 0.10242646E+03</pdfrwt>
<totfact> 0.42770379E+04</totfact>
</mgrwt>
</event>
<event>
 4    1  0.5006371E+003  0.1109449E+03  0.7546771E-02  0.1258830E+00
         21   -1    0    0  503  502  0.00000000000E+00  0.00000000000E+00  0.12888105259E+02  0.12888105259E+02  0.00000000000E+00 0.  1.
          1   -1    0    0  502    0 -0.00000000000E+00 -0.00000000000E+00 -0.17341929344E+04  0.17341929344E+04  0.00000000000E+00 0.  1.
         21    1    1    2  503  501 -0.28114894327E+01  0.11090927031E+03 -0.27513040547E+03  0.29665722766E+03  0.00000000000E+00 0.  1.
          1    1    1    2  501    0  0.28114894327E+01 -0.11090927031E+03 -0.14461744237E+04  0.14504238120E+04  0.00000000000E+00 0.  1.
<mgrwt>
<rscale>  2 0.11094490E+03</rscale>
<asrwt>0</asrwt>
<pdfrwt beam="1">  1       21 0.19827853E-02 0.11094490E+03</pdfrwt>
<pdfrwt beam="2">  1        1 0.26679893E+00 0.11094490E+03</pdfrwt>
<totfact> 0.72091191E+04</totfact>
</mgrwt>
</event>
<event>
 4    1  0.5006371E+003  0.1078530E+03  0.7546771E-02  0.1264598E+00
         21   -1    0    0  501  502  0.00000000000E+00  0.00000000000E+00  0.57521156060E+02  0.57521156060E+02  0.00000000000E+00 0. -1.
          2   -1    0    0  503    0 -0.00000000000E+00 -0.00000000000E+00 -0.46340940233E+03  0.46340940233E+03  0.00000000000E+00 0. -1.
         21    1    1    2  503  502  0.69016403060E+02  0.82879418618E+02 -0.74019802505E+01  0.10810666600E+03  0.00000000000E+00 0. -1.
          2    1    1    2  501    0 -0.69016403060E+02 -0.82879418618E+02 -0.39848626602E+03  0.41282389239E+03  0.00000000000E+00 0. -1.
<mgrwt>
<rscale>  2 0.10785296E+03</rscale>
<asrwt>0</asrwt>
<pdfrwt beam="1">  1       21 0.88494087E-02 0.10785296E+03</pdfrwt>
<pdfrwt beam="2">  1        2 0.71293754E-01 0.10785296E+03</pdfrwt>
<totfact> 0.84420034E+04</totfact>
</mgrwt>
</event>
<event>
 4    1  0.5006371E+003  0.1020277E+03  0.7546771E-02  0.1276089E+00
         21   -1    0    0  503  502  0.00000000000E+00  0.00000000000E+00  0.12909961004E+04  0.12909961004E+04  0.00000000000E+00 0.  1.
         -2   -1    0    0    0  501 -0.00000000000E+00 -0.00000000000E+00 -0.85703376971E+02  0.85703376971E+02  0.00000000000E+00 0. -1.
         21    1    1    2  503  501 -0.46224895098E+02 -0.90955515886E+02  0.12578152321E+04  0.12619464351E+04  0.00000000000E+00 0.  1.
         -2    1    1    2    0  502  0.46224895098E+02  0.90955515886E+02 -0.52522508705E+02  0.11475304230E+03  0.00000000000E+00 0. -1.
<mgrwt>
<rscale>  2 0.10202768E+03</rscale>
<asrwt>0</asrwt>
<pdfrwt beam="1">  1       21 0.19861477E+00 0.10202768E+03</pdfrwt>
<pdfrwt beam="2">  1       -2 0.13185136E-01 0.10202768E+03</pdfrwt>
<totfact> 0.49496416E+02</totfact>
</mgrwt>
</event>
<event>
 4    1  0.5006371E+003  0.1002297E+03  0.7546771E-02  0.1279814E+00
         21   -1    0    0  503  502  0.00000000000E+00  0.00000000000E+00  0.85304964066E+02  0.85304964066E+02  0.00000000000E+00 0.  1.
          2   -1    0    0  502    0 -0.00000000000E+00 -0.00000000000E+00 -0.16145708055E+04  0.16145708055E+04  0.00000000000E+00 0.  1.
         21    1    1    2  503  501  0.11168915984E+02 -0.99605418696E+02  0.53721236504E+02  0.11371875557E+03  0.00000000000E+00 0.  1.
          2    1    1    2  501    0 -0.11168915984E+02  0.99605418696E+02 -0.15829870780E+04  0.15861570140E+04  0.00000000000E+00 0.  1.
<mgrwt>
<rscale>  2 0.10022966E+03</rscale>
<asrwt>0</asrwt>
<pdfrwt beam="1">  1       21 0.13123841E-01 0.10022966E+03</pdfrwt>
<pdfrwt beam="2">  1        2 0.24839551E+00 0.10022966E+03</pdfrwt>
<totfact> 0.79981615E+03</totfact>
</mgrwt>
</event>
<event>
 4    1  0.5006371E+003  0.1205812E+03  0.7546771E-02  0.1242141E+00
          2   -1    0    0  502    0 -0.00000000000E+00  0.00000000000E+00  0.34648349147E+04  0.34648349147E+04  0.00000000000E+00 0. -1.
         21   -1    0    0  503  502  0.00000000000E+00 -0.00000000000E+00 -0.85524554028E+01  0.85524554028E+01  0.00000000000E+00 0.  1.
         21    1    1    2  503  501  0.10625941834E+03 -0.56997892666E+02  0.48870367853E+03  0.50335982077E+03  0.00000000000E+00 0.  1.
          2    1    1    2  501    0 -0.10625941834E+03  0.56997892666E+02  0.29675787808E+04  0.29700275493E+04  0.00000000000E+00 0. -1.
<mgrwt>
<rscale>  2 0.12058119E+03</rscale>
<asrwt>0</asrwt>
<pdfrwt beam="2">  1       21 0.13157651E-02 0.12058119E+03</pdfrwt>
<pdfrwt beam="1">  1        2 0.53305041E+00 0.12058119E+03</pdfrwt>
<totfact> 0.35645342E+04</totfact>
</mgrwt>
</event>
<event>
 4    1  0.5006371E+003  0.1066837E+03  0.7546771E-02  0.1266837E+00
          3   -1    0    0  502    0 -0.00000000000E+00  0.00000000000E+00  0.19734529998E+03  0.19734529998E+03  0.00000000000E+00 0. -1.
         21   -1    0    0  503  502  0.00000000000E+00 -0.00000000000E+00 -0.83108506671E+02  0.83108506671E+02  0.00000000000E+00 0. -1.
         21    1    1    2  503  501 -0.99922776850E+02 -0.37374345541E+02 -0.20458571019E+02  0.10862760315E+03  0.00000000000E+00 0. -1.
          3    1    1    2  501    0  0.99922776850E+02  0.37374345541E+02  0.13469536433E+03  0.17182620350E+03  0.00000000000E+00 0. -1.
<mgrwt>
<rscale>  2 0.10668366E+03</rscale>
<asrwt>0</asrwt>
<pdfrwt beam="2">  1       21 0.12785924E-01 0.10668366E+03</pdfrwt>
<pdfrwt beam="1">  1        3 0.30360815E-01 0.10668366E+03</pdfrwt>
<totfact> 0.25920119E+04</totfact>
</mgrwt>
</event>
<event>
 4    1  0.5006371E+003  0.1014506E+03  0.7546771E-02  0.1277275E+00
          2   -1    0    0  503    0 -0.00000000000E+00  0.00000000000E+00  0.17476706335E+04  0.17476706335E+04  0.00000000000E+00 0. -1.
         21   -1    0    0  501  502  0.00000000000E+00 -0.00000000000E+00 -0.59743067578E+01  0.59743067578E+01  0.00000000000E+00 0.  1.
         21    1    1    2  503  502  0.28382443633E+02 -0.97399468385E+02  0.76613848651E+03  0.77282624183E+03  0.00000000000E+00 0.  1.
          2    1    1    2  501    0 -0.28382443633E+02  0.97399468385E+02  0.97555784021E+03  0.98081869841E+03  0.00000000000E+00 0. -1.
<mgrwt>
<rscale>  2 0.10145058E+03</rscale>
<asrwt>0</asrwt>
<pdfrwt beam="2">  1       21 0.91912551E-03 0.10145058E+03</pdfrwt>
<pdfrwt beam="1">  1        2 0.26887200E+00 0.10145058E+03</pdfrwt>
<totfact> 0.54941992E+05</totfact>
</mgrwt>
</event>
<event>
 4    1  0.5006371E+003  0.1035192E+03  0.7546771E-02  0.1273065E+00
         21   -1    0    0  503  502  0.00000000000E+00  0.00000000000E+00  0.26490032612E+03  0.26490032612E+03  0.00000000000E+00 0. -1.
          2   -1    0    0  502    0 -0.00000000000E+00 -0.00000000000E+00 -0.67090049464E+02  0.67090049464E+02  0.00000000000E+00 0. -1.
         21    1    1    2  503  501  0.88561133398E+02 -0.53601732782E+02  0.20349825966E+03  0.22831504941E+03  0.00000000000E+00 0. -1.
          2    1    1    2  501    0 -0.88561133398E+02  0.53601732782E+02 -0.56879829989E+01  0.10367532617E+03  0.00000000000E+00 0. -1.
<mgrwt>
<rscale>  2 0.10351918E+03</rscale>
<asrwt>0</asrwt>
<pdfrwt beam="1">  1       21 0.40753896E-01 0.10351918E+03</pdfrwt>
<pdfrwt beam="2">  1        2 0.10321546E-01 0.10351918E+03</pdfrwt>
<totfact> 0.42911396E+04</totfact>
</mgrwt>
</event>
<event>
 4    1  0.5006371E+003  0.1051015E+03  0.7546771E-02  0.1269920E+00
         21   -1    0    0  501  502  0.00000000000E+00  0.00000000000E+00  0.34670859769E+02  0.34670859769E+02  0.00000000000E+00 0.  1.
         -1   -1    0    0    0  501 -0.00000000000E+00 -0.00000000000E+00 -0.38435920051E+03  0.38435920051E+03  0.00000000000E+00 0.  1.
         21    1    1    2  503  502 -0.10311694265E+03  0.20327720933E+02 -0.88186449466E+02  0.13719755818E+03  0.00000000000E+00 0.  1.
         -1    1    1    2    0  503  0.10311694265E+03 -0.20327720933E+02 -0.26150189128E+03  0.28183250210E+03  0.00000000000E+00 0.  1.
<mgrwt>
<rscale>  2 0.10510148E+03</rscale>
<asrwt>0</asrwt>
<pdfrwt beam="1">  1       21 0.53339781E-02 0.10510148E+03</pdfrwt>
<pdfrwt beam="2">  1       -1 0.59132188E-01 0.10510148E+03</pdfrwt>
<totfact> 0.65436811E+04</totfact>
</mgrwt>
</event>
<event>
 4    1  0.5006371E+003  0.1328331E+03  0.7546771E-02  0.1223312E+00
          2   -1    0    0  503    0 -0.00000000000E+00  0.00000000000E+00  0.24854337955E+04  0.24854337955E+04  0.00000000000E+00 0. -1.
         21   -1    0    0  501  502  0.00000000000E+00 -0.00000000000E+00 -0.10802247331E+02  0.10802247331E+02  0.00000000000E+00 0.  1.
         21    1    1    2  503  502 -0.12778286048E+03  0.36278959498E+02  0.50655117225E+03  0.52367806183E+03  0.00000000000E+00 0.  1.
          2    1    1    2  501    0  0.12778286048E+03 -0.36278959498E+02  0.19680803759E+04  0.19725579810E+04  0.00000000000E+00 0. -1.
<mgrwt>
<rscale>  2 0.13283306E+03</rscale>
<asrwt>0</asrwt>
<pdfrwt beam="2">  1       21 0.16618862E-02 0.13283306E+03</pdfrwt>
<pdfrwt beam="1">  1        2 0.38237398E+00 0.13283306E+03</pdfrwt>
<totfact> 0.89966425E+04</totfact>
</mgrwt>
</event>
<event>
 4    1  0.5006371E+003  0.1363264E+03  0.7546771E-02  0.1218359E+00
          3   -1    0    0  503    0 -0.00000000000E+00  0.00000000000E+00  0.11964624789E+03  0.11964624789E+03  0.00000000000E+00 0.  1.
         21   -1    0    0  501  502  0.00000000000E+00 -0.00000000000E+00 -0.13519283902E+04  0.13519283902E+04  0.00000000000E+00 0. -1.
         21    1    1    2  503  502 -0.12475266247E+03  0.54969527550E+02 -0.13083693258E+04  0.13154524577E+04  0.00000000000E+00 0. -1.
          3    1    1    2  501    0  0.12475266247E+03 -0.54969527550E+02  0.76087183423E+02  0.15612218047E+03  0.00000000000E+00 0.  1.
<mgrwt>
<rscale>  2 0.13632636E+03</rscale>
<asrwt>0</asrwt>
<pdfrwt beam="2">  1       21 0.20798900E+00 0.13632636E+03</pdfrwt>
<pdfrwt beam="1">  1        3 0.18407114E-01 0.13632636E+03</pdfrwt>
<totfact> 0.15825907E+02</totfact>
</mgrwt>
</event>
<event>
 4    1  0.5006371E+003  0.1155054E+03  0.7546771E-02  0.1250701E+00
         21   -1    0    0  503  502  0.00000000000E+00  0.00000000000E+00  0.73184486741E+02  0.73184486741E+02  0.00000000000E+00 0.  1.
          2   -1    0    0  502    0 -0.00000000000E+00 -0.00000000000E+00 -0.21198397740E+04  0.21198397740E+04  0.00000000000E+00 0. -1.
         21    1    1    2  503  501 -0.11393816092E+03  0.18963097942E+02  0.24976443257E+02  0.11817498176E+03  0.00000000000E+00 0.  1.
          2    1    1    2  501    0  0.11393816092E+03 -0.18963097942E+02 -0.20716317305E+04  0.20748492790E+04  0.00000000000E+00 0. -1.
<mgrwt>
<rscale>  2 0.11550543E+03</rscale>
<asrwt>0</asrwt>
<pdfrwt beam="1">  1       21 0.11259153E-01 0.11550543E+03</pdfrwt>
<pdfrwt beam="2">  1        2 0.32612916E+00 0.11550543E+03</pdfrwt>
<totfact> 0.57502466E+03</totfact>
</mgrwt>
</event>
<event>
 4    1  0.5006371E+003  0.1592146E+03  0.7546771E-02  0.1189586E+00
          2   -1    0    0  502    0 -0.00000000000E+00  0.00000000000E+00  0.11639932370E+03  0.11639932370E+03  0.00000000000E+00 0.  1.
         21   -1    0    0  503  502  0.00000000000E+00 -0.00000000000E+00 -0.28787712804E+03  0.28787712804E+03  0.00000000000E+00 0.  1.
         21    1    1    2  503  501  0.66190022348E+02  0.14480390646E+03 -0.18548572899E+03  0.24444681639E+03  0.00000000000E+00 0.  1.
          2    1    1    2  501    0 -0.66190022348E+02 -0.14480390646E+03  0.14007924646E+02  0.15982963535E+03  0.00000000000E+00 0.  1.
<mgrwt>
<rscale>  2 0.15921460E+03</rscale>
<asrwt>0</asrwt>
<pdfrwt beam="2">  1       21 0.44288788E-01 0.15921460E+03</pdfrwt>
<pdfrwt beam="1">  1        2 0.17907589E-01 0.15921460E+03</pdfrwt>
<totfact> 0.18949534E+04</totfact>
</mgrwt>
</event>
<event>
 4    1  0.5006371E+003  0.2167100E+03  0.7546771E-02  0.1136360E+00
         21   -1    0    0  501  502  0.00000000000E+00  0.00000000000E+00  0.40753828331E+02  0.40753828331E+02  0.00000000000E+00 0.  1.
          2   -1    0    0  503    0 -0.00000000000E+00 -0.00000000000E+00 -0.11730800681E+04  0.11730800681E+04  0.00000000000E+00 0.  1.
         21    1    1    2  503  502  0.17276685692E+03  0.13082362501E+03 -0.48550862074E+03  0.53167831300E+03  0.00000000000E+00 0.  1.
          2    1    1    2  501    0 -0.17276685692E+03 -0.13082362501E+03 -0.64681761905E+03  0.68215558344E+03  0.00000000000E+00 0.  1.
<mgrwt>
<rscale>  2 0.21670996E+03</rscale>
<asrwt>0</asrwt>
<pdfrwt beam="1">  1       21 0.62698203E-02 0.21670996E+03</pdfrwt>
<pdfrwt beam="2">  1        2 0.18047384E+00 0.21670996E+03</pdfrwt>
<totfact> 0.48185495E+04</totfact>
</mgrwt>
</event>
<event>
 4    1  0.5006371E+003  0.1199303E+03  0.7546771E-02  0.1243212E+00
          1   -1    0    0  503    0 -0.00000000000E+00  0.00000000000E+00  0.35791030553E+03  0.35791030553E+03  0.00000000000E+00 0. -1.
         21   -1    0    0  501  502  0.00000000000E+00 -0.00000000000E+00 -0.13299740015E+03  0.13299740015E+03  0.00000000000E+00 0. -1.
         21    1    1    2  503  502  0.72654956615E+02  0.95417634524E+02 -0.92587555341E+02  0.15151146195E+03  0.00000000000E+00 0. -1.
          1    1    1    2  501    0 -0.72654956615E+02 -0.95417634524E+02  0.31750046072E+03  0.33939624373E+03  0.00000000000E+00 0. -1.
<mgrwt>
<rscale>  2 0.11993026E+03</rscale>
<asrwt>0</asrwt>
<pdfrwt beam="2">  1       21 0.20461139E-01 0.11993026E+03</pdfrwt>
<pdfrwt beam="1">  1        1 0.55063123E-01 0.11993026E+03</pdfrwt>
<totfact> 0.17121209E+04</totfact>
</mgrwt>
</event>
<event>
 4    1  0.5006371E+003  0.1079986E+03  0.7546771E-02  0.1264322E+00
          1   -1    0    0  503    0 -0.00000000000E+00  0.00000000000E+00  0.10811254079E+03  0.10811254079E+03  0.00000000000E+00 0.  1.
         21   -1    0    0  501  502  0.00000000000E+00 -0.00000000000E+00 -0.18772676599E+03  0.18772676599E+03  0.00000000000E+00 0.  1.
         21    1    1    2  503  502  0.30104662598E+02 -0.10371792234E+03 -0.13627403770E+03  0.17388016412E+03  0.00000000000E+00 0.  1.
          1    1    1    2  501    0 -0.30104662598E+02  0.10371792234E+03  0.56659812503E+02  0.12195914265E+03  0.00000000000E+00 0.  1.
<mgrwt>
<rscale>  2 0.10799860E+03</rscale>
<asrwt>0</asrwt>
<pdfrwt beam="2">  1       21 0.28881041E-01 0.10799860E+03</pdfrwt>
<pdfrwt beam="1">  1        1 0.16632699E-01 0.10799860E+03</pdfrwt>
<totfact> 0.39733636E+04</totfact>
</mgrwt>
</event>
<event>
 4    1  0.5006371E+003  0.1042631E+03  0.7546771E-02  0.1271578E+00
         -1   -1    0    0    0  501 -0.00000000000E+00  0.00000000000E+00  0.33636521369E+02  0.33636521369E+02  0.00000000000E+00 0.  1.
         21   -1    0    0  501  502  0.00000000000E+00 -0.00000000000E+00 -0.32452144280E+03  0.32452144280E+03  0.00000000000E+00 0.  1.
         21    1    1    2  503  502  0.98356031511E+02  0.34596120648E+02 -0.15693691150E+03  0.18841442272E+03  0.00000000000E+00 0.  1.
         -1    1    1    2    0  503 -0.98356031511E+02 -0.34596120648E+02 -0.13394800994E+03  0.16974354145E+03  0.00000000000E+00 0.  1.
<mgrwt>
<rscale>  2 0.10426313E+03</rscale>
<asrwt>0</asrwt>
<pdfrwt beam="2">  1       21 0.49926377E-01 0.10426313E+03</pdfrwt>
<pdfrwt beam="1">  1       -1 0.51748493E-02 0.10426313E+03</pdfrwt>
<totfact> 0.55439805E+04</totfact>
</mgrwt>
</event>
<event>
 4    1  0.5006371E+003  0.1069664E+03  0.7546771E-02  0.1266293E+00
         21   -1    0    0  503  502  0.00000000000E+00  0.00000000000E+00  0.95634636578E+02  0.95634636578E+02  0.00000000000E+00 0. -1.
          2   -1    0    0  502    0 -0.00000000000E+00 -0.00000000000E+00 -0.12452151357E+04  0.12452151357E+04  0.00000000000E+00 0.  1.
         21    1    1    2  503  501 -0.92230953388E+02 -0.54177981120E+02  0.62614105725E+02  0.12394486128E+03  0.00000000000E+00 0. -1.
          2    1    1    2  501    0  0.92230953388E+02  0.54177981120E+02 -0.12121946048E+04  0.12169049110E+04  0.00000000000E+00 0.  1.
<mgrwt>
<rscale>  2 0.10696636E+03</rscale>
<asrwt>0</asrwt>
<pdfrwt beam="1">  1       21 0.14713022E-01 0.10696636E+03</pdfrwt>
<pdfrwt beam="2">  1        2 0.19157155E+00 0.10696636E+03</pdfrwt>
<totfact> 0.10121862E+04</totfact>
</mgrwt>
</event>
<event>
 4    1  0.5006371E+003  0.1012281E+03  0.7546771E-02  0.1277735E+00
          2   -1    0    0  503    0 -0.00000000000E+00  0.00000000000E+00  0.93180325588E+03  0.93180325588E+03  0.00000000000E+00 0.  1.
         21   -1    0    0  501  502  0.00000000000E+00 -0.00000000000E+00 -0.11265631611E+02  0.11265631611E+02  0.00000000000E+00 0.  1.
         21    1    1    2  503  502  0.69365772645E+02 -0.73725906847E+02  0.38746646868E+03  0.40047145230E+03  0.00000000000E+00 0.  1.
          2    1    1    2  501    0 -0.69365772645E+02  0.73725906847E+02  0.53307115559E+03  0.54259743519E+03  0.00000000000E+00 0.  1.
<mgrwt>
<rscale>  2 0.10122806E+03</rscale>
<asrwt>0</asrwt>
<pdfrwt beam="2">  1       21 0.17331748E-02 0.10122806E+03</pdfrwt>
<pdfrwt beam="1">  1        2 0.14335429E+00 0.10122806E+03</pdfrwt>
<totfact> 0.55326964E+05</totfact>
</mgrwt>
</event>
<event>
 4    1  0.5006371E+003  0.2097980E+03  0.7546771E-02  0.1141726E+00
         21   -1    0    0  503  502  0.00000000000E+00  0.00000000000E+00  0.39656793418E+02  0.39656793418E+02  0.00000000000E+00 0. -1.
          2   -1    0    0  502    0 -0.00000000000E+00 -0.00000000000E+00 -0.38524818818E+04  0.38524818818E+04  0.00000000000E+00 0.  1.
         21    1    1    2  503  501  0.10536583210E+03  0.18142009134E+03 -0.26443375359E+03  0.33755061569E+03  0.00000000000E+00 0. -1.
          2    1    1    2  501    0 -0.10536583210E+03 -0.18142009134E+03 -0.35483913348E+04  0.35545880595E+04  0.00000000000E+00 0.  1.
<mgrwt>
<rscale>  2 0.20979802E+03</rscale>
<asrwt>0</asrwt>
<pdfrwt beam="1">  1       21 0.61010407E-02 0.20979802E+03</pdfrwt>
<pdfrwt beam="2">  1        2 0.59268996E+00 0.20979802E+03</pdfrwt>
<totfact> 0.14585491E+03</totfact>
</mgrwt>
</event>
<event>
 4    1  0.5006371E+003  0.1053920E+03  0.7546771E-02  0.1269349E+00
          1   -1    0    0  503    0 -0.00000000000E+00  0.00000000000E+00  0.10501751740E+04  0.10501751740E+04  0.00000000000E+00 0. -1.
         21   -1    0    0  501  502  0.00000000000E+00 -0.00000000000E+00 -0.12329854963E+02  0.12329854963E+02  0.00000000000E+00 0.  1.
         21    1    1    2  503  502  0.18259258395E+02  0.10379825761E+03  0.31860398866E+03  0.33558304545E+03  0.00000000000E+00 0.  1.
          1    1    1    2  501    0 -0.18259258395E+02 -0.10379825761E+03  0.71924133036E+03  0.72692198350E+03  0.00000000000E+00 0. -1.
<mgrwt>
<rscale>  2 0.10539202E+03</rscale>
<asrwt>0</asrwt>
<pdfrwt beam="2">  1       21 0.18969016E-02 0.10539202E+03</pdfrwt>
<pdfrwt beam="1">  1        1 0.16156534E+00 0.10539202E+03</pdfrwt>
<totfact> 0.21807208E+05</totfact>
</mgrwt>
</event>
<event>
 4    1  0.5006371E+003  0.1107945E+03  0.7546771E-02  0.1259106E+00
          1   -1    0    0  503    0 -0.00000000000E+00  0.00000000000E+00  0.15922255985E+03  0.15922255985E+03  0.00000000000E+00 0.  1.
         21   -1    0    0  501  502  0.00000000000E+00 -0.00000000000E+00 -0.10212597229E+03  0.10212597229E+03  0.00000000000E+00 0. -1.
         21    1    1    2  503  502 -0.65171699262E+02  0.89599552417E+02 -0.36143878151E+02  0.11654102327E+03  0.00000000000E+00 0. -1.
          1    1    1    2  501    0  0.65171699262E+02 -0.89599552417E+02  0.93240465706E+02  0.14480750886E+03  0.00000000000E+00 0.  1.
<mgrwt>
<rscale>  2 0.11079454E+03</rscale>
<asrwt>0</asrwt>
<pdfrwt beam="2">  1       21 0.15711688E-01 0.11079454E+03</pdfrwt>
<pdfrwt beam="1">  1        1 0.24495778E-01 0.11079454E+03</pdfrwt>
<totfact> 0.75363696E+04</totfact>
</mgrwt>
</event>
<event>
 4    1  0.5006371E+003  0.1112290E+03  0.7546771E-02  0.1258311E+00
          1   -1    0    0  502    0 -0.00000000000E+00  0.00000000000E+00  0.27376844430E+03  0.27376844430E+03  0.00000000000E+00 0.  1.
         21   -1    0    0  503  502  0.00000000000E+00 -0.00000000000E+00 -0.19427287417E+03  0.19427287417E+03  0.00000000000E+00 0.  1.
         21    1    1    2  503  501  0.11052000474E+03  0.12538309593E+02 -0.16525533915E+03  0.19920142513E+03  0.00000000000E+00 0.  1.
          1    1    1    2  501    0 -0.11052000474E+03 -0.12538309593E+02  0.24475090928E+03  0.26883989334E+03  0.00000000000E+00 0.  1.
<mgrwt>
<rscale>  2 0.11122896E+03</rscale>
<asrwt>0</asrwt>
<pdfrwt beam="2">  1       21 0.29888135E-01 0.11122896E+03</pdfrwt>
<pdfrwt beam="1">  1        1 0.42118222E-01 0.11122896E+03</pdfrwt>
<totfact> 0.11690031E+04</totfact>
</mgrwt>
</event>
<event>
 4    1  0.5006371E+003  0.1063693E+03  0.7546771E-02  0.1267445E+00
         21   -1    0    0  503  502  0.00000000000E+00  0.00000000000E+00  0.18569435969E+03  0.18569435969E+03  0.00000000000E+00 0.  1.
         -1   -1    0    0    0  501 -0.00000000000E+00 -0.00000000000E+00 -0.75911911737E+02  0.75911911737E+02  0.00000000000E+00 0.  1.
         21    1    1    2  503  501 -0.41384146938E+02  0.97988624028E+02  0.11300004561E+03  0.15518836414E+03  0.00000000000E+00 0.  1.
         -1    1    1    2    0  502  0.41384146938E+02 -0.97988624028E+02 -0.32175976592E+01  0.10641790729E+03  0.00000000000E+00 0.  1.
<mgrwt>
<rscale>  2 0.10636925E+03</rscale>
<asrwt>0</asrwt>
<pdfrwt beam="1">  1       21 0.28568363E-01 0.10636925E+03</pdfrwt>
<pdfrwt beam="2">  1       -1 0.11678756E-01 0.10636925E+03</pdfrwt>
<totfact> 0.49373681E+04</totfact>
</mgrwt>
</event>
<event>
 4    1  0.5006371E+003  0.1161054E+03  0.7546771E-02  0.1249664E+00
         -2   -1    0    0    0  501 -0.00000000000E+00  0.00000000000E+00  0.60151447873E+03  0.60151447873E+03  0.00000000000E+00 0. -1.
         21   -1    0    0  503  502  0.00000000000E+00 -0.00000000000E+00 -0.37414724590E+02  0.37414724590E+02  0.00000000000E+00 0.  1.
         21    1    1    2  503  501 -0.86325721070E+02  0.77642340848E+02  0.79746617754E+02  0.14085448610E+03  0.00000000000E+00 0.  1.
         -2    1    1    2    0  502  0.86325721070E+02 -0.77642340848E+02  0.48435313639E+03  0.49807471723E+03  0.00000000000E+00 0. -1.
<mgrwt>
<rscale>  2 0.11610540E+03</rscale>
<asrwt>0</asrwt>
<pdfrwt beam="2">  1       21 0.57561119E-02 0.11610540E+03</pdfrwt>
<pdfrwt beam="1">  1       -2 0.92540682E-01 0.11610540E+03</pdfrwt>
<totfact> 0.17616463E+04</totfact>
</mgrwt>
</event>
<event>
 4    1  0.5006371E+003  0.1163822E+03  0.7546771E-02  0.1249187E+00
          2   -1    0    0  502    0 -0.00000000000E+00  0.00000000000E+00  0.41745783451E+03  0.41745783451E+03  0.00000000000E+00 0. -1.
         21   -1    0    0  503  502  0.00000000000E+00 -0.00000000000E+00 -0.39888450513E+02  0.39888450513E+02  0.00000000000E+00 0. -1.
         21    1    1    2  503  501 -0.10816395364E+03  0.42957852776E+02  0.90008818989E+02  0.14712717451E+03  0.00000000000E+00 0. -1.
          2    1    1    2  501    0  0.10816395364E+03 -0.42957852776E+02  0.28756056501E+03  0.31021911052E+03  0.00000000000E+00 0. -1.
<mgrwt>
<rscale>  2 0.11638221E+03</rscale>
<asrwt>0</asrwt>
<pdfrwt beam="2">  1       21 0.61366850E-02 0.11638221E+03</pdfrwt>
<pdfrwt beam="1">  1        2 0.64224279E-01 0.11638221E+03</pdfrwt>
<totfact> 0.17701917E+05</totfact>
</mgrwt>
</event>
<event>
 4    1  0.5006371E+003  0.1603158E+03  0.7546771E-02  0.1188341E+00
         21   -1    0    0  503  502  0.00000000000E+00  0.00000000000E+00  0.88433360542E+02  0.88433360542E+02  0.00000000000E+00 0. -1.
          2   -1    0    0  502    0 -0.00000000000E+00 -0.00000000000E+00 -0.36914372530E+03  0.36914372530E+03  0.00000000000E+00 0. -1.
         21    1    1    2  503  501 -0.81983131492E+02 -0.13776765248E+03 -0.34839639213E+02  0.16405779585E+03  0.00000000000E+00 0. -1.
          2    1    1    2  501    0  0.81983131492E+02  0.13776765248E+03 -0.24587072554E+03  0.29351928999E+03  0.00000000000E+00 0. -1.
<mgrwt>
<rscale>  2 0.16031581E+03</rscale>
<asrwt>0</asrwt>
<pdfrwt beam="1">  1       21 0.13605132E-01 0.16031581E+03</pdfrwt>
<pdfrwt beam="2">  1        2 0.56791343E-01 0.16031581E+03</pdfrwt>
<totfact> 0.50829831E+04</totfact>
</mgrwt>
</event>
<event>
 4    1  0.5006371E+003  0.1089479E+03  0.7546771E-02  0.1262531E+00
         21   -1    0    0  501  502  0.00000000000E+00  0.00000000000E+00  0.16285157198E+03  0.16285157198E+03  0.00000000000E+00 0. -1.
          2   -1    0    0  503    0 -0.00000000000E+00 -0.00000000000E+00 -0.36452197659E+04  0.36452197659E+04  0.00000000000E+00 0.  1.
         21    1    1    2  503  502 -0.64344915652E+02  0.87916875622E+02  0.14371982874E+03  0.18034698324E+03  0.00000000000E+00 0. -1.
          2    1    1    2  501    0  0.64344915652E+02 -0.87916875622E+02 -0.36260880226E+04  0.36277243546E+04  0.00000000000E+00 0.  1.
<mgrwt>
<rscale>  2 0.10894790E+03</rscale>
<asrwt>0</asrwt>
<pdfrwt beam="1">  1       21 0.25054089E-01 0.10894790E+03</pdfrwt>
<pdfrwt beam="2">  1        2 0.56080302E+00 0.10894790E+03</pdfrwt>
<totfact> 0.18284182E+02</totfact>
</mgrwt>
</event>
<event>
 4    1  0.5006371E+003  0.1276264E+03  0.7546771E-02  0.1231021E+00
          4   -1    0    0  502    0 -0.00000000000E+00  0.00000000000E+00  0.74620351559E+03  0.74620351559E+03  0.00000000000E+00 0.  1.
         21   -1    0    0  503  502  0.00000000000E+00 -0.00000000000E+00 -0.27655956267E+02  0.27655956267E+02  0.00000000000E+00 0.  1.
         21    1    1    2  503  501  0.61362576246E+02 -0.11190681491E+03  0.18165969542E+03  0.22201068877E+03  0.00000000000E+00 0.  1.
          4    1    1    2  501    0 -0.61362576246E+02  0.11190681491E+03  0.53688786390E+03  0.55184878309E+03  0.00000000000E+00 0.  1.
<mgrwt>
<rscale>  2 0.12762641E+03</rscale>
<asrwt>0</asrwt>
<pdfrwt beam="2">  1       21 0.42547631E-02 0.12762641E+03</pdfrwt>
<pdfrwt beam="1">  1        4 0.11480053E+00 0.12762641E+03</pdfrwt>
<totfact> 0.88719521E+03</totfact>
</mgrwt>
</event>
<event>
 4    1  0.5006371E+003  0.1514754E+03  0.7546771E-02  0.1198672E+00
         21   -1    0    0  503  502  0.00000000000E+00  0.00000000000E+00  0.19262658845E+03  0.19262658845E+03  0.00000000000E+00 0.  1.
          3   -1    0    0  502    0 -0.00000000000E+00 -0.00000000000E+00 -0.13304430187E+03  0.13304430187E+03  0.00000000000E+00 0.  1.
         21    1    1    2  503  501 -0.14368350552E+03  0.47956707629E+02  0.82478820045E+02  0.17247478460E+03  0.00000000000E+00 0.  1.
          3    1    1    2  501    0  0.14368350552E+03 -0.47956707629E+02 -0.22896533461E+02  0.15319610573E+03  0.00000000000E+00 0.  1.
<mgrwt>
<rscale>  2 0.15147540E+03</rscale>
<asrwt>0</asrwt>
<pdfrwt beam="1">  1       21 0.29634860E-01 0.15147540E+03</pdfrwt>
<pdfrwt beam="2">  1        3 0.20468354E-01 0.15147540E+03</pdfrwt>
<totfact> 0.11463284E+04</totfact>
</mgrwt>
</event>
<event>
 4    1  0.5006371E+003  0.1685450E+03  0.7546771E-02  0.1179374E+00
         21   -1    0    0  501  502  0.00000000000E+00  0.00000000000E+00  0.71785036845E+03  0.71785036845E+03  0.00000000000E+00 0.  1.
         -4   -1    0    0    0  501 -0.00000000000E+00 -0.00000000000E+00 -0.19778666789E+03  0.19778666789E+03  0.00000000000E+00 0. -1.
         21    1    1    2  503  502  0.15540326246E+03  0.65247449400E+02  0.66949706965E+03  0.69038665247E+03  0.00000000000E+00 0.  1.
         -4    1    1    2    0  503 -0.15540326246E+03 -0.65247449400E+02 -0.14943336910E+03  0.22525038387E+03  0.00000000000E+00 0. -1.
<mgrwt>
<rscale>  2 0.16854496E+03</rscale>
<asrwt>0</asrwt>
<pdfrwt beam="1">  1       21 0.11043852E+00 0.16854496E+03</pdfrwt>
<pdfrwt beam="2">  1       -4 0.30428718E-01 0.16854496E+03</pdfrwt>
<totfact> 0.28267358E+02</totfact>
</mgrwt>
</event>
<event>
 4    1  0.5006371E+003  0.1249760E+03  0.7546771E-02  0.1235107E+00
         21   -1    0    0  501  502  0.00000000000E+00  0.00000000000E+00  0.13833441505E+03  0.13833441505E+03  0.00000000000E+00 0. -1.
         -2   -1    0    0    0  501 -0.00000000000E+00 -0.00000000000E+00 -0.28406975504E+03  0.28406975504E+03  0.00000000000E+00 0. -1.
         21    1    1    2  503  502  0.85273987198E+02 -0.91363867331E+02  0.91074075384E+02  0.15463989250E+03  0.00000000000E+00 0. -1.
         -2    1    1    2    0  503 -0.85273987198E+02  0.91363867331E+02 -0.23680941537E+03  0.26776427759E+03  0.00000000000E+00 0. -1.
<mgrwt>
<rscale>  2 0.12497603E+03</rscale>
<asrwt>0</asrwt>
<pdfrwt beam="1">  1       21 0.21282218E-01 0.12497603E+03</pdfrwt>
<pdfrwt beam="2">  1       -2 0.43703039E-01 0.12497603E+03</pdfrwt>
<totfact> 0.83681220E+03</totfact>
</mgrwt>
</event>
<event>
 4    1  0.5006371E+003  0.1226171E+03  0.7546771E-02  0.1238841E+00
          2   -1    0    0  503    0 -0.00000000000E+00  0.00000000000E+00  0.17476049708E+04  0.17476049708E+04  0.00000000000E+00 0. -1.
         21   -1    0    0  501  502  0.00000000000E+00 -0.00000000000E+00 -0.10587588572E+02  0.10587588572E+02  0.00000000000E+00 0. -1.
         21    1    1    2  503  502  0.84982914943E+02  0.88390310986E+02  0.48792117414E+03  0.50309245182E+03  0.00000000000E+00 0. -1.
          2    1    1    2  501    0 -0.84982914943E+02 -0.88390310986E+02  0.12490962081E+04  0.12551001076E+04  0.00000000000E+00 0. -1.
<mgrwt>
<rscale>  2 0.12261706E+03</rscale>
<asrwt>0</asrwt>
<pdfrwt beam="2">  1       21 0.16288612E-02 0.12261706E+03</pdfrwt>
<pdfrwt beam="1">  1        2 0.26886207E+00 0.12261706E+03</pdfrwt>
<totfact> 0.22335607E+05</totfact>
</mgrwt>
</event>
<event>
 4    1  0.5006371E+003  0.1050984E+03  0.7546771E-02  0.1269926E+00
         21   -1    0    0  503  502  0.00000000000E+00  0.00000000000E+00  0.16234869620E+04  0.16234869620E+04  0.00000000000E+00 0. -1.
          3   -1    0    0  502    0 -0.00000000000E+00 -0.00000000000E+00 -0.27480640617E+02  0.27480640617E+02  0.00000000000E+00 0. -1.
         21    1    1    2  503  501 -0.10089919097E+03 -0.29411492464E+02  0.15140451653E+04  0.15176885205E+04  0.00000000000E+00 0. -1.
          3    1    1    2  501    0  0.10089919097E+03  0.29411492464E+02  0.81961156076E+02  0.13327908213E+03  0.00000000000E+00 0. -1.
<mgrwt>
<rscale>  2 0.10509844E+03</rscale>
<asrwt>0</asrwt>
<pdfrwt beam="1">  1       21 0.24976715E+00 0.10509844E+03</pdfrwt>
<pdfrwt beam="2">  1        3 0.42277921E-02 0.10509844E+03</pdfrwt>
<totfact> 0.10224098E+03</totfact>
</mgrwt>
</event>
<event>
 4    1  0.5006371E+003  0.1123006E+03  0.7546771E-02  0.1256368E+00
          1   -1    0    0  503    0 -0.00000000000E+00  0.00000000000E+00  0.33643249061E+03  0.33643249061E+03  0.00000000000E+00 0. -1.
         21   -1    0    0  501  502  0.00000000000E+00 -0.00000000000E+00 -0.11362628176E+03  0.11362628176E+03  0.00000000000E+00 0.  1.
         21    1    1    2  503  502  0.10504693661E+03 -0.39706028843E+02 -0.72804587935E+02  0.13383547976E+03  0.00000000000E+00 0.  1.
          1    1    1    2  501    0 -0.10504693661E+03  0.39706028843E+02  0.29561079678E+03  0.31622329261E+03  0.00000000000E+00 0. -1.
<mgrwt>
<rscale>  2 0.11230061E+03</rscale>
<asrwt>0</asrwt>
<pdfrwt beam="2">  1       21 0.17480967E-01 0.11230061E+03</pdfrwt>
<pdfrwt beam="1">  1        1 0.51758844E-01 0.11230061E+03</pdfrwt>
<totfact> 0.24686251E+04</totfact>
</mgrwt>
</event>
<event>
 4    1  0.5006371E+003  0.1002014E+03  0.7546771E-02  0.1279873E+00
         21   -1    0    0  503  502  0.00000000000E+00  0.00000000000E+00  0.18764845663E+02  0.18764845663E+02  0.00000000000E+00 0. -1.
          3   -1    0    0  502    0 -0.00000000000E+00 -0.00000000000E+00 -0.12066006229E+04  0.12066006229E+04  0.00000000000E+00 0. -1.
         21    1    1    2  503  501  0.44634277099E+02  0.89711162202E+02 -0.13684008210E+03  0.16960400757E+03  0.00000000000E+00 0. -1.
          3    1    1    2  501    0 -0.44634277099E+02 -0.89711162202E+02 -0.10509956952E+04  0.10557614610E+04  0.00000000000E+00 0. -1.
<mgrwt>
<rscale>  2 0.10020135E+03</rscale>
<asrwt>0</asrwt>
<pdfrwt beam="1">  1       21 0.28868995E-02 0.10020135E+03</pdfrwt>
<pdfrwt beam="2">  1        3 0.18563085E+00 0.10020135E+03</pdfrwt>
<totfact> 0.64021364E+03</totfact>
</mgrwt>
</event>
<event>
 4    1  0.5006371E+003  0.1111154E+03  0.7546771E-02  0.1258518E+00
          1   -1    0    0  502    0 -0.00000000000E+00  0.00000000000E+00  0.12455845610E+04  0.12455845610E+04  0.00000000000E+00 0. -1.
         21   -1    0    0  503  502  0.00000000000E+00 -0.00000000000E+00 -0.43110857929E+02  0.43110857929E+02  0.00000000000E+00 0.  1.
         21    1    1    2  503  501 -0.60842639688E+02  0.92977474318E+02  0.35797004995E+02  0.11673929545E+03  0.00000000000E+00 0.  1.
          1    1    1    2  501    0  0.60842639688E+02 -0.92977474318E+02  0.11666766980E+04  0.11719561234E+04  0.00000000000E+00 0. -1.
<mgrwt>
<rscale>  2 0.11111542E+03</rscale>
<asrwt>0</asrwt>
<pdfrwt beam="2">  1       21 0.66324406E-02 0.11111542E+03</pdfrwt>
<pdfrwt beam="1">  1        1 0.19162837E+00 0.11111542E+03</pdfrwt>
<totfact> 0.20362147E+04</totfact>
</mgrwt>
</event>
<event>
 4    1  0.5006371E+003  0.1080810E+03  0.7546771E-02  0.1264165E+00
         21   -1    0    0  503  502  0.00000000000E+00  0.00000000000E+00  0.21104334145E+02  0.21104334145E+02  0.00000000000E+00 0. -1.
          2   -1    0    0  502    0 -0.00000000000E+00 -0.00000000000E+00 -0.61259114109E+03  0.61259114109E+03  0.00000000000E+00 0.  1.
         21    1    1    2  503  501  0.59855092297E+02 -0.89993765326E+02 -0.19734659662E+03  0.22500486455E+03  0.00000000000E+00 0. -1.
          2    1    1    2  501    0 -0.59855092297E+02  0.89993765326E+02 -0.39414021033E+03  0.40869061069E+03  0.00000000000E+00 0.  1.
<mgrwt>
<rscale>  2 0.10808103E+03</rscale>
<asrwt>0</asrwt>
<pdfrwt beam="1">  1       21 0.32468204E-02 0.10808103E+03</pdfrwt>
<pdfrwt beam="2">  1        2 0.94244797E-01 0.10808103E+03</pdfrwt>
<totfact> 0.33448449E+05</totfact>
</mgrwt>
</event>
<event>
 4    1  0.5006371E+003  0.1113720E+03  0.7546771E-02  0.1258050E+00
          2   -1    0    0  502    0 -0.00000000000E+00  0.00000000000E+00  0.22414913824E+04  0.22414913824E+04  0.00000000000E+00 0. -1.
         21   -1    0    0  503  502  0.00000000000E+00 -0.00000000000E+00 -0.91184780922E+01  0.91184780922E+01  0.00000000000E+00 0.  1.
         21    1    1    2  503  501  0.90951982948E+02  0.64276381122E+02  0.41061525720E+03  0.42545106160E+03  0.00000000000E+00 0.  1.
          2    1    1    2  501    0 -0.90951982948E+02 -0.64276381122E+02  0.18217576471E+04  0.18251587989E+04  0.00000000000E+00 0. -1.
<mgrwt>
<rscale>  2 0.11137197E+03</rscale>
<asrwt>0</asrwt>
<pdfrwt beam="2">  1       21 0.14028446E-02 0.11137197E+03</pdfrwt>
<pdfrwt beam="1">  1        2 0.34484439E+00 0.11137197E+03</pdfrwt>
<totfact> 0.15872189E+05</totfact>
</mgrwt>
</event>
<event>
 4    1  0.5006371E+003  0.1092664E+03  0.7546771E-02  0.1261934E+00
         21   -1    0    0  501  502  0.00000000000E+00  0.00000000000E+00  0.63861829995E+01  0.63861829995E+01  0.00000000000E+00 0.  1.
          1   -1    0    0  503    0 -0.00000000000E+00 -0.00000000000E+00 -0.20535258693E+04  0.20535258693E+04  0.00000000000E+00 0.  1.
         21    1    1    2  503  502  0.38401490485E+02  0.10229600770E+03 -0.71526876725E+03  0.72356655331E+03  0.00000000000E+00 0.  1.
          1    1    1    2  501    0 -0.38401490485E+02 -0.10229600770E+03 -0.13318709191E+04  0.13363454990E+04  0.00000000000E+00 0.  1.
<mgrwt>
<rscale>  2 0.10926641E+03</rscale>
<asrwt>0</asrwt>
<pdfrwt beam="1">  1       21 0.98248799E-03 0.10926641E+03</pdfrwt>
<pdfrwt beam="2">  1        1 0.31592760E+00 0.10926641E+03</pdfrwt>
<totfact> 0.13818752E+05</totfact>
</mgrwt>
</event>
<event>
 4    1  0.5006371E+003  0.1120062E+03  0.7546771E-02  0.1256899E+00
         21   -1    0    0  503  502  0.00000000000E+00  0.00000000000E+00  0.28719095366E+03  0.28719095366E+03  0.00000000000E+00 0. -1.
          2   -1    0    0  502    0 -0.00000000000E+00 -0.00000000000E+00 -0.13874232844E+03  0.13874232844E+03  0.00000000000E+00 0. -1.
         21    1    1    2  503  501 -0.11105258207E+03 -0.14584923558E+02  0.25050478102E+03  0.27440488570E+03  0.00000000000E+00 0. -1.
          2    1    1    2  501    0  0.11105258207E+03  0.14584923558E+02 -0.10205615580E+03  0.15152839641E+03  0.00000000000E+00 0. -1.
<mgrwt>
<rscale>  2 0.11200623E+03</rscale>
<asrwt>0</asrwt>
<pdfrwt beam="1">  1       21 0.44183223E-01 0.11200623E+03</pdfrwt>
<pdfrwt beam="2">  1        2 0.21344974E-01 0.11200623E+03</pdfrwt>
<totfact> 0.15668576E+04</totfact>
</mgrwt>
</event>
<event>
 4    1  0.5006371E+003  0.1050648E+03  0.7546771E-02  0.1269992E+00
         21   -1    0    0  503  502  0.00000000000E+00  0.00000000000E+00  0.35633183495E+03  0.35633183495E+03  0.00000000000E+00 0. -1.
         -1   -1    0    0    0  501 -0.00000000000E+00 -0.00000000000E+00 -0.31263597641E+02  0.31263597641E+02  0.00000000000E+00 0.  1.
         21    1    1    2  503  501  0.69610950472E+02 -0.78695210842E+02  0.14402708044E+03  0.17827624782E+03  0.00000000000E+00 0. -1.
         -1    1    1    2    0  502 -0.69610950472E+02  0.78695210842E+02  0.18104115687E+03  0.20931918477E+03  0.00000000000E+00 0.  1.
<mgrwt>
<rscale>  2 0.10506484E+03</rscale>
<asrwt>0</asrwt>
<pdfrwt beam="1">  1       21 0.54820279E-01 0.10506484E+03</pdfrwt>
<pdfrwt beam="2">  1       -1 0.48097845E-02 0.10506484E+03</pdfrwt>
<totfact> 0.50906347E+04</totfact>
</mgrwt>
</event>
<event>
 4    1  0.5006371E+003  0.1071291E+03  0.7546771E-02  0.1265981E+00
          2   -1    0    0  502    0 -0.00000000000E+00  0.00000000000E+00  0.18959691183E+04  0.18959691183E+04  0.00000000000E+00 0. -1.
         21   -1    0    0  503  502  0.00000000000E+00 -0.00000000000E+00 -0.18484122368E+03  0.18484122368E+03  0.00000000000E+00 0.  1.
         21    1    1    2  503  501 -0.54475362345E+02 -0.92244641827E+02 -0.16766383357E+03  0.19896683175E+03  0.00000000000E+00 0.  1.
          2    1    1    2  501    0  0.54475362345E+02  0.92244641827E+02  0.18787917282E+04  0.18818435103E+04  0.00000000000E+00 0. -1.
<mgrwt>
<rscale>  2 0.10712908E+03</rscale>
<asrwt>0</asrwt>
<pdfrwt beam="2">  1       21 0.28437112E-01 0.10712908E+03</pdfrwt>
<pdfrwt beam="1">  1        2 0.29168755E+00 0.10712908E+03</pdfrwt>
<totfact> 0.13868529E+03</totfact>
</mgrwt>
</event>
<event>
 4    1  0.5006371E+003  0.1230558E+03  0.7546771E-02  0.1238139E+00
          3   -1    0    0  502    0 -0.00000000000E+00  0.00000000000E+00  0.44387808424E+03  0.44387808424E+03  0.00000000000E+00 0. -1.
         21   -1    0    0  503  502  0.00000000000E+00 -0.00000000000E+00 -0.59129547467E+03  0.59129547467E+03  0.00000000000E+00 0. -1.
         21    1    1    2  503  501  0.12288273770E+03  0.65248737278E+01 -0.57614265023E+03  0.58913758547E+03  0.00000000000E+00 0. -1.
          3    1    1    2  501    0 -0.12288273770E+03 -0.65248737278E+01  0.42872525981E+03  0.44603597344E+03  0.00000000000E+00 0. -1.
<mgrwt>
<rscale>  2 0.12305585E+03</rscale>
<asrwt>0</asrwt>
<pdfrwt beam="2">  1       21 0.90968534E-01 0.12305585E+03</pdfrwt>
<pdfrwt beam="1">  1        3 0.68288936E-01 0.12305585E+03</pdfrwt>
<totfact> 0.10941172E+02</totfact>
</mgrwt>
</event>
<event>
 4    1  0.5006371E+003  0.1534480E+03  0.7546771E-02  0.1196299E+00
         21   -1    0    0  503  502  0.00000000000E+00  0.00000000000E+00  0.59138458811E+03  0.59138458811E+03  0.00000000000E+00 0.  1.
          3   -1    0    0  502    0 -0.00000000000E+00 -0.00000000000E+00 -0.88810118842E+02  0.88810118842E+02  0.00000000000E+00 0.  1.
         21    1    1    2  503  501 -0.51566035649E+02 -0.14452414477E+03  0.50389467205E+03  0.52674104167E+03  0.00000000000E+00 0.  1.
          3    1    1    2  501    0  0.51566035649E+02  0.14452414477E+03 -0.13202027830E+01  0.15345366529E+03  0.00000000000E+00 0.  1.
<mgrwt>
<rscale>  2 0.15344799E+03</rscale>
<asrwt>0</asrwt>
<pdfrwt beam="1">  1       21 0.90982242E-01 0.15344799E+03</pdfrwt>
<pdfrwt beam="2">  1        3 0.13663096E-01 0.15344799E+03</pdfrwt>
<totfact> 0.22013171E+03</totfact>
</mgrwt>
</event>
<event>
 4    1  0.5006371E+003  0.1402736E+03  0.7546771E-02  0.1212961E+00
         21   -1    0    0  503  502  0.00000000000E+00  0.00000000000E+00  0.30823538445E+02  0.30823538445E+02  0.00000000000E+00 0.  1.
          1   -1    0    0  502    0 -0.00000000000E+00 -0.00000000000E+00 -0.78361691166E+03  0.78361691166E+03  0.00000000000E+00 0.  1.
         21    1    1    2  503  501  0.13532680237E+03 -0.36923544695E+02 -0.20107435835E+03  0.24516849141E+03  0.00000000000E+00 0.  1.
          1    1    1    2  501    0 -0.13532680237E+03  0.36923544695E+02 -0.55171901487E+03  0.56927195870E+03  0.00000000000E+00 0.  1.
<mgrwt>
<rscale>  2 0.14027363E+03</rscale>
<asrwt>0</asrwt>
<pdfrwt beam="1">  1       21 0.47420828E-02 0.14027363E+03</pdfrwt>
<pdfrwt beam="2">  1        1 0.12055645E+00 0.14027363E+03</pdfrwt>
<totfact> 0.78078238E+04</totfact>
</mgrwt>
</event>
<event>
 4    1  0.5006371E+003  0.1534578E+03  0.7546771E-02  0.1196287E+00
         21   -1    0    0  501  502  0.00000000000E+00  0.00000000000E+00  0.31579057257E+03  0.31579057257E+03  0.00000000000E+00 0. -1.
          2   -1    0    0  503    0 -0.00000000000E+00 -0.00000000000E+00 -0.45304692217E+03  0.45304692217E+03  0.00000000000E+00 0.  1.
         21    1    1    2  503  502 -0.71264395187E+02 -0.13590687700E+03  0.28273094703E+03  0.32169252656E+03  0.00000000000E+00 0. -1.
          2    1    1    2  501    0  0.71264395187E+02  0.13590687700E+03 -0.41998729663E+03  0.44714496818E+03  0.00000000000E+00 0.  1.
<mgrwt>
<rscale>  2 0.15345779E+03</rscale>
<asrwt>0</asrwt>
<pdfrwt beam="1">  1       21 0.48583165E-01 0.15345779E+03</pdfrwt>
<pdfrwt beam="2">  1        2 0.69699526E-01 0.15345779E+03</pdfrwt>
<totfact> 0.35706853E+03</totfact>
</mgrwt>
</event>
<event>
 4    1  0.5006371E+003  0.1006849E+03  0.7546771E-02  0.1278862E+00
         21   -1    0    0  503  502  0.00000000000E+00  0.00000000000E+00  0.28815023825E+03  0.28815023825E+03  0.00000000000E+00 0.  1.
          2   -1    0    0  502    0 -0.00000000000E+00 -0.00000000000E+00 -0.14392232464E+03  0.14392232464E+03  0.00000000000E+00 0. -1.
         21    1    1    2  503  501  0.77463265788E+02  0.64318742339E+02  0.25989840011E+03  0.27871963788E+03  0.00000000000E+00 0.  1.
          2    1    1    2  501    0 -0.77463265788E+02 -0.64318742339E+02 -0.11567048650E+03  0.15335292501E+03  0.00000000000E+00 0. -1.
<mgrwt>
<rscale>  2 0.10068495E+03</rscale>
<asrwt>0</asrwt>
<pdfrwt beam="1">  1       21 0.44330806E-01 0.10068495E+03</pdfrwt>
<pdfrwt beam="2">  1        2 0.22141896E-01 0.10068495E+03</pdfrwt>
<totfact> 0.14960457E+04</totfact>
</mgrwt>
</event>
<event>
 4    1  0.5006371E+003  0.1609818E+03  0.7546771E-02  0.1187593E+00
         -1   -1    0    0    0  501 -0.00000000000E+00  0.00000000000E+00  0.17689156911E+03  0.17689156911E+03  0.00000000000E+00 0.  1.
         21   -1    0    0  503  502  0.00000000000E+00 -0.00000000000E+00 -0.80852760280E+03  0.80852760280E+03  0.00000000000E+00 0. -1.
         21    1    1    2  503  501 -0.19352961796E+02  0.15981432241E+03 -0.76165966328E+03  0.77848609329E+03  0.00000000000E+00 0. -1.
         -1    1    1    2    0  502  0.19352961796E+02 -0.15981432241E+03  0.13002362958E+03  0.20693307862E+03  0.00000000000E+00 0.  1.
<mgrwt>
<rscale>  2 0.16098185E+03</rscale>
<asrwt>0</asrwt>
<pdfrwt beam="2">  1       21 0.12438886E+00 0.16098185E+03</pdfrwt>
<pdfrwt beam="1">  1       -1 0.27214088E-01 0.16098185E+03</pdfrwt>
<totfact> 0.54150612E+02</totfact>
</mgrwt>
</event>
<event>
 4    1  0.5006371E+003  0.1017805E+03  0.7546771E-02  0.1276596E+00
          1   -1    0    0  502    0 -0.00000000000E+00  0.00000000000E+00  0.20926967321E+04  0.20926967321E+04  0.00000000000E+00 0. -1.
         21   -1    0    0  503  502  0.00000000000E+00 -0.00000000000E+00 -0.12920581203E+03  0.12920581203E+03  0.00000000000E+00 0.  1.
         21    1    1    2  503  501  0.81887688787E+02  0.60445687786E+02 -0.10771628679E+03  0.14819606333E+03  0.00000000000E+00 0.  1.
          1    1    1    2  501    0 -0.81887688787E+02 -0.60445687786E+02  0.20712072068E+04  0.20737064808E+04  0.00000000000E+00 0. -1.
<mgrwt>
<rscale>  2 0.10178052E+03</rscale>
<asrwt>0</asrwt>
<pdfrwt beam="2">  1       21 0.19877819E-01 0.10178052E+03</pdfrwt>
<pdfrwt beam="1">  1        1 0.32195332E+00 0.10178052E+03</pdfrwt>
<totfact> 0.85344461E+02</totfact>
</mgrwt>
</event>
<event>
 4    1  0.5006371E+003  0.1376534E+03  0.7546771E-02  0.1216522E+00
          2   -1    0    0  503    0 -0.00000000000E+00  0.00000000000E+00  0.21982284000E+04  0.21982284000E+04  0.00000000000E+00 0. -1.
         21   -1    0    0  501  502  0.00000000000E+00 -0.00000000000E+00 -0.11167454242E+02  0.11167454242E+02  0.00000000000E+00 0.  1.
         21    1    1    2  503  502 -0.12236066999E+03 -0.63058100260E+02  0.56589964545E+03  0.58240094976E+03  0.00000000000E+00 0.  1.
          2    1    1    2  501    0  0.12236066999E+03  0.63058100260E+02  0.16211613003E+04  0.16269949045E+04  0.00000000000E+00 0. -1.
<mgrwt>
<rscale>  2 0.13765340E+03</rscale>
<asrwt>0</asrwt>
<pdfrwt beam="2">  1       21 0.17180716E-02 0.13765340E+03</pdfrwt>
<pdfrwt beam="1">  1        2 0.33818864E+00 0.13765340E+03</pdfrwt>
<totfact> 0.12056402E+05</totfact>
</mgrwt>
</event>
<event>
 4    1  0.5006371E+003  0.1594850E+03  0.7546771E-02  0.1189279E+00
          2   -1    0    0  502    0 -0.00000000000E+00  0.00000000000E+00  0.25929440857E+04  0.25929440857E+04  0.00000000000E+00 0. -1.
         21   -1    0    0  503  502  0.00000000000E+00 -0.00000000000E+00 -0.12742324554E+02  0.12742324554E+02  0.00000000000E+00 0. -1.
         21    1    1    2  503  501 -0.73992405463E+02 -0.14128195344E+03  0.66505572543E+03  0.68391124012E+03  0.00000000000E+00 0. -1.
          2    1    1    2  501    0  0.73992405463E+02  0.14128195344E+03  0.19151460357E+04  0.19217751701E+04  0.00000000000E+00 0. -1.
<mgrwt>
<rscale>  2 0.15948500E+03</rscale>
<asrwt>0</asrwt>
<pdfrwt beam="2">  1       21 0.19603597E-02 0.15948500E+03</pdfrwt>
<pdfrwt beam="1">  1        2 0.39891405E+00 0.15948500E+03</pdfrwt>
<totfact> 0.59934486E+04</totfact>
</mgrwt>
</event>
<event>
 4    1  0.5006371E+003  0.1671594E+03  0.7546771E-02  0.1180843E+00
         21   -1    0    0  503  502  0.00000000000E+00  0.00000000000E+00  0.65526644887E+02  0.65526644887E+02  0.00000000000E+00 0.  1.
          2   -1    0    0  502    0 -0.00000000000E+00 -0.00000000000E+00 -0.96598403599E+03  0.96598403599E+03  0.00000000000E+00 0. -1.
         21    1    1    2  503  501  0.16713376587E+03  0.29250486268E+01 -0.64769931711E+02  0.17926905940E+03  0.00000000000E+00 0.  1.
          2    1    1    2  501    0 -0.16713376587E+03 -0.29250486268E+01 -0.83568745940E+03  0.85224162149E+03  0.00000000000E+00 0. -1.
<mgrwt>
<rscale>  2 0.16715936E+03</rscale>
<asrwt>0</asrwt>
<pdfrwt beam="1">  1       21 0.10081022E-01 0.16715936E+03</pdfrwt>
<pdfrwt beam="2">  1        2 0.14861293E+00 0.16715936E+03</pdfrwt>
<totfact> 0.28143470E+04</totfact>
</mgrwt>
</event>
<event>
 4    1  0.5006371E+003  0.1195477E+03  0.7546771E-02  0.1243845E+00
          2   -1    0    0  503    0 -0.00000000000E+00  0.00000000000E+00  0.36641680076E+04  0.36641680076E+04  0.00000000000E+00 0. -1.
         21   -1    0    0  501  502  0.00000000000E+00 -0.00000000000E+00 -0.48488214131E+01  0.48488214131E+01  0.00000000000E+00 0. -1.
         21    1    1    2  503  502 -0.85871310155E+02 -0.83173121779E+02  0.10183124466E+04  0.10253057539E+04  0.00000000000E+00 0. -1.
          2    1    1    2  501    0  0.85871310155E+02  0.83173121779E+02  0.26410067397E+04  0.26437110752E+04  0.00000000000E+00 0. -1.
<mgrwt>
<rscale>  2 0.11954769E+03</rscale>
<asrwt>0</asrwt>
<pdfrwt beam="2">  1       21 0.74597546E-03 0.11954769E+03</pdfrwt>
<pdfrwt beam="1">  1        2 0.56371594E+00 0.11954769E+03</pdfrwt>
<totfact> 0.64450299E+04</totfact>
</mgrwt>
</event>
<event>
 4    1  0.5006371E+003  0.1118599E+03  0.7546771E-02  0.1257164E+00
         21   -1    0    0  501  502  0.00000000000E+00  0.00000000000E+00  0.85478595529E+02  0.85478595529E+02  0.00000000000E+00 0. -1.
          2   -1    0    0  503    0 -0.00000000000E+00 -0.00000000000E+00 -0.12618114724E+04  0.12618114724E+04  0.00000000000E+00 0. -1.
         21    1    1    2  503  502  0.80229051015E+02 -0.77948322065E+02  0.45199458337E+02  0.12064672633E+03  0.00000000000E+00 0. -1.
          2    1    1    2  501    0 -0.80229051015E+02  0.77948322065E+02 -0.12215323352E+04  0.12266433416E+04  0.00000000000E+00 0. -1.
<mgrwt>
<rscale>  2 0.11185992E+03</rscale>
<asrwt>0</asrwt>
<pdfrwt beam="1">  1       21 0.13150553E-01 0.11185992E+03</pdfrwt>
<pdfrwt beam="2">  1        2 0.19412484E+00 0.11185992E+03</pdfrwt>
<totfact> 0.12087415E+04</totfact>
</mgrwt>
</event>
<event>
 4    1  0.5006371E+003  0.1110398E+03  0.7546771E-02  0.1258656E+00
         21   -1    0    0  503  502  0.00000000000E+00  0.00000000000E+00  0.13175696874E+03  0.13175696874E+03  0.00000000000E+00 0.  1.
         -2   -1    0    0    0  501 -0.00000000000E+00 -0.00000000000E+00 -0.13252709103E+03  0.13252709103E+03  0.00000000000E+00 0. -1.
         21    1    1    2  503  501  0.65392330668E+02 -0.89742318268E+02  0.71249921691E+02  0.13193328594E+03  0.00000000000E+00 0.  1.
         -2    1    1    2    0  502 -0.65392330668E+02  0.89742318268E+02 -0.72020043983E+02  0.13235077383E+03  0.00000000000E+00 0. -1.
<mgrwt>
<rscale>  2 0.11103982E+03</rscale>
<asrwt>0</asrwt>
<pdfrwt beam="1">  1       21 0.20270303E-01 0.11103982E+03</pdfrwt>
<pdfrwt beam="2">  1       -2 0.20388783E-01 0.11103982E+03</pdfrwt>
<totfact> 0.35941380E+04</totfact>
</mgrwt>
</event>
<event>
 4    1  0.5006371E+003  0.1061095E+03  0.7546771E-02  0.1267949E+00
         -1   -1    0    0    0  501 -0.00000000000E+00  0.00000000000E+00  0.46647799572E+03  0.46647799572E+03  0.00000000000E+00 0.  1.
         21   -1    0    0  503  502  0.00000000000E+00 -0.00000000000E+00 -0.24461715614E+02  0.24461715614E+02  0.00000000000E+00 0. -1.
         21    1    1    2  503  501 -0.84476277968E+02  0.64210518696E+02  0.19271265654E+03  0.21999409137E+03  0.00000000000E+00 0. -1.
         -1    1    1    2    0  502  0.84476277968E+02 -0.64210518696E+02  0.24930362357E+03  0.27094561996E+03  0.00000000000E+00 0.  1.
<mgrwt>
<rscale>  2 0.10610953E+03</rscale>
<asrwt>0</asrwt>
<pdfrwt beam="2">  1       21 0.37633412E-02 0.10610953E+03</pdfrwt>
<pdfrwt beam="1">  1       -1 0.71765839E-01 0.10610953E+03</pdfrwt>
<totfact> 0.80512887E+04</totfact>
</mgrwt>
</event>
<event>
 4    1  0.5006371E+003  0.1166898E+03  0.7546771E-02  0.1248660E+00
         21   -1    0    0  503  502  0.00000000000E+00  0.00000000000E+00  0.21326468452E+02  0.21326468452E+02  0.00000000000E+00 0.  1.
         -1   -1    0    0    0  501 -0.00000000000E+00 -0.00000000000E+00 -0.69684537104E+03  0.69684537104E+03  0.00000000000E+00 0.  1.
         21    1    1    2  503  501  0.10256730432E+03 -0.55645895699E+02 -0.23383713202E+03  0.26133564995E+03  0.00000000000E+00 0.  1.
         -1    1    1    2    0  502 -0.10256730432E+03  0.55645895699E+02 -0.44168177056E+03  0.45683618954E+03  0.00000000000E+00 0.  1.
<mgrwt>
<rscale>  2 0.11668984E+03</rscale>
<asrwt>0</asrwt>
<pdfrwt beam="1">  1       21 0.32809955E-02 0.11668984E+03</pdfrwt>
<pdfrwt beam="2">  1       -1 0.10720697E+00 0.11668984E+03</pdfrwt>
<totfact> 0.43615744E+04</totfact>
</mgrwt>
</event>
<event>
 4    1  0.5006371E+003  0.1038787E+03  0.7546771E-02  0.1272345E+00
          1   -1    0    0  503    0 -0.00000000000E+00  0.00000000000E+00  0.16949229601E+03  0.16949229601E+03  0.00000000000E+00 0. -1.
         21   -1    0    0  501  502  0.00000000000E+00 -0.00000000000E+00 -0.84006057718E+02  0.84006057718E+02  0.00000000000E+00 0. -1.
         21    1    1    2  503  502 -0.43965590122E+02  0.94115903808E+02 -0.19626558234E+02  0.10571649943E+03  0.00000000000E+00 0. -1.
          1    1    1    2  501    0  0.43965590122E+02 -0.94115903808E+02  0.10511279652E+03  0.14778185429E+03  0.00000000000E+00 0. -1.
<mgrwt>
<rscale>  2 0.10387866E+03</rscale>
<asrwt>0</asrwt>
<pdfrwt beam="2">  1       21 0.12924009E-01 0.10387866E+03</pdfrwt>
<pdfrwt beam="1">  1        1 0.26075738E-01 0.10387866E+03</pdfrwt>
<totfact> 0.98580737E+04</totfact>
</mgrwt>
</event>
<event>
 4    1  0.5006371E+003  0.1086126E+03  0.7546771E-02  0.1263161E+00
          2   -1    0    0  502    0 -0.00000000000E+00  0.00000000000E+00  0.88329131778E+03  0.88329131778E+03  0.00000000000E+00 0.  1.
         21   -1    0    0  503  502  0.00000000000E+00 -0.00000000000E+00 -0.11559944729E+03  0.11559944729E+03  0.00000000000E+00 0.  1.
         21    1    1    2  503  501  0.10417636071E+03 -0.30724220932E+02 -0.85863388087E+02  0.13845292809E+03  0.00000000000E+00 0.  1.
          2    1    1    2  501    0 -0.10417636071E+03  0.30724220932E+02  0.85355525857E+03  0.86043783698E+03  0.00000000000E+00 0.  1.
<mgrwt>
<rscale>  2 0.10861258E+03</rscale>
<asrwt>0</asrwt>
<pdfrwt beam="2">  1       21 0.17784531E-01 0.10861258E+03</pdfrwt>
<pdfrwt beam="1">  1        2 0.13589097E+00 0.10861258E+03</pdfrwt>
<totfact> 0.11628489E+04</totfact>
</mgrwt>
</event>
<event>
 4    1  0.5006371E+003  0.1380575E+03  0.7546771E-02  0.1215967E+00
         -1   -1    0    0    0  501 -0.00000000000E+00  0.00000000000E+00  0.23617833135E+03  0.23617833135E+03  0.00000000000E+00 0.  1.
         21   -1    0    0  503  502  0.00000000000E+00 -0.00000000000E+00 -0.10085474803E+03  0.10085474803E+03  0.00000000000E+00 0. -1.
         21    1    1    2  503  501  0.80248044518E+02 -0.11233928110E+03 -0.76686761545E+01  0.13827028358E+03  0.00000000000E+00 0. -1.
         -1    1    1    2    0  502 -0.80248044518E+02  0.11233928110E+03  0.14299225947E+03  0.19876279580E+03  0.00000000000E+00 0.  1.
<mgrwt>
<rscale>  2 0.13805746E+03</rscale>
<asrwt>0</asrwt>
<pdfrwt beam="2">  1       21 0.15516115E-01 0.13805746E+03</pdfrwt>
<pdfrwt beam="1">  1       -1 0.36335128E-01 0.13805746E+03</pdfrwt>
<totfact> 0.24742736E+04</totfact>
</mgrwt>
</event>
<event>
 4    1  0.5006371E+003  0.1412426E+03  0.7546771E-02  0.1211667E+00
         21   -1    0    0  503  502  0.00000000000E+00  0.00000000000E+00  0.34887806948E+02  0.34887806948E+02  0.00000000000E+00 0.  1.
         -1   -1    0    0    0  501 -0.00000000000E+00 -0.00000000000E+00 -0.62224808605E+03  0.62224808605E+03  0.00000000000E+00 0. -1.
         21    1    1    2  503  501 -0.13055058335E+03  0.53907460365E+02 -0.20014191662E+03  0.24496174371E+03  0.00000000000E+00 0.  1.
         -1    1    1    2    0  502  0.13055058335E+03 -0.53907460365E+02 -0.38721836248E+03  0.41217414928E+03  0.00000000000E+00 0. -1.
<mgrwt>
<rscale>  2 0.14124259E+03</rscale>
<asrwt>0</asrwt>
<pdfrwt beam="1">  1       21 0.53673552E-02 0.14124259E+03</pdfrwt>
<pdfrwt beam="2">  1       -1 0.95730470E-01 0.14124259E+03</pdfrwt>
<totfact> 0.24781838E+04</totfact>
</mgrwt>
</event>
<event>
 4    1  0.5006371E+003  0.1046996E+03  0.7546771E-02  0.1270713E+00
          1   -1    0    0  503    0 -0.00000000000E+00  0.00000000000E+00  0.21831546776E+03  0.21831546776E+03  0.00000000000E+00 0.  1.
         21   -1    0    0  501  502  0.00000000000E+00 -0.00000000000E+00 -0.56148934604E+03  0.56148934604E+03  0.00000000000E+00 0. -1.
         21    1    1    2  503  502  0.86218108955E+02  0.59400784755E+02 -0.54364739203E+03  0.55363751896E+03  0.00000000000E+00 0. -1.
          1    1    1    2  501    0 -0.86218108955E+02 -0.59400784755E+02  0.20047351374E+03  0.22616729484E+03  0.00000000000E+00 0.  1.
<mgrwt>
<rscale>  2 0.10469964E+03</rscale>
<asrwt>0</asrwt>
<pdfrwt beam="2">  1       21 0.86382976E-01 0.10469964E+03</pdfrwt>
<pdfrwt beam="1">  1        1 0.33586995E-01 0.10469964E+03</pdfrwt>
<totfact> 0.17250344E+03</totfact>
</mgrwt>
</event>
<event>
 4    1  0.5006371E+003  0.1256222E+03  0.7546771E-02  0.1234100E+00
          2   -1    0    0  503    0 -0.00000000000E+00  0.00000000000E+00  0.11338316793E+04  0.11338316793E+04  0.00000000000E+00 0.  1.
         21   -1    0    0  501  502  0.00000000000E+00 -0.00000000000E+00 -0.66054192821E+02  0.66054192821E+02  0.00000000000E+00 0.  1.
         21    1    1    2  503  502  0.12495800678E+03  0.12900874157E+02  0.88724890135E+00  0.12562532875E+03  0.00000000000E+00 0.  1.
          2    1    1    2  501    0 -0.12495800678E+03 -0.12900874157E+02  0.10668902375E+04  0.10742605433E+04  0.00000000000E+00 0.  1.
<mgrwt>
<rscale>  2 0.12562220E+03</rscale>
<asrwt>0</asrwt>
<pdfrwt beam="2">  1       21 0.10162184E-01 0.12562220E+03</pdfrwt>
<pdfrwt beam="1">  1        2 0.17443563E+00 0.12562220E+03</pdfrwt>
<totfact> 0.22296510E+04</totfact>
</mgrwt>
</event>
<event>
 4    1  0.5006371E+003  0.1039625E+03  0.7546771E-02  0.1272177E+00
         21   -1    0    0  501  502  0.00000000000E+00  0.00000000000E+00  0.31772819843E+02  0.31772819843E+02  0.00000000000E+00 0. -1.
          3   -1    0    0  503    0 -0.00000000000E+00 -0.00000000000E+00 -0.56311762310E+03  0.56311762310E+03  0.00000000000E+00 0. -1.
         21    1    1    2  503  502 -0.12519686744E+02 -0.10320595453E+03 -0.78514881579E+02  0.13027969234E+03  0.00000000000E+00 0. -1.
          3    1    1    2  501    0  0.12519686744E+02  0.10320595453E+03 -0.45282992168E+03  0.46461075060E+03  0.00000000000E+00 0. -1.
<mgrwt>
<rscale>  2 0.10396255E+03</rscale>
<asrwt>0</asrwt>
<pdfrwt beam="1">  1       21 0.48881261E-02 0.10396255E+03</pdfrwt>
<pdfrwt beam="2">  1        3 0.86633481E-01 0.10396255E+03</pdfrwt>
<totfact> 0.16544501E+04</totfact>
</mgrwt>
</event>
<event>
 4    1  0.5006371E+003  0.1129620E+03  0.7546771E-02  0.1255181E+00
         21   -1    0    0  501  502  0.00000000000E+00  0.00000000000E+00  0.98877384218E+01  0.98877384218E+01  0.00000000000E+00 0.  1.
         -3   -1    0    0    0  501 -0.00000000000E+00 -0.00000000000E+00 -0.15753311632E+04  0.15753311632E+04  0.00000000000E+00 0.  1.
         21    1    1    2  503  502  0.81424853529E+02  0.78296927487E+02 -0.44571017629E+03  0.45980210621E+03  0.00000000000E+00 0.  1.
         -3    1    1    2    0  503 -0.81424853529E+02 -0.78296927487E+02 -0.11197332485E+04  0.11254167954E+04  0.00000000000E+00 0.  1.
<mgrwt>
<rscale>  2 0.11296201E+03</rscale>
<asrwt>0</asrwt>
<pdfrwt beam="1">  1       21 0.15211911E-02 0.11296201E+03</pdfrwt>
<pdfrwt beam="2">  1       -3 0.24235855E+00 0.11296201E+03</pdfrwt>
<totfact> 0.84755335E+03</totfact>
</mgrwt>
</event>
<event>
 4    1  0.5006371E+003  0.1983801E+03  0.7546771E-02  0.1151113E+00
         21   -1    0    0  503  502  0.00000000000E+00  0.00000000000E+00  0.14798880230E+03  0.14798880230E+03  0.00000000000E+00 0.  1.
          1   -1    0    0  502    0 -0.00000000000E+00 -0.00000000000E+00 -0.56707061157E+03  0.56707061157E+03  0.00000000000E+00 0.  1.
         21    1    1    2  503  501  0.13798089937E+03  0.14253399056E+03  0.51001371549E+02  0.20483116695E+03  0.00000000000E+00 0.  1.
          1    1    1    2  501    0 -0.13798089937E+03 -0.14253399056E+03 -0.47008318082E+03  0.51022824691E+03  0.00000000000E+00 0.  1.
<mgrwt>
<rscale>  2 0.19838011E+03</rscale>
<asrwt>0</asrwt>
<pdfrwt beam="1">  1       21 0.22767509E-01 0.19838011E+03</pdfrwt>
<pdfrwt beam="2">  1        1 0.87241631E-01 0.19838011E+03</pdfrwt>
<totfact> 0.76174387E+03</totfact>
</mgrwt>
</event>
<event>
 4    1  0.5006371E+003  0.1131769E+03  0.7546771E-02  0.1254797E+00
          2   -1    0    0  503    0 -0.00000000000E+00  0.00000000000E+00  0.12024751735E+04  0.12024751735E+04  0.00000000000E+00 0.  1.
         21   -1    0    0  501  502  0.00000000000E+00 -0.00000000000E+00 -0.67465630809E+02  0.67465630809E+02  0.00000000000E+00 0.  1.
         21    1    1    2  503  502  0.77374028559E+02  0.82597050446E+02 -0.15185376458E+02  0.11419110603E+03  0.00000000000E+00 0.  1.
          2    1    1    2  501    0 -0.77374028559E+02 -0.82597050446E+02  0.11501949191E+04  0.11557496983E+04  0.00000000000E+00 0.  1.
<mgrwt>
<rscale>  2 0.11317691E+03</rscale>
<asrwt>0</asrwt>
<pdfrwt beam="2">  1       21 0.10379329E-01 0.11317691E+03</pdfrwt>
<pdfrwt beam="1">  1        2 0.18499617E+00 0.11317691E+03</pdfrwt>
<totfact> 0.19745899E+04</totfact>
</mgrwt>
</event>
<event>
 4    1  0.5006371E+003  0.1601983E+03  0.7546771E-02  0.1188473E+00
          1   -1    0    0  503    0 -0.00000000000E+00  0.00000000000E+00  0.74277562384E+02  0.74277562384E+02  0.00000000000E+00 0.  1.
         21   -1    0    0  501  502  0.00000000000E+00 -0.00000000000E+00 -0.55229976133E+03  0.55229976133E+03  0.00000000000E+00 0. -1.
         21    1    1    2  503  502  0.40663866165E+02 -0.15495142927E+03 -0.43071185203E+03  0.45953911141E+03  0.00000000000E+00 0. -1.
          1    1    1    2  501    0 -0.40663866165E+02  0.15495142927E+03 -0.47310346921E+02  0.16703821230E+03  0.00000000000E+00 0.  1.
<mgrwt>
<rscale>  2 0.16019830E+03</rscale>
<asrwt>0</asrwt>
<pdfrwt beam="2">  1       21 0.84969191E-01 0.16019830E+03</pdfrwt>
<pdfrwt beam="1">  1        1 0.11427318E-01 0.16019830E+03</pdfrwt>
<totfact> 0.68995288E+03</totfact>
</mgrwt>
</event>
<event>
 4    1  0.5006371E+003  0.1018585E+03  0.7546771E-02  0.1276436E+00
         -1   -1    0    0    0  501 -0.00000000000E+00  0.00000000000E+00  0.57054017931E+02  0.57054017931E+02  0.00000000000E+00 0.  1.
         21   -1    0    0  501  502  0.00000000000E+00 -0.00000000000E+00 -0.27545183133E+03  0.27545183133E+03  0.00000000000E+00 0.  1.
         21    1    1    2  503  502 -0.35288377807E+02  0.95550396849E+02 -0.20611451503E+03  0.22990941967E+03  0.00000000000E+00 0.  1.
         -1    1    1    2    0  503  0.35288377807E+02 -0.95550396849E+02 -0.12283298369E+02  0.10259642959E+03  0.00000000000E+00 0.  1.
<mgrwt>
<rscale>  2 0.10185847E+03</rscale>
<asrwt>0</asrwt>
<pdfrwt beam="2">  1       21 0.42377205E-01 0.10185847E+03</pdfrwt>
<pdfrwt beam="1">  1       -1 0.87775411E-02 0.10185847E+03</pdfrwt>
<totfact> 0.35205150E+04</totfact>
</mgrwt>
</event>
<event>
 4    1  0.5006371E+003  0.1368423E+03  0.7546771E-02  0.1217642E+00
          2   -1    0    0  502    0 -0.00000000000E+00  0.00000000000E+00  0.11809861707E+03  0.11809861707E+03  0.00000000000E+00 0. -1.
         21   -1    0    0  503  502  0.00000000000E+00 -0.00000000000E+00 -0.19990345778E+03  0.19990345778E+03  0.00000000000E+00 0. -1.
         21    1    1    2  503  501 -0.77442412136E+02  0.11282055785E+03 -0.11321090429E+03  0.17760212364E+03  0.00000000000E+00 0. -1.
          2    1    1    2  501    0  0.77442412136E+02 -0.11282055785E+03  0.31406063581E+02  0.14039995121E+03  0.00000000000E+00 0. -1.
<mgrwt>
<rscale>  2 0.13684226E+03</rscale>
<asrwt>0</asrwt>
<pdfrwt beam="2">  1       21 0.30754378E-01 0.13684226E+03</pdfrwt>
<pdfrwt beam="1">  1        2 0.18169018E-01 0.13684226E+03</pdfrwt>
<totfact> 0.38454861E+04</totfact>
</mgrwt>
</event>
<event>
 4    1  0.5006371E+003  0.1472312E+03  0.7546771E-02  0.1203917E+00
         21   -1    0    0  501  502  0.00000000000E+00  0.00000000000E+00  0.18657449429E+03  0.18657449429E+03  0.00000000000E+00 0.  1.
          2   -1    0    0  503    0 -0.00000000000E+00 -0.00000000000E+00 -0.62684123898E+03  0.62684123898E+03  0.00000000000E+00 0. -1.
         21    1    1    2  503  502  0.11007874438E+03 -0.97773724109E+02  0.14695311828E+03  0.20801983094E+03  0.00000000000E+00 0.  1.
          2    1    1    2  501    0 -0.11007874438E+03  0.97773724109E+02 -0.58721986298E+03  0.60539590234E+03  0.00000000000E+00 0. -1.
<mgrwt>
<rscale>  2 0.14723122E+03</rscale>
<asrwt>0</asrwt>
<pdfrwt beam="1">  1       21 0.28703768E-01 0.14723122E+03</pdfrwt>
<pdfrwt beam="2">  1        2 0.96437114E-01 0.14723122E+03</pdfrwt>
<totfact> 0.71011162E+03</totfact>
</mgrwt>
</event>
<event>
 4    1  0.5006371E+003  0.1334735E+03  0.7546771E-02  0.1222391E+00
         21   -1    0    0  501  502  0.00000000000E+00  0.00000000000E+00  0.73232103013E+03  0.73232103013E+03  0.00000000000E+00 0. -1.
         -4   -1    0    0    0  501 -0.00000000000E+00 -0.00000000000E+00 -0.12281051094E+03  0.12281051094E+03  0.00000000000E+00 0. -1.
         21    1    1    2  503  502 -0.25177511055E+01 -0.13344975805E+03  0.68763898963E+03  0.70047309516E+03  0.00000000000E+00 0. -1.
         -4    1    1    2    0  503  0.25177511055E+01  0.13344975805E+03 -0.78128470437E+02  0.15465844590E+03  0.00000000000E+00 0. -1.
<mgrwt>
<rscale>  2 0.13347351E+03</rscale>
<asrwt>0</asrwt>
<pdfrwt beam="1">  1       21 0.11266477E+00 0.13347351E+03</pdfrwt>
<pdfrwt beam="2">  1       -4 0.18893925E-01 0.13347351E+03</pdfrwt>
<totfact> 0.65019719E+02</totfact>
</mgrwt>
</event>
<event>
 4    1  0.5006371E+003  0.1580930E+03  0.7546771E-02  0.1190867E+00
          2   -1    0    0  503    0 -0.00000000000E+00  0.00000000000E+00  0.12311214284E+04  0.12311214284E+04  0.00000000000E+00 0. -1.
         21   -1    0    0  501  502  0.00000000000E+00 -0.00000000000E+00 -0.24624900788E+02  0.24624900788E+02  0.00000000000E+00 0.  1.
         21    1    1    2  503  502  0.18143070326E+02 -0.15704852286E+03  0.34015745722E+03  0.37510066014E+03  0.00000000000E+00 0.  1.
          2    1    1    2  501    0 -0.18143070326E+02  0.15704852286E+03  0.86633907038E+03  0.88064566904E+03  0.00000000000E+00 0. -1.
<mgrwt>
<rscale>  2 0.15809304E+03</rscale>
<asrwt>0</asrwt>
<pdfrwt beam="2">  1       21 0.37884472E-02 0.15809304E+03</pdfrwt>
<pdfrwt beam="1">  1        2 0.18940325E+00 0.15809304E+03</pdfrwt>
<totfact> 0.10542638E+05</totfact>
</mgrwt>
</event>
<event>
 4    1  0.5006371E+003  0.1034612E+03  0.7546771E-02  0.1273181E+00
          2   -1    0    0  503    0 -0.00000000000E+00  0.00000000000E+00  0.12124302406E+03  0.12124302406E+03  0.00000000000E+00 0. -1.
         21   -1    0    0  501  502  0.00000000000E+00 -0.00000000000E+00 -0.19617131510E+03  0.19617131510E+03  0.00000000000E+00 0. -1.
         21    1    1    2  503  502  0.93236930368E+02  0.44845153602E+02 -0.15515899261E+03  0.18649001574E+03  0.00000000000E+00 0. -1.
          2    1    1    2  501    0 -0.93236930368E+02 -0.44845153602E+02  0.80230701568E+02  0.13092432341E+03  0.00000000000E+00 0. -1.
<mgrwt>
<rscale>  2 0.10346117E+03</rscale>
<asrwt>0</asrwt>
<pdfrwt beam="2">  1       21 0.30180202E-01 0.10346117E+03</pdfrwt>
<pdfrwt beam="1">  1        2 0.18652773E-01 0.10346117E+03</pdfrwt>
<totfact> 0.38565274E+04</totfact>
</mgrwt>
</event>
<event>
 4    1  0.5006371E+003  0.1242825E+03  0.7546771E-02  0.1236195E+00
          1   -1    0    0  502    0 -0.00000000000E+00  0.00000000000E+00  0.23196448930E+04  0.23196448930E+04  0.00000000000E+00 0.  1.
         21   -1    0    0  503  502  0.00000000000E+00 -0.00000000000E+00 -0.32535116499E+02  0.32535116499E+02  0.00000000000E+00 0. -1.
         21    1    1    2  503  501  0.99432192424E+02  0.74561216894E+02  0.94700263850E+02  0.15625068297E+03  0.00000000000E+00 0. -1.
          1    1    1    2  501    0 -0.99432192424E+02 -0.74561216894E+02  0.21924095127E+04  0.21959293266E+04  0.00000000000E+00 0.  1.
<mgrwt>
<rscale>  2 0.12428248E+03</rscale>
<asrwt>0</asrwt>
<pdfrwt beam="2">  1       21 0.50054044E-02 0.12428248E+03</pdfrwt>
<pdfrwt beam="1">  1        1 0.35686831E+00 0.12428248E+03</pdfrwt>
<totfact> 0.66771332E+03</totfact>
</mgrwt>
</event>
<event>
 4    1  0.5006371E+003  0.1180555E+03  0.7546771E-02  0.1246340E+00
          2   -1    0    0  503    0 -0.00000000000E+00  0.00000000000E+00  0.19272623479E+04  0.19272623479E+04  0.00000000000E+00 0. -1.
         21   -1    0    0  501  502  0.00000000000E+00 -0.00000000000E+00 -0.14958321828E+02  0.14958321828E+02  0.00000000000E+00 0.  1.
         21    1    1    2  503  502 -0.25220164231E+02  0.11533015502E+03  0.25819917601E+03  0.28390828772E+03  0.00000000000E+00 0.  1.
          2    1    1    2  501    0  0.25220164231E+02 -0.11533015502E+03  0.16541048500E+04  0.16583123820E+04  0.00000000000E+00 0. -1.
<mgrwt>
<rscale>  2 0.11805550E+03</rscale>
<asrwt>0</asrwt>
<pdfrwt beam="2">  1       21 0.23012818E-02 0.11805550E+03</pdfrwt>
<pdfrwt beam="1">  1        2 0.29650170E+00 0.11805550E+03</pdfrwt>
<totfact> 0.10381035E+05</totfact>
</mgrwt>
</event>
<event>
 4    1  0.5006371E+003  0.1240517E+03  0.7546771E-02  0.1236559E+00
          2   -1    0    0  502    0 -0.00000000000E+00  0.00000000000E+00  0.36738157996E+03  0.36738157996E+03  0.00000000000E+00 0. -1.
         21   -1    0    0  503  502  0.00000000000E+00 -0.00000000000E+00 -0.99164942037E+02  0.99164942037E+02  0.00000000000E+00 0. -1.
         21    1    1    2  503  501 -0.16337172216E+02 -0.12297119881E+03 -0.43178487638E+02  0.13135143976E+03  0.00000000000E+00 0. -1.
          2    1    1    2  501    0  0.16337172216E+02  0.12297119881E+03  0.31139512556E+03  0.33519508224E+03  0.00000000000E+00 0. -1.
<mgrwt>
<rscale>  2 0.12405168E+03</rscale>
<asrwt>0</asrwt>
<pdfrwt beam="2">  1       21 0.15256145E-01 0.12405168E+03</pdfrwt>
<pdfrwt beam="1">  1        2 0.56520242E-01 0.12405168E+03</pdfrwt>
<totfact> 0.41482628E+04</totfact>
</mgrwt>
</event>
<event>
 4    1  0.5006371E+003  0.1644161E+03  0.7546771E-02  0.1183799E+00
         21   -1    0    0  501  502  0.00000000000E+00  0.00000000000E+00  0.29397466655E+03  0.29397466655E+03  0.00000000000E+00 0. -1.
         -2   -1    0    0    0  501 -0.00000000000E+00 -0.00000000000E+00 -0.12344230325E+04  0.12344230325E+04  0.00000000000E+00 0. -1.
         21    1    1    2  503  502  0.49651267902E+02  0.15673995453E+03  0.26496017231E+03  0.31182776442E+03  0.00000000000E+00 0. -1.
         -2    1    1    2    0  503 -0.49651267902E+02 -0.15673995453E+03 -0.12054085382E+04  0.12165699346E+04  0.00000000000E+00 0. -1.
<mgrwt>
<rscale>  2 0.16441612E+03</rscale>
<asrwt>0</asrwt>
<pdfrwt beam="1">  1       21 0.45226870E-01 0.16441612E+03</pdfrwt>
<pdfrwt beam="2">  1       -2 0.18991124E+00 0.16441612E+03</pdfrwt>
<totfact> 0.66448024E+01</totfact>
</mgrwt>
</event>
<event>
 4    1  0.5006371E+003  0.1068547E+03  0.7546771E-02  0.1266508E+00
         21   -1    0    0  501  502  0.00000000000E+00  0.00000000000E+00  0.57826594729E+01  0.57826594729E+01  0.00000000000E+00 0.  1.
          2   -1    0    0  503    0 -0.00000000000E+00 -0.00000000000E+00 -0.24689196358E+04  0.24689196358E+04  0.00000000000E+00 0.  1.
         21    1    1    2  503  502  0.94271763177E+02  0.50306570076E+02 -0.67785748780E+03  0.68622787038E+03  0.00000000000E+00 0.  1.
          2    1    1    2  501    0 -0.94271763177E+02 -0.50306570076E+02 -0.17852794885E+04  0.17884744249E+04  0.00000000000E+00 0.  1.
<mgrwt>
<rscale>  2 0.10685465E+03</rscale>
<asrwt>0</asrwt>
<pdfrwt beam="1">  1       21 0.88964103E-03 0.10685465E+03</pdfrwt>
<pdfrwt beam="2">  1        2 0.37983331E+00 0.10685465E+03</pdfrwt>
<totfact> 0.24771878E+05</totfact>
</mgrwt>
</event>
<event>
 4    1  0.5006371E+003  0.1491187E+03  0.7546771E-02  0.1201560E+00
         -1   -1    0    0    0  501 -0.00000000000E+00  0.00000000000E+00  0.15734692249E+04  0.15734692249E+04  0.00000000000E+00 0. -1.
         21   -1    0    0  501  502  0.00000000000E+00 -0.00000000000E+00 -0.26590371248E+03  0.26590371248E+03  0.00000000000E+00 0. -1.
         21    1    1    2  503  502 -0.33651899677E+02 -0.14527192905E+03 -0.24113061965E+03  0.28351430203E+03  0.00000000000E+00 0. -1.
         -1    1    1    2    0  503  0.33651899677E+02  0.14527192905E+03  0.15486961321E+04  0.15558586354E+04  0.00000000000E+00 0. -1.
<mgrwt>
<rscale>  2 0.14911869E+03</rscale>
<asrwt>0</asrwt>
<pdfrwt beam="2">  1       21 0.40908264E-01 0.14911869E+03</pdfrwt>
<pdfrwt beam="1">  1       -1 0.24207218E+00 0.14911869E+03</pdfrwt>
<totfact> 0.50969682E+01</totfact>
</mgrwt>
</event>
<event>
 4    1  0.5006371E+003  0.1039577E+03  0.7546771E-02  0.1272187E+00
          2   -1    0    0  502    0 -0.00000000000E+00  0.00000000000E+00  0.22831848295E+04  0.22831848295E+04  0.00000000000E+00 0. -1.
         21   -1    0    0  503  502  0.00000000000E+00 -0.00000000000E+00 -0.13662956414E+02  0.13662956414E+02  0.00000000000E+00 0. -1.
         21    1    1    2  503  501  0.59132913799E+02  0.85501524317E+02  0.20633988461E+03  0.23104839349E+03  0.00000000000E+00 0. -1.
          2    1    1    2  501    0 -0.59132913799E+02 -0.85501524317E+02  0.20631819885E+04  0.20657993924E+04  0.00000000000E+00 0. -1.
<mgrwt>
<rscale>  2 0.10395774E+03</rscale>
<asrwt>0</asrwt>
<pdfrwt beam="2">  1       21 0.21019951E-02 0.10395774E+03</pdfrwt>
<pdfrwt beam="1">  1        2 0.35125890E+00 0.10395774E+03</pdfrwt>
<totfact> 0.79249766E+04</totfact>
</mgrwt>
</event>
<event>
 4    1  0.5006371E+003  0.1758462E+03  0.7546771E-02  0.1171885E+00
          2   -1    0    0  503    0 -0.00000000000E+00  0.00000000000E+00  0.69818027698E+03  0.69818027698E+03  0.00000000000E+00 0. -1.
         21   -1    0    0  501  502  0.00000000000E+00 -0.00000000000E+00 -0.12039473836E+03  0.12039473836E+03  0.00000000000E+00 0. -1.
         21    1    1    2  503  502 -0.70698659081E+02  0.16100802876E+03 -0.36518586389E+02  0.17959814274E+03  0.00000000000E+00 0. -1.
          2    1    1    2  501    0  0.70698659081E+02 -0.16100802876E+03  0.61430412501E+03  0.63897687261E+03  0.00000000000E+00 0. -1.
<mgrwt>
<rscale>  2 0.17584620E+03</rscale>
<asrwt>0</asrwt>
<pdfrwt beam="2">  1       21 0.18522268E-01 0.17584620E+03</pdfrwt>
<pdfrwt beam="1">  1        2 0.10741235E+00 0.17584620E+03</pdfrwt>
<totfact> 0.14181529E+04</totfact>
</mgrwt>
</event>
<event>
 4    1  0.5006371E+003  0.1331000E+03  0.7546771E-02  0.1222927E+00
         -3   -1    0    0    0  501 -0.00000000000E+00  0.00000000000E+00  0.28936096413E+02  0.28936096413E+02  0.00000000000E+00 0. -1.
         21   -1    0    0  503  502  0.00000000000E+00 -0.00000000000E+00 -0.10612595699E+04  0.10612595699E+04  0.00000000000E+00 0.  1.
         21    1    1    2  503  501 -0.12455501570E+03  0.46921771097E+02 -0.87073023135E+03  0.88084433377E+03  0.00000000000E+00 0.  1.
         -3    1    1    2    0  502  0.12455501570E+03 -0.46921771097E+02 -0.16159324216E+03  0.20935133257E+03  0.00000000000E+00 0. -1.
<mgrwt>
<rscale>  2 0.13309998E+03</rscale>
<asrwt>0</asrwt>
<pdfrwt beam="2">  1       21 0.16327067E+00 0.13309998E+03</pdfrwt>
<pdfrwt beam="1">  1       -3 0.44517081E-02 0.13309998E+03</pdfrwt>
<totfact> 0.32323207E+03</totfact>
</mgrwt>
</event>
<event>
 4    1  0.5006371E+003  0.1364304E+03  0.7546771E-02  0.1218214E+00
         21   -1    0    0  501  502  0.00000000000E+00  0.00000000000E+00  0.24292647951E+03  0.24292647951E+03  0.00000000000E+00 0.  1.
         -1   -1    0    0    0  501 -0.00000000000E+00 -0.00000000000E+00 -0.94628635516E+02  0.94628635516E+02  0.00000000000E+00 0.  1.
         21    1    1    2  503  502  0.11559329087E+03 -0.72466857762E+02  0.14777514467E+03  0.20112371255E+03  0.00000000000E+00 0.  1.
         -1    1    1    2    0  503 -0.11559329087E+03  0.72466857762E+02  0.52269932476E+00  0.13643140248E+03  0.00000000000E+00 0.  1.
<mgrwt>
<rscale>  2 0.13643040E+03</rscale>
<asrwt>0</asrwt>
<pdfrwt beam="1">  1       21 0.37373304E-01 0.13643040E+03</pdfrwt>
<pdfrwt beam="2">  1       -1 0.14558252E-01 0.13643040E+03</pdfrwt>
<totfact> 0.20940909E+04</totfact>
</mgrwt>
</event>
<event>
 4    1  0.5006371E+003  0.1594999E+03  0.7546771E-02  0.1189263E+00
          2   -1    0    0  503    0 -0.00000000000E+00  0.00000000000E+00  0.12695167350E+04  0.12695167350E+04  0.00000000000E+00 0. -1.
         21   -1    0    0  501  502  0.00000000000E+00 -0.00000000000E+00 -0.28337549747E+02  0.28337549747E+02  0.00000000000E+00 0.  1.
         21    1    1    2  503  502  0.22096599220E+02 -0.15796184106E+03  0.26942676885E+03  0.31309900464E+03  0.00000000000E+00 0.  1.
          2    1    1    2  501    0 -0.22096599220E+02  0.15796184106E+03  0.97175241639E+03  0.98475528010E+03  0.00000000000E+00 0. -1.
<mgrwt>
<rscale>  2 0.15949985E+03</rscale>
<asrwt>0</asrwt>
<pdfrwt beam="2">  1       21 0.43596240E-02 0.15949985E+03</pdfrwt>
<pdfrwt beam="1">  1        2 0.19531022E+00 0.15949985E+03</pdfrwt>
<totfact> 0.79425093E+04</totfact>
</mgrwt>
</event>
<event>
 4    1  0.5006371E+003  0.1121737E+03  0.7546771E-02  0.1256597E+00
          3   -1    0    0  503    0 -0.00000000000E+00  0.00000000000E+00  0.75582235151E+02  0.75582235151E+02  0.00000000000E+00 0. -1.
         21   -1    0    0  501  502  0.00000000000E+00 -0.00000000000E+00 -0.15685657507E+04  0.15685657507E+04  0.00000000000E+00 0. -1.
         21    1    1    2  503  502  0.50800631505E+01 -0.11205862015E+03 -0.15237168456E+04  0.15278402950E+04  0.00000000000E+00 0. -1.
          3    1    1    2  501    0 -0.50800631505E+01  0.11205862015E+03  0.30733330015E+02  0.11630769091E+03  0.00000000000E+00 0. -1.
<mgrwt>
<rscale>  2 0.11217371E+03</rscale>
<asrwt>0</asrwt>
<pdfrwt beam="2">  1       21 0.24131777E+00 0.11217371E+03</pdfrwt>
<pdfrwt beam="1">  1        3 0.11628038E-01 0.11217371E+03</pdfrwt>
<totfact> 0.22348060E+02</totfact>
</mgrwt>
</event>
<event>
 4    1  0.5006371E+003  0.2322358E+03  0.7546771E-02  0.1125076E+00
         -1   -1    0    0    0  501 -0.00000000000E+00  0.00000000000E+00  0.17867792443E+03  0.17867792443E+03  0.00000000000E+00 0. -1.
         21   -1    0    0  501  502  0.00000000000E+00 -0.00000000000E+00 -0.46698997515E+03  0.46698997515E+03  0.00000000000E+00 0. -1.
         21    1    1    2  503  502 -0.21873970531E+03 -0.78015318562E+02 -0.33613562508E+03  0.40855918428E+03  0.00000000000E+00 0. -1.
         -1    1    1    2    0  503  0.21873970531E+03  0.78015318562E+02  0.47823574355E+02  0.23710871530E+03  0.00000000000E+00 0. -1.
<mgrwt>
<rscale>  2 0.23223576E+03</rscale>
<asrwt>0</asrwt>
<pdfrwt beam="2">  1       21 0.71844611E-01 0.23223576E+03</pdfrwt>
<pdfrwt beam="1">  1       -1 0.27488912E-01 0.23223576E+03</pdfrwt>
<totfact> 0.18693029E+03</totfact>
</mgrwt>
</event>
<event>
 4    1  0.5006371E+003  0.1156276E+03  0.7546771E-02  0.1250489E+00
         -3   -1    0    0    0  501 -0.00000000000E+00  0.00000000000E+00  0.21932494784E+03  0.21932494784E+03  0.00000000000E+00 0. -1.
         21   -1    0    0  503  502  0.00000000000E+00 -0.00000000000E+00 -0.15660527612E+03  0.15660527612E+03  0.00000000000E+00 0. -1.
         21    1    1    2  503  501  0.11544789975E+03  0.64446065928E+01 -0.11553580340E+03  0.16345724939E+03  0.00000000000E+00 0. -1.
         -3    1    1    2    0  502 -0.11544789975E+03 -0.64446065928E+01  0.17825547512E+03  0.21247297457E+03  0.00000000000E+00 0. -1.
<mgrwt>
<rscale>  2 0.11562764E+03</rscale>
<asrwt>0</asrwt>
<pdfrwt beam="2">  1       21 0.24093119E-01 0.11562764E+03</pdfrwt>
<pdfrwt beam="1">  1       -3 0.33742300E-01 0.11562764E+03</pdfrwt>
<totfact> 0.67583006E+03</totfact>
</mgrwt>
</event>
<event>
 4    1  0.5006371E+003  0.1087017E+03  0.7546771E-02  0.1262993E+00
          2   -1    0    0  503    0 -0.00000000000E+00  0.00000000000E+00  0.57018664871E+02  0.57018664871E+02  0.00000000000E+00 0.  1.
         21   -1    0    0  501  502  0.00000000000E+00 -0.00000000000E+00 -0.53653033754E+03  0.53653033754E+03  0.00000000000E+00 0.  1.
         21    1    1    2  503  502  0.12110709939E+02  0.10802491648E+03 -0.47225675570E+03  0.48460550469E+03  0.00000000000E+00 0.  1.
          2    1    1    2  501    0 -0.12110709939E+02 -0.10802491648E+03 -0.72549169695E+01  0.10894349772E+03  0.00000000000E+00 0.  1.
<mgrwt>
<rscale>  2 0.10870166E+03</rscale>
<asrwt>0</asrwt>
<pdfrwt beam="2">  1       21 0.82543135E-01 0.10870166E+03</pdfrwt>
<pdfrwt beam="1">  1        2 0.87721016E-02 0.10870166E+03</pdfrwt>
<totfact> 0.11858968E+04</totfact>
</mgrwt>
</event>
<event>
 4    1  0.5006371E+003  0.2067877E+03  0.7546771E-02  0.1144135E+00
         21   -1    0    0  503  502  0.00000000000E+00  0.00000000000E+00  0.12947319131E+04  0.12947319131E+04  0.00000000000E+00 0. -1.
          1   -1    0    0  502    0 -0.00000000000E+00 -0.00000000000E+00 -0.38942414389E+02  0.38942414389E+02  0.00000000000E+00 0.  1.
         21    1    1    2  503  501 -0.11911293165E+03 -0.16903624388E+03  0.88779102560E+03  0.91155583887E+03  0.00000000000E+00 0. -1.
          1    1    1    2  501    0  0.11911293165E+03  0.16903624388E+03  0.36799847315E+03  0.42211848866E+03  0.00000000000E+00 0.  1.
<mgrwt>
<rscale>  2 0.20678767E+03</rscale>
<asrwt>0</asrwt>
<pdfrwt beam="1">  1       21 0.19918949E+00 0.20678767E+03</pdfrwt>
<pdfrwt beam="2">  1        1 0.59911417E-02 0.20678767E+03</pdfrwt>
<totfact> 0.18425689E+03</totfact>
</mgrwt>
</event>
<event>
 4    1  0.5006371E+003  0.1102940E+03  0.7546771E-02  0.1260026E+00
         21   -1    0    0  501  502  0.00000000000E+00  0.00000000000E+00  0.23507755726E+03  0.23507755726E+03  0.00000000000E+00 0.  1.
         -1   -1    0    0    0  501 -0.00000000000E+00 -0.00000000000E+00 -0.14334770835E+03  0.14334770835E+03  0.00000000000E+00 0.  1.
         21    1    1    2  503  502  0.32072766504E+02  0.10552777451E+03  0.19711722799E+03  0.22587601713E+03  0.00000000000E+00 0.  1.
         -1    1    1    2    0  503 -0.32072766504E+02 -0.10552777451E+03 -0.10538737908E+03  0.15254924849E+03  0.00000000000E+00 0.  1.
<mgrwt>
<rscale>  2 0.11029403E+03</rscale>
<asrwt>0</asrwt>
<pdfrwt beam="1">  1       21 0.36165778E-01 0.11029403E+03</pdfrwt>
<pdfrwt beam="2">  1       -1 0.22053494E-01 0.11029403E+03</pdfrwt>
<totfact> 0.11555026E+04</totfact>
</mgrwt>
</event>
<event>
 4    1  0.5006371E+003  0.1041717E+03  0.7546771E-02  0.1271760E+00
          2   -1    0    0  502    0 -0.00000000000E+00  0.00000000000E+00  0.37526539261E+04  0.37526539261E+04  0.00000000000E+00 0.  1.
         21   -1    0    0  503  502  0.00000000000E+00 -0.00000000000E+00 -0.10351828349E+02  0.10351828349E+02  0.00000000000E+00 0. -1.
         21    1    1    2  503  501 -0.90962938231E+02  0.50768880488E+02  0.27391882745E+03  0.29305845729E+03  0.00000000000E+00 0. -1.
          2    1    1    2  501    0  0.90962938231E+02 -0.50768880488E+02  0.34683832703E+04  0.34699472971E+04  0.00000000000E+00 0.  1.
<mgrwt>
<rscale>  2 0.10417166E+03</rscale>
<asrwt>0</asrwt>
<pdfrwt beam="2">  1       21 0.15925920E-02 0.10417166E+03</pdfrwt>
<pdfrwt beam="1">  1        2 0.57733029E+00 0.10417166E+03</pdfrwt>
<totfact> 0.17166306E+04</totfact>
</mgrwt>
</event>
<event>
 4    1  0.5006371E+003  0.1316711E+03  0.7546771E-02  0.1224997E+00
         -2   -1    0    0    0  501 -0.00000000000E+00  0.00000000000E+00  0.17853708904E+04  0.17853708904E+04  0.00000000000E+00 0. -1.
         21   -1    0    0  501  502  0.00000000000E+00 -0.00000000000E+00 -0.17170033819E+02  0.17170033819E+02  0.00000000000E+00 0. -1.
         21    1    1    2  503  502  0.93341558193E+02 -0.92868862010E+02  0.29005668248E+03  0.31854379773E+03  0.00000000000E+00 0. -1.
         -2    1    1    2    0  503 -0.93341558193E+02  0.92868862010E+02  0.14781441741E+04  0.14839971265E+04  0.00000000000E+00 0. -1.
<mgrwt>
<rscale>  2 0.13167108E+03</rscale>
<asrwt>0</asrwt>
<pdfrwt beam="2">  1       21 0.26415451E-02 0.13167108E+03</pdfrwt>
<pdfrwt beam="1">  1       -2 0.27467230E+00 0.13167108E+03</pdfrwt>
<totfact> 0.34039414E+03</totfact>
</mgrwt>
</event>
<event>
 4    1  0.5006371E+003  0.1114451E+03  0.7546771E-02  0.1257917E+00
         21   -1    0    0  501  502  0.00000000000E+00  0.00000000000E+00  0.11108403513E+02  0.11108403513E+02  0.00000000000E+00 0. -1.
          2   -1    0    0  503    0 -0.00000000000E+00 -0.00000000000E+00 -0.22436911385E+04  0.22436911385E+04  0.00000000000E+00 0. -1.
         21    1    1    2  503  502  0.11034785602E+03 -0.15599767882E+02 -0.31775993477E+03  0.33673636310E+03  0.00000000000E+00 0. -1.
          2    1    1    2  501    0 -0.11034785602E+03  0.15599767882E+02 -0.19148228003E+04  0.19180631790E+04  0.00000000000E+00 0. -1.
<mgrwt>
<rscale>  2 0.11144506E+03</rscale>
<asrwt>0</asrwt>
<pdfrwt beam="1">  1       21 0.17089844E-02 0.11144506E+03</pdfrwt>
<pdfrwt beam="2">  1        2 0.34518341E+00 0.11144506E+03</pdfrwt>
<totfact> 0.11558479E+05</totfact>
</mgrwt>
</event>
<event>
 4    1  0.5006371E+003  0.1484493E+03  0.7546771E-02  0.1202392E+00
         21   -1    0    0  503  502  0.00000000000E+00  0.00000000000E+00  0.11424800701E+03  0.11424800701E+03  0.00000000000E+00 0. -1.
          1   -1    0    0  502    0 -0.00000000000E+00 -0.00000000000E+00 -0.20886453237E+03  0.20886453237E+03  0.00000000000E+00 0.  1.
         21    1    1    2  503  501 -0.11458313329E+03 -0.94381649644E+02 -0.26277264964E+01  0.14847254012E+03  0.00000000000E+00 0. -1.
          1    1    1    2  501    0  0.11458313329E+03  0.94381649644E+02 -0.91988798871E+02  0.17463999926E+03  0.00000000000E+00 0.  1.
<mgrwt>
<rscale>  2 0.14844929E+03</rscale>
<asrwt>0</asrwt>
<pdfrwt beam="1">  1       21 0.17576617E-01 0.14844929E+03</pdfrwt>
<pdfrwt beam="2">  1        1 0.32133005E-01 0.14844929E+03</pdfrwt>
<totfact> 0.44129551E+04</totfact>
</mgrwt>
</event>
<event>
 4    1  0.5006371E+003  0.1506650E+03  0.7546771E-02  0.1199658E+00
         21   -1    0    0  501  502  0.00000000000E+00  0.00000000000E+00  0.13847019016E+04  0.13847019016E+04  0.00000000000E+00 0. -1.
          1   -1    0    0  503    0 -0.00000000000E+00 -0.00000000000E+00 -0.19841696377E+04  0.19841696377E+04  0.00000000000E+00 0. -1.
         21    1    1    2  503  502  0.49745871001E+01  0.15058285680E+03  0.13777289928E+04  0.13859426832E+04  0.00000000000E+00 0. -1.
          1    1    1    2  501    0 -0.49745871001E+01 -0.15058285680E+03 -0.19771967290E+04  0.19829288561E+04  0.00000000000E+00 0. -1.
<mgrwt>
<rscale>  2 0.15066500E+03</rscale>
<asrwt>0</asrwt>
<pdfrwt beam="1">  1       21 0.21303106E+00 0.15066500E+03</pdfrwt>
<pdfrwt beam="2">  1        1 0.30525687E+00 0.15066500E+03</pdfrwt>
<totfact> 0.47248494E+00</totfact>
</mgrwt>
</event>
<event>
 4    1  0.5006371E+003  0.1277953E+03  0.7546771E-02  0.1230764E+00
         21   -1    0    0  501  502  0.00000000000E+00  0.00000000000E+00  0.79887512125E+01  0.79887512125E+01  0.00000000000E+00 0. -1.
          2   -1    0    0  503    0 -0.00000000000E+00 -0.00000000000E+00 -0.29482444378E+04  0.29482444378E+04  0.00000000000E+00 0. -1.
         21    1    1    2  503  502  0.12117792044E+03 -0.40589985043E+02 -0.65168026988E+03  0.66409247054E+03  0.00000000000E+00 0. -1.
          2    1    1    2  501    0 -0.12117792044E+03  0.40589985043E+02 -0.22885754167E+04  0.22921407185E+04  0.00000000000E+00 0. -1.
<mgrwt>
<rscale>  2 0.12779529E+03</rscale>
<asrwt>0</asrwt>
<pdfrwt beam="1">  1       21 0.12290367E-02 0.12779529E+03</pdfrwt>
<pdfrwt beam="2">  1        2 0.45357678E+00 0.12779529E+03</pdfrwt>
<totfact> 0.81079889E+04</totfact>
</mgrwt>
</event>
<event>
 4    1  0.5006371E+003  0.1028952E+03  0.7546771E-02  0.1274323E+00
         -2   -1    0    0    0  501 -0.00000000000E+00  0.00000000000E+00  0.51525555280E+02  0.51525555280E+02  0.00000000000E+00 0. -1.
         21   -1    0    0  503  502  0.00000000000E+00 -0.00000000000E+00 -0.21115220212E+03  0.21115220212E+03  0.00000000000E+00 0.  1.
         21    1    1    2  503  501  0.25330118398E+02  0.99728633948E+02 -0.10134177424E+03  0.14442150302E+03  0.00000000000E+00 0.  1.
         -2    1    1    2    0  502 -0.25330118398E+02 -0.99728633948E+02 -0.58284872602E+02  0.11825625439E+03  0.00000000000E+00 0. -1.
<mgrwt>
<rscale>  2 0.10289517E+03</rscale>
<asrwt>0</asrwt>
<pdfrwt beam="2">  1       21 0.32484953E-01 0.10289517E+03</pdfrwt>
<pdfrwt beam="1">  1       -2 0.79270087E-02 0.10289517E+03</pdfrwt>
<totfact> 0.66775189E+04</totfact>
</mgrwt>
</event>
<event>
 4    1  0.5006371E+003  0.1294911E+03  0.7546771E-02  0.1228213E+00
         21   -1    0    0  501  502  0.00000000000E+00  0.00000000000E+00  0.58051082458E+02  0.58051082458E+02  0.00000000000E+00 0. -1.
          2   -1    0    0  503    0 -0.00000000000E+00 -0.00000000000E+00 -0.35236417157E+03  0.35236417157E+03  0.00000000000E+00 0. -1.
         21    1    1    2  503  502  0.91719612558E+02  0.91408229214E+02 -0.60032297149E+02  0.14272991416E+03  0.00000000000E+00 0. -1.
          2    1    1    2  501    0 -0.91719612558E+02 -0.91408229214E+02 -0.23428079196E+03  0.26768533986E+03  0.00000000000E+00 0. -1.
<mgrwt>
<rscale>  2 0.12949113E+03</rscale>
<asrwt>0</asrwt>
<pdfrwt beam="1">  1       21 0.89309356E-02 0.12949113E+03</pdfrwt>
<pdfrwt beam="2">  1        2 0.54209874E-01 0.12949113E+03</pdfrwt>
<totfact> 0.11186835E+05</totfact>
</mgrwt>
</event>
<event>
 4    1  0.5006371E+003  0.1205356E+03  0.7546771E-02  0.1242216E+00
          2   -1    0    0  503    0 -0.00000000000E+00  0.00000000000E+00  0.24386730107E+03  0.24386730107E+03  0.00000000000E+00 0. -1.
         21   -1    0    0  501  502  0.00000000000E+00 -0.00000000000E+00 -0.66443820948E+02  0.66443820948E+02  0.00000000000E+00 0.  1.
         21    1    1    2  503  502  0.66539839132E+02 -0.10050507646E+03  0.38831802974E+02  0.12663620931E+03  0.00000000000E+00 0.  1.
          2    1    1    2  501    0 -0.66539839132E+02  0.10050507646E+03  0.13859167715E+03  0.18367491271E+03  0.00000000000E+00 0. -1.
<mgrwt>
<rscale>  2 0.12053556E+03</rscale>
<asrwt>0</asrwt>
<pdfrwt beam="2">  1       21 0.10222126E-01 0.12053556E+03</pdfrwt>
<pdfrwt beam="1">  1        2 0.37518046E-01 0.12053556E+03</pdfrwt>
<totfact> 0.13016104E+05</totfact>
</mgrwt>
</event>
<event>
 4    1  0.5006371E+003  0.1706409E+03  0.7546771E-02  0.1177181E+00
         21   -1    0    0  503  502  0.00000000000E+00  0.00000000000E+00  0.89985242043E+03  0.89985242043E+03  0.00000000000E+00 0.  1.
          4   -1    0    0  502    0 -0.00000000000E+00 -0.00000000000E+00 -0.14877378089E+03  0.14877378089E+03  0.00000000000E+00 0. -1.
         21    1    1    2  503  501 -0.16837340977E+03  0.27725821332E+02  0.83934019940E+03  0.85651053503E+03  0.00000000000E+00 0.  1.
          4    1    1    2  501    0  0.16837340977E+03 -0.27725821332E+02 -0.88261559865E+02  0.19211566629E+03  0.00000000000E+00 0. -1.
<mgrwt>
<rscale>  2 0.17064093E+03</rscale>
<asrwt>0</asrwt>
<pdfrwt beam="1">  1       21 0.13843883E+00 0.17064093E+03</pdfrwt>
<pdfrwt beam="2">  1        4 0.22888274E-01 0.17064093E+03</pdfrwt>
<totfact> 0.27454002E+02</totfact>
</mgrwt>
</event>
<event>
 4    1  0.5006371E+003  0.1210290E+03  0.7546771E-02  0.1241409E+00
          1   -1    0    0  503    0 -0.00000000000E+00  0.00000000000E+00  0.16368584323E+04  0.16368584323E+04  0.00000000000E+00 0.  1.
         21   -1    0    0  501  502  0.00000000000E+00 -0.00000000000E+00 -0.10793138350E+02  0.10793138350E+02  0.00000000000E+00 0.  1.
         21    1    1    2  503  502 -0.36923012473E+02  0.11525936170E+03  0.47248815988E+03  0.48774285288E+03  0.00000000000E+00 0.  1.
          1    1    1    2  501    0  0.36923012473E+02 -0.11525936170E+03  0.11535771340E+04  0.11599087177E+04  0.00000000000E+00 0.  1.
<mgrwt>
<rscale>  2 0.12102904E+03</rscale>
<asrwt>0</asrwt>
<pdfrwt beam="2">  1       21 0.16604841E-02 0.12102904E+03</pdfrwt>
<pdfrwt beam="1">  1        1 0.25182418E+00 0.12102904E+03</pdfrwt>
<totfact> 0.11044281E+05</totfact>
</mgrwt>
</event>
<event>
 4    1  0.5006371E+003  0.1705034E+03  0.7546771E-02  0.1177324E+00
         21   -1    0    0  503  502  0.00000000000E+00  0.00000000000E+00  0.55586537918E+03  0.55586537918E+03  0.00000000000E+00 0.  1.
          1   -1    0    0  502    0 -0.00000000000E+00 -0.00000000000E+00 -0.63072485105E+03  0.63072485105E+03  0.00000000000E+00 0. -1.
         21    1    1    2  503  501  0.92230109299E+02 -0.14340506011E+03  0.53073531083E+03  0.55745078212E+03  0.00000000000E+00 0.  1.
          1    1    1    2  501    0 -0.92230109299E+02  0.14340506011E+03 -0.60559478270E+03  0.62913944811E+03  0.00000000000E+00 0. -1.
<mgrwt>
<rscale>  2 0.17050339E+03</rscale>
<asrwt>0</asrwt>
<pdfrwt beam="1">  1       21 0.85517750E-01 0.17050339E+03</pdfrwt>
<pdfrwt beam="2">  1        1 0.97034593E-01 0.17050339E+03</pdfrwt>
<totfact> 0.43705064E+02</totfact>
</mgrwt>
</event>
<event>
 4    1  0.5006371E+003  0.1042300E+03  0.7546771E-02  0.1271644E+00
          1   -1    0    0  502    0 -0.00000000000E+00  0.00000000000E+00  0.19493169640E+04  0.19493169640E+04  0.00000000000E+00 0. -1.
         21   -1    0    0  503  502  0.00000000000E+00 -0.00000000000E+00 -0.82118663708E+02  0.82118663708E+02  0.00000000000E+00 0. -1.
         21    1    1    2  503  501 -0.10251411930E+03 -0.18834688661E+02 -0.47046089359E+02  0.11435569368E+03  0.00000000000E+00 0. -1.
          1    1    1    2  501    0  0.10251411930E+03  0.18834688661E+02  0.19142443897E+04  0.19170799341E+04  0.00000000000E+00 0. -1.
<mgrwt>
<rscale>  2 0.10422999E+03</rscale>
<asrwt>0</asrwt>
<pdfrwt beam="2">  1       21 0.12633642E-01 0.10422999E+03</pdfrwt>
<pdfrwt beam="1">  1        1 0.29989488E+00 0.10422999E+03</pdfrwt>
<totfact> 0.23700839E+03</totfact>
</mgrwt>
</event>
<event>
 4    1  0.5006371E+003  0.1167830E+03  0.7546771E-02  0.1248500E+00
          3   -1    0    0  503    0 -0.00000000000E+00  0.00000000000E+00  0.51911288394E+02  0.51911288394E+02  0.00000000000E+00 0.  1.
         21   -1    0    0  501  502  0.00000000000E+00 -0.00000000000E+00 -0.34062113392E+03  0.34062113392E+03  0.00000000000E+00 0. -1.
         21    1    1    2  503  502  0.99207018438E+01  0.11636083013E+03 -0.23821365487E+03  0.26529984636E+03  0.00000000000E+00 0. -1.
          3    1    1    2  501    0 -0.99207018438E+01 -0.11636083013E+03 -0.50496190657E+02  0.12723257595E+03  0.00000000000E+00 0.  1.
<mgrwt>
<rscale>  2 0.11678297E+03</rscale>
<asrwt>0</asrwt>
<pdfrwt beam="2">  1       21 0.52403251E-01 0.11678297E+03</pdfrwt>
<pdfrwt beam="1">  1        3 0.79863522E-02 0.11678297E+03</pdfrwt>
<totfact> 0.17695135E+04</totfact>
</mgrwt>
</event>
<event>
 4    1  0.5006371E+003  0.1101182E+03  0.7546771E-02  0.1260351E+00
          2   -1    0    0  503    0 -0.00000000000E+00  0.00000000000E+00  0.11267634571E+04  0.11267634571E+04  0.00000000000E+00 0.  1.
         21   -1    0    0  501  502  0.00000000000E+00 -0.00000000000E+00 -0.18937312068E+02  0.18937312068E+02  0.00000000000E+00 0.  1.
         21    1    1    2  503  502  0.70137323479E+02 -0.84892674003E+02  0.17752196745E+03  0.20890203247E+03  0.00000000000E+00 0.  1.
          2    1    1    2  501    0 -0.70137323479E+02  0.84892674003E+02  0.93030417759E+03  0.93679873670E+03  0.00000000000E+00 0.  1.
<mgrwt>
<rscale>  2 0.11011816E+03</rscale>
<asrwt>0</asrwt>
<pdfrwt beam="2">  1       21 0.29134335E-02 0.11011816E+03</pdfrwt>
<pdfrwt beam="1">  1        2 0.17334817E+00 0.11011816E+03</pdfrwt>
<totfact> 0.18488130E+05</totfact>
</mgrwt>
</event>
<event>
 4    1  0.5006371E+003  0.1126047E+03  0.7546771E-02  0.1255821E+00
         21   -1    0    0  503  502  0.00000000000E+00  0.00000000000E+00  0.66343632134E+02  0.66343632134E+02  0.00000000000E+00 0.  1.
          2   -1    0    0  502    0 -0.00000000000E+00 -0.00000000000E+00 -0.20847482506E+04  0.20847482506E+04  0.00000000000E+00 0.  1.
         21    1    1    2  503  501 -0.47885112497E+02 -0.10191584734E+03  0.15857304323E+02  0.11371577743E+03  0.00000000000E+00 0.  1.
          2    1    1    2  501    0  0.47885112497E+02  0.10191584734E+03 -0.20342619228E+04  0.20373761053E+04  0.00000000000E+00 0.  1.
<mgrwt>
<rscale>  2 0.11260472E+03</rscale>
<asrwt>0</asrwt>
<pdfrwt beam="1">  1       21 0.10206711E-01 0.11260472E+03</pdfrwt>
<pdfrwt beam="2">  1        2 0.32073054E+00 0.11260472E+03</pdfrwt>
<totfact> 0.71317885E+03</totfact>
</mgrwt>
</event>
<event>
 4    1  0.5006371E+003  0.1025736E+03  0.7546771E-02  0.1274975E+00
         -1   -1    0    0    0  501 -0.00000000000E+00  0.00000000000E+00  0.46219396649E+03  0.46219396649E+03  0.00000000000E+00 0.  1.
         21   -1    0    0  503  502  0.00000000000E+00 -0.00000000000E+00 -0.29812742507E+02  0.29812742507E+02  0.00000000000E+00 0.  1.
         21    1    1    2  503  501  0.28203386345E+02 -0.98620033851E+02  0.96572031228E+02  0.14088115308E+03  0.00000000000E+00 0.  1.
         -1    1    1    2    0  502 -0.28203386345E+02  0.98620033851E+02  0.33580919276E+03  0.35112555592E+03  0.00000000000E+00 0.  1.
<mgrwt>
<rscale>  2 0.10257359E+03</rscale>
<asrwt>0</asrwt>
<pdfrwt beam="2">  1       21 0.45865761E-02 0.10257359E+03</pdfrwt>
<pdfrwt beam="1">  1       -1 0.71106759E-01 0.10257359E+03</pdfrwt>
<totfact> 0.58994286E+04</totfact>
</mgrwt>
</event>
<event>
 4    1  0.5006371E+003  0.1003501E+03  0.7546771E-02  0.1279561E+00
          2   -1    0    0  502    0 -0.00000000000E+00  0.00000000000E+00  0.13335095707E+03  0.13335095707E+03  0.00000000000E+00 0.  1.
         21   -1    0    0  503  502  0.00000000000E+00 -0.00000000000E+00 -0.13588386557E+03  0.13588386557E+03  0.00000000000E+00 0. -1.
         21    1    1    2  503  501 -0.61025263036E+02 -0.79662208156E+02 -0.90992737680E+02  0.13546153863E+03  0.00000000000E+00 0. -1.
          2    1    1    2  501    0  0.61025263036E+02  0.79662208156E+02  0.88459829186E+02  0.13377328402E+03  0.00000000000E+00 0.  1.
<mgrwt>
<rscale>  2 0.10035014E+03</rscale>
<asrwt>0</asrwt>
<pdfrwt beam="2">  1       21 0.20905210E-01 0.10035014E+03</pdfrwt>
<pdfrwt beam="1">  1        2 0.20515532E-01 0.10035014E+03</pdfrwt>
<totfact> 0.69047152E+04</totfact>
</mgrwt>
</event>
<event>
 4    1  0.5006371E+003  0.2621777E+03  0.7546771E-02  0.1105842E+00
         -2   -1    0    0    0  501 -0.00000000000E+00  0.00000000000E+00  0.64901437323E+02  0.64901437323E+02  0.00000000000E+00 0.  1.
         21   -1    0    0  503  502  0.00000000000E+00 -0.00000000000E+00 -0.10592547836E+04  0.10592547836E+04  0.00000000000E+00 0.  1.
         21    1    1    2  503  501  0.25995715569E+03  0.34050515821E+02 -0.50395489271E+03  0.56807366979E+03  0.00000000000E+00 0.  1.
         -2    1    1    2    0  502 -0.25995715569E+03 -0.34050515821E+02 -0.49039845361E+03  0.55608255118E+03  0.00000000000E+00 0.  1.
<mgrwt>
<rscale>  2 0.26217773E+03</rscale>
<asrwt>0</asrwt>
<pdfrwt beam="2">  1       21 0.16296227E+00 0.26217773E+03</pdfrwt>
<pdfrwt beam="1">  1       -2 0.99848368E-02 0.26217773E+03</pdfrwt>
<totfact> 0.12144622E+03</totfact>
</mgrwt>
</event>
<event>
 4    1  0.5006371E+003  0.1026436E+03  0.7546771E-02  0.1274833E+00
         21   -1    0    0  503  502  0.00000000000E+00  0.00000000000E+00  0.87773880550E+01  0.87773880550E+01  0.00000000000E+00 0.  1.
          2   -1    0    0  502    0 -0.00000000000E+00 -0.00000000000E+00 -0.12526873186E+04  0.12526873186E+04  0.00000000000E+00 0.  1.
         21    1    1    2  503  501  0.92921448801E+02  0.43604143384E+02 -0.49300125560E+03  0.50357318732E+03  0.00000000000E+00 0.  1.
          2    1    1    2  501    0 -0.92921448801E+02 -0.43604143384E+02 -0.75090867494E+03  0.75789151933E+03  0.00000000000E+00 0.  1.
<mgrwt>
<rscale>  2 0.10264364E+03</rscale>
<asrwt>0</asrwt>
<pdfrwt beam="1">  1       21 0.13503691E-02 0.10264364E+03</pdfrwt>
<pdfrwt beam="2">  1        2 0.19272088E+00 0.10264364E+03</pdfrwt>
<totfact> 0.54067209E+05</totfact>
</mgrwt>
</event>
<event>
 4    1  0.5006371E+003  0.1047770E+03  0.7546771E-02  0.1270560E+00
         21   -1    0    0  503  502  0.00000000000E+00  0.00000000000E+00  0.61348650481E+02  0.61348650481E+02  0.00000000000E+00 0.  1.
         -1   -1    0    0    0  501 -0.00000000000E+00 -0.00000000000E+00 -0.18477322365E+03  0.18477322365E+03  0.00000000000E+00 0. -1.
         21    1    1    2  503  501 -0.10085843825E+03  0.28386386822E+02 -0.39861799437E+02  0.11210341019E+03  0.00000000000E+00 0.  1.
         -1    1    1    2    0  502  0.10085843825E+03 -0.28386386822E+02 -0.83562773737E+02  0.13401846394E+03  0.00000000000E+00 0. -1.
<mgrwt>
<rscale>  2 0.10477696E+03</rscale>
<asrwt>0</asrwt>
<pdfrwt beam="1">  1       21 0.94382540E-02 0.10477696E+03</pdfrwt>
<pdfrwt beam="2">  1       -1 0.28426649E-01 0.10477696E+03</pdfrwt>
<totfact> 0.89493437E+04</totfact>
</mgrwt>
</event>
<event>
 4    1  0.5006371E+003  0.1037256E+03  0.7546771E-02  0.1272651E+00
         -3   -1    0    0    0  501 -0.00000000000E+00  0.00000000000E+00  0.21204199879E+03  0.21204199879E+03  0.00000000000E+00 0. -1.
         21   -1    0    0  503  502  0.00000000000E+00 -0.00000000000E+00 -0.71658457909E+02  0.71658457909E+02  0.00000000000E+00 0.  1.
         21    1    1    2  503  501  0.10369790485E+03 -0.23960761913E+01 -0.64493502238E+01  0.10392589075E+03  0.00000000000E+00 0.  1.
         -3    1    1    2    0  502 -0.10369790485E+03  0.23960761913E+01  0.14683289110E+03  0.17977456594E+03  0.00000000000E+00 0. -1.
<mgrwt>
<rscale>  2 0.10372558E+03</rscale>
<asrwt>0</asrwt>
<pdfrwt beam="2">  1       21 0.11024378E-01 0.10372558E+03</pdfrwt>
<pdfrwt beam="1">  1       -3 0.32621846E-01 0.10372558E+03</pdfrwt>
<totfact> 0.29382088E+04</totfact>
</mgrwt>
</event>
<event>
 4    1  0.5006371E+003  0.1062436E+03  0.7546771E-02  0.1267689E+00
         21   -1    0    0  503  502  0.00000000000E+00  0.00000000000E+00  0.11628717064E+03  0.11628717064E+03  0.00000000000E+00 0.  1.
         -3   -1    0    0    0  501 -0.00000000000E+00 -0.00000000000E+00 -0.11918872733E+03  0.11918872733E+03  0.00000000000E+00 0.  1.
         21    1    1    2  503  501  0.88760910246E+02 -0.58388463077E+02  0.49271984836E+02  0.11711293822E+03  0.00000000000E+00 0.  1.
         -3    1    1    2    0  502 -0.88760910246E+02  0.58388463077E+02 -0.52173541524E+02  0.11836295976E+03  0.00000000000E+00 0.  1.
<mgrwt>
<rscale>  2 0.10624364E+03</rscale>
<asrwt>0</asrwt>
<pdfrwt beam="1">  1       21 0.17890334E-01 0.10624364E+03</pdfrwt>
<pdfrwt beam="2">  1       -3 0.18336727E-01 0.10624364E+03</pdfrwt>
<totfact> 0.34884218E+04</totfact>
</mgrwt>
</event>
<event>
 4    1  0.5006371E+003  0.1010909E+03  0.7546771E-02  0.1278018E+00
         21   -1    0    0  501  502  0.00000000000E+00  0.00000000000E+00  0.49413422747E+03  0.49413422747E+03  0.00000000000E+00 0. -1.
          1   -1    0    0  503    0 -0.00000000000E+00 -0.00000000000E+00 -0.30226175433E+02  0.30226175433E+02  0.00000000000E+00 0. -1.
         21    1    1    2  503  502  0.54223164442E+02 -0.85318379963E+02  0.37928417075E+03  0.39252497972E+03  0.00000000000E+00 0. -1.
          1    1    1    2  501    0 -0.54223164442E+02  0.85318379963E+02  0.84623881284E+02  0.13183542318E+03  0.00000000000E+00 0. -1.
<mgrwt>
<rscale>  2 0.10109094E+03</rscale>
<asrwt>0</asrwt>
<pdfrwt beam="1">  1       21 0.76020644E-01 0.10109094E+03</pdfrwt>
<pdfrwt beam="2">  1        1 0.46501812E-02 0.10109094E+03</pdfrwt>
<totfact> 0.29743868E+04</totfact>
</mgrwt>
</event>
<event>
 4    1  0.5006371E+003  0.1227556E+03  0.7546771E-02  0.1238619E+00
         21   -1    0    0  503  502  0.00000000000E+00  0.00000000000E+00  0.16759384802E+02  0.16759384802E+02  0.00000000000E+00 0.  1.
          2   -1    0    0  502    0 -0.00000000000E+00 -0.00000000000E+00 -0.14888507051E+04  0.14888507051E+04  0.00000000000E+00 0.  1.
         21    1    1    2  503  501 -0.46970617625E+02 -0.11341381100E+03 -0.26226351710E+03  0.28957051619E+03  0.00000000000E+00 0.  1.
          2    1    1    2  501    0  0.46970617625E+02  0.11341381100E+03 -0.12098278032E+04  0.12160395737E+04  0.00000000000E+00 0.  1.
<mgrwt>
<rscale>  2 0.12275558E+03</rscale>
<asrwt>0</asrwt>
<pdfrwt beam="1">  1       21 0.25783676E-02 0.12275558E+03</pdfrwt>
<pdfrwt beam="2">  1        2 0.22905389E+00 0.12275558E+03</pdfrwt>
<totfact> 0.14452314E+05</totfact>
</mgrwt>
</event>
<event>
 4    1  0.5006371E+003  0.1139662E+03  0.7546771E-02  0.1253396E+00
          2   -1    0    0  503    0 -0.00000000000E+00  0.00000000000E+00  0.30643852883E+04  0.30643852883E+04  0.00000000000E+00 0.  1.
         21   -1    0    0  501  502  0.00000000000E+00 -0.00000000000E+00 -0.39682798967E+02  0.39682798967E+02  0.00000000000E+00 0. -1.
         21    1    1    2  503  502 -0.10818072720E+03  0.35850121003E+02  0.45542526730E+02  0.12272906198E+03  0.00000000000E+00 0. -1.
          2    1    1    2  501    0  0.10818072720E+03 -0.35850121003E+02  0.29791599626E+04  0.29813390253E+04  0.00000000000E+00 0.  1.
<mgrwt>
<rscale>  2 0.11396623E+03</rscale>
<asrwt>0</asrwt>
<pdfrwt beam="2">  1       21 0.61050484E-02 0.11396623E+03</pdfrwt>
<pdfrwt beam="1">  1        2 0.47144370E+00 0.11396623E+03</pdfrwt>
<totfact> 0.51095012E+03</totfact>
</mgrwt>
</event>
<event>
 4    1  0.5006371E+003  0.2553302E+03  0.7546771E-02  0.1109982E+00
          2   -1    0    0  503    0 -0.00000000000E+00  0.00000000000E+00  0.74426191066E+03  0.74426191066E+03  0.00000000000E+00 0.  1.
         21   -1    0    0  501  502  0.00000000000E+00 -0.00000000000E+00 -0.16998482185E+03  0.16998482185E+03  0.00000000000E+00 0. -1.
         21    1    1    2  503  502 -0.25255806195E+03 -0.37522198842E+02 -0.31109393499E+02  0.25721835943E+03  0.00000000000E+00 0. -1.
          2    1    1    2  501    0  0.25255806195E+03  0.37522198842E+02  0.60538648232E+03  0.65702837308E+03  0.00000000000E+00 0.  1.
<mgrwt>
<rscale>  2 0.25533016E+03</rscale>
<asrwt>0</asrwt>
<pdfrwt beam="2">  1       21 0.26151511E-01 0.25533016E+03</pdfrwt>
<pdfrwt beam="1">  1        2 0.11450183E+00 0.25533016E+03</pdfrwt>
<totfact> 0.66972754E+03</totfact>
</mgrwt>
</event>
<event>
 4    1  0.5006371E+003  0.1092572E+03  0.7546771E-02  0.1261952E+00
          1   -1    0    0  503    0 -0.00000000000E+00  0.00000000000E+00  0.16728123120E+03  0.16728123120E+03  0.00000000000E+00 0. -1.
         21   -1    0    0  501  502  0.00000000000E+00 -0.00000000000E+00 -0.23359418928E+04  0.23359418928E+04  0.00000000000E+00 0.  1.
         21    1    1    2  503  502 -0.82542928222E+02  0.71580663335E+02 -0.23166761601E+04  0.23192510768E+04  0.00000000000E+00 0.  1.
          1    1    1    2  501    0  0.82542928222E+02 -0.71580663335E+02  0.14801549850E+03  0.18397204722E+03  0.00000000000E+00 0. -1.
<mgrwt>
<rscale>  2 0.10925716E+03</rscale>
<asrwt>0</asrwt>
<pdfrwt beam="2">  1       21 0.35937566E+00 0.10925716E+03</pdfrwt>
<pdfrwt beam="1">  1        1 0.25735575E-01 0.10925716E+03</pdfrwt>
<totfact> 0.35911732E+01</totfact>
</mgrwt>
</event>
<event>
 4    1  0.5006371E+003  0.1229830E+03  0.7546771E-02  0.1238256E+00
         21   -1    0    0  503  502  0.00000000000E+00  0.00000000000E+00  0.44079252564E+02  0.44079252564E+02  0.00000000000E+00 0.  1.
          2   -1    0    0  502    0 -0.00000000000E+00 -0.00000000000E+00 -0.13220422784E+04  0.13220422784E+04  0.00000000000E+00 0.  1.
         21    1    1    2  503  501 -0.74388069402E+02  0.97934878249E+02 -0.51209365088E+02  0.13321870860E+03  0.00000000000E+00 0.  1.
          2    1    1    2  501    0  0.74388069402E+02 -0.97934878249E+02 -0.12267536608E+04  0.12329028224E+04  0.00000000000E+00 0.  1.
<mgrwt>
<rscale>  2 0.12298303E+03</rscale>
<asrwt>0</asrwt>
<pdfrwt beam="1">  1       21 0.67814237E-02 0.12298303E+03</pdfrwt>
<pdfrwt beam="2">  1        2 0.20339111E+00 0.12298303E+03</pdfrwt>
<totfact> 0.35384292E+04</totfact>
</mgrwt>
</event>
<event>
 4    1  0.5006371E+003  0.1135091E+03  0.7546771E-02  0.1254206E+00
          2   -1    0    0  503    0 -0.00000000000E+00  0.00000000000E+00  0.53348537282E+03  0.53348537282E+03  0.00000000000E+00 0.  1.
         21   -1    0    0  501  502  0.00000000000E+00 -0.00000000000E+00 -0.11895967586E+03  0.11895967586E+03  0.00000000000E+00 0. -1.
         21    1    1    2  503  502 -0.10797856501E+03 -0.34999093453E+02 -0.83968191718E+02  0.14119123296E+03  0.00000000000E+00 0. -1.
          2    1    1    2  501    0  0.10797856501E+03  0.34999093453E+02  0.49849388868E+03  0.51125381573E+03  0.00000000000E+00 0.  1.
<mgrwt>
<rscale>  2 0.11350906E+03</rscale>
<asrwt>0</asrwt>
<pdfrwt beam="2">  1       21 0.18301489E-01 0.11350906E+03</pdfrwt>
<pdfrwt beam="1">  1        2 0.82074671E-01 0.11350906E+03</pdfrwt>
<totfact> 0.19960031E+04</totfact>
</mgrwt>
</event>
<event>
 4    1  0.5006371E+003  0.1020103E+03  0.7546771E-02  0.1276124E+00
         21   -1    0    0  501  502  0.00000000000E+00  0.00000000000E+00  0.16024570193E+03  0.16024570193E+03  0.00000000000E+00 0.  1.
          1   -1    0    0  503    0 -0.00000000000E+00 -0.00000000000E+00 -0.12237110946E+03  0.12237110946E+03  0.00000000000E+00 0. -1.
         21    1    1    2  503  502  0.17217189904E+02  0.10054689841E+03  0.11574455948E+03  0.15428192848E+03  0.00000000000E+00 0.  1.
          1    1    1    2  501    0 -0.17217189904E+02 -0.10054689841E+03 -0.77869967002E+02  0.12833488290E+03  0.00000000000E+00 0. -1.
<mgrwt>
<rscale>  2 0.10201034E+03</rscale>
<asrwt>0</asrwt>
<pdfrwt beam="1">  1       21 0.24653185E-01 0.10201034E+03</pdfrwt>
<pdfrwt beam="2">  1        1 0.18826325E-01 0.10201034E+03</pdfrwt>
<totfact> 0.45740243E+04</totfact>
</mgrwt>
</event>
<event>
 4    1  0.5006371E+003  0.1216736E+03  0.7546771E-02  0.1240361E+00
         21   -1    0    0  501  502  0.00000000000E+00  0.00000000000E+00  0.35049532409E+03  0.35049532409E+03  0.00000000000E+00 0.  1.
          1   -1    0    0  503    0 -0.00000000000E+00 -0.00000000000E+00 -0.17457915961E+03  0.17457915961E+03  0.00000000000E+00 0.  1.
         21    1    1    2  503  502  0.11865345040E+03 -0.26940967846E+02  0.31653958538E+03  0.33911910319E+03  0.00000000000E+00 0.  1.
          1    1    1    2  501    0 -0.11865345040E+03  0.26940967846E+02 -0.14062342089E+03  0.18595538052E+03  0.00000000000E+00 0.  1.
<mgrwt>
<rscale>  2 0.12167357E+03</rscale>
<asrwt>0</asrwt>
<pdfrwt beam="1">  1       21 0.53922357E-01 0.12167357E+03</pdfrwt>
<pdfrwt beam="2">  1        1 0.26858332E-01 0.12167357E+03</pdfrwt>
<totfact> 0.62552306E+03</totfact>
</mgrwt>
</event>
<event>
 4    1  0.5006371E+003  0.1000276E+03  0.7546771E-02  0.1280238E+00
         21   -1    0    0  503  502  0.00000000000E+00  0.00000000000E+00  0.45855722414E+02  0.45855722414E+02  0.00000000000E+00 0.  1.
          3   -1    0    0  502    0 -0.00000000000E+00 -0.00000000000E+00 -0.21909911501E+03  0.21909911501E+03  0.00000000000E+00 0.  1.
         21    1    1    2  503  501  0.95463686150E+02 -0.29869938764E+02 -0.78115651963E+02  0.12691565584E+03  0.00000000000E+00 0.  1.
          3    1    1    2  501    0 -0.95463686150E+02  0.29869938764E+02 -0.95127740632E+02  0.13803918159E+03  0.00000000000E+00 0.  1.
<mgrwt>
<rscale>  2 0.10002764E+03</rscale>
<asrwt>0</asrwt>
<pdfrwt beam="1">  1       21 0.70547267E-02 0.10002764E+03</pdfrwt>
<pdfrwt beam="2">  1        3 0.33707555E-01 0.10002764E+03</pdfrwt>
<totfact> 0.59468464E+04</totfact>
</mgrwt>
</event>
<event>
 4    1  0.5006371E+003  0.1090607E+03  0.7546771E-02  0.1262319E+00
          4   -1    0    0  503    0 -0.00000000000E+00  0.00000000000E+00  0.79069679982E+01  0.79069679982E+01  0.00000000000E+00 0.  1.
         21   -1    0    0  501  502  0.00000000000E+00 -0.00000000000E+00 -0.15449723566E+04  0.15449723566E+04  0.00000000000E+00 0.  1.
         21    1    1    2  503  502 -0.50551368099E+02  0.96637452143E+02 -0.89455327120E+03  0.90117689329E+03  0.00000000000E+00 0.  1.
          4    1    1    2  501    0  0.50551368099E+02 -0.96637452143E+02 -0.64251211738E+03  0.65170243129E+03  0.00000000000E+00 0.  1.
<mgrwt>
<rscale>  2 0.10906071E+03</rscale>
<asrwt>0</asrwt>
<pdfrwt beam="2">  1       21 0.23768776E+00 0.10906071E+03</pdfrwt>
<pdfrwt beam="1">  1        4 0.12164581E-02 0.10906071E+03</pdfrwt>
<totfact> 0.72720596E+03</totfact>
</mgrwt>
</event>
<event>
 4    1  0.5006371E+003  0.1328651E+03  0.7546771E-02  0.1223265E+00
         21   -1    0    0  501  502  0.00000000000E+00  0.00000000000E+00  0.10118880295E+03  0.10118880295E+03  0.00000000000E+00 0. -1.
          2   -1    0    0  503    0 -0.00000000000E+00 -0.00000000000E+00 -0.57087639020E+03  0.57087639020E+03  0.00000000000E+00 0.  1.
         21    1    1    2  503  502 -0.12965480601E+03 -0.29030599047E+02  0.45175234432E+02  0.14033512108E+03  0.00000000000E+00 0. -1.
          2    1    1    2  501    0  0.12965480601E+03  0.29030599047E+02 -0.51486282168E+03  0.53173007208E+03  0.00000000000E+00 0.  1.
<mgrwt>
<rscale>  2 0.13286514E+03</rscale>
<asrwt>0</asrwt>
<pdfrwt beam="1">  1       21 0.15567508E-01 0.13286514E+03</pdfrwt>
<pdfrwt beam="2">  1        2 0.87827137E-01 0.13286514E+03</pdfrwt>
<totfact> 0.24787854E+04</totfact>
</mgrwt>
</event>
<event>
 4    1  0.5006371E+003  0.1031550E+03  0.7546771E-02  0.1273798E+00
         21   -1    0    0  501  502  0.00000000000E+00  0.00000000000E+00  0.14429079091E+02  0.14429079091E+02  0.00000000000E+00 0.  1.
          2   -1    0    0  503    0 -0.00000000000E+00 -0.00000000000E+00 -0.15082002545E+04  0.15082002545E+04  0.00000000000E+00 0.  1.
         21    1    1    2  503  502  0.42915930338E+02  0.93803888460E+02 -0.20264968084E+03  0.22739357887E+03  0.00000000000E+00 0.  1.
          2    1    1    2  501    0 -0.42915930338E+02 -0.93803888460E+02 -0.12911214945E+04  0.12952357547E+04  0.00000000000E+00 0.  1.
<mgrwt>
<rscale>  2 0.10315496E+03</rscale>
<asrwt>0</asrwt>
<pdfrwt beam="1">  1       21 0.22198579E-02 0.10315496E+03</pdfrwt>
<pdfrwt beam="2">  1        2 0.23203085E+00 0.10315496E+03</pdfrwt>
<totfact> 0.17962111E+05</totfact>
</mgrwt>
</event>
<event>
 4    1  0.5006371E+003  0.1051744E+03  0.7546771E-02  0.1269776E+00
         21   -1    0    0  503  502  0.00000000000E+00  0.00000000000E+00  0.29603238991E+04  0.29603238991E+04  0.00000000000E+00 0. -1.
         -4   -1    0    0    0  501 -0.00000000000E+00 -0.00000000000E+00 -0.23222654080E+03  0.23222654080E+03  0.00000000000E+00 0.  1.
         21    1    1    2  503  501  0.10328337708E+03 -0.19854597849E+02  0.29474293941E+04  0.29493052901E+04  0.00000000000E+00 0. -1.
         -4    1    1    2    0  502 -0.10328337708E+03  0.19854597849E+02 -0.21933203573E+03  0.24324514987E+03  0.00000000000E+00 0.  1.
<mgrwt>
<rscale>  2 0.10517443E+03</rscale>
<asrwt>0</asrwt>
<pdfrwt beam="1">  1       21 0.45543442E+00 0.10517443E+03</pdfrwt>
<pdfrwt beam="2">  1       -4 0.35727162E-01 0.10517443E+03</pdfrwt>
<totfact> 0.14507520E+00</totfact>
</mgrwt>
</event>
<event>
 4    1  0.5006371E+003  0.1140153E+03  0.7546771E-02  0.1253310E+00
         21   -1    0    0  501  502  0.00000000000E+00  0.00000000000E+00  0.16602358843E+02  0.16602358843E+02  0.00000000000E+00 0.  1.
         -1   -1    0    0    0  501 -0.00000000000E+00 -0.00000000000E+00 -0.11061657863E+04  0.11061657863E+04  0.00000000000E+00 0.  1.
         21    1    1    2  503  502 -0.22073781569E+02 -0.11185811860E+03 -0.24134439277E+03  0.26692059952E+03  0.00000000000E+00 0.  1.
         -1    1    1    2    0  503  0.22073781569E+02  0.11185811860E+03 -0.84821903470E+03  0.85584754563E+03  0.00000000000E+00 0.  1.
<mgrwt>
<rscale>  2 0.11401531E+03</rscale>
<asrwt>0</asrwt>
<pdfrwt beam="1">  1       21 0.25542096E-02 0.11401531E+03</pdfrwt>
<pdfrwt beam="2">  1       -1 0.17017931E+00 0.11401531E+03</pdfrwt>
<totfact> 0.20950133E+04</totfact>
</mgrwt>
</event>
<event>
 4    1  0.5006371E+003  0.1161391E+03  0.7546771E-02  0.1249606E+00
          1   -1    0    0  502    0 -0.00000000000E+00  0.00000000000E+00  0.36945988526E+04  0.36945988526E+04  0.00000000000E+00 0.  1.
         21   -1    0    0  503  502  0.00000000000E+00 -0.00000000000E+00 -0.49144079551E+01  0.49144079551E+01  0.00000000000E+00 0. -1.
         21    1    1    2  503  501 -0.51039062558E+02  0.10432308921E+03  0.90688555069E+03  0.91429190902E+03  0.00000000000E+00 0. -1.
          1    1    1    2  501    0  0.51039062558E+02 -0.10432308921E+03  0.27827988940E+04  0.27852213516E+04  0.00000000000E+00 0.  1.
<mgrwt>
<rscale>  2 0.11613911E+03</rscale>
<asrwt>0</asrwt>
<pdfrwt beam="2">  1       21 0.75606572E-03 0.11613911E+03</pdfrwt>
<pdfrwt beam="1">  1        1 0.56839760E+00 0.11613911E+03</pdfrwt>
<totfact> 0.15803232E+04</totfact>
</mgrwt>
</event>
<event>
 4    1  0.5006371E+003  0.1137757E+03  0.7546771E-02  0.1253733E+00
         21   -1    0    0  503  502  0.00000000000E+00  0.00000000000E+00  0.80713284237E+02  0.80713284237E+02  0.00000000000E+00 0.  1.
          1   -1    0    0  502    0 -0.00000000000E+00 -0.00000000000E+00 -0.34061818768E+03  0.34061818768E+03  0.00000000000E+00 0. -1.
         21    1    1    2  503  501 -0.11044122347E+03 -0.27343283502E+02  0.23290873028E+02  0.11613519605E+03  0.00000000000E+00 0.  1.
          1    1    1    2  501    0  0.11044122347E+03  0.27343283502E+02 -0.28319577647E+03  0.30519627587E+03  0.00000000000E+00 0. -1.
<mgrwt>
<rscale>  2 0.11377574E+03</rscale>
<asrwt>0</asrwt>
<pdfrwt beam="1">  1       21 0.12417428E-01 0.11377574E+03</pdfrwt>
<pdfrwt beam="2">  1        1 0.52402798E-01 0.11377574E+03</pdfrwt>
<totfact> 0.44909139E+04</totfact>
</mgrwt>
</event>
<event>
 4    1  0.5006371E+003  0.1097026E+03  0.7546771E-02  0.1261122E+00
          3   -1    0    0  503    0 -0.00000000000E+00  0.00000000000E+00  0.25242441680E+03  0.25242441680E+03  0.00000000000E+00 0. -1.
         21   -1    0    0  501  502  0.00000000000E+00 -0.00000000000E+00 -0.93152668767E+02  0.93152668767E+02  0.00000000000E+00 0.  1.
         21    1    1    2  503  502 -0.10785832732E+03  0.20030937790E+02 -0.41092756754E+02  0.11714636955E+03  0.00000000000E+00 0.  1.
          3    1    1    2  501    0  0.10785832732E+03 -0.20030937790E+02  0.20036450479E+03  0.22843071602E+03  0.00000000000E+00 0. -1.
<mgrwt>
<rscale>  2 0.10970259E+03</rscale>
<asrwt>0</asrwt>
<pdfrwt beam="2">  1       21 0.14331180E-01 0.10970259E+03</pdfrwt>
<pdfrwt beam="1">  1        3 0.38834525E-01 0.10970259E+03</pdfrwt>
<totfact> 0.13370291E+04</totfact>
</mgrwt>
</event>
<event>
 4    1  0.5006371E+003  0.1317398E+03  0.7546771E-02  0.1224897E+00
          1   -1    0    0  503    0 -0.00000000000E+00  0.00000000000E+00  0.43369485577E+02  0.43369485577E+02  0.00000000000E+00 0.  1.
         21   -1    0    0  501  502  0.00000000000E+00 -0.00000000000E+00 -0.41242772964E+03  0.41242772964E+03  0.00000000000E+00 0.  1.
         21    1    1    2  503  502  0.12348821097E+03 -0.45891493061E+02 -0.14524736420E+03  0.19609223388E+03  0.00000000000E+00 0.  1.
          1    1    1    2  501    0 -0.12348821097E+03  0.45891493061E+02 -0.22381087987E+03  0.25970498133E+03  0.00000000000E+00 0.  1.
<mgrwt>
<rscale>  2 0.13173977E+03</rscale>
<asrwt>0</asrwt>
<pdfrwt beam="2">  1       21 0.63450420E-01 0.13173977E+03</pdfrwt>
<pdfrwt beam="1">  1        1 0.66722285E-02 0.13173977E+03</pdfrwt>
<totfact> 0.27073898E+04</totfact>
</mgrwt>
</event>
<event>
 4    1  0.5006371E+003  0.1197481E+03  0.7546771E-02  0.1243513E+00
         21   -1    0    0  501  502  0.00000000000E+00  0.00000000000E+00  0.31981691551E+03  0.31981691551E+03  0.00000000000E+00 0.  1.
          2   -1    0    0  503    0 -0.00000000000E+00 -0.00000000000E+00 -0.49926465853E+03  0.49926465853E+03  0.00000000000E+00 0. -1.
         21    1    1    2  503  502 -0.10659360682E+03 -0.54565598612E+02  0.30099480443E+03  0.32394054063E+03  0.00000000000E+00 0.  1.
          2    1    1    2  501    0  0.10659360682E+03  0.54565598612E+02 -0.48044254745E+03  0.49514103341E+03  0.00000000000E+00 0. -1.
<mgrwt>
<rscale>  2 0.11974808E+03</rscale>
<asrwt>0</asrwt>
<pdfrwt beam="1">  1       21 0.49202603E-01 0.11974808E+03</pdfrwt>
<pdfrwt beam="2">  1        2 0.76809947E-01 0.11974808E+03</pdfrwt>
<totfact> 0.31789710E+03</totfact>
</mgrwt>
</event>
<event>
 4    1  0.5006371E+003  0.1057035E+03  0.7546771E-02  0.1268740E+00
          1   -1    0    0  502    0 -0.00000000000E+00  0.00000000000E+00  0.19328155751E+04  0.19328155751E+04  0.00000000000E+00 0.  1.
         21   -1    0    0  503  502  0.00000000000E+00 -0.00000000000E+00 -0.17466639903E+03  0.17466639903E+03  0.00000000000E+00 0.  1.
         21    1    1    2  503  501  0.98939883112E+02 -0.37203979851E+02 -0.15708222765E+03  0.18933584666E+03  0.00000000000E+00 0.  1.
          1    1    1    2  501    0 -0.98939883112E+02  0.37203979851E+02  0.19152314037E+04  0.19181461275E+04  0.00000000000E+00 0.  1.
<mgrwt>
<rscale>  2 0.10570353E+03</rscale>
<asrwt>0</asrwt>
<pdfrwt beam="2">  1       21 0.26871755E-01 0.10570353E+03</pdfrwt>
<pdfrwt beam="1">  1        1 0.29735623E+00 0.10570353E+03</pdfrwt>
<totfact> 0.61047994E+02</totfact>
</mgrwt>
</event>
<event>
 4    1  0.5006371E+003  0.1118280E+03  0.7546771E-02  0.1257222E+00
         21   -1    0    0  503  502  0.00000000000E+00  0.00000000000E+00  0.10500610620E+03  0.10500610620E+03  0.00000000000E+00 0. -1.
          2   -1    0    0  502    0 -0.00000000000E+00 -0.00000000000E+00 -0.39303152773E+03  0.39303152773E+03  0.00000000000E+00 0. -1.
         21    1    1    2  503  501 -0.10405064529E+03 -0.40975159216E+02  0.63882730961E+02  0.12878860110E+03  0.00000000000E+00 0. -1.
          2    1    1    2  501    0  0.10405064529E+03  0.40975159216E+02 -0.35190815249E+03  0.36924903284E+03  0.00000000000E+00 0. -1.
<mgrwt>
<rscale>  2 0.11182799E+03</rscale>
<asrwt>0</asrwt>
<pdfrwt beam="1">  1       21 0.16154786E-01 0.11182799E+03</pdfrwt>
<pdfrwt beam="2">  1        2 0.60466388E-01 0.11182799E+03</pdfrwt>
<totfact> 0.34809406E+04</totfact>
</mgrwt>
</event>
<event>
 4    1  0.5006371E+003  0.1178843E+03  0.7546771E-02  0.1246629E+00
         21   -1    0    0  503  502  0.00000000000E+00  0.00000000000E+00  0.34858632240E+03  0.34858632240E+03  0.00000000000E+00 0. -1.
         -2   -1    0    0    0  501 -0.00000000000E+00 -0.00000000000E+00 -0.15291335813E+03  0.15291335813E+03  0.00000000000E+00 0.  1.
         21    1    1    2  503  501  0.47011263267E+01 -0.11779054042E+03  0.31343626938E+03  0.33487162759E+03  0.00000000000E+00 0. -1.
         -2    1    1    2    0  502 -0.47011263267E+01  0.11779054042E+03 -0.11776330510E+03  0.16662805295E+03  0.00000000000E+00 0.  1.
<mgrwt>
<rscale>  2 0.11788432E+03</rscale>
<asrwt>0</asrwt>
<pdfrwt beam="1">  1       21 0.53628665E-01 0.11788432E+03</pdfrwt>
<pdfrwt beam="2">  1       -2 0.23525132E-01 0.11788432E+03</pdfrwt>
<totfact> 0.42243829E+03</totfact>
</mgrwt>
</event>
<event>
 4    1  0.5006371E+003  0.1063643E+03  0.7546771E-02  0.1267455E+00
         21   -1    0    0  503  502  0.00000000000E+00  0.00000000000E+00  0.72601362756E+02  0.72601362756E+02  0.00000000000E+00 0.  1.
          2   -1    0    0  502    0 -0.00000000000E+00 -0.00000000000E+00 -0.93484589724E+03  0.93484589724E+03  0.00000000000E+00 0. -1.
         21    1    1    2  503  501 -0.55869916579E+02  0.90509250757E+02  0.28706194220E+02  0.11016994889E+03  0.00000000000E+00 0.  1.
          2    1    1    2  501    0  0.55869916579E+02 -0.90509250757E+02 -0.89095072870E+03  0.89727731110E+03  0.00000000000E+00 0. -1.
<mgrwt>
<rscale>  2 0.10636434E+03</rscale>
<asrwt>0</asrwt>
<pdfrwt beam="1">  1       21 0.11169440E-01 0.10636434E+03</pdfrwt>
<pdfrwt beam="2">  1        2 0.14382245E+00 0.10636434E+03</pdfrwt>
<totfact> 0.24802546E+04</totfact>
</mgrwt>
</event>
<event>
 4    1  0.5006371E+003  0.1288512E+03  0.7546771E-02  0.1229170E+00
         21   -1    0    0  501  502  0.00000000000E+00  0.00000000000E+00  0.13109452500E+03  0.13109452500E+03  0.00000000000E+00 0. -1.
          2   -1    0    0  503    0 -0.00000000000E+00 -0.00000000000E+00 -0.20602147326E+04  0.20602147326E+04  0.00000000000E+00 0. -1.
         21    1    1    2  503  502  0.12654462585E+03 -0.24271272783E+02  0.96884190243E+02  0.16121161042E+03  0.00000000000E+00 0. -1.
          2    1    1    2  501    0 -0.12654462585E+03  0.24271272783E+02 -0.20260043979E+04  0.20300976472E+04  0.00000000000E+00 0. -1.
<mgrwt>
<rscale>  2 0.12885122E+03</rscale>
<asrwt>0</asrwt>
<pdfrwt beam="1">  1       21 0.20168388E-01 0.12885122E+03</pdfrwt>
<pdfrwt beam="2">  1        2 0.31695612E+00 0.12885122E+03</pdfrwt>
<totfact> 0.21343469E+03</totfact>
</mgrwt>
</event>
<event>
 4    1  0.5006371E+003  0.1705675E+03  0.7546771E-02  0.1177257E+00
         21   -1    0    0  503  502  0.00000000000E+00  0.00000000000E+00  0.93580611813E+03  0.93580611813E+03  0.00000000000E+00 0.  1.
         -2   -1    0    0    0  501 -0.00000000000E+00 -0.00000000000E+00 -0.15290735883E+03  0.15290735883E+03  0.00000000000E+00 0. -1.
         21    1    1    2  503  501 -0.14872949302E+03  0.83503435917E+02  0.87732573373E+03  0.89375261061E+03  0.00000000000E+00 0.  1.
         -2    1    1    2    0  502  0.14872949302E+03 -0.83503435917E+02 -0.94426974437E+02  0.19496086634E+03  0.00000000000E+00 0. -1.
<mgrwt>
<rscale>  2 0.17056754E+03</rscale>
<asrwt>0</asrwt>
<pdfrwt beam="1">  1       21 0.14397017E+00 0.17056754E+03</pdfrwt>
<pdfrwt beam="2">  1       -2 0.23524210E-01 0.17056754E+03</pdfrwt>
<totfact> 0.42623833E+02</totfact>
</mgrwt>
</event>
<event>
 4    1  0.5006371E+003  0.1285304E+03  0.7546771E-02  0.1229653E+00
          2   -1    0    0  502    0 -0.00000000000E+00  0.00000000000E+00  0.75215560311E+03  0.75215560311E+03  0.00000000000E+00 0.  1.
         21   -1    0    0  503  502  0.00000000000E+00 -0.00000000000E+00 -0.59335762395E+02  0.59335762395E+02  0.00000000000E+00 0. -1.
         21    1    1    2  503  501  0.12310072373E+03 -0.36963205356E+02  0.24399750243E+02  0.13082589401E+03  0.00000000000E+00 0. -1.
          2    1    1    2  501    0 -0.12310072373E+03  0.36963205356E+02  0.66842009047E+03  0.68066547149E+03  0.00000000000E+00 0.  1.
<mgrwt>
<rscale>  2 0.12853041E+03</rscale>
<asrwt>0</asrwt>
<pdfrwt beam="2">  1       21 0.91285794E-02 0.12853041E+03</pdfrwt>
<pdfrwt beam="1">  1        2 0.11571624E+00 0.12853041E+03</pdfrwt>
<totfact> 0.46316448E+04</totfact>
</mgrwt>
</event>
<event>
 4    1  0.5006371E+003  0.1109257E+03  0.7546771E-02  0.1258865E+00
          2   -1    0    0  503    0 -0.00000000000E+00  0.00000000000E+00  0.63248638054E+03  0.63248638054E+03  0.00000000000E+00 0.  1.
         21   -1    0    0  501  502  0.00000000000E+00 -0.00000000000E+00 -0.28105961856E+02  0.28105961856E+02  0.00000000000E+00 0.  1.
         21    1    1    2  503  502  0.55130103345E+02 -0.96255833750E+02  0.11893484374E+03  0.16263459313E+03  0.00000000000E+00 0.  1.
          2    1    1    2  501    0 -0.55130103345E+02  0.96255833750E+02  0.48544557495E+03  0.49795774927E+03  0.00000000000E+00 0.  1.
<mgrwt>
<rscale>  2 0.11092571E+03</rscale>
<asrwt>0</asrwt>
<pdfrwt beam="2">  1       21 0.43239946E-02 0.11092571E+03</pdfrwt>
<pdfrwt beam="1">  1        2 0.97305586E-01 0.11092571E+03</pdfrwt>
<totfact> 0.20132380E+05</totfact>
</mgrwt>
</event>
<event>
 4    1  0.5006371E+003  0.1162547E+03  0.7546771E-02  0.1249407E+00
          2   -1    0    0  502    0 -0.00000000000E+00  0.00000000000E+00  0.29950175095E+03  0.29950175095E+03  0.00000000000E+00 0.  1.
         21   -1    0    0  503  502  0.00000000000E+00 -0.00000000000E+00 -0.53512331066E+02  0.53512331066E+02  0.00000000000E+00 0.  1.
         21    1    1    2  503  501  0.12100962345E+01  0.11624838800E+03  0.53117545038E+02  0.12781480992E+03  0.00000000000E+00 0.  1.
          2    1    1    2  501    0 -0.12100962345E+01 -0.11624838800E+03  0.19287187485E+03  0.22519927210E+03  0.00000000000E+00 0.  1.
<mgrwt>
<rscale>  2 0.11625469E+03</rscale>
<asrwt>0</asrwt>
<pdfrwt beam="2">  1       21 0.82326665E-02 0.11625469E+03</pdfrwt>
<pdfrwt beam="1">  1        2 0.46077191E-01 0.11625469E+03</pdfrwt>
<totfact> 0.15227081E+05</totfact>
</mgrwt>
</event>
<event>
 4    1  0.5006371E+003  0.1450662E+03  0.7546771E-02  0.1206670E+00
         -3   -1    0    0    0  501 -0.00000000000E+00  0.00000000000E+00  0.39805342689E+03  0.39805342689E+03  0.00000000000E+00 0.  1.
         21   -1    0    0  501  502  0.00000000000E+00 -0.00000000000E+00 -0.98288351280E+02  0.98288351280E+02  0.00000000000E+00 0.  1.
         21    1    1    2  503  502 -0.52653237950E+02  0.13517333395E+03 -0.18821779063E+02  0.14628210090E+03  0.00000000000E+00 0.  1.
         -3    1    1    2    0  503  0.52653237950E+02 -0.13517333395E+03  0.31858685467E+03  0.35005967727E+03  0.00000000000E+00 0.  1.
<mgrwt>
<rscale>  2 0.14506617E+03</rscale>
<asrwt>0</asrwt>
<pdfrwt beam="2">  1       21 0.15121285E-01 0.14506617E+03</pdfrwt>
<pdfrwt beam="1">  1       -3 0.61238988E-01 0.14506617E+03</pdfrwt>
<totfact> 0.49902216E+03</totfact>
</mgrwt>
</event>
<event>
 4    1  0.5006371E+003  0.1331108E+03  0.7546771E-02  0.1222912E+00
         -2   -1    0    0    0  501 -0.00000000000E+00  0.00000000000E+00  0.69116268876E+03  0.69116268876E+03  0.00000000000E+00 0. -1.
         21   -1    0    0  501  502  0.00000000000E+00 -0.00000000000E+00 -0.36380894559E+02  0.36380894559E+02  0.00000000000E+00 0.  1.
         21    1    1    2  503  502 -0.11062215845E+03  0.74035237087E+02  0.12969469069E+03  0.18584722507E+03  0.00000000000E+00 0.  1.
         -2    1    1    2    0  503  0.11062215845E+03 -0.74035237087E+02  0.52508710351E+03  0.54169635825E+03  0.00000000000E+00 0. -1.
<mgrwt>
<rscale>  2 0.13311077E+03</rscale>
<asrwt>0</asrwt>
<pdfrwt beam="2">  1       21 0.55970612E-02 0.13311077E+03</pdfrwt>
<pdfrwt beam="1">  1       -2 0.10633271E+00 0.13311077E+03</pdfrwt>
<totfact> 0.13476689E+04</totfact>
</mgrwt>
</event>
<event>
 4    1  0.5006371E+003  0.1081726E+03  0.7546771E-02  0.1263992E+00
          1   -1    0    0  503    0 -0.00000000000E+00  0.00000000000E+00  0.25139162978E+04  0.25139162978E+04  0.00000000000E+00 0. -1.
         21   -1    0    0  501  502  0.00000000000E+00 -0.00000000000E+00 -0.27322050856E+03  0.27322050856E+03  0.00000000000E+00 0. -1.
         21    1    1    2  503  502  0.46438595758E+02  0.97697329200E+02 -0.26129902451E+03  0.28280468794E+03  0.00000000000E+00 0. -1.
          1    1    1    2  501    0 -0.46438595758E+02 -0.97697329200E+02  0.25019948137E+04  0.25043321184E+04  0.00000000000E+00 0. -1.
<mgrwt>
<rscale>  2 0.10817260E+03</rscale>
<asrwt>0</asrwt>
<pdfrwt beam="2">  1       21 0.42033926E-01 0.10817260E+03</pdfrwt>
<pdfrwt beam="1">  1        1 0.38675634E+00 0.10817260E+03</pdfrwt>
<totfact> 0.10864007E+02</totfact>
</mgrwt>
</event>
<event>
 4    1  0.5006371E+003  0.1017940E+03  0.7546771E-02  0.1276568E+00
         21   -1    0    0  501  502  0.00000000000E+00  0.00000000000E+00  0.22754178683E+03  0.22754178683E+03  0.00000000000E+00 0.  1.
         -1   -1    0    0    0  501 -0.00000000000E+00 -0.00000000000E+00 -0.11127644904E+04  0.11127644904E+04  0.00000000000E+00 0. -1.
         21    1    1    2  503  502  0.10178594117E+03 -0.12802245804E+01  0.21368581483E+03  0.23669314365E+03  0.00000000000E+00 0.  1.
         -1    1    1    2    0  503 -0.10178594117E+03  0.12802245804E+01 -0.10989085184E+04  0.11036131336E+04  0.00000000000E+00 0. -1.
<mgrwt>
<rscale>  2 0.10179399E+03</rscale>
<asrwt>0</asrwt>
<pdfrwt beam="1">  1       21 0.35006429E-01 0.10179399E+03</pdfrwt>
<pdfrwt beam="2">  1       -1 0.17119454E+00 0.10179399E+03</pdfrwt>
<totfact> 0.21116070E+02</totfact>
</mgrwt>
</event>
<event>
 4    1  0.5006371E+003  0.1090230E+03  0.7546771E-02  0.1262390E+00
         -1   -1    0    0    0  501 -0.00000000000E+00  0.00000000000E+00  0.37133733713E+03  0.37133733713E+03  0.00000000000E+00 0.  1.
         21   -1    0    0  501  502  0.00000000000E+00 -0.00000000000E+00 -0.35887772916E+03  0.35887772916E+03  0.00000000000E+00 0.  1.
         21    1    1    2  503  502  0.81483256015E+02 -0.72432722508E+02 -0.34221535513E+03  0.35916203807E+03  0.00000000000E+00 0.  1.
         -1    1    1    2    0  503 -0.81483256015E+02  0.72432722508E+02  0.35467496310E+03  0.37105302822E+03  0.00000000000E+00 0.  1.
<mgrwt>
<rscale>  2 0.10902303E+03</rscale>
<asrwt>0</asrwt>
<pdfrwt beam="2">  1       21 0.55211958E-01 0.10902303E+03</pdfrwt>
<pdfrwt beam="1">  1       -1 0.57128821E-01 0.10902303E+03</pdfrwt>
<totfact> 0.95606024E+02</totfact>
</mgrwt>
</event>
<event>
 4    1  0.5006371E+003  0.1489301E+03  0.7546771E-02  0.1201794E+00
          1   -1    0    0  502    0 -0.00000000000E+00  0.00000000000E+00  0.27869418703E+04  0.27869418703E+04  0.00000000000E+00 0. -1.
         21   -1    0    0  503  502  0.00000000000E+00 -0.00000000000E+00 -0.26865537802E+02  0.26865537802E+02  0.00000000000E+00 0. -1.
         21    1    1    2  503  501  0.14818458480E+03  0.14882538181E+02  0.19977955291E+03  0.24918272588E+03  0.00000000000E+00 0. -1.
          1    1    1    2  501    0 -0.14818458480E+03 -0.14882538181E+02  0.25602967796E+04  0.25646246822E+04  0.00000000000E+00 0. -1.
<mgrwt>
<rscale>  2 0.14893005E+03</rscale>
<asrwt>0</asrwt>
<pdfrwt beam="2">  1       21 0.41331619E-02 0.14893005E+03</pdfrwt>
<pdfrwt beam="1">  1        1 0.42876006E+00 0.14893005E+03</pdfrwt>
<totfact> 0.44746894E+03</totfact>
</mgrwt>
</event>
<event>
 4    1  0.5006371E+003  0.1400495E+03  0.7546771E-02  0.1213262E+00
         -2   -1    0    0    0  501 -0.00000000000E+00  0.00000000000E+00  0.75120454054E+02  0.75120454054E+02  0.00000000000E+00 0.  1.
         21   -1    0    0  501  502  0.00000000000E+00 -0.00000000000E+00 -0.47549397821E+03  0.47549397821E+03  0.00000000000E+00 0. -1.
         21    1    1    2  503  502 -0.76511884607E+02  0.11730213248E+03 -0.38505087590E+03  0.40972922254E+03  0.00000000000E+00 0. -1.
         -2    1    1    2    0  503  0.76511884607E+02 -0.11730213248E+03 -0.15322648255E+02  0.14088520972E+03  0.00000000000E+00 0.  1.
<mgrwt>
<rscale>  2 0.14004949E+03</rscale>
<asrwt>0</asrwt>
<pdfrwt beam="2">  1       21 0.73152917E-01 0.14004949E+03</pdfrwt>
<pdfrwt beam="1">  1       -2 0.11556993E-01 0.14004949E+03</pdfrwt>
<totfact> 0.70093373E+03</totfact>
</mgrwt>
</event>
<event>
 4    1  0.5006371E+003  0.1861277E+03  0.7546771E-02  0.1162001E+00
          2   -1    0    0  502    0 -0.00000000000E+00  0.00000000000E+00  0.21814555500E+03  0.21814555500E+03  0.00000000000E+00 0.  1.
         21   -1    0    0  503  502  0.00000000000E+00 -0.00000000000E+00 -0.27220790598E+03  0.27220790598E+03  0.00000000000E+00 0. -1.
         21    1    1    2  503  501 -0.16552808329E+03 -0.85111507762E+02 -0.18527726387E+03  0.26262364634E+03  0.00000000000E+00 0. -1.
          2    1    1    2  501    0  0.16552808329E+03  0.85111507762E+02  0.13121491289E+03  0.22772981464E+03  0.00000000000E+00 0.  1.
<mgrwt>
<rscale>  2 0.18612768E+03</rscale>
<asrwt>0</asrwt>
<pdfrwt beam="2">  1       21 0.41878139E-01 0.18612768E+03</pdfrwt>
<pdfrwt beam="1">  1        2 0.33560855E-01 0.18612768E+03</pdfrwt>
<totfact> 0.10501883E+04</totfact>
</mgrwt>
</event>
<event>
 4    1  0.5006371E+003  0.1074313E+03  0.7546771E-02  0.1265402E+00
          2   -1    0    0  503    0 -0.00000000000E+00  0.00000000000E+00  0.24977462020E+04  0.24977462020E+04  0.00000000000E+00 0.  1.
         21   -1    0    0  501  502  0.00000000000E+00 -0.00000000000E+00 -0.53830462477E+02  0.53830462477E+02  0.00000000000E+00 0.  1.
         21    1    1    2  503  502 -0.90684848963E+02 -0.57599895046E+02  0.21542071425E+01  0.10745292155E+03  0.00000000000E+00 0.  1.
          2    1    1    2  501    0  0.90684848963E+02  0.57599895046E+02  0.24417615324E+04  0.24441237430E+04  0.00000000000E+00 0.  1.
<mgrwt>
<rscale>  2 0.10743133E+03</rscale>
<asrwt>0</asrwt>
<pdfrwt beam="2">  1       21 0.82816116E-02 0.10743133E+03</pdfrwt>
<pdfrwt beam="1">  1        2 0.38426856E+00 0.10743133E+03</pdfrwt>
<totfact> 0.62860991E+03</totfact>
</mgrwt>
</event>
<event>
 4    1  0.5006371E+003  0.1667092E+03  0.7546771E-02  0.1181324E+00
         21   -1    0    0  503  502  0.00000000000E+00  0.00000000000E+00  0.16145481333E+04  0.16145481333E+04  0.00000000000E+00 0.  1.
          3   -1    0    0  502    0 -0.00000000000E+00 -0.00000000000E+00 -0.17891152678E+02  0.17891152678E+02  0.00000000000E+00 0.  1.
         21    1    1    2  503  501  0.16398278176E+03  0.30026541805E+02  0.95718573052E+03  0.97159480682E+03  0.00000000000E+00 0.  1.
          3    1    1    2  501    0 -0.16398278176E+03 -0.30026541805E+02  0.63947125012E+03  0.66084447918E+03  0.00000000000E+00 0.  1.
<mgrwt>
<rscale>  2 0.16670917E+03</rscale>
<asrwt>0</asrwt>
<pdfrwt beam="1">  1       21 0.24839191E+00 0.16670917E+03</pdfrwt>
<pdfrwt beam="2">  1        3 0.27524863E-02 0.16670917E+03</pdfrwt>
<totfact> 0.19675628E+03</totfact>
</mgrwt>
</event>
<event>
 4    1  0.5006371E+003  0.1144224E+03  0.7546771E-02  0.1252593E+00
         21   -1    0    0  501  502  0.00000000000E+00  0.00000000000E+00  0.13051410515E+02  0.13051410515E+02  0.00000000000E+00 0.  1.
          1   -1    0    0  503    0 -0.00000000000E+00 -0.00000000000E+00 -0.15074372541E+04  0.15074372541E+04  0.00000000000E+00 0.  1.
         21    1    1    2  503  502 -0.35434102139E+02  0.10879753236E+03 -0.30747515825E+03  0.32807537485E+03  0.00000000000E+00 0.  1.
          1    1    1    2  501    0  0.35434102139E+02 -0.10879753236E+03 -0.11869106853E+04  0.11924132898E+04  0.00000000000E+00 0.  1.
<mgrwt>
<rscale>  2 0.11442237E+03</rscale>
<asrwt>0</asrwt>
<pdfrwt beam="1">  1       21 0.20079093E-02 0.11442237E+03</pdfrwt>
<pdfrwt beam="2">  1        1 0.23191342E+00 0.11442237E+03</pdfrwt>
<totfact> 0.98526956E+04</totfact>
</mgrwt>
</event>
<event>
 4    1  0.5006371E+003  0.1368907E+03  0.7546771E-02  0.1217575E+00
         21   -1    0    0  501  502  0.00000000000E+00  0.00000000000E+00  0.22121009068E+02  0.22121009068E+02  0.00000000000E+00 0. -1.
          2   -1    0    0  503    0 -0.00000000000E+00 -0.00000000000E+00 -0.90824797642E+03  0.90824797642E+03  0.00000000000E+00 0. -1.
         21    1    1    2  503  502  0.39302050524E+02  0.13112751413E+03 -0.32237807879E+03  0.35023806449E+03  0.00000000000E+00 0. -1.
          2    1    1    2  501    0 -0.39302050524E+02 -0.13112751413E+03 -0.56374888856E+03  0.58013092099E+03  0.00000000000E+00 0. -1.
<mgrwt>
<rscale>  2 0.13689075E+03</rscale>
<asrwt>0</asrwt>
<pdfrwt beam="1">  1       21 0.34032329E-02 0.13689075E+03</pdfrwt>
<pdfrwt beam="2">  1        2 0.13973043E+00 0.13689075E+03</pdfrwt>
<totfact> 0.19402488E+05</totfact>
</mgrwt>
</event>
<event>
 4    1  0.5006371E+003  0.3658883E+03  0.7546771E-02  0.1056276E+00
          1   -1    0    0  503    0 -0.00000000000E+00  0.00000000000E+00  0.31250141018E+03  0.31250141018E+03  0.00000000000E+00 0. -1.
         21   -1    0    0  501  502  0.00000000000E+00 -0.00000000000E+00 -0.67360391947E+03  0.67360391947E+03  0.00000000000E+00 0.  1.
         21    1    1    2  503  502  0.36226717848E+03 -0.51348879274E+02 -0.47803185224E+03  0.60198726545E+03  0.00000000000E+00 0.  1.
          1    1    1    2  501    0 -0.36226717848E+03  0.51348879274E+02  0.11692934295E+03  0.38411806420E+03  0.00000000000E+00 0. -1.
<mgrwt>
<rscale>  2 0.36588826E+03</rscale>
<asrwt>0</asrwt>
<pdfrwt beam="2">  1       21 0.10363137E+00 0.36588826E+03</pdfrwt>
<pdfrwt beam="1">  1        1 0.48077141E-01 0.36588826E+03</pdfrwt>
<totfact> 0.63845466E+02</totfact>
</mgrwt>
</event>
<event>
 4    1  0.5006371E+003  0.1021525E+03  0.7546771E-02  0.1275834E+00
          2   -1    0    0  502    0 -0.00000000000E+00  0.00000000000E+00  0.25516108810E+04  0.25516108810E+04  0.00000000000E+00 0.  1.
         21   -1    0    0  503  502  0.00000000000E+00 -0.00000000000E+00 -0.43507270120E+01  0.43507270120E+01  0.00000000000E+00 0.  1.
         21    1    1    2  503  501 -0.81520058402E+02 -0.61559763141E+02  0.96055326814E+03  0.96596982629E+03  0.00000000000E+00 0.  1.
          2    1    1    2  501    0  0.81520058402E+02  0.61559763141E+02  0.15867068858E+04  0.15899917817E+04  0.00000000000E+00 0.  1.
<mgrwt>
<rscale>  2 0.10215246E+03</rscale>
<asrwt>0</asrwt>
<pdfrwt beam="2">  1       21 0.66934465E-03 0.10215246E+03</pdfrwt>
<pdfrwt beam="1">  1        2 0.39255433E+00 0.10215246E+03</pdfrwt>
<totfact> 0.34873467E+05</totfact>
</mgrwt>
</event>
<event>
 4    1  0.5006371E+003  0.1184031E+03  0.7546771E-02  0.1245755E+00
         21   -1    0    0  503  502  0.00000000000E+00  0.00000000000E+00  0.62078516244E+03  0.62078516244E+03  0.00000000000E+00 0. -1.
         -3   -1    0    0    0  501 -0.00000000000E+00 -0.00000000000E+00 -0.61695429725E+02  0.61695429725E+02  0.00000000000E+00 0.  1.
         21    1    1    2  503  501  0.72640326875E+02 -0.93502307003E+02  0.55124525066E+03  0.56381790046E+03  0.00000000000E+00 0. -1.
         -3    1    1    2    0  502 -0.72640326875E+02  0.93502307003E+02  0.78444820514E+01  0.11866269170E+03  0.00000000000E+00 0.  1.
<mgrwt>
<rscale>  2 0.11840312E+03</rscale>
<asrwt>0</asrwt>
<pdfrwt beam="1">  1       21 0.95505405E-01 0.11840312E+03</pdfrwt>
<pdfrwt beam="2">  1       -3 0.94916050E-02 0.11840312E+03</pdfrwt>
<totfact> 0.36061129E+03</totfact>
</mgrwt>
</event>
<event>
 4    1  0.5006371E+003  0.1482416E+03  0.7546771E-02  0.1202651E+00
          1   -1    0    0  502    0 -0.00000000000E+00  0.00000000000E+00  0.66573529331E+03  0.66573529331E+03  0.00000000000E+00 0. -1.
         21   -1    0    0  503  502  0.00000000000E+00 -0.00000000000E+00 -0.12073120208E+03  0.12073120208E+03  0.00000000000E+00 0. -1.
         21    1    1    2  503  501  0.12615993150E+03 -0.77841084005E+02 -0.62690298843E+02  0.16095227940E+03  0.00000000000E+00 0. -1.
          1    1    1    2  501    0 -0.12615993150E+03  0.77841084005E+02  0.60769439008E+03  0.62551421599E+03  0.00000000000E+00 0. -1.
<mgrwt>
<rscale>  2 0.14824157E+03</rscale>
<asrwt>0</asrwt>
<pdfrwt beam="2">  1       21 0.18574031E-01 0.14824157E+03</pdfrwt>
<pdfrwt beam="1">  1        1 0.10242081E+00 0.14824157E+03</pdfrwt>
<totfact> 0.90470963E+03</totfact>
</mgrwt>
</event>
<event>
 4    1  0.5006371E+003  0.1151599E+03  0.7546771E-02  0.1251302E+00
         21   -1    0    0  501  502  0.00000000000E+00  0.00000000000E+00  0.27279751094E+03  0.27279751094E+03  0.00000000000E+00 0.  1.
          1   -1    0    0  503    0 -0.00000000000E+00 -0.00000000000E+00 -0.46587313617E+03  0.46587313617E+03  0.00000000000E+00 0. -1.
         21    1    1    2  503  502  0.10436477619E+03  0.48680654439E+02  0.25299654670E+03  0.27797313767E+03  0.00000000000E+00 0.  1.
          1    1    1    2  501    0 -0.10436477619E+03 -0.48680654439E+02 -0.44607217193E+03  0.46069750943E+03  0.00000000000E+00 0. -1.
<mgrwt>
<rscale>  2 0.11515994E+03</rscale>
<asrwt>0</asrwt>
<pdfrwt beam="1">  1       21 0.41968849E-01 0.11515994E+03</pdfrwt>
<pdfrwt beam="2">  1        1 0.71672789E-01 0.11515994E+03</pdfrwt>
<totfact> 0.30945084E+03</totfact>
</mgrwt>
</event>
<event>
 4    1  0.5006371E+003  0.2444183E+03  0.7546771E-02  0.1116884E+00
          1   -1    0    0  503    0 -0.00000000000E+00  0.00000000000E+00  0.20703756247E+04  0.20703756247E+04  0.00000000000E+00 0. -1.
         21   -1    0    0  501  502  0.00000000000E+00 -0.00000000000E+00 -0.75272769500E+02  0.75272769500E+02  0.00000000000E+00 0. -1.
         21    1    1    2  503  502  0.24416738415E+03 -0.11072794822E+02  0.15508503850E+03  0.28946793852E+03  0.00000000000E+00 0. -1.
          1    1    1    2  501    0 -0.24416738415E+03  0.11072794822E+02  0.18400178167E+04  0.18561804557E+04  0.00000000000E+00 0. -1.
<mgrwt>
<rscale>  2 0.24441833E+03</rscale>
<asrwt>0</asrwt>
<pdfrwt beam="2">  1       21 0.11580428E-01 0.24441833E+03</pdfrwt>
<pdfrwt beam="1">  1        1 0.31851928E+00 0.24441833E+03</pdfrwt>
<totfact> 0.21184834E+03</totfact>
</mgrwt>
</event>
<event>
 4    1  0.5006371E+003  0.1013527E+03  0.7546771E-02  0.1277477E+00
          2   -1    0    0  502    0 -0.00000000000E+00  0.00000000000E+00  0.72140936208E+03  0.72140936208E+03  0.00000000000E+00 0. -1.
         21   -1    0    0  503  502  0.00000000000E+00 -0.00000000000E+00 -0.16470374465E+02  0.16470374465E+02  0.00000000000E+00 0. -1.
         21    1    1    2  503  501 -0.50451720338E+02  0.87903305533E+02  0.21668177384E+03  0.23921404290E+03  0.00000000000E+00 0. -1.
          2    1    1    2  501    0  0.50451720338E+02 -0.87903305533E+02  0.48825721377E+03  0.49866569364E+03  0.00000000000E+00 0. -1.
<mgrwt>
<rscale>  2 0.10135269E+03</rscale>
<asrwt>0</asrwt>
<pdfrwt beam="2">  1       21 0.25339043E-02 0.10135269E+03</pdfrwt>
<pdfrwt beam="1">  1        2 0.11098603E+00 0.10135269E+03</pdfrwt>
<totfact> 0.41294106E+05</totfact>
</mgrwt>
</event>
<event>
 4    1  0.5006371E+003  0.1025895E+03  0.7546771E-02  0.1274943E+00
         21   -1    0    0  503  502  0.00000000000E+00  0.00000000000E+00  0.14329892824E+03  0.14329892824E+03  0.00000000000E+00 0. -1.
          2   -1    0    0  502    0 -0.00000000000E+00 -0.00000000000E+00 -0.12411159908E+03  0.12411159908E+03  0.00000000000E+00 0. -1.
         21    1    1    2  503  501  0.97214252930E+02  0.32771765159E+02  0.95022188731E+02  0.13983495956E+03  0.00000000000E+00 0. -1.
          2    1    1    2  501    0 -0.97214252930E+02 -0.32771765159E+02 -0.75834859571E+02  0.12757556776E+03  0.00000000000E+00 0. -1.
<mgrwt>
<rscale>  2 0.10258947E+03</rscale>
<asrwt>0</asrwt>
<pdfrwt beam="1">  1       21 0.22045989E-01 0.10258947E+03</pdfrwt>
<pdfrwt beam="2">  1        2 0.19094092E-01 0.10258947E+03</pdfrwt>
<totfact> 0.67884290E+04</totfact>
</mgrwt>
</event>
<event>
 4    1  0.5006371E+003  0.1024634E+03  0.7546771E-02  0.1275199E+00
          2   -1    0    0  503    0 -0.00000000000E+00  0.00000000000E+00  0.16119963115E+04  0.16119963115E+04  0.00000000000E+00 0. -1.
         21   -1    0    0  501  502  0.00000000000E+00 -0.00000000000E+00 -0.13563974206E+02  0.13563974206E+02  0.00000000000E+00 0. -1.
         21    1    1    2  503  502 -0.27377197132E+02  0.98738190074E+02  0.21320240456E+03  0.23654599217E+03  0.00000000000E+00 0. -1.
          2    1    1    2  501    0  0.27377197132E+02 -0.98738190074E+02  0.13852299328E+04  0.13890142936E+04  0.00000000000E+00 0. -1.
<mgrwt>
<rscale>  2 0.10246336E+03</rscale>
<asrwt>0</asrwt>
<pdfrwt beam="2">  1       21 0.20867665E-02 0.10246336E+03</pdfrwt>
<pdfrwt beam="1">  1        2 0.24799928E+00 0.10246336E+03</pdfrwt>
<totfact> 0.17559455E+05</totfact>
</mgrwt>
</event>
<event>
 4    1  0.5006371E+003  0.1096883E+03  0.7546771E-02  0.1261148E+00
         21   -1    0    0  501  502  0.00000000000E+00  0.00000000000E+00  0.19347486675E+02  0.19347486675E+02  0.00000000000E+00 0. -1.
          2   -1    0    0  503    0 -0.00000000000E+00 -0.00000000000E+00 -0.70292931981E+03  0.70292931981E+03  0.00000000000E+00 0. -1.
         21    1    1    2  503  502 -0.10070539277E+03 -0.43473493969E+02 -0.21915059846E+03  0.24506836927E+03  0.00000000000E+00 0. -1.
          2    1    1    2  501    0  0.10070539277E+03  0.43473493969E+02 -0.46443123468E+03  0.47720843722E+03  0.00000000000E+00 0. -1.
<mgrwt>
<rscale>  2 0.10968829E+03</rscale>
<asrwt>0</asrwt>
<pdfrwt beam="1">  1       21 0.29765363E-02 0.10968829E+03</pdfrwt>
<pdfrwt beam="2">  1        2 0.10814298E+00 0.10968829E+03</pdfrwt>
<totfact> 0.32924929E+05</totfact>
</mgrwt>
</event>
<event>
 4    1  0.5006371E+003  0.1983040E+03  0.7546771E-02  0.1151178E+00
         -1   -1    0    0    0  501 -0.00000000000E+00  0.00000000000E+00  0.72640883604E+03  0.72640883604E+03  0.00000000000E+00 0. -1.
         21   -1    0    0  501  502  0.00000000000E+00 -0.00000000000E+00 -0.84160213089E+02  0.84160213089E+02  0.00000000000E+00 0. -1.
         21    1    1    2  503  502  0.18090967325E+03 -0.81216784381E+02  0.79051320929E+02  0.21347971164E+03  0.00000000000E+00 0. -1.
         -1    1    1    2    0  503 -0.18090967325E+03  0.81216784381E+02  0.56319730203E+03  0.59708933749E+03  0.00000000000E+00 0. -1.
<mgrwt>
<rscale>  2 0.19830400E+03</rscale>
<asrwt>0</asrwt>
<pdfrwt beam="2">  1       21 0.12947726E-01 0.19830400E+03</pdfrwt>
<pdfrwt beam="1">  1       -1 0.11175520E+00 0.19830400E+03</pdfrwt>
<totfact> 0.37620113E+03</totfact>
</mgrwt>
</event>
<event>
 4    1  0.5006371E+003  0.1459504E+03  0.7546771E-02  0.1205539E+00
         21   -1    0    0  501  502  0.00000000000E+00  0.00000000000E+00  0.21935042824E+02  0.21935042824E+02  0.00000000000E+00 0.  1.
          2   -1    0    0  503    0 -0.00000000000E+00 -0.00000000000E+00 -0.18063305454E+04  0.18063305454E+04  0.00000000000E+00 0. -1.
         21    1    1    2  503  502 -0.10466702683E+03  0.10171694217E+03 -0.27060049748E+03  0.30745105638E+03  0.00000000000E+00 0.  1.
          2    1    1    2  501    0  0.10466702683E+03 -0.10171694217E+03 -0.15137950051E+04  0.15208145318E+04  0.00000000000E+00 0. -1.
<mgrwt>
<rscale>  2 0.14595041E+03</rscale>
<asrwt>0</asrwt>
<pdfrwt beam="1">  1       21 0.33746216E-02 0.14595041E+03</pdfrwt>
<pdfrwt beam="2">  1        2 0.27789704E+00 0.14595041E+03</pdfrwt>
<totfact> 0.63731456E+04</totfact>
</mgrwt>
</event>
<event>
 4    1  0.5006371E+003  0.1462765E+03  0.7546771E-02  0.1205124E+00
          1   -1    0    0  502    0 -0.00000000000E+00  0.00000000000E+00  0.42742863959E+03  0.42742863959E+03  0.00000000000E+00 0.  1.
         21   -1    0    0  503  502  0.00000000000E+00 -0.00000000000E+00 -0.87566947735E+02  0.87566947735E+02  0.00000000000E+00 0.  1.
         21    1    1    2  503  501 -0.12085106876E+03 -0.82412617011E+02  0.14064594452E+01  0.14628328131E+03  0.00000000000E+00 0.  1.
          1    1    1    2  501    0  0.12085106876E+03  0.82412617011E+02  0.33845523241E+03  0.36871230602E+03  0.00000000000E+00 0.  1.
<mgrwt>
<rscale>  2 0.14627652E+03</rscale>
<asrwt>0</asrwt>
<pdfrwt beam="2">  1       21 0.13471838E-01 0.14627652E+03</pdfrwt>
<pdfrwt beam="1">  1        1 0.65758251E-01 0.14627652E+03</pdfrwt>
<totfact> 0.29256401E+04</totfact>
</mgrwt>
</event>
<event>
 4    1  0.5006371E+003  0.1013959E+03  0.7546771E-02  0.1277388E+00
         21   -1    0    0  503  502  0.00000000000E+00  0.00000000000E+00  0.77144032976E+03  0.77144032976E+03  0.00000000000E+00 0.  1.
         -2   -1    0    0    0  501 -0.00000000000E+00 -0.00000000000E+00 -0.58337269564E+02  0.58337269564E+02  0.00000000000E+00 0. -1.
         21    1    1    2  503  501  0.49464264069E+02 -0.88512177953E+02  0.72098111959E+03  0.72807615939E+03  0.00000000000E+00 0.  1.
         -2    1    1    2    0  502 -0.49464264069E+02  0.88512177953E+02 -0.78780593903E+01  0.10170143994E+03  0.00000000000E+00 0. -1.
<mgrwt>
<rscale>  2 0.10139585E+03</rscale>
<asrwt>0</asrwt>
<pdfrwt beam="1">  1       21 0.11868312E+00 0.10139585E+03</pdfrwt>
<pdfrwt beam="2">  1       -2 0.89749651E-02 0.10139585E+03</pdfrwt>
<totfact> 0.34567398E+03</totfact>
</mgrwt>
</event>
<event>
 4    1  0.5006371E+003  0.1098796E+03  0.7546771E-02  0.1260793E+00
          2   -1    0    0  503    0 -0.00000000000E+00  0.00000000000E+00  0.48189170189E+03  0.48189170189E+03  0.00000000000E+00 0. -1.
         21   -1    0    0  501  502  0.00000000000E+00 -0.00000000000E+00 -0.73081603958E+02  0.73081603958E+02  0.00000000000E+00 0. -1.
         21    1    1    2  503  502 -0.66219576752E+02 -0.87684007714E+02 -0.20542683805E+02  0.11178335928E+03  0.00000000000E+00 0. -1.
          2    1    1    2  501    0  0.66219576752E+02  0.87684007714E+02  0.42935278173E+03  0.44318994656E+03  0.00000000000E+00 0. -1.
<mgrwt>
<rscale>  2 0.10987956E+03</rscale>
<asrwt>0</asrwt>
<pdfrwt beam="2">  1       21 0.11243324E-01 0.10987956E+03</pdfrwt>
<pdfrwt beam="1">  1        2 0.74137183E-01 0.10987956E+03</pdfrwt>
<totfact> 0.53358683E+04</totfact>
</mgrwt>
</event>
<event>
 4    1  0.5006371E+003  0.1016418E+03  0.7546771E-02  0.1276881E+00
         21   -1    0    0  503  502  0.00000000000E+00  0.00000000000E+00  0.26750996478E+02  0.26750996478E+02  0.00000000000E+00 0. -1.
          2   -1    0    0  502    0 -0.00000000000E+00 -0.00000000000E+00 -0.24691952824E+04  0.24691952824E+04  0.00000000000E+00 0. -1.
         21    1    1    2  503  501  0.47567797120E+01  0.10153043616E+03 -0.74990595762E+02  0.12631170125E+03  0.00000000000E+00 0. -1.
          2    1    1    2  501    0 -0.47567797120E+01 -0.10153043616E+03 -0.23674536901E+04  0.23696345776E+04  0.00000000000E+00 0. -1.
<mgrwt>
<rscale>  2 0.10164180E+03</rscale>
<asrwt>0</asrwt>
<pdfrwt beam="1">  1       21 0.41155376E-02 0.10164180E+03</pdfrwt>
<pdfrwt beam="2">  1        2 0.37987622E+00 0.10164180E+03</pdfrwt>
<totfact> 0.21233095E+04</totfact>
</mgrwt>
</event>
<event>
 4    1  0.5006371E+003  0.1290519E+03  0.7546771E-02  0.1228869E+00
          2   -1    0    0  503    0 -0.00000000000E+00  0.00000000000E+00  0.99805220047E+03  0.99805220047E+03  0.00000000000E+00 0. -1.
         21   -1    0    0  501  502  0.00000000000E+00 -0.00000000000E+00 -0.48532933598E+02  0.48532933598E+02  0.00000000000E+00 0.  1.
         21    1    1    2  503  502  0.12729959237E+03  0.21194270325E+02  0.50868761937E+02  0.13871558764E+03  0.00000000000E+00 0.  1.
          2    1    1    2  501    0 -0.12729959237E+03 -0.21194270325E+02  0.89865050493E+03  0.90786954643E+03  0.00000000000E+00 0. -1.
<mgrwt>
<rscale>  2 0.12905186E+03</rscale>
<asrwt>0</asrwt>
<pdfrwt beam="2">  1       21 0.74666059E-02 0.12905186E+03</pdfrwt>
<pdfrwt beam="1">  1        2 0.15354648E+00 0.12905186E+03</pdfrwt>
<totfact> 0.45563669E+04</totfact>
</mgrwt>
</event>
<event>
 4    1  0.5006371E+003  0.1060360E+03  0.7546771E-02  0.1268092E+00
         -2   -1    0    0    0  501 -0.00000000000E+00  0.00000000000E+00  0.34939459256E+02  0.34939459256E+02  0.00000000000E+00 0. -1.
         21   -1    0    0  503  502  0.00000000000E+00 -0.00000000000E+00 -0.45140250441E+03  0.45140250441E+03  0.00000000000E+00 0.  1.
         21    1    1    2  503  501 -0.89349889119E+02  0.57098435898E+02 -0.33852746654E+03  0.35474565490E+03  0.00000000000E+00 0.  1.
         -2    1    1    2    0  502  0.89349889119E+02 -0.57098435898E+02 -0.77935578615E+02  0.13159630877E+03  0.00000000000E+00 0. -1.
<mgrwt>
<rscale>  2 0.10603600E+03</rscale>
<asrwt>0</asrwt>
<pdfrwt beam="2">  1       21 0.69446534E-01 0.10603600E+03</pdfrwt>
<pdfrwt beam="1">  1       -2 0.53753019E-02 0.10603600E+03</pdfrwt>
<totfact> 0.25545932E+04</totfact>
</mgrwt>
</event>
<event>
 4    1  0.5006371E+003  0.1069869E+03  0.7546771E-02  0.1266254E+00
          1   -1    0    0  502    0 -0.00000000000E+00  0.00000000000E+00  0.75603013033E+03  0.75603013033E+03  0.00000000000E+00 0. -1.
         21   -1    0    0  503  502  0.00000000000E+00 -0.00000000000E+00 -0.40437100506E+02  0.40437100506E+02  0.00000000000E+00 0. -1.
         21    1    1    2  503  501  0.45162369864E+02  0.96987381901E+02  0.42815433375E+02  0.11523607610E+03  0.00000000000E+00 0. -1.
          1    1    1    2  501    0 -0.45162369864E+02 -0.96987381901E+02  0.67277759644E+03  0.68123115473E+03  0.00000000000E+00 0. -1.
<mgrwt>
<rscale>  2 0.10698688E+03</rscale>
<asrwt>0</asrwt>
<pdfrwt beam="2">  1       21 0.62210929E-02 0.10698688E+03</pdfrwt>
<pdfrwt beam="1">  1        1 0.11631232E+00 0.10698688E+03</pdfrwt>
<totfact> 0.51972934E+04</totfact>
</mgrwt>
</event>
<event>
 4    1  0.5006371E+003  0.1445318E+03  0.7546771E-02  0.1207358E+00
         -3   -1    0    0    0  501 -0.00000000000E+00  0.00000000000E+00  0.15484818452E+04  0.15484818452E+04  0.00000000000E+00 0. -1.
         21   -1    0    0  501  502  0.00000000000E+00 -0.00000000000E+00 -0.45571033908E+02  0.45571033908E+02  0.00000000000E+00 0. -1.
         21    1    1    2  503  502  0.16252639498E+02  0.14361504927E+03  0.82725614638E+02  0.16653215300E+03  0.00000000000E+00 0. -1.
         -3    1    1    2    0  503 -0.16252639498E+02 -0.14361504927E+03  0.14201851966E+04  0.14275207261E+04  0.00000000000E+00 0. -1.
<mgrwt>
<rscale>  2 0.14453176E+03</rscale>
<asrwt>0</asrwt>
<pdfrwt beam="2">  1       21 0.70109295E-02 0.14453176E+03</pdfrwt>
<pdfrwt beam="1">  1       -3 0.23822794E+00 0.14453176E+03</pdfrwt>
<totfact> 0.72255355E+02</totfact>
</mgrwt>
</event>
<event>
 4    1  0.5006371E+003  0.1423255E+03  0.7546771E-02  0.1210234E+00
          1   -1    0    0  503    0 -0.00000000000E+00  0.00000000000E+00  0.99639483081E+03  0.99639483081E+03  0.00000000000E+00 0.  1.
         21   -1    0    0  501  502  0.00000000000E+00 -0.00000000000E+00 -0.25021641754E+02  0.25021641754E+02  0.00000000000E+00 0. -1.
         21    1    1    2  503  502  0.20924040749E+02  0.14077903480E+03  0.26453780202E+03  0.30039440877E+03  0.00000000000E+00 0. -1.
          1    1    1    2  501    0 -0.20924040749E+02 -0.14077903480E+03  0.70683538704E+03  0.72102206380E+03  0.00000000000E+00 0.  1.
<mgrwt>
<rscale>  2 0.14232551E+03</rscale>
<asrwt>0</asrwt>
<pdfrwt beam="2">  1       21 0.38494841E-02 0.14232551E+03</pdfrwt>
<pdfrwt beam="1">  1        1 0.15329148E+00 0.14232551E+03</pdfrwt>
<totfact> 0.75619606E+04</totfact>
</mgrwt>
</event>
<event>
 4    1  0.5006371E+003  0.1239145E+03  0.7546771E-02  0.1236775E+00
         21   -1    0    0  503  502  0.00000000000E+00  0.00000000000E+00  0.50320526072E+02  0.50320526072E+02  0.00000000000E+00 0.  1.
          2   -1    0    0  502    0 -0.00000000000E+00 -0.00000000000E+00 -0.42728449260E+04  0.42728449260E+04  0.00000000000E+00 0.  1.
         21    1    1    2  503  501 -0.47907242666E+02 -0.11427909474E+03 -0.28292426500E+02  0.12710340983E+03  0.00000000000E+00 0.  1.
          2    1    1    2  501    0  0.47907242666E+02  0.11427909474E+03 -0.41942319734E+04  0.41960620422E+04  0.00000000000E+00 0.  1.
<mgrwt>
<rscale>  2 0.12391455E+03</rscale>
<asrwt>0</asrwt>
<pdfrwt beam="1">  1       21 0.77416169E-02 0.12391455E+03</pdfrwt>
<pdfrwt beam="2">  1        2 0.65736097E+00 0.12391455E+03</pdfrwt>
<totfact> 0.50217413E+02</totfact>
</mgrwt>
</event>
<event>
 4    1  0.5006371E+003  0.2041493E+03  0.7546771E-02  0.1146285E+00
          1   -1    0    0  502    0 -0.00000000000E+00  0.00000000000E+00  0.21154921053E+02  0.21154921053E+02  0.00000000000E+00 0. -1.
         21   -1    0    0  503  502  0.00000000000E+00 -0.00000000000E+00 -0.24362283926E+04  0.24362283926E+04  0.00000000000E+00 0. -1.
         21    1    1    2  503  501 -0.15504479470E+03  0.13280836585E+03 -0.17449948273E+04  0.17568960976E+04  0.00000000000E+00 0. -1.
          1    1    1    2  501    0  0.15504479470E+03 -0.13280836585E+03 -0.67007864425E+03  0.70048721608E+03  0.00000000000E+00 0. -1.
<mgrwt>
<rscale>  2 0.20414933E+03</rscale>
<asrwt>0</asrwt>
<pdfrwt beam="2">  1       21 0.37480436E+00 0.20414933E+03</pdfrwt>
<pdfrwt beam="1">  1        1 0.32546033E-02 0.20414933E+03</pdfrwt>
<totfact> 0.39065437E+02</totfact>
</mgrwt>
</event>
<event>
 4    1  0.5006371E+003  0.1254030E+03  0.7546771E-02  0.1234441E+00
         21   -1    0    0  501  502  0.00000000000E+00  0.00000000000E+00  0.11746850542E+03  0.11746850542E+03  0.00000000000E+00 0. -1.
          1   -1    0    0  503    0 -0.00000000000E+00 -0.00000000000E+00 -0.13624103320E+03  0.13624103320E+03  0.00000000000E+00 0. -1.
         21    1    1    2  503  502  0.75217438296E+02 -0.10034070241E+03 -0.26108762487E+02  0.12809210383E+03  0.00000000000E+00 0. -1.
          1    1    1    2  501    0 -0.75217438296E+02  0.10034070241E+03  0.73362347085E+01  0.12561743479E+03  0.00000000000E+00 0. -1.
<mgrwt>
<rscale>  2 0.12540303E+03</rscale>
<asrwt>0</asrwt>
<pdfrwt beam="1">  1       21 0.18072078E-01 0.12540303E+03</pdfrwt>
<pdfrwt beam="2">  1        1 0.20960159E-01 0.12540303E+03</pdfrwt>
<totfact> 0.71380484E+04</totfact>
</mgrwt>
</event>
<event>
 4    1  0.5006371E+003  0.1697197E+03  0.7546771E-02  0.1178141E+00
         21   -1    0    0  501  502  0.00000000000E+00  0.00000000000E+00  0.11386864992E+03  0.11386864992E+03  0.00000000000E+00 0.  1.
         -4   -1    0    0    0  501 -0.00000000000E+00 -0.00000000000E+00 -0.62093869259E+03  0.62093869259E+03  0.00000000000E+00 0.  1.
         21    1    1    2  503  502  0.65848406348E+02  0.15642490045E+03  0.29296379221E+02  0.17222961399E+03  0.00000000000E+00 0.  1.
         -4    1    1    2    0  503 -0.65848406348E+02 -0.15642490045E+03 -0.53636642189E+03  0.56257772852E+03  0.00000000000E+00 0.  1.
<mgrwt>
<rscale>  2 0.16971966E+03</rscale>
<asrwt>0</asrwt>
<pdfrwt beam="1">  1       21 0.17518254E-01 0.16971966E+03</pdfrwt>
<pdfrwt beam="2">  1       -4 0.95529028E-01 0.16971966E+03</pdfrwt>
<totfact> 0.11768791E+03</totfact>
</mgrwt>
</event>
<event>
 4    1  0.5006371E+003  0.2129248E+03  0.7546771E-02  0.1139271E+00
          1   -1    0    0  502    0 -0.00000000000E+00  0.00000000000E+00  0.11391361097E+04  0.11391361097E+04  0.00000000000E+00 0. -1.
         21   -1    0    0  503  502  0.00000000000E+00 -0.00000000000E+00 -0.60882058306E+02  0.60882058306E+02  0.00000000000E+00 0.  1.
         21    1    1    2  503  501  0.12866380840E+03  0.16965433568E+03  0.18604506789E+03  0.28275384435E+03  0.00000000000E+00 0.  1.
          1    1    1    2  501    0 -0.12866380840E+03 -0.16965433568E+03  0.89220898348E+03  0.91726432363E+03  0.00000000000E+00 0. -1.
<mgrwt>
<rscale>  2 0.21292480E+03</rscale>
<asrwt>0</asrwt>
<pdfrwt beam="2">  1       21 0.93664714E-02 0.21292480E+03</pdfrwt>
<pdfrwt beam="1">  1        1 0.17525169E+00 0.21292480E+03</pdfrwt>
<totfact> 0.12914383E+04</totfact>
</mgrwt>
</event>
<event>
 4    1  0.5006371E+003  0.1099567E+03  0.7546771E-02  0.1260650E+00
         21   -1    0    0  501  502  0.00000000000E+00  0.00000000000E+00  0.66170513511E+02  0.66170513511E+02  0.00000000000E+00 0.  1.
          4   -1    0    0  503    0 -0.00000000000E+00 -0.00000000000E+00 -0.27771666476E+03  0.27771666476E+03  0.00000000000E+00 0.  1.
         21    1    1    2  503  502  0.39870098738E+02 -0.10247366708E+03 -0.52082578415E+01  0.11007998532E+03  0.00000000000E+00 0.  1.
          4    1    1    2  501    0 -0.39870098738E+02  0.10247366708E+03 -0.20633789341E+03  0.23380719295E+03  0.00000000000E+00 0.  1.
<mgrwt>
<rscale>  2 0.10995671E+03</rscale>
<asrwt>0</asrwt>
<pdfrwt beam="1">  1       21 0.10180079E-01 0.10995671E+03</pdfrwt>
<pdfrwt beam="2">  1        4 0.42725641E-01 0.10995671E+03</pdfrwt>
<totfact> 0.16727712E+04</totfact>
</mgrwt>
</event>
<event>
 4    1  0.5006371E+003  0.1698369E+03  0.7546771E-02  0.1178018E+00
          1   -1    0    0  503    0 -0.00000000000E+00  0.00000000000E+00  0.20422450338E+03  0.20422450338E+03  0.00000000000E+00 0.  1.
         21   -1    0    0  501  502  0.00000000000E+00 -0.00000000000E+00 -0.54107791713E+03  0.54107791713E+03  0.00000000000E+00 0.  1.
         21    1    1    2  503  502 -0.11247580492E+03  0.12725467735E+03 -0.48876946464E+03  0.51743613052E+03  0.00000000000E+00 0.  1.
          1    1    1    2  501    0  0.11247580492E+03 -0.12725467735E+03  0.15191605089E+03  0.22786628999E+03  0.00000000000E+00 0.  1.
<mgrwt>
<rscale>  2 0.16983686E+03</rscale>
<asrwt>0</asrwt>
<pdfrwt beam="2">  1       21 0.83242755E-01 0.16983686E+03</pdfrwt>
<pdfrwt beam="1">  1        1 0.31419155E-01 0.16983686E+03</pdfrwt>
<totfact> 0.19665541E+03</totfact>
</mgrwt>
</event>
<event>
 4    1  0.5006371E+003  0.1793989E+03  0.7546771E-02  0.1168386E+00
          1   -1    0    0  503    0 -0.00000000000E+00  0.00000000000E+00  0.23375973010E+04  0.23375973010E+04  0.00000000000E+00 0. -1.
         21   -1    0    0  501  502  0.00000000000E+00 -0.00000000000E+00 -0.17388877634E+02  0.17388877634E+02  0.00000000000E+00 0. -1.
         21    1    1    2  503  502  0.34468860681E+02 -0.17605641377E+03  0.62278610369E+03  0.64810993985E+03  0.00000000000E+00 0. -1.
          1    1    1    2  501    0 -0.34468860681E+02  0.17605641377E+03  0.16974223197E+04  0.17068762388E+04  0.00000000000E+00 0. -1.
<mgrwt>
<rscale>  2 0.17939889E+03</rscale>
<asrwt>0</asrwt>
<pdfrwt beam="2">  1       21 0.26752138E-02 0.17939889E+03</pdfrwt>
<pdfrwt beam="1">  1        1 0.35963011E+00 0.17939889E+03</pdfrwt>
<totfact> 0.17945587E+04</totfact>
</mgrwt>
</event>
<event>
 4    1  0.5006371E+003  0.1394071E+03  0.7546771E-02  0.1214129E+00
         -3   -1    0    0    0  501 -0.00000000000E+00  0.00000000000E+00  0.23306230932E+04  0.23306230932E+04  0.00000000000E+00 0.  1.
         21   -1    0    0  501  502  0.00000000000E+00 -0.00000000000E+00 -0.14851494049E+02  0.14851494049E+02  0.00000000000E+00 0.  1.
         21    1    1    2  503  502  0.12573748476E+03  0.60203242079E+02  0.38128176693E+03  0.40596814065E+03  0.00000000000E+00 0.  1.
         -3    1    1    2    0  503 -0.12573748476E+03 -0.60203242079E+02  0.19344898322E+04  0.19395064466E+04  0.00000000000E+00 0.  1.
<mgrwt>
<rscale>  2 0.13940712E+03</rscale>
<asrwt>0</asrwt>
<pdfrwt beam="2">  1       21 0.22848471E-02 0.13940712E+03</pdfrwt>
<pdfrwt beam="1">  1       -3 0.35855711E+00 0.13940712E+03</pdfrwt>
<totfact> 0.10826364E+03</totfact>
</mgrwt>
</event>
<event>
 4    1  0.5006371E+003  0.1372753E+03  0.7546771E-02  0.1217043E+00
          1   -1    0    0  503    0 -0.00000000000E+00  0.00000000000E+00  0.16159147032E+04  0.16159147032E+04  0.00000000000E+00 0.  1.
         21   -1    0    0  501  502  0.00000000000E+00 -0.00000000000E+00 -0.15050742584E+02  0.15050742584E+02  0.00000000000E+00 0.  1.
         21    1    1    2  503  502  0.98398914526E+02  0.95719235704E+02  0.41347191635E+03  0.43566448567E+03  0.00000000000E+00 0.  1.
          1    1    1    2  501    0 -0.98398914526E+02 -0.95719235704E+02  0.11873920443E+04  0.11953009601E+04  0.00000000000E+00 0.  1.
<mgrwt>
<rscale>  2 0.13727534E+03</rscale>
<asrwt>0</asrwt>
<pdfrwt beam="2">  1       21 0.23155001E-02 0.13727534E+03</pdfrwt>
<pdfrwt beam="1">  1        1 0.24860213E+00 0.13727534E+03</pdfrwt>
<totfact> 0.66591619E+04</totfact>
</mgrwt>
</event>
<event>
 4    1  0.5006371E+003  0.1141276E+03  0.7546771E-02  0.1253112E+00
          2   -1    0    0  503    0 -0.00000000000E+00  0.00000000000E+00  0.57383264272E+03  0.57383264272E+03  0.00000000000E+00 0. -1.
         21   -1    0    0  501  502  0.00000000000E+00 -0.00000000000E+00 -0.59757592251E+02  0.59757592251E+02  0.00000000000E+00 0.  1.
         21    1    1    2  503  502  0.15099470441E+02  0.11312435100E+03  0.75610479051E+01  0.11437780485E+03  0.00000000000E+00 0.  1.
          2    1    1    2  501    0 -0.15099470441E+02 -0.11312435100E+03  0.50651400257E+03  0.51921243012E+03  0.00000000000E+00 0. -1.
<mgrwt>
<rscale>  2 0.11412762E+03</rscale>
<asrwt>0</asrwt>
<pdfrwt beam="2">  1       21 0.91934761E-02 0.11412762E+03</pdfrwt>
<pdfrwt beam="1">  1        2 0.88281941E-01 0.11412762E+03</pdfrwt>
<totfact> 0.62597931E+04</totfact>
</mgrwt>
</event>
<event>
 4    1  0.5006371E+003  0.1193284E+03  0.7546771E-02  0.1244209E+00
         -3   -1    0    0    0  501 -0.00000000000E+00  0.00000000000E+00  0.29050791628E+03  0.29050791628E+03  0.00000000000E+00 0. -1.
         21   -1    0    0  503  502  0.00000000000E+00 -0.00000000000E+00 -0.49086444411E+02  0.49086444411E+02  0.00000000000E+00 0. -1.
         21    1    1    2  503  501 -0.80753710092E+02  0.87852760075E+02  0.11423653087E+03  0.16519459474E+03  0.00000000000E+00 0. -1.
         -3    1    1    2    0  502  0.80753710092E+02 -0.87852760075E+02  0.12718494100E+03  0.17439976595E+03  0.00000000000E+00 0. -1.
<mgrwt>
<rscale>  2 0.11932841E+03</rscale>
<asrwt>0</asrwt>
<pdfrwt beam="2">  1       21 0.75517609E-02 0.11932841E+03</pdfrwt>
<pdfrwt beam="1">  1       -3 0.44693525E-01 0.11932841E+03</pdfrwt>
<totfact> 0.31474421E+04</totfact>
</mgrwt>
</event>
<event>
 4    1  0.5006371E+003  0.1285800E+03  0.7546771E-02  0.1229578E+00
         21   -1    0    0  501  502  0.00000000000E+00  0.00000000000E+00  0.27624941873E+02  0.27624941873E+02  0.00000000000E+00 0.  1.
          2   -1    0    0  503    0 -0.00000000000E+00 -0.00000000000E+00 -0.83532808723E+03  0.83532808723E+03  0.00000000000E+00 0.  1.
         21    1    1    2  503  502 -0.16943430906E+01  0.12856887907E+03 -0.17409472502E+03  0.21642966697E+03  0.00000000000E+00 0.  1.
          2    1    1    2  501    0  0.16943430906E+01 -0.12856887907E+03 -0.63360842034E+03  0.64652336214E+03  0.00000000000E+00 0.  1.
<mgrwt>
<rscale>  2 0.12858004E+03</rscale>
<asrwt>0</asrwt>
<pdfrwt beam="1">  1       21 0.42499911E-02 0.12858004E+03</pdfrwt>
<pdfrwt beam="2">  1        2 0.12851201E+00 0.12858004E+03</pdfrwt>
<totfact> 0.14923502E+05</totfact>
</mgrwt>
</event>
<event>
 4    1  0.5006371E+003  0.2321257E+03  0.7546771E-02  0.1125153E+00
         21   -1    0    0  501  502  0.00000000000E+00  0.00000000000E+00  0.17569055304E+02  0.17569055304E+02  0.00000000000E+00 0.  1.
          2   -1    0    0  503    0 -0.00000000000E+00 -0.00000000000E+00 -0.39361050901E+04  0.39361050901E+04  0.00000000000E+00 0. -1.
         21    1    1    2  503  502 -0.17901453656E+03  0.14777050885E+03 -0.10302981561E+04  0.10561233915E+04  0.00000000000E+00 0.  1.
          2    1    1    2  501    0  0.17901453656E+03 -0.14777050885E+03 -0.28882378786E+04  0.28975507539E+04  0.00000000000E+00 0. -1.
<mgrwt>
<rscale>  2 0.23212567E+03</rscale>
<asrwt>0</asrwt>
<pdfrwt beam="1">  1       21 0.27029296E-02 0.23212567E+03</pdfrwt>
<pdfrwt beam="2">  1        2 0.60555507E+00 0.23212567E+03</pdfrwt>
<totfact> 0.49101417E+03</totfact>
</mgrwt>
</event>
<event>
 4    1  0.5006371E+003  0.1495581E+03  0.7546771E-02  0.1201017E+00
         -4   -1    0    0    0  501 -0.00000000000E+00  0.00000000000E+00  0.58314722830E+02  0.58314722830E+02  0.00000000000E+00 0. -1.
         21   -1    0    0  503  502  0.00000000000E+00 -0.00000000000E+00 -0.40804828901E+03  0.40804828901E+03  0.00000000000E+00 0.  1.
         21    1    1    2  503  501 -0.66292606502E+00  0.14955667050E+03 -0.23198180011E+03  0.27601303003E+03  0.00000000000E+00 0.  1.
         -4    1    1    2    0  502  0.66292606502E+00 -0.14955667050E+03 -0.11775176607E+03  0.19034998181E+03  0.00000000000E+00 0. -1.
<mgrwt>
<rscale>  2 0.14955814E+03</rscale>
<asrwt>0</asrwt>
<pdfrwt beam="2">  1       21 0.62776661E-01 0.14955814E+03</pdfrwt>
<pdfrwt beam="1">  1       -4 0.89714957E-02 0.14955814E+03</pdfrwt>
<totfact> 0.88939604E+03</totfact>
</mgrwt>
</event>
<event>
 4    1  0.5006371E+003  0.1320100E+03  0.7546771E-02  0.1224503E+00
          2   -1    0    0  503    0 -0.00000000000E+00  0.00000000000E+00  0.38560858637E+04  0.38560858637E+04  0.00000000000E+00 0.  1.
         21   -1    0    0  501  502  0.00000000000E+00 -0.00000000000E+00 -0.11600437852E+02  0.11600437852E+02  0.00000000000E+00 0.  1.
         21    1    1    2  503  502 -0.12927531774E+03 -0.26730617776E+02  0.41133835755E+03  0.43200217371E+03  0.00000000000E+00 0.  1.
          2    1    1    2  501    0  0.12927531774E+03  0.26730617776E+02  0.34331470683E+04  0.34356841279E+04  0.00000000000E+00 0.  1.
<mgrwt>
<rscale>  2 0.13200998E+03</rscale>
<asrwt>0</asrwt>
<pdfrwt beam="2">  1       21 0.17846858E-02 0.13200998E+03</pdfrwt>
<pdfrwt beam="1">  1        2 0.59324296E+00 0.13200998E+03</pdfrwt>
<totfact> 0.11829174E+04</totfact>
</mgrwt>
</event>
<event>
 4    1  0.5006371E+003  0.1383395E+03  0.7546771E-02  0.1215581E+00
         21   -1    0    0  503  502  0.00000000000E+00  0.00000000000E+00  0.13259366172E+02  0.13259366172E+02  0.00000000000E+00 0.  1.
          2   -1    0    0  502    0 -0.00000000000E+00 -0.00000000000E+00 -0.22346671516E+04  0.22346671516E+04  0.00000000000E+00 0.  1.
         21    1    1    2  503  501  0.13594792952E+03 -0.25612272628E+02 -0.44186333790E+03  0.46301299920E+03  0.00000000000E+00 0.  1.
          2    1    1    2  501    0 -0.13594792952E+03  0.25612272628E+02 -0.17795444476E+04  0.17849135186E+04  0.00000000000E+00 0.  1.
<mgrwt>
<rscale>  2 0.13833954E+03</rscale>
<asrwt>0</asrwt>
<pdfrwt beam="1">  1       21 0.20399035E-02 0.13833954E+03</pdfrwt>
<pdfrwt beam="2">  1        2 0.34379478E+00 0.13833954E+03</pdfrwt>
<totfact> 0.87511410E+04</totfact>
</mgrwt>
</event>
<event>
 4    1  0.5006371E+003  0.2358481E+03  0.7546771E-02  0.1122590E+00
         21   -1    0    0  503  502  0.00000000000E+00  0.00000000000E+00  0.21845334453E+03  0.21845334453E+03  0.00000000000E+00 0.  1.
         -2   -1    0    0    0  501 -0.00000000000E+00 -0.00000000000E+00 -0.27240980760E+03  0.27240980760E+03  0.00000000000E+00 0.  1.
         21    1    1    2  503  501  0.19194033053E+03  0.13705190104E+03  0.35727663309E+02  0.23853884377E+03  0.00000000000E+00 0.  1.
         -2    1    1    2    0  502 -0.19194033053E+03 -0.13705190104E+03 -0.89684126385E+02  0.25232430836E+03  0.00000000000E+00 0.  1.
<mgrwt>
<rscale>  2 0.23584807E+03</rscale>
<asrwt>0</asrwt>
<pdfrwt beam="1">  1       21 0.33608207E-01 0.23584807E+03</pdfrwt>
<pdfrwt beam="2">  1       -2 0.41909201E-01 0.23584807E+03</pdfrwt>
<totfact> 0.37196958E+03</totfact>
</mgrwt>
</event>
<event>
 4    1  0.5006371E+003  0.1195814E+03  0.7546771E-02  0.1243789E+00
         21   -1    0    0  503  502  0.00000000000E+00  0.00000000000E+00  0.48464473123E+03  0.48464473123E+03  0.00000000000E+00 0.  1.
         -3   -1    0    0    0  501 -0.00000000000E+00 -0.00000000000E+00 -0.91955043911E+02  0.91955043911E+02  0.00000000000E+00 0. -1.
         21    1    1    2  503  501 -0.88686442119E+02 -0.80214919897E+02  0.43393097818E+03  0.45010644543E+03  0.00000000000E+00 0.  1.
         -3    1    1    2    0  502  0.88686442119E+02  0.80214919897E+02 -0.41241290863E+02  0.12649332971E+03  0.00000000000E+00 0. -1.
<mgrwt>
<rscale>  2 0.11958143E+03</rscale>
<asrwt>0</asrwt>
<pdfrwt beam="1">  1       21 0.74560727E-01 0.11958143E+03</pdfrwt>
<pdfrwt beam="2">  1       -3 0.14146930E-01 0.11958143E+03</pdfrwt>
<totfact> 0.32383080E+03</totfact>
</mgrwt>
</event>
<event>
 4    1  0.5006371E+003  0.1585721E+03  0.7546771E-02  0.1190318E+00
         21   -1    0    0  503  502  0.00000000000E+00  0.00000000000E+00  0.42158618904E+02  0.42158618904E+02  0.00000000000E+00 0. -1.
          1   -1    0    0  502    0 -0.00000000000E+00 -0.00000000000E+00 -0.80666542360E+03  0.80666542360E+03  0.00000000000E+00 0. -1.
         21    1    1    2  503  501 -0.80526423260E+02  0.13660385570E+03 -0.16559137629E+03  0.22927193927E+03  0.00000000000E+00 0. -1.
          1    1    1    2  501    0  0.80526423260E+02 -0.13660385570E+03 -0.59891542840E+03  0.61955210323E+03  0.00000000000E+00 0. -1.
<mgrwt>
<rscale>  2 0.15857212E+03</rscale>
<asrwt>0</asrwt>
<pdfrwt beam="1">  1       21 0.64859414E-02 0.15857212E+03</pdfrwt>
<pdfrwt beam="2">  1        1 0.12410237E+00 0.15857212E+03</pdfrwt>
<totfact> 0.43977910E+04</totfact>
</mgrwt>
</event>
<event>
 4    1  0.5006371E+003  0.1046216E+03  0.7546771E-02  0.1270867E+00
         21   -1    0    0  501  502  0.00000000000E+00  0.00000000000E+00  0.20710710997E+02  0.20710710997E+02  0.00000000000E+00 0. -1.
         -3   -1    0    0    0  501 -0.00000000000E+00 -0.00000000000E+00 -0.96727195907E+03  0.96727195907E+03  0.00000000000E+00 0. -1.
         21    1    1    2  503  502 -0.37971693944E+02  0.97487621914E+02 -0.14057306533E+03  0.17523262443E+03  0.00000000000E+00 0. -1.
         -3    1    1    2    0  503  0.37971693944E+02 -0.97487621914E+02 -0.80598818274E+03  0.81275004564E+03  0.00000000000E+00 0. -1.
<mgrwt>
<rscale>  2 0.10462163E+03</rscale>
<asrwt>0</asrwt>
<pdfrwt beam="1">  1       21 0.31862637E-02 0.10462163E+03</pdfrwt>
<pdfrwt beam="2">  1       -3 0.14881105E+00 0.10462163E+03</pdfrwt>
<totfact> 0.95555372E+03</totfact>
</mgrwt>
</event>
<event>
 4    1  0.5006371E+003  0.1018337E+03  0.7546771E-02  0.1276486E+00
          2   -1    0    0  503    0 -0.00000000000E+00  0.00000000000E+00  0.21309900578E+04  0.21309900578E+04  0.00000000000E+00 0. -1.
         21   -1    0    0  501  502  0.00000000000E+00 -0.00000000000E+00 -0.67696060590E+02  0.67696060590E+02  0.00000000000E+00 0. -1.
         21    1    1    2  503  502 -0.22421819620E+01  0.10180903226E+03 -0.27446080742E+02  0.10546750105E+03  0.00000000000E+00 0. -1.
          2    1    1    2  501    0  0.22421819620E+01 -0.10180903226E+03  0.20907400779E+04  0.20932186173E+04  0.00000000000E+00 0. -1.
<mgrwt>
<rscale>  2 0.10183372E+03</rscale>
<asrwt>0</asrwt>
<pdfrwt beam="2">  1       21 0.10414780E-01 0.10183372E+03</pdfrwt>
<pdfrwt beam="1">  1        2 0.32784457E+00 0.10183372E+03</pdfrwt>
<totfact> 0.65763246E+03</totfact>
</mgrwt>
</event>
<event>
 4    1  0.5006371E+003  0.1607228E+03  0.7546771E-02  0.1187883E+00
         21   -1    0    0  501  502  0.00000000000E+00  0.00000000000E+00  0.15783033789E+03  0.15783033789E+03  0.00000000000E+00 0.  1.
          2   -1    0    0  503    0 -0.00000000000E+00 -0.00000000000E+00 -0.16737571091E+03  0.16737571091E+03  0.00000000000E+00 0.  1.
         21    1    1    2  503  502 -0.10420995173E+03  0.12236055582E+03  0.19427518074E+02  0.16189270557E+03  0.00000000000E+00 0.  1.
          2    1    1    2  501    0  0.10420995173E+03 -0.12236055582E+03 -0.28972891102E+02  0.16331334323E+03  0.00000000000E+00 0.  1.
<mgrwt>
<rscale>  2 0.16072280E+03</rscale>
<asrwt>0</asrwt>
<pdfrwt beam="1">  1       21 0.24281590E-01 0.16072280E+03</pdfrwt>
<pdfrwt beam="2">  1        2 0.25750109E-01 0.16072280E+03</pdfrwt>
<totfact> 0.40922659E+04</totfact>
</mgrwt>
</event>
<event>
 4    1  0.5006371E+003  0.1168169E+03  0.7546771E-02  0.1248443E+00
         21   -1    0    0  503  502  0.00000000000E+00  0.00000000000E+00  0.34436439378E+02  0.34436439378E+02  0.00000000000E+00 0.  1.
          1   -1    0    0  502    0 -0.00000000000E+00 -0.00000000000E+00 -0.27060682300E+04  0.27060682300E+04  0.00000000000E+00 0.  1.
         21    1    1    2  503  501  0.11671134215E+03  0.49642993274E+01 -0.69861518535E+02  0.13611323751E+03  0.00000000000E+00 0.  1.
          1    1    1    2  501    0 -0.11671134215E+03 -0.49642993274E+01 -0.26017702720E+04  0.26043914318E+04  0.00000000000E+00 0.  1.
<mgrwt>
<rscale>  2 0.11681687E+03</rscale>
<asrwt>0</asrwt>
<pdfrwt beam="1">  1       21 0.52979133E-02 0.11681687E+03</pdfrwt>
<pdfrwt beam="2">  1        1 0.41631822E+00 0.11681687E+03</pdfrwt>
<totfact> 0.34196057E+03</totfact>
</mgrwt>
</event>
<event>
 4    1  0.5006371E+003  0.2012635E+03  0.7546771E-02  0.1148677E+00
          1   -1    0    0  502    0 -0.00000000000E+00  0.00000000000E+00  0.20917654477E+03  0.20917654477E+03  0.00000000000E+00 0.  1.
         21   -1    0    0  503  502  0.00000000000E+00 -0.00000000000E+00 -0.42182522567E+03  0.42182522567E+03  0.00000000000E+00 0.  1.
         21    1    1    2  503  501 -0.43365895136E+02 -0.19653600671E+03 -0.33836746907E+03  0.39369981829E+03  0.00000000000E+00 0.  1.
          1    1    1    2  501    0  0.43365895136E+02  0.19653600671E+03  0.12571878817E+03  0.23730195215E+03  0.00000000000E+00 0.  1.
<mgrwt>
<rscale>  2 0.20126352E+03</rscale>
<asrwt>0</asrwt>
<pdfrwt beam="2">  1       21 0.64896187E-01 0.20126352E+03</pdfrwt>
<pdfrwt beam="1">  1        1 0.32181007E-01 0.20126352E+03</pdfrwt>
<totfact> 0.32788129E+03</totfact>
</mgrwt>
</event>
<event>
 4    1  0.5006371E+003  0.1665816E+03  0.7546771E-02  0.1181460E+00
         21   -1    0    0  503  502  0.00000000000E+00  0.00000000000E+00  0.38099615823E+02  0.38099615823E+02  0.00000000000E+00 0. -1.
          2   -1    0    0  502    0 -0.00000000000E+00 -0.00000000000E+00 -0.18993339569E+04  0.18993339569E+04  0.00000000000E+00 0.  1.
         21    1    1    2  503  501  0.11262495329E+03  0.12273978923E+03 -0.16998678239E+03  0.23800197930E+03  0.00000000000E+00 0. -1.
          2    1    1    2  501    0 -0.11262495329E+03 -0.12273978923E+03 -0.16912475587E+04  0.16994315934E+04  0.00000000000E+00 0.  1.
<mgrwt>
<rscale>  2 0.16658162E+03</rscale>
<asrwt>0</asrwt>
<pdfrwt beam="1">  1       21 0.58614784E-02 0.16658162E+03</pdfrwt>
<pdfrwt beam="2">  1        2 0.29220527E+00 0.16658162E+03</pdfrwt>
<totfact> 0.22492668E+04</totfact>
</mgrwt>
</event>
<event>
 4    1  0.5006371E+003  0.1044689E+03  0.7546771E-02  0.1271170E+00
         -2   -1    0    0    0  501 -0.00000000000E+00  0.00000000000E+00  0.38888287192E+03  0.38888287192E+03  0.00000000000E+00 0.  1.
         21   -1    0    0  503  502  0.00000000000E+00 -0.00000000000E+00 -0.32081563839E+02  0.32081563839E+02  0.00000000000E+00 0.  1.
         21    1    1    2  503  501  0.21236234095E+02 -0.10228770947E+03  0.10391905488E+03  0.14735305600E+03  0.00000000000E+00 0.  1.
         -2    1    1    2    0  502 -0.21236234095E+02  0.10228770947E+03  0.25288225321E+03  0.27361137976E+03  0.00000000000E+00 0.  1.
<mgrwt>
<rscale>  2 0.10446891E+03</rscale>
<asrwt>0</asrwt>
<pdfrwt beam="2">  1       21 0.49356255E-02 0.10446891E+03</pdfrwt>
<pdfrwt beam="1">  1       -2 0.59828131E-01 0.10446891E+03</pdfrwt>
<totfact> 0.57859143E+04</totfact>
</mgrwt>
</event>
<event>
 4    1  0.5006371E+003  0.1579458E+03  0.7546771E-02  0.1191036E+00
          2   -1    0    0  502    0 -0.00000000000E+00  0.00000000000E+00  0.20716312284E+04  0.20716312284E+04  0.00000000000E+00 0. -1.
         21   -1    0    0  503  502  0.00000000000E+00 -0.00000000000E+00 -0.46974434228E+02  0.46974434228E+02  0.00000000000E+00 0. -1.
         21    1    1    2  503  501  0.63197466796E+02  0.14475136160E+03  0.98840286641E+02  0.18632304945E+03  0.00000000000E+00 0. -1.
          2    1    1    2  501    0 -0.63197466796E+02 -0.14475136160E+03  0.19258165075E+04  0.19322826132E+04  0.00000000000E+00 0. -1.
<mgrwt>
<rscale>  2 0.15794580E+03</rscale>
<asrwt>0</asrwt>
<pdfrwt beam="2">  1       21 0.72268376E-02 0.15794580E+03</pdfrwt>
<pdfrwt beam="1">  1        2 0.31871243E+00 0.15794580E+03</pdfrwt>
<totfact> 0.12849560E+04</totfact>
</mgrwt>
</event>
<event>
 4    1  0.5006371E+003  0.1222835E+03  0.7546771E-02  0.1239377E+00
         21   -1    0    0  501  502  0.00000000000E+00  0.00000000000E+00  0.20273378087E+02  0.20273378087E+02  0.00000000000E+00 0. -1.
          2   -1    0    0  503    0 -0.00000000000E+00 -0.00000000000E+00 -0.10770315208E+04  0.10770315208E+04  0.00000000000E+00 0.  1.
         21    1    1    2  503  502  0.12884508740E+02 -0.12160276938E+03 -0.22036411192E+03  0.25201901894E+03  0.00000000000E+00 0. -1.
          2    1    1    2  501    0 -0.12884508740E+02  0.12160276938E+03 -0.83639403076E+03  0.84528587991E+03  0.00000000000E+00 0.  1.
<mgrwt>
<rscale>  2 0.12228346E+03</rscale>
<asrwt>0</asrwt>
<pdfrwt beam="1">  1       21 0.31189802E-02 0.12228346E+03</pdfrwt>
<pdfrwt beam="2">  1        2 0.16569721E+00 0.12228346E+03</pdfrwt>
<totfact> 0.17692793E+05</totfact>
</mgrwt>
</event>
<event>
 4    1  0.5006371E+003  0.1058990E+03  0.7546771E-02  0.1268358E+00
          2   -1    0    0  502    0 -0.00000000000E+00  0.00000000000E+00  0.10793089006E+04  0.10793089006E+04  0.00000000000E+00 0. -1.
         21   -1    0    0  503  502  0.00000000000E+00 -0.00000000000E+00 -0.15394684718E+02  0.15394684718E+02  0.00000000000E+00 0. -1.
         21    1    1    2  503  501  0.92263643174E+02 -0.51981007300E+02  0.21989145703E+03  0.24406322510E+03  0.00000000000E+00 0. -1.
          2    1    1    2  501    0 -0.92263643174E+02  0.51981007300E+02  0.84402275888E+03  0.85064036025E+03  0.00000000000E+00 0. -1.
<mgrwt>
<rscale>  2 0.10589903E+03</rscale>
<asrwt>0</asrwt>
<pdfrwt beam="2">  1       21 0.23684139E-02 0.10589903E+03</pdfrwt>
<pdfrwt beam="1">  1        2 0.16604746E+00 0.10589903E+03</pdfrwt>
<totfact> 0.27493802E+05</totfact>
</mgrwt>
</event>
<event>
 4    1  0.5006371E+003  0.1936536E+03  0.7546771E-02  0.1155207E+00
         21   -1    0    0  503  502  0.00000000000E+00  0.00000000000E+00  0.50963495455E+02  0.50963495455E+02  0.00000000000E+00 0.  1.
          2   -1    0    0  502    0 -0.00000000000E+00 -0.00000000000E+00 -0.73794884552E+03  0.73794884552E+03  0.00000000000E+00 0. -1.
         21    1    1    2  503  501  0.25461830245E+02  0.19197245374E+03 -0.32247964017E+03  0.37615800685E+03  0.00000000000E+00 0.  1.
          2    1    1    2  501    0 -0.25461830245E+02 -0.19197245374E+03 -0.36450570989E+03  0.41275433412E+03  0.00000000000E+00 0. -1.
<mgrwt>
<rscale>  2 0.19365363E+03</rscale>
<asrwt>0</asrwt>
<pdfrwt beam="1">  1       21 0.78405376E-02 0.19365363E+03</pdfrwt>
<pdfrwt beam="2">  1        2 0.11353059E+00 0.19365363E+03</pdfrwt>
<totfact> 0.61655670E+04</totfact>
</mgrwt>
</event>
<event>
 4    1  0.5006371E+003  0.1129526E+03  0.7546771E-02  0.1255198E+00
         21   -1    0    0  501  502  0.00000000000E+00  0.00000000000E+00  0.18440024439E+02  0.18440024439E+02  0.00000000000E+00 0.  1.
          2   -1    0    0  503    0 -0.00000000000E+00 -0.00000000000E+00 -0.16045387442E+04  0.16045387442E+04  0.00000000000E+00 0. -1.
         21    1    1    2  503  502 -0.86356414552E+02 -0.72806988527E+02 -0.18103459560E+03  0.21338184720E+03  0.00000000000E+00 0.  1.
          2    1    1    2  501    0  0.86356414552E+02  0.72806988527E+02 -0.14050641242E+04  0.14095969215E+04  0.00000000000E+00 0. -1.
<mgrwt>
<rscale>  2 0.11295259E+03</rscale>
<asrwt>0</asrwt>
<pdfrwt beam="1">  1       21 0.28369277E-02 0.11295259E+03</pdfrwt>
<pdfrwt beam="2">  1        2 0.24685204E+00 0.11295259E+03</pdfrwt>
<totfact> 0.10780960E+05</totfact>
</mgrwt>
</event>
<event>
 4    1  0.5006371E+003  0.1183163E+03  0.7546771E-02  0.1245901E+00
          1   -1    0    0  503    0 -0.00000000000E+00  0.00000000000E+00  0.25303013407E+02  0.25303013407E+02  0.00000000000E+00 0. -1.
         21   -1    0    0  501  502  0.00000000000E+00 -0.00000000000E+00 -0.56119016231E+03  0.56119016231E+03  0.00000000000E+00 0. -1.
         21    1    1    2  503  502  0.11683391189E+03  0.18670126935E+02 -0.30283837337E+03  0.32513046150E+03  0.00000000000E+00 0. -1.
          1    1    1    2  501    0 -0.11683391189E+03 -0.18670126935E+02 -0.23304877553E+03  0.26136271422E+03  0.00000000000E+00 0. -1.
<mgrwt>
<rscale>  2 0.11831626E+03</rscale>
<asrwt>0</asrwt>
<pdfrwt beam="2">  1       21 0.86336940E-01 0.11831626E+03</pdfrwt>
<pdfrwt beam="1">  1        1 0.38927716E-02 0.11831626E+03</pdfrwt>
<totfact> 0.28607711E+04</totfact>
</mgrwt>
</event>
<event>
 4    1  0.5006371E+003  0.1036360E+03  0.7546771E-02  0.1272831E+00
          2   -1    0    0  502    0 -0.00000000000E+00  0.00000000000E+00  0.19357777047E+04  0.19357777047E+04  0.00000000000E+00 0.  1.
         21   -1    0    0  503  502  0.00000000000E+00 -0.00000000000E+00 -0.24254473783E+02  0.24254473783E+02  0.00000000000E+00 0. -1.
         21    1    1    2  503  501  0.26441030822E+02  0.10020625427E+03  0.95107036366E+02  0.14066189915E+03  0.00000000000E+00 0. -1.
          2    1    1    2  501    0 -0.26441030822E+02 -0.10020625427E+03  0.18164161946E+04  0.18193702793E+04  0.00000000000E+00 0.  1.
<mgrwt>
<rscale>  2 0.10363600E+03</rscale>
<asrwt>0</asrwt>
<pdfrwt beam="2">  1       21 0.37314590E-02 0.10363600E+03</pdfrwt>
<pdfrwt beam="1">  1        2 0.29781183E+00 0.10363600E+03</pdfrwt>
<totfact> 0.46812894E+04</totfact>
</mgrwt>
</event>
<event>
 4    1  0.5006371E+003  0.1313483E+03  0.7546771E-02  0.1225469E+00
         21   -1    0    0  503  502  0.00000000000E+00  0.00000000000E+00  0.13302887616E+02  0.13302887616E+02  0.00000000000E+00 0. -1.
          2   -1    0    0  502    0 -0.00000000000E+00 -0.00000000000E+00 -0.35152068723E+04  0.35152068723E+04  0.00000000000E+00 0.  1.
         21    1    1    2  503  501 -0.13120082154E+03  0.62232328959E+01 -0.34943729171E+03  0.37330792255E+03  0.00000000000E+00 0. -1.
          2    1    1    2  501    0  0.13120082154E+03 -0.62232328959E+01 -0.31524666929E+04  0.31552018373E+04  0.00000000000E+00 0.  1.
<mgrwt>
<rscale>  2 0.13134833E+03</rscale>
<asrwt>0</asrwt>
<pdfrwt beam="1">  1       21 0.20465978E-02 0.13134833E+03</pdfrwt>
<pdfrwt beam="2">  1        2 0.54080113E+00 0.13134833E+03</pdfrwt>
<totfact> 0.16194251E+04</totfact>
</mgrwt>
</event>
<event>
 4    1  0.5006371E+003  0.2440234E+03  0.7546771E-02  0.1117141E+00
         21   -1    0    0  501  502  0.00000000000E+00  0.00000000000E+00  0.78754172466E+02  0.78754172466E+02  0.00000000000E+00 0. -1.
          1   -1    0    0  503    0 -0.00000000000E+00 -0.00000000000E+00 -0.84223000479E+03  0.84223000479E+03  0.00000000000E+00 0. -1.
         21    1    1    2  503  502 -0.16225474525E+02  0.24348342310E+03 -0.23449351238E+03  0.33842968353E+03  0.00000000000E+00 0. -1.
          1    1    1    2  501    0  0.16225474525E+02 -0.24348342310E+03 -0.52898231994E+03  0.58255449372E+03  0.00000000000E+00 0. -1.
<mgrwt>
<rscale>  2 0.24402345E+03</rscale>
<asrwt>0</asrwt>
<pdfrwt beam="1">  1       21 0.12116026E-01 0.24402345E+03</pdfrwt>
<pdfrwt beam="2">  1        1 0.12957385E+00 0.24402345E+03</pdfrwt>
<totfact> 0.13560616E+04</totfact>
</mgrwt>
</event>
<event>
 4    1  0.5006371E+003  0.1158669E+03  0.7546771E-02  0.1250075E+00
          2   -1    0    0  502    0 -0.00000000000E+00  0.00000000000E+00  0.36494835492E+03  0.36494835492E+03  0.00000000000E+00 0.  1.
         21   -1    0    0  503  502  0.00000000000E+00 -0.00000000000E+00 -0.53598767278E+02  0.53598767278E+02  0.00000000000E+00 0. -1.
         21    1    1    2  503  501 -0.27960377850E+02  0.11244272162E+03  0.38468491167E+02  0.12208592543E+03  0.00000000000E+00 0. -1.
          2    1    1    2  501    0  0.27960377850E+02 -0.11244272162E+03  0.27288109648E+03  0.29646119677E+03  0.00000000000E+00 0.  1.
<mgrwt>
<rscale>  2 0.11586694E+03</rscale>
<asrwt>0</asrwt>
<pdfrwt beam="2">  1       21 0.82459644E-02 0.11586694E+03</pdfrwt>
<pdfrwt beam="1">  1        2 0.56145899E-01 0.11586694E+03</pdfrwt>
<totfact> 0.12324694E+05</totfact>
</mgrwt>
</event>
<event>
 4    1  0.5006371E+003  0.1202265E+03  0.7546771E-02  0.1242724E+00
         21   -1    0    0  503  502  0.00000000000E+00  0.00000000000E+00  0.10834451331E+03  0.10834451331E+03  0.00000000000E+00 0.  1.
          2   -1    0    0  502    0 -0.00000000000E+00 -0.00000000000E+00 -0.24297529959E+04  0.24297529959E+04  0.00000000000E+00 0.  1.
         21    1    1    2  503  501  0.81098107220E+02 -0.88755370231E+02  0.73012528652E+02  0.14066004436E+03  0.00000000000E+00 0.  1.
          2    1    1    2  501    0 -0.81098107220E+02  0.88755370231E+02 -0.23944210113E+04  0.23974374649E+04  0.00000000000E+00 0.  1.
<mgrwt>
<rscale>  2 0.12022653E+03</rscale>
<asrwt>0</asrwt>
<pdfrwt beam="1">  1       21 0.16668388E-01 0.12022653E+03</pdfrwt>
<pdfrwt beam="2">  1        2 0.37380813E+00 0.12022653E+03</pdfrwt>
<totfact> 0.19631493E+03</totfact>
</mgrwt>
</event>
<event>
 4    1  0.5006371E+003  0.1052513E+03  0.7546771E-02  0.1269625E+00
          2   -1    0    0  502    0 -0.00000000000E+00  0.00000000000E+00  0.14808694971E+04  0.14808694971E+04  0.00000000000E+00 0. -1.
         21   -1    0    0  503  502  0.00000000000E+00 -0.00000000000E+00 -0.14713288841E+03  0.14713288841E+03  0.00000000000E+00 0.  1.
         21    1    1    2  503  501  0.10477923931E+03 -0.99570044632E+01 -0.12616997098E+03  0.16430670256E+03  0.00000000000E+00 0.  1.
          2    1    1    2  501    0 -0.10477923931E+03  0.99570044632E+01  0.14599065797E+04  0.14636956830E+04  0.00000000000E+00 0. -1.
<mgrwt>
<rscale>  2 0.10525128E+03</rscale>
<asrwt>0</asrwt>
<pdfrwt beam="2">  1       21 0.22635830E-01 0.10525128E+03</pdfrwt>
<pdfrwt beam="1">  1        2 0.22782607E+00 0.10525128E+03</pdfrwt>
<totfact> 0.34699704E+03</totfact>
</mgrwt>
</event>
<event>
 4    1  0.5006371E+003  0.1099516E+03  0.7546771E-02  0.1260660E+00
         -1   -1    0    0    0  501 -0.00000000000E+00  0.00000000000E+00  0.19243430427E+04  0.19243430427E+04  0.00000000000E+00 0.  1.
         21   -1    0    0  503  502  0.00000000000E+00 -0.00000000000E+00 -0.12587361946E+02  0.12587361946E+02  0.00000000000E+00 0.  1.
         21    1    1    2  503  501  0.42864600689E+02  0.10125203458E+03  0.27045199422E+03  0.29194799139E+03  0.00000000000E+00 0.  1.
         -1    1    1    2    0  502 -0.42864600689E+02 -0.10125203458E+03  0.16413036866E+04  0.16449824133E+04  0.00000000000E+00 0.  1.
<mgrwt>
<rscale>  2 0.10995157E+03</rscale>
<asrwt>0</asrwt>
<pdfrwt beam="2">  1       21 0.19365187E-02 0.10995157E+03</pdfrwt>
<pdfrwt beam="1">  1       -1 0.29605254E+00 0.10995157E+03</pdfrwt>
<totfact> 0.52024509E+03</totfact>
</mgrwt>
</event>
<event>
 4    1  0.5006371E+003  0.1149565E+03  0.7546771E-02  0.1251657E+00
          2   -1    0    0  502    0 -0.00000000000E+00  0.00000000000E+00  0.20168671316E+03  0.20168671316E+03  0.00000000000E+00 0. -1.
         21   -1    0    0  503  502  0.00000000000E+00 -0.00000000000E+00 -0.10192422157E+03  0.10192422157E+03  0.00000000000E+00 0.  1.
         21    1    1    2  503  501 -0.41107655942E+01 -0.11488302435E+03 -0.40840201232E+02  0.12199561350E+03  0.00000000000E+00 0.  1.
          2    1    1    2  501    0  0.41107655942E+01  0.11488302435E+03  0.14060269282E+03  0.18161532123E+03  0.00000000000E+00 0. -1.
<mgrwt>
<rscale>  2 0.11495655E+03</rscale>
<asrwt>0</asrwt>
<pdfrwt beam="2">  1       21 0.15680650E-01 0.11495655E+03</pdfrwt>
<pdfrwt beam="1">  1        2 0.31028725E-01 0.11495655E+03</pdfrwt>
<totfact> 0.74474254E+04</totfact>
</mgrwt>
</event>
<event>
 4    1  0.5006371E+003  0.1256034E+03  0.7546771E-02  0.1234129E+00
          3   -1    0    0  503    0 -0.00000000000E+00  0.00000000000E+00  0.31018033102E+03  0.31018033102E+03  0.00000000000E+00 0. -1.
         21   -1    0    0  501  502  0.00000000000E+00 -0.00000000000E+00 -0.15768292431E+03  0.15768292431E+03  0.00000000000E+00 0.  1.
         21    1    1    2  503  502 -0.19953439879E+02 -0.12400839108E+03 -0.11629348230E+03  0.17117358104E+03  0.00000000000E+00 0.  1.
          3    1    1    2  501    0  0.19953439879E+02  0.12400839108E+03  0.26879088900E+03  0.29668967429E+03  0.00000000000E+00 0. -1.
<mgrwt>
<rscale>  2 0.12560343E+03</rscale>
<asrwt>0</asrwt>
<pdfrwt beam="2">  1       21 0.24258912E-01 0.12560343E+03</pdfrwt>
<pdfrwt beam="1">  1        3 0.47720051E-01 0.12560343E+03</pdfrwt>
<totfact> 0.34390991E+03</totfact>
</mgrwt>
</event>
<event>
 4    1  0.5006371E+003  0.1051790E+03  0.7546771E-02  0.1269767E+00
         21   -1    0    0  501  502  0.00000000000E+00  0.00000000000E+00  0.25754813047E+02  0.25754813047E+02  0.00000000000E+00 0. -1.
          2   -1    0    0  503    0 -0.00000000000E+00 -0.00000000000E+00 -0.11274329117E+04  0.11274329117E+04  0.00000000000E+00 0.  1.
         21    1    1    2  503  502 -0.74479561745E+02 -0.74265841953E+02 -0.97189705693E+02  0.14320774871E+03  0.00000000000E+00 0. -1.
          2    1    1    2  501    0  0.74479561745E+02  0.74265841953E+02 -0.10044883930E+04  0.10099799760E+04  0.00000000000E+00 0.  1.
<mgrwt>
<rscale>  2 0.10517899E+03</rscale>
<asrwt>0</asrwt>
<pdfrwt beam="1">  1       21 0.39622783E-02 0.10517899E+03</pdfrwt>
<pdfrwt beam="2">  1        2 0.17345125E+00 0.10517899E+03</pdfrwt>
<totfact> 0.11139033E+05</totfact>
</mgrwt>
</event>
<event>
 4    1  0.5006371E+003  0.1923170E+03  0.7546771E-02  0.1156388E+00
          2   -1    0    0  503    0 -0.00000000000E+00  0.00000000000E+00  0.23192668444E+04  0.23192668444E+04  0.00000000000E+00 0.  1.
         21   -1    0    0  501  502  0.00000000000E+00 -0.00000000000E+00 -0.69647890888E+02  0.69647890888E+02  0.00000000000E+00 0. -1.
         21    1    1    2  503  502 -0.15441144965E+02  0.19169616137E+03  0.75975991178E+02  0.20678055634E+03  0.00000000000E+00 0. -1.
          2    1    1    2  501    0  0.15441144965E+02 -0.19169616137E+03  0.21736429624E+04  0.21821341790E+04  0.00000000000E+00 0.  1.
<mgrwt>
<rscale>  2 0.19231705E+03</rscale>
<asrwt>0</asrwt>
<pdfrwt beam="2">  1       21 0.10715062E-01 0.19231705E+03</pdfrwt>
<pdfrwt beam="1">  1        2 0.35681022E+00 0.19231705E+03</pdfrwt>
<totfact> 0.47072634E+03</totfact>
</mgrwt>
</event>
<event>
 4    1  0.5006371E+003  0.1183252E+03  0.7546771E-02  0.1245886E+00
         21   -1    0    0  501  502  0.00000000000E+00  0.00000000000E+00  0.14430739478E+03  0.14430739478E+03  0.00000000000E+00 0. -1.
         -2   -1    0    0    0  501 -0.00000000000E+00 -0.00000000000E+00 -0.19023739264E+03  0.19023739264E+03  0.00000000000E+00 0. -1.
         21    1    1    2  503  502  0.89947095473E+02 -0.76879007918E+02  0.94125659449E+02  0.15119689682E+03  0.00000000000E+00 0. -1.
         -2    1    1    2    0  503 -0.89947095473E+02  0.76879007918E+02 -0.14005565731E+03  0.18334789060E+03  0.00000000000E+00 0. -1.
<mgrwt>
<rscale>  2 0.11832524E+03</rscale>
<asrwt>0</asrwt>
<pdfrwt beam="1">  1       21 0.22201138E-01 0.11832524E+03</pdfrwt>
<pdfrwt beam="2">  1       -2 0.29267291E-01 0.11832524E+03</pdfrwt>
<totfact> 0.16240914E+04</totfact>
</mgrwt>
</event>
<event>
 4    1  0.5006371E+003  0.1066302E+03  0.7546771E-02  0.1266941E+00
         21   -1    0    0  501  502  0.00000000000E+00  0.00000000000E+00  0.16578646918E+02  0.16578646918E+02  0.00000000000E+00 0.  1.
          1   -1    0    0  503    0 -0.00000000000E+00 -0.00000000000E+00 -0.14016449397E+04  0.14016449397E+04  0.00000000000E+00 0. -1.
         21    1    1    2  503  502 -0.44173093190E+02 -0.97050165769E+02 -0.18577751946E+03  0.21420383650E+03  0.00000000000E+00 0.  1.
          1    1    1    2  501    0  0.44173093190E+02  0.97050165769E+02 -0.11992887733E+04  0.12040197501E+04  0.00000000000E+00 0. -1.
<mgrwt>
<rscale>  2 0.10663019E+03</rscale>
<asrwt>0</asrwt>
<pdfrwt beam="1">  1       21 0.25505612E-02 0.10663019E+03</pdfrwt>
<pdfrwt beam="2">  1        1 0.21563768E+00 0.10663019E+03</pdfrwt>
<totfact> 0.78355338E+04</totfact>
</mgrwt>
</event>
<event>
 4    1  0.5006371E+003  0.1425281E+03  0.7546771E-02  0.1209967E+00
         21   -1    0    0  503  502  0.00000000000E+00  0.00000000000E+00  0.86604614526E+03  0.86604614526E+03  0.00000000000E+00 0.  1.
         -1   -1    0    0    0  501 -0.00000000000E+00 -0.00000000000E+00 -0.60005348855E+02  0.60005348855E+02  0.00000000000E+00 0.  1.
         21    1    1    2  503  501  0.96944784773E+02 -0.10447956111E+03  0.76438697382E+03  0.77756139033E+03  0.00000000000E+00 0.  1.
         -1    1    1    2    0  502 -0.96944784773E+02  0.10447956111E+03  0.41653822580E+02  0.14849010378E+03  0.00000000000E+00 0.  1.
<mgrwt>
<rscale>  2 0.14252814E+03</rscale>
<asrwt>0</asrwt>
<pdfrwt beam="1">  1       21 0.13323786E+00 0.14252814E+03</pdfrwt>
<pdfrwt beam="2">  1       -1 0.92315928E-02 0.14252814E+03</pdfrwt>
<totfact> 0.25500225E+03</totfact>
</mgrwt>
</event>
<event>
 4    1  0.5006371E+003  0.1350963E+03  0.7546771E-02  0.1220084E+00
         21   -1    0    0  503  502  0.00000000000E+00  0.00000000000E+00  0.34914009290E+03  0.34914009290E+03  0.00000000000E+00 0.  1.
         -3   -1    0    0    0  501 -0.00000000000E+00 -0.00000000000E+00 -0.52611642370E+02  0.52611642370E+02  0.00000000000E+00 0.  1.
         21    1    1    2  503  501 -0.43466349086E+02 -0.12791280877E+03  0.16435226136E+03  0.21275026666E+03  0.00000000000E+00 0.  1.
         -3    1    1    2    0  502  0.43466349086E+02  0.12791280877E+03  0.13217618917E+03  0.18900146860E+03  0.00000000000E+00 0.  1.
<mgrwt>
<rscale>  2 0.13509630E+03</rscale>
<asrwt>0</asrwt>
<pdfrwt beam="1">  1       21 0.53713859E-01 0.13509630E+03</pdfrwt>
<pdfrwt beam="2">  1       -3 0.80940990E-02 0.13509630E+03</pdfrwt>
<totfact> 0.16600447E+04</totfact>
</mgrwt>
</event>
<event>
 4    1  0.5006371E+003  0.1530276E+03  0.7546771E-02  0.1196801E+00
          2   -1    0    0  503    0 -0.00000000000E+00  0.00000000000E+00  0.17558461271E+03  0.17558461271E+03  0.00000000000E+00 0.  1.
         21   -1    0    0  501  502  0.00000000000E+00 -0.00000000000E+00 -0.14230850550E+03  0.14230850550E+03  0.00000000000E+00 0. -1.
         21    1    1    2  503  502 -0.71018014356E+02 -0.13555034915E+03 -0.23200606135E+02  0.15477636655E+03  0.00000000000E+00 0. -1.
          2    1    1    2  501    0  0.71018014356E+02  0.13555034915E+03  0.56476713348E+02  0.16311675165E+03  0.00000000000E+00 0.  1.
<mgrwt>
<rscale>  2 0.15302763E+03</rscale>
<asrwt>0</asrwt>
<pdfrwt beam="2">  1       21 0.21893616E-01 0.15302763E+03</pdfrwt>
<pdfrwt beam="1">  1        2 0.27013017E-01 0.15302763E+03</pdfrwt>
<totfact> 0.47156175E+04</totfact>
</mgrwt>
</event>
<event>
 4    1  0.5006371E+003  0.1357827E+03  0.7546771E-02  0.1219119E+00
         21   -1    0    0  501  502  0.00000000000E+00  0.00000000000E+00  0.59079223934E+01  0.59079223934E+01  0.00000000000E+00 0. -1.
          2   -1    0    0  503    0 -0.00000000000E+00 -0.00000000000E+00 -0.33985904231E+04  0.33985904231E+04  0.00000000000E+00 0. -1.
         21    1    1    2  503  502  0.13261341155E+03 -0.29165267024E+02 -0.12095974668E+04  0.12171947097E+04  0.00000000000E+00 0. -1.
          2    1    1    2  501    0 -0.13261341155E+03  0.29165267024E+02 -0.21830850339E+04  0.21873036358E+04  0.00000000000E+00 0. -1.
<mgrwt>
<rscale>  2 0.13578266E+03</rscale>
<asrwt>0</asrwt>
<pdfrwt beam="1">  1       21 0.90890981E-03 0.13578266E+03</pdfrwt>
<pdfrwt beam="2">  1        2 0.52286083E+00 0.13578266E+03</pdfrwt>
<totfact> 0.69926587E+04</totfact>
</mgrwt>
</event>
<event>
 4    1  0.5006371E+003  0.1116481E+03  0.7546771E-02  0.1257548E+00
          2   -1    0    0  502    0 -0.00000000000E+00  0.00000000000E+00  0.40311266767E+03  0.40311266767E+03  0.00000000000E+00 0. -1.
         21   -1    0    0  503  502  0.00000000000E+00 -0.00000000000E+00 -0.33584408546E+02  0.33584408546E+02  0.00000000000E+00 0. -1.
         21    1    1    2  503  501  0.83140729621E+02 -0.74517937054E+02  0.12329353726E+03  0.16633279952E+03  0.00000000000E+00 0. -1.
          2    1    1    2  501    0 -0.83140729621E+02  0.74517937054E+02  0.24623472186E+03  0.27036427669E+03  0.00000000000E+00 0. -1.
<mgrwt>
<rscale>  2 0.11164813E+03</rscale>
<asrwt>0</asrwt>
<pdfrwt beam="2">  1       21 0.51668323E-02 0.11164813E+03</pdfrwt>
<pdfrwt beam="1">  1        2 0.62017330E-01 0.11164813E+03</pdfrwt>
<totfact> 0.24499632E+05</totfact>
</mgrwt>
</event>
<event>
 4    1  0.5006371E+003  0.1026716E+03  0.7546771E-02  0.1274776E+00
         21   -1    0    0  503  502  0.00000000000E+00  0.00000000000E+00  0.47913359713E+02  0.47913359713E+02  0.00000000000E+00 0. -1.
          2   -1    0    0  502    0 -0.00000000000E+00 -0.00000000000E+00 -0.75290386134E+03  0.75290386134E+03  0.00000000000E+00 0.  1.
         21    1    1    2  503  501  0.88555294409E+02 -0.51955919157E+02 -0.15631973736E+02  0.10385478471E+03  0.00000000000E+00 0. -1.
          2    1    1    2  501    0 -0.88555294409E+02  0.51955919157E+02 -0.68935852789E+03  0.69696243634E+03  0.00000000000E+00 0.  1.
<mgrwt>
<rscale>  2 0.10267160E+03</rscale>
<asrwt>0</asrwt>
<pdfrwt beam="1">  1       21 0.73712860E-02 0.10267160E+03</pdfrwt>
<pdfrwt beam="2">  1        2 0.11583136E+00 0.10267160E+03</pdfrwt>
<totfact> 0.66759093E+04</totfact>
</mgrwt>
</event>
<event>
 4    1  0.5006371E+003  0.1095706E+03  0.7546771E-02  0.1261367E+00
          1   -1    0    0  503    0 -0.00000000000E+00  0.00000000000E+00  0.81517310476E+03  0.81517310476E+03  0.00000000000E+00 0.  1.
         21   -1    0    0  501  502  0.00000000000E+00 -0.00000000000E+00 -0.11331289436E+03  0.11331289436E+03  0.00000000000E+00 0. -1.
         21    1    1    2  503  502 -0.94276577851E+02  0.55835937996E+02 -0.82093204389E+02  0.13691245126E+03  0.00000000000E+00 0. -1.
          1    1    1    2  501    0  0.94276577851E+02 -0.55835937996E+02  0.78395341480E+03  0.79157354786E+03  0.00000000000E+00 0.  1.
<mgrwt>
<rscale>  2 0.10957064E+03</rscale>
<asrwt>0</asrwt>
<pdfrwt beam="2">  1       21 0.17432753E-01 0.10957064E+03</pdfrwt>
<pdfrwt beam="1">  1        1 0.12541124E+00 0.10957064E+03</pdfrwt>
<totfact> 0.76655310E+03</totfact>
</mgrwt>
</event>
<event>
 4    1  0.5006371E+003  0.1129929E+03  0.7546771E-02  0.1255126E+00
         21   -1    0    0  503  502  0.00000000000E+00  0.00000000000E+00  0.18659213741E+02  0.18659213741E+02  0.00000000000E+00 0. -1.
          2   -1    0    0  502    0 -0.00000000000E+00 -0.00000000000E+00 -0.12529399528E+04  0.12529399528E+04  0.00000000000E+00 0. -1.
         21    1    1    2  503  501  0.27369686212E+02 -0.10962802007E+03 -0.18879285243E+03  0.22002305251E+03  0.00000000000E+00 0. -1.
          2    1    1    2  501    0 -0.27369686212E+02  0.10962802007E+03 -0.10454878867E+04  0.10515761141E+04  0.00000000000E+00 0. -1.
<mgrwt>
<rscale>  2 0.11299293E+03</rscale>
<asrwt>0</asrwt>
<pdfrwt beam="1">  1       21 0.28706473E-02 0.11299293E+03</pdfrwt>
<pdfrwt beam="2">  1        2 0.19276006E+00 0.11299293E+03</pdfrwt>
<totfact> 0.16149744E+05</totfact>
</mgrwt>
</event>
<event>
 4    1  0.5006371E+003  0.1098317E+03  0.7546771E-02  0.1260882E+00
         -1   -1    0    0    0  501 -0.00000000000E+00  0.00000000000E+00  0.83751427120E+02  0.83751427120E+02  0.00000000000E+00 0.  1.
         21   -1    0    0  503  502  0.00000000000E+00 -0.00000000000E+00 -0.47430782491E+03  0.47430782491E+03  0.00000000000E+00 0.  1.
         21    1    1    2  503  501 -0.11959041859E+02  0.10917871495E+03 -0.42811819562E+03  0.44198212622E+03  0.00000000000E+00 0.  1.
         -1    1    1    2    0  502  0.11959041859E+02 -0.10917871495E+03  0.37561797827E+02  0.11607712581E+03  0.00000000000E+00 0.  1.
<mgrwt>
<rscale>  2 0.10983174E+03</rscale>
<asrwt>0</asrwt>
<pdfrwt beam="2">  1       21 0.72970435E-01 0.10983174E+03</pdfrwt>
<pdfrwt beam="1">  1       -1 0.12884835E-01 0.10983174E+03</pdfrwt>
<totfact> 0.63119689E+03</totfact>
</mgrwt>
</event>
<event>
 4    1  0.5006371E+003  0.1438211E+03  0.7546771E-02  0.1208278E+00
         21   -1    0    0  503  502  0.00000000000E+00  0.00000000000E+00  0.13270194152E+03  0.13270194152E+03  0.00000000000E+00 0. -1.
         -4   -1    0    0    0  501 -0.00000000000E+00 -0.00000000000E+00 -0.20599972348E+03  0.20599972348E+03  0.00000000000E+00 0. -1.
         21    1    1    2  503  501  0.61190346912E+02  0.13015469624E+03  0.46890912537E+02  0.15127214280E+03  0.00000000000E+00 0. -1.
         -4    1    1    2    0  502 -0.61190346912E+02 -0.13015469624E+03 -0.12018869449E+03  0.18742952220E+03  0.00000000000E+00 0. -1.
<mgrwt>
<rscale>  2 0.14382108E+03</rscale>
<asrwt>0</asrwt>
<pdfrwt beam="1">  1       21 0.20415683E-01 0.14382108E+03</pdfrwt>
<pdfrwt beam="2">  1       -4 0.31692265E-01 0.14382108E+03</pdfrwt>
<totfact> 0.87691039E+03</totfact>
</mgrwt>
</event>
<event>
 4    1  0.5006371E+003  0.1038322E+03  0.7546771E-02  0.1272438E+00
         -3   -1    0    0    0  501 -0.00000000000E+00  0.00000000000E+00  0.10886814060E+03  0.10886814060E+03  0.00000000000E+00 0. -1.
         21   -1    0    0  503  502  0.00000000000E+00 -0.00000000000E+00 -0.23484286975E+03  0.23484286975E+03  0.00000000000E+00 0.  1.
         21    1    1    2  503  501  0.54707578368E+02 -0.88250773040E+02 -0.19367864151E+03  0.21975562393E+03  0.00000000000E+00 0.  1.
         -3    1    1    2    0  502 -0.54707578368E+02  0.88250773040E+02  0.67703912358E+02  0.12395538642E+03  0.00000000000E+00 0. -1.
<mgrwt>
<rscale>  2 0.10383216E+03</rscale>
<asrwt>0</asrwt>
<pdfrwt beam="2">  1       21 0.36129672E-01 0.10383216E+03</pdfrwt>
<pdfrwt beam="1">  1       -3 0.16748945E-01 0.10383216E+03</pdfrwt>
<totfact> 0.10819053E+04</totfact>
</mgrwt>
</event>
<event>
 4    1  0.5006371E+003  0.1156608E+03  0.7546771E-02  0.1250432E+00
          2   -1    0    0  502    0 -0.00000000000E+00  0.00000000000E+00  0.66635959370E+03  0.66635959370E+03  0.00000000000E+00 0.  1.
         21   -1    0    0  503  502  0.00000000000E+00 -0.00000000000E+00 -0.32941905838E+03  0.32941905838E+03  0.00000000000E+00 0. -1.
         21    1    1    2  503  501 -0.49252164310E+02  0.10465008036E+03 -0.31400947651E+03  0.33463318178E+03  0.00000000000E+00 0. -1.
          2    1    1    2  501    0  0.49252164310E+02 -0.10465008036E+03  0.65095001183E+03  0.66114547031E+03  0.00000000000E+00 0.  1.
<mgrwt>
<rscale>  2 0.11566078E+03</rscale>
<asrwt>0</asrwt>
<pdfrwt beam="2">  1       21 0.50679855E-01 0.11566078E+03</pdfrwt>
<pdfrwt beam="1">  1        2 0.10251686E+00 0.11566078E+03</pdfrwt>
<totfact> 0.21683240E+03</totfact>
</mgrwt>
</event>
<event>
 4    1  0.5006371E+003  0.1253163E+03  0.7546771E-02  0.1234576E+00
         21   -1    0    0  503  502  0.00000000000E+00  0.00000000000E+00  0.10647953591E+03  0.10647953591E+03  0.00000000000E+00 0.  1.
          1   -1    0    0  502    0 -0.00000000000E+00 -0.00000000000E+00 -0.16220276714E+03  0.16220276714E+03  0.00000000000E+00 0.  1.
         21    1    1    2  503  501  0.12035621281E+03 -0.34907816189E+02  0.12604867639E+02  0.12594862556E+03  0.00000000000E+00 0.  1.
          1    1    1    2  501    0 -0.12035621281E+03  0.34907816189E+02 -0.68328098870E+02  0.14273367748E+03  0.00000000000E+00 0.  1.
<mgrwt>
<rscale>  2 0.12531629E+03</rscale>
<asrwt>0</asrwt>
<pdfrwt beam="1">  1       21 0.16381467E-01 0.12531629E+03</pdfrwt>
<pdfrwt beam="2">  1        1 0.24954272E-01 0.12531629E+03</pdfrwt>
<totfact> 0.68544714E+04</totfact>
</mgrwt>
</event>
<event>
 4    1  0.5006371E+003  0.1133664E+03  0.7546771E-02  0.1254460E+00
          2   -1    0    0  503    0 -0.00000000000E+00  0.00000000000E+00  0.28039959155E+04  0.28039959155E+04  0.00000000000E+00 0.  1.
         21   -1    0    0  501  502  0.00000000000E+00 -0.00000000000E+00 -0.54523185518E+01  0.54523185518E+01  0.00000000000E+00 0.  1.
         21    1    1    2  503  502 -0.40614849216E+02  0.10584125729E+03  0.83850693115E+03  0.84613581139E+03  0.00000000000E+00 0.  1.
          2    1    1    2  501    0  0.40614849216E+02 -0.10584125729E+03  0.19600366658E+04  0.19633124226E+04  0.00000000000E+00 0.  1.
<mgrwt>
<rscale>  2 0.11336639E+03</rscale>
<asrwt>0</asrwt>
<pdfrwt beam="2">  1       21 0.83882048E-03 0.11336639E+03</pdfrwt>
<pdfrwt beam="1">  1        2 0.43138283E+00 0.11336639E+03</pdfrwt>
<totfact> 0.17897810E+05</totfact>
</mgrwt>
</event>
<event>
 4    1  0.5006371E+003  0.1461503E+03  0.7546771E-02  0.1205285E+00
          1   -1    0    0  503    0 -0.00000000000E+00  0.00000000000E+00  0.21911949195E+04  0.21911949195E+04  0.00000000000E+00 0.  1.
         21   -1    0    0  501  502  0.00000000000E+00 -0.00000000000E+00 -0.13728681902E+02  0.13728681902E+02  0.00000000000E+00 0.  1.
         21    1    1    2  503  502  0.13509496741E+03 -0.55760634693E+02  0.49509112235E+03  0.51621228001E+03  0.00000000000E+00 0.  1.
          1    1    1    2  501    0 -0.13509496741E+03  0.55760634693E+02  0.16823751153E+04  0.16887113214E+04  0.00000000000E+00 0.  1.
<mgrwt>
<rscale>  2 0.14615026E+03</rscale>
<asrwt>0</asrwt>
<pdfrwt beam="2">  1       21 0.21121067E-02 0.14615026E+03</pdfrwt>
<pdfrwt beam="1">  1        1 0.33710663E+00 0.14615026E+03</pdfrwt>
<totfact> 0.33158601E+04</totfact>
</mgrwt>
</event>
<event>
 4    1  0.5006371E+003  0.1051646E+03  0.7546771E-02  0.1269796E+00
          2   -1    0    0  502    0 -0.00000000000E+00  0.00000000000E+00  0.21453378787E+04  0.21453378787E+04  0.00000000000E+00 0. -1.
         21   -1    0    0  503  502  0.00000000000E+00 -0.00000000000E+00 -0.21441545982E+02  0.21441545982E+02  0.00000000000E+00 0.  1.
         21    1    1    2  503  501  0.92636066372E+02 -0.49780971858E+02  0.11773759196E+03  0.15786616646E+03  0.00000000000E+00 0.  1.
          2    1    1    2  501    0 -0.92636066372E+02  0.49780971858E+02  0.20061587407E+04  0.20089132582E+04  0.00000000000E+00 0. -1.
<mgrwt>
<rscale>  2 0.10516457E+03</rscale>
<asrwt>0</asrwt>
<pdfrwt beam="2">  1       21 0.32987011E-02 0.10516457E+03</pdfrwt>
<pdfrwt beam="1">  1        2 0.33005181E+00 0.10516457E+03</pdfrwt>
<totfact> 0.44860404E+04</totfact>
</mgrwt>
</event>
<event>
 4    1  0.5006371E+003  0.1022485E+03  0.7546771E-02  0.1275637E+00
          1   -1    0    0  503    0 -0.00000000000E+00  0.00000000000E+00  0.70298785211E+03  0.70298785211E+03  0.00000000000E+00 0. -1.
         21   -1    0    0  501  502  0.00000000000E+00 -0.00000000000E+00 -0.17966471645E+03  0.17966471645E+03  0.00000000000E+00 0.  1.
         21    1    1    2  503  502 -0.59862406187E+02  0.82892992494E+02 -0.16100466284E+03  0.19072822899E+03  0.00000000000E+00 0.  1.
          1    1    1    2  501    0  0.59862406187E+02 -0.82892992494E+02  0.68432779850E+03  0.69192433956E+03  0.00000000000E+00 0. -1.
<mgrwt>
<rscale>  2 0.10224850E+03</rscale>
<asrwt>0</asrwt>
<pdfrwt beam="2">  1       21 0.27640726E-01 0.10224850E+03</pdfrwt>
<pdfrwt beam="1">  1        1 0.10815198E+00 0.10224850E+03</pdfrwt>
<totfact> 0.40580740E+03</totfact>
</mgrwt>
</event>
<event>
 4    1  0.5006371E+003  0.1153634E+03  0.7546771E-02  0.1250948E+00
         -3   -1    0    0    0  501 -0.00000000000E+00  0.00000000000E+00  0.58180997627E+03  0.58180997627E+03  0.00000000000E+00 0.  1.
         21   -1    0    0  503  502  0.00000000000E+00 -0.00000000000E+00 -0.29329353489E+02  0.29329353489E+02  0.00000000000E+00 0.  1.
         21    1    1    2  503  501 -0.11514459884E+03 -0.71010283868E+01  0.13289056497E+03  0.17597899166E+03  0.00000000000E+00 0.  1.
         -3    1    1    2    0  502  0.11514459884E+03  0.71010283868E+01  0.41959005781E+03  0.43516033810E+03  0.00000000000E+00 0.  1.
<mgrwt>
<rscale>  2 0.11536335E+03</rscale>
<asrwt>0</asrwt>
<pdfrwt beam="2">  1       21 0.45122087E-02 0.11536335E+03</pdfrwt>
<pdfrwt beam="1">  1       -3 0.89509218E-01 0.11536335E+03</pdfrwt>
<totfact> 0.17727998E+04</totfact>
</mgrwt>
</event>
<event>
 4    1  0.5006371E+003  0.1125218E+03  0.7546771E-02  0.1255970E+00
         21   -1    0    0  503  502  0.00000000000E+00  0.00000000000E+00  0.11059182832E+03  0.11059182832E+03  0.00000000000E+00 0.  1.
         -1   -1    0    0    0  501 -0.00000000000E+00 -0.00000000000E+00 -0.45120043285E+03  0.45120043285E+03  0.00000000000E+00 0.  1.
         21    1    1    2  503  501  0.10541991759E+03  0.39342042377E+02  0.72352362024E+02  0.13377600538E+03  0.00000000000E+00 0.  1.
         -1    1    1    2    0  502 -0.10541991759E+03 -0.39342042377E+02 -0.41296096655E+03  0.42801625579E+03  0.00000000000E+00 0.  1.
<mgrwt>
<rscale>  2 0.11252180E+03</rscale>
<asrwt>0</asrwt>
<pdfrwt beam="1">  1       21 0.17014128E-01 0.11252180E+03</pdfrwt>
<pdfrwt beam="2">  1       -1 0.69415451E-01 0.11252180E+03</pdfrwt>
<totfact> 0.64054952E+03</totfact>
</mgrwt>
</event>
<event>
 4    1  0.5006371E+003  0.1196360E+03  0.7546771E-02  0.1243699E+00
          1   -1    0    0  503    0 -0.00000000000E+00  0.00000000000E+00  0.17296068834E+04  0.17296068834E+04  0.00000000000E+00 0.  1.
         21   -1    0    0  501  502  0.00000000000E+00 -0.00000000000E+00 -0.96708919245E+01  0.96708919245E+01  0.00000000000E+00 0.  1.
         21    1    1    2  503  502  0.10167034190E+03  0.63054886694E+02  0.52959360013E+03  0.54293844813E+03  0.00000000000E+00 0.  1.
          1    1    1    2  501    0 -0.10167034190E+03 -0.63054886694E+02  0.11903423914E+04  0.11963393272E+04  0.00000000000E+00 0.  1.
<mgrwt>
<rscale>  2 0.11963602E+03</rscale>
<asrwt>0</asrwt>
<pdfrwt beam="2">  1       21 0.14878309E-02 0.11963602E+03</pdfrwt>
<pdfrwt beam="1">  1        1 0.26609312E+00 0.11963602E+03</pdfrwt>
<totfact> 0.11489055E+05</totfact>
</mgrwt>
</event>
<event>
 4    1  0.5006371E+003  0.1106067E+03  0.7546771E-02  0.1259451E+00
         21   -1    0    0  501  502  0.00000000000E+00  0.00000000000E+00  0.51154660920E+02  0.51154660920E+02  0.00000000000E+00 0.  1.
          4   -1    0    0  503    0 -0.00000000000E+00 -0.00000000000E+00 -0.40777241436E+03  0.40777241436E+03  0.00000000000E+00 0.  1.
         21    1    1    2  503  502 -0.61363862315E+02  0.92023446216E+02 -0.30752713947E+02  0.11480229818E+03  0.00000000000E+00 0.  1.
          4    1    1    2  501    0  0.61363862315E+02 -0.92023446216E+02 -0.32586503949E+03  0.34412477710E+03  0.00000000000E+00 0.  1.
<mgrwt>
<rscale>  2 0.11060668E+03</rscale>
<asrwt>0</asrwt>
<pdfrwt beam="1">  1       21 0.78699480E-02 0.11060668E+03</pdfrwt>
<pdfrwt beam="2">  1        4 0.62734217E-01 0.11060668E+03</pdfrwt>
<totfact> 0.11930569E+04</totfact>
</mgrwt>
</event>
<event>
 4    1  0.5006371E+003  0.1044615E+03  0.7546771E-02  0.1271184E+00
         -3   -1    0    0    0  501 -0.00000000000E+00  0.00000000000E+00  0.21096559025E+03  0.21096559025E+03  0.00000000000E+00 0.  1.
         21   -1    0    0  503  502  0.00000000000E+00 -0.00000000000E+00 -0.37694724262E+03  0.37694724262E+03  0.00000000000E+00 0.  1.
         21    1    1    2  503  501  0.45079982870E+02  0.94233717071E+02 -0.35603490891E+03  0.37104319782E+03  0.00000000000E+00 0.  1.
         -3    1    1    2    0  502 -0.45079982870E+02 -0.94233717071E+02  0.19005325653E+03  0.21686963505E+03  0.00000000000E+00 0.  1.
<mgrwt>
<rscale>  2 0.10446147E+03</rscale>
<asrwt>0</asrwt>
<pdfrwt beam="2">  1       21 0.57991883E-01 0.10446147E+03</pdfrwt>
<pdfrwt beam="1">  1       -3 0.32456245E-01 0.10446147E+03</pdfrwt>
<totfact> 0.12752893E+03</totfact>
</mgrwt>
</event>
<event>
 4    1  0.5006371E+003  0.1078475E+03  0.7546771E-02  0.1264609E+00
         21   -1    0    0  501  502  0.00000000000E+00  0.00000000000E+00  0.15125642316E+02  0.15125642316E+02  0.00000000000E+00 0. -1.
          2   -1    0    0  503    0 -0.00000000000E+00 -0.00000000000E+00 -0.19675835631E+04  0.19675835631E+04  0.00000000000E+00 0. -1.
         21    1    1    2  503  502  0.98899716231E+02 -0.43010895904E+02 -0.20247494438E+03  0.22940617720E+03  0.00000000000E+00 0. -1.
          2    1    1    2  501    0 -0.98899716231E+02  0.43010895904E+02 -0.17499829764E+04  0.17533030282E+04  0.00000000000E+00 0. -1.
<mgrwt>
<rscale>  2 0.10784754E+03</rscale>
<asrwt>0</asrwt>
<pdfrwt beam="1">  1       21 0.23270223E-02 0.10784754E+03</pdfrwt>
<pdfrwt beam="2">  1        2 0.30270511E+00 0.10784754E+03</pdfrwt>
<totfact> 0.97372689E+04</totfact>
</mgrwt>
</event>
<event>
 4    1  0.5006371E+003  0.1200368E+03  0.7546771E-02  0.1243036E+00
         -1   -1    0    0    0  501 -0.00000000000E+00  0.00000000000E+00  0.68947817869E+03  0.68947817869E+03  0.00000000000E+00 0.  1.
         21   -1    0    0  501  502  0.00000000000E+00 -0.00000000000E+00 -0.73189029587E+02  0.73189029587E+02  0.00000000000E+00 0.  1.
         21    1    1    2  503  502 -0.11684939952E+03  0.27478087285E+02 -0.14181176136E+02  0.12087155664E+03  0.00000000000E+00 0.  1.
         -1    1    1    2    0  503  0.11684939952E+03 -0.27478087285E+02  0.63047032524E+03  0.64179565163E+03  0.00000000000E+00 0.  1.
<mgrwt>
<rscale>  2 0.12003678E+03</rscale>
<asrwt>0</asrwt>
<pdfrwt beam="2">  1       21 0.11259851E-01 0.12003678E+03</pdfrwt>
<pdfrwt beam="1">  1       -1 0.10607356E+00 0.12003678E+03</pdfrwt>
<totfact> 0.55187456E+03</totfact>
</mgrwt>
</event>
<event>
 4    1  0.5006371E+003  0.1993052E+03  0.7546771E-02  0.1150327E+00
         21   -1    0    0  503  502  0.00000000000E+00  0.00000000000E+00  0.22271239619E+04  0.22271239619E+04  0.00000000000E+00 0. -1.
         -4   -1    0    0    0  501 -0.00000000000E+00 -0.00000000000E+00 -0.17839439922E+02  0.17839439922E+02  0.00000000000E+00 0. -1.
         21    1    1    2  503  501 -0.14113176175E+03  0.14072807877E+03  0.11206475184E+04  0.11382325891E+04  0.00000000000E+00 0. -1.
         -4    1    1    2    0  502  0.14113176175E+03 -0.14072807877E+03  0.10886370036E+04  0.11067308127E+04  0.00000000000E+00 0. -1.
<mgrwt>
<rscale>  2 0.19930521E+03</rscale>
<asrwt>0</asrwt>
<pdfrwt beam="1">  1       21 0.34263424E+00 0.19930521E+03</pdfrwt>
<pdfrwt beam="2">  1       -4 0.27445310E-02 0.19930521E+03</pdfrwt>
<totfact> 0.50343024E+02</totfact>
</mgrwt>
</event>
<event>
 4    1  0.5006371E+003  0.1941628E+03  0.7546771E-02  0.1154759E+00
          4   -1    0    0  503    0 -0.00000000000E+00  0.00000000000E+00  0.44539735721E+03  0.44539735721E+03  0.00000000000E+00 0. -1.
         21   -1    0    0  501  502  0.00000000000E+00 -0.00000000000E+00 -0.13131364833E+03  0.13131364833E+03  0.00000000000E+00 0.  1.
         21    1    1    2  503  502  0.12622960177E+03 -0.14753056750E+03 -0.14868235263E+02  0.19473121253E+03  0.00000000000E+00 0.  1.
          4    1    1    2  501    0 -0.12622960177E+03  0.14753056750E+03  0.32895194415E+03  0.38197979301E+03  0.00000000000E+00 0. -1.
<mgrwt>
<rscale>  2 0.19416277E+03</rscale>
<asrwt>0</asrwt>
<pdfrwt beam="2">  1       21 0.20202100E-01 0.19416277E+03</pdfrwt>
<pdfrwt beam="1">  1        4 0.68522670E-01 0.19416277E+03</pdfrwt>
<totfact> 0.19022935E+03</totfact>
</mgrwt>
</event>
<event>
 4    1  0.5006371E+003  0.1137552E+03  0.7546771E-02  0.1253770E+00
          2   -1    0    0  503    0 -0.00000000000E+00  0.00000000000E+00  0.43494574248E+03  0.43494574248E+03  0.00000000000E+00 0.  1.
         21   -1    0    0  501  502  0.00000000000E+00 -0.00000000000E+00 -0.40157586750E+02  0.40157586750E+02  0.00000000000E+00 0.  1.
         21    1    1    2  503  502  0.69736155447E+02  0.89872749709E+02  0.76467937823E+02  0.13706782274E+03  0.00000000000E+00 0.  1.
          2    1    1    2  501    0 -0.69736155447E+02 -0.89872749709E+02  0.31832021791E+03  0.33803550649E+03  0.00000000000E+00 0.  1.
<mgrwt>
<rscale>  2 0.11375519E+03</rscale>
<asrwt>0</asrwt>
<pdfrwt beam="2">  1       21 0.61780906E-02 0.11375519E+03</pdfrwt>
<pdfrwt beam="1">  1        2 0.66914726E-01 0.11375519E+03</pdfrwt>
<totfact> 0.16734084E+05</totfact>
</mgrwt>
</event>
<event>
 4    1  0.5006371E+003  0.1915779E+03  0.7546771E-02  0.1157046E+00
         -1   -1    0    0    0  501 -0.00000000000E+00  0.00000000000E+00  0.18625767995E+03  0.18625767995E+03  0.00000000000E+00 0. -1.
         21   -1    0    0  501  502  0.00000000000E+00 -0.00000000000E+00 -0.26759891606E+03  0.26759891606E+03  0.00000000000E+00 0. -1.
         21    1    1    2  503  502  0.13984237961E+03 -0.13094351620E+03 -0.15718816358E+03  0.24781084387E+03  0.00000000000E+00 0. -1.
         -1    1    1    2    0  503 -0.13984237961E+03  0.13094351620E+03  0.75846927469E+02  0.20604575215E+03  0.00000000000E+00 0. -1.
<mgrwt>
<rscale>  2 0.19157791E+03</rscale>
<asrwt>0</asrwt>
<pdfrwt beam="2">  1       21 0.41169064E-01 0.19157791E+03</pdfrwt>
<pdfrwt beam="1">  1       -1 0.28655028E-01 0.19157791E+03</pdfrwt>
<totfact> 0.57379880E+03</totfact>
</mgrwt>
</event>
<event>
 4    1  0.5006371E+003  0.1730328E+03  0.7546771E-02  0.1174722E+00
         -1   -1    0    0    0  501 -0.00000000000E+00  0.00000000000E+00  0.47844082317E+03  0.47844082317E+03  0.00000000000E+00 0. -1.
         21   -1    0    0  501  502  0.00000000000E+00 -0.00000000000E+00 -0.11349577014E+03  0.11349577014E+03  0.00000000000E+00 0. -1.
         21    1    1    2  503  502  0.15977813287E+03 -0.66417564181E+02 -0.15764973118E+02  0.17374947181E+03  0.00000000000E+00 0. -1.
         -1    1    1    2    0  503 -0.15977813287E+03  0.66417564181E+02  0.38071002615E+03  0.41818712150E+03  0.00000000000E+00 0. -1.
<mgrwt>
<rscale>  2 0.17303278E+03</rscale>
<asrwt>0</asrwt>
<pdfrwt beam="2">  1       21 0.17460888E-01 0.17303278E+03</pdfrwt>
<pdfrwt beam="1">  1       -1 0.73606279E-01 0.17303278E+03</pdfrwt>
<totfact> 0.53833767E+03</totfact>
</mgrwt>
</event>
<event>
 4    1  0.5006371E+003  0.1094060E+03  0.7546771E-02  0.1261674E+00
          1   -1    0    0  503    0 -0.00000000000E+00  0.00000000000E+00  0.22107529977E+04  0.22107529977E+04  0.00000000000E+00 0.  1.
         21   -1    0    0  501  502  0.00000000000E+00 -0.00000000000E+00 -0.54825598688E+01  0.54825598688E+01  0.00000000000E+00 0.  1.
         21    1    1    2  503  502  0.94762749763E+02  0.54678024095E+02  0.97898400434E+03  0.98507834501E+03  0.00000000000E+00 0.  1.
          1    1    1    2  501    0 -0.94762749763E+02 -0.54678024095E+02  0.12262864335E+04  0.12311572126E+04  0.00000000000E+00 0.  1.
<mgrwt>
<rscale>  2 0.10940596E+03</rscale>
<asrwt>0</asrwt>
<pdfrwt beam="2">  1       21 0.84347252E-03 0.10940596E+03</pdfrwt>
<pdfrwt beam="1">  1        1 0.34011513E+00 0.10940596E+03</pdfrwt>
<totfact> 0.13950798E+05</totfact>
</mgrwt>
</event>
<event>
 4    1  0.5006371E+003  0.1564381E+03  0.7546771E-02  0.1192778E+00
          4   -1    0    0  503    0 -0.00000000000E+00  0.00000000000E+00  0.14101822483E+03  0.14101822483E+03  0.00000000000E+00 0.  1.
         21   -1    0    0  501  502  0.00000000000E+00 -0.00000000000E+00 -0.62108237662E+03  0.62108237662E+03  0.00000000000E+00 0. -1.
         21    1    1    2  503  502 -0.76339659610E+02  0.13654714335E+03 -0.56349376459E+03  0.58480602658E+03  0.00000000000E+00 0. -1.
          4    1    1    2  501    0  0.76339659610E+02 -0.13654714335E+03  0.83429612805E+02  0.17729457487E+03  0.00000000000E+00 0.  1.
<mgrwt>
<rscale>  2 0.15643806E+03</rscale>
<asrwt>0</asrwt>
<pdfrwt beam="2">  1       21 0.95551135E-01 0.15643806E+03</pdfrwt>
<pdfrwt beam="1">  1        4 0.21695112E-01 0.15643806E+03</pdfrwt>
<totfact> 0.74876802E+02</totfact>
</mgrwt>
</event>
<event>
 4    1  0.5006371E+003  0.1088115E+03  0.7546771E-02  0.1262787E+00
          2   -1    0    0  503    0 -0.00000000000E+00  0.00000000000E+00  0.97872235264E+02  0.97872235264E+02  0.00000000000E+00 0. -1.
         21   -1    0    0  501  502  0.00000000000E+00 -0.00000000000E+00 -0.86531090776E+03  0.86531090776E+03  0.00000000000E+00 0. -1.
         21    1    1    2  503  502  0.10602368188E+03 -0.24472932299E+02 -0.83038000846E+03  0.83747889763E+03  0.00000000000E+00 0. -1.
          2    1    1    2  501    0 -0.10602368188E+03  0.24472932299E+02  0.62941335965E+02  0.12570424539E+03  0.00000000000E+00 0. -1.
<mgrwt>
<rscale>  2 0.10881151E+03</rscale>
<asrwt>0</asrwt>
<pdfrwt beam="2">  1       21 0.13312475E+00 0.10881151E+03</pdfrwt>
<pdfrwt beam="1">  1        2 0.15057268E-01 0.10881151E+03</pdfrwt>
<totfact> 0.20133450E+03</totfact>
</mgrwt>
</event>
<event>
 4    1  0.5006371E+003  0.1678823E+03  0.7546771E-02  0.1180074E+00
          2   -1    0    0  502    0 -0.00000000000E+00  0.00000000000E+00  0.12379164148E+04  0.12379164148E+04  0.00000000000E+00 0.  1.
         21   -1    0    0  503  502  0.00000000000E+00 -0.00000000000E+00 -0.37180166428E+02  0.37180166428E+02  0.00000000000E+00 0.  1.
         21    1    1    2  503  501 -0.78609860061E+02 -0.14834067825E+03  0.20342608707E+03  0.26375488588E+03  0.00000000000E+00 0.  1.
          2    1    1    2  501    0  0.78609860061E+02  0.14834067825E+03  0.99731016132E+03  0.10113416954E+04  0.00000000000E+00 0.  1.
<mgrwt>
<rscale>  2 0.16788230E+03</rscale>
<asrwt>0</asrwt>
<pdfrwt beam="2">  1       21 0.57200266E-02 0.16788230E+03</pdfrwt>
<pdfrwt beam="1">  1        2 0.19044865E+00 0.16788230E+03</pdfrwt>
<totfact> 0.52204878E+04</totfact>
</mgrwt>
</event>
<event>
 4    1  0.5006371E+003  0.1046437E+03  0.7546771E-02  0.1270823E+00
         -1   -1    0    0    0  501 -0.00000000000E+00  0.00000000000E+00  0.10792067354E+03  0.10792067354E+03  0.00000000000E+00 0.  1.
         21   -1    0    0  501  502  0.00000000000E+00 -0.00000000000E+00 -0.11575815977E+03  0.11575815977E+03  0.00000000000E+00 0.  1.
         21    1    1    2  503  502 -0.35504793296E+02 -0.98436392074E+02 -0.43216082758E+02  0.11321635677E+03  0.00000000000E+00 0.  1.
         -1    1    1    2    0  503  0.35504793296E+02  0.98436392074E+02  0.35378596522E+02  0.11046247654E+03  0.00000000000E+00 0.  1.
<mgrwt>
<rscale>  2 0.10464375E+03</rscale>
<asrwt>0</asrwt>
<pdfrwt beam="2">  1       21 0.17808948E-01 0.10464375E+03</pdfrwt>
<pdfrwt beam="1">  1       -1 0.16603181E-01 0.10464375E+03</pdfrwt>
<totfact> 0.68952030E+04</totfact>
</mgrwt>
</event>
<event>
 4    1  0.5006371E+003  0.1334058E+03  0.7546771E-02  0.1222488E+00
          2   -1    0    0  503    0 -0.00000000000E+00  0.00000000000E+00  0.11663253212E+04  0.11663253212E+04  0.00000000000E+00 0. -1.
         21   -1    0    0  501  502  0.00000000000E+00 -0.00000000000E+00 -0.15609315846E+02  0.15609315846E+02  0.00000000000E+00 0.  1.
         21    1    1    2  503  502 -0.10286911732E+03  0.84941406719E+02  0.48684091617E+03  0.50478824821E+03  0.00000000000E+00 0.  1.
          2    1    1    2  501    0  0.10286911732E+03 -0.84941406719E+02  0.66387508920E+03  0.67714638885E+03  0.00000000000E+00 0. -1.
<mgrwt>
<rscale>  2 0.13340576E+03</rscale>
<asrwt>0</asrwt>
<pdfrwt beam="2">  1       21 0.24014341E-02 0.13340576E+03</pdfrwt>
<pdfrwt beam="1">  1        2 0.17943460E+00 0.13340576E+03</pdfrwt>
<totfact> 0.24190263E+05</totfact>
</mgrwt>
</event>
<event>
 4    1  0.5006371E+003  0.1192678E+03  0.7546771E-02  0.1244310E+00
         21   -1    0    0  503  502  0.00000000000E+00  0.00000000000E+00  0.12116110285E+02  0.12116110285E+02  0.00000000000E+00 0.  1.
          2   -1    0    0  502    0 -0.00000000000E+00 -0.00000000000E+00 -0.16251954769E+04  0.16251954769E+04  0.00000000000E+00 0. -1.
         21    1    1    2  503  501  0.88610005249E+02 -0.79831592224E+02 -0.37520841938E+03  0.39370823477E+03  0.00000000000E+00 0.  1.
          2    1    1    2  501    0 -0.88610005249E+02  0.79831592224E+02 -0.12378709472E+04  0.12436033524E+04  0.00000000000E+00 0. -1.
<mgrwt>
<rscale>  2 0.11926783E+03</rscale>
<asrwt>0</asrwt>
<pdfrwt beam="1">  1       21 0.18640165E-02 0.11926783E+03</pdfrwt>
<pdfrwt beam="2">  1        2 0.25003014E+00 0.11926783E+03</pdfrwt>
<totfact> 0.20768740E+05</totfact>
</mgrwt>
</event>
<event>
 4    1  0.5006371E+003  0.1467678E+03  0.7546771E-02  0.1204502E+00
         21   -1    0    0  503  502  0.00000000000E+00  0.00000000000E+00  0.90638652775E+02  0.90638652775E+02  0.00000000000E+00 0.  1.
          2   -1    0    0  502    0 -0.00000000000E+00 -0.00000000000E+00 -0.10945760069E+04  0.10945760069E+04  0.00000000000E+00 0.  1.
         21    1    1    2  503  501  0.12982858466E+03  0.68449355219E+02  0.22372930499E+02  0.14846320636E+03  0.00000000000E+00 0.  1.
          2    1    1    2  501    0 -0.12982858466E+03 -0.68449355219E+02 -0.10263102847E+04  0.10367514534E+04  0.00000000000E+00 0.  1.
<mgrwt>
<rscale>  2 0.14676776E+03</rscale>
<asrwt>0</asrwt>
<pdfrwt beam="1">  1       21 0.13944407E-01 0.14676776E+03</pdfrwt>
<pdfrwt beam="2">  1        2 0.16839632E+00 0.14676776E+03</pdfrwt>
<totfact> 0.13317464E+04</totfact>
</mgrwt>
</event>
<event>
 4    1  0.5006371E+003  0.1083557E+03  0.7546771E-02  0.1263646E+00
         21   -1    0    0  501  502  0.00000000000E+00  0.00000000000E+00  0.10424269050E+02  0.10424269050E+02  0.00000000000E+00 0. -1.
          2   -1    0    0  503    0 -0.00000000000E+00 -0.00000000000E+00 -0.26154119677E+04  0.26154119677E+04  0.00000000000E+00 0.  1.
         21    1    1    2  503  502 -0.31991684932E+02 -0.10352526567E+03 -0.31182171781E+03  0.33011169661E+03  0.00000000000E+00 0. -1.
          2    1    1    2  501    0  0.31991684932E+02  0.10352526567E+03 -0.22931659808E+04  0.22957245401E+04  0.00000000000E+00 0.  1.
<mgrwt>
<rscale>  2 0.10835566E+03</rscale>
<asrwt>0</asrwt>
<pdfrwt beam="1">  1       21 0.16037326E-02 0.10835566E+03</pdfrwt>
<pdfrwt beam="2">  1        2 0.40237135E+00 0.10835566E+03</pdfrwt>
<totfact> 0.81659686E+04</totfact>
</mgrwt>
</event>
<event>
 4    1  0.5006371E+003  0.1026480E+03  0.7546771E-02  0.1274824E+00
         21   -1    0    0  503  502  0.00000000000E+00  0.00000000000E+00  0.10813964969E+03  0.10813964969E+03  0.00000000000E+00 0. -1.
          1   -1    0    0  502    0 -0.00000000000E+00 -0.00000000000E+00 -0.24155199914E+03  0.24155199914E+03  0.00000000000E+00 0. -1.
         21    1    1    2  503  501 -0.34866798108E+02 -0.96544852353E+02  0.68347790064E+02  0.12332081143E+03  0.00000000000E+00 0. -1.
          1    1    1    2  501    0  0.34866798108E+02  0.96544852353E+02 -0.20176013951E+03  0.22637083739E+03  0.00000000000E+00 0. -1.
<mgrwt>
<rscale>  2 0.10264795E+03</rscale>
<asrwt>0</asrwt>
<pdfrwt beam="1">  1       21 0.16636869E-01 0.10264795E+03</pdfrwt>
<pdfrwt beam="2">  1        1 0.37161845E-01 0.10264795E+03</pdfrwt>
<totfact> 0.40533434E+04</totfact>
</mgrwt>
</event>
<event>
 4    1  0.5006371E+003  0.1298164E+03  0.7546771E-02  0.1227728E+00
          1   -1    0    0  503    0 -0.00000000000E+00  0.00000000000E+00  0.53411232622E+03  0.53411232622E+03  0.00000000000E+00 0. -1.
         21   -1    0    0  501  502  0.00000000000E+00 -0.00000000000E+00 -0.63511688520E+02  0.63511688520E+02  0.00000000000E+00 0. -1.
         21    1    1    2  503  502 -0.28915574415E+02  0.12655509280E+03  0.23331190571E+02  0.13189634722E+03  0.00000000000E+00 0. -1.
          1    1    1    2  501    0  0.28915574415E+02 -0.12655509280E+03  0.44726944713E+03  0.46572766752E+03  0.00000000000E+00 0. -1.
<mgrwt>
<rscale>  2 0.12981642E+03</rscale>
<asrwt>0</asrwt>
<pdfrwt beam="2">  1       21 0.97710294E-02 0.12981642E+03</pdfrwt>
<pdfrwt beam="1">  1        1 0.82171124E-01 0.12981642E+03</pdfrwt>
<totfact> 0.38702455E+04</totfact>
</mgrwt>
</event>
<event>
 4    1  0.5006371E+003  0.1033313E+03  0.7546771E-02  0.1273443E+00
         21   -1    0    0  501  502  0.00000000000E+00  0.00000000000E+00  0.35945605760E+02  0.35945605760E+02  0.00000000000E+00 0. -1.
          2   -1    0    0  503    0 -0.00000000000E+00 -0.00000000000E+00 -0.66083006635E+03  0.66083006635E+03  0.00000000000E+00 0. -1.
         21    1    1    2  503  502 -0.55889743136E+02 -0.86912006557E+02 -0.53953140920E+02  0.11656887100E+03  0.00000000000E+00 0. -1.
          2    1    1    2  501    0  0.55889743136E+02  0.86912006557E+02 -0.57093131967E+03  0.58020680111E+03  0.00000000000E+00 0. -1.
<mgrwt>
<rscale>  2 0.10333131E+03</rscale>
<asrwt>0</asrwt>
<pdfrwt beam="1">  1       21 0.55300938E-02 0.10333131E+03</pdfrwt>
<pdfrwt beam="2">  1        2 0.10166615E+00 0.10333131E+03</pdfrwt>
<totfact> 0.12659100E+05</totfact>
</mgrwt>
</event>
<event>
 4    1  0.5006371E+003  0.1035986E+03  0.7546771E-02  0.1272906E+00
          2   -1    0    0  503    0 -0.00000000000E+00  0.00000000000E+00  0.30374992731E+04  0.30374992731E+04  0.00000000000E+00 0. -1.
         21   -1    0    0  501  502  0.00000000000E+00 -0.00000000000E+00 -0.25497271490E+02  0.25497271490E+02  0.00000000000E+00 0.  1.
         21    1    1    2  503  502  0.94139000088E+02  0.43249482036E+02  0.84575165866E+02  0.13373715907E+03  0.00000000000E+00 0.  1.
          2    1    1    2  501    0 -0.94139000088E+02 -0.43249482036E+02  0.29274268357E+04  0.29292593855E+04  0.00000000000E+00 0. -1.
<mgrwt>
<rscale>  2 0.10359860E+03</rscale>
<asrwt>0</asrwt>
<pdfrwt beam="2">  1       21 0.39226596E-02 0.10359860E+03</pdfrwt>
<pdfrwt beam="1">  1        2 0.46730729E+00 0.10359860E+03</pdfrwt>
<totfact> 0.11194768E+04</totfact>
</mgrwt>
</event>
<event>
 4    1  0.5006371E+003  0.1968467E+03  0.7546771E-02  0.1152427E+00
         -2   -1    0    0    0  501 -0.00000000000E+00  0.00000000000E+00  0.24208892842E+04  0.24208892842E+04  0.00000000000E+00 0.  1.
         21   -1    0    0  503  502  0.00000000000E+00 -0.00000000000E+00 -0.75349692788E+02  0.75349692788E+02  0.00000000000E+00 0. -1.
         21    1    1    2  503  501 -0.14411172132E+03 -0.13409112961E+03  0.65118885286E+02  0.20733810185E+03  0.00000000000E+00 0. -1.
         -2    1    1    2    0  502  0.14411172132E+03  0.13409112961E+03  0.22804207062E+04  0.22889008752E+04  0.00000000000E+00 0.  1.
<mgrwt>
<rscale>  2 0.19684669E+03</rscale>
<asrwt>0</asrwt>
<pdfrwt beam="2">  1       21 0.11592262E-01 0.19684669E+03</pdfrwt>
<pdfrwt beam="1">  1       -2 0.37244445E+00 0.19684669E+03</pdfrwt>
<totfact> 0.71146585E+01</totfact>
</mgrwt>
</event>
<event>
 4    1  0.5006371E+003  0.1055386E+03  0.7546771E-02  0.1269062E+00
          2   -1    0    0  502    0 -0.00000000000E+00  0.00000000000E+00  0.13588098490E+04  0.13588098490E+04  0.00000000000E+00 0. -1.
         21   -1    0    0  503  502  0.00000000000E+00 -0.00000000000E+00 -0.38275560972E+02  0.38275560972E+02  0.00000000000E+00 0.  1.
         21    1    1    2  503  501  0.14727518617E+02  0.10450600769E+03  0.41026539873E+02  0.11323242655E+03  0.00000000000E+00 0.  1.
          2    1    1    2  501    0 -0.14727518617E+02 -0.10450600769E+03  0.12795077481E+04  0.12838529834E+04  0.00000000000E+00 0. -1.
<mgrwt>
<rscale>  2 0.10553864E+03</rscale>
<asrwt>0</asrwt>
<pdfrwt beam="2">  1       21 0.58885489E-02 0.10553864E+03</pdfrwt>
<pdfrwt beam="1">  1        2 0.20904763E+00 0.10553864E+03</pdfrwt>
<totfact> 0.43108844E+04</totfact>
</mgrwt>
</event>
<event>
 4    1  0.5006371E+003  0.1429988E+03  0.7546771E-02  0.1209350E+00
         21   -1    0    0  501  502  0.00000000000E+00  0.00000000000E+00  0.12381171547E+03  0.12381171547E+03  0.00000000000E+00 0. -1.
          2   -1    0    0  503    0 -0.00000000000E+00 -0.00000000000E+00 -0.65176116469E+03  0.65176116469E+03  0.00000000000E+00 0.  1.
         21    1    1    2  503  502 -0.82641745855E+02 -0.11670048665E+03  0.71095042481E+02  0.15969710958E+03  0.00000000000E+00 0. -1.
          2    1    1    2  501    0  0.82641745855E+02  0.11670048665E+03 -0.59904449170E+03  0.61587577058E+03  0.00000000000E+00 0.  1.
<mgrwt>
<rscale>  2 0.14299882E+03</rscale>
<asrwt>0</asrwt>
<pdfrwt beam="1">  1       21 0.19047956E-01 0.14299882E+03</pdfrwt>
<pdfrwt beam="2">  1        2 0.10027095E+00 0.14299882E+03</pdfrwt>
<totfact> 0.14711428E+04</totfact>
</mgrwt>
</event>
<event>
 4    1  0.5006371E+003  0.1144931E+03  0.7546771E-02  0.1252469E+00
         21   -1    0    0  501  502  0.00000000000E+00  0.00000000000E+00  0.36584810921E+02  0.36584810921E+02  0.00000000000E+00 0.  1.
          1   -1    0    0  503    0 -0.00000000000E+00 -0.00000000000E+00 -0.45605898508E+03  0.45605898508E+03  0.00000000000E+00 0. -1.
         21    1    1    2  503  502  0.52978516953E+02  0.10149849860E+03 -0.95698776385E+02  0.14922105843E+03  0.00000000000E+00 0.  1.
          1    1    1    2  501    0 -0.52978516953E+02 -0.10149849860E+03 -0.32377539777E+03  0.34342273757E+03  0.00000000000E+00 0. -1.
<mgrwt>
<rscale>  2 0.11449309E+03</rscale>
<asrwt>0</asrwt>
<pdfrwt beam="1">  1       21 0.56284326E-02 0.11449309E+03</pdfrwt>
<pdfrwt beam="2">  1        1 0.70162919E-01 0.11449309E+03</pdfrwt>
<totfact> 0.12198623E+05</totfact>
</mgrwt>
</event>
<event>
 4    1  0.5006371E+003  0.1006594E+03  0.7546771E-02  0.1278915E+00
          1   -1    0    0  503    0 -0.00000000000E+00  0.00000000000E+00  0.16796111830E+02  0.16796111830E+02  0.00000000000E+00 0. -1.
         21   -1    0    0  501  502  0.00000000000E+00 -0.00000000000E+00 -0.93522862514E+03  0.93522862514E+03  0.00000000000E+00 0. -1.
         21    1    1    2  503  502 -0.88856042594E+02  0.47296012113E+02 -0.74282020726E+03  0.74960934451E+03  0.00000000000E+00 0. -1.
          1    1    1    2  501    0  0.88856042594E+02 -0.47296012113E+02 -0.17561230605E+03  0.20241539246E+03  0.00000000000E+00 0. -1.
<mgrwt>
<rscale>  2 0.10065937E+03</rscale>
<asrwt>0</asrwt>
<pdfrwt beam="2">  1       21 0.14388133E+00 0.10065937E+03</pdfrwt>
<pdfrwt beam="1">  1        1 0.25840171E-02 0.10065937E+03</pdfrwt>
<totfact> 0.14846675E+04</totfact>
</mgrwt>
</event>
<event>
 4    1  0.5006371E+003  0.1831759E+03  0.7546771E-02  0.1164764E+00
         21   -1    0    0  501  502  0.00000000000E+00  0.00000000000E+00  0.70899944903E+02  0.70899944903E+02  0.00000000000E+00 0. -1.
          2   -1    0    0  503    0 -0.00000000000E+00 -0.00000000000E+00 -0.21438396728E+04  0.21438396728E+04  0.00000000000E+00 0.  1.
         21    1    1    2  503  502 -0.11070215955E+03 -0.14593980061E+03 -0.58936851102E+02  0.19242387053E+03  0.00000000000E+00 0. -1.
          2    1    1    2  501    0  0.11070215955E+03  0.14593980061E+03 -0.20140028768E+04  0.20223157472E+04  0.00000000000E+00 0.  1.
<mgrwt>
<rscale>  2 0.18317585E+03</rscale>
<asrwt>0</asrwt>
<pdfrwt beam="1">  1       21 0.10907685E-01 0.18317585E+03</pdfrwt>
<pdfrwt beam="2">  1        2 0.32982145E+00 0.18317585E+03</pdfrwt>
<totfact> 0.56683870E+03</totfact>
</mgrwt>
</event>
<event>
 4    1  0.5006371E+003  0.1007807E+03  0.7546771E-02  0.1278663E+00
         -4   -1    0    0    0  501 -0.00000000000E+00  0.00000000000E+00  0.30539093061E+03  0.30539093061E+03  0.00000000000E+00 0. -1.
         21   -1    0    0  501  502  0.00000000000E+00 -0.00000000000E+00 -0.33654298156E+02  0.33654298156E+02  0.00000000000E+00 0. -1.
         21    1    1    2  503  502  0.97939861740E+02  0.23760069656E+02  0.11747753394E+03  0.15478284274E+03  0.00000000000E+00 0. -1.
         -4    1    1    2    0  503 -0.97939861740E+02 -0.23760069656E+02  0.15425909852E+03  0.18426238603E+03  0.00000000000E+00 0. -1.
<mgrwt>
<rscale>  2 0.10078074E+03</rscale>
<asrwt>0</asrwt>
<pdfrwt beam="2">  1       21 0.51775845E-02 0.10078074E+03</pdfrwt>
<pdfrwt beam="1">  1       -4 0.46983218E-01 0.10078074E+03</pdfrwt>
<totfact> 0.43389469E+04</totfact>
</mgrwt>
</event>
<event>
 4    1  0.5006371E+003  0.1844775E+03  0.7546771E-02  0.1163539E+00
         21   -1    0    0  501  502  0.00000000000E+00  0.00000000000E+00  0.22952854450E+02  0.22952854450E+02  0.00000000000E+00 0.  1.
          2   -1    0    0  503    0 -0.00000000000E+00 -0.00000000000E+00 -0.20055280138E+04  0.20055280138E+04  0.00000000000E+00 0.  1.
         21    1    1    2  503  502 -0.10457002780E+03 -0.15197716281E+03 -0.47342983401E+03  0.50810211223E+03  0.00000000000E+00 0.  1.
          2    1    1    2  501    0  0.10457002780E+03  0.15197716281E+03 -0.15091453253E+04  0.15203787560E+04  0.00000000000E+00 0.  1.
<mgrwt>
<rscale>  2 0.18447750E+03</rscale>
<asrwt>0</asrwt>
<pdfrwt beam="1">  1       21 0.35312072E-02 0.18447750E+03</pdfrwt>
<pdfrwt beam="2">  1        2 0.30854288E+00 0.18447750E+03</pdfrwt>
<totfact> 0.46291346E+04</totfact>
</mgrwt>
</event>
<event>
 4    1  0.5006371E+003  0.1054808E+03  0.7546771E-02  0.1269175E+00
          1   -1    0    0  502    0 -0.00000000000E+00  0.00000000000E+00  0.43013153445E+03  0.43013153445E+03  0.00000000000E+00 0.  1.
         21   -1    0    0  503  502  0.00000000000E+00 -0.00000000000E+00 -0.39643171106E+02  0.39643171106E+02  0.00000000000E+00 0.  1.
         21    1    1    2  503  501  0.99667318612E+02 -0.34534465835E+02  0.56779177919E+02  0.11979181431E+03  0.00000000000E+00 0.  1.
          1    1    1    2  501    0 -0.99667318612E+02  0.34534465835E+02  0.33370918542E+03  0.34998289125E+03  0.00000000000E+00 0.  1.
<mgrwt>
<rscale>  2 0.10548082E+03</rscale>
<asrwt>0</asrwt>
<pdfrwt beam="2">  1       21 0.60989497E-02 0.10548082E+03</pdfrwt>
<pdfrwt beam="1">  1        1 0.66174079E-01 0.10548082E+03</pdfrwt>
<totfact> 0.11438906E+05</totfact>
</mgrwt>
</event>
<event>
 4    1  0.5006371E+003  0.1148362E+03  0.7546771E-02  0.1251867E+00
         21   -1    0    0  503  502  0.00000000000E+00  0.00000000000E+00  0.54744985214E+03  0.54744985214E+03  0.00000000000E+00 0. -1.
         -1   -1    0    0    0  501 -0.00000000000E+00 -0.00000000000E+00 -0.36876487904E+02  0.36876487904E+02  0.00000000000E+00 0.  1.
         21    1    1    2  503  501  0.99995059593E+02  0.56465456239E+02  0.42733414255E+03  0.44249500459E+03  0.00000000000E+00 0. -1.
         -1    1    1    2    0  502 -0.99995059593E+02 -0.56465456239E+02  0.83239221679E+02  0.14183133546E+03  0.00000000000E+00 0.  1.
<mgrwt>
<rscale>  2 0.11483623E+03</rscale>
<asrwt>0</asrwt>
<pdfrwt beam="1">  1       21 0.84223048E-01 0.11483623E+03</pdfrwt>
<pdfrwt beam="2">  1       -1 0.56733062E-02 0.11483623E+03</pdfrwt>
<totfact> 0.15809834E+04</totfact>
</mgrwt>
</event>
<event>
 4    1  0.5006371E+003  0.1161717E+03  0.7546771E-02  0.1249550E+00
         21   -1    0    0  503  502  0.00000000000E+00  0.00000000000E+00  0.13872901230E+02  0.13872901230E+02  0.00000000000E+00 0. -1.
          2   -1    0    0  502    0 -0.00000000000E+00 -0.00000000000E+00 -0.31806792689E+04  0.31806792689E+04  0.00000000000E+00 0.  1.
         21    1    1    2  503  501 -0.10637136360E+03 -0.46701151062E+02 -0.25262540550E+03  0.27805657700E+03  0.00000000000E+00 0. -1.
          2    1    1    2  501    0  0.10637136360E+03  0.46701151062E+02 -0.29141809621E+04  0.29164955931E+04  0.00000000000E+00 0.  1.
<mgrwt>
<rscale>  2 0.11617170E+03</rscale>
<asrwt>0</asrwt>
<pdfrwt beam="1">  1       21 0.21342876E-02 0.11617170E+03</pdfrwt>
<pdfrwt beam="2">  1        2 0.48933638E+00 0.11617170E+03</pdfrwt>
<totfact> 0.24676482E+04</totfact>
</mgrwt>
</event>
<event>
 4    1  0.5006371E+003  0.1124853E+03  0.7546771E-02  0.1256035E+00
         21   -1    0    0  501  502  0.00000000000E+00  0.00000000000E+00  0.39769876422E+02  0.39769876422E+02  0.00000000000E+00 0.  1.
          2   -1    0    0  503    0 -0.00000000000E+00 -0.00000000000E+00 -0.10528615524E+04  0.10528615524E+04  0.00000000000E+00 0.  1.
         21    1    1    2  503  502  0.19414763018E+02  0.11079718761E+03 -0.50177739984E+02  0.12316962043E+03  0.00000000000E+00 0.  1.
          2    1    1    2  501    0 -0.19414763018E+02 -0.11079718761E+03 -0.96291393602E+03  0.96946180843E+03  0.00000000000E+00 0.  1.
<mgrwt>
<rscale>  2 0.11248533E+03</rscale>
<asrwt>0</asrwt>
<pdfrwt beam="1">  1       21 0.61184435E-02 0.11248533E+03</pdfrwt>
<pdfrwt beam="2">  1        2 0.16197868E+00 0.11248533E+03</pdfrwt>
<totfact> 0.59444525E+04</totfact>
</mgrwt>
</event>
<event>
 4    1  0.5006371E+003  0.1147490E+03  0.7546771E-02  0.1252020E+00
         21   -1    0    0  501  502  0.00000000000E+00  0.00000000000E+00  0.67707778551E+02  0.67707778551E+02  0.00000000000E+00 0. -1.
          2   -1    0    0  503    0 -0.00000000000E+00 -0.00000000000E+00 -0.68660488179E+03  0.68660488179E+03  0.00000000000E+00 0.  1.
         21    1    1    2  503  502  0.39463770257E+02  0.10774943751E+03  0.98586669424E+01  0.11517171424E+03  0.00000000000E+00 0. -1.
          2    1    1    2  501    0 -0.39463770257E+02 -0.10774943751E+03 -0.62875577019E+03  0.63914094611E+03  0.00000000000E+00 0.  1.
<mgrwt>
<rscale>  2 0.11474899E+03</rscale>
<asrwt>0</asrwt>
<pdfrwt beam="1">  1       21 0.10416581E-01 0.11474899E+03</pdfrwt>
<pdfrwt beam="2">  1        2 0.10563152E+00 0.11474899E+03</pdfrwt>
<totfact> 0.41020549E+04</totfact>
</mgrwt>
</event>
<event>
 4    1  0.5006371E+003  0.1665413E+03  0.7546771E-02  0.1181503E+00
         -1   -1    0    0    0  501 -0.00000000000E+00  0.00000000000E+00  0.11950990188E+04  0.11950990188E+04  0.00000000000E+00 0.  1.
         21   -1    0    0  503  502  0.00000000000E+00 -0.00000000000E+00 -0.75917788594E+03  0.75917788594E+03  0.00000000000E+00 0. -1.
         21    1    1    2  503  501  0.15088094718E+03 -0.70504902780E+02 -0.74412636684E+03  0.76253527877E+03  0.00000000000E+00 0. -1.
         -1    1    1    2    0  502 -0.15088094718E+03  0.70504902780E+02  0.11800474997E+04  0.11917416260E+04  0.00000000000E+00 0.  1.
<mgrwt>
<rscale>  2 0.16654129E+03</rscale>
<asrwt>0</asrwt>
<pdfrwt beam="2">  1       21 0.11679660E+00 0.16654129E+03</pdfrwt>
<pdfrwt beam="1">  1       -1 0.18386139E+00 0.16654129E+03</pdfrwt>
<totfact> 0.11867694E+01</totfact>
</mgrwt>
</event>
<event>
 4    1  0.5006371E+003  0.1203026E+03  0.7546771E-02  0.1242599E+00
         21   -1    0    0  501  502  0.00000000000E+00  0.00000000000E+00  0.22953412085E+02  0.22953412085E+02  0.00000000000E+00 0. -1.
          2   -1    0    0  503    0 -0.00000000000E+00 -0.00000000000E+00 -0.13444812500E+04  0.13444812500E+04  0.00000000000E+00 0. -1.
         21    1    1    2  503  502 -0.98656806534E+02 -0.68844438255E+02 -0.16252835743E+03  0.20220828154E+03  0.00000000000E+00 0. -1.
          2    1    1    2  501    0  0.98656806534E+02  0.68844438255E+02 -0.11589994805E+04  0.11652263806E+04  0.00000000000E+00 0. -1.
<mgrwt>
<rscale>  2 0.12030263E+03</rscale>
<asrwt>0</asrwt>
<pdfrwt beam="1">  1       21 0.35312937E-02 0.12030263E+03</pdfrwt>
<pdfrwt beam="2">  1        2 0.20684330E+00 0.12030263E+03</pdfrwt>
<totfact> 0.10277056E+05</totfact>
</mgrwt>
</event>
<event>
 4    1  0.5006371E+003  0.1029208E+03  0.7546771E-02  0.1274271E+00
          2   -1    0    0  502    0 -0.00000000000E+00  0.00000000000E+00  0.41960349346E+03  0.41960349346E+03  0.00000000000E+00 0. -1.
         21   -1    0    0  503  502  0.00000000000E+00 -0.00000000000E+00 -0.81715493270E+02  0.81715493270E+02  0.00000000000E+00 0. -1.
         21    1    1    2  503  501  0.93384568374E+02 -0.43266788837E+02 -0.39430492543E+02  0.11021549968E+03  0.00000000000E+00 0. -1.
          2    1    1    2  501    0 -0.93384568374E+02  0.43266788837E+02  0.37731849273E+03  0.39110348705E+03  0.00000000000E+00 0. -1.
<mgrwt>
<rscale>  2 0.10292081E+03</rscale>
<asrwt>0</asrwt>
<pdfrwt beam="2">  1       21 0.12571615E-01 0.10292081E+03</pdfrwt>
<pdfrwt beam="1">  1        2 0.64554382E-01 0.10292081E+03</pdfrwt>
<totfact> 0.50789938E+04</totfact>
</mgrwt>
</event>
<event>
 4    1  0.5006371E+003  0.1052662E+03  0.7546771E-02  0.1269596E+00
         21   -1    0    0  503  502  0.00000000000E+00  0.00000000000E+00  0.12511373622E+02  0.12511373622E+02  0.00000000000E+00 0. -1.
          1   -1    0    0  502    0 -0.00000000000E+00 -0.00000000000E+00 -0.11901369408E+04  0.11901369408E+04  0.00000000000E+00 0. -1.
         21    1    1    2  503  501 -0.10100440702E+03 -0.29649488643E+02 -0.28466944478E+03  0.30350893761E+03  0.00000000000E+00 0. -1.
          1    1    1    2  501    0  0.10100440702E+03  0.29649488643E+02 -0.89295612238E+03  0.89913937680E+03  0.00000000000E+00 0. -1.
<mgrwt>
<rscale>  2 0.10526625E+03</rscale>
<asrwt>0</asrwt>
<pdfrwt beam="1">  1       21 0.19248269E-02 0.10526625E+03</pdfrwt>
<pdfrwt beam="2">  1        1 0.18309797E+00 0.10526625E+03</pdfrwt>
<totfact> 0.17035791E+05</totfact>
</mgrwt>
</event>
<event>
 4    1  0.5006371E+003  0.1097593E+03  0.7546771E-02  0.1261016E+00
          1   -1    0    0  502    0 -0.00000000000E+00  0.00000000000E+00  0.20667510676E+03  0.20667510676E+03  0.00000000000E+00 0.  1.
         21   -1    0    0  503  502  0.00000000000E+00 -0.00000000000E+00 -0.10369350580E+03  0.10369350580E+03  0.00000000000E+00 0.  1.
         21    1    1    2  503  501 -0.11180557532E+02 -0.10918836955E+03 -0.51196423816E+02  0.12111225670E+03  0.00000000000E+00 0.  1.
          1    1    1    2  501    0  0.11180557532E+02  0.10918836955E+03  0.15417802478E+03  0.18925635587E+03  0.00000000000E+00 0.  1.
<mgrwt>
<rscale>  2 0.10975930E+03</rscale>
<asrwt>0</asrwt>
<pdfrwt beam="2">  1       21 0.15952847E-01 0.10975930E+03</pdfrwt>
<pdfrwt beam="1">  1        1 0.31796170E-01 0.10975930E+03</pdfrwt>
<totfact> 0.53042525E+04</totfact>
</mgrwt>
</event>
<event>
 4    1  0.5006371E+003  0.1630368E+03  0.7546771E-02  0.1185310E+00
          1   -1    0    0  502    0 -0.00000000000E+00  0.00000000000E+00  0.51221207182E+03  0.51221207182E+03  0.00000000000E+00 0.  1.
         21   -1    0    0  503  502  0.00000000000E+00 -0.00000000000E+00 -0.34079691143E+03  0.34079691143E+03  0.00000000000E+00 0.  1.
         21    1    1    2  503  501  0.82003293732E+02  0.14091297168E+03 -0.30698377748E+03  0.34759177983E+03  0.00000000000E+00 0.  1.
          1    1    1    2  501    0 -0.82003293732E+02 -0.14091297168E+03  0.47839893787E+03  0.50541720343E+03  0.00000000000E+00 0.  1.
<mgrwt>
<rscale>  2 0.16303682E+03</rscale>
<asrwt>0</asrwt>
<pdfrwt beam="2">  1       21 0.52430294E-01 0.16303682E+03</pdfrwt>
<pdfrwt beam="1">  1        1 0.78801857E-01 0.16303682E+03</pdfrwt>
<totfact> 0.16920153E+03</totfact>
</mgrwt>
</event>
<event>
 4    1  0.5006371E+003  0.1055565E+03  0.7546771E-02  0.1269027E+00
         -3   -1    0    0    0  501 -0.00000000000E+00  0.00000000000E+00  0.25560892345E+02  0.25560892345E+02  0.00000000000E+00 0.  1.
         21   -1    0    0  501  502  0.00000000000E+00 -0.00000000000E+00 -0.65132101117E+03  0.65132101117E+03  0.00000000000E+00 0. -1.
         21    1    1    2  503  502 -0.10422611991E+03  0.16706156303E+02 -0.50751554752E+03  0.51837651442E+03  0.00000000000E+00 0. -1.
         -3    1    1    2    0  503  0.10422611991E+03 -0.16706156303E+02 -0.11824457131E+03  0.15850538910E+03  0.00000000000E+00 0.  1.
<mgrwt>
<rscale>  2 0.10555652E+03</rscale>
<asrwt>0</asrwt>
<pdfrwt beam="2">  1       21 0.10020324E+00 0.10555652E+03</pdfrwt>
<pdfrwt beam="1">  1       -3 0.39324448E-02 0.10555652E+03</pdfrwt>
<totfact> 0.13090264E+04</totfact>
</mgrwt>
</event>
<event>
 4    1  0.5006371E+003  0.1128359E+03  0.7546771E-02  0.1255406E+00
          1   -1    0    0  503    0 -0.00000000000E+00  0.00000000000E+00  0.34121655081E+03  0.34121655081E+03  0.00000000000E+00 0. -1.
         21   -1    0    0  501  502  0.00000000000E+00 -0.00000000000E+00 -0.80734510438E+02  0.80734510438E+02  0.00000000000E+00 0. -1.
         21    1    1    2  503  502  0.78449440700E+02  0.81102622587E+02 -0.24481287927E+02  0.11546117787E+03  0.00000000000E+00 0. -1.
          1    1    1    2  501    0 -0.78449440700E+02 -0.81102622587E+02  0.28496332830E+03  0.30648988337E+03  0.00000000000E+00 0. -1.
<mgrwt>
<rscale>  2 0.11283594E+03</rscale>
<asrwt>0</asrwt>
<pdfrwt beam="2">  1       21 0.12420694E-01 0.11283594E+03</pdfrwt>
<pdfrwt beam="1">  1        1 0.52494853E-01 0.11283594E+03</pdfrwt>
<totfact> 0.44785825E+04</totfact>
</mgrwt>
</event>
<event>
 4    1  0.5006371E+003  0.1238404E+03  0.7546771E-02  0.1236893E+00
         -3   -1    0    0    0  501 -0.00000000000E+00  0.00000000000E+00  0.86606436068E+02  0.86606436068E+02  0.00000000000E+00 0. -1.
         21   -1    0    0  503  502  0.00000000000E+00 -0.00000000000E+00 -0.19437304405E+03  0.19437304405E+03  0.00000000000E+00 0. -1.
         21    1    1    2  503  501 -0.11789442724E+03 -0.37912431347E+02 -0.95785434944E+02  0.15656084432E+03  0.00000000000E+00 0. -1.
         -3    1    1    2    0  502  0.11789442724E+03  0.37912431347E+02 -0.11981173034E+02  0.12441863580E+03  0.00000000000E+00 0. -1.
<mgrwt>
<rscale>  2 0.12384042E+03</rscale>
<asrwt>0</asrwt>
<pdfrwt beam="2">  1       21 0.29903545E-01 0.12384042E+03</pdfrwt>
<pdfrwt beam="1">  1       -3 0.13324067E-01 0.12384042E+03</pdfrwt>
<totfact> 0.23348641E+04</totfact>
</mgrwt>
</event>
<event>
 4    1  0.5006371E+003  0.1015020E+03  0.7546771E-02  0.1277169E+00
          2   -1    0    0  503    0 -0.00000000000E+00  0.00000000000E+00  0.21848212570E+04  0.21848212570E+04  0.00000000000E+00 0.  1.
         21   -1    0    0  501  502  0.00000000000E+00 -0.00000000000E+00 -0.14014861798E+02  0.14014861798E+02  0.00000000000E+00 0. -1.
         21    1    1    2  503  502 -0.10122187841E+03 -0.75359318970E+01  0.18984545344E+03  0.21527646209E+03  0.00000000000E+00 0. -1.
          2    1    1    2  501    0  0.10122187841E+03  0.75359318970E+01  0.19809609417E+04  0.19835596567E+04  0.00000000000E+00 0.  1.
<mgrwt>
<rscale>  2 0.10150201E+03</rscale>
<asrwt>0</asrwt>
<pdfrwt beam="2">  1       21 0.21561343E-02 0.10150201E+03</pdfrwt>
<pdfrwt beam="1">  1        2 0.33612608E+00 0.10150201E+03</pdfrwt>
<totfact> 0.85489081E+04</totfact>
</mgrwt>
</event>
<event>
 4    1  0.5006371E+003  0.1501414E+03  0.7546771E-02  0.1200299E+00
          4   -1    0    0  502    0 -0.00000000000E+00  0.00000000000E+00  0.73004809833E+03  0.73004809833E+03  0.00000000000E+00 0. -1.
         21   -1    0    0  503  502  0.00000000000E+00 -0.00000000000E+00 -0.60234149426E+02  0.60234149426E+02  0.00000000000E+00 0.  1.
         21    1    1    2  503  501 -0.12400086287E+03  0.84653494301E+02  0.59052295249E+02  0.16133691972E+03  0.00000000000E+00 0.  1.
          4    1    1    2  501    0  0.12400086287E+03 -0.84653494301E+02  0.61076165366E+03  0.62894532805E+03  0.00000000000E+00 0. -1.
<mgrwt>
<rscale>  2 0.15014136E+03</rscale>
<asrwt>0</asrwt>
<pdfrwt beam="2">  1       21 0.92667927E-02 0.15014136E+03</pdfrwt>
<pdfrwt beam="1">  1        4 0.11231509E+00 0.15014136E+03</pdfrwt>
<totfact> 0.25089884E+03</totfact>
</mgrwt>
</event>
<event>
 4    1  0.5006371E+003  0.1148307E+03  0.7546771E-02  0.1251877E+00
         21   -1    0    0  501  502  0.00000000000E+00  0.00000000000E+00  0.26239634006E+02  0.26239634006E+02  0.00000000000E+00 0.  1.
          2   -1    0    0  503    0 -0.00000000000E+00 -0.00000000000E+00 -0.56089161005E+03  0.56089161005E+03  0.00000000000E+00 0.  1.
         21    1    1    2  503  502  0.83505013287E+02  0.78822671937E+02 -0.17262731810E+03  0.20733135752E+03  0.00000000000E+00 0.  1.
          2    1    1    2  501    0 -0.83505013287E+02 -0.78822671937E+02 -0.36202465794E+03  0.37979988653E+03  0.00000000000E+00 0.  1.
<mgrwt>
<rscale>  2 0.11483075E+03</rscale>
<asrwt>0</asrwt>
<pdfrwt beam="1">  1       21 0.40368669E-02 0.11483075E+03</pdfrwt>
<pdfrwt beam="2">  1        2 0.86291015E-01 0.11483075E+03</pdfrwt>
<totfact> 0.25877303E+05</totfact>
</mgrwt>
</event>
<event>
 4    1  0.5006371E+003  0.1043216E+03  0.7546771E-02  0.1271462E+00
          2   -1    0    0  503    0 -0.00000000000E+00  0.00000000000E+00  0.46246113590E+03  0.46246113590E+03  0.00000000000E+00 0.  1.
         21   -1    0    0  501  502  0.00000000000E+00 -0.00000000000E+00 -0.24205956928E+02  0.24205956928E+02  0.00000000000E+00 0.  1.
         21    1    1    2  503  502 -0.74365990528E+02  0.73162119767E+02  0.17854821327E+03  0.20679086242E+03  0.00000000000E+00 0.  1.
          2    1    1    2  501    0  0.74365990528E+02 -0.73162119767E+02  0.25970696570E+03  0.27987623041E+03  0.00000000000E+00 0.  1.
<mgrwt>
<rscale>  2 0.10432160E+03</rscale>
<asrwt>0</asrwt>
<pdfrwt beam="2">  1       21 0.37239937E-02 0.10432160E+03</pdfrwt>
<pdfrwt beam="1">  1        2 0.71147860E-01 0.10432160E+03</pdfrwt>
<totfact> 0.36303506E+05</totfact>
</mgrwt>
</event>
<event>
 4    1  0.5006371E+003  0.1342634E+03  0.7546771E-02  0.1221263E+00
         21   -1    0    0  503  502  0.00000000000E+00  0.00000000000E+00  0.48164983149E+03  0.48164983149E+03  0.00000000000E+00 0.  1.
         -2   -1    0    0    0  501 -0.00000000000E+00 -0.00000000000E+00 -0.20280961755E+03  0.20280961755E+03  0.00000000000E+00 0.  1.
         21    1    1    2  503  501  0.11835143130E+03  0.63400206032E+02  0.44846285088E+03  0.46812987090E+03  0.00000000000E+00 0.  1.
         -2    1    1    2    0  502 -0.11835143130E+03 -0.63400206032E+02 -0.16962263694E+03  0.21632957814E+03  0.00000000000E+00 0.  1.
<mgrwt>
<rscale>  2 0.13426335E+03</rscale>
<asrwt>0</asrwt>
<pdfrwt beam="1">  1       21 0.74099974E-01 0.13426335E+03</pdfrwt>
<pdfrwt beam="2">  1       -2 0.31201480E-01 0.13426335E+03</pdfrwt>
<totfact> 0.12769714E+03</totfact>
</mgrwt>
</event>
<event>
 4    1  0.5006371E+003  0.1019703E+03  0.7546771E-02  0.1276206E+00
          1   -1    0    0  503    0 -0.00000000000E+00  0.00000000000E+00  0.18491545263E+04  0.18491545263E+04  0.00000000000E+00 0.  1.
         21   -1    0    0  501  502  0.00000000000E+00 -0.00000000000E+00 -0.19618080360E+02  0.19618080360E+02  0.00000000000E+00 0. -1.
         21    1    1    2  503  502  0.46202044749E+02 -0.90902769191E+02  0.12557258116E+03  0.16176036450E+03  0.00000000000E+00 0. -1.
          1    1    1    2  501    0 -0.46202044749E+02  0.90902769191E+02  0.17039638648E+04  0.17070122422E+04  0.00000000000E+00 0.  1.
<mgrwt>
<rscale>  2 0.10197030E+03</rscale>
<asrwt>0</asrwt>
<pdfrwt beam="2">  1       21 0.30181677E-02 0.10197030E+03</pdfrwt>
<pdfrwt beam="1">  1        1 0.28448517E+00 0.10197030E+03</pdfrwt>
<totfact> 0.30950532E+04</totfact>
</mgrwt>
</event>
<event>
 4    1  0.5006371E+003  0.1020921E+03  0.7546771E-02  0.1275957E+00
         -2   -1    0    0    0  501 -0.00000000000E+00  0.00000000000E+00  0.72118737256E+02  0.72118737256E+02  0.00000000000E+00 0.  1.
         21   -1    0    0  503  502  0.00000000000E+00 -0.00000000000E+00 -0.17103300120E+04  0.17103300120E+04  0.00000000000E+00 0. -1.
         21    1    1    2  503  501 -0.10040470633E+03  0.18484987855E+02 -0.16718448730E+04  0.16749591276E+04  0.00000000000E+00 0. -1.
         -2    1    1    2    0  502  0.10040470633E+03 -0.18484987855E+02  0.33633598247E+02  0.10748962164E+03  0.00000000000E+00 0.  1.
<mgrwt>
<rscale>  2 0.10209211E+03</rscale>
<asrwt>0</asrwt>
<pdfrwt beam="2">  1       21 0.26312768E+00 0.10209211E+03</pdfrwt>
<pdfrwt beam="1">  1       -2 0.11095191E-01 0.10209211E+03</pdfrwt>
<totfact> 0.27355124E+02</totfact>
</mgrwt>
</event>
<event>
 4    1  0.5006371E+003  0.1063249E+03  0.7546771E-02  0.1267531E+00
          2   -1    0    0  503    0 -0.00000000000E+00  0.00000000000E+00  0.13592464256E+04  0.13592464256E+04  0.00000000000E+00 0.  1.
         21   -1    0    0  501  502  0.00000000000E+00 -0.00000000000E+00 -0.83693289024E+01  0.83693289024E+01  0.00000000000E+00 0.  1.
         21    1    1    2  503  502  0.99091559901E+02 -0.38546764762E+02  0.62142054737E+03  0.63045101872E+03  0.00000000000E+00 0.  1.
          2    1    1    2  501    0 -0.99091559901E+02  0.38546764762E+02  0.72945654932E+03  0.73716473577E+03  0.00000000000E+00 0.  1.
<mgrwt>
<rscale>  2 0.10632493E+03</rscale>
<asrwt>0</asrwt>
<pdfrwt beam="2">  1       21 0.12875901E-02 0.10632493E+03</pdfrwt>
<pdfrwt beam="1">  1        2 0.20911466E+00 0.10632493E+03</pdfrwt>
<totfact> 0.51250078E+05</totfact>
</mgrwt>
</event>
<event>
 4    1  0.5006371E+003  0.2085104E+03  0.7546771E-02  0.1142751E+00
         21   -1    0    0  503  502  0.00000000000E+00  0.00000000000E+00  0.14716512803E+03  0.14716512803E+03  0.00000000000E+00 0. -1.
         -1   -1    0    0    0  501 -0.00000000000E+00 -0.00000000000E+00 -0.41461371674E+03  0.41461371674E+03  0.00000000000E+00 0.  1.
         21    1    1    2  503  501 -0.17912846332E+03  0.10672188900E+03  0.16876508166E+02  0.20919221900E+03  0.00000000000E+00 0. -1.
         -1    1    1    2    0  502  0.17912846332E+03 -0.10672188900E+03 -0.28432509688E+03  0.35258662578E+03  0.00000000000E+00 0.  1.
<mgrwt>
<rscale>  2 0.20851035E+03</rscale>
<asrwt>0</asrwt>
<pdfrwt beam="1">  1       21 0.22640789E-01 0.20851035E+03</pdfrwt>
<pdfrwt beam="2">  1       -1 0.63786725E-01 0.20851035E+03</pdfrwt>
<totfact> 0.43683330E+03</totfact>
</mgrwt>
</event>
<event>
 4    1  0.5006371E+003  0.1428729E+03  0.7546771E-02  0.1209515E+00
         21   -1    0    0  501  502  0.00000000000E+00  0.00000000000E+00  0.30795305335E+02  0.30795305335E+02  0.00000000000E+00 0.  1.
          1   -1    0    0  503    0 -0.00000000000E+00 -0.00000000000E+00 -0.12187033279E+04  0.12187033279E+04  0.00000000000E+00 0.  1.
         21    1    1    2  503  502 -0.28433621543E+01  0.14284463594E+03 -0.17202750185E+03  0.22362051811E+03  0.00000000000E+00 0.  1.
          1    1    1    2  501    0  0.28433621543E+01 -0.14284463594E+03 -0.10158805207E+04  0.10258781151E+04  0.00000000000E+00 0.  1.
<mgrwt>
<rscale>  2 0.14287293E+03</rscale>
<asrwt>0</asrwt>
<pdfrwt beam="1">  1       21 0.47377397E-02 0.14287293E+03</pdfrwt>
<pdfrwt beam="2">  1        1 0.18749280E+00 0.14287293E+03</pdfrwt>
<totfact> 0.37253050E+04</totfact>
</mgrwt>
</event>
<event>
 4    1  0.5006371E+003  0.1894098E+03  0.7546771E-02  0.1158995E+00
         -1   -1    0    0    0  501 -0.00000000000E+00  0.00000000000E+00  0.22280106532E+04  0.22280106532E+04  0.00000000000E+00 0.  1.
         21   -1    0    0  503  502  0.00000000000E+00 -0.00000000000E+00 -0.50085768639E+02  0.50085768639E+02  0.00000000000E+00 0. -1.
         21    1    1    2  503  501  0.59359030401E+02  0.17986824980E+03  0.15071189237E+03  0.24205403586E+03  0.00000000000E+00 0. -1.
         -1    1    1    2    0  502 -0.59359030401E+02 -0.17986824980E+03  0.20272129922E+04  0.20360423860E+04  0.00000000000E+00 0.  1.
<mgrwt>
<rscale>  2 0.18940982E+03</rscale>
<asrwt>0</asrwt>
<pdfrwt beam="2">  1       21 0.77055046E-02 0.18940982E+03</pdfrwt>
<pdfrwt beam="1">  1       -1 0.34277079E+00 0.18940982E+03</pdfrwt>
<totfact> 0.25817499E+02</totfact>
</mgrwt>
</event>
<event>
 4    1  0.5006371E+003  0.1447569E+03  0.7546771E-02  0.1207068E+00
         21   -1    0    0  503  502  0.00000000000E+00  0.00000000000E+00  0.38423789088E+03  0.38423789088E+03  0.00000000000E+00 0. -1.
          3   -1    0    0  502    0 -0.00000000000E+00 -0.00000000000E+00 -0.35575770657E+03  0.35575770657E+03  0.00000000000E+00 0.  1.
         21    1    1    2  503  501  0.13510727627E+03 -0.51967134243E+02  0.35469967421E+03  0.38310105459E+03  0.00000000000E+00 0. -1.
          3    1    1    2  501    0 -0.13510727627E+03  0.51967134243E+02 -0.32621948989E+03  0.35689454287E+03  0.00000000000E+00 0.  1.
<mgrwt>
<rscale>  2 0.14475690E+03</rscale>
<asrwt>0</asrwt>
<pdfrwt beam="1">  1       21 0.59113522E-01 0.14475690E+03</pdfrwt>
<pdfrwt beam="2">  1        3 0.54731955E-01 0.14475690E+03</pdfrwt>
<totfact> 0.44347288E+02</totfact>
</mgrwt>
</event>
<event>
 4    1  0.5006371E+003  0.1524468E+03  0.7546771E-02  0.1197498E+00
         21   -1    0    0  503  502  0.00000000000E+00  0.00000000000E+00  0.46390145937E+03  0.46390145937E+03  0.00000000000E+00 0. -1.
         -2   -1    0    0    0  501 -0.00000000000E+00 -0.00000000000E+00 -0.61477515335E+02  0.61477515335E+02  0.00000000000E+00 0. -1.
         21    1    1    2  503  501 -0.76059454965E+02 -0.13211737009E+03  0.31423496110E+03  0.34926157954E+03  0.00000000000E+00 0. -1.
         -2    1    1    2    0  502  0.76059454965E+02  0.13211737009E+03  0.88188982940E+02  0.17611739517E+03  0.00000000000E+00 0. -1.
<mgrwt>
<rscale>  2 0.15244684E+03</rscale>
<asrwt>0</asrwt>
<pdfrwt beam="1">  1       21 0.71369453E-01 0.15244684E+03</pdfrwt>
<pdfrwt beam="2">  1       -2 0.94580796E-02 0.15244684E+03</pdfrwt>
<totfact> 0.10143961E+04</totfact>
</mgrwt>
</event>
<event>
 4    1  0.5006371E+003  0.1336785E+03  0.7546771E-02  0.1222097E+00
         21   -1    0    0  501  502  0.00000000000E+00  0.00000000000E+00  0.55857886392E+02  0.55857886392E+02  0.00000000000E+00 0.  1.
          2   -1    0    0  503    0 -0.00000000000E+00 -0.00000000000E+00 -0.81618326946E+03  0.81618326946E+03  0.00000000000E+00 0. -1.
         21    1    1    2  503  502 -0.43603961718E+02  0.12636706597E+03 -0.40169591986E+02  0.13958344085E+03  0.00000000000E+00 0.  1.
          2    1    1    2  501    0  0.43603961718E+02 -0.12636706597E+03 -0.72015579109E+03  0.73245771501E+03  0.00000000000E+00 0. -1.
<mgrwt>
<rscale>  2 0.13367850E+03</rscale>
<asrwt>0</asrwt>
<pdfrwt beam="1">  1       21 0.85935210E-02 0.13367850E+03</pdfrwt>
<pdfrwt beam="2">  1        2 0.12556666E+00 0.13367850E+03</pdfrwt>
<totfact> 0.46507380E+04</totfact>
</mgrwt>
</event>
<event>
 4    1  0.5006371E+003  0.1098588E+03  0.7546771E-02  0.1260832E+00
          2   -1    0    0  503    0 -0.00000000000E+00  0.00000000000E+00  0.16790902373E+02  0.16790902373E+02  0.00000000000E+00 0.  1.
         21   -1    0    0  501  502  0.00000000000E+00 -0.00000000000E+00 -0.17452016090E+04  0.17452016090E+04  0.00000000000E+00 0.  1.
         21    1    1    2  503  502 -0.10799681725E+03  0.20140752521E+02 -0.15398435331E+04  0.15437574515E+04  0.00000000000E+00 0.  1.
          2    1    1    2  501    0  0.10799681725E+03 -0.20140752521E+02 -0.18856717348E+03  0.21823505988E+03  0.00000000000E+00 0.  1.
<mgrwt>
<rscale>  2 0.10985883E+03</rscale>
<asrwt>0</asrwt>
<pdfrwt beam="2">  1       21 0.26849254E+00 0.10985883E+03</pdfrwt>
<pdfrwt beam="1">  1        2 0.25832159E-02 0.10985883E+03</pdfrwt>
<totfact> 0.25401432E+03</totfact>
</mgrwt>
</event>
<event>
 4    1  0.5006371E+003  0.1131288E+03  0.7546771E-02  0.1254883E+00
         21   -1    0    0  503  502  0.00000000000E+00  0.00000000000E+00  0.25689452259E+02  0.25689452259E+02  0.00000000000E+00 0. -1.
          2   -1    0    0  502    0 -0.00000000000E+00 -0.00000000000E+00 -0.60768694743E+03  0.60768694743E+03  0.00000000000E+00 0. -1.
         21    1    1    2  503  501  0.12060172683E+02 -0.11248407625E+03 -0.15656705711E+03  0.19316148308E+03  0.00000000000E+00 0. -1.
          2    1    1    2  501    0 -0.12060172683E+02  0.11248407625E+03 -0.42543043806E+03  0.44021491661E+03  0.00000000000E+00 0. -1.
<mgrwt>
<rscale>  2 0.11312875E+03</rscale>
<asrwt>0</asrwt>
<pdfrwt beam="1">  1       21 0.39522233E-02 0.11312875E+03</pdfrwt>
<pdfrwt beam="2">  1        2 0.93490303E-01 0.11312875E+03</pdfrwt>
<totfact> 0.24477857E+05</totfact>
</mgrwt>
</event>
<event>
 4    1  0.5006371E+003  0.1066068E+03  0.7546771E-02  0.1266986E+00
         21   -1    0    0  503  502  0.00000000000E+00  0.00000000000E+00  0.19145376796E+03  0.19145376796E+03  0.00000000000E+00 0.  1.
          1   -1    0    0  502    0 -0.00000000000E+00 -0.00000000000E+00 -0.20299783069E+03  0.20299783069E+03  0.00000000000E+00 0.  1.
         21    1    1    2  503  501 -0.78140098184E+01  0.10632004278E+03  0.16012933433E+03  0.19237051219E+03  0.00000000000E+00 0.  1.
          1    1    1    2  501    0  0.78140098184E+01 -0.10632004278E+03 -0.17167339706E+03  0.20208108646E+03  0.00000000000E+00 0.  1.
<mgrwt>
<rscale>  2 0.10660680E+03</rscale>
<asrwt>0</asrwt>
<pdfrwt beam="1">  1       21 0.29454426E-01 0.10660680E+03</pdfrwt>
<pdfrwt beam="2">  1        1 0.31230435E-01 0.10660680E+03</pdfrwt>
<totfact> 0.17373496E+04</totfact>
</mgrwt>
</event>
<event>
 4    1  0.5006371E+003  0.1150935E+03  0.7546771E-02  0.1251418E+00
          2   -1    0    0  503    0 -0.00000000000E+00  0.00000000000E+00  0.12960507976E+03  0.12960507976E+03  0.00000000000E+00 0.  1.
         21   -1    0    0  501  502  0.00000000000E+00 -0.00000000000E+00 -0.21600974808E+03  0.21600974808E+03  0.00000000000E+00 0.  1.
         21    1    1    2  503  502  0.77236885405E+02 -0.85328589563E+02 -0.16863269878E+03  0.20416535397E+03  0.00000000000E+00 0.  1.
          2    1    1    2  501    0 -0.77236885405E+02  0.85328589563E+02  0.82228030468E+02  0.14144947387E+03  0.00000000000E+00 0.  1.
<mgrwt>
<rscale>  2 0.11509346E+03</rscale>
<asrwt>0</asrwt>
<pdfrwt beam="2">  1       21 0.33232269E-01 0.11509346E+03</pdfrwt>
<pdfrwt beam="1">  1        2 0.19939243E-01 0.11509346E+03</pdfrwt>
<totfact> 0.29729544E+04</totfact>
</mgrwt>
</event>
<event>
 4    1  0.5006371E+003  0.1098520E+03  0.7546771E-02  0.1260844E+00
         21   -1    0    0  501  502  0.00000000000E+00  0.00000000000E+00  0.95908164947E+02  0.95908164947E+02  0.00000000000E+00 0.  1.
          2   -1    0    0  503    0 -0.00000000000E+00 -0.00000000000E+00 -0.15521632902E+03  0.15521632902E+03  0.00000000000E+00 0.  1.
         21    1    1    2  503  502  0.15205028741E+02  0.10879465214E+03  0.24986273373E+02  0.11265781416E+03  0.00000000000E+00 0.  1.
          2    1    1    2  501    0 -0.15205028741E+02 -0.10879465214E+03 -0.84294437444E+02  0.13846667981E+03  0.00000000000E+00 0.  1.
<mgrwt>
<rscale>  2 0.10985203E+03</rscale>
<asrwt>0</asrwt>
<pdfrwt beam="1">  1       21 0.14755102E-01 0.10985203E+03</pdfrwt>
<pdfrwt beam="2">  1        2 0.23879435E-01 0.10985203E+03</pdfrwt>
<totfact> 0.11028177E+05</totfact>
</mgrwt>
</event>
<event>
 4    1  0.5006371E+003  0.1045664E+03  0.7546771E-02  0.1270976E+00
         21   -1    0    0  501  502  0.00000000000E+00  0.00000000000E+00  0.66318995171E+02  0.66318995171E+02  0.00000000000E+00 0. -1.
          1   -1    0    0  503    0 -0.00000000000E+00 -0.00000000000E+00 -0.25065335922E+03  0.25065335922E+03  0.00000000000E+00 0. -1.
         21    1    1    2  503  502 -0.46294994755E+02  0.93759826582E+02  0.54816154147E+00  0.10456783493E+03  0.00000000000E+00 0. -1.
          1    1    1    2  501    0  0.46294994755E+02 -0.93759826582E+02 -0.18488252559E+03  0.21240451946E+03  0.00000000000E+00 0. -1.
<mgrwt>
<rscale>  2 0.10456640E+03</rscale>
<asrwt>0</asrwt>
<pdfrwt beam="1">  1       21 0.10202922E-01 0.10456640E+03</pdfrwt>
<pdfrwt beam="2">  1        1 0.38562055E-01 0.10456640E+03</pdfrwt>
<totfact> 0.92226504E+04</totfact>
</mgrwt>
</event>
<event>
 4    1  0.5006371E+003  0.1196347E+03  0.7546771E-02  0.1243701E+00
         21   -1    0    0  501  502  0.00000000000E+00  0.00000000000E+00  0.42683339964E+02  0.42683339964E+02  0.00000000000E+00 0.  1.
         -2   -1    0    0    0  501 -0.00000000000E+00 -0.00000000000E+00 -0.44270817361E+03  0.44270817361E+03  0.00000000000E+00 0. -1.
         21    1    1    2  503  502  0.11194215864E+03  0.42206671610E+02 -0.80479454213E+02  0.14418527165E+03  0.00000000000E+00 0.  1.
         -2    1    1    2    0  503 -0.11194215864E+03 -0.42206671610E+02 -0.31954537943E+03  0.34120624192E+03  0.00000000000E+00 0. -1.
<mgrwt>
<rscale>  2 0.11963465E+03</rscale>
<asrwt>0</asrwt>
<pdfrwt beam="1">  1       21 0.65666677E-02 0.11963465E+03</pdfrwt>
<pdfrwt beam="2">  1       -2 0.68108949E-01 0.11963465E+03</pdfrwt>
<totfact> 0.27505714E+04</totfact>
</mgrwt>
</event>
<event>
 4    1  0.5006371E+003  0.1060247E+03  0.7546771E-02  0.1268114E+00
         21   -1    0    0  501  502  0.00000000000E+00  0.00000000000E+00  0.15958339269E+03  0.15958339269E+03  0.00000000000E+00 0. -1.
         -2   -1    0    0    0  501 -0.00000000000E+00 -0.00000000000E+00 -0.21558983448E+03  0.21558983448E+03  0.00000000000E+00 0.  1.
         21    1    1    2  503  502 -0.37807119693E+02  0.99054778643E+02  0.12591652997E+03  0.16460923423E+03  0.00000000000E+00 0. -1.
         -2    1    1    2    0  503  0.37807119693E+02 -0.99054778643E+02 -0.18192297176E+03  0.21056399294E+03  0.00000000000E+00 0.  1.
<mgrwt>
<rscale>  2 0.10602466E+03</rscale>
<asrwt>0</asrwt>
<pdfrwt beam="1">  1       21 0.24551291E-01 0.10602466E+03</pdfrwt>
<pdfrwt beam="2">  1       -2 0.33167667E-01 0.10602466E+03</pdfrwt>
<totfact> 0.10729806E+04</totfact>
</mgrwt>
</event>
<event>
 4    1  0.5006371E+003  0.1137666E+03  0.7546771E-02  0.1253750E+00
         21   -1    0    0  501  502  0.00000000000E+00  0.00000000000E+00  0.17889256161E+02  0.17889256161E+02  0.00000000000E+00 0.  1.
          2   -1    0    0  503    0 -0.00000000000E+00 -0.00000000000E+00 -0.10740292253E+04  0.10740292253E+04  0.00000000000E+00 0.  1.
         21    1    1    2  503  502 -0.74542050008E+02 -0.85943667925E+02 -0.21616963200E+03  0.24427881831E+03  0.00000000000E+00 0.  1.
          2    1    1    2  501    0  0.74542050008E+02  0.85943667925E+02 -0.83997033715E+03  0.84763966317E+03  0.00000000000E+00 0.  1.
<mgrwt>
<rscale>  2 0.11376656E+03</rscale>
<asrwt>0</asrwt>
<pdfrwt beam="1">  1       21 0.27521918E-02 0.11376656E+03</pdfrwt>
<pdfrwt beam="2">  1        2 0.16523535E+00 0.11376656E+03</pdfrwt>
<totfact> 0.21752156E+05</totfact>
</mgrwt>
</event>
<event>
 4    1  0.5006371E+003  0.1079797E+03  0.7546771E-02  0.1264357E+00
          2   -1    0    0  503    0 -0.00000000000E+00  0.00000000000E+00  0.27311411926E+02  0.27311411926E+02  0.00000000000E+00 0.  1.
         21   -1    0    0  501  502  0.00000000000E+00 -0.00000000000E+00 -0.31090430228E+04  0.31090430228E+04  0.00000000000E+00 0. -1.
         21    1    1    2  503  502  0.46922136757E+02  0.97251935520E+02 -0.29974030750E+04  0.29993473990E+04  0.00000000000E+00 0. -1.
          2    1    1    2  501    0 -0.46922136757E+02 -0.97251935520E+02 -0.84328535919E+02  0.13700703577E+03  0.00000000000E+00 0.  1.
<mgrwt>
<rscale>  2 0.10797975E+03</rscale>
<asrwt>0</asrwt>
<pdfrwt beam="2">  1       21 0.47831420E+00 0.10797975E+03</pdfrwt>
<pdfrwt beam="1">  1        2 0.42017567E-02 0.10797975E+03</pdfrwt>
<totfact> 0.74886380E+01</totfact>
</mgrwt>
</event>
<event>
 4    1  0.5006371E+003  0.1060731E+03  0.7546771E-02  0.1268020E+00
         21   -1    0    0  501  502  0.00000000000E+00  0.00000000000E+00  0.34066322273E+03  0.34066322273E+03  0.00000000000E+00 0.  1.
         -1   -1    0    0    0  501 -0.00000000000E+00 -0.00000000000E+00 -0.19418015767E+03  0.19418015767E+03  0.00000000000E+00 0.  1.
         21    1    1    2  503  502 -0.52373756060E+02 -0.92241520046E+02  0.31686097055E+03  0.33414425478E+03  0.00000000000E+00 0.  1.
         -1    1    1    2    0  503  0.52373756060E+02  0.92241520046E+02 -0.17037790549E+03  0.20069912561E+03  0.00000000000E+00 0.  1.
<mgrwt>
<rscale>  2 0.10607313E+03</rscale>
<asrwt>0</asrwt>
<pdfrwt beam="1">  1       21 0.52409726E-01 0.10607313E+03</pdfrwt>
<pdfrwt beam="2">  1       -1 0.29873870E-01 0.10607313E+03</pdfrwt>
<totfact> 0.33320728E+03</totfact>
</mgrwt>
</event>
<event>
 4    1  0.5006371E+003  0.1448502E+03  0.7546771E-02  0.1206948E+00
         21   -1    0    0  501  502  0.00000000000E+00  0.00000000000E+00  0.60166251855E+03  0.60166251855E+03  0.00000000000E+00 0. -1.
          2   -1    0    0  503    0 -0.00000000000E+00 -0.00000000000E+00 -0.38965880075E+02  0.38965880075E+02  0.00000000000E+00 0. -1.
         21    1    1    2  503  502 -0.76284171138E+02  0.12313527048E+03  0.38516490561E+03  0.41150160889E+03  0.00000000000E+00 0. -1.
          2    1    1    2  501    0  0.76284171138E+02 -0.12313527048E+03  0.17753173287E+03  0.22912678974E+03  0.00000000000E+00 0. -1.
<mgrwt>
<rscale>  2 0.14485016E+03</rscale>
<asrwt>0</asrwt>
<pdfrwt beam="1">  1       21 0.92563458E-01 0.14485016E+03</pdfrwt>
<pdfrwt beam="2">  1        2 0.59947512E-02 0.14485016E+03</pdfrwt>
<totfact> 0.14715319E+04</totfact>
</mgrwt>
</event>
<event>
 4    1  0.5006371E+003  0.1944709E+03  0.7546771E-02  0.1154490E+00
          1   -1    0    0  503    0 -0.00000000000E+00  0.00000000000E+00  0.58127332909E+03  0.58127332909E+03  0.00000000000E+00 0.  1.
         21   -1    0    0  501  502  0.00000000000E+00 -0.00000000000E+00 -0.13258336529E+03  0.13258336529E+03  0.00000000000E+00 0. -1.
         21    1    1    2  503  502  0.19117255400E+03 -0.35665041220E+02 -0.30371109098E+02  0.19682821148E+03  0.00000000000E+00 0. -1.
          1    1    1    2  501    0 -0.19117255400E+03  0.35665041220E+02  0.47906107290E+03  0.51702848290E+03  0.00000000000E+00 0.  1.
<mgrwt>
<rscale>  2 0.19447092E+03</rscale>
<asrwt>0</asrwt>
<pdfrwt beam="2">  1       21 0.20397441E-01 0.19447092E+03</pdfrwt>
<pdfrwt beam="1">  1        1 0.89426665E-01 0.19447092E+03</pdfrwt>
<totfact> 0.90673249E+03</totfact>
</mgrwt>
</event>
<event>
 4    1  0.5006371E+003  0.1499240E+03  0.7546771E-02  0.1200566E+00
         -2   -1    0    0    0  501 -0.00000000000E+00  0.00000000000E+00  0.18668463184E+02  0.18668463184E+02  0.00000000000E+00 0. -1.
         21   -1    0    0  501  502  0.00000000000E+00 -0.00000000000E+00 -0.14731120080E+04  0.14731120080E+04  0.00000000000E+00 0. -1.
         21    1    1    2  503  502 -0.12382108356E+03 -0.84531258558E+02 -0.10460140629E+04  0.10567036548E+04  0.00000000000E+00 0. -1.
         -2    1    1    2    0  503  0.12382108356E+03  0.84531258558E+02 -0.40842948194E+03  0.43507681635E+03  0.00000000000E+00 0. -1.
<mgrwt>
<rscale>  2 0.14992396E+03</rscale>
<asrwt>0</asrwt>
<pdfrwt beam="2">  1       21 0.22663265E+00 0.14992396E+03</pdfrwt>
<pdfrwt beam="1">  1       -2 0.28720709E-02 0.14992396E+03</pdfrwt>
<totfact> 0.32683234E+03</totfact>
</mgrwt>
</event>
<event>
 4    1  0.5006371E+003  0.1855597E+03  0.7546771E-02  0.1162528E+00
         21   -1    0    0  501  502  0.00000000000E+00  0.00000000000E+00  0.61151208264E+02  0.61151208264E+02  0.00000000000E+00 0. -1.
          2   -1    0    0  503    0 -0.00000000000E+00 -0.00000000000E+00 -0.25414120268E+04  0.25414120268E+04  0.00000000000E+00 0. -1.
         21    1    1    2  503  502 -0.85396620333E+02 -0.16474167922E+03 -0.92017881521E+02  0.20712241345E+03  0.00000000000E+00 0. -1.
          2    1    1    2  501    0  0.85396620333E+02  0.16474167922E+03 -0.23882429371E+04  0.23954408216E+04  0.00000000000E+00 0. -1.
<mgrwt>
<rscale>  2 0.18555970E+03</rscale>
<asrwt>0</asrwt>
<pdfrwt beam="1">  1       21 0.94078787E-02 0.18555970E+03</pdfrwt>
<pdfrwt beam="2">  1        2 0.39098644E+00 0.18555970E+03</pdfrwt>
<totfact> 0.45188355E+03</totfact>
</mgrwt>
</event>
<event>
 4    1  0.5006371E+003  0.1390701E+03  0.7546771E-02  0.1214586E+00
         -1   -1    0    0    0  501 -0.00000000000E+00  0.00000000000E+00  0.24232937158E+03  0.24232937158E+03  0.00000000000E+00 0.  1.
         21   -1    0    0  501  502  0.00000000000E+00 -0.00000000000E+00 -0.11279773337E+03  0.11279773337E+03  0.00000000000E+00 0.  1.
         21    1    1    2  503  502  0.13100975789E+03  0.46657665534E+02 -0.31257074615E+02  0.14253946517E+03  0.00000000000E+00 0.  1.
         -1    1    1    2    0  503 -0.13100975789E+03 -0.46657665534E+02  0.16078871282E+03  0.21258763978E+03  0.00000000000E+00 0.  1.
<mgrwt>
<rscale>  2 0.13907011E+03</rscale>
<asrwt>0</asrwt>
<pdfrwt beam="2">  1       21 0.17353498E-01 0.13907011E+03</pdfrwt>
<pdfrwt beam="1">  1       -1 0.37281442E-01 0.13907011E+03</pdfrwt>
<totfact> 0.19307788E+04</totfact>
</mgrwt>
</event>
<event>
 4    1  0.5006371E+003  0.1129334E+03  0.7546771E-02  0.1255232E+00
         -2   -1    0    0    0  501 -0.00000000000E+00  0.00000000000E+00  0.11827834221E+03  0.11827834221E+03  0.00000000000E+00 0. -1.
         21   -1    0    0  503  502  0.00000000000E+00 -0.00000000000E+00 -0.27221288731E+03  0.27221288731E+03  0.00000000000E+00 0. -1.
         21    1    1    2  503  501  0.22950879477E+02 -0.11057669493E+03 -0.22869163066E+03  0.25505648445E+03  0.00000000000E+00 0. -1.
         -2    1    1    2    0  502 -0.22950879477E+02  0.11057669493E+03  0.74757085549E+02  0.13543474506E+03  0.00000000000E+00 0. -1.
<mgrwt>
<rscale>  2 0.11293338E+03</rscale>
<asrwt>0</asrwt>
<pdfrwt beam="2">  1       21 0.41878905E-01 0.11293338E+03</pdfrwt>
<pdfrwt beam="1">  1       -2 0.18196668E-01 0.11293338E+03</pdfrwt>
<totfact> 0.10818911E+04</totfact>
</mgrwt>
</event>
<event>
 4    1  0.5006371E+003  0.1090044E+03  0.7546771E-02  0.1262425E+00
         21   -1    0    0  503  502  0.00000000000E+00  0.00000000000E+00  0.72658686817E+02  0.72658686817E+02  0.00000000000E+00 0.  1.
          3   -1    0    0  502    0 -0.00000000000E+00 -0.00000000000E+00 -0.18631609354E+03  0.18631609354E+03  0.00000000000E+00 0. -1.
         21    1    1    2  503  501  0.91356524055E+02 -0.59463778901E+02 -0.11546590693E+02  0.10961422921E+03  0.00000000000E+00 0.  1.
          3    1    1    2  501    0 -0.91356524055E+02  0.59463778901E+02 -0.10211081603E+03  0.14936055115E+03  0.00000000000E+00 0. -1.
<mgrwt>
<rscale>  2 0.10900438E+03</rscale>
<asrwt>0</asrwt>
<pdfrwt beam="1">  1       21 0.11178260E-01 0.10900438E+03</pdfrwt>
<pdfrwt beam="2">  1        3 0.28664014E-01 0.10900438E+03</pdfrwt>
<totfact> 0.36581666E+04</totfact>
</mgrwt>
</event>
<event>
 4    1  0.5006371E+003  0.1123412E+03  0.7546771E-02  0.1256295E+00
         -4   -1    0    0    0  501 -0.00000000000E+00  0.00000000000E+00  0.27590836403E+02  0.27590836403E+02  0.00000000000E+00 0.  1.
         21   -1    0    0  501  502  0.00000000000E+00 -0.00000000000E+00 -0.14771917713E+04  0.14771917713E+04  0.00000000000E+00 0. -1.
         21    1    1    2  503  502  0.51551611007E+02 -0.99814742281E+02 -0.13499403383E+04  0.13546067578E+04  0.00000000000E+00 0. -1.
         -4    1    1    2    0  503 -0.51551611007E+02  0.99814742281E+02 -0.99660596609E+02  0.15017584989E+03  0.00000000000E+00 0.  1.
<mgrwt>
<rscale>  2 0.11234123E+03</rscale>
<asrwt>0</asrwt>
<pdfrwt beam="2">  1       21 0.22726031E+00 0.11234123E+03</pdfrwt>
<pdfrwt beam="1">  1       -4 0.42447433E-02 0.11234123E+03</pdfrwt>
<totfact> 0.12148465E+03</totfact>
</mgrwt>
</event>
<event>
 4    1  0.5006371E+003  0.1368500E+03  0.7546771E-02  0.1217631E+00
          2   -1    0    0  502    0 -0.00000000000E+00  0.00000000000E+00  0.32847740936E+03  0.32847740936E+03  0.00000000000E+00 0.  1.
         21   -1    0    0  503  502  0.00000000000E+00 -0.00000000000E+00 -0.29050731949E+03  0.29050731949E+03  0.00000000000E+00 0. -1.
         21    1    1    2  503  501 -0.23838527130E+02  0.13475774335E+03 -0.25848001821E+03  0.29247195521E+03  0.00000000000E+00 0. -1.
          2    1    1    2  501    0  0.23838527130E+02 -0.13475774335E+03  0.29645010809E+03  0.32651277365E+03  0.00000000000E+00 0.  1.
<mgrwt>
<rscale>  2 0.13685001E+03</rscale>
<asrwt>0</asrwt>
<pdfrwt beam="2">  1       21 0.44693434E-01 0.13685001E+03</pdfrwt>
<pdfrwt beam="1">  1        2 0.50534986E-01 0.13685001E+03</pdfrwt>
<totfact> 0.60138061E+03</totfact>
</mgrwt>
</event>
<event>
 4    1  0.5006371E+003  0.1240320E+03  0.7546771E-02  0.1236590E+00
          1   -1    0    0  503    0 -0.00000000000E+00  0.00000000000E+00  0.11258141196E+04  0.11258141196E+04  0.00000000000E+00 0. -1.
         21   -1    0    0  501  502  0.00000000000E+00 -0.00000000000E+00 -0.44809621498E+02  0.44809621498E+02  0.00000000000E+00 0. -1.
         21    1    1    2  503  502 -0.11533809000E+03 -0.45618529507E+02  0.52529877104E+02  0.13469711663E+03  0.00000000000E+00 0. -1.
          1    1    1    2  501    0  0.11533809000E+03  0.45618529507E+02  0.10284746210E+04  0.10359266244E+04  0.00000000000E+00 0. -1.
<mgrwt>
<rscale>  2 0.12403195E+03</rscale>
<asrwt>0</asrwt>
<pdfrwt beam="2">  1       21 0.68937888E-02 0.12403195E+03</pdfrwt>
<pdfrwt beam="1">  1        1 0.17320215E+00 0.12403195E+03</pdfrwt>
<totfact> 0.22946628E+04</totfact>
</mgrwt>
</event>
<event>
 4    1  0.5006371E+003  0.1717619E+03  0.7546771E-02  0.1176023E+00
         21   -1    0    0  501  502  0.00000000000E+00  0.00000000000E+00  0.63367028004E+03  0.63367028004E+03  0.00000000000E+00 0. -1.
          2   -1    0    0  503    0 -0.00000000000E+00 -0.00000000000E+00 -0.79531549704E+02  0.79531549704E+02  0.00000000000E+00 0.  1.
         21    1    1    2  503  502 -0.12216330603E+03  0.12074058574E+03  0.50668331457E+03  0.53500480713E+03  0.00000000000E+00 0. -1.
          2    1    1    2  501    0  0.12216330603E+03 -0.12074058574E+03  0.47455415767E+02  0.17819702262E+03  0.00000000000E+00 0.  1.
<mgrwt>
<rscale>  2 0.17176194E+03</rscale>
<asrwt>0</asrwt>
<pdfrwt beam="1">  1       21 0.97487732E-01 0.17176194E+03</pdfrwt>
<pdfrwt beam="2">  1        2 0.12235623E-01 0.17176194E+03</pdfrwt>
<totfact> 0.53112311E+03</totfact>
</mgrwt>
</event>
<event>
 4    1  0.5006371E+003  0.1764477E+03  0.7546771E-02  0.1171286E+00
         21   -1    0    0  501  502  0.00000000000E+00  0.00000000000E+00  0.41047308437E+03  0.41047308437E+03  0.00000000000E+00 0. -1.
          1   -1    0    0  503    0 -0.00000000000E+00 -0.00000000000E+00 -0.76968826953E+03  0.76968826953E+03  0.00000000000E+00 0.  1.
         21    1    1    2  503  502 -0.64451777298E+02  0.16425514298E+03  0.38064457037E+03  0.41955222863E+03  0.00000000000E+00 0. -1.
          1    1    1    2  501    0  0.64451777298E+02 -0.16425514298E+03 -0.73985975554E+03  0.76060912528E+03  0.00000000000E+00 0.  1.
<mgrwt>
<rscale>  2 0.17644768E+03</rscale>
<asrwt>0</asrwt>
<pdfrwt beam="1">  1       21 0.63149706E-01 0.17644768E+03</pdfrwt>
<pdfrwt beam="2">  1        1 0.11841358E+00 0.17644768E+03</pdfrwt>
<totfact> 0.64016922E+02</totfact>
</mgrwt>
</event>
<event>
 4    1  0.5006371E+003  0.1485305E+03  0.7546771E-02  0.1202290E+00
         21   -1    0    0  501  502  0.00000000000E+00  0.00000000000E+00  0.38331292612E+03  0.38331292612E+03  0.00000000000E+00 0. -1.
          1   -1    0    0  503    0 -0.00000000000E+00 -0.00000000000E+00 -0.18947384778E+03  0.18947384778E+03  0.00000000000E+00 0. -1.
         21    1    1    2  503  502 -0.63663048398E+02  0.13419510259E+03  0.33588928184E+03  0.36726409972E+03  0.00000000000E+00 0. -1.
          1    1    1    2  501    0  0.63663048398E+02 -0.13419510259E+03 -0.14205020349E+03  0.20552267418E+03  0.00000000000E+00 0. -1.
<mgrwt>
<rscale>  2 0.14853050E+03</rscale>
<asrwt>0</asrwt>
<pdfrwt beam="1">  1       21 0.58971220E-01 0.14853050E+03</pdfrwt>
<pdfrwt beam="2">  1        1 0.29149823E-01 0.14853050E+03</pdfrwt>
<totfact> 0.46402612E+03</totfact>
</mgrwt>
</event>
<event>
 4    1  0.5006371E+003  0.1073613E+03  0.7546771E-02  0.1265536E+00
          2   -1    0    0  502    0 -0.00000000000E+00  0.00000000000E+00  0.83443613666E+03  0.83443613666E+03  0.00000000000E+00 0.  1.
         21   -1    0    0  503  502  0.00000000000E+00 -0.00000000000E+00 -0.64114772896E+02  0.64114772896E+02  0.00000000000E+00 0. -1.
         21    1    1    2  503  501 -0.10693952226E+03  0.95075552513E+01 -0.12784520860E+02  0.10811983630E+03  0.00000000000E+00 0. -1.
          2    1    1    2  501    0  0.10693952226E+03 -0.95075552513E+01  0.78310588462E+03  0.79043107325E+03  0.00000000000E+00 0.  1.
<mgrwt>
<rscale>  2 0.10736133E+03</rscale>
<asrwt>0</asrwt>
<pdfrwt beam="2">  1       21 0.98638118E-02 0.10736133E+03</pdfrwt>
<pdfrwt beam="1">  1        2 0.12837478E+00 0.10736133E+03</pdfrwt>
<totfact> 0.35646216E+04</totfact>
</mgrwt>
</event>
<event>
 4    1  0.5006371E+003  0.1511406E+03  0.7546771E-02  0.1199078E+00
          1   -1    0    0  503    0 -0.00000000000E+00  0.00000000000E+00  0.82031179556E+03  0.82031179556E+03  0.00000000000E+00 0. -1.
         21   -1    0    0  501  502  0.00000000000E+00 -0.00000000000E+00 -0.76732151295E+02  0.76732151295E+02  0.00000000000E+00 0. -1.
         21    1    1    2  503  502  0.54188281826E+02  0.14109255332E+03  0.13790558695E+02  0.15176843545E+03  0.00000000000E+00 0. -1.
          1    1    1    2  501    0 -0.54188281826E+02 -0.14109255332E+03  0.72978908558E+03  0.74527551141E+03  0.00000000000E+00 0. -1.
<mgrwt>
<rscale>  2 0.15114059E+03</rscale>
<asrwt>0</asrwt>
<pdfrwt beam="2">  1       21 0.11804947E-01 0.15114059E+03</pdfrwt>
<pdfrwt beam="1">  1        1 0.12620181E+00 0.15114059E+03</pdfrwt>
<totfact> 0.15109245E+04</totfact>
</mgrwt>
</event>
<event>
 4    1  0.5006371E+003  0.1002698E+03  0.7546771E-02  0.1279730E+00
         -3   -1    0    0    0  501 -0.00000000000E+00  0.00000000000E+00  0.72186825309E+02  0.72186825309E+02  0.00000000000E+00 0.  1.
         21   -1    0    0  501  502  0.00000000000E+00 -0.00000000000E+00 -0.24116424386E+03  0.24116424386E+03  0.00000000000E+00 0.  1.
         21    1    1    2  503  502 -0.12456749387E+02  0.99492986559E+02 -0.18632506442E+03  0.21159171679E+03  0.00000000000E+00 0.  1.
         -3    1    1    2    0  503  0.12456749387E+02 -0.99492986559E+02  0.17347645874E+02  0.10175935238E+03  0.00000000000E+00 0.  1.
<mgrwt>
<rscale>  2 0.10026976E+03</rscale>
<asrwt>0</asrwt>
<pdfrwt beam="2">  1       21 0.37102192E-01 0.10026976E+03</pdfrwt>
<pdfrwt beam="1">  1       -3 0.11105665E-01 0.10026976E+03</pdfrwt>
<totfact> 0.20468631E+04</totfact>
</mgrwt>
</event>
<event>
 4    1  0.5006371E+003  0.1077741E+03  0.7546771E-02  0.1264748E+00
          2   -1    0    0  502    0 -0.00000000000E+00  0.00000000000E+00  0.13697051373E+03  0.13697051373E+03  0.00000000000E+00 0.  1.
         21   -1    0    0  503  502  0.00000000000E+00 -0.00000000000E+00 -0.20841833292E+03  0.20841833292E+03  0.00000000000E+00 0.  1.
         21    1    1    2  503  501  0.92199402748E+01 -0.10737903495E+03 -0.16872330947E+03  0.20020694195E+03  0.00000000000E+00 0.  1.
          2    1    1    2  501    0 -0.92199402748E+01  0.10737903495E+03  0.97275490280E+02  0.14518190471E+03  0.00000000000E+00 0.  1.
<mgrwt>
<rscale>  2 0.10777414E+03</rscale>
<asrwt>0</asrwt>
<pdfrwt beam="2">  1       21 0.32064359E-01 0.10777414E+03</pdfrwt>
<pdfrwt beam="1">  1        2 0.21072387E-01 0.10777414E+03</pdfrwt>
<totfact> 0.29940470E+04</totfact>
</mgrwt>
</event>
<event>
 4    1  0.5006371E+003  0.1164975E+03  0.7546771E-02  0.1248989E+00
         -2   -1    0    0    0  501 -0.00000000000E+00  0.00000000000E+00  0.20636608585E+03  0.20636608585E+03  0.00000000000E+00 0. -1.
         21   -1    0    0  503  502  0.00000000000E+00 -0.00000000000E+00 -0.12005140476E+03  0.12005140476E+03  0.00000000000E+00 0.  1.
         21    1    1    2  503  501 -0.98811195216E+02 -0.61709175539E+02 -0.66592821093E+02  0.13418747507E+03  0.00000000000E+00 0.  1.
         -2    1    1    2    0  502  0.98811195216E+02  0.61709175539E+02  0.15290750219E+03  0.19223001553E+03  0.00000000000E+00 0. -1.
<mgrwt>
<rscale>  2 0.11649753E+03</rscale>
<asrwt>0</asrwt>
<pdfrwt beam="2">  1       21 0.18469447E-01 0.11649753E+03</pdfrwt>
<pdfrwt beam="1">  1       -2 0.31748629E-01 0.11649753E+03</pdfrwt>
<totfact> 0.19704284E+04</totfact>
</mgrwt>
</event>
<event>
 4    1  0.5006371E+003  0.1273534E+03  0.7546771E-02  0.1231437E+00
          2   -1    0    0  502    0 -0.00000000000E+00  0.00000000000E+00  0.62156693248E+03  0.62156693248E+03  0.00000000000E+00 0.  1.
         21   -1    0    0  503  502  0.00000000000E+00 -0.00000000000E+00 -0.27833566024E+02  0.27833566024E+02  0.00000000000E+00 0.  1.
         21    1    1    2  503  501 -0.99516563616E+02  0.79469099817E+02  0.21568173143E+03  0.25047453669E+03  0.00000000000E+00 0.  1.
          2    1    1    2  501    0  0.99516563616E+02 -0.79469099817E+02  0.37805163503E+03  0.39892596181E+03  0.00000000000E+00 0.  1.
<mgrwt>
<rscale>  2 0.12735338E+03</rscale>
<asrwt>0</asrwt>
<pdfrwt beam="2">  1       21 0.42820875E-02 0.12735338E+03</pdfrwt>
<pdfrwt beam="1">  1        2 0.95625672E-01 0.12735338E+03</pdfrwt>
<totfact> 0.20992873E+05</totfact>
</mgrwt>
</event>
<event>
 4    1  0.5006371E+003  0.1873671E+03  0.7546771E-02  0.1160858E+00
         -1   -1    0    0    0  501 -0.00000000000E+00  0.00000000000E+00  0.67800865481E+03  0.67800865481E+03  0.00000000000E+00 0. -1.
         21   -1    0    0  501  502  0.00000000000E+00 -0.00000000000E+00 -0.27456166410E+03  0.27456166410E+03  0.00000000000E+00 0.  1.
         21    1    1    2  503  502 -0.16689609794E+03 -0.85159490019E+02 -0.22730687128E+03  0.29457572877E+03  0.00000000000E+00 0.  1.
         -1    1    1    2    0  503  0.16689609794E+03  0.85159490019E+02  0.63075386199E+03  0.65799459014E+03  0.00000000000E+00 0. -1.
<mgrwt>
<rscale>  2 0.18736714E+03</rscale>
<asrwt>0</asrwt>
<pdfrwt beam="2">  1       21 0.42240256E-01 0.18736714E+03</pdfrwt>
<pdfrwt beam="1">  1       -1 0.10430902E+00 0.18736714E+03</pdfrwt>
<totfact> 0.46553900E+02</totfact>
</mgrwt>
</event>
<event>
 4    1  0.5006371E+003  0.1134530E+03  0.7546771E-02  0.1254306E+00
         21   -1    0    0  501  502  0.00000000000E+00  0.00000000000E+00  0.31435998849E+03  0.31435998849E+03  0.00000000000E+00 0. -1.
         -2   -1    0    0    0  501 -0.00000000000E+00 -0.00000000000E+00 -0.16541941346E+03  0.16541941346E+03  0.00000000000E+00 0. -1.
         21    1    1    2  503  502  0.82281107537E+02  0.78111443703E+02  0.28256344815E+03  0.30448921250E+03  0.00000000000E+00 0. -1.
         -2    1    1    2    0  503 -0.82281107537E+02 -0.78111443703E+02 -0.13362287312E+03  0.17529018945E+03  0.00000000000E+00 0. -1.
<mgrwt>
<rscale>  2 0.11345298E+03</rscale>
<asrwt>0</asrwt>
<pdfrwt beam="1">  1       21 0.48363075E-01 0.11345298E+03</pdfrwt>
<pdfrwt beam="2">  1       -2 0.25449141E-01 0.11345298E+03</pdfrwt>
<totfact> 0.45660084E+03</totfact>
</mgrwt>
</event>
<event>
 4    1  0.5006371E+003  0.1078633E+03  0.7546771E-02  0.1264579E+00
          1   -1    0    0  502    0 -0.00000000000E+00  0.00000000000E+00  0.13865443573E+04  0.13865443573E+04  0.00000000000E+00 0.  1.
         21   -1    0    0  503  502  0.00000000000E+00 -0.00000000000E+00 -0.96449076325E+01  0.96449076325E+01  0.00000000000E+00 0.  1.
         21    1    1    2  503  501 -0.74409448867E+02 -0.78087993876E+02  0.43674165445E+03  0.44986417239E+03  0.00000000000E+00 0.  1.
          1    1    1    2  501    0  0.74409448867E+02  0.78087993876E+02  0.94015779523E+03  0.94632509256E+03  0.00000000000E+00 0.  1.
<mgrwt>
<rscale>  2 0.10786334E+03</rscale>
<asrwt>0</asrwt>
<pdfrwt beam="2">  1       21 0.14838330E-02 0.10786334E+03</pdfrwt>
<pdfrwt beam="1">  1        1 0.21331436E+00 0.10786334E+03</pdfrwt>
<totfact> 0.19124108E+05</totfact>
</mgrwt>
</event>
<event>
 4    1  0.5006371E+003  0.3153517E+03  0.7546771E-02  0.1077809E+00
         -1   -1    0    0    0  501 -0.00000000000E+00  0.00000000000E+00  0.19250147385E+03  0.19250147385E+03  0.00000000000E+00 0. -1.
         21   -1    0    0  503  502  0.00000000000E+00 -0.00000000000E+00 -0.56820088911E+03  0.56820088911E+03  0.00000000000E+00 0. -1.
         21    1    1    2  503  501  0.30704566204E+03  0.71900530485E+02 -0.30246756234E+03  0.43695920992E+03  0.00000000000E+00 0. -1.
         -1    1    1    2    0  502 -0.30704566204E+03 -0.71900530485E+02 -0.73231852914E+02  0.32374315304E+03  0.00000000000E+00 0. -1.
<mgrwt>
<rscale>  2 0.31535175E+03</rscale>
<asrwt>0</asrwt>
<pdfrwt beam="2">  1       21 0.87415519E-01 0.31535175E+03</pdfrwt>
<pdfrwt beam="1">  1       -1 0.29615612E-01 0.31535175E+03</pdfrwt>
<totfact> 0.10288879E+03</totfact>
</mgrwt>
</event>
<event>
 4    1  0.5006371E+003  0.1262751E+03  0.7546771E-02  0.1233090E+00
         21   -1    0    0  501  502  0.00000000000E+00  0.00000000000E+00  0.20152210822E+03  0.20152210822E+03  0.00000000000E+00 0. -1.
          1   -1    0    0  503    0 -0.00000000000E+00 -0.00000000000E+00 -0.85483077162E+02  0.85483077162E+02  0.00000000000E+00 0.  1.
         21    1    1    2  503  502  0.31814738962E+02  0.12220153450E+03  0.97156742920E+02  0.15932616026E+03  0.00000000000E+00 0. -1.
          1    1    1    2  501    0 -0.31814738962E+02 -0.12220153450E+03  0.18882288139E+02  0.12767902512E+03  0.00000000000E+00 0.  1.
<mgrwt>
<rscale>  2 0.12627507E+03</rscale>
<asrwt>0</asrwt>
<pdfrwt beam="1">  1       21 0.31003401E-01 0.12627507E+03</pdfrwt>
<pdfrwt beam="2">  1        1 0.13151243E-01 0.12627507E+03</pdfrwt>
<totfact> 0.47079776E+04</totfact>
</mgrwt>
</event>
<event>
 4    1  0.5006371E+003  0.1179723E+03  0.7546771E-02  0.1246480E+00
         -1   -1    0    0    0  501 -0.00000000000E+00  0.00000000000E+00  0.78376638026E+03  0.78376638026E+03  0.00000000000E+00 0.  1.
         21   -1    0    0  503  502  0.00000000000E+00 -0.00000000000E+00 -0.32211463050E+02  0.32211463050E+02  0.00000000000E+00 0.  1.
         21    1    1    2  503  501  0.16012080738E+02 -0.11688064463E+03  0.10247622455E+03  0.15626531419E+03  0.00000000000E+00 0.  1.
         -1    1    1    2    0  502 -0.16012080738E+02  0.11688064463E+03  0.64907869266E+03  0.65971252912E+03  0.00000000000E+00 0.  1.
<mgrwt>
<rscale>  2 0.11797233E+03</rscale>
<asrwt>0</asrwt>
<pdfrwt beam="2">  1       21 0.49556103E-02 0.11797233E+03</pdfrwt>
<pdfrwt beam="1">  1       -1 0.12057943E+00 0.11797233E+03</pdfrwt>
<totfact> 0.16815060E+04</totfact>
</mgrwt>
</event>
<event>
 4    1  0.5006371E+003  0.1788269E+03  0.7546771E-02  0.1168943E+00
         21   -1    0    0  503  502  0.00000000000E+00  0.00000000000E+00  0.24734104343E+03  0.24734104343E+03  0.00000000000E+00 0.  1.
         -1   -1    0    0    0  501 -0.00000000000E+00 -0.00000000000E+00 -0.21049415041E+03  0.21049415041E+03  0.00000000000E+00 0.  1.
         21    1    1    2  503  501  0.32256083398E+01  0.17879776279E+03  0.16060550752E+03  0.24036050752E+03  0.00000000000E+00 0.  1.
         -1    1    1    2    0  502 -0.32256083398E+01 -0.17879776279E+03 -0.12375861450E+03  0.21747468632E+03  0.00000000000E+00 0.  1.
<mgrwt>
<rscale>  2 0.17882686E+03</rscale>
<asrwt>0</asrwt>
<pdfrwt beam="1">  1       21 0.38052468E-01 0.17882686E+03</pdfrwt>
<pdfrwt beam="2">  1       -1 0.32383716E-01 0.17882686E+03</pdfrwt>
<totfact> 0.54774051E+03</totfact>
</mgrwt>
</event>
<event>
 4    1  0.5006371E+003  0.1069515E+03  0.7546771E-02  0.1266322E+00
         21   -1    0    0  501  502  0.00000000000E+00  0.00000000000E+00  0.11566568845E+03  0.11566568845E+03  0.00000000000E+00 0.  1.
         -2   -1    0    0    0  501 -0.00000000000E+00 -0.00000000000E+00 -0.99081564769E+02  0.99081564769E+02  0.00000000000E+00 0. -1.
         21    1    1    2  503  502 -0.96758619887E+02 -0.45567370787E+02  0.12966665678E+02  0.10773462870E+03  0.00000000000E+00 0.  1.
         -2    1    1    2    0  503  0.96758619887E+02  0.45567370787E+02  0.36174580003E+01  0.10701262451E+03  0.00000000000E+00 0. -1.
<mgrwt>
<rscale>  2 0.10695146E+03</rscale>
<asrwt>0</asrwt>
<pdfrwt beam="1">  1       21 0.17794721E-01 0.10695146E+03</pdfrwt>
<pdfrwt beam="2">  1       -2 0.15243318E-01 0.10695146E+03</pdfrwt>
<totfact> 0.73748686E+04</totfact>
</mgrwt>
</event>
<event>
 4    1  0.5006371E+003  0.2106828E+03  0.7546771E-02  0.1141026E+00
         21   -1    0    0  503  502  0.00000000000E+00  0.00000000000E+00  0.11726061597E+03  0.11726061597E+03  0.00000000000E+00 0.  1.
          2   -1    0    0  502    0 -0.00000000000E+00 -0.00000000000E+00 -0.48320539355E+03  0.48320539355E+03  0.00000000000E+00 0. -1.
         21    1    1    2  503  501 -0.20769842240E+03  0.35335526347E+02 -0.43237546941E+02  0.21507375376E+03  0.00000000000E+00 0.  1.
          2    1    1    2  501    0  0.20769842240E+03 -0.35335526347E+02 -0.32270723064E+03  0.38539225576E+03  0.00000000000E+00 0. -1.
<mgrwt>
<rscale>  2 0.21068278E+03</rscale>
<asrwt>0</asrwt>
<pdfrwt beam="1">  1       21 0.18040095E-01 0.21068278E+03</pdfrwt>
<pdfrwt beam="2">  1        2 0.74339291E-01 0.21068278E+03</pdfrwt>
<totfact> 0.22577785E+04</totfact>
</mgrwt>
</event>
<event>
 4    1  0.5006371E+003  0.1085028E+03  0.7546771E-02  0.1263368E+00
         21   -1    0    0  503  502  0.00000000000E+00  0.00000000000E+00  0.42117385514E+03  0.42117385514E+03  0.00000000000E+00 0.  1.
          1   -1    0    0  502    0 -0.00000000000E+00 -0.00000000000E+00 -0.13455686279E+03  0.13455686279E+03  0.00000000000E+00 0.  1.
         21    1    1    2  503  501  0.48221306977E+02  0.97198532016E+02  0.39063407468E+03  0.40542302522E+03  0.00000000000E+00 0.  1.
          1    1    1    2  501    0 -0.48221306977E+02 -0.97198532016E+02 -0.10401708234E+03  0.15030769272E+03  0.00000000000E+00 0.  1.
<mgrwt>
<rscale>  2 0.10850276E+03</rscale>
<asrwt>0</asrwt>
<pdfrwt beam="1">  1       21 0.64795977E-01 0.10850276E+03</pdfrwt>
<pdfrwt beam="2">  1        1 0.20701056E-01 0.10850276E+03</pdfrwt>
<totfact> 0.59056832E+03</totfact>
</mgrwt>
</event>
<event>
 4    1  0.5006371E+003  0.1099664E+03  0.7546771E-02  0.1260632E+00
         21   -1    0    0  503  502  0.00000000000E+00  0.00000000000E+00  0.12971870175E+03  0.12971870175E+03  0.00000000000E+00 0. -1.
          2   -1    0    0  502    0 -0.00000000000E+00 -0.00000000000E+00 -0.29510832902E+04  0.29510832902E+04  0.00000000000E+00 0.  1.
         21    1    1    2  503  501  0.37429830051E+02 -0.10340030725E+03  0.10519358534E+03  0.15217853368E+03  0.00000000000E+00 0. -1.
          2    1    1    2  501    0 -0.37429830051E+02  0.10340030725E+03 -0.29265581738E+04  0.29286234582E+04  0.00000000000E+00 0.  1.
<mgrwt>
<rscale>  2 0.10996643E+03</rscale>
<asrwt>0</asrwt>
<pdfrwt beam="1">  1       21 0.19956725E-01 0.10996643E+03</pdfrwt>
<pdfrwt beam="2">  1        2 0.45401277E+00 0.10996643E+03</pdfrwt>
<totfact> 0.74301762E+02</totfact>
</mgrwt>
</event>
<event>
 4    1  0.5006371E+003  0.1087264E+03  0.7546771E-02  0.1262947E+00
         21   -1    0    0  501  502  0.00000000000E+00  0.00000000000E+00  0.84708941384E+01  0.84708941384E+01  0.00000000000E+00 0.  1.
          1   -1    0    0  503    0 -0.00000000000E+00 -0.00000000000E+00 -0.14190440387E+04  0.14190440387E+04  0.00000000000E+00 0.  1.
         21    1    1    2  503  502 -0.48477239687E+01  0.10861828154E+03 -0.61341784542E+03  0.62297904026E+03  0.00000000000E+00 0.  1.
          1    1    1    2  501    0  0.48477239687E+01 -0.10861828154E+03 -0.79715529914E+03  0.80453589259E+03  0.00000000000E+00 0.  1.
<mgrwt>
<rscale>  2 0.10872641E+03</rscale>
<asrwt>0</asrwt>
<pdfrwt beam="1">  1       21 0.13032146E-02 0.10872641E+03</pdfrwt>
<pdfrwt beam="2">  1        1 0.21831445E+00 0.10872641E+03</pdfrwt>
<totfact> 0.22384201E+05</totfact>
</mgrwt>
</event>
<event>
 4    1  0.5006371E+003  0.1072924E+03  0.7546771E-02  0.1265668E+00
         -1   -1    0    0    0  501 -0.00000000000E+00  0.00000000000E+00  0.93118799438E+02  0.93118799438E+02  0.00000000000E+00 0.  1.
         21   -1    0    0  503  502  0.00000000000E+00 -0.00000000000E+00 -0.27983767804E+03  0.27983767804E+03  0.00000000000E+00 0. -1.
         21    1    1    2  503  501 -0.10176093920E+03  0.34005509533E+02 -0.23268648068E+03  0.25623165635E+03  0.00000000000E+00 0. -1.
         -1    1    1    2    0  502  0.10176093920E+03 -0.34005509533E+02  0.45967602078E+02  0.11672482113E+03  0.00000000000E+00 0.  1.
<mgrwt>
<rscale>  2 0.10729242E+03</rscale>
<asrwt>0</asrwt>
<pdfrwt beam="2">  1       21 0.43051950E-01 0.10729242E+03</pdfrwt>
<pdfrwt beam="1">  1       -1 0.14325969E-01 0.10729242E+03</pdfrwt>
<totfact> 0.16161328E+04</totfact>
</mgrwt>
</event>
<event>
 4    1  0.5006371E+003  0.1227632E+03  0.7546771E-02  0.1238607E+00
          2   -1    0    0  502    0 -0.00000000000E+00  0.00000000000E+00  0.81537800875E+03  0.81537800875E+03  0.00000000000E+00 0.  1.
         21   -1    0    0  503  502  0.00000000000E+00 -0.00000000000E+00 -0.37212480486E+02  0.37212480486E+02  0.00000000000E+00 0. -1.
         21    1    1    2  503  501 -0.24737929534E+02 -0.12024490674E+03  0.86651550703E+02  0.15026408085E+03  0.00000000000E+00 0. -1.
          2    1    1    2  501    0  0.24737929534E+02  0.12024490674E+03  0.69151397756E+03  0.70232640838E+03  0.00000000000E+00 0.  1.
<mgrwt>
<rscale>  2 0.12276320E+03</rscale>
<asrwt>0</asrwt>
<pdfrwt beam="2">  1       21 0.57249976E-02 0.12276320E+03</pdfrwt>
<pdfrwt beam="1">  1        2 0.12544276E+00 0.12276320E+03</pdfrwt>
<totfact> 0.93234219E+04</totfact>
</mgrwt>
</event>
<event>
 4    1  0.5006371E+003  0.1235562E+03  0.7546771E-02  0.1237343E+00
         21   -1    0    0  503  502  0.00000000000E+00  0.00000000000E+00  0.39393036397E+02  0.39393036397E+02  0.00000000000E+00 0. -1.
         -2   -1    0    0    0  501 -0.00000000000E+00 -0.00000000000E+00 -0.74794987836E+03  0.74794987836E+03  0.00000000000E+00 0. -1.
         21    1    1    2  503  501  0.10193058964E+03  0.69830499472E+02 -0.81003614621E+02  0.14774210417E+03  0.00000000000E+00 0. -1.
         -2    1    1    2    0  502 -0.10193058964E+03 -0.69830499472E+02 -0.62755322734E+03  0.63960081059E+03  0.00000000000E+00 0. -1.
<mgrwt>
<rscale>  2 0.12355624E+03</rscale>
<asrwt>0</asrwt>
<pdfrwt beam="1">  1       21 0.60604673E-02 0.12355624E+03</pdfrwt>
<pdfrwt beam="2">  1       -2 0.11506921E+00 0.12355624E+03</pdfrwt>
<totfact> 0.97676105E+03</totfact>
</mgrwt>
</event>
<event>
 4    1  0.5006371E+003  0.1596120E+03  0.7546771E-02  0.1189136E+00
         21   -1    0    0  501  502  0.00000000000E+00  0.00000000000E+00  0.50884420735E+02  0.50884420735E+02  0.00000000000E+00 0.  1.
          2   -1    0    0  503    0 -0.00000000000E+00 -0.00000000000E+00 -0.53967884409E+03  0.53967884409E+03  0.00000000000E+00 0.  1.
         21    1    1    2  503  502 -0.14997356944E+03 -0.54625150269E+02 -0.16500356361E+03  0.22956949836E+03  0.00000000000E+00 0.  1.
          2    1    1    2  501    0  0.14997356944E+03  0.54625150269E+02 -0.32379085974E+03  0.36099376646E+03  0.00000000000E+00 0.  1.
<mgrwt>
<rscale>  2 0.15961196E+03</rscale>
<asrwt>0</asrwt>
<pdfrwt beam="1">  1       21 0.78283730E-02 0.15961196E+03</pdfrwt>
<pdfrwt beam="2">  1        2 0.83027509E-01 0.15961196E+03</pdfrwt>
<totfact> 0.89039899E+04</totfact>
</mgrwt>
</event>
<event>
 4    1  0.5006371E+003  0.1179222E+03  0.7546771E-02  0.1246565E+00
         21   -1    0    0  501  502  0.00000000000E+00  0.00000000000E+00  0.19384179384E+02  0.19384179384E+02  0.00000000000E+00 0. -1.
         -1   -1    0    0    0  501 -0.00000000000E+00 -0.00000000000E+00 -0.86930143976E+03  0.86930143976E+03  0.00000000000E+00 0. -1.
         21    1    1    2  503  502 -0.11030590612E+03 -0.41692490064E+02 -0.23919755002E+03  0.26668544127E+03  0.00000000000E+00 0. -1.
         -1    1    1    2    0  503  0.11030590612E+03  0.41692490064E+02 -0.61071971035E+03  0.62200017787E+03  0.00000000000E+00 0. -1.
<mgrwt>
<rscale>  2 0.11792225E+03</rscale>
<asrwt>0</asrwt>
<pdfrwt beam="1">  1       21 0.29821820E-02 0.11792225E+03</pdfrwt>
<pdfrwt beam="2">  1       -1 0.13373866E+00 0.11792225E+03</pdfrwt>
<totfact> 0.30398961E+04</totfact>
</mgrwt>
</event>
<event>
 4    1  0.5006371E+003  0.1000690E+03  0.7546771E-02  0.1280151E+00
         -2   -1    0    0    0  501 -0.00000000000E+00  0.00000000000E+00  0.17995790251E+03  0.17995790251E+03  0.00000000000E+00 0.  1.
         21   -1    0    0  503  502  0.00000000000E+00 -0.00000000000E+00 -0.60109494493E+02  0.60109494493E+02  0.00000000000E+00 0.  1.
         21    1    1    2  503  501  0.65981573702E+01  0.99851241939E+02  0.27212389899E+02  0.10370303931E+03  0.00000000000E+00 0.  1.
         -2    1    1    2    0  502 -0.65981573702E+01 -0.99851241939E+02  0.92636018120E+02  0.13636435770E+03  0.00000000000E+00 0.  1.
<mgrwt>
<rscale>  2 0.10006901E+03</rscale>
<asrwt>0</asrwt>
<pdfrwt beam="2">  1       21 0.92476146E-02 0.10006901E+03</pdfrwt>
<pdfrwt beam="1">  1       -2 0.27685831E-01 0.10006901E+03</pdfrwt>
<totfact> 0.85448511E+04</totfact>
</mgrwt>
</event>
<event>
 4    1  0.5006371E+003  0.1230465E+03  0.7546771E-02  0.1238154E+00
         21   -1    0    0  503  502  0.00000000000E+00  0.00000000000E+00  0.43681528379E+02  0.43681528379E+02  0.00000000000E+00 0.  1.
         -2   -1    0    0    0  501 -0.00000000000E+00 -0.00000000000E+00 -0.79676653176E+03  0.79676653176E+03  0.00000000000E+00 0.  1.
         21    1    1    2  503  501 -0.53745928718E+01 -0.12292902734E+03 -0.60680510515E+02  0.13719532196E+03  0.00000000000E+00 0.  1.
         -2    1    1    2    0  502  0.53745928718E+01  0.12292902734E+03 -0.69240449287E+03  0.70325273818E+03  0.00000000000E+00 0.  1.
<mgrwt>
<rscale>  2 0.12304646E+03</rscale>
<asrwt>0</asrwt>
<pdfrwt beam="1">  1       21 0.67202356E-02 0.12304646E+03</pdfrwt>
<pdfrwt beam="2">  1       -2 0.12257946E+00 0.12304646E+03</pdfrwt>
<totfact> 0.70437440E+03</totfact>
</mgrwt>
</event>
<event>
 4    1  0.5006371E+003  0.1915653E+03  0.7546771E-02  0.1157057E+00
         21   -1    0    0  503  502  0.00000000000E+00  0.00000000000E+00  0.27456954651E+02  0.27456954651E+02  0.00000000000E+00 0.  1.
          4   -1    0    0  502    0 -0.00000000000E+00 -0.00000000000E+00 -0.20016703164E+04  0.20016703164E+04  0.00000000000E+00 0.  1.
         21    1    1    2  503  501 -0.17433751198E+03  0.79395879050E+02 -0.40226688334E+03  0.44555125309E+03  0.00000000000E+00 0.  1.
          4    1    1    2  501    0  0.17433751198E+03 -0.79395879050E+02 -0.15719464784E+04  0.15835760179E+04  0.00000000000E+00 0.  1.
<mgrwt>
<rscale>  2 0.19156532E+03</rscale>
<asrwt>0</asrwt>
<pdfrwt beam="1">  1       21 0.42241462E-02 0.19156532E+03</pdfrwt>
<pdfrwt beam="2">  1        4 0.30794933E+00 0.19156532E+03</pdfrwt>
<totfact> 0.50069066E+02</totfact>
</mgrwt>
</event>
<event>
 4    1  0.5006371E+003  0.2655749E+03  0.7546771E-02  0.1103839E+00
         -2   -1    0    0    0  501 -0.00000000000E+00  0.00000000000E+00  0.10699133476E+03  0.10699133476E+03  0.00000000000E+00 0.  1.
         21   -1    0    0  503  502  0.00000000000E+00 -0.00000000000E+00 -0.95835535825E+03  0.95835535825E+03  0.00000000000E+00 0.  1.
         21    1    1    2  503  501  0.24715793419E+01 -0.26556343121E+03 -0.72328471127E+03  0.77050036876E+03  0.00000000000E+00 0.  1.
         -2    1    1    2    0  502 -0.24715793419E+01  0.26556343121E+03 -0.12807931222E+03  0.29484632424E+03  0.00000000000E+00 0.  1.
<mgrwt>
<rscale>  2 0.26557493E+03</rscale>
<asrwt>0</asrwt>
<pdfrwt beam="2">  1       21 0.14743928E+00 0.26557493E+03</pdfrwt>
<pdfrwt beam="1">  1       -2 0.16460206E-01 0.26557493E+03</pdfrwt>
<totfact> 0.70250843E+02</totfact>
</mgrwt>
</event>
<event>
 4    1  0.5006371E+003  0.1118291E+03  0.7546771E-02  0.1257220E+00
          2   -1    0    0  503    0 -0.00000000000E+00  0.00000000000E+00  0.39997897075E+03  0.39997897075E+03  0.00000000000E+00 0. -1.
         21   -1    0    0  501  502  0.00000000000E+00 -0.00000000000E+00 -0.72159248740E+02  0.72159248740E+02  0.00000000000E+00 0. -1.
         21    1    1    2  503  502 -0.10713120129E+03  0.32072657669E+02 -0.13803005766E+02  0.11267773794E+03  0.00000000000E+00 0. -1.
          2    1    1    2  501    0  0.10713120129E+03 -0.32072657669E+02  0.34162272777E+03  0.35946048154E+03  0.00000000000E+00 0. -1.
<mgrwt>
<rscale>  2 0.11182911E+03</rscale>
<asrwt>0</asrwt>
<pdfrwt beam="2">  1       21 0.11101423E-01 0.11182911E+03</pdfrwt>
<pdfrwt beam="1">  1        2 0.61535225E-01 0.11182911E+03</pdfrwt>
<totfact> 0.66629104E+04</totfact>
</mgrwt>
</event>
<event>
 4    1  0.5006371E+003  0.1171420E+03  0.7546771E-02  0.1247888E+00
          4   -1    0    0  502    0 -0.00000000000E+00  0.00000000000E+00  0.14514049247E+03  0.14514049247E+03  0.00000000000E+00 0.  1.
         21   -1    0    0  503  502  0.00000000000E+00 -0.00000000000E+00 -0.40319552738E+03  0.40319552738E+03  0.00000000000E+00 0. -1.
         21    1    1    2  503  501 -0.11690707490E+03 -0.74144833394E+01 -0.36890681785E+03  0.38705875391E+03  0.00000000000E+00 0. -1.
          4    1    1    2  501    0  0.11690707490E+03  0.74144833394E+01  0.11085178295E+03  0.16127726594E+03  0.00000000000E+00 0.  1.
<mgrwt>
<rscale>  2 0.11714196E+03</rscale>
<asrwt>0</asrwt>
<pdfrwt beam="2">  1       21 0.62030080E-01 0.11714196E+03</pdfrwt>
<pdfrwt beam="1">  1        4 0.22329307E-01 0.11714196E+03</pdfrwt>
<totfact> 0.18459646E+03</totfact>
</mgrwt>
</event>
<event>
 4    1  0.5006371E+003  0.1325264E+03  0.7546771E-02  0.1223754E+00
          2   -1    0    0  502    0 -0.00000000000E+00  0.00000000000E+00  0.15238021488E+04  0.15238021488E+04  0.00000000000E+00 0.  1.
         21   -1    0    0  503  502  0.00000000000E+00 -0.00000000000E+00 -0.30373827718E+02  0.30373827718E+02  0.00000000000E+00 0.  1.
         21    1    1    2  503  501 -0.13250355319E+03 -0.24623688636E+01  0.13457275604E+03  0.18887318903E+03  0.00000000000E+00 0.  1.
          2    1    1    2  501    0  0.13250355319E+03  0.24623688636E+01  0.13588555651E+04  0.13653027875E+04  0.00000000000E+00 0.  1.
<mgrwt>
<rscale>  2 0.13252643E+03</rscale>
<asrwt>0</asrwt>
<pdfrwt beam="2">  1       21 0.46728978E-02 0.13252643E+03</pdfrwt>
<pdfrwt beam="1">  1        2 0.23443104E+00 0.13252643E+03</pdfrwt>
<totfact> 0.51927686E+04</totfact>
</mgrwt>
</event>
<event>
 4    1  0.5006371E+003  0.1277435E+03  0.7546771E-02  0.1230843E+00
          2   -1    0    0  502    0 -0.00000000000E+00  0.00000000000E+00  0.50327189968E+03  0.50327189968E+03  0.00000000000E+00 0. -1.
         21   -1    0    0  503  502  0.00000000000E+00 -0.00000000000E+00 -0.97685709364E+03  0.97685709364E+03  0.00000000000E+00 0. -1.
         21    1    1    2  503  501 -0.99938724864E+02  0.79565390545E+02 -0.96447103872E+03  0.97289402539E+03  0.00000000000E+00 0. -1.
          2    1    1    2  501    0  0.99938724864E+02 -0.79565390545E+02  0.49088584476E+03  0.50723496793E+03  0.00000000000E+00 0. -1.
<mgrwt>
<rscale>  2 0.12774349E+03</rscale>
<asrwt>0</asrwt>
<pdfrwt beam="2">  1       21 0.15028571E+00 0.12774349E+03</pdfrwt>
<pdfrwt beam="1">  1        2 0.77426446E-01 0.12774349E+03</pdfrwt>
<totfact> 0.24480173E+02</totfact>
</mgrwt>
</event>
<event>
 4    1  0.5006371E+003  0.1750719E+03  0.7546771E-02  0.1172660E+00
          2   -1    0    0  503    0 -0.00000000000E+00  0.00000000000E+00  0.32946696782E+04  0.32946696782E+04  0.00000000000E+00 0.  1.
         21   -1    0    0  501  502  0.00000000000E+00 -0.00000000000E+00 -0.60570053222E+02  0.60570053222E+02  0.00000000000E+00 0. -1.
         21    1    1    2  503  502  0.10223485972E+03 -0.14212037239E+03  0.73630440334E+02  0.18992527092E+03  0.00000000000E+00 0. -1.
          2    1    1    2  501    0 -0.10223485972E+03  0.14212037239E+03  0.31604691847E+04  0.31653144605E+04  0.00000000000E+00 0.  1.
<mgrwt>
<rscale>  2 0.17507189E+03</rscale>
<asrwt>0</asrwt>
<pdfrwt beam="2">  1       21 0.93184723E-02 0.17507189E+03</pdfrwt>
<pdfrwt beam="1">  1        2 0.50687212E+00 0.17507189E+03</pdfrwt>
<totfact> 0.16993158E+03</totfact>
</mgrwt>
</event>
<event>
 4    1  0.5006371E+003  0.1019846E+03  0.7546771E-02  0.1276177E+00
         21   -1    0    0  503  502  0.00000000000E+00  0.00000000000E+00  0.13541065196E+02  0.13541065196E+02  0.00000000000E+00 0. -1.
          2   -1    0    0  502    0 -0.00000000000E+00 -0.00000000000E+00 -0.10467798832E+04  0.10467798832E+04  0.00000000000E+00 0.  1.
         21    1    1    2  503  501  0.12085725534E+02 -0.10126592314E+03 -0.24307062615E+03  0.26359852285E+03  0.00000000000E+00 0. -1.
          2    1    1    2  501    0 -0.12085725534E+02  0.10126592314E+03 -0.79016819184E+03  0.79672242553E+03  0.00000000000E+00 0.  1.
<mgrwt>
<rscale>  2 0.10198457E+03</rscale>
<asrwt>0</asrwt>
<pdfrwt beam="1">  1       21 0.20832408E-02 0.10198457E+03</pdfrwt>
<pdfrwt beam="2">  1        2 0.16104306E+00 0.10198457E+03</pdfrwt>
<totfact> 0.35236648E+05</totfact>
</mgrwt>
</event>
<event>
 4    1  0.5006371E+003  0.2019319E+03  0.7546771E-02  0.1148119E+00
          2   -1    0    0  503    0 -0.00000000000E+00  0.00000000000E+00  0.50196124072E+03  0.50196124072E+03  0.00000000000E+00 0.  1.
         21   -1    0    0  501  502  0.00000000000E+00 -0.00000000000E+00 -0.11424767149E+03  0.11424767149E+03  0.00000000000E+00 0.  1.
         21    1    1    2  503  502  0.79899834738E+02  0.18545220941E+03  0.28234498688E+02  0.20389627874E+03  0.00000000000E+00 0.  1.
          2    1    1    2  501    0 -0.79899834738E+02 -0.18545220941E+03  0.35947907054E+03  0.41231263348E+03  0.00000000000E+00 0.  1.
<mgrwt>
<rscale>  2 0.20193193E+03</rscale>
<asrwt>0</asrwt>
<pdfrwt beam="2">  1       21 0.17576565E-01 0.20193193E+03</pdfrwt>
<pdfrwt beam="1">  1        2 0.77224805E-01 0.20193193E+03</pdfrwt>
<totfact> 0.22738772E+04</totfact>
</mgrwt>
</event>
<event>
 4    1  0.5006371E+003  0.1625683E+03  0.7546771E-02  0.1185827E+00
         21   -1    0    0  501  502  0.00000000000E+00  0.00000000000E+00  0.57760542562E+02  0.57760542562E+02  0.00000000000E+00 0.  1.
          2   -1    0    0  503    0 -0.00000000000E+00 -0.00000000000E+00 -0.15590827266E+04  0.15590827266E+04  0.00000000000E+00 0. -1.
         21    1    1    2  503  502 -0.17011560192E+02 -0.16167583261E+03 -0.71142099192E+02  0.17745327923E+03  0.00000000000E+00 0.  1.
          2    1    1    2  501    0  0.17011560192E+02  0.16167583261E+03 -0.14301800848E+04  0.14393899899E+04  0.00000000000E+00 0. -1.
<mgrwt>
<rscale>  2 0.16256835E+03</rscale>
<asrwt>0</asrwt>
<pdfrwt beam="1">  1       21 0.88862359E-02 0.16256835E+03</pdfrwt>
<pdfrwt beam="2">  1        2 0.23985892E+00 0.16256835E+03</pdfrwt>
<totfact> 0.16479228E+04</totfact>
</mgrwt>
</event>
<event>
 4    1  0.5006371E+003  0.1610780E+03  0.7546771E-02  0.1187485E+00
          1   -1    0    0  503    0 -0.00000000000E+00  0.00000000000E+00  0.66254942637E+03  0.66254942637E+03  0.00000000000E+00 0. -1.
         21   -1    0    0  501  502  0.00000000000E+00 -0.00000000000E+00 -0.98435639242E+02  0.98435639242E+02  0.00000000000E+00 0. -1.
         21    1    1    2  503  502  0.63586789371E+02 -0.14799604601E+03 -0.13202927508E+02  0.16161815093E+03  0.00000000000E+00 0. -1.
          1    1    1    2  501    0 -0.63586789371E+02  0.14799604601E+03  0.57731671463E+03  0.59936691468E+03  0.00000000000E+00 0. -1.
<mgrwt>
<rscale>  2 0.16107796E+03</rscale>
<asrwt>0</asrwt>
<pdfrwt beam="2">  1       21 0.15143945E-01 0.16107796E+03</pdfrwt>
<pdfrwt beam="1">  1        1 0.10193068E+00 0.16107796E+03</pdfrwt>
<totfact> 0.13189970E+04</totfact>
</mgrwt>
</event>
<event>
 4    1  0.5006371E+003  0.1167238E+03  0.7546771E-02  0.1248602E+00
         21   -1    0    0  501  502  0.00000000000E+00  0.00000000000E+00  0.56989915152E+02  0.56989915152E+02  0.00000000000E+00 0.  1.
          1   -1    0    0  503    0 -0.00000000000E+00 -0.00000000000E+00 -0.38598618216E+03  0.38598618216E+03  0.00000000000E+00 0.  1.
         21    1    1    2  503  502 -0.11050586723E+03 -0.37588461868E+02 -0.27850264842E+02  0.12000031838E+03  0.00000000000E+00 0.  1.
          1    1    1    2  501    0  0.11050586723E+03  0.37588461868E+02 -0.30114600216E+03  0.32297577893E+03  0.00000000000E+00 0.  1.
<mgrwt>
<rscale>  2 0.11672377E+03</rscale>
<asrwt>0</asrwt>
<pdfrwt beam="1">  1       21 0.87676799E-02 0.11672377E+03</pdfrwt>
<pdfrwt beam="2">  1        1 0.59382485E-01 0.11672377E+03</pdfrwt>
<totfact> 0.70704234E+04</totfact>
</mgrwt>
</event>
<event>
 4    1  0.5006371E+003  0.1660754E+03  0.7546771E-02  0.1182004E+00
         21   -1    0    0  503  502  0.00000000000E+00  0.00000000000E+00  0.43363406634E+03  0.43363406634E+03  0.00000000000E+00 0.  1.
         -1   -1    0    0    0  501 -0.00000000000E+00 -0.00000000000E+00 -0.21284724696E+03  0.21284724696E+03  0.00000000000E+00 0. -1.
         21    1    1    2  503  501 -0.38351155202E+02 -0.16158657432E+03  0.38106254321E+03  0.41567979737E+03  0.00000000000E+00 0.  1.
         -1    1    1    2    0  502  0.38351155202E+02  0.16158657432E+03 -0.16027572382E+03  0.23080151593E+03  0.00000000000E+00 0. -1.
<mgrwt>
<rscale>  2 0.16607538E+03</rscale>
<asrwt>0</asrwt>
<pdfrwt beam="1">  1       21 0.66712933E-01 0.16607538E+03</pdfrwt>
<pdfrwt beam="2">  1       -1 0.32745730E-01 0.16607538E+03</pdfrwt>
<totfact> 0.16736391E+03</totfact>
</mgrwt>
</event>
<event>
 4    1  0.5006371E+003  0.1087469E+03  0.7546771E-02  0.1262908E+00
         21   -1    0    0  501  502  0.00000000000E+00  0.00000000000E+00  0.22096162945E+02  0.22096162945E+02  0.00000000000E+00 0. -1.
          2   -1    0    0  503    0 -0.00000000000E+00 -0.00000000000E+00 -0.13340970531E+04  0.13340970531E+04  0.00000000000E+00 0. -1.
         21    1    1    2  503  502  0.10373775464E+03  0.32624701372E+02 -0.13126192815E+03  0.17045699357E+03  0.00000000000E+00 0. -1.
          2    1    1    2  501    0 -0.10373775464E+03 -0.32624701372E+02 -0.11807389620E+04  0.11857362225E+04  0.00000000000E+00 0. -1.
<mgrwt>
<rscale>  2 0.10874692E+03</rscale>
<asrwt>0</asrwt>
<pdfrwt beam="1">  1       21 0.33994080E-02 0.10874692E+03</pdfrwt>
<pdfrwt beam="2">  1        2 0.20524580E+00 0.10874692E+03</pdfrwt>
<totfact> 0.11075048E+05</totfact>
</mgrwt>
</event>
<event>
 4    1  0.5006371E+003  0.1453412E+03  0.7546771E-02  0.1206317E+00
         21   -1    0    0  501  502  0.00000000000E+00  0.00000000000E+00  0.23608581757E+02  0.23608581757E+02  0.00000000000E+00 0.  1.
          1   -1    0    0  503    0 -0.00000000000E+00 -0.00000000000E+00 -0.21402538672E+04  0.21402538672E+04  0.00000000000E+00 0.  1.
         21    1    1    2  503  502  0.85644050775E+02 -0.11742724279E+03 -0.23297395480E+03  0.27459228758E+03  0.00000000000E+00 0.  1.
          1    1    1    2  501    0 -0.85644050775E+02  0.11742724279E+03 -0.18836713306E+04  0.18892701613E+04  0.00000000000E+00 0.  1.
<mgrwt>
<rscale>  2 0.14534119E+03</rscale>
<asrwt>0</asrwt>
<pdfrwt beam="1">  1       21 0.36320879E-02 0.14534119E+03</pdfrwt>
<pdfrwt beam="2">  1        1 0.32926997E+00 0.14534119E+03</pdfrwt>
<totfact> 0.14700590E+04</totfact>
</mgrwt>
</event>
<event>
 4    1  0.5006371E+003  0.3402701E+03  0.7546771E-02  0.1066681E+00
          2   -1    0    0  503    0 -0.00000000000E+00  0.00000000000E+00  0.16396035617E+04  0.16396035617E+04  0.00000000000E+00 0. -1.
         21   -1    0    0  501  502  0.00000000000E+00 -0.00000000000E+00 -0.14815353940E+03  0.14815353940E+03  0.00000000000E+00 0. -1.
         21    1    1    2  503  502  0.23037713091E+03 -0.25041995079E+03  0.99065162768E+02  0.35439763074E+03  0.00000000000E+00 0. -1.
          2    1    1    2  501    0 -0.23037713091E+03  0.25041995079E+03  0.13923848595E+04  0.14333594703E+04  0.00000000000E+00 0. -1.
<mgrwt>
<rscale>  2 0.34027015E+03</rscale>
<asrwt>0</asrwt>
<pdfrwt beam="2">  1       21 0.22792853E-01 0.34027015E+03</pdfrwt>
<pdfrwt beam="1">  1        2 0.25224669E+00 0.34027015E+03</pdfrwt>
<totfact> 0.25163208E+03</totfact>
</mgrwt>
</event>
<event>
 4    1  0.5006371E+003  0.1224660E+03  0.7546771E-02  0.1239083E+00
         21   -1    0    0  503  502  0.00000000000E+00  0.00000000000E+00  0.10199981237E+03  0.10199981237E+03  0.00000000000E+00 0. -1.
          1   -1    0    0  502    0 -0.00000000000E+00 -0.00000000000E+00 -0.37148686425E+04  0.37148686425E+04  0.00000000000E+00 0.  1.
         21    1    1    2  503  501  0.12143692020E+03  0.15842829154E+02  0.63849498336E+02  0.13811111201E+03  0.00000000000E+00 0. -1.
          1    1    1    2  501    0 -0.12143692020E+03 -0.15842829154E+02 -0.36767183284E+04  0.36787573428E+04  0.00000000000E+00 0.  1.
<mgrwt>
<rscale>  2 0.12246600E+03</rscale>
<asrwt>0</asrwt>
<pdfrwt beam="1">  1       21 0.15692276E-01 0.12246600E+03</pdfrwt>
<pdfrwt beam="2">  1        1 0.57151836E+00 0.12246600E+03</pdfrwt>
<totfact> 0.99078825E+01</totfact>
</mgrwt>
</event>
<event>
 4    1  0.5006371E+003  0.1016754E+03  0.7546771E-02  0.1276812E+00
         21   -1    0    0  501  502  0.00000000000E+00  0.00000000000E+00  0.11246151290E+04  0.11246151290E+04  0.00000000000E+00 0.  1.
          2   -1    0    0  503    0 -0.00000000000E+00 -0.00000000000E+00 -0.11255708770E+02  0.11255708770E+02  0.00000000000E+00 0.  1.
         21    1    1    2  503  502  0.10115387884E+03 -0.10284666625E+02  0.79984271421E+03  0.80627926244E+03  0.00000000000E+00 0.  1.
          2    1    1    2  501    0 -0.10115387884E+03  0.10284666625E+02  0.31351670601E+03  0.32959157531E+03  0.00000000000E+00 0.  1.
<mgrwt>
<rscale>  2 0.10167537E+03</rscale>
<asrwt>0</asrwt>
<pdfrwt beam="1">  1       21 0.17301762E+00 0.10167537E+03</pdfrwt>
<pdfrwt beam="2">  1        2 0.17316484E-02 0.10167537E+03</pdfrwt>
<totfact> 0.16428466E+04</totfact>
</mgrwt>
</event>
<event>
 4    1  0.5006371E+003  0.1189727E+03  0.7546771E-02  0.1244801E+00
          2   -1    0    0  502    0 -0.00000000000E+00  0.00000000000E+00  0.12008267674E+03  0.12008267674E+03  0.00000000000E+00 0.  1.
         21   -1    0    0  503  502  0.00000000000E+00 -0.00000000000E+00 -0.15105492044E+03  0.15105492044E+03  0.00000000000E+00 0.  1.
         21    1    1    2  503  501 -0.79573136594E+01  0.11870633463E+03 -0.79025457030E+02  0.14282694277E+03  0.00000000000E+00 0.  1.
          2    1    1    2  501    0  0.79573136594E+01 -0.11870633463E+03  0.48053213332E+02  0.12831065441E+03  0.00000000000E+00 0.  1.
<mgrwt>
<rscale>  2 0.11897274E+03</rscale>
<asrwt>0</asrwt>
<pdfrwt beam="2">  1       21 0.23239218E-01 0.11897274E+03</pdfrwt>
<pdfrwt beam="1">  1        2 0.18474258E-01 0.11897274E+03</pdfrwt>
<totfact> 0.64152297E+04</totfact>
</mgrwt>
</event>
<event>
 4    1  0.5006371E+003  0.2116085E+03  0.7546771E-02  0.1140299E+00
         21   -1    0    0  501  502  0.00000000000E+00  0.00000000000E+00  0.49104362003E+02  0.49104362003E+02  0.00000000000E+00 0. -1.
          2   -1    0    0  503    0 -0.00000000000E+00 -0.00000000000E+00 -0.10400379280E+04  0.10400379280E+04  0.00000000000E+00 0.  1.
         21    1    1    2  503  502 -0.78412130188E+02 -0.19654436801E+03 -0.30431739059E+03  0.37065782734E+03  0.00000000000E+00 0. -1.
          2    1    1    2  501    0  0.78412130188E+02  0.19654436801E+03 -0.68661617545E+03  0.71848446270E+03  0.00000000000E+00 0.  1.
<mgrwt>
<rscale>  2 0.21160848E+03</rscale>
<asrwt>0</asrwt>
<pdfrwt beam="1">  1       21 0.75545180E-02 0.21160848E+03</pdfrwt>
<pdfrwt beam="2">  1        2 0.16000582E+00 0.21160848E+03</pdfrwt>
<totfact> 0.41759139E+04</totfact>
</mgrwt>
</event>
<event>
 4    1  0.5006371E+003  0.1614309E+03  0.7546771E-02  0.1187091E+00
          2   -1    0    0  503    0 -0.00000000000E+00  0.00000000000E+00  0.19276914224E+04  0.19276914224E+04  0.00000000000E+00 0. -1.
         21   -1    0    0  501  502  0.00000000000E+00 -0.00000000000E+00 -0.13332773553E+03  0.13332773553E+03  0.00000000000E+00 0. -1.
         21    1    1    2  503  502 -0.79288757404E+01 -0.16123603604E+03 -0.79687601911E+02  0.18002788752E+03  0.00000000000E+00 0. -1.
          2    1    1    2  501    0  0.79288757404E+01  0.16123603604E+03  0.18740512888E+04  0.18809912704E+04  0.00000000000E+00 0. -1.
<mgrwt>
<rscale>  2 0.16143087E+03</rscale>
<asrwt>0</asrwt>
<pdfrwt beam="2">  1       21 0.20511961E-01 0.16143087E+03</pdfrwt>
<pdfrwt beam="1">  1        2 0.29656789E+00 0.16143087E+03</pdfrwt>
<totfact> 0.23598194E+03</totfact>
</mgrwt>
</event>
<event>
 4    1  0.5006371E+003  0.1084421E+03  0.7546771E-02  0.1263482E+00
         21   -1    0    0  501  502  0.00000000000E+00  0.00000000000E+00  0.97759896278E+02  0.97759896278E+02  0.00000000000E+00 0. -1.
          2   -1    0    0  503    0 -0.00000000000E+00 -0.00000000000E+00 -0.31289791846E+03  0.31289791846E+03  0.00000000000E+00 0.  1.
         21    1    1    2  503  502  0.10703723821E+03  0.17398502006E+02  0.53526785932E+02  0.12093301885E+03  0.00000000000E+00 0. -1.
          2    1    1    2  501    0 -0.10703723821E+03 -0.17398502006E+02 -0.26866480812E+03  0.28972479589E+03  0.00000000000E+00 0.  1.
<mgrwt>
<rscale>  2 0.10844205E+03</rscale>
<asrwt>0</asrwt>
<pdfrwt beam="1">  1       21 0.15039984E-01 0.10844205E+03</pdfrwt>
<pdfrwt beam="2">  1        2 0.48138141E-01 0.10844205E+03</pdfrwt>
<totfact> 0.50342824E+04</totfact>
</mgrwt>
</event>
<event>
 4    1  0.5006371E+003  0.1603979E+03  0.7546771E-02  0.1188248E+00
          2   -1    0    0  503    0 -0.00000000000E+00  0.00000000000E+00  0.69744546840E+03  0.69744546840E+03  0.00000000000E+00 0. -1.
         21   -1    0    0  501  502  0.00000000000E+00 -0.00000000000E+00 -0.54185326571E+02  0.54185326571E+02  0.00000000000E+00 0.  1.
         21    1    1    2  503  502  0.11940992136E+03 -0.10709230623E+03  0.10929535688E+03  0.19409525087E+03  0.00000000000E+00 0.  1.
          2    1    1    2  501    0 -0.11940992136E+03  0.10709230623E+03  0.53396478494E+03  0.55753554410E+03  0.00000000000E+00 0. -1.
<mgrwt>
<rscale>  2 0.16039792E+03</rscale>
<asrwt>0</asrwt>
<pdfrwt beam="2">  1       21 0.83362046E-02 0.16039792E+03</pdfrwt>
<pdfrwt beam="1">  1        2 0.10729930E+00 0.16039792E+03</pdfrwt>
<totfact> 0.59403851E+04</totfact>
</mgrwt>
</event>
<event>
 4    1  0.5006371E+003  0.1168976E+03  0.7546771E-02  0.1248305E+00
         21   -1    0    0  501  502  0.00000000000E+00  0.00000000000E+00  0.13433135298E+02  0.13433135298E+02  0.00000000000E+00 0.  1.
          2   -1    0    0  503    0 -0.00000000000E+00 -0.00000000000E+00 -0.15931540135E+04  0.15931540135E+04  0.00000000000E+00 0.  1.
         21    1    1    2  503  502  0.10369156035E+03  0.53973144586E+02 -0.30689581168E+03  0.32840535814E+03  0.00000000000E+00 0.  1.
          2    1    1    2  501    0 -0.10369156035E+03 -0.53973144586E+02 -0.12728250665E+04  0.12781817907E+04  0.00000000000E+00 0.  1.
<mgrwt>
<rscale>  2 0.11689756E+03</rscale>
<asrwt>0</asrwt>
<pdfrwt beam="1">  1       21 0.20666360E-02 0.11689756E+03</pdfrwt>
<pdfrwt beam="2">  1        2 0.24510064E+00 0.11689756E+03</pdfrwt>
<totfact> 0.18264222E+05</totfact>
</mgrwt>
</event>
<event>
 4    1  0.5006371E+003  0.3597342E+03  0.7546771E-02  0.1058689E+00
         21   -1    0    0  503  502  0.00000000000E+00  0.00000000000E+00  0.10374444857E+04  0.10374444857E+04  0.00000000000E+00 0. -1.
          2   -1    0    0  502    0 -0.00000000000E+00 -0.00000000000E+00 -0.23346822965E+04  0.23346822965E+04  0.00000000000E+00 0. -1.
         21    1    1    2  503  501  0.35921836103E+03 -0.19257679405E+02  0.99178454108E+03  0.10550096042E+04  0.00000000000E+00 0. -1.
          2    1    1    2  501    0 -0.35921836103E+03  0.19257679405E+02 -0.22890223519E+04  0.23171171780E+04  0.00000000000E+00 0. -1.
<mgrwt>
<rscale>  2 0.35973419E+03</rscale>
<asrwt>0</asrwt>
<pdfrwt beam="1">  1       21 0.15960685E+00 0.35973419E+03</pdfrwt>
<pdfrwt beam="2">  1        2 0.35918188E+00 0.35973419E+03</pdfrwt>
<totfact> 0.13879127E+01</totfact>
</mgrwt>
</event>
<event>
 4    1  0.5006371E+003  0.1708241E+03  0.7546771E-02  0.1176991E+00
          2   -1    0    0  503    0 -0.00000000000E+00  0.00000000000E+00  0.55931398512E+03  0.55931398512E+03  0.00000000000E+00 0.  1.
         21   -1    0    0  501  502  0.00000000000E+00 -0.00000000000E+00 -0.11515788005E+03  0.11515788005E+03  0.00000000000E+00 0.  1.
         21    1    1    2  503  502  0.14362877711E+02  0.17021924464E+03 -0.27327678699E+02  0.17299620090E+03  0.00000000000E+00 0.  1.
          2    1    1    2  501    0 -0.14362877711E+02 -0.17021924464E+03  0.47148378377E+03  0.50147566428E+03  0.00000000000E+00 0.  1.
<mgrwt>
<rscale>  2 0.17082413E+03</rscale>
<asrwt>0</asrwt>
<pdfrwt beam="2">  1       21 0.17716597E-01 0.17082413E+03</pdfrwt>
<pdfrwt beam="1">  1        2 0.86048303E-01 0.17082413E+03</pdfrwt>
<totfact> 0.19938453E+04</totfact>
</mgrwt>
</event>
<event>
 4    1  0.5006371E+003  0.1110933E+03  0.7546771E-02  0.1258559E+00
          1   -1    0    0  502    0 -0.00000000000E+00  0.00000000000E+00  0.20255127943E+04  0.20255127943E+04  0.00000000000E+00 0. -1.
         21   -1    0    0  503  502  0.00000000000E+00 -0.00000000000E+00 -0.98848189359E+01  0.98848189359E+01  0.00000000000E+00 0. -1.
         21    1    1    2  503  501 -0.36998782871E+02  0.10475121118E+03  0.37750880574E+03  0.39351572343E+03  0.00000000000E+00 0. -1.
          1    1    1    2  501    0  0.36998782871E+02 -0.10475121118E+03  0.16381191697E+04  0.16418818898E+04  0.00000000000E+00 0. -1.
<mgrwt>
<rscale>  2 0.11109332E+03</rscale>
<asrwt>0</asrwt>
<pdfrwt beam="2">  1       21 0.15207430E-02 0.11109332E+03</pdfrwt>
<pdfrwt beam="1">  1        1 0.31161702E+00 0.11109332E+03</pdfrwt>
<totfact> 0.72158272E+04</totfact>
</mgrwt>
</event>
<event>
 4    1  0.5006371E+003  0.1248073E+03  0.7546771E-02  0.1235371E+00
          1   -1    0    0  502    0 -0.00000000000E+00  0.00000000000E+00  0.43415520577E+03  0.43415520577E+03  0.00000000000E+00 0. -1.
         21   -1    0    0  503  502  0.00000000000E+00 -0.00000000000E+00 -0.41358777188E+02  0.41358777188E+02  0.00000000000E+00 0.  1.
         21    1    1    2  503  501  0.11089361169E+03 -0.57266738533E+02  0.10985210901E+03  0.16626592649E+03  0.00000000000E+00 0.  1.
          1    1    1    2  501    0 -0.11089361169E+03  0.57266738533E+02  0.28294431957E+03  0.30924805647E+03  0.00000000000E+00 0. -1.
<mgrwt>
<rscale>  2 0.12480734E+03</rscale>
<asrwt>0</asrwt>
<pdfrwt beam="2">  1       21 0.63628891E-02 0.12480734E+03</pdfrwt>
<pdfrwt beam="1">  1        1 0.66793105E-01 0.12480734E+03</pdfrwt>
<totfact> 0.10584145E+05</totfact>
</mgrwt>
</event>
<event>
 4    1  0.5006371E+003  0.1080436E+03  0.7546771E-02  0.1264236E+00
         21   -1    0    0  501  502  0.00000000000E+00  0.00000000000E+00  0.37160449300E+03  0.37160449300E+03  0.00000000000E+00 0. -1.
          2   -1    0    0  503    0 -0.00000000000E+00 -0.00000000000E+00 -0.22995342654E+04  0.22995342654E+04  0.00000000000E+00 0. -1.
         21    1    1    2  503  502 -0.48697414770E+02 -0.96446788881E+02  0.36245062516E+03  0.37821141835E+03  0.00000000000E+00 0. -1.
          2    1    1    2  501    0  0.48697414770E+02  0.96446788881E+02 -0.22903803975E+04  0.22929273400E+04  0.00000000000E+00 0. -1.
<mgrwt>
<rscale>  2 0.10804361E+03</rscale>
<asrwt>0</asrwt>
<pdfrwt beam="1">  1       21 0.57169922E-01 0.10804361E+03</pdfrwt>
<pdfrwt beam="2">  1        2 0.35377450E+00 0.10804361E+03</pdfrwt>
<totfact> 0.21422634E+02</totfact>
</mgrwt>
</event>
<event>
 4    1  0.5006371E+003  0.1152359E+03  0.7546771E-02  0.1251170E+00
         21   -1    0    0  501  502  0.00000000000E+00  0.00000000000E+00  0.33019386900E+02  0.33019386900E+02  0.00000000000E+00 0.  1.
          2   -1    0    0  503    0 -0.00000000000E+00 -0.00000000000E+00 -0.98424226301E+03  0.98424226301E+03  0.00000000000E+00 0.  1.
         21    1    1    2  503  502 -0.10935310732E+03  0.36348586806E+02 -0.84463464774E+02  0.14287546579E+03  0.00000000000E+00 0.  1.
          2    1    1    2  501    0  0.10935310732E+03 -0.36348586806E+02 -0.86675941133E+03  0.87438618412E+03  0.00000000000E+00 0.  1.
<mgrwt>
<rscale>  2 0.11523594E+03</rscale>
<asrwt>0</asrwt>
<pdfrwt beam="1">  1       21 0.50799068E-02 0.11523594E+03</pdfrwt>
<pdfrwt beam="2">  1        2 0.15142185E+00 0.11523594E+03</pdfrwt>
<totfact> 0.89225907E+04</totfact>
</mgrwt>
</event>
<event>
 4    1  0.5006371E+003  0.1512325E+03  0.7546771E-02  0.1198967E+00
         21   -1    0    0  503  502  0.00000000000E+00  0.00000000000E+00  0.25101066431E+02  0.25101066431E+02  0.00000000000E+00 0. -1.
         -1   -1    0    0    0  501 -0.00000000000E+00 -0.00000000000E+00 -0.91260514060E+03  0.91260514060E+03  0.00000000000E+00 0. -1.
         21    1    1    2  503  501  0.46982889450E+02 -0.14374939001E+03 -0.42514394038E+03  0.45124123158E+03  0.00000000000E+00 0. -1.
         -1    1    1    2    0  502 -0.46982889450E+02  0.14374939001E+03 -0.46236013379E+03  0.48646497546E+03  0.00000000000E+00 0. -1.
<mgrwt>
<rscale>  2 0.15123253E+03</rscale>
<asrwt>0</asrwt>
<pdfrwt beam="1">  1       21 0.38617032E-02 0.15123253E+03</pdfrwt>
<pdfrwt beam="2">  1       -1 0.14040077E+00 0.15123253E+03</pdfrwt>
<totfact> 0.17647201E+04</totfact>
</mgrwt>
</event>
<event>
 4    1  0.5006371E+003  0.1406130E+03  0.7546771E-02  0.1212507E+00
         -2   -1    0    0    0  501 -0.00000000000E+00  0.00000000000E+00  0.23630557192E+03  0.23630557192E+03  0.00000000000E+00 0. -1.
         21   -1    0    0  503  502  0.00000000000E+00 -0.00000000000E+00 -0.17535044966E+03  0.17535044966E+03  0.00000000000E+00 0. -1.
         21    1    1    2  503  501  0.11466575509E+02  0.14014464859E+03 -0.11835097775E+03  0.18379052972E+03  0.00000000000E+00 0. -1.
         -2    1    1    2    0  502 -0.11466575509E+02 -0.14014464859E+03  0.17930610000E+03  0.22786549186E+03  0.00000000000E+00 0. -1.
<mgrwt>
<rscale>  2 0.14061296E+03</rscale>
<asrwt>0</asrwt>
<pdfrwt beam="2">  1       21 0.26976992E-01 0.14061296E+03</pdfrwt>
<pdfrwt beam="1">  1       -2 0.36354703E-01 0.14061296E+03</pdfrwt>
<totfact> 0.75782233E+03</totfact>
</mgrwt>
</event>
<event>
 4    1  0.5006371E+003  0.1205557E+03  0.7546771E-02  0.1242183E+00
         21   -1    0    0  503  502  0.00000000000E+00  0.00000000000E+00  0.76992780626E+02  0.76992780626E+02  0.00000000000E+00 0. -1.
         -2   -1    0    0    0  501 -0.00000000000E+00 -0.00000000000E+00 -0.28724895007E+03  0.28724895007E+03  0.00000000000E+00 0.  1.
         21    1    1    2  503  501  0.89624343871E+02  0.80629735592E+02  0.15092649052E+01  0.12056514901E+03  0.00000000000E+00 0. -1.
         -2    1    1    2    0  502 -0.89624343871E+02 -0.80629735592E+02 -0.21176543435E+03  0.24367658169E+03  0.00000000000E+00 0.  1.
<mgrwt>
<rscale>  2 0.12055570E+03</rscale>
<asrwt>0</asrwt>
<pdfrwt beam="1">  1       21 0.11845043E-01 0.12055570E+03</pdfrwt>
<pdfrwt beam="2">  1       -2 0.44192146E-01 0.12055570E+03</pdfrwt>
<totfact> 0.23645187E+04</totfact>
</mgrwt>
</event>
<event>
 4    1  0.5006371E+003  0.1016514E+03  0.7546771E-02  0.1276861E+00
         21   -1    0    0  503  502  0.00000000000E+00  0.00000000000E+00  0.17320625784E+02  0.17320625784E+02  0.00000000000E+00 0. -1.
          2   -1    0    0  502    0 -0.00000000000E+00 -0.00000000000E+00 -0.13300076337E+04  0.13300076337E+04  0.00000000000E+00 0. -1.
         21    1    1    2  503  501  0.66133365970E+02  0.77196999324E+02 -0.15608165221E+03  0.18626454562E+03  0.00000000000E+00 0. -1.
          2    1    1    2  501    0 -0.66133365970E+02 -0.77196999324E+02 -0.11566053557E+04  0.11610637138E+04  0.00000000000E+00 0. -1.
<mgrwt>
<rscale>  2 0.10165136E+03</rscale>
<asrwt>0</asrwt>
<pdfrwt beam="1">  1       21 0.26647117E-02 0.10165136E+03</pdfrwt>
<pdfrwt beam="2">  1        2 0.20461656E+00 0.10165136E+03</pdfrwt>
<totfact> 0.16545832E+05</totfact>
</mgrwt>
</event>
<event>
 4    1  0.5006371E+003  0.1034616E+03  0.7546771E-02  0.1273181E+00
          2   -1    0    0  502    0 -0.00000000000E+00  0.00000000000E+00  0.11963882216E+04  0.11963882216E+04  0.00000000000E+00 0.  1.
         21   -1    0    0  503  502  0.00000000000E+00 -0.00000000000E+00 -0.43862259068E+02  0.43862259068E+02  0.00000000000E+00 0.  1.
         21    1    1    2  503  501  0.53208099485E+02  0.88731097922E+02  0.22988831319E+02  0.10598488550E+03  0.00000000000E+00 0.  1.
          2    1    1    2  501    0 -0.53208099485E+02 -0.88731097922E+02  0.11295371312E+04  0.11342655952E+04  0.00000000000E+00 0.  1.
<mgrwt>
<rscale>  2 0.10346163E+03</rscale>
<asrwt>0</asrwt>
<pdfrwt beam="2">  1       21 0.67480408E-02 0.10346163E+03</pdfrwt>
<pdfrwt beam="1">  1        2 0.18405970E+00 0.10346163E+03</pdfrwt>
<totfact> 0.41843607E+04</totfact>
</mgrwt>
</event>
<event>
 4    1  0.5006371E+003  0.1348750E+03  0.7546771E-02  0.1220396E+00
         21   -1    0    0  501  502  0.00000000000E+00  0.00000000000E+00  0.45491875998E+03  0.45491875998E+03  0.00000000000E+00 0. -1.
          2   -1    0    0  503    0 -0.00000000000E+00 -0.00000000000E+00 -0.45182475164E+02  0.45182475164E+02  0.00000000000E+00 0.  1.
         21    1    1    2  503  502 -0.62356539326E+02 -0.11959489124E+03  0.28965239019E+03  0.31951491851E+03  0.00000000000E+00 0. -1.
          2    1    1    2  501    0  0.62356539326E+02  0.11959489124E+03  0.12008389462E+03  0.18058631663E+03  0.00000000000E+00 0.  1.
<mgrwt>
<rscale>  2 0.13487504E+03</rscale>
<asrwt>0</asrwt>
<pdfrwt beam="1">  1       21 0.69987498E-01 0.13487504E+03</pdfrwt>
<pdfrwt beam="2">  1        2 0.69511504E-02 0.13487504E+03</pdfrwt>
<totfact> 0.22807925E+04</totfact>
</mgrwt>
</event>
<event>
 4    1  0.5006371E+003  0.1040823E+03  0.7546771E-02  0.1271938E+00
          2   -1    0    0  502    0 -0.00000000000E+00  0.00000000000E+00  0.11118468535E+03  0.11118468535E+03  0.00000000000E+00 0.  1.
         21   -1    0    0  503  502  0.00000000000E+00 -0.00000000000E+00 -0.71522814224E+03  0.71522814224E+03  0.00000000000E+00 0. -1.
         21    1    1    2  503  501  0.86248044207E+02 -0.58261506583E+02 -0.68605316550E+03  0.69390350495E+03  0.00000000000E+00 0. -1.
          2    1    1    2  501    0 -0.86248044207E+02  0.58261506583E+02  0.82009708617E+02  0.13250932264E+03  0.00000000000E+00 0.  1.
<mgrwt>
<rscale>  2 0.10408231E+03</rscale>
<asrwt>0</asrwt>
<pdfrwt beam="2">  1       21 0.11003510E+00 0.10408231E+03</pdfrwt>
<pdfrwt beam="1">  1        2 0.17105336E-01 0.10408231E+03</pdfrwt>
<totfact> 0.27681139E+03</totfact>
</mgrwt>
</event>
<event>
 4    1  0.5006371E+003  0.1245752E+03  0.7546771E-02  0.1235735E+00
          1   -1    0    0  502    0 -0.00000000000E+00  0.00000000000E+00  0.19816856136E+02  0.19816856136E+02  0.00000000000E+00 0. -1.
         21   -1    0    0  503  502  0.00000000000E+00 -0.00000000000E+00 -0.12761329462E+04  0.12761329462E+04  0.00000000000E+00 0. -1.
         21    1    1    2  503  501 -0.71032556790E+02 -0.10233943882E+03 -0.10309114279E+04  0.10384109769E+04  0.00000000000E+00 0. -1.
          1    1    1    2  501    0  0.71032556790E+02  0.10233943882E+03 -0.22540466220E+03  0.25753882543E+03  0.00000000000E+00 0. -1.
<mgrwt>
<rscale>  2 0.12457522E+03</rscale>
<asrwt>0</asrwt>
<pdfrwt beam="2">  1       21 0.19632818E+00 0.12457522E+03</pdfrwt>
<pdfrwt beam="1">  1        1 0.30487466E-02 0.12457522E+03</pdfrwt>
<totfact> 0.50910138E+03</totfact>
</mgrwt>
</event>
<event>
 4    1  0.5006371E+003  0.1037338E+03  0.7546771E-02  0.1272635E+00
         -2   -1    0    0    0  501 -0.00000000000E+00  0.00000000000E+00  0.97353436706E+02  0.97353436706E+02  0.00000000000E+00 0. -1.
         21   -1    0    0  501  502  0.00000000000E+00 -0.00000000000E+00 -0.12002345607E+03  0.12002345607E+03  0.00000000000E+00 0.  1.
         21    1    1    2  503  502 -0.23907262304E+02 -0.10094131661E+03 -0.41898866365E+02  0.11187592052E+03  0.00000000000E+00 0.  1.
         -2    1    1    2    0  503  0.23907262304E+02  0.10094131661E+03  0.19228846997E+02  0.10550097226E+03  0.00000000000E+00 0. -1.
<mgrwt>
<rscale>  2 0.10373383E+03</rscale>
<asrwt>0</asrwt>
<pdfrwt beam="2">  1       21 0.18465147E-01 0.10373383E+03</pdfrwt>
<pdfrwt beam="1">  1       -2 0.14977452E-01 0.10373383E+03</pdfrwt>
<totfact> 0.70827489E+04</totfact>
</mgrwt>
</event>
<event>
 4    1  0.5006371E+003  0.1108040E+03  0.7546771E-02  0.1259088E+00
         21   -1    0    0  501  502  0.00000000000E+00  0.00000000000E+00  0.67609456216E+03  0.67609456216E+03  0.00000000000E+00 0. -1.
          2   -1    0    0  503    0 -0.00000000000E+00 -0.00000000000E+00 -0.22409896385E+02  0.22409896385E+02  0.00000000000E+00 0. -1.
         21    1    1    2  503  502  0.25267789008E+02 -0.10788447547E+03  0.47894447802E+03  0.49159468492E+03  0.00000000000E+00 0. -1.
          2    1    1    2  501    0 -0.25267789008E+02  0.10788447547E+03  0.17474018775E+03  0.20690977363E+03  0.00000000000E+00 0. -1.
<mgrwt>
<rscale>  2 0.11080398E+03</rscale>
<asrwt>0</asrwt>
<pdfrwt beam="1">  1       21 0.10401453E+00 0.11080398E+03</pdfrwt>
<pdfrwt beam="2">  1        2 0.34476769E-02 0.11080398E+03</pdfrwt>
<totfact> 0.23199190E+04</totfact>
</mgrwt>
</event>
<event>
 4    1  0.5006371E+003  0.1063363E+03  0.7546771E-02  0.1267509E+00
         21   -1    0    0  503  502  0.00000000000E+00  0.00000000000E+00  0.63974825438E+02  0.63974825438E+02  0.00000000000E+00 0.  1.
          1   -1    0    0  502    0 -0.00000000000E+00 -0.00000000000E+00 -0.97392874872E+03  0.97392874872E+03  0.00000000000E+00 0. -1.
         21    1    1    2  503  501 -0.10517712765E+03 -0.15658116102E+02  0.14529847780E+02  0.10732437401E+03  0.00000000000E+00 0.  1.
          1    1    1    2  501    0  0.10517712765E+03  0.15658116102E+02 -0.92448377106E+03  0.93057920014E+03  0.00000000000E+00 0. -1.
<mgrwt>
<rscale>  2 0.10633628E+03</rscale>
<asrwt>0</asrwt>
<pdfrwt beam="1">  1       21 0.98422810E-02 0.10633628E+03</pdfrwt>
<pdfrwt beam="2">  1        1 0.14983519E+00 0.10633628E+03</pdfrwt>
<totfact> 0.16014103E+04</totfact>
</mgrwt>
</event>
<event>
 4    1  0.5006371E+003  0.1067758E+03  0.7546771E-02  0.1266660E+00
         21   -1    0    0  501  502  0.00000000000E+00  0.00000000000E+00  0.36827033411E+03  0.36827033411E+03  0.00000000000E+00 0.  1.
          4   -1    0    0  503    0 -0.00000000000E+00 -0.00000000000E+00 -0.41487998530E+02  0.41487998530E+02  0.00000000000E+00 0. -1.
         21    1    1    2  503  502  0.50298405385E+02  0.94186709780E+02  0.26660600944E+03  0.28719301898E+03  0.00000000000E+00 0.  1.
          4    1    1    2  501    0 -0.50298405385E+02 -0.94186709780E+02  0.60176326139E+02  0.12256531365E+03  0.00000000000E+00 0. -1.
<mgrwt>
<rscale>  2 0.10677577E+03</rscale>
<asrwt>0</asrwt>
<pdfrwt beam="1">  1       21 0.56656972E-01 0.10677577E+03</pdfrwt>
<pdfrwt beam="2">  1        4 0.63827692E-02 0.10677577E+03</pdfrwt>
<totfact> 0.18863087E+04</totfact>
</mgrwt>
</event>
<event>
 4    1  0.5006371E+003  0.1167675E+03  0.7546771E-02  0.1248527E+00
          2   -1    0    0  502    0 -0.00000000000E+00  0.00000000000E+00  0.15796839728E+04  0.15796839728E+04  0.00000000000E+00 0.  1.
         21   -1    0    0  503  502  0.00000000000E+00 -0.00000000000E+00 -0.86583519356E+01  0.86583519356E+01  0.00000000000E+00 0.  1.
         21    1    1    2  503  501 -0.11628841717E+03  0.10566510558E+02  0.82994498222E+03  0.83811891795E+03  0.00000000000E+00 0.  1.
          2    1    1    2  501    0  0.11628841717E+03 -0.10566510558E+02  0.74108063860E+03  0.75022340674E+03  0.00000000000E+00 0.  1.
<mgrwt>
<rscale>  2 0.11676749E+03</rscale>
<asrwt>0</asrwt>
<pdfrwt beam="2">  1       21 0.13320554E-02 0.11676749E+03</pdfrwt>
<pdfrwt beam="1">  1        2 0.24302807E+00 0.11676749E+03</pdfrwt>
<totfact> 0.37454266E+05</totfact>
</mgrwt>
</event>
<event>
 4    1  0.5006371E+003  0.1208336E+03  0.7546771E-02  0.1241728E+00
         21   -1    0    0  503  502  0.00000000000E+00  0.00000000000E+00  0.45361115053E+03  0.45361115053E+03  0.00000000000E+00 0. -1.
         -3   -1    0    0    0  501 -0.00000000000E+00 -0.00000000000E+00 -0.35929906414E+03  0.35929906414E+03  0.00000000000E+00 0. -1.
         21    1    1    2  503  501  0.84839879801E+02  0.86040425951E+02  0.43497788957E+03  0.45144935986E+03  0.00000000000E+00 0. -1.
         -3    1    1    2    0  502 -0.84839879801E+02 -0.86040425951E+02 -0.34066580318E+03  0.36146085481E+03  0.00000000000E+00 0. -1.
<mgrwt>
<rscale>  2 0.12083361E+03</rscale>
<asrwt>0</asrwt>
<pdfrwt beam="1">  1       21 0.69786331E-01 0.12083361E+03</pdfrwt>
<pdfrwt beam="2">  1       -3 0.55276779E-01 0.12083361E+03</pdfrwt>
<totfact> 0.30557428E+02</totfact>
</mgrwt>
</event>
<event>
 4    1  0.5006371E+003  0.1006492E+03  0.7546771E-02  0.1278937E+00
          2   -1    0    0  503    0 -0.00000000000E+00  0.00000000000E+00  0.38610748958E+03  0.38610748958E+03  0.00000000000E+00 0. -1.
         21   -1    0    0  501  502  0.00000000000E+00 -0.00000000000E+00 -0.45487323734E+02  0.45487323734E+02  0.00000000000E+00 0. -1.
         21    1    1    2  503  502 -0.13516118702E+02  0.99737538329E+02  0.29924916487E+02  0.10500363157E+03  0.00000000000E+00 0. -1.
          2    1    1    2  501    0  0.13516118702E+02 -0.99737538329E+02  0.31069524936E+03  0.32659118175E+03  0.00000000000E+00 0. -1.
<mgrwt>
<rscale>  2 0.10064920E+03</rscale>
<asrwt>0</asrwt>
<pdfrwt beam="2">  1       21 0.69980500E-02 0.10064920E+03</pdfrwt>
<pdfrwt beam="1">  1        2 0.59401150E-01 0.10064920E+03</pdfrwt>
<totfact> 0.15285579E+05</totfact>
</mgrwt>
</event>
<event>
 4    1  0.5006371E+003  0.1117390E+03  0.7546771E-02  0.1257383E+00
          2   -1    0    0  503    0 -0.00000000000E+00  0.00000000000E+00  0.27561519128E+04  0.27561519128E+04  0.00000000000E+00 0.  1.
         21   -1    0    0  501  502  0.00000000000E+00 -0.00000000000E+00 -0.52446304966E+01  0.52446304966E+01  0.00000000000E+00 0.  1.
         21    1    1    2  503  502  0.10150615887E+03 -0.46713034129E+02  0.86582282576E+03  0.87300330666E+03  0.00000000000E+00 0.  1.
          2    1    1    2  501    0 -0.10150615887E+03  0.46713034129E+02  0.18850844566E+04  0.18883932367E+04  0.00000000000E+00 0.  1.
<mgrwt>
<rscale>  2 0.11173902E+03</rscale>
<asrwt>0</asrwt>
<pdfrwt beam="2">  1       21 0.80686843E-03 0.11173902E+03</pdfrwt>
<pdfrwt beam="1">  1        2 0.42402221E+00 0.11173902E+03</pdfrwt>
<totfact> 0.20213687E+05</totfact>
</mgrwt>
</event>
<event>
 4    1  0.5006371E+003  0.1039692E+03  0.7546771E-02  0.1272164E+00
          2   -1    0    0  502    0 -0.00000000000E+00  0.00000000000E+00  0.45621486145E+03  0.45621486145E+03  0.00000000000E+00 0.  1.
         21   -1    0    0  503  502  0.00000000000E+00 -0.00000000000E+00 -0.13284333740E+03  0.13284333740E+03  0.00000000000E+00 0.  1.
         21    1    1    2  503  501  0.10115115516E+03  0.24042567778E+02 -0.10528805473E+03  0.14797018526E+03  0.00000000000E+00 0.  1.
          2    1    1    2  501    0 -0.10115115516E+03 -0.24042567778E+02  0.42865957878E+03  0.44108801359E+03  0.00000000000E+00 0.  1.
<mgrwt>
<rscale>  2 0.10396923E+03</rscale>
<asrwt>0</asrwt>
<pdfrwt beam="2">  1       21 0.20437437E-01 0.10396923E+03</pdfrwt>
<pdfrwt beam="1">  1        2 0.70186901E-01 0.10396923E+03</pdfrwt>
<totfact> 0.19345317E+04</totfact>
</mgrwt>
</event>
<event>
 4    1  0.5006371E+003  0.1244809E+03  0.7546771E-02  0.1235883E+00
         21   -1    0    0  501  502  0.00000000000E+00  0.00000000000E+00  0.75498666387E+03  0.75498666387E+03  0.00000000000E+00 0. -1.
          3   -1    0    0  503    0 -0.00000000000E+00 -0.00000000000E+00 -0.38362760399E+02  0.38362760399E+02  0.00000000000E+00 0. -1.
         21    1    1    2  503  502 -0.86576103591E+02 -0.89443126895E+02  0.62880713406E+03  0.64101006740E+03  0.00000000000E+00 0. -1.
          3    1    1    2  501    0  0.86576103591E+02  0.89443126895E+02  0.87816769409E+02  0.15233935687E+03  0.00000000000E+00 0. -1.
<mgrwt>
<rscale>  2 0.12448090E+03</rscale>
<asrwt>0</asrwt>
<pdfrwt beam="1">  1       21 0.11615178E+00 0.12448090E+03</pdfrwt>
<pdfrwt beam="2">  1        3 0.59019637E-02 0.12448090E+03</pdfrwt>
<totfact> 0.48983363E+03</totfact>
</mgrwt>
</event>
<event>
 4    1  0.5006371E+003  0.1157658E+03  0.7546771E-02  0.1250250E+00
         21   -1    0    0  501  502  0.00000000000E+00  0.00000000000E+00  0.20522453254E+03  0.20522453254E+03  0.00000000000E+00 0.  1.
         -1   -1    0    0    0  501 -0.00000000000E+00 -0.00000000000E+00 -0.14665733038E+03  0.14665733038E+03  0.00000000000E+00 0.  1.
         21    1    1    2  503  502  0.26843682098E+02  0.11261053796E+03  0.16032427912E+03  0.19775133628E+03  0.00000000000E+00 0.  1.
         -1    1    1    2    0  503 -0.26843682098E+02 -0.11261053796E+03 -0.10175707696E+03  0.15413052663E+03  0.00000000000E+00 0.  1.
<mgrwt>
<rscale>  2 0.11576578E+03</rscale>
<asrwt>0</asrwt>
<pdfrwt beam="1">  1       21 0.31573005E-01 0.11576578E+03</pdfrwt>
<pdfrwt beam="2">  1       -1 0.22562666E-01 0.11576578E+03</pdfrwt>
<totfact> 0.14510761E+04</totfact>
</mgrwt>
</event>
<event>
 4    1  0.5006371E+003  0.1116803E+03  0.7546771E-02  0.1257489E+00
          2   -1    0    0  502    0 -0.00000000000E+00  0.00000000000E+00  0.14688935118E+03  0.14688935118E+03  0.00000000000E+00 0.  1.
         21   -1    0    0  503  502  0.00000000000E+00 -0.00000000000E+00 -0.11028898580E+03  0.11028898580E+03  0.00000000000E+00 0.  1.
         21    1    1    2  503  501 -0.26446742139E+02 -0.10850375759E+03 -0.43383232764E+02  0.11981068594E+03  0.00000000000E+00 0.  1.
          2    1    1    2  501    0  0.26446742139E+02  0.10850375759E+03  0.79983598140E+02  0.13736765104E+03  0.00000000000E+00 0.  1.
<mgrwt>
<rscale>  2 0.11168033E+03</rscale>
<asrwt>0</asrwt>
<pdfrwt beam="2">  1       21 0.16967536E-01 0.11168033E+03</pdfrwt>
<pdfrwt beam="1">  1        2 0.22598362E-01 0.11168033E+03</pdfrwt>
<totfact> 0.91161639E+04</totfact>
</mgrwt>
</event>
<event>
 4    1  0.5006371E+003  0.1197315E+03  0.7546771E-02  0.1243541E+00
          2   -1    0    0  502    0 -0.00000000000E+00  0.00000000000E+00  0.17689088859E+03  0.17689088859E+03  0.00000000000E+00 0. -1.
         21   -1    0    0  503  502  0.00000000000E+00 -0.00000000000E+00 -0.18089563064E+03  0.18089563064E+03  0.00000000000E+00 0.  1.
         21    1    1    2  503  501 -0.10394217044E+03 -0.59427711240E+02 -0.13491352332E+03  0.18038094809E+03  0.00000000000E+00 0.  1.
          2    1    1    2  501    0  0.10394217044E+03  0.59427711240E+02  0.13090878127E+03  0.17740557114E+03  0.00000000000E+00 0. -1.
<mgrwt>
<rscale>  2 0.11973148E+03</rscale>
<asrwt>0</asrwt>
<pdfrwt beam="2">  1       21 0.27830097E-01 0.11973148E+03</pdfrwt>
<pdfrwt beam="1">  1        2 0.27213983E-01 0.11973148E+03</pdfrwt>
<totfact> 0.29663779E+04</totfact>
</mgrwt>
</event>
<event>
 4    1  0.5006371E+003  0.1511204E+03  0.7546771E-02  0.1199103E+00
          1   -1    0    0  503    0 -0.00000000000E+00  0.00000000000E+00  0.16699873601E+04  0.16699873601E+04  0.00000000000E+00 0.  1.
         21   -1    0    0  501  502  0.00000000000E+00 -0.00000000000E+00 -0.22770038789E+02  0.22770038789E+02  0.00000000000E+00 0. -1.
         21    1    1    2  503  502  0.12930971418E+03  0.78207162335E+02  0.28869826383E+03  0.32585894181E+03  0.00000000000E+00 0. -1.
          1    1    1    2  501    0 -0.12930971418E+03 -0.78207162335E+02  0.13585190575E+04  0.13668984571E+04  0.00000000000E+00 0.  1.
<mgrwt>
<rscale>  2 0.15112036E+03</rscale>
<asrwt>0</asrwt>
<pdfrwt beam="2">  1       21 0.35030842E-02 0.15112036E+03</pdfrwt>
<pdfrwt beam="1">  1        1 0.25692104E+00 0.15112036E+03</pdfrwt>
<totfact> 0.31102156E+04</totfact>
</mgrwt>
</event>
<event>
 4    1  0.5006371E+003  0.1016329E+03  0.7546771E-02  0.1276899E+00
         21   -1    0    0  503  502  0.00000000000E+00  0.00000000000E+00  0.46251560999E+02  0.46251560999E+02  0.00000000000E+00 0. -1.
          2   -1    0    0  502    0 -0.00000000000E+00 -0.00000000000E+00 -0.32353640219E+03  0.32353640219E+03  0.00000000000E+00 0. -1.
         21    1    1    2  503  501  0.97534257100E+02  0.28571201876E+02 -0.35742656412E+02  0.10773477791E+03  0.00000000000E+00 0. -1.
          2    1    1    2  501    0 -0.97534257100E+02 -0.28571201876E+02 -0.24154218478E+03  0.26205318528E+03  0.00000000000E+00 0. -1.
<mgrwt>
<rscale>  2 0.10163289E+03</rscale>
<asrwt>0</asrwt>
<pdfrwt beam="1">  1       21 0.71156248E-02 0.10163289E+03</pdfrwt>
<pdfrwt beam="2">  1        2 0.49774831E-01 0.10163289E+03</pdfrwt>
<totfact> 0.17903644E+05</totfact>
</mgrwt>
</event>
<event>
 4    1  0.5006371E+003  0.1211529E+03  0.7546771E-02  0.1241207E+00
          4   -1    0    0  503    0 -0.00000000000E+00  0.00000000000E+00  0.11454642904E+03  0.11454642904E+03  0.00000000000E+00 0. -1.
         21   -1    0    0  501  502  0.00000000000E+00 -0.00000000000E+00 -0.13870108010E+03  0.13870108010E+03  0.00000000000E+00 0. -1.
         21    1    1    2  503  502 -0.12110085449E+03 -0.35497788157E+01 -0.47017295568E+02  0.12995631562E+03  0.00000000000E+00 0. -1.
          4    1    1    2  501    0  0.12110085449E+03  0.35497788157E+01  0.22862644503E+02  0.12329119352E+03  0.00000000000E+00 0. -1.
<mgrwt>
<rscale>  2 0.12115287E+03</rscale>
<asrwt>0</asrwt>
<pdfrwt beam="2">  1       21 0.21338628E-01 0.12115287E+03</pdfrwt>
<pdfrwt beam="1">  1        4 0.17622528E-01 0.12115287E+03</pdfrwt>
<totfact> 0.23338106E+04</totfact>
</mgrwt>
</event>
<event>
 4    1  0.5006371E+003  0.1007213E+03  0.7546771E-02  0.1278786E+00
         21   -1    0    0  501  502  0.00000000000E+00  0.00000000000E+00  0.22904851605E+02  0.22904851605E+02  0.00000000000E+00 0. -1.
          3   -1    0    0  503    0 -0.00000000000E+00 -0.00000000000E+00 -0.28579269165E+04  0.28579269165E+04  0.00000000000E+00 0.  1.
         21    1    1    2  503  502  0.71306336973E+02  0.71135003877E+02 -0.93405951320E+02  0.13736613197E+03  0.00000000000E+00 0. -1.
          3    1    1    2  501    0 -0.71306336973E+02 -0.71135003877E+02 -0.27416161136E+04  0.27434656361E+04  0.00000000000E+00 0.  1.
<mgrwt>
<rscale>  2 0.10072131E+03</rscale>
<asrwt>0</asrwt>
<pdfrwt beam="1">  1       21 0.35238223E-02 0.10072131E+03</pdfrwt>
<pdfrwt beam="2">  1        3 0.43968119E+00 0.10072131E+03</pdfrwt>
<totfact> 0.21808967E+02</totfact>
</mgrwt>
</event>
<event>
 4    1  0.5006371E+003  0.1450955E+03  0.7546771E-02  0.1206632E+00
         21   -1    0    0  503  502  0.00000000000E+00  0.00000000000E+00  0.16131180209E+04  0.16131180209E+04  0.00000000000E+00 0.  1.
         -2   -1    0    0    0  501 -0.00000000000E+00 -0.00000000000E+00 -0.75992343266E+02  0.75992343266E+02  0.00000000000E+00 0. -1.
         21    1    1    2  503  501 -0.46018975050E+02  0.13760436337E+03  0.15371822048E+04  0.15440148437E+04  0.00000000000E+00 0.  1.
         -2    1    1    2    0  502  0.46018975050E+02 -0.13760436337E+03 -0.56527076880E-01  0.14509552053E+03  0.00000000000E+00 0. -1.
<mgrwt>
<rscale>  2 0.14509551E+03</rscale>
<asrwt>0</asrwt>
<pdfrwt beam="1">  1       21 0.24817198E+00 0.14509551E+03</pdfrwt>
<pdfrwt beam="2">  1       -2 0.11691131E-01 0.14509551E+03</pdfrwt>
<totfact> 0.28940366E+02</totfact>
</mgrwt>
</event>
<event>
 4    1  0.5006371E+003  0.1854680E+03  0.7546771E-02  0.1162614E+00
          1   -1    0    0  503    0 -0.00000000000E+00  0.00000000000E+00  0.11849903368E+04  0.11849903368E+04  0.00000000000E+00 0.  1.
         21   -1    0    0  501  502  0.00000000000E+00 -0.00000000000E+00 -0.31197434319E+02  0.31197434319E+02  0.00000000000E+00 0.  1.
         21    1    1    2  503  502 -0.67203025419E+02  0.17286447592E+03  0.41655552251E+03  0.45597903131E+03  0.00000000000E+00 0.  1.
          1    1    1    2  501    0  0.67203025419E+02 -0.17286447592E+03  0.73723737998E+03  0.76020873982E+03  0.00000000000E+00 0.  1.
<mgrwt>
<rscale>  2 0.18546799E+03</rscale>
<asrwt>0</asrwt>
<pdfrwt beam="2">  1       21 0.47996062E-02 0.18546799E+03</pdfrwt>
<pdfrwt beam="1">  1        1 0.18230617E+00 0.18546799E+03</pdfrwt>
<totfact> 0.38222214E+04</totfact>
</mgrwt>
</event>
<event>
 4    1  0.5006371E+003  0.1097607E+03  0.7546771E-02  0.1261014E+00
         21   -1    0    0  501  502  0.00000000000E+00  0.00000000000E+00  0.17188073286E+03  0.17188073286E+03  0.00000000000E+00 0. -1.
          3   -1    0    0  503    0 -0.00000000000E+00 -0.00000000000E+00 -0.70144008532E+02  0.70144008532E+02  0.00000000000E+00 0. -1.
         21    1    1    2  503  502 -0.79473002268E+02 -0.75706419731E+02  0.54171631671E+02  0.12240092220E+03  0.00000000000E+00 0. -1.
          3    1    1    2  501    0  0.79473002268E+02  0.75706419731E+02  0.47565092656E+02  0.11962381919E+03  0.00000000000E+00 0. -1.
<mgrwt>
<rscale>  2 0.10976074E+03</rscale>
<asrwt>0</asrwt>
<pdfrwt beam="1">  1       21 0.26443190E-01 0.10976074E+03</pdfrwt>
<pdfrwt beam="2">  1        3 0.10791386E-01 0.10976074E+03</pdfrwt>
<totfact> 0.41566783E+04</totfact>
</mgrwt>
</event>
<event>
 4    1  0.5006371E+003  0.1160682E+03  0.7546771E-02  0.1249728E+00
          2   -1    0    0  503    0 -0.00000000000E+00  0.00000000000E+00  0.21286051065E+04  0.21286051065E+04  0.00000000000E+00 0. -1.
         21   -1    0    0  501  502  0.00000000000E+00 -0.00000000000E+00 -0.66780828312E+02  0.66780828312E+02  0.00000000000E+00 0.  1.
         21    1    1    2  503  502  0.59185610749E+02 -0.99844368104E+02 -0.13471073500E+02  0.11684735420E+03  0.00000000000E+00 0.  1.
          2    1    1    2  501    0 -0.59185610749E+02  0.99844368104E+02  0.20752953517E+04  0.20785385806E+04  0.00000000000E+00 0. -1.
<mgrwt>
<rscale>  2 0.11606823E+03</rscale>
<asrwt>0</asrwt>
<pdfrwt beam="2">  1       21 0.10273975E-01 0.11606823E+03</pdfrwt>
<pdfrwt beam="1">  1        2 0.32747766E+00 0.11606823E+03</pdfrwt>
<totfact> 0.66793839E+03</totfact>
</mgrwt>
</event>
<event>
 4    1  0.5006371E+003  0.1646638E+03  0.7546771E-02  0.1183530E+00
         21   -1    0    0  501  502  0.00000000000E+00  0.00000000000E+00  0.21593171835E+02  0.21593171835E+02  0.00000000000E+00 0.  1.
          2   -1    0    0  503    0 -0.00000000000E+00 -0.00000000000E+00 -0.12666135217E+04  0.12666135217E+04  0.00000000000E+00 0.  1.
         21    1    1    2  503  502 -0.30693153276E+02  0.16177794081E+03 -0.56267447438E+03  0.58627360157E+03  0.00000000000E+00 0.  1.
          2    1    1    2  501    0  0.30693153276E+02 -0.16177794081E+03 -0.68234587545E+03  0.70193309192E+03  0.00000000000E+00 0.  1.
<mgrwt>
<rscale>  2 0.16466381E+03</rscale>
<asrwt>0</asrwt>
<pdfrwt beam="1">  1       21 0.33220266E-02 0.16466381E+03</pdfrwt>
<pdfrwt beam="2">  1        2 0.19486361E+00 0.16466381E+03</pdfrwt>
<totfact> 0.12535466E+05</totfact>
</mgrwt>
</event>
<event>
 4    1  0.5006371E+003  0.1226339E+03  0.7546771E-02  0.1238814E+00
         21   -1    0    0  503  502  0.00000000000E+00  0.00000000000E+00  0.10570379224E+03  0.10570379224E+03  0.00000000000E+00 0. -1.
          1   -1    0    0  502    0 -0.00000000000E+00 -0.00000000000E+00 -0.33655561815E+03  0.33655561815E+03  0.00000000000E+00 0.  1.
         21    1    1    2  503  501  0.84490623420E+02 -0.88884248745E+02  0.52583139712E+02  0.13343186165E+03  0.00000000000E+00 0. -1.
          1    1    1    2  501    0 -0.84490623420E+02  0.88884248745E+02 -0.28343496563E+03  0.30882754874E+03  0.00000000000E+00 0.  1.
<mgrwt>
<rscale>  2 0.12263391E+03</rscale>
<asrwt>0</asrwt>
<pdfrwt beam="1">  1       21 0.16262121E-01 0.12263391E+03</pdfrwt>
<pdfrwt beam="2">  1        1 0.51777789E-01 0.12263391E+03</pdfrwt>
<totfact> 0.28133713E+04</totfact>
</mgrwt>
</event>
<event>
 4    1  0.5006371E+003  0.1524588E+03  0.7546771E-02  0.1197484E+00
         21   -1    0    0  501  502  0.00000000000E+00  0.00000000000E+00  0.59019363542E+02  0.59019363542E+02  0.00000000000E+00 0.  1.
          4   -1    0    0  503    0 -0.00000000000E+00 -0.00000000000E+00 -0.39575843859E+03  0.39575843859E+03  0.00000000000E+00 0.  1.
         21    1    1    2  503  502  0.11345746148E+03  0.10183859123E+03 -0.18423561149E+03  0.23913689547E+03  0.00000000000E+00 0.  1.
          4    1    1    2  501    0 -0.11345746148E+03 -0.10183859123E+03 -0.15250346356E+03  0.21564090667E+03  0.00000000000E+00 0.  1.
<mgrwt>
<rscale>  2 0.15245883E+03</rscale>
<asrwt>0</asrwt>
<pdfrwt beam="1">  1       21 0.90799020E-02 0.15245883E+03</pdfrwt>
<pdfrwt beam="2">  1        4 0.60885914E-01 0.15245883E+03</pdfrwt>
<totfact> 0.10223807E+04</totfact>
</mgrwt>
</event>
<event>
 4    1  0.5006371E+003  0.1161563E+03  0.7546771E-02  0.1249576E+00
          2   -1    0    0  503    0 -0.00000000000E+00  0.00000000000E+00  0.23334493380E+04  0.23334493380E+04  0.00000000000E+00 0. -1.
         21   -1    0    0  501  502  0.00000000000E+00 -0.00000000000E+00 -0.53907883824E+02  0.53907883824E+02  0.00000000000E+00 0.  1.
         21    1    1    2  503  502  0.11332290182E+03  0.25499104226E+02  0.11923990593E+02  0.11676671591E+03  0.00000000000E+00 0.  1.
          2    1    1    2  501    0 -0.11332290182E+03 -0.25499104226E+02  0.22676174635E+04  0.22705905059E+04  0.00000000000E+00 0. -1.
<mgrwt>
<rscale>  2 0.11615629E+03</rscale>
<asrwt>0</asrwt>
<pdfrwt beam="2">  1       21 0.82935224E-02 0.11615629E+03</pdfrwt>
<pdfrwt beam="1">  1        2 0.35899213E+00 0.11615629E+03</pdfrwt>
<totfact> 0.75935877E+03</totfact>
</mgrwt>
</event>
<event>
 4    1  0.5006371E+003  0.1096255E+03  0.7546771E-02  0.1261265E+00
          2   -1    0    0  502    0 -0.00000000000E+00  0.00000000000E+00  0.24309399864E+04  0.24309399864E+04  0.00000000000E+00 0. -1.
         21   -1    0    0  503  502  0.00000000000E+00 -0.00000000000E+00 -0.42955459908E+02  0.42955459908E+02  0.00000000000E+00 0. -1.
         21    1    1    2  503  501  0.10959698874E+03 -0.24991297033E+01  0.30398553485E+02  0.11376210988E+03  0.00000000000E+00 0. -1.
          2    1    1    2  501    0 -0.10959698874E+03  0.24991297033E+01  0.23575859730E+04  0.23601333364E+04  0.00000000000E+00 0. -1.
<mgrwt>
<rscale>  2 0.10962548E+03</rscale>
<asrwt>0</asrwt>
<pdfrwt beam="2">  1       21 0.66085342E-02 0.10962548E+03</pdfrwt>
<pdfrwt beam="1">  1        2 0.37399066E+00 0.10962548E+03</pdfrwt>
<totfact> 0.10006035E+04</totfact>
</mgrwt>
</event>
<event>
 4    1  0.5006371E+003  0.1037559E+03  0.7546771E-02  0.1272590E+00
          2   -1    0    0  503    0 -0.00000000000E+00  0.00000000000E+00  0.12470962089E+03  0.12470962089E+03  0.00000000000E+00 0. -1.
         21   -1    0    0  501  502  0.00000000000E+00 -0.00000000000E+00 -0.29830877848E+03  0.29830877848E+03  0.00000000000E+00 0.  1.
         21    1    1    2  503  502 -0.79561100022E+02  0.66598252507E+02 -0.26509890944E+03  0.28468004437E+03  0.00000000000E+00 0.  1.
          2    1    1    2  501    0  0.79561100022E+02 -0.66598252507E+02  0.91499751854E+02  0.13833835500E+03  0.00000000000E+00 0. -1.
<mgrwt>
<rscale>  2 0.10375594E+03</rscale>
<asrwt>0</asrwt>
<pdfrwt beam="2">  1       21 0.45893658E-01 0.10375594E+03</pdfrwt>
<pdfrwt beam="1">  1        2 0.19186095E-01 0.10375594E+03</pdfrwt>
<totfact> 0.16365639E+04</totfact>
</mgrwt>
</event>
<event>
 4    1  0.5006371E+003  0.1543268E+03  0.7546771E-02  0.1195255E+00
         21   -1    0    0  501  502  0.00000000000E+00  0.00000000000E+00  0.69800815700E+03  0.69800815700E+03  0.00000000000E+00 0. -1.
          2   -1    0    0  503    0 -0.00000000000E+00 -0.00000000000E+00 -0.10671715314E+03  0.10671715314E+03  0.00000000000E+00 0. -1.
         21    1    1    2  503  502  0.15420792229E+03 -0.60571782038E+01  0.62750725101E+03  0.64620594456E+03  0.00000000000E+00 0. -1.
          2    1    1    2  501    0 -0.15420792229E+03  0.60571782038E+01 -0.36216247150E+02  0.15851936558E+03  0.00000000000E+00 0. -1.
<mgrwt>
<rscale>  2 0.15432684E+03</rscale>
<asrwt>0</asrwt>
<pdfrwt beam="1">  1       21 0.10738587E+00 0.15432684E+03</pdfrwt>
<pdfrwt beam="2">  1        2 0.16418024E-01 0.15432684E+03</pdfrwt>
<totfact> 0.29990491E+03</totfact>
</mgrwt>
</event>
<event>
 4    1  0.5006371E+003  0.1148895E+03  0.7546771E-02  0.1251774E+00
          1   -1    0    0  502    0 -0.00000000000E+00  0.00000000000E+00  0.82388053834E+03  0.82388053834E+03  0.00000000000E+00 0. -1.
         21   -1    0    0  503  502  0.00000000000E+00 -0.00000000000E+00 -0.23955553648E+03  0.23955553648E+03  0.00000000000E+00 0.  1.
         21    1    1    2  503  501  0.31480211004E+02 -0.11049249073E+03 -0.22146747562E+03  0.24949436256E+03  0.00000000000E+00 0.  1.
          1    1    1    2  501    0 -0.31480211004E+02  0.11049249073E+03  0.80579247748E+03  0.81394171226E+03  0.00000000000E+00 0. -1.
<mgrwt>
<rscale>  2 0.11488949E+03</rscale>
<asrwt>0</asrwt>
<pdfrwt beam="2">  1       21 0.36854699E-01 0.11488949E+03</pdfrwt>
<pdfrwt beam="1">  1        1 0.12675085E+00 0.11488949E+03</pdfrwt>
<totfact> 0.18288728E+03</totfact>
</mgrwt>
</event>
<event>
 4    1  0.5006371E+003  0.1014262E+03  0.7546771E-02  0.1277325E+00
         21   -1    0    0  501  502  0.00000000000E+00  0.00000000000E+00  0.26677252841E+02  0.26677252841E+02  0.00000000000E+00 0. -1.
          2   -1    0    0  503    0 -0.00000000000E+00 -0.00000000000E+00 -0.53416958747E+03  0.53416958747E+03  0.00000000000E+00 0.  1.
         21    1    1    2  503  502  0.93226422556E+02  0.39951434004E+02 -0.10586584469E+03  0.14661125473E+03  0.00000000000E+00 0. -1.
          2    1    1    2  501    0 -0.93226422556E+02 -0.39951434004E+02 -0.40162648993E+03  0.41423558557E+03  0.00000000000E+00 0.  1.
<mgrwt>
<rscale>  2 0.10142624E+03</rscale>
<asrwt>0</asrwt>
<pdfrwt beam="1">  1       21 0.41041931E-02 0.10142624E+03</pdfrwt>
<pdfrwt beam="2">  1        2 0.82179929E-01 0.10142624E+03</pdfrwt>
<totfact> 0.26398224E+05</totfact>
</mgrwt>
</event>
<event>
 4    1  0.5006371E+003  0.1325641E+03  0.7546771E-02  0.1223700E+00
         21   -1    0    0  501  502  0.00000000000E+00  0.00000000000E+00  0.10588565610E+03  0.10588565610E+03  0.00000000000E+00 0.  1.
          2   -1    0    0  503    0 -0.00000000000E+00 -0.00000000000E+00 -0.72907986413E+03  0.72907986413E+03  0.00000000000E+00 0. -1.
         21    1    1    2  503  502  0.11349759329E+03 -0.68494871693E+02  0.55304588118E+02  0.14363790794E+03  0.00000000000E+00 0.  1.
          2    1    1    2  501    0 -0.11349759329E+03  0.68494871693E+02 -0.67849879615E+03  0.69132761228E+03  0.00000000000E+00 0. -1.
<mgrwt>
<rscale>  2 0.13256414E+03</rscale>
<asrwt>0</asrwt>
<pdfrwt beam="1">  1       21 0.16290101E-01 0.13256414E+03</pdfrwt>
<pdfrwt beam="2">  1        2 0.11216613E+00 0.13256414E+03</pdfrwt>
<totfact> 0.17192301E+04</totfact>
</mgrwt>
</event>
<event>
 4    1  0.5006371E+003  0.1341413E+03  0.7546771E-02  0.1221437E+00
         -1   -1    0    0    0  501 -0.00000000000E+00  0.00000000000E+00  0.15785123738E+04  0.15785123738E+04  0.00000000000E+00 0. -1.
         21   -1    0    0  501  502  0.00000000000E+00 -0.00000000000E+00 -0.28905940988E+02  0.28905940988E+02  0.00000000000E+00 0.  1.
         21    1    1    2  503  502  0.68248003059E+02 -0.11548203525E+03  0.14933228198E+03  0.20073370625E+03  0.00000000000E+00 0.  1.
         -1    1    1    2    0  503 -0.68248003059E+02  0.11548203525E+03  0.14002741509E+04  0.14066846086E+04  0.00000000000E+00 0. -1.
<mgrwt>
<rscale>  2 0.13414131E+03</rscale>
<asrwt>0</asrwt>
<pdfrwt beam="2">  1       21 0.44470691E-02 0.13414131E+03</pdfrwt>
<pdfrwt beam="1">  1       -1 0.24284799E+00 0.13414131E+03</pdfrwt>
<totfact> 0.28120335E+03</totfact>
</mgrwt>
</event>
<event>
 4    1  0.5006371E+003  0.1579868E+03  0.7546771E-02  0.1190989E+00
         -4   -1    0    0    0  501 -0.00000000000E+00  0.00000000000E+00  0.29104032351E+02  0.29104032351E+02  0.00000000000E+00 0. -1.
         21   -1    0    0  501  502  0.00000000000E+00 -0.00000000000E+00 -0.10472551099E+04  0.10472551099E+04  0.00000000000E+00 0. -1.
         21    1    1    2  503  502 -0.14829649533E+03  0.54479295553E+02 -0.73809603239E+03  0.75481494236E+03  0.00000000000E+00 0. -1.
         -4    1    1    2    0  503  0.14829649533E+03 -0.54479295553E+02 -0.28005504520E+03  0.32154419993E+03  0.00000000000E+00 0. -1.
<mgrwt>
<rscale>  2 0.15798685E+03</rscale>
<asrwt>0</asrwt>
<pdfrwt beam="2">  1       21 0.16111619E+00 0.15798685E+03</pdfrwt>
<pdfrwt beam="1">  1       -4 0.44775429E-02 0.15798685E+03</pdfrwt>
<totfact> 0.29687098E+03</totfact>
</mgrwt>
</event>
<event>
 4    1  0.5006371E+003  0.1040909E+03  0.7546771E-02  0.1271921E+00
          1   -1    0    0  503    0 -0.00000000000E+00  0.00000000000E+00  0.62152948559E+02  0.62152948559E+02  0.00000000000E+00 0.  1.
         21   -1    0    0  501  502  0.00000000000E+00 -0.00000000000E+00 -0.17542704341E+03  0.17542704341E+03  0.00000000000E+00 0. -1.
         21    1    1    2  503  502 -0.14192889511E+02 -0.10311872283E+03 -0.66045653029E+02  0.12327585893E+03  0.00000000000E+00 0. -1.
          1    1    1    2  501    0  0.14192889511E+02  0.10311872283E+03 -0.47228441819E+02  0.11430413303E+03  0.00000000000E+00 0.  1.
<mgrwt>
<rscale>  2 0.10409087E+03</rscale>
<asrwt>0</asrwt>
<pdfrwt beam="2">  1       21 0.26988775E-01 0.10409087E+03</pdfrwt>
<pdfrwt beam="1">  1        1 0.95619922E-02 0.10409087E+03</pdfrwt>
<totfact> 0.92632852E+04</totfact>
</mgrwt>
</event>
<event>
 4    1  0.5006371E+003  0.1122184E+03  0.7546771E-02  0.1256516E+00
         21   -1    0    0  503  502  0.00000000000E+00  0.00000000000E+00  0.17154728069E+03  0.17154728069E+03  0.00000000000E+00 0.  1.
          2   -1    0    0  502    0 -0.00000000000E+00 -0.00000000000E+00 -0.47663876636E+03  0.47663876636E+03  0.00000000000E+00 0.  1.
         21    1    1    2  503  501  0.11220206836E+03 -0.19127066195E+01  0.14554725179E+03  0.18378510575E+03  0.00000000000E+00 0.  1.
          2    1    1    2  501    0 -0.11220206836E+03  0.19127066195E+01 -0.45063873745E+03  0.46440094131E+03  0.00000000000E+00 0.  1.
<mgrwt>
<rscale>  2 0.11221837E+03</rscale>
<asrwt>0</asrwt>
<pdfrwt beam="1">  1       21 0.26391890E-01 0.11221837E+03</pdfrwt>
<pdfrwt beam="2">  1        2 0.73329040E-01 0.11221837E+03</pdfrwt>
<totfact> 0.11431377E+04</totfact>
</mgrwt>
</event>
<event>
 4    1  0.5006371E+003  0.1292255E+03  0.7546771E-02  0.1228609E+00
         21   -1    0    0  503  502  0.00000000000E+00  0.00000000000E+00  0.19483326670E+03  0.19483326670E+03  0.00000000000E+00 0.  1.
          1   -1    0    0  502    0 -0.00000000000E+00 -0.00000000000E+00 -0.91064826353E+03  0.91064826353E+03  0.00000000000E+00 0.  1.
         21    1    1    2  503  501  0.27774541012E+02  0.12620541456E+03  0.16817855600E+03  0.21209257057E+03  0.00000000000E+00 0.  1.
          1    1    1    2  501    0 -0.27774541012E+02 -0.12620541456E+03 -0.88399355283E+03  0.89338895966E+03  0.00000000000E+00 0.  1.
<mgrwt>
<rscale>  2 0.12922551E+03</rscale>
<asrwt>0</asrwt>
<pdfrwt beam="1">  1       21 0.29974348E-01 0.12922551E+03</pdfrwt>
<pdfrwt beam="2">  1        1 0.14009974E+00 0.12922551E+03</pdfrwt>
<totfact> 0.23185396E+03</totfact>
</mgrwt>
</event>
<event>
 4    1  0.5006371E+003  0.1663580E+03  0.7546771E-02  0.1181700E+00
          2   -1    0    0  502    0 -0.00000000000E+00  0.00000000000E+00  0.17944634290E+04  0.17944634290E+04  0.00000000000E+00 0. -1.
         21   -1    0    0  503  502  0.00000000000E+00 -0.00000000000E+00 -0.27140173686E+02  0.27140173686E+02  0.00000000000E+00 0.  1.
         21    1    1    2  503  501  0.14887056261E+03 -0.74246460043E+02  0.28519543502E+03  0.33016877108E+03  0.00000000000E+00 0.  1.
          2    1    1    2  501    0 -0.14887056261E+03  0.74246460043E+02  0.14821278203E+04  0.14914348316E+04  0.00000000000E+00 0. -1.
<mgrwt>
<rscale>  2 0.16635799E+03</rscale>
<asrwt>0</asrwt>
<pdfrwt beam="2">  1       21 0.41754127E-02 0.16635799E+03</pdfrwt>
<pdfrwt beam="1">  1        2 0.27607120E+00 0.16635799E+03</pdfrwt>
<totfact> 0.45174506E+04</totfact>
</mgrwt>
</event>
<event>
 4    1  0.5006371E+003  0.1432098E+03  0.7546771E-02  0.1209074E+00
          2   -1    0    0  503    0 -0.00000000000E+00  0.00000000000E+00  0.25923262648E+03  0.25923262648E+03  0.00000000000E+00 0.  1.
         21   -1    0    0  501  502  0.00000000000E+00 -0.00000000000E+00 -0.39166346727E+03  0.39166346727E+03  0.00000000000E+00 0. -1.
         21    1    1    2  503  502 -0.69154454970E+02 -0.12540616122E+03 -0.35694164841E+03  0.38459899152E+03  0.00000000000E+00 0. -1.
          2    1    1    2  501    0  0.69154454970E+02  0.12540616122E+03  0.22451080762E+03  0.26629710222E+03  0.00000000000E+00 0.  1.
<mgrwt>
<rscale>  2 0.14320979E+03</rscale>
<asrwt>0</asrwt>
<pdfrwt beam="2">  1       21 0.60255918E-01 0.14320979E+03</pdfrwt>
<pdfrwt beam="1">  1        2 0.39881943E-01 0.14320979E+03</pdfrwt>
<totfact> 0.41434703E+03</totfact>
</mgrwt>
</event>
<event>
 4    1  0.5006371E+003  0.1071125E+03  0.7546771E-02  0.1266012E+00
          1   -1    0    0  502    0 -0.00000000000E+00  0.00000000000E+00  0.43553404361E+03  0.43553404361E+03  0.00000000000E+00 0. -1.
         21   -1    0    0  503  502  0.00000000000E+00 -0.00000000000E+00 -0.18780513088E+03  0.18780513088E+03  0.00000000000E+00 0. -1.
         21    1    1    2  503  501 -0.36572181217E+02 -0.10067553036E+03 -0.16512141797E+03  0.19682014512E+03  0.00000000000E+00 0. -1.
          1    1    1    2  501    0  0.36572181217E+02  0.10067553036E+03  0.41285033070E+03  0.42651902937E+03  0.00000000000E+00 0. -1.
<mgrwt>
<rscale>  2 0.10711250E+03</rscale>
<asrwt>0</asrwt>
<pdfrwt beam="2">  1       21 0.28893097E-01 0.10711250E+03</pdfrwt>
<pdfrwt beam="1">  1        1 0.67005237E-01 0.10711250E+03</pdfrwt>
<totfact> 0.70227366E+03</totfact>
</mgrwt>
</event>
<event>
 4    1  0.5006371E+003  0.1144110E+03  0.7546771E-02  0.1252613E+00
          4   -1    0    0  502    0 -0.00000000000E+00  0.00000000000E+00  0.39649474679E+03  0.39649474679E+03  0.00000000000E+00 0. -1.
         21   -1    0    0  503  502  0.00000000000E+00 -0.00000000000E+00 -0.12386494117E+03  0.12386494117E+03  0.00000000000E+00 0.  1.
         21    1    1    2  503  501 -0.69743434514E+02 -0.90695765085E+02 -0.86510252978E+02  0.14343602174E+03  0.00000000000E+00 0.  1.
          4    1    1    2  501    0  0.69743434514E+02  0.90695765085E+02  0.35914005861E+03  0.37692366622E+03  0.00000000000E+00 0. -1.
<mgrwt>
<rscale>  2 0.11441096E+03</rscale>
<asrwt>0</asrwt>
<pdfrwt beam="2">  1       21 0.19056145E-01 0.11441096E+03</pdfrwt>
<pdfrwt beam="1">  1        4 0.60999191E-01 0.11441096E+03</pdfrwt>
<totfact> 0.26516997E+03</totfact>
</mgrwt>
</event>
<event>
 4    1  0.5006371E+003  0.1196973E+03  0.7546771E-02  0.1243597E+00
          1   -1    0    0  503    0 -0.00000000000E+00  0.00000000000E+00  0.18839974312E+04  0.18839974312E+04  0.00000000000E+00 0.  1.
         21   -1    0    0  501  502  0.00000000000E+00 -0.00000000000E+00 -0.27543818714E+02  0.27543818714E+02  0.00000000000E+00 0. -1.
         21    1    1    2  503  502 -0.10829814713E+03 -0.50979949706E+02  0.11503428435E+03  0.16601304322E+03  0.00000000000E+00 0. -1.
          1    1    1    2  501    0  0.10829814713E+03  0.50979949706E+02  0.17414193282E+04  0.17455282067E+04  0.00000000000E+00 0.  1.
<mgrwt>
<rscale>  2 0.11969730E+03</rscale>
<asrwt>0</asrwt>
<pdfrwt beam="2">  1       21 0.42375121E-02 0.11969730E+03</pdfrwt>
<pdfrwt beam="1">  1        1 0.28984566E+00 0.11969730E+03</pdfrwt>
<totfact> 0.16725467E+04</totfact>
</mgrwt>
</event>
<event>
 4    1  0.5006371E+003  0.1017397E+03  0.7546771E-02  0.1276680E+00
         21   -1    0    0  501  502  0.00000000000E+00  0.00000000000E+00  0.88797507396E+01  0.88797507396E+01  0.00000000000E+00 0. -1.
          2   -1    0    0  503    0 -0.00000000000E+00 -0.00000000000E+00 -0.19298064583E+04  0.19298064583E+04  0.00000000000E+00 0.  1.
         21    1    1    2  503  502 -0.10938899611E+02  0.10114991575E+03 -0.35050144071E+03  0.36496879993E+03  0.00000000000E+00 0. -1.
          2    1    1    2  501    0  0.10938899611E+02 -0.10114991575E+03 -0.15704252669E+04  0.15737174091E+04  0.00000000000E+00 0.  1.
<mgrwt>
<rscale>  2 0.10173969E+03</rscale>
<asrwt>0</asrwt>
<pdfrwt beam="1">  1       21 0.13661144E-02 0.10173969E+03</pdfrwt>
<pdfrwt beam="2">  1        2 0.29689353E+00 0.10173969E+03</pdfrwt>
<totfact> 0.23845952E+05</totfact>
</mgrwt>
</event>
<event>
 4    1  0.5006371E+003  0.1658978E+03  0.7546771E-02  0.1182195E+00
         21   -1    0    0  503  502  0.00000000000E+00  0.00000000000E+00  0.43599808897E+03  0.43599808897E+03  0.00000000000E+00 0. -1.
          3   -1    0    0  502    0 -0.00000000000E+00 -0.00000000000E+00 -0.10307205444E+03  0.10307205444E+03  0.00000000000E+00 0.  1.
         21    1    1    2  503  501  0.65957442781E+02 -0.15222251634E+03  0.33426262676E+03  0.37316696316E+03  0.00000000000E+00 0. -1.
          3    1    1    2  501    0 -0.65957442781E+02  0.15222251634E+03 -0.13365922395E+01  0.16590318026E+03  0.00000000000E+00 0.  1.
<mgrwt>
<rscale>  2 0.16589780E+03</rscale>
<asrwt>0</asrwt>
<pdfrwt beam="1">  1       21 0.67076628E-01 0.16589780E+03</pdfrwt>
<pdfrwt beam="2">  1        3 0.15857239E-01 0.16589780E+03</pdfrwt>
<totfact> 0.33768323E+03</totfact>
</mgrwt>
</event>
<event>
 4    1  0.5006371E+003  0.1548523E+03  0.7546771E-02  0.1194634E+00
         21   -1    0    0  503  502  0.00000000000E+00  0.00000000000E+00  0.34494060889E+03  0.34494060889E+03  0.00000000000E+00 0.  1.
          1   -1    0    0  502    0 -0.00000000000E+00 -0.00000000000E+00 -0.33184381220E+03  0.33184381220E+03  0.00000000000E+00 0. -1.
         21    1    1    2  503  501 -0.97788276345E+02 -0.12006954390E+03  0.30741558278E+03  0.34421444319E+03  0.00000000000E+00 0.  1.
          1    1    1    2  501    0  0.97788276345E+02  0.12006954390E+03 -0.29431878608E+03  0.33256997791E+03  0.00000000000E+00 0. -1.
<mgrwt>
<rscale>  2 0.15485232E+03</rscale>
<asrwt>0</asrwt>
<pdfrwt beam="1">  1       21 0.53067786E-01 0.15485232E+03</pdfrwt>
<pdfrwt beam="2">  1        1 0.51052894E-01 0.15485232E+03</pdfrwt>
<totfact> 0.28814650E+03</totfact>
</mgrwt>
</event>
<event>
 4    1  0.5006371E+003  0.1207729E+03  0.7546771E-02  0.1241827E+00
         21   -1    0    0  503  502  0.00000000000E+00  0.00000000000E+00  0.54656394749E+02  0.54656394749E+02  0.00000000000E+00 0. -1.
          2   -1    0    0  502    0 -0.00000000000E+00 -0.00000000000E+00 -0.14819572956E+04  0.14819572956E+04  0.00000000000E+00 0. -1.
         21    1    1    2  503  501  0.39214298340E+02 -0.11422929541E+03 -0.17952392912E+02  0.12209988343E+03  0.00000000000E+00 0. -1.
          2    1    1    2  501    0 -0.39214298340E+02  0.11422929541E+03 -0.14093485079E+04  0.14145138069E+04  0.00000000000E+00 0. -1.
<mgrwt>
<rscale>  2 0.12077290E+03</rscale>
<asrwt>0</asrwt>
<pdfrwt beam="1">  1       21 0.84086772E-02 0.12077290E+03</pdfrwt>
<pdfrwt beam="2">  1        2 0.22799340E+00 0.12077290E+03</pdfrwt>
<totfact> 0.20168841E+04</totfact>
</mgrwt>
</event>
<event>
 4    1  0.5006371E+003  0.1459356E+03  0.7546771E-02  0.1205558E+00
         21   -1    0    0  501  502  0.00000000000E+00  0.00000000000E+00  0.33976602700E+02  0.33976602700E+02  0.00000000000E+00 0.  1.
          2   -1    0    0  503    0 -0.00000000000E+00 -0.00000000000E+00 -0.67685643861E+03  0.67685643861E+03  0.00000000000E+00 0. -1.
         21    1    1    2  503  502  0.11238113857E+03 -0.93100376954E+02 -0.22480495990E+03  0.26801953378E+03  0.00000000000E+00 0.  1.
          2    1    1    2  501    0 -0.11238113857E+03  0.93100376954E+02 -0.41807487601E+03  0.44281350752E+03  0.00000000000E+00 0. -1.
<mgrwt>
<rscale>  2 0.14593560E+03</rscale>
<asrwt>0</asrwt>
<pdfrwt beam="1">  1       21 0.52271694E-02 0.14593560E+03</pdfrwt>
<pdfrwt beam="2">  1        2 0.10413176E+00 0.14593560E+03</pdfrwt>
<totfact> 0.13669262E+05</totfact>
</mgrwt>
</event>
<event>
 4    1  0.5006371E+003  0.1020798E+03  0.7546771E-02  0.1275982E+00
         21   -1    0    0  503  502  0.00000000000E+00  0.00000000000E+00  0.14732763590E+02  0.14732763590E+02  0.00000000000E+00 0. -1.
          2   -1    0    0  502    0 -0.00000000000E+00 -0.00000000000E+00 -0.21269006895E+04  0.21269006895E+04  0.00000000000E+00 0. -1.
         21    1    1    2  503  501  0.80200453466E+02  0.63151965541E+02 -0.18124781478E+03  0.20801695568E+03  0.00000000000E+00 0. -1.
          2    1    1    2  501    0 -0.80200453466E+02 -0.63151965541E+02 -0.19309201112E+04  0.19336164974E+04  0.00000000000E+00 0. -1.
<mgrwt>
<rscale>  2 0.10207979E+03</rscale>
<asrwt>0</asrwt>
<pdfrwt beam="1">  1       21 0.22665781E-02 0.10207979E+03</pdfrwt>
<pdfrwt beam="2">  1        2 0.32721562E+00 0.10207979E+03</pdfrwt>
<totfact> 0.84418732E+04</totfact>
</mgrwt>
</event>
<event>
 4    1  0.5006371E+003  0.2657718E+03  0.7546771E-02  0.1103724E+00
         21   -1    0    0  501  502  0.00000000000E+00  0.00000000000E+00  0.28142782217E+03  0.28142782217E+03  0.00000000000E+00 0. -1.
          1   -1    0    0  503    0 -0.00000000000E+00 -0.00000000000E+00 -0.40014597548E+03  0.40014597548E+03  0.00000000000E+00 0. -1.
         21    1    1    2  503  502 -0.26000750863E+03  0.55052414960E+02  0.14870573036E+03  0.30454567339E+03  0.00000000000E+00 0. -1.
          1    1    1    2  501    0  0.26000750863E+03 -0.55052414960E+02 -0.26742388367E+03  0.37702812427E+03  0.00000000000E+00 0. -1.
<mgrwt>
<rscale>  2 0.26577184E+03</rscale>
<asrwt>0</asrwt>
<pdfrwt beam="1">  1       21 0.43296588E-01 0.26577184E+03</pdfrwt>
<pdfrwt beam="2">  1        1 0.61560919E-01 0.26577184E+03</pdfrwt>
<totfact> 0.33376984E+03</totfact>
</mgrwt>
</event>
<event>
 4    1  0.5006371E+003  0.1339927E+03  0.7546771E-02  0.1221649E+00
          1   -1    0    0  503    0 -0.00000000000E+00  0.00000000000E+00  0.12822709577E+04  0.12822709577E+04  0.00000000000E+00 0.  1.
         21   -1    0    0  501  502  0.00000000000E+00 -0.00000000000E+00 -0.14736307337E+02  0.14736307337E+02  0.00000000000E+00 0.  1.
         21    1    1    2  503  502 -0.12929318108E+03 -0.35175575640E+02  0.48898067263E+03  0.50700704729E+03  0.00000000000E+00 0.  1.
          1    1    1    2  501    0  0.12929318108E+03  0.35175575640E+02  0.77855397778E+03  0.79000021779E+03  0.00000000000E+00 0.  1.
<mgrwt>
<rscale>  2 0.13399272E+03</rscale>
<asrwt>0</asrwt>
<pdfrwt beam="2">  1       21 0.22671252E-02 0.13399272E+03</pdfrwt>
<pdfrwt beam="1">  1        1 0.19727237E+00 0.13399272E+03</pdfrwt>
<totfact> 0.11385739E+05</totfact>
</mgrwt>
</event>
<event>
 4    1  0.5006371E+003  0.1318971E+03  0.7546771E-02  0.1224668E+00
         21   -1    0    0  503  502  0.00000000000E+00  0.00000000000E+00  0.12961356683E+03  0.12961356683E+03  0.00000000000E+00 0. -1.
         -4   -1    0    0    0  501 -0.00000000000E+00 -0.00000000000E+00 -0.14126488216E+03  0.14126488216E+03  0.00000000000E+00 0. -1.
         21    1    1    2  503  501  0.53616228106E+01  0.13178805219E+03  0.24418347604E+02  0.13413833680E+03  0.00000000000E+00 0. -1.
         -4    1    1    2    0  502 -0.53616228106E+01 -0.13178805219E+03 -0.36069662935E+02  0.13674011220E+03  0.00000000000E+00 0. -1.
<mgrwt>
<rscale>  2 0.13189707E+03</rscale>
<asrwt>0</asrwt>
<pdfrwt beam="1">  1       21 0.19940549E-01 0.13189707E+03</pdfrwt>
<pdfrwt beam="2">  1       -4 0.21733059E-01 0.13189707E+03</pdfrwt>
<totfact> 0.18333530E+04</totfact>
</mgrwt>
</event>
<event>
 4    1  0.5006371E+003  0.1459623E+03  0.7546771E-02  0.1205524E+00
         -1   -1    0    0    0  501 -0.00000000000E+00  0.00000000000E+00  0.12392705636E+04  0.12392705636E+04  0.00000000000E+00 0.  1.
         21   -1    0    0  503  502  0.00000000000E+00 -0.00000000000E+00 -0.18077584056E+02  0.18077584056E+02  0.00000000000E+00 0. -1.
         21    1    1    2  503  501 -0.45428432234E+01 -0.14589157549E+03  0.74977721870E+03  0.76385264738E+03  0.00000000000E+00 0. -1.
         -1    1    1    2    0  502  0.45428432234E+01  0.14589157549E+03  0.47141576084E+03  0.49349550027E+03  0.00000000000E+00 0.  1.
<mgrwt>
<rscale>  2 0.14596229E+03</rscale>
<asrwt>0</asrwt>
<pdfrwt beam="2">  1       21 0.27811678E-02 0.14596229E+03</pdfrwt>
<pdfrwt beam="1">  1       -1 0.19065694E+00 0.14596229E+03</pdfrwt>
<totfact> 0.13217002E+04</totfact>
</mgrwt>
</event>
<event>
 4    1  0.5006371E+003  0.1295855E+03  0.7546771E-02  0.1228072E+00
          2   -1    0    0  503    0 -0.00000000000E+00  0.00000000000E+00  0.20143634922E+04  0.20143634922E+04  0.00000000000E+00 0. -1.
         21   -1    0    0  501  502  0.00000000000E+00 -0.00000000000E+00 -0.90349606612E+01  0.90349606612E+01  0.00000000000E+00 0. -1.
         21    1    1    2  503  502 -0.10384265714E+03 -0.77518341755E+02  0.72133601270E+03  0.73288336996E+03  0.00000000000E+00 0. -1.
          2    1    1    2  501    0  0.10384265714E+03  0.77518341755E+02  0.12839925188E+04  0.12905150829E+04  0.00000000000E+00 0. -1.
<mgrwt>
<rscale>  2 0.12958546E+03</rscale>
<asrwt>0</asrwt>
<pdfrwt beam="2">  1       21 0.13899956E-02 0.12958546E+03</pdfrwt>
<pdfrwt beam="1">  1        2 0.30990172E+00 0.12958546E+03</pdfrwt>
<totfact> 0.21048857E+05</totfact>
</mgrwt>
</event>
<event>
 4    1  0.5006371E+003  0.1119659E+03  0.7546771E-02  0.1256972E+00
          2   -1    0    0  502    0 -0.00000000000E+00  0.00000000000E+00  0.18824559192E+04  0.18824559192E+04  0.00000000000E+00 0.  1.
         21   -1    0    0  503  502  0.00000000000E+00 -0.00000000000E+00 -0.63959985135E+02  0.63959985135E+02  0.00000000000E+00 0. -1.
         21    1    1    2  503  501 -0.10023129172E+03 -0.49900423906E+02 -0.11901958804E+02  0.11259671740E+03  0.00000000000E+00 0. -1.
          2    1    1    2  501    0  0.10023129172E+03  0.49900423906E+02  0.18303978929E+04  0.18338191870E+04  0.00000000000E+00 0.  1.
<mgrwt>
<rscale>  2 0.11196591E+03</rscale>
<asrwt>0</asrwt>
<pdfrwt beam="2">  1       21 0.98399992E-02 0.11196591E+03</pdfrwt>
<pdfrwt beam="1">  1        2 0.28960856E+00 0.11196591E+03</pdfrwt>
<totfact> 0.96329098E+03</totfact>
</mgrwt>
</event>
<event>
 4    1  0.5006371E+003  0.1254898E+03  0.7546771E-02  0.1234306E+00
          2   -1    0    0  502    0 -0.00000000000E+00  0.00000000000E+00  0.63194377545E+03  0.63194377545E+03  0.00000000000E+00 0. -1.
         21   -1    0    0  503  502  0.00000000000E+00 -0.00000000000E+00 -0.25492285115E+02  0.25492285115E+02  0.00000000000E+00 0.  1.
         21    1    1    2  503  501 -0.11926080691E+03  0.39045369756E+02  0.25394920952E+03  0.28326292023E+03  0.00000000000E+00 0.  1.
          2    1    1    2  501    0  0.11926080691E+03 -0.39045369756E+02  0.35250228082E+03  0.37417314034E+03  0.00000000000E+00 0. -1.
<mgrwt>
<rscale>  2 0.12548976E+03</rscale>
<asrwt>0</asrwt>
<pdfrwt beam="2">  1       21 0.39218905E-02 0.12548976E+03</pdfrwt>
<pdfrwt beam="1">  1        2 0.97222108E-01 0.12548976E+03</pdfrwt>
<totfact> 0.23821877E+05</totfact>
</mgrwt>
</event>
<event>
 4    1  0.5006371E+003  0.1215386E+03  0.7546771E-02  0.1240580E+00
          2   -1    0    0  503    0 -0.00000000000E+00  0.00000000000E+00  0.42706509690E+03  0.42706509690E+03  0.00000000000E+00 0. -1.
         21   -1    0    0  501  502  0.00000000000E+00 -0.00000000000E+00 -0.91623868324E+02  0.91623868324E+02  0.00000000000E+00 0. -1.
         21    1    1    2  503  502  0.12153311329E+03  0.11584741451E+01 -0.36897438598E+02  0.12701598586E+03  0.00000000000E+00 0. -1.
          2    1    1    2  501    0 -0.12153311329E+03 -0.11584741451E+01  0.37233866717E+03  0.39167297936E+03  0.00000000000E+00 0. -1.
<mgrwt>
<rscale>  2 0.12153863E+03</rscale>
<asrwt>0</asrwt>
<pdfrwt beam="2">  1       21 0.14095980E-01 0.12153863E+03</pdfrwt>
<pdfrwt beam="1">  1        2 0.65702321E-01 0.12153863E+03</pdfrwt>
<totfact> 0.40732201E+04</totfact>
</mgrwt>
</event>
<event>
 4    1  0.5006371E+003  0.1017269E+03  0.7546771E-02  0.1276706E+00
         21   -1    0    0  501  502  0.00000000000E+00  0.00000000000E+00  0.80806180552E+02  0.80806180552E+02  0.00000000000E+00 0.  1.
          1   -1    0    0  503    0 -0.00000000000E+00 -0.00000000000E+00 -0.13634342083E+03  0.13634342083E+03  0.00000000000E+00 0.  1.
         21    1    1    2  503  502 -0.87167718208E+02  0.52441894316E+02 -0.10132040813E+01  0.10173195152E+03  0.00000000000E+00 0.  1.
          1    1    1    2  501    0  0.87167718208E+02 -0.52441894316E+02 -0.54524036197E+02  0.11541764987E+03  0.00000000000E+00 0.  1.
<mgrwt>
<rscale>  2 0.10172691E+03</rscale>
<asrwt>0</asrwt>
<pdfrwt beam="1">  1       21 0.12431720E-01 0.10172691E+03</pdfrwt>
<pdfrwt beam="2">  1        1 0.20975911E-01 0.10172691E+03</pdfrwt>
<totfact> 0.13842395E+05</totfact>
</mgrwt>
</event>
<event>
 4    1  0.5006371E+003  0.1054989E+03  0.7546771E-02  0.1269140E+00
          2   -1    0    0  502    0 -0.00000000000E+00  0.00000000000E+00  0.23182540888E+04  0.23182540888E+04  0.00000000000E+00 0.  1.
         21   -1    0    0  503  502  0.00000000000E+00 -0.00000000000E+00 -0.10731850619E+03  0.10731850619E+03  0.00000000000E+00 0. -1.
         21    1    1    2  503  501  0.10499621800E+03  0.10286799408E+02 -0.79880314081E+02  0.13232871425E+03  0.00000000000E+00 0. -1.
          2    1    1    2  501    0 -0.10499621800E+03 -0.10286799408E+02  0.22908158967E+04  0.22932438807E+04  0.00000000000E+00 0.  1.
<mgrwt>
<rscale>  2 0.10549893E+03</rscale>
<asrwt>0</asrwt>
<pdfrwt beam="2">  1       21 0.16510541E-01 0.10549893E+03</pdfrwt>
<pdfrwt beam="1">  1        2 0.35665444E+00 0.10549893E+03</pdfrwt>
<totfact> 0.23196093E+03</totfact>
</mgrwt>
</event>
<event>
 4    1  0.5006371E+003  0.1120420E+03  0.7546771E-02  0.1256835E+00
         21   -1    0    0  501  502  0.00000000000E+00  0.00000000000E+00  0.56452115693E+02  0.56452115693E+02  0.00000000000E+00 0.  1.
         -2   -1    0    0    0  501 -0.00000000000E+00 -0.00000000000E+00 -0.27033603520E+03  0.27033603520E+03  0.00000000000E+00 0.  1.
         21    1    1    2  503  502  0.15230611131E+02 -0.11100193881E+03 -0.38118005633E+02  0.11834857113E+03  0.00000000000E+00 0.  1.
         -2    1    1    2    0  503 -0.15230611131E+02  0.11100193881E+03 -0.17576591388E+03  0.20843957977E+03  0.00000000000E+00 0.  1.
<mgrwt>
<rscale>  2 0.11204197E+03</rscale>
<asrwt>0</asrwt>
<pdfrwt beam="1">  1       21 0.86849410E-02 0.11204197E+03</pdfrwt>
<pdfrwt beam="2">  1       -2 0.41590159E-01 0.11204197E+03</pdfrwt>
<totfact> 0.45540228E+04</totfact>
</mgrwt>
</event>
<event>
 4    1  0.5006371E+003  0.1101866E+03  0.7546771E-02  0.1260225E+00
          4   -1    0    0  502    0 -0.00000000000E+00  0.00000000000E+00  0.12213079697E+04  0.12213079697E+04  0.00000000000E+00 0. -1.
         21   -1    0    0  503  502  0.00000000000E+00 -0.00000000000E+00 -0.54805050066E+02  0.54805050066E+02  0.00000000000E+00 0.  1.
         21    1    1    2  503  501  0.28107771502E+02 -0.10654125162E+03  0.59563949748E+01  0.11034746829E+03  0.00000000000E+00 0.  1.
          4    1    1    2  501    0 -0.28107771502E+02  0.10654125162E+03  0.11605465247E+04  0.11657655515E+04  0.00000000000E+00 0. -1.
<mgrwt>
<rscale>  2 0.11018659E+03</rscale>
<asrwt>0</asrwt>
<pdfrwt beam="2">  1       21 0.84315471E-02 0.11018659E+03</pdfrwt>
<pdfrwt beam="1">  1        4 0.18789351E+00 0.11018659E+03</pdfrwt>
<totfact> 0.79213152E+02</totfact>
</mgrwt>
</event>
<event>
 4    1  0.5006371E+003  0.1123905E+03  0.7546771E-02  0.1256206E+00
         21   -1    0    0  501  502  0.00000000000E+00  0.00000000000E+00  0.79592680289E+02  0.79592680289E+02  0.00000000000E+00 0.  1.
          1   -1    0    0  503    0 -0.00000000000E+00 -0.00000000000E+00 -0.17490704604E+03  0.17490704604E+03  0.00000000000E+00 0.  1.
         21    1    1    2  503  502  0.11202086814E+03  0.91081785937E+01 -0.89261364687E+01  0.11274444433E+03  0.00000000000E+00 0.  1.
          1    1    1    2  501    0 -0.11202086814E+03 -0.91081785937E+01 -0.86388229282E+02  0.14175528200E+03  0.00000000000E+00 0.  1.
<mgrwt>
<rscale>  2 0.11239054E+03</rscale>
<asrwt>0</asrwt>
<pdfrwt beam="1">  1       21 0.12245028E-01 0.11239054E+03</pdfrwt>
<pdfrwt beam="2">  1        1 0.26908776E-01 0.11239054E+03</pdfrwt>
<totfact> 0.10465956E+05</totfact>
</mgrwt>
</event>
<event>
 4    1  0.5006371E+003  0.1171830E+03  0.7546771E-02  0.1247818E+00
         -3   -1    0    0    0  501 -0.00000000000E+00  0.00000000000E+00  0.41952154885E+02  0.41952154885E+02  0.00000000000E+00 0.  1.
         21   -1    0    0  503  502  0.00000000000E+00 -0.00000000000E+00 -0.32856198961E+03  0.32856198961E+03  0.00000000000E+00 0. -1.
         21    1    1    2  503  501  0.69759396215E+02  0.94156710983E+02 -0.15468617954E+03  0.19406100516E+03  0.00000000000E+00 0. -1.
         -3    1    1    2    0  502 -0.69759396215E+02 -0.94156710983E+02 -0.13192365519E+03  0.17645313934E+03  0.00000000000E+00 0.  1.
<mgrwt>
<rscale>  2 0.11718302E+03</rscale>
<asrwt>0</asrwt>
<pdfrwt beam="2">  1       21 0.50547996E-01 0.11718302E+03</pdfrwt>
<pdfrwt beam="1">  1       -3 0.64541779E-02 0.11718302E+03</pdfrwt>
<totfact> 0.26870303E+04</totfact>
</mgrwt>
</event>
<event>
 4    1  0.5006371E+003  0.1104718E+03  0.7546771E-02  0.1259699E+00
         21   -1    0    0  501  502  0.00000000000E+00  0.00000000000E+00  0.87435843970E+02  0.87435843970E+02  0.00000000000E+00 0.  1.
          1   -1    0    0  503    0 -0.00000000000E+00 -0.00000000000E+00 -0.33584384041E+03  0.33584384041E+03  0.00000000000E+00 0. -1.
         21    1    1    2  503  502 -0.11043654761E+03 -0.27898275696E+01  0.37586285378E+02  0.11669080099E+03  0.00000000000E+00 0.  1.
          1    1    1    2  501    0  0.11043654761E+03  0.27898275696E+01 -0.28599428181E+03  0.30658888339E+03  0.00000000000E+00 0. -1.
<mgrwt>
<rscale>  2 0.11047178E+03</rscale>
<asrwt>0</asrwt>
<pdfrwt beam="1">  1       21 0.13451669E-01 0.11047178E+03</pdfrwt>
<pdfrwt beam="2">  1        1 0.51668282E-01 0.11047178E+03</pdfrwt>
<totfact> 0.39635921E+04</totfact>
</mgrwt>
</event>
<event>
 4    1  0.5006371E+003  0.1348989E+03  0.7546771E-02  0.1220362E+00
         21   -1    0    0  501  502  0.00000000000E+00  0.00000000000E+00  0.10877233506E+02  0.10877233506E+02  0.00000000000E+00 0. -1.
          2   -1    0    0  503    0 -0.00000000000E+00 -0.00000000000E+00 -0.41953651801E+04  0.41953651801E+04  0.00000000000E+00 0.  1.
         21    1    1    2  503  502 -0.10472011978E+03  0.85037727480E+02 -0.46151212565E+03  0.48082341946E+03  0.00000000000E+00 0. -1.
          2    1    1    2  501    0  0.10472011978E+03 -0.85037727480E+02 -0.37229758210E+04  0.37254189942E+04  0.00000000000E+00 0.  1.
<mgrwt>
<rscale>  2 0.13489892E+03</rscale>
<asrwt>0</asrwt>
<pdfrwt beam="1">  1       21 0.16734222E-02 0.13489892E+03</pdfrwt>
<pdfrwt beam="2">  1        2 0.64544015E+00 0.13489892E+03</pdfrwt>
<totfact> 0.72428365E+03</totfact>
</mgrwt>
</event>
<event>
 4    1  0.5006371E+003  0.1419332E+03  0.7546771E-02  0.1210751E+00
         21   -1    0    0  501  502  0.00000000000E+00  0.00000000000E+00  0.22550200892E+03  0.22550200892E+03  0.00000000000E+00 0.  1.
          1   -1    0    0  503    0 -0.00000000000E+00 -0.00000000000E+00 -0.45025559754E+03  0.45025559754E+03  0.00000000000E+00 0. -1.
         21    1    1    2  503  502 -0.26872028307E+02  0.13936617765E+03  0.19013179703E+03  0.23726596389E+03  0.00000000000E+00 0.  1.
          1    1    1    2  501    0  0.26872028307E+02 -0.13936617765E+03 -0.41488538565E+03  0.43849164257E+03  0.00000000000E+00 0. -1.
<mgrwt>
<rscale>  2 0.14193321E+03</rscale>
<asrwt>0</asrwt>
<pdfrwt beam="1">  1       21 0.34692617E-01 0.14193321E+03</pdfrwt>
<pdfrwt beam="2">  1        1 0.69270092E-01 0.14193321E+03</pdfrwt>
<totfact> 0.46629415E+03</totfact>
</mgrwt>
</event>
<event>
 4    1  0.5006371E+003  0.1291531E+03  0.7546771E-02  0.1228718E+00
          2   -1    0    0  503    0 -0.00000000000E+00  0.00000000000E+00  0.26129647545E+04  0.26129647545E+04  0.00000000000E+00 0.  1.
         21   -1    0    0  501  502  0.00000000000E+00 -0.00000000000E+00 -0.14248433304E+02  0.14248433304E+02  0.00000000000E+00 0.  1.
         21    1    1    2  503  502  0.10683600212E+03 -0.72571264398E+02  0.32341995728E+03  0.34825420103E+03  0.00000000000E+00 0.  1.
          2    1    1    2  501    0 -0.10683600212E+03  0.72571264398E+02  0.22752963639E+04  0.22789589868E+04  0.00000000000E+00 0.  1.
<mgrwt>
<rscale>  2 0.12915309E+03</rscale>
<asrwt>0</asrwt>
<pdfrwt beam="2">  1       21 0.21920687E-02 0.12915309E+03</pdfrwt>
<pdfrwt beam="1">  1        2 0.40199420E+00 0.12915309E+03</pdfrwt>
<totfact> 0.49243132E+04</totfact>
</mgrwt>
</event>
<event>
 4    1  0.5006371E+003  0.1205247E+03  0.7546771E-02  0.1242234E+00
         21   -1    0    0  503  502  0.00000000000E+00  0.00000000000E+00  0.38334161681E+02  0.38334161681E+02  0.00000000000E+00 0.  1.
         -3   -1    0    0    0  501 -0.00000000000E+00 -0.00000000000E+00 -0.68195062969E+03  0.68195062969E+03  0.00000000000E+00 0.  1.
         21    1    1    2  503  501 -0.36442788018E+00  0.12052418413E+03 -0.81743013508E+02  0.14563012060E+03  0.00000000000E+00 0.  1.
         -3    1    1    2    0  502  0.36442788018E+00 -0.12052418413E+03 -0.56187345450E+03  0.57465467078E+03  0.00000000000E+00 0.  1.
<mgrwt>
<rscale>  2 0.12052474E+03</rscale>
<asrwt>0</asrwt>
<pdfrwt beam="1">  1       21 0.58975631E-02 0.12052474E+03</pdfrwt>
<pdfrwt beam="2">  1       -3 0.10491549E+00 0.12052474E+03</pdfrwt>
<totfact> 0.79390927E+03</totfact>
</mgrwt>
</event>
<event>
 4    1  0.5006371E+003  0.1153190E+03  0.7546771E-02  0.1251025E+00
          1   -1    0    0  502    0 -0.00000000000E+00  0.00000000000E+00  0.20994164535E+04  0.20994164535E+04  0.00000000000E+00 0. -1.
         21   -1    0    0  503  502  0.00000000000E+00 -0.00000000000E+00 -0.13317839366E+02  0.13317839366E+02  0.00000000000E+00 0. -1.
         21    1    1    2  503  501  0.85784433981E+02  0.77068201934E+02  0.27809821080E+03  0.30105994704E+03  0.00000000000E+00 0. -1.
          1    1    1    2  501    0 -0.85784433981E+02 -0.77068201934E+02  0.18080004033E+04  0.18116743458E+04  0.00000000000E+00 0. -1.
<mgrwt>
<rscale>  2 0.11531902E+03</rscale>
<asrwt>0</asrwt>
<pdfrwt beam="2">  1       21 0.20489000E-02 0.11531902E+03</pdfrwt>
<pdfrwt beam="1">  1        1 0.32298688E+00 0.11531902E+03</pdfrwt>
<totfact> 0.40168585E+04</totfact>
</mgrwt>
</event>
<event>
 4    1  0.5006371E+003  0.1287901E+03  0.7546771E-02  0.1229262E+00
         21   -1    0    0  501  502  0.00000000000E+00  0.00000000000E+00  0.10900434516E+02  0.10900434516E+02  0.00000000000E+00 0.  1.
          1   -1    0    0  503    0 -0.00000000000E+00 -0.00000000000E+00 -0.18072098306E+04  0.18072098306E+04  0.00000000000E+00 0.  1.
         21    1    1    2  503  502  0.60769953912E+01  0.12864659866E+03 -0.53681275728E+03  0.55204602489E+03  0.00000000000E+00 0.  1.
          1    1    1    2  501    0 -0.60769953912E+01 -0.12864659866E+03 -0.12594966388E+04  0.12660642402E+04  0.00000000000E+00 0.  1.
<mgrwt>
<rscale>  2 0.12879005E+03</rscale>
<asrwt>0</asrwt>
<pdfrwt beam="1">  1       21 0.16769907E-02 0.12879005E+03</pdfrwt>
<pdfrwt beam="2">  1        1 0.27803216E+00 0.12879005E+03</pdfrwt>
<totfact> 0.84691227E+04</totfact>
</mgrwt>
</event>
<event>
 4    1  0.5006371E+003  0.1903742E+03  0.7546771E-02  0.1158124E+00
         21   -1    0    0  503  502  0.00000000000E+00  0.00000000000E+00  0.15434329774E+02  0.15434329774E+02  0.00000000000E+00 0. -1.
          1   -1    0    0  502    0 -0.00000000000E+00 -0.00000000000E+00 -0.40542298042E+04  0.40542298042E+04  0.00000000000E+00 0. -1.
         21    1    1    2  503  501  0.19000826897E+03  0.11798317984E+02 -0.69940287873E+03  0.72484945289E+03  0.00000000000E+00 0. -1.
          1    1    1    2  501    0 -0.19000826897E+03 -0.11798317984E+02 -0.33393925957E+04  0.33448146811E+04  0.00000000000E+00 0. -1.
<mgrwt>
<rscale>  2 0.19037422E+03</rscale>
<asrwt>0</asrwt>
<pdfrwt beam="1">  1       21 0.23745117E-02 0.19037422E+03</pdfrwt>
<pdfrwt beam="2">  1        1 0.62372782E+00 0.19037422E+03</pdfrwt>
<totfact> 0.12402678E+03</totfact>
</mgrwt>
</event>
<event>
 4    1  0.5006371E+003  0.1195126E+03  0.7546771E-02  0.1243903E+00
          1   -1    0    0  502    0 -0.00000000000E+00  0.00000000000E+00  0.27731802324E+03  0.27731802324E+03  0.00000000000E+00 0.  1.
         21   -1    0    0  503  502  0.00000000000E+00 -0.00000000000E+00 -0.12621700755E+03  0.12621700755E+03  0.00000000000E+00 0.  1.
         21    1    1    2  503  501  0.11483422348E+03 -0.33111225137E+02 -0.79683775963E+02  0.14364106747E+03  0.00000000000E+00 0.  1.
          1    1    1    2  501    0 -0.11483422348E+03  0.33111225137E+02  0.23078479165E+03  0.25989396332E+03  0.00000000000E+00 0.  1.
<mgrwt>
<rscale>  2 0.11951256E+03</rscale>
<asrwt>0</asrwt>
<pdfrwt beam="2">  1       21 0.19418001E-01 0.11951256E+03</pdfrwt>
<pdfrwt beam="1">  1        1 0.42664311E-01 0.11951256E+03</pdfrwt>
<totfact> 0.25845204E+04</totfact>
</mgrwt>
</event>
<event>
 4    1  0.5006371E+003  0.1167459E+03  0.7546771E-02  0.1248564E+00
          2   -1    0    0  503    0 -0.00000000000E+00  0.00000000000E+00  0.77118731801E+02  0.77118731801E+02  0.00000000000E+00 0. -1.
         21   -1    0    0  501  502  0.00000000000E+00 -0.00000000000E+00 -0.42102101646E+03  0.42102101646E+03  0.00000000000E+00 0.  1.
         21    1    1    2  503  502  0.91515813058E+02  0.72487671001E+02 -0.36167340753E+03  0.38004902342E+03  0.00000000000E+00 0.  1.
          2    1    1    2  501    0 -0.91515813058E+02 -0.72487671001E+02  0.17771122867E+02  0.11809072485E+03  0.00000000000E+00 0. -1.
<mgrwt>
<rscale>  2 0.11674591E+03</rscale>
<asrwt>0</asrwt>
<pdfrwt beam="2">  1       21 0.64772463E-01 0.11674591E+03</pdfrwt>
<pdfrwt beam="1">  1        2 0.11864420E-01 0.11674591E+03</pdfrwt>
<totfact> 0.13944278E+04</totfact>
</mgrwt>
</event>
<event>
 4    1  0.5006371E+003  0.1851237E+03  0.7546771E-02  0.1162934E+00
         21   -1    0    0  503  502  0.00000000000E+00  0.00000000000E+00  0.46450372547E+02  0.46450372547E+02  0.00000000000E+00 0. -1.
         -3   -1    0    0    0  501 -0.00000000000E+00 -0.00000000000E+00 -0.20290211809E+04  0.20290211809E+04  0.00000000000E+00 0.  1.
         21    1    1    2  503  501 -0.17945450534E+03  0.45462853979E+02 -0.16344830447E+03  0.24695371795E+03  0.00000000000E+00 0. -1.
         -3    1    1    2    0  502  0.17945450534E+03 -0.45462853979E+02 -0.18191225039E+04  0.18285178355E+04  0.00000000000E+00 0.  1.
<mgrwt>
<rscale>  2 0.18512372E+03</rscale>
<asrwt>0</asrwt>
<pdfrwt beam="1">  1       21 0.71462091E-02 0.18512372E+03</pdfrwt>
<pdfrwt beam="2">  1       -3 0.31215719E+00 0.18512372E+03</pdfrwt>
<totfact> 0.27810600E+02</totfact>
</mgrwt>
</event>
<event>
 4    1  0.5006371E+003  0.1915488E+03  0.7546771E-02  0.1157072E+00
          1   -1    0    0  503    0 -0.00000000000E+00  0.00000000000E+00  0.48825103470E+03  0.48825103470E+03  0.00000000000E+00 0. -1.
         21   -1    0    0  501  502  0.00000000000E+00 -0.00000000000E+00 -0.75161737696E+02  0.75161737696E+02  0.00000000000E+00 0.  1.
         21    1    1    2  503  502  0.98135826396E+02  0.16450019754E+03  0.21039082940E+03  0.28452637226E+03  0.00000000000E+00 0.  1.
          1    1    1    2  501    0 -0.98135826396E+02 -0.16450019754E+03  0.20269846760E+03  0.27888640014E+03  0.00000000000E+00 0. -1.
<mgrwt>
<rscale>  2 0.19154883E+03</rscale>
<asrwt>0</asrwt>
<pdfrwt beam="2">  1       21 0.11563345E-01 0.19154883E+03</pdfrwt>
<pdfrwt beam="1">  1        1 0.75115542E-01 0.19154883E+03</pdfrwt>
<totfact> 0.32289378E+04</totfact>
</mgrwt>
</event>
<event>
 4    1  0.5006371E+003  0.1148229E+03  0.7546771E-02  0.1251891E+00
          2   -1    0    0  503    0 -0.00000000000E+00  0.00000000000E+00  0.10529621044E+04  0.10529621044E+04  0.00000000000E+00 0.  1.
         21   -1    0    0  501  502  0.00000000000E+00 -0.00000000000E+00 -0.21140422561E+02  0.21140422561E+02  0.00000000000E+00 0.  1.
         21    1    1    2  503  502 -0.26995255146E+02 -0.11160448478E+03  0.17298989139E+03  0.20762901375E+03  0.00000000000E+00 0.  1.
          2    1    1    2  501    0  0.26995255146E+02  0.11160448478E+03  0.85883179041E+03  0.86647351318E+03  0.00000000000E+00 0.  1.
<mgrwt>
<rscale>  2 0.11482293E+03</rscale>
<asrwt>0</asrwt>
<pdfrwt beam="2">  1       21 0.32523735E-02 0.11482293E+03</pdfrwt>
<pdfrwt beam="1">  1        2 0.16199413E+00 0.11482293E+03</pdfrwt>
<totfact> 0.17028254E+05</totfact>
</mgrwt>
</event>
<event>
 4    1  0.5006371E+003  0.1396616E+03  0.7546771E-02  0.1213785E+00
         21   -1    0    0  503  502  0.00000000000E+00  0.00000000000E+00  0.62853251124E+01  0.62853251124E+01  0.00000000000E+00 0. -1.
          2   -1    0    0  502    0 -0.00000000000E+00 -0.00000000000E+00 -0.40594890491E+04  0.40594890491E+04  0.00000000000E+00 0. -1.
         21    1    1    2  503  501  0.10069165749E+03 -0.96780921940E+02 -0.10399916720E+04  0.10493274201E+04  0.00000000000E+00 0. -1.
          2    1    1    2  501    0 -0.10069165749E+03  0.96780921940E+02 -0.30132120520E+04  0.30164469541E+04  0.00000000000E+00 0. -1.
<mgrwt>
<rscale>  2 0.13966158E+03</rscale>
<asrwt>0</asrwt>
<pdfrwt beam="1">  1       21 0.96696697E-03 0.13966158E+03</pdfrwt>
<pdfrwt beam="2">  1        2 0.62454074E+00 0.13966158E+03</pdfrwt>
<totfact> 0.22066522E+04</totfact>
</mgrwt>
</event>
<event>
 4    1  0.5006371E+003  0.1933085E+03  0.7546771E-02  0.1155511E+00
         21   -1    0    0  501  502  0.00000000000E+00  0.00000000000E+00  0.54657648825E+02  0.54657648825E+02  0.00000000000E+00 0.  1.
          2   -1    0    0  503    0 -0.00000000000E+00 -0.00000000000E+00 -0.10560996545E+04  0.10560996545E+04  0.00000000000E+00 0. -1.
         21    1    1    2  503  502  0.34014502668E+02 -0.19029233969E+03 -0.17091773652E+03  0.25803300873E+03  0.00000000000E+00 0.  1.
          2    1    1    2  501    0 -0.34014502668E+02  0.19029233969E+03 -0.83052426914E+03  0.85272429458E+03  0.00000000000E+00 0. -1.
<mgrwt>
<rscale>  2 0.19330846E+03</rscale>
<asrwt>0</asrwt>
<pdfrwt beam="1">  1       21 0.84088689E-02 0.19330846E+03</pdfrwt>
<pdfrwt beam="2">  1        2 0.16247687E+00 0.19330846E+03</pdfrwt>
<totfact> 0.33996972E+04</totfact>
</mgrwt>
</event>
<event>
 4    1  0.5006371E+003  0.1083013E+03  0.7546771E-02  0.1263748E+00
         21   -1    0    0  503  502  0.00000000000E+00  0.00000000000E+00  0.62954154200E+02  0.62954154200E+02  0.00000000000E+00 0.  1.
          2   -1    0    0  502    0 -0.00000000000E+00 -0.00000000000E+00 -0.84889968775E+03  0.84889968775E+03  0.00000000000E+00 0.  1.
         21    1    1    2  503  501 -0.41637826056E+02 -0.99977331513E+02  0.98262603301E+01  0.10874617587E+03  0.00000000000E+00 0.  1.
          2    1    1    2  501    0  0.41637826056E+02  0.99977331513E+02 -0.79577179388E+03  0.80310766607E+03  0.00000000000E+00 0.  1.
<mgrwt>
<rscale>  2 0.10830132E+03</rscale>
<asrwt>0</asrwt>
<pdfrwt beam="1">  1       21 0.96852559E-02 0.10830132E+03</pdfrwt>
<pdfrwt beam="2">  1        2 0.13059993E+00 0.10830132E+03</pdfrwt>
<totfact> 0.36008843E+04</totfact>
</mgrwt>
</event>
<event>
 4    1  0.5006371E+003  0.1079624E+03  0.7546771E-02  0.1264390E+00
         21   -1    0    0  503  502  0.00000000000E+00  0.00000000000E+00  0.13151709756E+03  0.13151709756E+03  0.00000000000E+00 0.  1.
         -4   -1    0    0    0  501 -0.00000000000E+00 -0.00000000000E+00 -0.12016882399E+03  0.12016882399E+03  0.00000000000E+00 0.  1.
         21    1    1    2  503  501 -0.89502737014E+02  0.60375082856E+02  0.70147505522E+02  0.12875000231E+03  0.00000000000E+00 0.  1.
         -4    1    1    2    0  502  0.89502737014E+02 -0.60375082856E+02 -0.58799231945E+02  0.12293591924E+03  0.00000000000E+00 0.  1.
<mgrwt>
<rscale>  2 0.10796245E+03</rscale>
<asrwt>0</asrwt>
<pdfrwt beam="1">  1       21 0.20233400E-01 0.10796245E+03</pdfrwt>
<pdfrwt beam="2">  1       -4 0.18487511E-01 0.10796245E+03</pdfrwt>
<totfact> 0.23360171E+04</totfact>
</mgrwt>
</event>
<event>
 4    1  0.5006371E+003  0.1949300E+03  0.7546771E-02  0.1154088E+00
         21   -1    0    0  503  502  0.00000000000E+00  0.00000000000E+00  0.21312122989E+03  0.21312122989E+03  0.00000000000E+00 0.  1.
         -3   -1    0    0    0  501 -0.00000000000E+00 -0.00000000000E+00 -0.30078935499E+03  0.30078935499E+03  0.00000000000E+00 0.  1.
         21    1    1    2  503  501 -0.34575542923E+01 -0.19489930016E+03  0.12014585992E+03  0.22898191968E+03  0.00000000000E+00 0.  1.
         -3    1    1    2    0  502  0.34575542923E+01  0.19489930016E+03 -0.20781398502E+03  0.28492866520E+03  0.00000000000E+00 0.  1.
<mgrwt>
<rscale>  2 0.19492997E+03</rscale>
<asrwt>0</asrwt>
<pdfrwt beam="1">  1       21 0.32787882E-01 0.19492997E+03</pdfrwt>
<pdfrwt beam="2">  1       -3 0.46275285E-01 0.19492997E+03</pdfrwt>
<totfact> 0.20611658E+03</totfact>
</mgrwt>
</event>
<event>
 4    1  0.5006371E+003  0.1111368E+03  0.7546771E-02  0.1258479E+00
          3   -1    0    0  503    0 -0.00000000000E+00  0.00000000000E+00  0.25266542444E+03  0.25266542444E+03  0.00000000000E+00 0.  1.
         21   -1    0    0  501  502  0.00000000000E+00 -0.00000000000E+00 -0.50687718558E+02  0.50687718558E+02  0.00000000000E+00 0.  1.
         21    1    1    2  503  502 -0.28798714508E+02 -0.10734070786E+03  0.72379677769E+02  0.13262809384E+03  0.00000000000E+00 0.  1.
          3    1    1    2  501    0  0.28798714508E+02  0.10734070786E+03  0.12959802811E+03  0.17072504916E+03  0.00000000000E+00 0.  1.
<mgrwt>
<rscale>  2 0.11113682E+03</rscale>
<asrwt>0</asrwt>
<pdfrwt beam="2">  1       21 0.77981107E-02 0.11113682E+03</pdfrwt>
<pdfrwt beam="1">  1        3 0.38871603E-01 0.11113682E+03</pdfrwt>
<totfact> 0.38749464E+04</totfact>
</mgrwt>
</event>
<event>
 4    1  0.5006371E+003  0.1362391E+03  0.7546771E-02  0.1218481E+00
         21   -1    0    0  501  502  0.00000000000E+00  0.00000000000E+00  0.21323376361E+04  0.21323376361E+04  0.00000000000E+00 0. -1.
          2   -1    0    0  503    0 -0.00000000000E+00 -0.00000000000E+00 -0.11928763407E+02  0.11928763407E+02  0.00000000000E+00 0. -1.
         21    1    1    2  503  502  0.73680517545E+02 -0.11459612093E+03  0.16175972200E+04  0.16233243225E+04  0.00000000000E+00 0. -1.
          2    1    1    2  501    0 -0.73680517545E+02  0.11459612093E+03  0.50281165267E+03  0.52094207707E+03  0.00000000000E+00 0. -1.
<mgrwt>
<rscale>  2 0.13623909E+03</rscale>
<asrwt>0</asrwt>
<pdfrwt beam="1">  1       21 0.32805164E+00 0.13623909E+03</pdfrwt>
<pdfrwt beam="2">  1        2 0.18351961E-02 0.13623909E+03</pdfrwt>
<totfact> 0.18165549E+03</totfact>
</mgrwt>
</event>
<event>
 4    1  0.5006371E+003  0.1177614E+03  0.7546771E-02  0.1246836E+00
         -3   -1    0    0    0  501 -0.00000000000E+00  0.00000000000E+00  0.13690471390E+03  0.13690471390E+03  0.00000000000E+00 0. -1.
         21   -1    0    0  501  502  0.00000000000E+00 -0.00000000000E+00 -0.29573961088E+03  0.29573961088E+03  0.00000000000E+00 0.  1.
         21    1    1    2  503  502 -0.10093571333E+03  0.60660710541E+02 -0.25482343431E+03  0.28071822653E+03  0.00000000000E+00 0.  1.
         -3    1    1    2    0  503  0.10093571333E+03 -0.60660710541E+02  0.95988537340E+02  0.15192609825E+03  0.00000000000E+00 0. -1.
<mgrwt>
<rscale>  2 0.11776137E+03</rscale>
<asrwt>0</asrwt>
<pdfrwt beam="2">  1       21 0.45498401E-01 0.11776137E+03</pdfrwt>
<pdfrwt beam="1">  1       -3 0.21062264E-01 0.11776137E+03</pdfrwt>
<totfact> 0.46126447E+03</totfact>
</mgrwt>
</event>
<event>
 4    1  0.5006371E+003  0.1143980E+03  0.7546771E-02  0.1252636E+00
          2   -1    0    0  502    0 -0.00000000000E+00  0.00000000000E+00  0.12635020731E+04  0.12635020731E+04  0.00000000000E+00 0.  1.
         21   -1    0    0  503  502  0.00000000000E+00 -0.00000000000E+00 -0.15935668718E+03  0.15935668718E+03  0.00000000000E+00 0.  1.
         21    1    1    2  503  501  0.10372400319E+03  0.48251704745E+02 -0.13584804209E+03  0.17759951123E+03  0.00000000000E+00 0.  1.
          2    1    1    2  501    0 -0.10372400319E+03 -0.48251704745E+02  0.12399934280E+04  0.12452592490E+04  0.00000000000E+00 0.  1.
<mgrwt>
<rscale>  2 0.11439797E+03</rscale>
<asrwt>0</asrwt>
<pdfrwt beam="2">  1       21 0.24516414E-01 0.11439797E+03</pdfrwt>
<pdfrwt beam="1">  1        2 0.19438493E+00 0.11439797E+03</pdfrwt>
<totfact> 0.38631493E+03</totfact>
</mgrwt>
</event>
<event>
 4    1  0.5006371E+003  0.1190610E+03  0.7546771E-02  0.1244654E+00
         -4   -1    0    0    0  501 -0.00000000000E+00  0.00000000000E+00  0.10072804007E+03  0.10072804007E+03  0.00000000000E+00 0.  1.
         21   -1    0    0  503  502  0.00000000000E+00 -0.00000000000E+00 -0.31195391610E+03  0.31195391610E+03  0.00000000000E+00 0. -1.
         21    1    1    2  503  501  0.10413991916E+03  0.57709667639E+02 -0.25848269581E+03  0.28458536950E+03  0.00000000000E+00 0. -1.
         -4    1    1    2    0  502 -0.10413991916E+03 -0.57709667639E+02  0.47256819776E+02  0.12809658667E+03  0.00000000000E+00 0.  1.
<mgrwt>
<rscale>  2 0.11906103E+03</rscale>
<asrwt>0</asrwt>
<pdfrwt beam="2">  1       21 0.47992910E-01 0.11906103E+03</pdfrwt>
<pdfrwt beam="1">  1       -4 0.15496622E-01 0.11906103E+03</pdfrwt>
<totfact> 0.60456704E+03</totfact>
</mgrwt>
</event>
<event>
 4    1  0.5006371E+003  0.1137956E+03  0.7546771E-02  0.1253698E+00
         21   -1    0    0  501  502  0.00000000000E+00  0.00000000000E+00  0.60927337135E+02  0.60927337135E+02  0.00000000000E+00 0.  1.
          1   -1    0    0  503    0 -0.00000000000E+00 -0.00000000000E+00 -0.56544228987E+03  0.56544228987E+03  0.00000000000E+00 0.  1.
         21    1    1    2  503  502  0.26617669804E+02  0.11063881877E+03 -0.48377791728E+01  0.11389843138E+03  0.00000000000E+00 0.  1.
          1    1    1    2  501    0 -0.26617669804E+02 -0.11063881877E+03 -0.49967717357E+03  0.51247119563E+03  0.00000000000E+00 0.  1.
<mgrwt>
<rscale>  2 0.11379564E+03</rscale>
<asrwt>0</asrwt>
<pdfrwt beam="1">  1       21 0.93734366E-02 0.11379564E+03</pdfrwt>
<pdfrwt beam="2">  1        1 0.86991120E-01 0.11379564E+03</pdfrwt>
<totfact> 0.38560380E+04</totfact>
</mgrwt>
</event>
<event>
 4    1  0.5006371E+003  0.1285341E+03  0.7546771E-02  0.1229647E+00
          2   -1    0    0  502    0 -0.00000000000E+00  0.00000000000E+00  0.77374662096E+03  0.77374662096E+03  0.00000000000E+00 0.  1.
         21   -1    0    0  503  502  0.00000000000E+00 -0.00000000000E+00 -0.13436320063E+03  0.13436320063E+03  0.00000000000E+00 0.  1.
         21    1    1    2  503  501  0.10355498927E+03  0.76140558418E+02 -0.96725810973E+02  0.16086299434E+03  0.00000000000E+00 0.  1.
          2    1    1    2  501    0 -0.10355498927E+03 -0.76140558418E+02  0.73610923129E+03  0.74724682725E+03  0.00000000000E+00 0.  1.
<mgrwt>
<rscale>  2 0.12853412E+03</rscale>
<asrwt>0</asrwt>
<pdfrwt beam="2">  1       21 0.20671262E-01 0.12853412E+03</pdfrwt>
<pdfrwt beam="1">  1        2 0.11903794E+00 0.12853412E+03</pdfrwt>
<totfact> 0.10343005E+04</totfact>
</mgrwt>
</event>
<event>
 4    1  0.5006371E+003  0.1508147E+03  0.7546771E-02  0.1199475E+00
         21   -1    0    0  503  502  0.00000000000E+00  0.00000000000E+00  0.82140485974E+02  0.82140485974E+02  0.00000000000E+00 0.  1.
          2   -1    0    0  502    0 -0.00000000000E+00 -0.00000000000E+00 -0.28363049051E+03  0.28363049051E+03  0.00000000000E+00 0.  1.
         21    1    1    2  503  501 -0.16021111901E+02 -0.14996134686E+03 -0.72582162788E+02  0.16737159835E+03  0.00000000000E+00 0.  1.
          2    1    1    2  501    0  0.16021111901E+02  0.14996134686E+03 -0.12890784175E+03  0.19839937813E+03  0.00000000000E+00 0.  1.
<mgrwt>
<rscale>  2 0.15081473E+03</rscale>
<asrwt>0</asrwt>
<pdfrwt beam="1">  1       21 0.12636998E-01 0.15081473E+03</pdfrwt>
<pdfrwt beam="2">  1        2 0.43635459E-01 0.15081473E+03</pdfrwt>
<totfact> 0.76757377E+04</totfact>
</mgrwt>
</event>
<event>
 4    1  0.5006371E+003  0.1255132E+03  0.7546771E-02  0.1234269E+00
         21   -1    0    0  501  502  0.00000000000E+00  0.00000000000E+00  0.22759806713E+02  0.22759806713E+02  0.00000000000E+00 0. -1.
          2   -1    0    0  503    0 -0.00000000000E+00 -0.00000000000E+00 -0.11806017592E+04  0.11806017592E+04  0.00000000000E+00 0. -1.
         21    1    1    2  503  502  0.98059965139E+02  0.78344205059E+02 -0.19191468967E+03  0.22931380102E+03  0.00000000000E+00 0. -1.
          2    1    1    2  501    0 -0.98059965139E+02 -0.78344205059E+02 -0.96592726282E+03  0.97404776489E+03  0.00000000000E+00 0. -1.
<mgrwt>
<rscale>  2 0.12551323E+03</rscale>
<asrwt>0</asrwt>
<pdfrwt beam="1">  1       21 0.35015092E-02 0.12551323E+03</pdfrwt>
<pdfrwt beam="2">  1        2 0.18163102E+00 0.12551323E+03</pdfrwt>
<totfact> 0.12790907E+05</totfact>
</mgrwt>
</event>
<event>
 4    1  0.5006371E+003  0.1244952E+03  0.7546771E-02  0.1235860E+00
          2   -1    0    0  502    0 -0.00000000000E+00  0.00000000000E+00  0.16705716544E+04  0.16705716544E+04  0.00000000000E+00 0. -1.
         21   -1    0    0  503  502  0.00000000000E+00 -0.00000000000E+00 -0.47203462240E+02  0.47203462240E+02  0.00000000000E+00 0.  1.
         21    1    1    2  503  501 -0.48274094993E+02 -0.11475480563E+03  0.41815553391E+02  0.13133009620E+03  0.00000000000E+00 0.  1.
          2    1    1    2  501    0  0.48274094993E+02  0.11475480563E+03  0.15815526387E+04  0.15864450204E+04  0.00000000000E+00 0. -1.
<mgrwt>
<rscale>  2 0.12449520E+03</rscale>
<asrwt>0</asrwt>
<pdfrwt beam="2">  1       21 0.72620724E-02 0.12449520E+03</pdfrwt>
<pdfrwt beam="1">  1        2 0.25701098E+00 0.12449520E+03</pdfrwt>
<totfact> 0.20727504E+04</totfact>
</mgrwt>
</event>
<event>
 4    1  0.5006371E+003  0.1155476E+03  0.7546771E-02  0.1250628E+00
         21   -1    0    0  503  502  0.00000000000E+00  0.00000000000E+00  0.13065680943E+03  0.13065680943E+03  0.00000000000E+00 0.  1.
          1   -1    0    0  502    0 -0.00000000000E+00 -0.00000000000E+00 -0.52320168311E+03  0.52320168311E+03  0.00000000000E+00 0.  1.
         21    1    1    2  503  501  0.11468735939E+03 -0.14073334207E+02  0.96998165930E+02  0.15086382381E+03  0.00000000000E+00 0.  1.
          1    1    1    2  501    0 -0.11468735939E+03  0.14073334207E+02 -0.48954303961E+03  0.50299466873E+03  0.00000000000E+00 0.  1.
<mgrwt>
<rscale>  2 0.11554761E+03</rscale>
<asrwt>0</asrwt>
<pdfrwt beam="1">  1       21 0.20101048E-01 0.11554761E+03</pdfrwt>
<pdfrwt beam="2">  1        1 0.80492565E-01 0.11554761E+03</pdfrwt>
<totfact> 0.10932819E+04</totfact>
</mgrwt>
</event>
<event>
 4    1  0.5006371E+003  0.1021283E+03  0.7546771E-02  0.1275883E+00
         21   -1    0    0  503  502  0.00000000000E+00  0.00000000000E+00  0.61814549269E+01  0.61814549269E+01  0.00000000000E+00 0.  1.
          2   -1    0    0  502    0 -0.00000000000E+00 -0.00000000000E+00 -0.23952558922E+04  0.23952558922E+04  0.00000000000E+00 0.  1.
         21    1    1    2  503  501 -0.55123674370E+02 -0.85974254119E+02 -0.54177149238E+03  0.55131346964E+03  0.00000000000E+00 0.  1.
          2    1    1    2  501    0  0.55123674370E+02  0.85974254119E+02 -0.18473029449E+04  0.18501238775E+04  0.00000000000E+00 0.  1.
<mgrwt>
<rscale>  2 0.10212831E+03</rscale>
<asrwt>0</asrwt>
<pdfrwt beam="1">  1       21 0.95099247E-03 0.10212831E+03</pdfrwt>
<pdfrwt beam="2">  1        2 0.36850114E+00 0.10212831E+03</pdfrwt>
<totfact> 0.24392384E+05</totfact>
</mgrwt>
</event>
<event>
 4    1  0.5006371E+003  0.1023133E+03  0.7546771E-02  0.1275505E+00
          1   -1    0    0  503    0 -0.00000000000E+00  0.00000000000E+00  0.15663422790E+03  0.15663422790E+03  0.00000000000E+00 0. -1.
         21   -1    0    0  501  502  0.00000000000E+00 -0.00000000000E+00 -0.14100648549E+03  0.14100648549E+03  0.00000000000E+00 0. -1.
         21    1    1    2  503  502 -0.26001830516E+02 -0.98954100004E+02 -0.10012384840E+03  0.14315304439E+03  0.00000000000E+00 0. -1.
          1    1    1    2  501    0  0.26001830516E+02  0.98954100004E+02  0.11575159081E+03  0.15448766900E+03  0.00000000000E+00 0. -1.
<mgrwt>
<rscale>  2 0.10231329E+03</rscale>
<asrwt>0</asrwt>
<pdfrwt beam="2">  1       21 0.21693305E-01 0.10231329E+03</pdfrwt>
<pdfrwt beam="1">  1        1 0.24097573E-01 0.10231329E+03</pdfrwt>
<totfact> 0.42581503E+04</totfact>
</mgrwt>
</event>
<event>
 4    1  0.5006371E+003  0.1018074E+03  0.7546771E-02  0.1276540E+00
          2   -1    0    0  502    0 -0.00000000000E+00  0.00000000000E+00  0.97627312304E+03  0.97627312304E+03  0.00000000000E+00 0. -1.
         21   -1    0    0  503  502  0.00000000000E+00 -0.00000000000E+00 -0.13111093272E+02  0.13111093272E+02  0.00000000000E+00 0.  1.
         21    1    1    2  503  501 -0.81433090227E+02 -0.61101551589E+02  0.26580530893E+03  0.28463522278E+03  0.00000000000E+00 0.  1.
          2    1    1    2  501    0  0.81433090227E+02  0.61101551589E+02  0.69735672084E+03  0.70474899354E+03  0.00000000000E+00 0. -1.
<mgrwt>
<rscale>  2 0.10180741E+03</rscale>
<asrwt>0</asrwt>
<pdfrwt beam="2">  1       21 0.20170920E-02 0.10180741E+03</pdfrwt>
<pdfrwt beam="1">  1        2 0.15019581E+00 0.10180741E+03</pdfrwt>
<totfact> 0.40814361E+05</totfact>
</mgrwt>
</event>
<event>
 4    1  0.5006371E+003  0.1078220E+03  0.7546771E-02  0.1264657E+00
         -1   -1    0    0    0  501 -0.00000000000E+00  0.00000000000E+00  0.64699218438E+03  0.64699218438E+03  0.00000000000E+00 0. -1.
         21   -1    0    0  503  502  0.00000000000E+00 -0.00000000000E+00 -0.34136880080E+02  0.34136880080E+02  0.00000000000E+00 0. -1.
         21    1    1    2  503  501  0.10770073537E+03 -0.51131640093E+01  0.72048814264E+02  0.12967892845E+03  0.00000000000E+00 0. -1.
         -1    1    1    2    0  502 -0.10770073537E+03  0.51131640093E+01  0.54080649004E+03  0.55145013602E+03  0.00000000000E+00 0. -1.
<mgrwt>
<rscale>  2 0.10782204E+03</rscale>
<asrwt>0</asrwt>
<pdfrwt beam="2">  1       21 0.52518282E-02 0.10782204E+03</pdfrwt>
<pdfrwt beam="1">  1       -1 0.99537250E-01 0.10782204E+03</pdfrwt>
<totfact> 0.23513324E+04</totfact>
</mgrwt>
</event>
<event>
 4    1  0.5006371E+003  0.1596021E+03  0.7546771E-02  0.1189147E+00
         21   -1    0    0  503  502  0.00000000000E+00  0.00000000000E+00  0.93975906096E+02  0.93975906096E+02  0.00000000000E+00 0.  1.
         -2   -1    0    0    0  501 -0.00000000000E+00 -0.00000000000E+00 -0.33976423265E+03  0.33976423265E+03  0.00000000000E+00 0.  1.
         21    1    1    2  503  501  0.12270463506E+03 -0.10206071689E+03 -0.25369974494E+02  0.16160585696E+03  0.00000000000E+00 0.  1.
         -2    1    1    2    0  502 -0.12270463506E+03  0.10206071689E+03 -0.22041835206E+03  0.27213428179E+03  0.00000000000E+00 0.  1.
<mgrwt>
<rscale>  2 0.15960206E+03</rscale>
<asrwt>0</asrwt>
<pdfrwt beam="1">  1       21 0.14457832E-01 0.15960206E+03</pdfrwt>
<pdfrwt beam="2">  1       -2 0.52271421E-01 0.15960206E+03</pdfrwt>
<totfact> 0.11963258E+04</totfact>
</mgrwt>
</event>
<event>
 4    1  0.5006371E+003  0.1630610E+03  0.7546771E-02  0.1185284E+00
          2   -1    0    0  503    0 -0.00000000000E+00  0.00000000000E+00  0.12116312348E+04  0.12116312348E+04  0.00000000000E+00 0.  1.
         21   -1    0    0  501  502  0.00000000000E+00 -0.00000000000E+00 -0.68529990344E+02  0.68529990344E+02  0.00000000000E+00 0.  1.
         21    1    1    2  503  502 -0.15769833741E+03 -0.41474506005E+02  0.43812243837E+02  0.16884434542E+03  0.00000000000E+00 0.  1.
          2    1    1    2  501    0  0.15769833741E+03  0.41474506005E+02  0.10992890006E+04  0.11113168797E+04  0.00000000000E+00 0.  1.
<mgrwt>
<rscale>  2 0.16306103E+03</rscale>
<asrwt>0</asrwt>
<pdfrwt beam="2">  1       21 0.10543076E-01 0.16306103E+03</pdfrwt>
<pdfrwt beam="1">  1        2 0.18640479E+00 0.16306103E+03</pdfrwt>
<totfact> 0.18734584E+04</totfact>
</mgrwt>
</event>
<event>
 4    1  0.5006371E+003  0.1038201E+03  0.7546771E-02  0.1272462E+00
         -3   -1    0    0    0  501 -0.00000000000E+00  0.00000000000E+00  0.57976933972E+02  0.57976933972E+02  0.00000000000E+00 0.  1.
         21   -1    0    0  501  502  0.00000000000E+00 -0.00000000000E+00 -0.10487334607E+04  0.10487334607E+04  0.00000000000E+00 0. -1.
         21    1    1    2  503  502 -0.41757972911E+02 -0.95052057549E+02 -0.99729518612E+03  0.10026845517E+04  0.00000000000E+00 0. -1.
         -3    1    1    2    0  503  0.41757972911E+02  0.95052057549E+02  0.65386593683E+01  0.10402584300E+03  0.00000000000E+00 0.  1.
<mgrwt>
<rscale>  2 0.10382014E+03</rscale>
<asrwt>0</asrwt>
<pdfrwt beam="2">  1       21 0.16134361E+00 0.10382014E+03</pdfrwt>
<pdfrwt beam="1">  1       -3 0.89195282E-02 0.10382014E+03</pdfrwt>
<totfact> 0.11026844E+03</totfact>
</mgrwt>
</event>
<event>
 4    1  0.5006371E+003  0.1480963E+03  0.7546771E-02  0.1202832E+00
         -2   -1    0    0    0  501 -0.00000000000E+00  0.00000000000E+00  0.13517212499E+04  0.13517212499E+04  0.00000000000E+00 0.  1.
         21   -1    0    0  503  502  0.00000000000E+00 -0.00000000000E+00 -0.23882386567E+02  0.23882386567E+02  0.00000000000E+00 0.  1.
         21    1    1    2  503  501  0.13998406572E+03  0.48342272880E+02  0.27447348384E+03  0.31187851374E+03  0.00000000000E+00 0.  1.
         -2    1    1    2    0  502 -0.13998406572E+03 -0.48342272880E+02  0.10533653795E+04  0.10637251228E+04  0.00000000000E+00 0.  1.
<mgrwt>
<rscale>  2 0.14809630E+03</rscale>
<asrwt>0</asrwt>
<pdfrwt beam="2">  1       21 0.36742144E-02 0.14809630E+03</pdfrwt>
<pdfrwt beam="1">  1       -2 0.20795706E+00 0.14809630E+03</pdfrwt>
<totfact> 0.48485126E+03</totfact>
</mgrwt>
</event>
<event>
 4    1  0.5006371E+003  0.1645928E+03  0.7546771E-02  0.1183607E+00
         21   -1    0    0  501  502  0.00000000000E+00  0.00000000000E+00  0.90746635521E+02  0.90746635521E+02  0.00000000000E+00 0.  1.
          1   -1    0    0  503    0 -0.00000000000E+00 -0.00000000000E+00 -0.14412844801E+04  0.14412844801E+04  0.00000000000E+00 0. -1.
         21    1    1    2  503  502  0.12174442956E+03 -0.11076588488E+03  0.68165422502E+01  0.16473388428E+03  0.00000000000E+00 0.  1.
          1    1    1    2  501    0 -0.12174442956E+03  0.11076588488E+03 -0.13573543868E+04  0.13672972313E+04  0.00000000000E+00 0. -1.
<mgrwt>
<rscale>  2 0.16459279E+03</rscale>
<asrwt>0</asrwt>
<pdfrwt beam="1">  1       21 0.13961021E-01 0.16459279E+03</pdfrwt>
<pdfrwt beam="2">  1        1 0.22173608E+00 0.16459279E+03</pdfrwt>
<totfact> 0.40240567E+03</totfact>
</mgrwt>
</event>
<event>
 4    1  0.5006371E+003  0.1055768E+03  0.7546771E-02  0.1268987E+00
         21   -1    0    0  501  502  0.00000000000E+00  0.00000000000E+00  0.15383830451E+03  0.15383830451E+03  0.00000000000E+00 0.  1.
         -1   -1    0    0    0  501 -0.00000000000E+00 -0.00000000000E+00 -0.24427418997E+03  0.24427418997E+03  0.00000000000E+00 0. -1.
         21    1    1    2  503  502 -0.69455982717E+02 -0.79513111652E+02  0.12172648105E+03  0.16113287886E+03  0.00000000000E+00 0.  1.
         -1    1    1    2    0  503  0.69455982717E+02  0.79513111652E+02 -0.21216236650E+03  0.23697961562E+03  0.00000000000E+00 0. -1.
<mgrwt>
<rscale>  2 0.10557684E+03</rscale>
<asrwt>0</asrwt>
<pdfrwt beam="1">  1       21 0.23667431E-01 0.10557684E+03</pdfrwt>
<pdfrwt beam="2">  1       -1 0.37580645E-01 0.10557684E+03</pdfrwt>
<totfact> 0.10724682E+04</totfact>
</mgrwt>
</event>
<event>
 4    1  0.5006371E+003  0.1123290E+03  0.7546771E-02  0.1256317E+00
         21   -1    0    0  501  502  0.00000000000E+00  0.00000000000E+00  0.60830189908E+02  0.60830189908E+02  0.00000000000E+00 0.  1.
          1   -1    0    0  503    0 -0.00000000000E+00 -0.00000000000E+00 -0.98987815296E+03  0.98987815296E+03  0.00000000000E+00 0.  1.
         21    1    1    2  503  502 -0.10579378026E+03 -0.37755638338E+02  0.25546357358E+01  0.11235808085E+03  0.00000000000E+00 0.  1.
          1    1    1    2  501    0  0.10579378026E+03  0.37755638338E+02 -0.93160259879E+03  0.93835026202E+03  0.00000000000E+00 0.  1.
<mgrwt>
<rscale>  2 0.11232904E+03</rscale>
<asrwt>0</asrwt>
<pdfrwt beam="1">  1       21 0.93584898E-02 0.11232904E+03</pdfrwt>
<pdfrwt beam="2">  1        1 0.15228896E+00 0.11232904E+03</pdfrwt>
<totfact> 0.16989851E+04</totfact>
</mgrwt>
</event>
<event>
 4    1  0.5006371E+003  0.1661169E+03  0.7546771E-02  0.1181959E+00
          1   -1    0    0  503    0 -0.00000000000E+00  0.00000000000E+00  0.32003490808E+04  0.32003490808E+04  0.00000000000E+00 0.  1.
         21   -1    0    0  501  502  0.00000000000E+00 -0.00000000000E+00 -0.15347964936E+02  0.15347964936E+02  0.00000000000E+00 0.  1.
         21    1    1    2  503  502 -0.13974435213E+03  0.89812847904E+02  0.52815491291E+03  0.55366275262E+03  0.00000000000E+00 0.  1.
          1    1    1    2  501    0  0.13974435213E+03 -0.89812847904E+02  0.26568462030E+04  0.26620342931E+04  0.00000000000E+00 0.  1.
<mgrwt>
<rscale>  2 0.16611692E+03</rscale>
<asrwt>0</asrwt>
<pdfrwt beam="2">  1       21 0.23612279E-02 0.16611692E+03</pdfrwt>
<pdfrwt beam="1">  1        1 0.49236087E+00 0.16611692E+03</pdfrwt>
<totfact> 0.57862303E+03</totfact>
</mgrwt>
</event>
<event>
 4    1  0.5006371E+003  0.1043321E+03  0.7546771E-02  0.1271441E+00
         21   -1    0    0  501  502  0.00000000000E+00  0.00000000000E+00  0.23553030655E+02  0.23553030655E+02  0.00000000000E+00 0.  1.
          2   -1    0    0  503    0 -0.00000000000E+00 -0.00000000000E+00 -0.28077093386E+04  0.28077093386E+04  0.00000000000E+00 0. -1.
         21    1    1    2  503  502 -0.72168816741E+02 -0.75344823620E+02 -0.98190167783E+02  0.14327068648E+03  0.00000000000E+00 0.  1.
          2    1    1    2  501    0  0.72168816741E+02  0.75344823620E+02 -0.26859661401E+04  0.26879916827E+04  0.00000000000E+00 0. -1.
<mgrwt>
<rscale>  2 0.10433207E+03</rscale>
<asrwt>0</asrwt>
<pdfrwt beam="1">  1       21 0.36235437E-02 0.10433207E+03</pdfrwt>
<pdfrwt beam="2">  1        2 0.43195522E+00 0.10433207E+03</pdfrwt>
<totfact> 0.17187144E+04</totfact>
</mgrwt>
</event>
<event>
 4    1  0.5006371E+003  0.1092692E+03  0.7546771E-02  0.1261929E+00
         21   -1    0    0  501  502  0.00000000000E+00  0.00000000000E+00  0.21747711460E+02  0.21747711460E+02  0.00000000000E+00 0.  1.
          2   -1    0    0  503    0 -0.00000000000E+00 -0.00000000000E+00 -0.73723428651E+03  0.73723428651E+03  0.00000000000E+00 0.  1.
         21    1    1    2  503  502 -0.10926902519E+03  0.21577781554E+00 -0.16599406564E+03  0.19873046132E+03  0.00000000000E+00 0.  1.
          2    1    1    2  501    0  0.10926902519E+03 -0.21577781554E+00 -0.54949250940E+03  0.56025153665E+03  0.00000000000E+00 0.  1.
<mgrwt>
<rscale>  2 0.10926924E+03</rscale>
<asrwt>0</asrwt>
<pdfrwt beam="1">  1       21 0.33458023E-02 0.10926924E+03</pdfrwt>
<pdfrwt beam="2">  1        2 0.11342064E+00 0.10926924E+03</pdfrwt>
<totfact> 0.25687693E+05</totfact>
</mgrwt>
</event>
<event>
 4    1  0.5006371E+003  0.1777850E+03  0.7546771E-02  0.1169964E+00
          2   -1    0    0  502    0 -0.00000000000E+00  0.00000000000E+00  0.63081346482E+03  0.63081346482E+03  0.00000000000E+00 0.  1.
         21   -1    0    0  503  502  0.00000000000E+00 -0.00000000000E+00 -0.10224326085E+03  0.10224326085E+03  0.00000000000E+00 0. -1.
         21    1    1    2  503  501  0.60589245332E+02  0.16714205563E+03  0.25485044818E+01  0.17780331348E+03  0.00000000000E+00 0. -1.
          2    1    1    2  501    0 -0.60589245332E+02 -0.16714205563E+03  0.52602169950E+03  0.55525341219E+03  0.00000000000E+00 0.  1.
<mgrwt>
<rscale>  2 0.17778505E+03</rscale>
<asrwt>0</asrwt>
<pdfrwt beam="2">  1       21 0.15729733E-01 0.17778505E+03</pdfrwt>
<pdfrwt beam="1">  1        2 0.97048224E-01 0.17778505E+03</pdfrwt>
<totfact> 0.21575735E+04</totfact>
</mgrwt>
</event>
<event>
 4    1  0.5006371E+003  0.1376559E+03  0.7546771E-02  0.1216518E+00
          2   -1    0    0  503    0 -0.00000000000E+00  0.00000000000E+00  0.12348965513E+03  0.12348965513E+03  0.00000000000E+00 0.  1.
         21   -1    0    0  501  502  0.00000000000E+00 -0.00000000000E+00 -0.47906698549E+03  0.47906698549E+03  0.00000000000E+00 0. -1.
         21    1    1    2  503  502  0.12088995057E+03 -0.65838894218E+02 -0.42617354891E+03  0.44785380866E+03  0.00000000000E+00 0. -1.
          2    1    1    2  501    0 -0.12088995057E+03  0.65838894218E+02  0.70596218559E+02  0.15470283196E+03  0.00000000000E+00 0.  1.
<mgrwt>
<rscale>  2 0.13765588E+03</rscale>
<asrwt>0</asrwt>
<pdfrwt beam="2">  1       21 0.73702614E-01 0.13765588E+03</pdfrwt>
<pdfrwt beam="1">  1        2 0.18998408E-01 0.13765588E+03</pdfrwt>
<totfact> 0.60472675E+03</totfact>
</mgrwt>
</event>
<event>
 4    1  0.5006371E+003  0.1277995E+03  0.7546771E-02  0.1230758E+00
         21   -1    0    0  501  502  0.00000000000E+00  0.00000000000E+00  0.21867990034E+03  0.21867990034E+03  0.00000000000E+00 0. -1.
          1   -1    0    0  503    0 -0.00000000000E+00 -0.00000000000E+00 -0.29507209003E+03  0.29507209003E+03  0.00000000000E+00 0. -1.
         21    1    1    2  503  502 -0.11886297943E+03 -0.46949977411E+02  0.18380229659E+03  0.22386601460E+03  0.00000000000E+00 0. -1.
          1    1    1    2  501    0  0.11886297943E+03  0.46949977411E+02 -0.26019448628E+03  0.28988597577E+03  0.00000000000E+00 0. -1.
<mgrwt>
<rscale>  2 0.12779948E+03</rscale>
<asrwt>0</asrwt>
<pdfrwt beam="1">  1       21 0.33643061E-01 0.12779948E+03</pdfrwt>
<pdfrwt beam="2">  1        1 0.45395706E-01 0.12779948E+03</pdfrwt>
<totfact> 0.84459812E+03</totfact>
</mgrwt>
</event>
<event>
 4    1  0.5006371E+003  0.1223367E+03  0.7546771E-02  0.1239291E+00
          2   -1    0    0  503    0 -0.00000000000E+00  0.00000000000E+00  0.44577756444E+03  0.44577756444E+03  0.00000000000E+00 0. -1.
         21   -1    0    0  501  502  0.00000000000E+00 -0.00000000000E+00 -0.78517080944E+02  0.78517080944E+02  0.00000000000E+00 0.  1.
         21    1    1    2  503  502 -0.72159212397E+02 -0.98789305725E+02 -0.14703936392E+02  0.12321722528E+03  0.00000000000E+00 0.  1.
          2    1    1    2  501    0  0.72159212397E+02  0.98789305725E+02  0.38196441989E+03  0.40107742011E+03  0.00000000000E+00 0. -1.
<mgrwt>
<rscale>  2 0.12233674E+03</rscale>
<asrwt>0</asrwt>
<pdfrwt beam="2">  1       21 0.12079551E-01 0.12233674E+03</pdfrwt>
<pdfrwt beam="1">  1        2 0.68581162E-01 0.12233674E+03</pdfrwt>
<totfact> 0.51207568E+04</totfact>
</mgrwt>
</event>
<event>
 4    1  0.5006371E+003  0.1024906E+03  0.7546771E-02  0.1275144E+00
         21   -1    0    0  503  502  0.00000000000E+00  0.00000000000E+00  0.11061998125E+03  0.11061998125E+03  0.00000000000E+00 0. -1.
          4   -1    0    0  502    0 -0.00000000000E+00 -0.00000000000E+00 -0.15258477487E+03  0.15258477487E+03  0.00000000000E+00 0.  1.
         21    1    1    2  503  501  0.58288424221E+02  0.84301689868E+02  0.59893320057E+02  0.11870772974E+03  0.00000000000E+00 0. -1.
          4    1    1    2  501    0 -0.58288424221E+02 -0.84301689868E+02 -0.10185811367E+03  0.14449702638E+03  0.00000000000E+00 0.  1.
<mgrwt>
<rscale>  2 0.10249056E+03</rscale>
<asrwt>0</asrwt>
<pdfrwt beam="1">  1       21 0.17018459E-01 0.10249056E+03</pdfrwt>
<pdfrwt beam="2">  1        4 0.23474581E-01 0.10249056E+03</pdfrwt>
<totfact> 0.20730911E+04</totfact>
</mgrwt>
</event>
<event>
 4    1  0.5006371E+003  0.1764923E+03  0.7546771E-02  0.1171242E+00
         21   -1    0    0  503  502  0.00000000000E+00  0.00000000000E+00  0.15869351623E+03  0.15869351623E+03  0.00000000000E+00 0.  1.
         -1   -1    0    0    0  501 -0.00000000000E+00 -0.00000000000E+00 -0.20912345339E+03  0.20912345339E+03  0.00000000000E+00 0.  1.
         21    1    1    2  503  501  0.13838478749E+02  0.17594891585E+03  0.20348582211E+02  0.17766144568E+03  0.00000000000E+00 0.  1.
         -1    1    1    2    0  502 -0.13838478749E+02 -0.17594891585E+03 -0.70778519367E+02  0.19015552394E+03  0.00000000000E+00 0.  1.
<mgrwt>
<rscale>  2 0.17649228E+03</rscale>
<asrwt>0</asrwt>
<pdfrwt beam="1">  1       21 0.24414387E-01 0.17649228E+03</pdfrwt>
<pdfrwt beam="2">  1       -1 0.32172839E-01 0.17649228E+03</pdfrwt>
<totfact> 0.13159976E+04</totfact>
</mgrwt>
</event>
<event>
 4    1  0.5006371E+003  0.1160867E+03  0.7546771E-02  0.1249696E+00
          2   -1    0    0  503    0 -0.00000000000E+00  0.00000000000E+00  0.17111209004E+04  0.17111209004E+04  0.00000000000E+00 0.  1.
         21   -1    0    0  501  502  0.00000000000E+00 -0.00000000000E+00 -0.36675775046E+02  0.36675775046E+02  0.00000000000E+00 0. -1.
         21    1    1    2  503  502  0.10560941986E+03  0.48195106987E+02  0.62816463992E+02  0.13199252270E+03  0.00000000000E+00 0. -1.
          2    1    1    2  501    0 -0.10560941986E+03 -0.48195106987E+02  0.16116286613E+04  0.16158041527E+04  0.00000000000E+00 0.  1.
<mgrwt>
<rscale>  2 0.11608668E+03</rscale>
<asrwt>0</asrwt>
<pdfrwt beam="2">  1       21 0.56424283E-02 0.11608668E+03</pdfrwt>
<pdfrwt beam="1">  1        2 0.26324931E+00 0.11608668E+03</pdfrwt>
<totfact> 0.30430267E+04</totfact>
</mgrwt>
</event>
<event>
 4    1  0.5006371E+003  0.1247021E+03  0.7546771E-02  0.1235536E+00
         21   -1    0    0  501  502  0.00000000000E+00  0.00000000000E+00  0.84042061017E+02  0.84042061017E+02  0.00000000000E+00 0. -1.
          2   -1    0    0  503    0 -0.00000000000E+00 -0.00000000000E+00 -0.14062027974E+04  0.14062027974E+04  0.00000000000E+00 0.  1.
         21    1    1    2  503  502 -0.67681318226E+02  0.10473708950E+03  0.33290591663E+02  0.12906929242E+03  0.00000000000E+00 0. -1.
          2    1    1    2  501    0  0.67681318226E+02 -0.10473708950E+03 -0.13554513280E+04  0.13611755660E+04  0.00000000000E+00 0.  1.
<mgrwt>
<rscale>  2 0.12470212E+03</rscale>
<asrwt>0</asrwt>
<pdfrwt beam="1">  1       21 0.12929548E-01 0.12470212E+03</pdfrwt>
<pdfrwt beam="2">  1        2 0.21633889E+00 0.12470212E+03</pdfrwt>
<totfact> 0.10378707E+04</totfact>
</mgrwt>
</event>
<event>
 4    1  0.5006371E+003  0.1036273E+03  0.7546771E-02  0.1272848E+00
          1   -1    0    0  502    0 -0.00000000000E+00  0.00000000000E+00  0.31096248658E+03  0.31096248658E+03  0.00000000000E+00 0. -1.
         21   -1    0    0  503  502  0.00000000000E+00 -0.00000000000E+00 -0.40589425405E+02  0.40589425405E+02  0.00000000000E+00 0. -1.
         21    1    1    2  503  501  0.10163539268E+03 -0.20220459784E+02  0.67290619523E+02  0.12355827579E+03  0.00000000000E+00 0. -1.
          1    1    1    2  501    0 -0.10163539268E+03  0.20220459784E+02  0.20308244165E+03  0.22799363620E+03  0.00000000000E+00 0. -1.
<mgrwt>
<rscale>  2 0.10362731E+03</rscale>
<asrwt>0</asrwt>
<pdfrwt beam="2">  1       21 0.62445272E-02 0.10362731E+03</pdfrwt>
<pdfrwt beam="1">  1        1 0.47840381E-01 0.10362731E+03</pdfrwt>
<totfact> 0.16428284E+05</totfact>
</mgrwt>
</event>
<event>
 4    1  0.5006371E+003  0.2114014E+03  0.7546771E-02  0.1140461E+00
          1   -1    0    0  503    0 -0.00000000000E+00  0.00000000000E+00  0.17287033549E+04  0.17287033549E+04  0.00000000000E+00 0.  1.
         21   -1    0    0  501  502  0.00000000000E+00 -0.00000000000E+00 -0.31140246512E+02  0.31140246512E+02  0.00000000000E+00 0.  1.
         21    1    1    2  503  502 -0.17136524460E+03 -0.12379219177E+03  0.48617456002E+03  0.53014739140E+03  0.00000000000E+00 0.  1.
          1    1    1    2  501    0  0.17136524460E+03  0.12379219177E+03  0.12113885483E+04  0.12296962100E+04  0.00000000000E+00 0.  1.
<mgrwt>
<rscale>  2 0.21140140E+03</rscale>
<asrwt>0</asrwt>
<pdfrwt beam="2">  1       21 0.47908085E-02 0.21140140E+03</pdfrwt>
<pdfrwt beam="1">  1        1 0.26595429E+00 0.21140140E+03</pdfrwt>
<totfact> 0.16598256E+04</totfact>
</mgrwt>
</event>
<event>
 4    1  0.5006371E+003  0.1123863E+03  0.7546771E-02  0.1256214E+00
         21   -1    0    0  501  502  0.00000000000E+00  0.00000000000E+00  0.77314832927E+01  0.77314832927E+01  0.00000000000E+00 0. -1.
          1   -1    0    0  503    0 -0.00000000000E+00 -0.00000000000E+00 -0.31217849583E+04  0.31217849583E+04  0.00000000000E+00 0. -1.
         21    1    1    2  503  502 -0.14450221411E+01 -0.11237705001E+03 -0.47667781044E+03  0.48974730671E+03  0.00000000000E+00 0. -1.
          1    1    1    2  501    0  0.14450221411E+01  0.11237705001E+03 -0.26373756645E+04  0.26397691349E+04  0.00000000000E+00 0. -1.
<mgrwt>
<rscale>  2 0.11238634E+03</rscale>
<asrwt>0</asrwt>
<pdfrwt beam="1">  1       21 0.11894585E-02 0.11238634E+03</pdfrwt>
<pdfrwt beam="2">  1        1 0.48027479E+00 0.11238634E+03</pdfrwt>
<totfact> 0.20335992E+04</totfact>
</mgrwt>
</event>
<event>
 4    1  0.5006371E+003  0.1480411E+03  0.7546771E-02  0.1202901E+00
         -1   -1    0    0    0  501 -0.00000000000E+00  0.00000000000E+00  0.20677191207E+03  0.20677191207E+03  0.00000000000E+00 0.  1.
         21   -1    0    0  503  502  0.00000000000E+00 -0.00000000000E+00 -0.10856126910E+03  0.10856126910E+03  0.00000000000E+00 0.  1.
         21    1    1    2  503  501 -0.14608440137E+03  0.23990171635E+02  0.24850278433E+02  0.15011234791E+03  0.00000000000E+00 0.  1.
         -1    1    1    2    0  502  0.14608440137E+03 -0.23990171635E+02  0.73360364534E+02  0.16522083326E+03  0.00000000000E+00 0.  1.
<mgrwt>
<rscale>  2 0.14804115E+03</rscale>
<asrwt>0</asrwt>
<pdfrwt beam="2">  1       21 0.16701734E-01 0.14804115E+03</pdfrwt>
<pdfrwt beam="1">  1       -1 0.31811063E-01 0.14804115E+03</pdfrwt>
<totfact> 0.27198723E+04</totfact>
</mgrwt>
</event>
<event>
 4    1  0.5006371E+003  0.1014520E+03  0.7546771E-02  0.1277272E+00
          1   -1    0    0  502    0 -0.00000000000E+00  0.00000000000E+00  0.16973496469E+04  0.16973496469E+04  0.00000000000E+00 0.  1.
         21   -1    0    0  503  502  0.00000000000E+00 -0.00000000000E+00 -0.18112083340E+02  0.18112083340E+02  0.00000000000E+00 0. -1.
         21    1    1    2  503  501  0.97664338150E+02 -0.27462606018E+02  0.14005381591E+03  0.17293810750E+03  0.00000000000E+00 0. -1.
          1    1    1    2  501    0 -0.97664338150E+02  0.27462606018E+02  0.15391837477E+04  0.15425236228E+04  0.00000000000E+00 0.  1.
<mgrwt>
<rscale>  2 0.10145205E+03</rscale>
<asrwt>0</asrwt>
<pdfrwt beam="2">  1       21 0.27864757E-02 0.10145205E+03</pdfrwt>
<pdfrwt beam="1">  1        1 0.26113059E+00 0.10145205E+03</pdfrwt>
<totfact> 0.43936516E+04</totfact>
</mgrwt>
</event>
<event>
 4    1  0.5006371E+003  0.1047074E+03  0.7546771E-02  0.1270697E+00
         21   -1    0    0  501  502  0.00000000000E+00  0.00000000000E+00  0.79662064977E+03  0.79662064977E+03  0.00000000000E+00 0. -1.
         -2   -1    0    0    0  501 -0.00000000000E+00 -0.00000000000E+00 -0.26087498997E+02  0.26087498997E+02  0.00000000000E+00 0.  1.
         21    1    1    2  503  502  0.25643271976E+02 -0.10151879013E+03  0.66800816760E+03  0.67616459100E+03  0.00000000000E+00 0. -1.
         -2    1    1    2    0  503 -0.25643271976E+02  0.10151879013E+03  0.10252498317E+03  0.14654355776E+03  0.00000000000E+00 0.  1.
<mgrwt>
<rscale>  2 0.10470741E+03</rscale>
<asrwt>0</asrwt>
<pdfrwt beam="1">  1       21 0.12255700E+00 0.10470741E+03</pdfrwt>
<pdfrwt beam="2">  1       -2 0.40134620E-02 0.10470741E+03</pdfrwt>
<totfact> 0.10745695E+04</totfact>
</mgrwt>
</event>
<event>
 4    1  0.5006371E+003  0.1292776E+03  0.7546771E-02  0.1228532E+00
         21   -1    0    0  501  502  0.00000000000E+00  0.00000000000E+00  0.34264267212E+02  0.34264267212E+02  0.00000000000E+00 0.  1.
          1   -1    0    0  503    0 -0.00000000000E+00 -0.00000000000E+00 -0.90934297340E+03  0.90934297340E+03  0.00000000000E+00 0.  1.
         21    1    1    2  503  502 -0.93296095459E+02  0.89490354784E+02 -0.11629185528E+03  0.17388640151E+03  0.00000000000E+00 0.  1.
          1    1    1    2  501    0  0.93296095459E+02 -0.89490354784E+02 -0.75878685092E+03  0.76972083910E+03  0.00000000000E+00 0.  1.
<mgrwt>
<rscale>  2 0.12927755E+03</rscale>
<asrwt>0</asrwt>
<pdfrwt beam="1">  1       21 0.52714256E-02 0.12927755E+03</pdfrwt>
<pdfrwt beam="2">  1        1 0.13989892E+00 0.12927755E+03</pdfrwt>
<totfact> 0.51913064E+04</totfact>
</mgrwt>
</event>
<event>
 4    1  0.5006371E+003  0.1106110E+03  0.7546771E-02  0.1259443E+00
         21   -1    0    0  501  502  0.00000000000E+00  0.00000000000E+00  0.27302977403E+02  0.27302977403E+02  0.00000000000E+00 0. -1.
          2   -1    0    0  503    0 -0.00000000000E+00 -0.00000000000E+00 -0.88691710731E+03  0.88691710731E+03  0.00000000000E+00 0. -1.
         21    1    1    2  503  502  0.10077909345E+03 -0.45589197857E+02 -0.10828193426E+03  0.15478946322E+03  0.00000000000E+00 0. -1.
          2    1    1    2  501    0 -0.10077909345E+03  0.45589197857E+02 -0.75133219565E+03  0.75943062149E+03  0.00000000000E+00 0. -1.
<mgrwt>
<rscale>  2 0.11061103E+03</rscale>
<asrwt>0</asrwt>
<pdfrwt beam="1">  1       21 0.42004584E-02 0.11061103E+03</pdfrwt>
<pdfrwt beam="2">  1        2 0.13644878E+00 0.11061103E+03</pdfrwt>
<totfact> 0.14044182E+05</totfact>
</mgrwt>
</event>
<event>
 4    1  0.5006371E+003  0.1297008E+03  0.7546771E-02  0.1227900E+00
         21   -1    0    0  503  502  0.00000000000E+00  0.00000000000E+00  0.54757896634E+02  0.54757896634E+02  0.00000000000E+00 0.  1.
          2   -1    0    0  502    0 -0.00000000000E+00 -0.00000000000E+00 -0.13302960510E+04  0.13302960510E+04  0.00000000000E+00 0.  1.
         21    1    1    2  503  501 -0.52452629799E+01 -0.12959465238E+03 -0.30448235220E+02  0.13322680563E+03  0.00000000000E+00 0.  1.
          2    1    1    2  501    0  0.52452629799E+01  0.12959465238E+03 -0.12450899191E+04  0.12518271420E+04  0.00000000000E+00 0.  1.
<mgrwt>
<rscale>  2 0.12970076E+03</rscale>
<asrwt>0</asrwt>
<pdfrwt beam="1">  1       21 0.84242922E-02 0.12970076E+03</pdfrwt>
<pdfrwt beam="2">  1        2 0.20466092E+00 0.12970076E+03</pdfrwt>
<totfact> 0.24096645E+04</totfact>
</mgrwt>
</event>
<event>
 4    1  0.5006371E+003  0.2848820E+03  0.7546771E-02  0.1093052E+00
          2   -1    0    0  502    0 -0.00000000000E+00  0.00000000000E+00  0.10186822805E+04  0.10186822805E+04  0.00000000000E+00 0. -1.
         21   -1    0    0  503  502  0.00000000000E+00 -0.00000000000E+00 -0.20076850015E+03  0.20076850015E+03  0.00000000000E+00 0. -1.
         21    1    1    2  503  501  0.28401855710E+03  0.22163857948E+02 -0.64583471632E+02  0.29211094157E+03  0.00000000000E+00 0. -1.
          2    1    1    2  501    0 -0.28401855710E+03 -0.22163857948E+02  0.88249725198E+03  0.92733983907E+03  0.00000000000E+00 0. -1.
<mgrwt>
<rscale>  2 0.28488204E+03</rscale>
<asrwt>0</asrwt>
<pdfrwt beam="2">  1       21 0.30887462E-01 0.28488204E+03</pdfrwt>
<pdfrwt beam="1">  1        2 0.15672035E+00 0.28488204E+03</pdfrwt>
<totfact> 0.31617720E+03</totfact>
</mgrwt>
</event>
<event>
 4    1  0.5006371E+003  0.2128299E+03  0.7546771E-02  0.1139344E+00
          4   -1    0    0  502    0 -0.00000000000E+00  0.00000000000E+00  0.13753459979E+04  0.13753459979E+04  0.00000000000E+00 0.  1.
         21   -1    0    0  503  502  0.00000000000E+00 -0.00000000000E+00 -0.82991598210E+03  0.82991598210E+03  0.00000000000E+00 0. -1.
         21    1    1    2  503  501  0.20261348443E+03  0.65148558349E+02 -0.80781591688E+03  0.83538201698E+03  0.00000000000E+00 0. -1.
          4    1    1    2  501    0 -0.20261348443E+03 -0.65148558349E+02  0.13532459327E+04  0.13698799631E+04  0.00000000000E+00 0.  1.
<mgrwt>
<rscale>  2 0.21282988E+03</rscale>
<asrwt>0</asrwt>
<pdfrwt beam="2">  1       21 0.12767938E+00 0.21282988E+03</pdfrwt>
<pdfrwt beam="1">  1        4 0.21159169E+00 0.21282988E+03</pdfrwt>
<totfact> 0.23037422E+00</totfact>
</mgrwt>
</event>
<event>
 4    1  0.5006371E+003  0.1164031E+03  0.7546771E-02  0.1249152E+00
         21   -1    0    0  501  502  0.00000000000E+00  0.00000000000E+00  0.53084979516E+03  0.53084979516E+03  0.00000000000E+00 0.  1.
          1   -1    0    0  503    0 -0.00000000000E+00 -0.00000000000E+00 -0.44868506921E+02  0.44868506921E+02  0.00000000000E+00 0. -1.
         21    1    1    2  503  502  0.24879263853E+02  0.11371328346E+03  0.43199950976E+03  0.44740726976E+03  0.00000000000E+00 0.  1.
          1    1    1    2  501    0 -0.24879263853E+02 -0.11371328346E+03  0.53981778474E+02  0.12831103231E+03  0.00000000000E+00 0. -1.
<mgrwt>
<rscale>  2 0.11640313E+03</rscale>
<asrwt>0</asrwt>
<pdfrwt beam="1">  1       21 0.81669195E-01 0.11640313E+03</pdfrwt>
<pdfrwt beam="2">  1        1 0.69028476E-02 0.11640313E+03</pdfrwt>
<totfact> 0.14883954E+04</totfact>
</mgrwt>
</event>
<event>
 4    1  0.5006371E+003  0.1124106E+03  0.7546771E-02  0.1256170E+00
         21   -1    0    0  501  502  0.00000000000E+00  0.00000000000E+00  0.10967544450E+02  0.10967544450E+02  0.00000000000E+00 0.  1.
          2   -1    0    0  503    0 -0.00000000000E+00 -0.00000000000E+00 -0.12586507742E+04  0.12586507742E+04  0.00000000000E+00 0.  1.
         21    1    1    2  503  502  0.49377075655E+02 -0.10098534758E+03 -0.43917460865E+03  0.45333262943E+03  0.00000000000E+00 0.  1.
          2    1    1    2  501    0 -0.49377075655E+02  0.10098534758E+03 -0.80850862112E+03  0.81628568923E+03  0.00000000000E+00 0.  1.
<mgrwt>
<rscale>  2 0.11241057E+03</rscale>
<asrwt>0</asrwt>
<pdfrwt beam="1">  1       21 0.16873152E-02 0.11241057E+03</pdfrwt>
<pdfrwt beam="2">  1        2 0.19363850E+00 0.11241057E+03</pdfrwt>
<totfact> 0.37811225E+05</totfact>
</mgrwt>
</event>
<event>
 4    1  0.5006371E+003  0.1752786E+03  0.7546771E-02  0.1172452E+00
         21   -1    0    0  501  502  0.00000000000E+00  0.00000000000E+00  0.76330785883E+03  0.76330785883E+03  0.00000000000E+00 0. -1.
          1   -1    0    0  503    0 -0.00000000000E+00 -0.00000000000E+00 -0.24214463063E+03  0.24214463063E+03  0.00000000000E+00 0.  1.
         21    1    1    2  503  502 -0.17772234415E+02  0.17437525630E+03  0.71962877804E+03  0.74066737508E+03  0.00000000000E+00 0. -1.
          1    1    1    2  501    0  0.17772234415E+02 -0.17437525630E+03 -0.19846554984E+03  0.26478511438E+03  0.00000000000E+00 0.  1.
<mgrwt>
<rscale>  2 0.17527858E+03</rscale>
<asrwt>0</asrwt>
<pdfrwt beam="1">  1       21 0.11743198E+00 0.17527858E+03</pdfrwt>
<pdfrwt beam="2">  1        1 0.37253021E-01 0.17527858E+03</pdfrwt>
<totfact> 0.70462097E+02</totfact>
</mgrwt>
</event>
<event>
 4    1  0.5006371E+003  0.1910539E+03  0.7546771E-02  0.1157514E+00
         21   -1    0    0  501  502  0.00000000000E+00  0.00000000000E+00  0.28609533324E+03  0.28609533324E+03  0.00000000000E+00 0.  1.
          2   -1    0    0  503    0 -0.00000000000E+00 -0.00000000000E+00 -0.44019569375E+04  0.44019569375E+04  0.00000000000E+00 0.  1.
         21    1    1    2  503  502 -0.15164216372E+03 -0.11621641681E+03  0.25187616499E+03  0.31613795065E+03  0.00000000000E+00 0.  1.
          2    1    1    2  501    0  0.15164216372E+03  0.11621641681E+03 -0.43677377693E+04  0.43719143201E+04  0.00000000000E+00 0.  1.
<mgrwt>
<rscale>  2 0.19105392E+03</rscale>
<asrwt>0</asrwt>
<pdfrwt beam="1">  1       21 0.44014669E-01 0.19105392E+03</pdfrwt>
<pdfrwt beam="2">  1        2 0.67722411E+00 0.19105392E+03</pdfrwt>
<totfact> 0.14011568E+01</totfact>
</mgrwt>
</event>
<event>
 4    1  0.5006371E+003  0.1436412E+03  0.7546771E-02  0.1208512E+00
          1   -1    0    0  502    0 -0.00000000000E+00  0.00000000000E+00  0.12881814439E+04  0.12881814439E+04  0.00000000000E+00 0.  1.
         21   -1    0    0  503  502  0.00000000000E+00 -0.00000000000E+00 -0.18457094643E+02  0.18457094643E+02  0.00000000000E+00 0.  1.
         21    1    1    2  503  501 -0.12536608537E+03  0.70115133130E+02  0.39731593205E+03  0.42248400812E+03  0.00000000000E+00 0.  1.
          1    1    1    2  501    0  0.12536608537E+03 -0.70115133130E+02  0.87240841720E+03  0.88415453041E+03  0.00000000000E+00 0.  1.
<mgrwt>
<rscale>  2 0.14364118E+03</rscale>
<asrwt>0</asrwt>
<pdfrwt beam="2">  1       21 0.28395540E-02 0.14364118E+03</pdfrwt>
<pdfrwt beam="1">  1        1 0.19818169E+00 0.14364118E+03</pdfrwt>
<totfact> 0.78158630E+04</totfact>
</mgrwt>
</event>
<event>
 4    1  0.5006371E+003  0.1026488E+03  0.7546771E-02  0.1274823E+00
         -1   -1    0    0    0  501 -0.00000000000E+00  0.00000000000E+00  0.50444861249E+03  0.50444861249E+03  0.00000000000E+00 0. -1.
         21   -1    0    0  501  502  0.00000000000E+00 -0.00000000000E+00 -0.33651432806E+03  0.33651432806E+03  0.00000000000E+00 0.  1.
         21    1    1    2  503  502  0.53104796490E+02 -0.87844472142E+02 -0.32325548420E+03  0.33916202435E+03  0.00000000000E+00 0.  1.
         -1    1    1    2    0  503 -0.53104796490E+02  0.87844472142E+02  0.49118976863E+03  0.50180091620E+03  0.00000000000E+00 0. -1.
<mgrwt>
<rscale>  2 0.10264877E+03</rscale>
<asrwt>0</asrwt>
<pdfrwt beam="2">  1       21 0.51771435E-01 0.10264877E+03</pdfrwt>
<pdfrwt beam="1">  1       -1 0.77607479E-01 0.10264877E+03</pdfrwt>
<totfact> 0.60615610E+02</totfact>
</mgrwt>
</event>
<event>
 4    1  0.5006371E+003  0.1299917E+03  0.7546771E-02  0.1227468E+00
          1   -1    0    0  503    0 -0.00000000000E+00  0.00000000000E+00  0.70243842209E+03  0.70243842209E+03  0.00000000000E+00 0.  1.
         21   -1    0    0  501  502  0.00000000000E+00 -0.00000000000E+00 -0.24071549556E+02  0.24071549556E+02  0.00000000000E+00 0.  1.
         21    1    1    2  503  502 -0.46288229871E+02  0.12147111530E+03  0.34842715684E+03  0.37188615960E+03  0.00000000000E+00 0.  1.
          1    1    1    2  501    0  0.46288229871E+02 -0.12147111530E+03  0.32993971570E+03  0.35462381205E+03  0.00000000000E+00 0.  1.
<mgrwt>
<rscale>  2 0.12999166E+03</rscale>
<asrwt>0</asrwt>
<pdfrwt beam="2">  1       21 0.37033158E-02 0.12999166E+03</pdfrwt>
<pdfrwt beam="1">  1        1 0.10806743E+00 0.12999166E+03</pdfrwt>
<totfact> 0.13811017E+05</totfact>
</mgrwt>
</event>
<event>
 4    1  0.5006371E+003  0.1079451E+03  0.7546771E-02  0.1264423E+00
         21   -1    0    0  503  502  0.00000000000E+00  0.00000000000E+00  0.15817781030E+03  0.15817781030E+03  0.00000000000E+00 0. -1.
          2   -1    0    0  502    0 -0.00000000000E+00 -0.00000000000E+00 -0.43993400750E+03  0.43993400750E+03  0.00000000000E+00 0. -1.
         21    1    1    2  503  501 -0.65351727760E+02  0.85914475003E+02  0.13199378744E+03  0.17051247831E+03  0.00000000000E+00 0. -1.
          2    1    1    2  501    0  0.65351727760E+02 -0.85914475003E+02 -0.41374998464E+03  0.42759933949E+03  0.00000000000E+00 0. -1.
<mgrwt>
<rscale>  2 0.10794510E+03</rscale>
<asrwt>0</asrwt>
<pdfrwt beam="1">  1       21 0.24335047E-01 0.10794510E+03</pdfrwt>
<pdfrwt beam="2">  1        2 0.67682156E-01 0.10794510E+03</pdfrwt>
<totfact> 0.14532760E+04</totfact>
</mgrwt>
</event>
<event>
 4    1  0.5006371E+003  0.1062358E+03  0.7546771E-02  0.1267704E+00
         21   -1    0    0  501  502  0.00000000000E+00  0.00000000000E+00  0.50628477203E+02  0.50628477203E+02  0.00000000000E+00 0. -1.
         -4   -1    0    0    0  501 -0.00000000000E+00 -0.00000000000E+00 -0.35847938940E+03  0.35847938940E+03  0.00000000000E+00 0.  1.
         21    1    1    2  503  502  0.33163223773E+02  0.10092693790E+03 -0.28136576865E+02  0.10989864951E+03  0.00000000000E+00 0. -1.
         -4    1    1    2    0  503 -0.33163223773E+02 -0.10092693790E+03 -0.27971433533E+03  0.29920921710E+03  0.00000000000E+00 0.  1.
<mgrwt>
<rscale>  2 0.10623580E+03</rscale>
<asrwt>0</asrwt>
<pdfrwt beam="1">  1       21 0.77889962E-02 0.10623580E+03</pdfrwt>
<pdfrwt beam="2">  1       -4 0.55150677E-01 0.10623580E+03</pdfrwt>
<totfact> 0.15809814E+04</totfact>
</mgrwt>
</event>
<event>
 4    1  0.5006371E+003  0.1120323E+03  0.7546771E-02  0.1256852E+00
          1   -1    0    0  503    0 -0.00000000000E+00  0.00000000000E+00  0.19105239911E+04  0.19105239911E+04  0.00000000000E+00 0.  1.
         21   -1    0    0  501  502  0.00000000000E+00 -0.00000000000E+00 -0.24570029850E+02  0.24570029850E+02  0.00000000000E+00 0. -1.
         21    1    1    2  503  502  0.98090539049E+02 -0.54124767303E+02  0.11482219027E+03  0.16042250361E+03  0.00000000000E+00 0. -1.
          1    1    1    2  501    0 -0.98090539049E+02  0.54124767303E+02  0.17711317710E+04  0.17746715174E+04  0.00000000000E+00 0.  1.
<mgrwt>
<rscale>  2 0.11203234E+03</rscale>
<asrwt>0</asrwt>
<pdfrwt beam="2">  1       21 0.37800061E-02 0.11203234E+03</pdfrwt>
<pdfrwt beam="1">  1        1 0.29392665E+00 0.11203234E+03</pdfrwt>
<totfact> 0.19503850E+04</totfact>
</mgrwt>
</event>
<event>
 4    1  0.5006371E+003  0.1015576E+03  0.7546771E-02  0.1277054E+00
          1   -1    0    0  502    0 -0.00000000000E+00  0.00000000000E+00  0.40183000919E+02  0.40183000919E+02  0.00000000000E+00 0.  1.
         21   -1    0    0  503  502  0.00000000000E+00 -0.00000000000E+00 -0.43588736817E+03  0.43588736817E+03  0.00000000000E+00 0. -1.
         21    1    1    2  503  501 -0.53403457084E+02  0.86382970011E+02 -0.35048178083E+03  0.36489919900E+03  0.00000000000E+00 0. -1.
          1    1    1    2  501    0  0.53403457084E+02 -0.86382970011E+02 -0.45222586420E+02  0.11117117009E+03  0.00000000000E+00 0.  1.
<mgrwt>
<rscale>  2 0.10155760E+03</rscale>
<asrwt>0</asrwt>
<pdfrwt beam="2">  1       21 0.67059592E-01 0.10155760E+03</pdfrwt>
<pdfrwt beam="1">  1        1 0.61820005E-02 0.10155760E+03</pdfrwt>
<totfact> 0.26583438E+04</totfact>
</mgrwt>
</event>
<event>
 4    1  0.5006371E+003  0.1986442E+03  0.7546771E-02  0.1150888E+00
          1   -1    0    0  502    0 -0.00000000000E+00  0.00000000000E+00  0.46437038290E+03  0.46437038290E+03  0.00000000000E+00 0. -1.
         21   -1    0    0  503  502  0.00000000000E+00 -0.00000000000E+00 -0.14072198414E+03  0.14072198414E+03  0.00000000000E+00 0.  1.
         21    1    1    2  503  501 -0.19840780528E+03 -0.96891364127E+01 -0.28600911493E+02  0.20069267226E+03  0.00000000000E+00 0.  1.
          1    1    1    2  501    0  0.19840780528E+03  0.96891364127E+01  0.35224931026E+03  0.40439969478E+03  0.00000000000E+00 0. -1.
<mgrwt>
<rscale>  2 0.19864425E+03</rscale>
<asrwt>0</asrwt>
<pdfrwt beam="2">  1       21 0.21649536E-01 0.19864425E+03</pdfrwt>
<pdfrwt beam="1">  1        1 0.71441597E-01 0.19864425E+03</pdfrwt>
<totfact> 0.10925025E+04</totfact>
</mgrwt>
</event>
<event>
 4    1  0.5006371E+003  0.1087601E+03  0.7546771E-02  0.1262883E+00
         21   -1    0    0  503  502  0.00000000000E+00  0.00000000000E+00  0.17138613631E+02  0.17138613631E+02  0.00000000000E+00 0.  1.
         -3   -1    0    0    0  501 -0.00000000000E+00 -0.00000000000E+00 -0.74532297311E+03  0.74532297311E+03  0.00000000000E+00 0.  1.
         21    1    1    2  503  501  0.68093180865E+02  0.84806060505E+02 -0.26039760769E+03  0.28219791507E+03  0.00000000000E+00 0.  1.
         -3    1    1    2    0  502 -0.68093180865E+02 -0.84806060505E+02 -0.46778675179E+03  0.48026367167E+03  0.00000000000E+00 0.  1.
<mgrwt>
<rscale>  2 0.10876005E+03</rscale>
<asrwt>0</asrwt>
<pdfrwt beam="1">  1       21 0.26367097E-02 0.10876005E+03</pdfrwt>
<pdfrwt beam="2">  1       -3 0.11466508E+00 0.10876005E+03</pdfrwt>
<totfact> 0.24345353E+04</totfact>
</mgrwt>
</event>
<event>
 4    1  0.5006371E+003  0.1008569E+03  0.7546771E-02  0.1278504E+00
         21   -1    0    0  503  502  0.00000000000E+00  0.00000000000E+00  0.36316310982E+03  0.36316310982E+03  0.00000000000E+00 0. -1.
         -2   -1    0    0    0  501 -0.00000000000E+00 -0.00000000000E+00 -0.12607544420E+03  0.12607544420E+03  0.00000000000E+00 0.  1.
         21    1    1    2  503  501  0.23982910974E+02 -0.97963935583E+02  0.33428545958E+03  0.34916884337E+03  0.00000000000E+00 0. -1.
         -2    1    1    2    0  502 -0.23982910974E+02  0.97963935583E+02 -0.97197793949E+02  0.14006971065E+03  0.00000000000E+00 0.  1.
<mgrwt>
<rscale>  2 0.10085689E+03</rscale>
<asrwt>0</asrwt>
<pdfrwt beam="1">  1       21 0.55871247E-01 0.10085689E+03</pdfrwt>
<pdfrwt beam="2">  1       -2 0.19396222E-01 0.10085689E+03</pdfrwt>
<totfact> 0.54033760E+03</totfact>
</mgrwt>
</event>
<event>
 4    1  0.5006371E+003  0.1119685E+03  0.7546771E-02  0.1256967E+00
          2   -1    0    0  503    0 -0.00000000000E+00  0.00000000000E+00  0.49596031376E+04  0.49596031376E+04  0.00000000000E+00 0. -1.
         21   -1    0    0  501  502  0.00000000000E+00 -0.00000000000E+00 -0.21524847419E+02  0.21524847419E+02  0.00000000000E+00 0.  1.
         21    1    1    2  503  502  0.10693157801E+03 -0.33205019767E+02  0.12928298023E+03  0.17102930945E+03  0.00000000000E+00 0.  1.
          2    1    1    2  501    0 -0.10693157801E+03  0.33205019767E+02  0.48087953100E+04  0.48100986756E+04  0.00000000000E+00 0. -1.
<mgrwt>
<rscale>  2 0.11196846E+03</rscale>
<asrwt>0</asrwt>
<pdfrwt beam="2">  1       21 0.33115189E-02 0.11196846E+03</pdfrwt>
<pdfrwt beam="1">  1        2 0.76301496E+00 0.11196846E+03</pdfrwt>
<totfact> 0.46368531E+02</totfact>
</mgrwt>
</event>
<event>
 4    1  0.5006371E+003  0.1277036E+03  0.7546771E-02  0.1230903E+00
          2   -1    0    0  503    0 -0.00000000000E+00  0.00000000000E+00  0.17585239857E+03  0.17585239857E+03  0.00000000000E+00 0.  1.
         21   -1    0    0  501  502  0.00000000000E+00 -0.00000000000E+00 -0.96644710551E+03  0.96644710551E+03  0.00000000000E+00 0. -1.
         21    1    1    2  503  502 -0.71021990300E+02  0.10613241821E+03 -0.93835303220E+03  0.94700297060E+03  0.00000000000E+00 0. -1.
          2    1    1    2  501    0  0.71021990300E+02 -0.10613241821E+03  0.14775832526E+03  0.19529653347E+03  0.00000000000E+00 0.  1.
<mgrwt>
<rscale>  2 0.12770362E+03</rscale>
<asrwt>0</asrwt>
<pdfrwt beam="2">  1       21 0.14868417E+00 0.12770362E+03</pdfrwt>
<pdfrwt beam="1">  1        2 0.27054214E-01 0.12770362E+03</pdfrwt>
<totfact> 0.77492255E+02</totfact>
</mgrwt>
</event>
<event>
 4    1  0.5006371E+003  0.1120684E+03  0.7546771E-02  0.1256787E+00
         -3   -1    0    0    0  501 -0.00000000000E+00  0.00000000000E+00  0.30678193814E+03  0.30678193814E+03  0.00000000000E+00 0. -1.
         21   -1    0    0  501  502  0.00000000000E+00 -0.00000000000E+00 -0.74046916506E+02  0.74046916506E+02  0.00000000000E+00 0. -1.
         21    1    1    2  503  502 -0.81754836045E+01  0.11176978986E+03 -0.10957213073E+02  0.11260277517E+03  0.00000000000E+00 0. -1.
         -3    1    1    2    0  503  0.81754836045E+01 -0.11176978986E+03  0.24369223471E+03  0.26822607948E+03  0.00000000000E+00 0. -1.
<mgrwt>
<rscale>  2 0.11206839E+03</rscale>
<asrwt>0</asrwt>
<pdfrwt beam="2">  1       21 0.11391833E-01 0.11206839E+03</pdfrwt>
<pdfrwt beam="1">  1       -3 0.47197221E-01 0.11206839E+03</pdfrwt>
<totfact> 0.13782719E+04</totfact>
</mgrwt>
</event>
<event>
 4    1  0.5006371E+003  0.1252631E+03  0.7546771E-02  0.1234659E+00
         -4   -1    0    0    0  501 -0.00000000000E+00  0.00000000000E+00  0.95729754392E+02  0.95729754392E+02  0.00000000000E+00 0.  1.
         21   -1    0    0  501  502  0.00000000000E+00 -0.00000000000E+00 -0.17795565558E+03  0.17795565558E+03  0.00000000000E+00 0.  1.
         21    1    1    2  503  502 -0.12524820403E+03 -0.19303219561E+01 -0.79560896327E+02  0.14839398566E+03  0.00000000000E+00 0.  1.
         -4    1    1    2    0  503  0.12524820403E+03  0.19303219561E+01 -0.26650048563E+01  0.12529142431E+03  0.00000000000E+00 0.  1.
<mgrwt>
<rscale>  2 0.12526308E+03</rscale>
<asrwt>0</asrwt>
<pdfrwt beam="2">  1       21 0.27377793E-01 0.12526308E+03</pdfrwt>
<pdfrwt beam="1">  1       -4 0.14727655E-01 0.12526308E+03</pdfrwt>
<totfact> 0.20077296E+04</totfact>
</mgrwt>
</event>
<event>
 4    1  0.5006371E+003  0.1094696E+03  0.7546771E-02  0.1261555E+00
          1   -1    0    0  502    0 -0.00000000000E+00  0.00000000000E+00  0.88380303527E+03  0.88380303527E+03  0.00000000000E+00 0.  1.
         21   -1    0    0  503  502  0.00000000000E+00 -0.00000000000E+00 -0.11539408593E+03  0.11539408593E+03  0.00000000000E+00 0. -1.
         21    1    1    2  503  501  0.10382974182E+03 -0.34683927877E+02 -0.85125040622E+02  0.13867178041E+03  0.00000000000E+00 0. -1.
          1    1    1    2  501    0 -0.10382974182E+03  0.34683927877E+02  0.85353398996E+03  0.86052534080E+03  0.00000000000E+00 0.  1.
<mgrwt>
<rscale>  2 0.10946959E+03</rscale>
<asrwt>0</asrwt>
<pdfrwt beam="2">  1       21 0.17752937E-01 0.10946959E+03</pdfrwt>
<pdfrwt beam="1">  1        1 0.13596969E+00 0.10946959E+03</pdfrwt>
<totfact> 0.65510650E+03</totfact>
</mgrwt>
</event>
<event>
 4    1  0.5006371E+003  0.1856704E+03  0.7546771E-02  0.1162425E+00
         21   -1    0    0  501  502  0.00000000000E+00  0.00000000000E+00  0.71742193094E+03  0.71742193094E+03  0.00000000000E+00 0. -1.
          2   -1    0    0  503    0 -0.00000000000E+00 -0.00000000000E+00 -0.60066469545E+02  0.60066469545E+02  0.00000000000E+00 0. -1.
         21    1    1    2  503  502 -0.85995944174E+02 -0.16455459046E+03  0.50253836204E+03  0.53574090844E+03  0.00000000000E+00 0. -1.
          2    1    1    2  501    0  0.85995944174E+02  0.16455459046E+03  0.15481709936E+03  0.24174749205E+03  0.00000000000E+00 0. -1.
<mgrwt>
<rscale>  2 0.18567045E+03</rscale>
<asrwt>0</asrwt>
<pdfrwt beam="1">  1       21 0.11037260E+00 0.18567045E+03</pdfrwt>
<pdfrwt beam="2">  1        2 0.92409958E-02 0.18567045E+03</pdfrwt>
<totfact> 0.55513147E+03</totfact>
</mgrwt>
</event>
<event>
 4    1  0.5006371E+003  0.1251545E+03  0.7546771E-02  0.1234828E+00
         21   -1    0    0  501  502  0.00000000000E+00  0.00000000000E+00  0.21965735340E+03  0.21965735340E+03  0.00000000000E+00 0.  1.
          2   -1    0    0  503    0 -0.00000000000E+00 -0.00000000000E+00 -0.38459040930E+03  0.38459040930E+03  0.00000000000E+00 0. -1.
         21    1    1    2  503  502 -0.89441812742E+02 -0.87543183801E+02  0.19021318281E+03  0.22769431660E+03  0.00000000000E+00 0.  1.
          2    1    1    2  501    0  0.89441812742E+02  0.87543183801E+02 -0.35514623871E+03  0.37655344610E+03  0.00000000000E+00 0. -1.
<mgrwt>
<rscale>  2 0.12515449E+03</rscale>
<asrwt>0</asrwt>
<pdfrwt beam="1">  1       21 0.33793439E-01 0.12515449E+03</pdfrwt>
<pdfrwt beam="2">  1        2 0.59167755E-01 0.12515449E+03</pdfrwt>
<totfact> 0.89099101E+03</totfact>
</mgrwt>
</event>
<event>
 4    1  0.5006371E+003  0.1178914E+03  0.7546771E-02  0.1246617E+00
         21   -1    0    0  503  502  0.00000000000E+00  0.00000000000E+00  0.49701578985E+02  0.49701578985E+02  0.00000000000E+00 0. -1.
          2   -1    0    0  502    0 -0.00000000000E+00 -0.00000000000E+00 -0.19634877564E+04  0.19634877564E+04  0.00000000000E+00 0. -1.
         21    1    1    2  503  501  0.11366393051E+03 -0.31287344392E+02 -0.24729017565E+02  0.12045709331E+03  0.00000000000E+00 0. -1.
          2    1    1    2  501    0 -0.11366393051E+03  0.31287344392E+02 -0.18890571599E+04  0.18927322421E+04  0.00000000000E+00 0. -1.
<mgrwt>
<rscale>  2 0.11789142E+03</rscale>
<asrwt>0</asrwt>
<pdfrwt beam="1">  1       21 0.76463967E-02 0.11789142E+03</pdfrwt>
<pdfrwt beam="2">  1        2 0.30207504E+00 0.11789142E+03</pdfrwt>
<totfact> 0.13504335E+04</totfact>
</mgrwt>
</event>
<event>
 4    1  0.5006371E+003  0.2828962E+03  0.7546771E-02  0.1094118E+00
          2   -1    0    0  503    0 -0.00000000000E+00  0.00000000000E+00  0.61651747998E+03  0.61651747998E+03  0.00000000000E+00 0.  1.
         21   -1    0    0  501  502  0.00000000000E+00 -0.00000000000E+00 -0.82402056527E+03  0.82402056527E+03  0.00000000000E+00 0. -1.
         21    1    1    2  503  502 -0.26071572379E+03  0.10980698280E+03 -0.76485778244E+03  0.81549843008E+03  0.00000000000E+00 0. -1.
          2    1    1    2  501    0  0.26071572379E+03 -0.10980698280E+03  0.55735469715E+03  0.62503961517E+03  0.00000000000E+00 0.  1.
<mgrwt>
<rscale>  2 0.28289620E+03</rscale>
<asrwt>0</asrwt>
<pdfrwt beam="2">  1       21 0.12677239E+00 0.28289620E+03</pdfrwt>
<pdfrwt beam="1">  1        2 0.94848844E-01 0.28289620E+03</pdfrwt>
<totfact> 0.26742103E+02</totfact>
</mgrwt>
</event>
<event>
 4    1  0.5006371E+003  0.1108243E+03  0.7546771E-02  0.1259051E+00
          1   -1    0    0  503    0 -0.00000000000E+00  0.00000000000E+00  0.29788410854E+03  0.29788410854E+03  0.00000000000E+00 0. -1.
         21   -1    0    0  501  502  0.00000000000E+00 -0.00000000000E+00 -0.86903303369E+02  0.86903303369E+02  0.00000000000E+00 0.  1.
         21    1    1    2  503  502 -0.11054613751E+03  0.78466072386E+01 -0.33985713089E+02  0.11591827491E+03  0.00000000000E+00 0.  1.
          1    1    1    2  501    0  0.11054613751E+03 -0.78466072386E+01  0.24496651826E+03  0.26886913700E+03  0.00000000000E+00 0. -1.
<mgrwt>
<rscale>  2 0.11082427E+03</rscale>
<asrwt>0</asrwt>
<pdfrwt beam="2">  1       21 0.13369739E-01 0.11082427E+03</pdfrwt>
<pdfrwt beam="1">  1        1 0.45828324E-01 0.11082427E+03</pdfrwt>
<totfact> 0.46452192E+04</totfact>
</mgrwt>
</event>
<event>
 4    1  0.5006371E+003  0.1044175E+03  0.7546771E-02  0.1271272E+00
         21   -1    0    0  501  502  0.00000000000E+00  0.00000000000E+00  0.30612934912E+03  0.30612934912E+03  0.00000000000E+00 0.  1.
          2   -1    0    0  503    0 -0.00000000000E+00 -0.00000000000E+00 -0.89347371000E+02  0.89347371000E+02  0.00000000000E+00 0.  1.
         21    1    1    2  503  502 -0.40255387693E+02 -0.96345772505E+02  0.26173446519E+03  0.28179413477E+03  0.00000000000E+00 0.  1.
          2    1    1    2  501    0  0.40255387693E+02  0.96345772505E+02 -0.44952487077E+02  0.11368258535E+03  0.00000000000E+00 0.  1.
<mgrwt>
<rscale>  2 0.10441745E+03</rscale>
<asrwt>0</asrwt>
<pdfrwt beam="1">  1       21 0.47096822E-01 0.10441745E+03</pdfrwt>
<pdfrwt beam="2">  1        2 0.13745750E-01 0.10441745E+03</pdfrwt>
<totfact> 0.22788354E+04</totfact>
</mgrwt>
</event>
<event>
 4    1  0.5006371E+003  0.1234141E+03  0.7546771E-02  0.1237569E+00
          1   -1    0    0  502    0 -0.00000000000E+00  0.00000000000E+00  0.18216376404E+04  0.18216376404E+04  0.00000000000E+00 0. -1.
         21   -1    0    0  503  502  0.00000000000E+00 -0.00000000000E+00 -0.12577657134E+02  0.12577657134E+02  0.00000000000E+00 0. -1.
         21    1    1    2  503  501  0.14876369591E+02  0.12251420571E+03  0.37352890988E+03  0.39338897225E+03  0.00000000000E+00 0. -1.
          1    1    1    2  501    0 -0.14876369591E+02 -0.12251420571E+03  0.14355310734E+04  0.14408263253E+04  0.00000000000E+00 0. -1.
<mgrwt>
<rscale>  2 0.12341409E+03</rscale>
<asrwt>0</asrwt>
<pdfrwt beam="2">  1       21 0.19350256E-02 0.12341409E+03</pdfrwt>
<pdfrwt beam="1">  1        1 0.28025174E+00 0.12341409E+03</pdfrwt>
<totfact> 0.65925325E+04</totfact>
</mgrwt>
</event>
<event>
 4    1  0.5006371E+003  0.1300619E+03  0.7546771E-02  0.1227364E+00
          2   -1    0    0  502    0 -0.00000000000E+00  0.00000000000E+00  0.87427579943E+03  0.87427579943E+03  0.00000000000E+00 0.  1.
         21   -1    0    0  503  502  0.00000000000E+00 -0.00000000000E+00 -0.37607400565E+02  0.37607400565E+02  0.00000000000E+00 0. -1.
         21    1    1    2  503  501  0.11266879244E+03  0.64975646338E+02  0.10064122320E+03  0.16445287232E+03  0.00000000000E+00 0. -1.
          2    1    1    2  501    0 -0.11266879244E+03 -0.64975646338E+02  0.73602717566E+03  0.74743032767E+03  0.00000000000E+00 0.  1.
<mgrwt>
<rscale>  2 0.13006188E+03</rscale>
<asrwt>0</asrwt>
<pdfrwt beam="2">  1       21 0.57857546E-02 0.13006188E+03</pdfrwt>
<pdfrwt beam="1">  1        2 0.13450395E+00 0.13006188E+03</pdfrwt>
<totfact> 0.83904917E+04</totfact>
</mgrwt>
</event>
<event>
 4    1  0.5006371E+003  0.1073612E+03  0.7546771E-02  0.1265536E+00
         21   -1    0    0  503  502  0.00000000000E+00  0.00000000000E+00  0.71404228022E+03  0.71404228022E+03  0.00000000000E+00 0.  1.
         -4   -1    0    0    0  501 -0.00000000000E+00 -0.00000000000E+00 -0.17792592480E+02  0.17792592480E+02  0.00000000000E+00 0.  1.
         21    1    1    2  503  501  0.10502712139E+03 -0.22265225930E+02  0.45955839522E+03  0.47193257477E+03  0.00000000000E+00 0.  1.
         -4    1    1    2    0  502 -0.10502712139E+03  0.22265225930E+02  0.23669129253E+03  0.25990229794E+03  0.00000000000E+00 0.  1.
<mgrwt>
<rscale>  2 0.10736124E+03</rscale>
<asrwt>0</asrwt>
<pdfrwt beam="1">  1       21 0.10985264E+00 0.10736124E+03</pdfrwt>
<pdfrwt beam="2">  1       -4 0.27373225E-02 0.10736124E+03</pdfrwt>
<totfact> 0.16582579E+04</totfact>
</mgrwt>
</event>
<event>
 4    1  0.5006371E+003  0.1581493E+03  0.7546771E-02  0.1190802E+00
         21   -1    0    0  501  502  0.00000000000E+00  0.00000000000E+00  0.20298480516E+02  0.20298480516E+02  0.00000000000E+00 0.  1.
          2   -1    0    0  503    0 -0.00000000000E+00 -0.00000000000E+00 -0.27150518684E+04  0.27150518684E+04  0.00000000000E+00 0. -1.
         21    1    1    2  503  502  0.79910507340E+02  0.13647530132E+03 -0.33661902812E+03  0.37191876417E+03  0.00000000000E+00 0.  1.
          2    1    1    2  501    0 -0.79910507340E+02 -0.13647530132E+03 -0.23581343597E+04  0.23634315847E+04  0.00000000000E+00 0. -1.
<mgrwt>
<rscale>  2 0.15814929E+03</rscale>
<asrwt>0</asrwt>
<pdfrwt beam="1">  1       21 0.31228421E-02 0.15814929E+03</pdfrwt>
<pdfrwt beam="2">  1        2 0.41770043E+00 0.15814929E+03</pdfrwt>
<totfact> 0.24003355E+04</totfact>
</mgrwt>
</event>
<event>
 4    1  0.5006371E+003  0.1442612E+03  0.7546771E-02  0.1207707E+00
         21   -1    0    0  501  502  0.00000000000E+00  0.00000000000E+00  0.40743099574E+02  0.40743099574E+02  0.00000000000E+00 0. -1.
          1   -1    0    0  503    0 -0.00000000000E+00 -0.00000000000E+00 -0.11239811552E+04  0.11239811552E+04  0.00000000000E+00 0.  1.
         21    1    1    2  503  502  0.13920532330E+03 -0.37857422343E+02 -0.11147851857E+03  0.18231502012E+03  0.00000000000E+00 0. -1.
          1    1    1    2  501    0 -0.13920532330E+03  0.37857422343E+02 -0.97175953709E+03  0.98240923468E+03  0.00000000000E+00 0.  1.
<mgrwt>
<rscale>  2 0.14426124E+03</rscale>
<asrwt>0</asrwt>
<pdfrwt beam="1">  1       21 0.62681694E-02 0.14426124E+03</pdfrwt>
<pdfrwt beam="2">  1        1 0.17292017E+00 0.14426124E+03</pdfrwt>
<totfact> 0.26970913E+04</totfact>
</mgrwt>
</event>
<event>
 4    1  0.5006371E+003  0.1135087E+03  0.7546771E-02  0.1254207E+00
          1   -1    0    0  503    0 -0.00000000000E+00  0.00000000000E+00  0.74364766617E+03  0.74364766617E+03  0.00000000000E+00 0.  1.
         21   -1    0    0  501  502  0.00000000000E+00 -0.00000000000E+00 -0.35984484320E+02  0.35984484320E+02  0.00000000000E+00 0. -1.
         21    1    1    2  503  502 -0.10856542718E+03 -0.33132506305E+02  0.73130695881E+02  0.13502708481E+03  0.00000000000E+00 0. -1.
          1    1    1    2  501    0  0.10856542718E+03  0.33132506305E+02  0.63453248597E+03  0.64460506568E+03  0.00000000000E+00 0.  1.
<mgrwt>
<rscale>  2 0.11350866E+03</rscale>
<asrwt>0</asrwt>
<pdfrwt beam="2">  1       21 0.55360751E-02 0.11350866E+03</pdfrwt>
<pdfrwt beam="1">  1        1 0.11440732E+00 0.11350866E+03</pdfrwt>
<totfact> 0.64852913E+04</totfact>
</mgrwt>
</event>
<event>
 4    1  0.5006371E+003  0.1025583E+03  0.7546771E-02  0.1275006E+00
          3   -1    0    0  503    0 -0.00000000000E+00  0.00000000000E+00  0.73856118919E+02  0.73856118919E+02  0.00000000000E+00 0. -1.
         21   -1    0    0  501  502  0.00000000000E+00 -0.00000000000E+00 -0.23362877190E+03  0.23362877190E+03  0.00000000000E+00 0.  1.
         21    1    1    2  503  502 -0.28985890498E+02 -0.98376897208E+02 -0.17595052954E+03  0.20365849994E+03  0.00000000000E+00 0.  1.
          3    1    1    2  501    0  0.28985890498E+02  0.98376897208E+02  0.16177876563E+02  0.10382639088E+03  0.00000000000E+00 0. -1.
<mgrwt>
<rscale>  2 0.10255826E+03</rscale>
<asrwt>0</asrwt>
<pdfrwt beam="2">  1       21 0.35942888E-01 0.10255826E+03</pdfrwt>
<pdfrwt beam="1">  1        3 0.11362480E-01 0.10255826E+03</pdfrwt>
<totfact> 0.21009486E+04</totfact>
</mgrwt>
</event>
<event>
 4    1  0.5006371E+003  0.1235558E+03  0.7546771E-02  0.1237344E+00
         21   -1    0    0  501  502  0.00000000000E+00  0.00000000000E+00  0.36926891090E+03  0.36926891090E+03  0.00000000000E+00 0. -1.
          2   -1    0    0  503    0 -0.00000000000E+00 -0.00000000000E+00 -0.25880012865E+04  0.25880012865E+04  0.00000000000E+00 0. -1.
         21    1    1    2  503  502  0.10284497614E+03 -0.68475914256E+02  0.35741135895E+03  0.37816520128E+03  0.00000000000E+00 0. -1.
          2    1    1    2  501    0 -0.10284497614E+03  0.68475914256E+02 -0.25761437345E+04  0.25791049961E+04  0.00000000000E+00 0. -1.
<mgrwt>
<rscale>  2 0.12355582E+03</rscale>
<asrwt>0</asrwt>
<pdfrwt beam="1">  1       21 0.56810605E-01 0.12355582E+03</pdfrwt>
<pdfrwt beam="2">  1        2 0.39815402E+00 0.12355582E+03</pdfrwt>
<totfact> 0.14914371E+02</totfact>
</mgrwt>
</event>
<event>
 4    1  0.5006371E+003  0.1525359E+03  0.7546771E-02  0.1197391E+00
          2   -1    0    0  503    0 -0.00000000000E+00  0.00000000000E+00  0.29410381558E+04  0.29410381558E+04  0.00000000000E+00 0. -1.
         21   -1    0    0  501  502  0.00000000000E+00 -0.00000000000E+00 -0.84180078930E+01  0.84180078930E+01  0.00000000000E+00 0. -1.
         21    1    1    2  503  502  0.11593140980E+03  0.99131709763E+02  0.11044654024E+04  0.11149488835E+04  0.00000000000E+00 0. -1.
          2    1    1    2  501    0 -0.11593140980E+03 -0.99131709763E+02  0.18281547455E+04  0.18345072802E+04  0.00000000000E+00 0. -1.
<mgrwt>
<rscale>  2 0.15253586E+03</rscale>
<asrwt>0</asrwt>
<pdfrwt beam="2">  1       21 0.12950805E-02 0.15253586E+03</pdfrwt>
<pdfrwt beam="1">  1        2 0.45246659E+00 0.15253586E+03</pdfrwt>
<totfact> 0.74740111E+04</totfact>
</mgrwt>
</event>
<event>
 4    1  0.5006371E+003  0.1177074E+03  0.7546771E-02  0.1246928E+00
          2   -1    0    0  503    0 -0.00000000000E+00  0.00000000000E+00  0.59331190800E+03  0.59331190800E+03  0.00000000000E+00 0. -1.
         21   -1    0    0  501  502  0.00000000000E+00 -0.00000000000E+00 -0.28712887002E+02  0.28712887002E+02  0.00000000000E+00 0. -1.
         21    1    1    2  503  502 -0.11730297332E+03 -0.97489524372E+01  0.14791261615E+03  0.18903219736E+03  0.00000000000E+00 0. -1.
          2    1    1    2  501    0  0.11730297332E+03  0.97489524372E+01  0.41668640485E+03  0.43299259764E+03  0.00000000000E+00 0. -1.
<mgrwt>
<rscale>  2 0.11770739E+03</rscale>
<asrwt>0</asrwt>
<pdfrwt beam="2">  1       21 0.44173677E-02 0.11770739E+03</pdfrwt>
<pdfrwt beam="1">  1        2 0.91278746E-01 0.11770739E+03</pdfrwt>
<totfact> 0.20945032E+05</totfact>
</mgrwt>
</event>
<event>
 4    1  0.5006371E+003  0.1276943E+03  0.7546771E-02  0.1230918E+00
         -1   -1    0    0    0  501 -0.00000000000E+00  0.00000000000E+00  0.17818118828E+04  0.17818118828E+04  0.00000000000E+00 0. -1.
         21   -1    0    0  501  502  0.00000000000E+00 -0.00000000000E+00 -0.14577517032E+02  0.14577517032E+02  0.00000000000E+00 0.  1.
         21    1    1    2  503  502  0.94871175001E+02  0.85470946847E+02  0.33561925377E+03  0.35909066557E+03  0.00000000000E+00 0.  1.
         -1    1    1    2    0  503 -0.94871175001E+02 -0.85470946847E+02  0.14316151120E+04  0.14372987342E+04  0.00000000000E+00 0. -1.
<mgrwt>
<rscale>  2 0.12769425E+03</rscale>
<asrwt>0</asrwt>
<pdfrwt beam="2">  1       21 0.22426963E-02 0.12769425E+03</pdfrwt>
<pdfrwt beam="1">  1       -1 0.27412473E+00 0.12769425E+03</pdfrwt>
<totfact> 0.55696329E+03</totfact>
</mgrwt>
</event>
<event>
 4    1  0.5006371E+003  0.1235502E+03  0.7546771E-02  0.1237353E+00
          2   -1    0    0  502    0 -0.00000000000E+00  0.00000000000E+00  0.35725322026E+04  0.35725322026E+04  0.00000000000E+00 0.  1.
         21   -1    0    0  503  502  0.00000000000E+00 -0.00000000000E+00 -0.28063411813E+03  0.28063411813E+03  0.00000000000E+00 0.  1.
         21    1    1    2  503  501  0.12354547061E+03 -0.10828824872E+01 -0.26591130618E+03  0.29321234404E+03  0.00000000000E+00 0.  1.
          2    1    1    2  501    0 -0.12354547061E+03  0.10828824872E+01  0.35578093907E+04  0.35599539767E+04  0.00000000000E+00 0.  1.
<mgrwt>
<rscale>  2 0.12355022E+03</rscale>
<asrwt>0</asrwt>
<pdfrwt beam="2">  1       21 0.43174482E-01 0.12355022E+03</pdfrwt>
<pdfrwt beam="1">  1        2 0.54962031E+00 0.12355022E+03</pdfrwt>
<totfact> 0.68939161E+01</totfact>
</mgrwt>
</event>
<event>
 4    1  0.5006371E+003  0.1232755E+03  0.7546771E-02  0.1237789E+00
         21   -1    0    0  503  502  0.00000000000E+00  0.00000000000E+00  0.41873238591E+02  0.41873238591E+02  0.00000000000E+00 0.  1.
          2   -1    0    0  502    0 -0.00000000000E+00 -0.00000000000E+00 -0.22826840589E+04  0.22826840589E+04  0.00000000000E+00 0. -1.
         21    1    1    2  503  501  0.12221454090E+03  0.16138519818E+02 -0.54519508916E+02  0.13479325904E+03  0.00000000000E+00 0.  1.
          2    1    1    2  501    0 -0.12221454090E+03 -0.16138519818E+02 -0.21862913114E+04  0.21897640385E+04  0.00000000000E+00 0. -1.
<mgrwt>
<rscale>  2 0.12327549E+03</rscale>
<asrwt>0</asrwt>
<pdfrwt beam="1">  1       21 0.64420357E-02 0.12327549E+03</pdfrwt>
<pdfrwt beam="2">  1        2 0.35118222E+00 0.12327549E+03</pdfrwt>
<totfact> 0.12377183E+04</totfact>
</mgrwt>
</event>
<event>
 4    1  0.5006371E+003  0.1207345E+03  0.7546771E-02  0.1241890E+00
         21   -1    0    0  501  502  0.00000000000E+00  0.00000000000E+00  0.16502275770E+02  0.16502275770E+02  0.00000000000E+00 0. -1.
          1   -1    0    0  503    0 -0.00000000000E+00 -0.00000000000E+00 -0.14034859959E+04  0.14034859959E+04  0.00000000000E+00 0. -1.
         21    1    1    2  503  502  0.89137379776E+02  0.81433023970E+02 -0.26125559444E+03  0.28780426594E+03  0.00000000000E+00 0. -1.
          1    1    1    2  501    0 -0.89137379776E+02 -0.81433023970E+02 -0.11257281257E+04  0.11321840058E+04  0.00000000000E+00 0. -1.
<mgrwt>
<rscale>  2 0.12073446E+03</rscale>
<asrwt>0</asrwt>
<pdfrwt beam="1">  1       21 0.25388104E-02 0.12073446E+03</pdfrwt>
<pdfrwt beam="2">  1        1 0.21592103E+00 0.12073446E+03</pdfrwt>
<totfact> 0.78731160E+04</totfact>
</mgrwt>
</event>
<event>
 4    1  0.5006371E+003  0.1642954E+03  0.7546771E-02  0.1183931E+00
          2   -1    0    0  503    0 -0.00000000000E+00  0.00000000000E+00  0.85880640397E+03  0.85880640397E+03  0.00000000000E+00 0.  1.
         21   -1    0    0  501  502  0.00000000000E+00 -0.00000000000E+00 -0.21057063462E+03  0.21057063462E+03  0.00000000000E+00 0.  1.
         21    1    1    2  503  502  0.14089911186E+02  0.16369015038E+03 -0.16905366441E+03  0.23573742253E+03  0.00000000000E+00 0.  1.
          2    1    1    2  501    0 -0.14089911186E+02 -0.16369015038E+03  0.81728943377E+03  0.83363961607E+03  0.00000000000E+00 0.  1.
<mgrwt>
<rscale>  2 0.16429544E+03</rscale>
<asrwt>0</asrwt>
<pdfrwt beam="2">  1       21 0.32395483E-01 0.16429544E+03</pdfrwt>
<pdfrwt beam="1">  1        2 0.13212406E+00 0.16429544E+03</pdfrwt>
<totfact> 0.38034952E+03</totfact>
</mgrwt>
</event>
<event>
 4    1  0.5006371E+003  0.1014436E+03  0.7546771E-02  0.1277289E+00
          1   -1    0    0  503    0 -0.00000000000E+00  0.00000000000E+00  0.20459303437E+03  0.20459303437E+03  0.00000000000E+00 0.  1.
         21   -1    0    0  501  502  0.00000000000E+00 -0.00000000000E+00 -0.93273732116E+02  0.93273732116E+02  0.00000000000E+00 0.  1.
         21    1    1    2  503  502  0.91544945954E+02  0.43707323083E+02 -0.45432958386E+02  0.11115287189E+03  0.00000000000E+00 0.  1.
          1    1    1    2  501    0 -0.91544945954E+02 -0.43707323083E+02  0.15675226064E+03  0.18671389460E+03  0.00000000000E+00 0.  1.
<mgrwt>
<rscale>  2 0.10144362E+03</rscale>
<asrwt>0</asrwt>
<pdfrwt beam="2">  1       21 0.14349805E-01 0.10144362E+03</pdfrwt>
<pdfrwt beam="1">  1        1 0.31475851E-01 0.10144362E+03</pdfrwt>
<totfact> 0.64800248E+04</totfact>
</mgrwt>
</event>
<event>
 4    1  0.5006371E+003  0.1032535E+03  0.7546771E-02  0.1273599E+00
         21   -1    0    0  501  502  0.00000000000E+00  0.00000000000E+00  0.52866235495E+01  0.52866235495E+01  0.00000000000E+00 0. -1.
          2   -1    0    0  503    0 -0.00000000000E+00 -0.00000000000E+00 -0.22639268541E+04  0.22639268541E+04  0.00000000000E+00 0. -1.
         21    1    1    2  503  502  0.94324246655E+02  0.42002677391E+02 -0.75434475168E+03  0.76137854764E+03  0.00000000000E+00 0. -1.
          2    1    1    2  501    0 -0.94324246655E+02 -0.42002677391E+02 -0.15042954789E+04  0.15078349300E+04  0.00000000000E+00 0. -1.
<mgrwt>
<rscale>  2 0.10325352E+03</rscale>
<asrwt>0</asrwt>
<pdfrwt beam="1">  1       21 0.81332515E-03 0.10325352E+03</pdfrwt>
<pdfrwt beam="2">  1        2 0.34829710E+00 0.10325352E+03</pdfrwt>
<totfact> 0.36416722E+05</totfact>
</mgrwt>
</event>
<event>
 4    1  0.5006371E+003  0.1406042E+03  0.7546771E-02  0.1212518E+00
          2   -1    0    0  502    0 -0.00000000000E+00  0.00000000000E+00  0.26105411864E+04  0.26105411864E+04  0.00000000000E+00 0. -1.
         21   -1    0    0  503  502  0.00000000000E+00 -0.00000000000E+00 -0.76032896174E+02  0.76032896174E+02  0.00000000000E+00 0.  1.
         21    1    1    2  503  501 -0.47764181470E+02 -0.13224267168E+03 -0.73821544915E+01  0.14079786024E+03  0.00000000000E+00 0.  1.
          2    1    1    2  501    0  0.47764181470E+02  0.13224267168E+03  0.25418904447E+04  0.25457762223E+04  0.00000000000E+00 0. -1.
<mgrwt>
<rscale>  2 0.14060420E+03</rscale>
<asrwt>0</asrwt>
<pdfrwt beam="2">  1       21 0.11697371E-01 0.14060420E+03</pdfrwt>
<pdfrwt beam="1">  1        2 0.40162165E+00 0.14060420E+03</pdfrwt>
<totfact> 0.29109897E+03</totfact>
</mgrwt>
</event>
<event>
 4    1  0.5006371E+003  0.1228641E+03  0.7546771E-02  0.1238446E+00
          2   -1    0    0  503    0 -0.00000000000E+00  0.00000000000E+00  0.80081807008E+03  0.80081807008E+03  0.00000000000E+00 0. -1.
         21   -1    0    0  501  502  0.00000000000E+00 -0.00000000000E+00 -0.42907423564E+02  0.42907423564E+02  0.00000000000E+00 0. -1.
         21    1    1    2  503  502  0.82540209380E+02 -0.91009280040E+02  0.63071218987E+02  0.13810703777E+03  0.00000000000E+00 0. -1.
          2    1    1    2  501    0 -0.82540209380E+02  0.91009280040E+02  0.69483942753E+03  0.70561845587E+03  0.00000000000E+00 0. -1.
<mgrwt>
<rscale>  2 0.12286405E+03</rscale>
<asrwt>0</asrwt>
<pdfrwt beam="2">  1       21 0.66011427E-02 0.12286405E+03</pdfrwt>
<pdfrwt beam="1">  1        2 0.12320277E+00 0.12286405E+03</pdfrwt>
<totfact> 0.74889955E+04</totfact>
</mgrwt>
</event>
<event>
 4    1  0.5006371E+003  0.1030517E+03  0.7546771E-02  0.1274006E+00
          1   -1    0    0  502    0 -0.00000000000E+00  0.00000000000E+00  0.43160238246E+03  0.43160238246E+03  0.00000000000E+00 0.  1.
         21   -1    0    0  503  502  0.00000000000E+00 -0.00000000000E+00 -0.31870411796E+03  0.31870411796E+03  0.00000000000E+00 0.  1.
         21    1    1    2  503  501 -0.89988321538E+02 -0.50217160000E+02 -0.30393162396E+03  0.32092692815E+03  0.00000000000E+00 0.  1.
          1    1    1    2  501    0  0.89988321538E+02  0.50217160000E+02  0.41682988846E+03  0.42937957227E+03  0.00000000000E+00 0.  1.
<mgrwt>
<rscale>  2 0.10305174E+03</rscale>
<asrwt>0</asrwt>
<pdfrwt beam="2">  1       21 0.49031403E-01 0.10305174E+03</pdfrwt>
<pdfrwt beam="1">  1        1 0.66400366E-01 0.10305174E+03</pdfrwt>
<totfact> 0.25063901E+03</totfact>
</mgrwt>
</event>
<event>
 4    1  0.5006371E+003  0.1483571E+03  0.7546771E-02  0.1202506E+00
         21   -1    0    0  501  502  0.00000000000E+00  0.00000000000E+00  0.63295347648E+03  0.63295347648E+03  0.00000000000E+00 0. -1.
          3   -1    0    0  503    0 -0.00000000000E+00 -0.00000000000E+00 -0.17332813455E+03  0.17332813455E+03  0.00000000000E+00 0.  1.
         21    1    1    2  503  502  0.11408015539E+02 -0.14791787194E+03  0.59025282987E+03  0.60861173405E+03  0.00000000000E+00 0. -1.
          3    1    1    2  501    0 -0.11408015539E+02  0.14791787194E+03 -0.13062748794E+03  0.19766987697E+03  0.00000000000E+00 0.  1.
<mgrwt>
<rscale>  2 0.14835714E+03</rscale>
<asrwt>0</asrwt>
<pdfrwt beam="1">  1       21 0.97377457E-01 0.14835714E+03</pdfrwt>
<pdfrwt beam="2">  1        3 0.26665867E-01 0.14835714E+03</pdfrwt>
<totfact> 0.58063287E+02</totfact>
</mgrwt>
</event>
<event>
 4    1  0.5006371E+003  0.1013946E+03  0.7546771E-02  0.1277390E+00
         21   -1    0    0  501  502  0.00000000000E+00  0.00000000000E+00  0.15579909639E+03  0.15579909639E+03  0.00000000000E+00 0. -1.
          1   -1    0    0  503    0 -0.00000000000E+00 -0.00000000000E+00 -0.14995571758E+03  0.14995571758E+03  0.00000000000E+00 0.  1.
         21    1    1    2  503  502 -0.59310756237E+02  0.82238064082E+02  0.11731959234E+03  0.15506370219E+03  0.00000000000E+00 0. -1.
          1    1    1    2  501    0  0.59310756237E+02 -0.82238064082E+02 -0.11147621352E+03  0.15069111178E+03  0.00000000000E+00 0.  1.
<mgrwt>
<rscale>  2 0.10139460E+03</rscale>
<asrwt>0</asrwt>
<pdfrwt beam="1">  1       21 0.23969092E-01 0.10139460E+03</pdfrwt>
<pdfrwt beam="2">  1        1 0.23070110E-01 0.10139460E+03</pdfrwt>
<totfact> 0.37339001E+04</totfact>
</mgrwt>
</event>
<event>
 4    1  0.5006371E+003  0.1113475E+03  0.7546771E-02  0.1258095E+00
         21   -1    0    0  501  502  0.00000000000E+00  0.00000000000E+00  0.45962449089E+02  0.45962449089E+02  0.00000000000E+00 0. -1.
         -2   -1    0    0    0  501 -0.00000000000E+00 -0.00000000000E+00 -0.49474929558E+03  0.49474929558E+03  0.00000000000E+00 0. -1.
         21    1    1    2  503  502 -0.52485401924E+02 -0.98201571324E+02 -0.42072718523E+02  0.11903100298E+03  0.00000000000E+00 0. -1.
         -2    1    1    2    0  503  0.52485401924E+02  0.98201571324E+02 -0.40671412797E+03  0.42168074169E+03  0.00000000000E+00 0. -1.
<mgrwt>
<rscale>  2 0.11134750E+03</rscale>
<asrwt>0</asrwt>
<pdfrwt beam="1">  1       21 0.70711467E-02 0.11134750E+03</pdfrwt>
<pdfrwt beam="2">  1       -2 0.76115269E-01 0.11134750E+03</pdfrwt>
<totfact> 0.19089913E+04</totfact>
</mgrwt>
</event>
<event>
 4    1  0.5006371E+003  0.1050905E+03  0.7546771E-02  0.1269941E+00
          4   -1    0    0  503    0 -0.00000000000E+00  0.00000000000E+00  0.19846732905E+02  0.19846732905E+02  0.00000000000E+00 0.  1.
         21   -1    0    0  501  502  0.00000000000E+00 -0.00000000000E+00 -0.71031073040E+03  0.71031073040E+03  0.00000000000E+00 0.  1.
         21    1    1    2  503  502 -0.29254845489E+02  0.10093645036E+03 -0.51513655080E+03  0.52574678217E+03  0.00000000000E+00 0.  1.
          4    1    1    2  501    0  0.29254845489E+02 -0.10093645036E+03 -0.17532744670E+03  0.20441068114E+03  0.00000000000E+00 0.  1.
<mgrwt>
<rscale>  2 0.10509050E+03</rscale>
<asrwt>0</asrwt>
<pdfrwt beam="2">  1       21 0.10927857E+00 0.10509050E+03</pdfrwt>
<pdfrwt beam="1">  1        4 0.30533436E-02 0.10509050E+03</pdfrwt>
<totfact> 0.14141446E+04</totfact>
</mgrwt>
</event>
<event>
 4    1  0.5006371E+003  0.1059388E+03  0.7546771E-02  0.1268281E+00
         21   -1    0    0  503  502  0.00000000000E+00  0.00000000000E+00  0.21628696538E+03  0.21628696538E+03  0.00000000000E+00 0. -1.
         -1   -1    0    0    0  501 -0.00000000000E+00 -0.00000000000E+00 -0.52313377818E+02  0.52313377818E+02  0.00000000000E+00 0. -1.
         21    1    1    2  503  501  0.67306688375E+02  0.81809714099E+02  0.94075987213E+02  0.14168031264E+03  0.00000000000E+00 0. -1.
         -1    1    1    2    0  502 -0.67306688375E+02 -0.81809714099E+02  0.69897600348E+02  0.12692003055E+03  0.00000000000E+00 0. -1.
<mgrwt>
<rscale>  2 0.10593875E+03</rscale>
<asrwt>0</asrwt>
<pdfrwt beam="1">  1       21 0.33274917E-01 0.10593875E+03</pdfrwt>
<pdfrwt beam="2">  1       -1 0.80482121E-02 0.10593875E+03</pdfrwt>
<totfact> 0.64677926E+04</totfact>
</mgrwt>
</event>
<event>
 4    1  0.5006371E+003  0.1183962E+03  0.7546771E-02  0.1245766E+00
         21   -1    0    0  503  502  0.00000000000E+00  0.00000000000E+00  0.31188346706E+03  0.31188346706E+03  0.00000000000E+00 0.  1.
         -2   -1    0    0    0  501 -0.00000000000E+00 -0.00000000000E+00 -0.92460163985E+02  0.92460163985E+02  0.00000000000E+00 0. -1.
         21    1    1    2  503  501 -0.97063022178E+02  0.67797009312E+02  0.25464171571E+03  0.28082034849E+03  0.00000000000E+00 0.  1.
         -2    1    1    2    0  502  0.97063022178E+02 -0.67797009312E+02 -0.35218412631E+02  0.12352328256E+03  0.00000000000E+00 0. -1.
<mgrwt>
<rscale>  2 0.11839622E+03</rscale>
<asrwt>0</asrwt>
<pdfrwt beam="1">  1       21 0.47982071E-01 0.11839622E+03</pdfrwt>
<pdfrwt beam="2">  1       -2 0.14224641E-01 0.11839622E+03</pdfrwt>
<totfact> 0.12302822E+04</totfact>
</mgrwt>
</event>
<event>
 4    1  0.5006371E+003  0.1093545E+03  0.7546771E-02  0.1261770E+00
         21   -1    0    0  501  502  0.00000000000E+00  0.00000000000E+00  0.19794891801E+02  0.19794891801E+02  0.00000000000E+00 0.  1.
          2   -1    0    0  503    0 -0.00000000000E+00 -0.00000000000E+00 -0.20207385484E+04  0.20207385484E+04  0.00000000000E+00 0.  1.
         21    1    1    2  503  502  0.28066508653E+01 -0.10931844003E+03 -0.14622017620E+03  0.18258898802E+03  0.00000000000E+00 0.  1.
          2    1    1    2  501    0 -0.28066508653E+01  0.10931844003E+03 -0.18547234804E+04  0.18579444522E+04  0.00000000000E+00 0.  1.
<mgrwt>
<rscale>  2 0.10935446E+03</rscale>
<asrwt>0</asrwt>
<pdfrwt beam="1">  1       21 0.30453668E-02 0.10935446E+03</pdfrwt>
<pdfrwt beam="2">  1        2 0.31088297E+00 0.10935446E+03</pdfrwt>
<totfact> 0.59090363E+04</totfact>
</mgrwt>
</event>
<event>
 4    1  0.5006371E+003  0.1319333E+03  0.7546771E-02  0.1224615E+00
         21   -1    0    0  501  502  0.00000000000E+00  0.00000000000E+00  0.14202670377E+04  0.14202670377E+04  0.00000000000E+00 0. -1.
         -4   -1    0    0    0  501 -0.00000000000E+00 -0.00000000000E+00 -0.12264884843E+02  0.12264884843E+02  0.00000000000E+00 0. -1.
         21    1    1    2  503  502  0.82692158702E+01 -0.13167390934E+03  0.72357833226E+03  0.73550798857E+03  0.00000000000E+00 0. -1.
         -4    1    1    2    0  503 -0.82692158702E+01  0.13167390934E+03  0.68442382063E+03  0.69702393401E+03  0.00000000000E+00 0. -1.
<mgrwt>
<rscale>  2 0.13193331E+03</rscale>
<asrwt>0</asrwt>
<pdfrwt beam="1">  1       21 0.21850249E+00 0.13193331E+03</pdfrwt>
<pdfrwt beam="2">  1       -4 0.18869065E-02 0.13193331E+03</pdfrwt>
<totfact> 0.48390866E+03</totfact>
</mgrwt>
</event>
<event>
 4    1  0.5006371E+003  0.1189676E+03  0.7546771E-02  0.1244810E+00
         21   -1    0    0  503  502  0.00000000000E+00  0.00000000000E+00  0.97184154912E+02  0.97184154912E+02  0.00000000000E+00 0.  1.
          4   -1    0    0  502    0 -0.00000000000E+00 -0.00000000000E+00 -0.24482766221E+03  0.24482766221E+03  0.00000000000E+00 0.  1.
         21    1    1    2  503  501 -0.15821597896E+02 -0.11791087917E+03  0.35026949713E+02  0.12401687624E+03  0.00000000000E+00 0.  1.
          4    1    1    2  501    0  0.15821597896E+02  0.11791087917E+03 -0.18267045701E+03  0.21799494089E+03  0.00000000000E+00 0.  1.
<mgrwt>
<rscale>  2 0.11896764E+03</rscale>
<asrwt>0</asrwt>
<pdfrwt beam="1">  1       21 0.14951408E-01 0.11896764E+03</pdfrwt>
<pdfrwt beam="2">  1        4 0.37665794E-01 0.11896764E+03</pdfrwt>
<totfact> 0.10932287E+04</totfact>
</mgrwt>
</event>
<event>
 4    1  0.5006371E+003  0.1374149E+03  0.7546771E-02  0.1216850E+00
         -2   -1    0    0    0  501 -0.00000000000E+00  0.00000000000E+00  0.34525819988E+03  0.34525819988E+03  0.00000000000E+00 0. -1.
         21   -1    0    0  501  502  0.00000000000E+00 -0.00000000000E+00 -0.55640875625E+02  0.55640875625E+02  0.00000000000E+00 0. -1.
         21    1    1    2  503  502 -0.96205158212E+02  0.98119465694E+02  0.11863211474E+03  0.18153908852E+03  0.00000000000E+00 0. -1.
         -2    1    1    2    0  503  0.96205158212E+02 -0.98119465694E+02  0.17098520952E+03  0.21935998698E+03  0.00000000000E+00 0. -1.
<mgrwt>
<rscale>  2 0.13741493E+03</rscale>
<asrwt>0</asrwt>
<pdfrwt beam="2">  1       21 0.85601350E-02 0.13741493E+03</pdfrwt>
<pdfrwt beam="1">  1       -2 0.53116645E-01 0.13741493E+03</pdfrwt>
<totfact> 0.29203036E+04</totfact>
</mgrwt>
</event>
<event>
 4    1  0.5006371E+003  0.1214774E+03  0.7546771E-02  0.1240680E+00
         21   -1    0    0  503  502  0.00000000000E+00  0.00000000000E+00  0.20250513515E+02  0.20250513515E+02  0.00000000000E+00 0.  1.
          1   -1    0    0  502    0 -0.00000000000E+00 -0.00000000000E+00 -0.10806830941E+04  0.10806830941E+04  0.00000000000E+00 0.  1.
         21    1    1    2  503  501 -0.94704718136E+02  0.76077374157E+02 -0.21606653574E+03  0.24787395661E+03  0.00000000000E+00 0.  1.
          1    1    1    2  501    0  0.94704718136E+02 -0.76077374157E+02 -0.84436604484E+03  0.85305965101E+03  0.00000000000E+00 0.  1.
<mgrwt>
<rscale>  2 0.12147737E+03</rscale>
<asrwt>0</asrwt>
<pdfrwt beam="1">  1       21 0.31154628E-02 0.12147737E+03</pdfrwt>
<pdfrwt beam="2">  1        1 0.16625898E+00 0.12147737E+03</pdfrwt>
<totfact> 0.93141814E+04</totfact>
</mgrwt>
</event>
<event>
 4    1  0.5006371E+003  0.1010216E+03  0.7546771E-02  0.1278162E+00
          2   -1    0    0  503    0 -0.00000000000E+00  0.00000000000E+00  0.15806852626E+03  0.15806852626E+03  0.00000000000E+00 0. -1.
         21   -1    0    0  501  502  0.00000000000E+00 -0.00000000000E+00 -0.14206424227E+03  0.14206424227E+03  0.00000000000E+00 0.  1.
         21    1    1    2  503  502  0.98113489839E+02 -0.24064467095E+02 -0.10283766606E+03  0.14415596077E+03  0.00000000000E+00 0.  1.
          2    1    1    2  501    0 -0.98113489839E+02  0.24064467095E+02  0.11884195005E+03  0.15597680775E+03  0.00000000000E+00 0. -1.
<mgrwt>
<rscale>  2 0.10102156E+03</rscale>
<asrwt>0</asrwt>
<pdfrwt beam="2">  1       21 0.21856037E-01 0.10102156E+03</pdfrwt>
<pdfrwt beam="1">  1        2 0.24318235E-01 0.10102156E+03</pdfrwt>
<totfact> 0.52701844E+04</totfact>
</mgrwt>
</event>
<event>
 4    1  0.5006371E+003  0.1181737E+03  0.7546771E-02  0.1246141E+00
         21   -1    0    0  501  502  0.00000000000E+00  0.00000000000E+00  0.14697791906E+02  0.14697791906E+02  0.00000000000E+00 0. -1.
          2   -1    0    0  503    0 -0.00000000000E+00 -0.00000000000E+00 -0.97968407110E+03  0.97968407110E+03  0.00000000000E+00 0. -1.
         21    1    1    2  503  502  0.10617527159E+03  0.51882986122E+02 -0.39615969591E+03  0.41340964818E+03  0.00000000000E+00 0. -1.
          2    1    1    2  501    0 -0.10617527159E+03 -0.51882986122E+02 -0.56882658328E+03  0.58097221482E+03  0.00000000000E+00 0. -1.
<mgrwt>
<rscale>  2 0.11817374E+03</rscale>
<asrwt>0</asrwt>
<pdfrwt beam="1">  1       21 0.22611992E-02 0.11817374E+03</pdfrwt>
<pdfrwt beam="2">  1        2 0.15072060E+00 0.11817374E+03</pdfrwt>
<totfact> 0.34034821E+05</totfact>
</mgrwt>
</event>
<event>
 4    1  0.5006371E+003  0.1307446E+03  0.7546771E-02  0.1226355E+00
         21   -1    0    0  503  502  0.00000000000E+00  0.00000000000E+00  0.36029860039E+02  0.36029860039E+02  0.00000000000E+00 0.  1.
          2   -1    0    0  502    0 -0.00000000000E+00 -0.00000000000E+00 -0.96895146595E+03  0.96895146595E+03  0.00000000000E+00 0. -1.
         21    1    1    2  503  501 -0.10990912092E+03  0.70810469365E+02 -0.10748632298E+03  0.16925556730E+03  0.00000000000E+00 0.  1.
          2    1    1    2  501    0  0.10990912092E+03 -0.70810469365E+02 -0.82543528293E+03  0.83572575869E+03  0.00000000000E+00 0. -1.
<mgrwt>
<rscale>  2 0.13074455E+03</rscale>
<asrwt>0</asrwt>
<pdfrwt beam="1">  1       21 0.55430555E-02 0.13074455E+03</pdfrwt>
<pdfrwt beam="2">  1        2 0.14906945E+00 0.13074455E+03</pdfrwt>
<totfact> 0.78777900E+04</totfact>
</mgrwt>
</event>
<event>
 4    1  0.5006371E+003  0.1816000E+03  0.7546771E-02  0.1166263E+00
          1   -1    0    0  503    0 -0.00000000000E+00  0.00000000000E+00  0.39639658113E+03  0.39639658113E+03  0.00000000000E+00 0. -1.
         21   -1    0    0  501  502  0.00000000000E+00 -0.00000000000E+00 -0.84700882360E+02  0.84700882360E+02  0.00000000000E+00 0. -1.
         21    1    1    2  503  502  0.17845809340E+03  0.33634427325E+02  0.12378320301E+03  0.21977453708E+03  0.00000000000E+00 0. -1.
          1    1    1    2  501    0 -0.17845809340E+03 -0.33634427325E+02  0.18791249576E+03  0.26132292641E+03  0.00000000000E+00 0. -1.
<mgrwt>
<rscale>  2 0.18160002E+03</rscale>
<asrwt>0</asrwt>
<pdfrwt beam="2">  1       21 0.13030905E-01 0.18160002E+03</pdfrwt>
<pdfrwt beam="1">  1        1 0.60984088E-01 0.18160002E+03</pdfrwt>
<totfact> 0.34136042E+04</totfact>
</mgrwt>
</event>
<event>
 4    1  0.5006371E+003  0.1223429E+03  0.7546771E-02  0.1239281E+00
         21   -1    0    0  503  502  0.00000000000E+00  0.00000000000E+00  0.17937338339E+03  0.17937338339E+03  0.00000000000E+00 0.  1.
         -3   -1    0    0    0  501 -0.00000000000E+00 -0.00000000000E+00 -0.49353091844E+03  0.49353091844E+03  0.00000000000E+00 0.  1.
         21    1    1    2  503  501 -0.10949587373E+03  0.54575137790E+02  0.14961405589E+03  0.19326706328E+03  0.00000000000E+00 0.  1.
         -3    1    1    2    0  502  0.10949587373E+03 -0.54575137790E+02 -0.46377159095E+03  0.47963723855E+03  0.00000000000E+00 0.  1.
<mgrwt>
<rscale>  2 0.12234293E+03</rscale>
<asrwt>0</asrwt>
<pdfrwt beam="1">  1       21 0.27595905E-01 0.12234293E+03</pdfrwt>
<pdfrwt beam="2">  1       -3 0.75927834E-01 0.12234293E+03</pdfrwt>
<totfact> 0.10350362E+03</totfact>
</mgrwt>
</event>
<event>
 4    1  0.5006371E+003  0.2620328E+03  0.7546771E-02  0.1105928E+00
         21   -1    0    0  503  502  0.00000000000E+00  0.00000000000E+00  0.98796220342E+03  0.98796220342E+03  0.00000000000E+00 0.  1.
          1   -1    0    0  502    0 -0.00000000000E+00 -0.00000000000E+00 -0.29990476908E+03  0.29990476908E+03  0.00000000000E+00 0. -1.
         21    1    1    2  503  501  0.19499459321E+03 -0.17503796269E+03  0.90844189962E+03  0.94547758554E+03  0.00000000000E+00 0.  1.
          1    1    1    2  501    0 -0.19499459321E+03  0.17503796269E+03 -0.22038446528E+03  0.34238938696E+03  0.00000000000E+00 0. -1.
<mgrwt>
<rscale>  2 0.26203278E+03</rscale>
<asrwt>0</asrwt>
<pdfrwt beam="1">  1       21 0.15199418E+00 0.26203278E+03</pdfrwt>
<pdfrwt beam="2">  1        1 0.46139196E-01 0.26203278E+03</pdfrwt>
<totfact> 0.26462704E+02</totfact>
</mgrwt>
</event>
<event>
 4    1  0.5006371E+003  0.1811435E+03  0.7546771E-02  0.1166701E+00
          1   -1    0    0  503    0 -0.00000000000E+00  0.00000000000E+00  0.82202684925E+03  0.82202684925E+03  0.00000000000E+00 0. -1.
         21   -1    0    0  501  502  0.00000000000E+00 -0.00000000000E+00 -0.17604687681E+03  0.17604687681E+03  0.00000000000E+00 0.  1.
         21    1    1    2  503  502  0.14613192555E+03 -0.10704400002E+03 -0.11583866368E+03  0.21501524041E+03  0.00000000000E+00 0.  1.
          1    1    1    2  501    0 -0.14613192555E+03  0.10704400002E+03  0.76181863612E+03  0.78305848565E+03  0.00000000000E+00 0. -1.
<mgrwt>
<rscale>  2 0.18114347E+03</rscale>
<asrwt>0</asrwt>
<pdfrwt beam="2">  1       21 0.27084135E-01 0.18114347E+03</pdfrwt>
<pdfrwt beam="1">  1        1 0.12646567E+00 0.18114347E+03</pdfrwt>
<totfact> 0.32241015E+03</totfact>
</mgrwt>
</event>
<event>
 4    1  0.5006371E+003  0.1021287E+03  0.7546771E-02  0.1275882E+00
          2   -1    0    0  502    0 -0.00000000000E+00  0.00000000000E+00  0.16516798761E+04  0.16516798761E+04  0.00000000000E+00 0. -1.
         21   -1    0    0  503  502  0.00000000000E+00 -0.00000000000E+00 -0.41699062370E+02  0.41699062370E+02  0.00000000000E+00 0. -1.
         21    1    1    2  503  501  0.41802307889E+02  0.93181722464E+02  0.25043210243E+02  0.10515430911E+03  0.00000000000E+00 0. -1.
          2    1    1    2  501    0 -0.41802307889E+02 -0.93181722464E+02  0.15849376035E+04  0.15882246294E+04  0.00000000000E+00 0. -1.
<mgrwt>
<rscale>  2 0.10212868E+03</rscale>
<asrwt>0</asrwt>
<pdfrwt beam="2">  1       21 0.64152416E-02 0.10212868E+03</pdfrwt>
<pdfrwt beam="1">  1        2 0.25410455E+00 0.10212868E+03</pdfrwt>
<totfact> 0.26383193E+04</totfact>
</mgrwt>
</event>
<event>
 4    1  0.5006371E+003  0.1311551E+03  0.7546771E-02  0.1225752E+00
          2   -1    0    0  502    0 -0.00000000000E+00  0.00000000000E+00  0.52985903103E+03  0.52985903103E+03  0.00000000000E+00 0. -1.
         21   -1    0    0  503  502  0.00000000000E+00 -0.00000000000E+00 -0.84967616714E+02  0.84967616714E+02  0.00000000000E+00 0. -1.
         21    1    1    2  503  501  0.44338705563E+02 -0.12343315669E+03 -0.19204999815E+02  0.13255375136E+03  0.00000000000E+00 0. -1.
          2    1    1    2  501    0 -0.44338705563E+02  0.12343315669E+03  0.46409641413E+03  0.48227289639E+03  0.00000000000E+00 0. -1.
<mgrwt>
<rscale>  2 0.13115512E+03</rscale>
<asrwt>0</asrwt>
<pdfrwt beam="2">  1       21 0.13071941E-01 0.13115512E+03</pdfrwt>
<pdfrwt beam="1">  1        2 0.81516772E-01 0.13115512E+03</pdfrwt>
<totfact> 0.36874532E+04</totfact>
</mgrwt>
</event>
<event>
 4    1  0.5006371E+003  0.1012390E+03  0.7546771E-02  0.1277712E+00
          1   -1    0    0  503    0 -0.00000000000E+00  0.00000000000E+00  0.50530297410E+03  0.50530297410E+03  0.00000000000E+00 0. -1.
         21   -1    0    0  501  502  0.00000000000E+00 -0.00000000000E+00 -0.34641743874E+02  0.34641743874E+02  0.00000000000E+00 0. -1.
         21    1    1    2  503  502 -0.32580656473E+01 -0.10118652108E+03  0.61522653222E+02  0.11846672064E+03  0.00000000000E+00 0. -1.
          1    1    1    2  501    0  0.32580656473E+01  0.10118652108E+03  0.40913857700E+03  0.42147799733E+03  0.00000000000E+00 0. -1.
<mgrwt>
<rscale>  2 0.10123896E+03</rscale>
<asrwt>0</asrwt>
<pdfrwt beam="2">  1       21 0.53294994E-02 0.10123896E+03</pdfrwt>
<pdfrwt beam="1">  1        1 0.77738914E-01 0.10123896E+03</pdfrwt>
<totfact> 0.11666693E+05</totfact>
</mgrwt>
</event>
<event>
 4    1  0.5006371E+003  0.1408401E+03  0.7546771E-02  0.1212203E+00
         -1   -1    0    0    0  501 -0.00000000000E+00  0.00000000000E+00  0.54888351364E+03  0.54888351364E+03  0.00000000000E+00 0. -1.
         21   -1    0    0  503  502  0.00000000000E+00 -0.00000000000E+00 -0.79806796520E+02  0.79806796520E+02  0.00000000000E+00 0. -1.
         21    1    1    2  503  501  0.14000880504E+03 -0.15279753616E+02  0.20137268629E+01  0.14085450456E+03  0.00000000000E+00 0. -1.
         -1    1    1    2    0  502 -0.14000880504E+03  0.15279753616E+02  0.46706299025E+03  0.48783580560E+03  0.00000000000E+00 0. -1.
<mgrwt>
<rscale>  2 0.14084011E+03</rscale>
<asrwt>0</asrwt>
<pdfrwt beam="2">  1       21 0.12277969E-01 0.14084011E+03</pdfrwt>
<pdfrwt beam="1">  1       -1 0.84443615E-01 0.14084011E+03</pdfrwt>
<totfact> 0.77219559E+03</totfact>
</mgrwt>
</event>
<event>
 4    1  0.5006371E+003  0.1004632E+03  0.7546771E-02  0.1279325E+00
         -1   -1    0    0    0  501 -0.00000000000E+00  0.00000000000E+00  0.59800491693E+02  0.59800491693E+02  0.00000000000E+00 0.  1.
         21   -1    0    0  501  502  0.00000000000E+00 -0.00000000000E+00 -0.19638979612E+03  0.19638979612E+03  0.00000000000E+00 0.  1.
         21    1    1    2  503  502  0.28744235163E+02  0.96263304445E+02 -0.11632774995E+03  0.15370426229E+03  0.00000000000E+00 0.  1.
         -1    1    1    2    0  503 -0.28744235163E+02 -0.96263304445E+02 -0.20261554477E+02  0.10248602552E+03  0.00000000000E+00 0.  1.
<mgrwt>
<rscale>  2 0.10046320E+03</rscale>
<asrwt>0</asrwt>
<pdfrwt beam="2">  1       21 0.30213815E-01 0.10046320E+03</pdfrwt>
<pdfrwt beam="1">  1       -1 0.92000757E-02 0.10046320E+03</pdfrwt>
<totfact> 0.63568914E+04</totfact>
</mgrwt>
</event>
<event>
 4    1  0.5006371E+003  0.1084054E+03  0.7546771E-02  0.1263552E+00
          2   -1    0    0  502    0 -0.00000000000E+00  0.00000000000E+00  0.22169891848E+03  0.22169891848E+03  0.00000000000E+00 0. -1.
         21   -1    0    0  503  502  0.00000000000E+00 -0.00000000000E+00 -0.15261403907E+03  0.15261403907E+03  0.00000000000E+00 0.  1.
         21    1    1    2  503  501  0.95130349644E+02  0.51980182560E+02 -0.11665741598E+03  0.15925035481E+03  0.00000000000E+00 0.  1.
          2    1    1    2  501    0 -0.95130349644E+02 -0.51980182560E+02  0.18574229539E+03  0.21506260275E+03  0.00000000000E+00 0. -1.
<mgrwt>
<rscale>  2 0.10840536E+03</rscale>
<asrwt>0</asrwt>
<pdfrwt beam="2">  1       21 0.23479083E-01 0.10840536E+03</pdfrwt>
<pdfrwt beam="1">  1        2 0.34107526E-01 0.10840536E+03</pdfrwt>
<totfact> 0.32055449E+04</totfact>
</mgrwt>
</event>
<event>
 4    1  0.5006371E+003  0.1095564E+03  0.7546771E-02  0.1261394E+00
          1   -1    0    0  502    0 -0.00000000000E+00  0.00000000000E+00  0.26471973464E+03  0.26471973464E+03  0.00000000000E+00 0.  1.
         21   -1    0    0  503  502  0.00000000000E+00 -0.00000000000E+00 -0.26566007974E+03  0.26566007974E+03  0.00000000000E+00 0. -1.
         21    1    1    2  503  501 -0.10519241799E+03 -0.30613094240E+02 -0.24197181396E+03  0.26561808127E+03  0.00000000000E+00 0. -1.
          1    1    1    2  501    0  0.10519241799E+03  0.30613094240E+02  0.24103146886E+03  0.26476173311E+03  0.00000000000E+00 0.  1.
<mgrwt>
<rscale>  2 0.10955641E+03</rscale>
<asrwt>0</asrwt>
<pdfrwt beam="2">  1       21 0.40870781E-01 0.10955641E+03</pdfrwt>
<pdfrwt beam="1">  1        1 0.40726113E-01 0.10955641E+03</pdfrwt>
<totfact> 0.66070066E+03</totfact>
</mgrwt>
</event>
<event>
 4    1  0.5006371E+003  0.2150210E+03  0.7546771E-02  0.1137650E+00
         21   -1    0    0  501  502  0.00000000000E+00  0.00000000000E+00  0.20395701307E+03  0.20395701307E+03  0.00000000000E+00 0. -1.
         -2   -1    0    0    0  501 -0.00000000000E+00 -0.00000000000E+00 -0.28125357878E+03  0.28125357878E+03  0.00000000000E+00 0. -1.
         21    1    1    2  503  502 -0.82286604387E+02  0.19865278863E+03  0.68213441059E+02  0.22558166865E+03  0.00000000000E+00 0. -1.
         -2    1    1    2    0  503  0.82286604387E+02 -0.19865278863E+03 -0.14551000676E+03  0.25962892319E+03  0.00000000000E+00 0. -1.
<mgrwt>
<rscale>  2 0.21502097E+03</rscale>
<asrwt>0</asrwt>
<pdfrwt beam="1">  1       21 0.31378002E-01 0.21502097E+03</pdfrwt>
<pdfrwt beam="2">  1       -2 0.43269782E-01 0.21502097E+03</pdfrwt>
<totfact> 0.40200700E+03</totfact>
</mgrwt>
</event>
<event>
 4    1  0.5006371E+003  0.1003615E+03  0.7546771E-02  0.1279538E+00
          1   -1    0    0  503    0 -0.00000000000E+00  0.00000000000E+00  0.39614706061E+03  0.39614706061E+03  0.00000000000E+00 0. -1.
         21   -1    0    0  501  502  0.00000000000E+00 -0.00000000000E+00 -0.29675726846E+02  0.29675726846E+02  0.00000000000E+00 0. -1.
         21    1    1    2  503  502 -0.31498323704E+02 -0.95290505821E+02  0.10266442588E+03  0.14357022406E+03  0.00000000000E+00 0. -1.
          1    1    1    2  501    0  0.31498323704E+02  0.95290505821E+02  0.26380690788E+03  0.28225256340E+03  0.00000000000E+00 0. -1.
<mgrwt>
<rscale>  2 0.10036147E+03</rscale>
<asrwt>0</asrwt>
<pdfrwt beam="2">  1       21 0.45654967E-02 0.10036147E+03</pdfrwt>
<pdfrwt beam="1">  1        1 0.60945698E-01 0.10036147E+03</pdfrwt>
<totfact> 0.20546832E+05</totfact>
</mgrwt>
</event>
<event>
 4    1  0.5006371E+003  0.1046425E+03  0.7546771E-02  0.1270826E+00
         21   -1    0    0  503  502  0.00000000000E+00  0.00000000000E+00  0.11355809768E+02  0.11355809768E+02  0.00000000000E+00 0.  1.
          2   -1    0    0  502    0 -0.00000000000E+00 -0.00000000000E+00 -0.12645478656E+04  0.12645478656E+04  0.00000000000E+00 0.  1.
         21    1    1    2  503  501  0.98175802927E+02  0.36215531817E+02 -0.31572318390E+03  0.33261266042E+03  0.00000000000E+00 0.  1.
          2    1    1    2  501    0 -0.98175802927E+02 -0.36215531817E+02 -0.93746887192E+03  0.94329101492E+03  0.00000000000E+00 0.  1.
<mgrwt>
<rscale>  2 0.10464250E+03</rscale>
<asrwt>0</asrwt>
<pdfrwt beam="1">  1       21 0.17470484E-02 0.10464250E+03</pdfrwt>
<pdfrwt beam="2">  1        2 0.19454574E+00 0.10464250E+03</pdfrwt>
<totfact> 0.35405598E+05</totfact>
</mgrwt>
</event>
<event>
 4    1  0.5006371E+003  0.1183119E+03  0.7546771E-02  0.1245908E+00
          2   -1    0    0  503    0 -0.00000000000E+00  0.00000000000E+00  0.64557455673E+03  0.64557455673E+03  0.00000000000E+00 0. -1.
         21   -1    0    0  501  502  0.00000000000E+00 -0.00000000000E+00 -0.23891906651E+02  0.23891906651E+02  0.00000000000E+00 0. -1.
         21    1    1    2  503  502  0.96215784716E+02 -0.68849389282E+02  0.20905150263E+03  0.24020875584E+03  0.00000000000E+00 0. -1.
          2    1    1    2  501    0 -0.96215784716E+02  0.68849389282E+02  0.41263114745E+03  0.42925770754E+03  0.00000000000E+00 0. -1.
<mgrwt>
<rscale>  2 0.11831194E+03</rscale>
<asrwt>0</asrwt>
<pdfrwt beam="2">  1       21 0.36756784E-02 0.11831194E+03</pdfrwt>
<pdfrwt beam="1">  1        2 0.99319149E-01 0.11831194E+03</pdfrwt>
<totfact> 0.25807134E+05</totfact>
</mgrwt>
</event>
<event>
 4    1  0.5006371E+003  0.1138244E+03  0.7546771E-02  0.1253647E+00
          1   -1    0    0  502    0 -0.00000000000E+00  0.00000000000E+00  0.84086247914E+03  0.84086247914E+03  0.00000000000E+00 0. -1.
         21   -1    0    0  503  502  0.00000000000E+00 -0.00000000000E+00 -0.30371879813E+02  0.30371879813E+02  0.00000000000E+00 0. -1.
         21    1    1    2  503  501  0.92384463578E+01 -0.11344891083E+03  0.99477779334E+02  0.15116822695E+03  0.00000000000E+00 0. -1.
          1    1    1    2  501    0 -0.92384463578E+01  0.11344891083E+03  0.71101281999E+03  0.72006613200E+03  0.00000000000E+00 0. -1.
<mgrwt>
<rscale>  2 0.11382444E+03</rscale>
<asrwt>0</asrwt>
<pdfrwt beam="2">  1       21 0.46725975E-02 0.11382444E+03</pdfrwt>
<pdfrwt beam="1">  1        1 0.12936344E+00 0.11382444E+03</pdfrwt>
<totfact> 0.71760120E+04</totfact>
</mgrwt>
</event>
<event>
 4    1  0.5006371E+003  0.1430518E+03  0.7546771E-02  0.1209281E+00
          1   -1    0    0  503    0 -0.00000000000E+00  0.00000000000E+00  0.13992113896E+04  0.13992113896E+04  0.00000000000E+00 0. -1.
         21   -1    0    0  501  502  0.00000000000E+00 -0.00000000000E+00 -0.17424793106E+02  0.17424793106E+02  0.00000000000E+00 0.  1.
         21    1    1    2  503  502  0.45199453467E+01  0.14298037582E+03  0.40697850537E+03  0.43138766974E+03  0.00000000000E+00 0.  1.
          1    1    1    2  501    0 -0.45199453467E+01 -0.14298037582E+03  0.97480809115E+03  0.98524851298E+03  0.00000000000E+00 0. -1.
<mgrwt>
<rscale>  2 0.14305180E+03</rscale>
<asrwt>0</asrwt>
<pdfrwt beam="2">  1       21 0.26807385E-02 0.14305180E+03</pdfrwt>
<pdfrwt beam="1">  1        1 0.21526320E+00 0.14305180E+03</pdfrwt>
<totfact> 0.72470615E+04</totfact>
</mgrwt>
</event>
<event>
 4    1  0.5006371E+003  0.1189596E+03  0.7546771E-02  0.1244823E+00
         21   -1    0    0  501  502  0.00000000000E+00  0.00000000000E+00  0.89034560384E+02  0.89034560384E+02  0.00000000000E+00 0. -1.
          1   -1    0    0  503    0 -0.00000000000E+00 -0.00000000000E+00 -0.25786583528E+03  0.25786583528E+03  0.00000000000E+00 0. -1.
         21    1    1    2  503  502 -0.11058780880E+03 -0.43837588427E+02  0.23014647904E+02  0.12116547211E+03  0.00000000000E+00 0. -1.
          1    1    1    2  501    0  0.11058780880E+03  0.43837588427E+02 -0.19184592280E+03  0.22573492355E+03  0.00000000000E+00 0. -1.
<mgrwt>
<rscale>  2 0.11895965E+03</rscale>
<asrwt>0</asrwt>
<pdfrwt beam="1">  1       21 0.13697625E-01 0.11895965E+03</pdfrwt>
<pdfrwt beam="2">  1        1 0.39671667E-01 0.11895965E+03</pdfrwt>
<totfact> 0.53187632E+04</totfact>
</mgrwt>
</event>
<event>
 4    1  0.5006371E+003  0.1051018E+03  0.7546771E-02  0.1269919E+00
         21   -1    0    0  503  502  0.00000000000E+00  0.00000000000E+00  0.15189510843E+03  0.15189510843E+03  0.00000000000E+00 0.  1.
          2   -1    0    0  502    0 -0.00000000000E+00 -0.00000000000E+00 -0.10421817514E+03  0.10421817514E+03  0.00000000000E+00 0.  1.
         21    1    1    2  503  501  0.10927302233E+02 -0.10453225771E+03  0.94234218221E+02  0.14116120827E+03  0.00000000000E+00 0.  1.
          2    1    1    2  501    0 -0.10927302233E+02  0.10453225771E+03 -0.46557284935E+02  0.11495207530E+03  0.00000000000E+00 0.  1.
<mgrwt>
<rscale>  2 0.10510185E+03</rscale>
<asrwt>0</asrwt>
<pdfrwt beam="1">  1       21 0.23368478E-01 0.10510185E+03</pdfrwt>
<pdfrwt beam="2">  1        2 0.16033565E-01 0.10510185E+03</pdfrwt>
<totfact> 0.74394978E+04</totfact>
</mgrwt>
</event>
<event>
 4    1  0.5006371E+003  0.1269373E+03  0.7546771E-02  0.1232072E+00
         21   -1    0    0  501  502  0.00000000000E+00  0.00000000000E+00  0.82816885354E+02  0.82816885354E+02  0.00000000000E+00 0. -1.
          1   -1    0    0  503    0 -0.00000000000E+00 -0.00000000000E+00 -0.33070178779E+03  0.33070178779E+03  0.00000000000E+00 0. -1.
         21    1    1    2  503  502 -0.96033799959E+02  0.83009506148E+02  0.87170714596E+01  0.12723622197E+03  0.00000000000E+00 0. -1.
          1    1    1    2  501    0  0.96033799959E+02 -0.83009506148E+02 -0.25660197389E+03  0.28628245118E+03  0.00000000000E+00 0. -1.
<mgrwt>
<rscale>  2 0.12693726E+03</rscale>
<asrwt>0</asrwt>
<pdfrwt beam="1">  1       21 0.12741059E-01 0.12693726E+03</pdfrwt>
<pdfrwt beam="2">  1        1 0.50877199E-01 0.12693726E+03</pdfrwt>
<totfact> 0.44570825E+04</totfact>
</mgrwt>
</event>
<event>
 4    1  0.5006371E+003  0.1085936E+03  0.7546771E-02  0.1263197E+00
         -3   -1    0    0    0  501 -0.00000000000E+00  0.00000000000E+00  0.13184996839E+03  0.13184996839E+03  0.00000000000E+00 0.  1.
         21   -1    0    0  501  502  0.00000000000E+00 -0.00000000000E+00 -0.25823273181E+03  0.25823273181E+03  0.00000000000E+00 0. -1.
         21    1    1    2  503  502  0.10825735051E+03  0.85390471631E+01 -0.22087944436E+03  0.24613065271E+03  0.00000000000E+00 0. -1.
         -3    1    1    2    0  503 -0.10825735051E+03 -0.85390471631E+01  0.94496680938E+02  0.14395204748E+03  0.00000000000E+00 0.  1.
<mgrwt>
<rscale>  2 0.10859360E+03</rscale>
<asrwt>0</asrwt>
<pdfrwt beam="2">  1       21 0.39728112E-01 0.10859360E+03</pdfrwt>
<pdfrwt beam="1">  1       -3 0.20284611E-01 0.10859360E+03</pdfrwt>
<totfact> 0.64500347E+03</totfact>
</mgrwt>
</event>
<event>
 4    1  0.5006371E+003  0.1164353E+03  0.7546771E-02  0.1249096E+00
         21   -1    0    0  501  502  0.00000000000E+00  0.00000000000E+00  0.34538117555E+03  0.34538117555E+03  0.00000000000E+00 0.  1.
         -2   -1    0    0    0  501 -0.00000000000E+00 -0.00000000000E+00 -0.10496820952E+03  0.10496820952E+03  0.00000000000E+00 0. -1.
         21    1    1    2  503  502 -0.11587971475E+03  0.11360805308E+02  0.29837227075E+03  0.32028610357E+03  0.00000000000E+00 0.  1.
         -2    1    1    2    0  503  0.11587971475E+03 -0.11360805308E+02 -0.57959304730E+02  0.13006328150E+03  0.00000000000E+00 0. -1.
<mgrwt>
<rscale>  2 0.11643529E+03</rscale>
<asrwt>0</asrwt>
<pdfrwt beam="1">  1       21 0.53135565E-01 0.11643529E+03</pdfrwt>
<pdfrwt beam="2">  1       -2 0.16148955E-01 0.11643529E+03</pdfrwt>
<totfact> 0.81081624E+03</totfact>
</mgrwt>
</event>
<event>
 4    1  0.5006371E+003  0.1674978E+03  0.7546771E-02  0.1180483E+00
          2   -1    0    0  503    0 -0.00000000000E+00  0.00000000000E+00  0.52200683974E+03  0.52200683974E+03  0.00000000000E+00 0. -1.
         21   -1    0    0  501  502  0.00000000000E+00 -0.00000000000E+00 -0.61539079383E+02  0.61539079383E+02  0.00000000000E+00 0. -1.
         21    1    1    2  503  502 -0.10541698271E+03  0.13016435845E+03  0.12640002150E+03  0.20983914289E+03  0.00000000000E+00 0. -1.
          2    1    1    2  501    0  0.10541698271E+03 -0.13016435845E+03  0.33406773886E+03  0.37370677623E+03  0.00000000000E+00 0. -1.
<mgrwt>
<rscale>  2 0.16749776E+03</rscale>
<asrwt>0</asrwt>
<pdfrwt beam="2">  1       21 0.94675510E-02 0.16749776E+03</pdfrwt>
<pdfrwt beam="1">  1        2 0.80308742E-01 0.16749776E+03</pdfrwt>
<totfact> 0.66375926E+04</totfact>
</mgrwt>
</event>
<event>
 4    1  0.5006371E+003  0.1185259E+03  0.7546771E-02  0.1245549E+00
         21   -1    0    0  503  502  0.00000000000E+00  0.00000000000E+00  0.77185657332E+02  0.77185657332E+02  0.00000000000E+00 0. -1.
          2   -1    0    0  502    0 -0.00000000000E+00 -0.00000000000E+00 -0.32234242198E+03  0.32234242198E+03  0.00000000000E+00 0.  1.
         21    1    1    2  503  501  0.99603210086E+02 -0.64246334824E+02  0.92293862399E+01  0.11888470283E+03  0.00000000000E+00 0. -1.
          2    1    1    2  501    0 -0.99603210086E+02  0.64246334824E+02 -0.25438615089E+03  0.28064337648E+03  0.00000000000E+00 0.  1.
<mgrwt>
<rscale>  2 0.11852591E+03</rscale>
<asrwt>0</asrwt>
<pdfrwt beam="1">  1       21 0.11874717E-01 0.11852591E+03</pdfrwt>
<pdfrwt beam="2">  1        2 0.49591141E-01 0.11852591E+03</pdfrwt>
<totfact> 0.74442972E+04</totfact>
</mgrwt>
</event>
<event>
 4    1  0.5006371E+003  0.1171183E+03  0.7546771E-02  0.1247928E+00
          1   -1    0    0  503    0 -0.00000000000E+00  0.00000000000E+00  0.39690282226E+03  0.39690282226E+03  0.00000000000E+00 0. -1.
         21   -1    0    0  501  502  0.00000000000E+00 -0.00000000000E+00 -0.11214797579E+03  0.11214797579E+03  0.00000000000E+00 0. -1.
         21    1    1    2  503  502 -0.86240384940E+01  0.11680035448E+03 -0.69329219254E+02  0.13610010099E+03  0.00000000000E+00 0. -1.
          1    1    1    2  501    0  0.86240384940E+01 -0.11680035448E+03  0.35408406572E+03  0.37295069706E+03  0.00000000000E+00 0. -1.
<mgrwt>
<rscale>  2 0.11711830E+03</rscale>
<asrwt>0</asrwt>
<pdfrwt beam="2">  1       21 0.17253535E-01 0.11711830E+03</pdfrwt>
<pdfrwt beam="1">  1        1 0.61061972E-01 0.11711830E+03</pdfrwt>
<totfact> 0.20577613E+04</totfact>
</mgrwt>
</event>
<event>
 4    1  0.5006371E+003  0.1141784E+03  0.7546771E-02  0.1253022E+00
          2   -1    0    0  503    0 -0.00000000000E+00  0.00000000000E+00  0.29016577759E+03  0.29016577759E+03  0.00000000000E+00 0. -1.
         21   -1    0    0  501  502  0.00000000000E+00 -0.00000000000E+00 -0.71942229696E+02  0.71942229696E+02  0.00000000000E+00 0. -1.
         21    1    1    2  503  502  0.62198140841E+02 -0.95750202088E+02 -0.18334343691E+01  0.11419313204E+03  0.00000000000E+00 0. -1.
          2    1    1    2  501    0 -0.62198140841E+02  0.95750202088E+02  0.22005698227E+03  0.24791487525E+03  0.00000000000E+00 0. -1.
<mgrwt>
<rscale>  2 0.11417841E+03</rscale>
<asrwt>0</asrwt>
<pdfrwt beam="2">  1       21 0.11068035E-01 0.11417841E+03</pdfrwt>
<pdfrwt beam="1">  1        2 0.44640888E-01 0.11417841E+03</pdfrwt>
<totfact> 0.94038440E+04</totfact>
</mgrwt>
</event>
<event>
 4    1  0.5006371E+003  0.1218627E+03  0.7546771E-02  0.1240055E+00
         21   -1    0    0  501  502  0.00000000000E+00  0.00000000000E+00  0.10182543840E+02  0.10182543840E+02  0.00000000000E+00 0.  1.
          1   -1    0    0  503    0 -0.00000000000E+00 -0.00000000000E+00 -0.35708751007E+04  0.35708751007E+04  0.00000000000E+00 0.  1.
         21    1    1    2  503  502  0.11178838332E+03 -0.48516669903E+02 -0.40317841888E+03  0.42119276745E+03  0.00000000000E+00 0.  1.
          1    1    1    2  501    0 -0.11178838332E+03  0.48516669903E+02 -0.31575141380E+04  0.31598648771E+04  0.00000000000E+00 0.  1.
<mgrwt>
<rscale>  2 0.12186267E+03</rscale>
<asrwt>0</asrwt>
<pdfrwt beam="1">  1       21 0.15665460E-02 0.12186267E+03</pdfrwt>
<pdfrwt beam="2">  1        1 0.54936514E+00 0.12186267E+03</pdfrwt>
<totfact> 0.61941185E+03</totfact>
</mgrwt>
</event>
<event>
 4    1  0.5006371E+003  0.1215421E+03  0.7546771E-02  0.1240575E+00
         -1   -1    0    0    0  501 -0.00000000000E+00  0.00000000000E+00  0.47072976525E+03  0.47072976525E+03  0.00000000000E+00 0.  1.
         21   -1    0    0  503  502  0.00000000000E+00 -0.00000000000E+00 -0.35829363967E+02  0.35829363967E+02  0.00000000000E+00 0.  1.
         21    1    1    2  503  501  0.41651153369E+02 -0.11418257656E+03  0.12821668381E+03  0.17666917494E+03  0.00000000000E+00 0.  1.
         -1    1    1    2    0  502 -0.41651153369E+02  0.11418257656E+03  0.30668371747E+03  0.32988995427E+03  0.00000000000E+00 0.  1.
<mgrwt>
<rscale>  2 0.12154209E+03</rscale>
<asrwt>0</asrwt>
<pdfrwt beam="2">  1       21 0.55122102E-02 0.12154209E+03</pdfrwt>
<pdfrwt beam="1">  1       -1 0.72419960E-01 0.12154209E+03</pdfrwt>
<totfact> 0.42092632E+04</totfact>
</mgrwt>
</event>
<event>
 4    1  0.5006371E+003  0.1098031E+03  0.7546771E-02  0.1260935E+00
         21   -1    0    0  501  502  0.00000000000E+00  0.00000000000E+00  0.75692824972E+02  0.75692824972E+02  0.00000000000E+00 0.  1.
         -2   -1    0    0    0  501 -0.00000000000E+00 -0.00000000000E+00 -0.51106820649E+03  0.51106820649E+03  0.00000000000E+00 0. -1.
         21    1    1    2  503  502  0.53166137048E+02  0.96073275701E+02  0.25717336357E+02  0.11277452648E+03  0.00000000000E+00 0.  1.
         -2    1    1    2    0  503 -0.53166137048E+02 -0.96073275701E+02 -0.46109271788E+03  0.47398650499E+03  0.00000000000E+00 0. -1.
<mgrwt>
<rscale>  2 0.10980306E+03</rscale>
<asrwt>0</asrwt>
<pdfrwt beam="1">  1       21 0.11645050E-01 0.10980306E+03</pdfrwt>
<pdfrwt beam="2">  1       -2 0.78625880E-01 0.10980306E+03</pdfrwt>
<totfact> 0.74996144E+03</totfact>
</mgrwt>
</event>
<event>
 4    1  0.5006371E+003  0.1115584E+03  0.7546771E-02  0.1257711E+00
          1   -1    0    0  502    0 -0.00000000000E+00  0.00000000000E+00  0.85166533128E+03  0.85166533128E+03  0.00000000000E+00 0.  1.
         21   -1    0    0  503  502  0.00000000000E+00 -0.00000000000E+00 -0.15113063563E+03  0.15113063563E+03  0.00000000000E+00 0. -1.
         21    1    1    2  503  501 -0.77346357801E+02  0.80391611207E+02 -0.12627436647E+03  0.16849476504E+03  0.00000000000E+00 0. -1.
          1    1    1    2  501    0  0.77346357801E+02 -0.80391611207E+02  0.82680906213E+03  0.83430120186E+03  0.00000000000E+00 0.  1.
<mgrwt>
<rscale>  2 0.11155837E+03</rscale>
<asrwt>0</asrwt>
<pdfrwt beam="2">  1       21 0.23250867E-01 0.11155837E+03</pdfrwt>
<pdfrwt beam="1">  1        1 0.13102543E+00 0.11155837E+03</pdfrwt>
<totfact> 0.42142601E+03</totfact>
</mgrwt>
</event>
<event>
 4    1  0.5006371E+003  0.1932112E+03  0.7546771E-02  0.1155597E+00
         -4   -1    0    0    0  501 -0.00000000000E+00  0.00000000000E+00  0.23875499169E+03  0.23875499169E+03  0.00000000000E+00 0. -1.
         21   -1    0    0  501  502  0.00000000000E+00 -0.00000000000E+00 -0.19545507129E+03  0.19545507129E+03  0.00000000000E+00 0. -1.
         21    1    1    2  503  502 -0.76573258315E+02 -0.17738971510E+03 -0.75453409989E+02  0.20742177319E+03  0.00000000000E+00 0. -1.
         -4    1    1    2    0  503  0.76573258315E+02  0.17738971510E+03  0.11875333039E+03  0.22678828980E+03  0.00000000000E+00 0. -1.
<mgrwt>
<rscale>  2 0.19321122E+03</rscale>
<asrwt>0</asrwt>
<pdfrwt beam="2">  1       21 0.30070011E-01 0.19321122E+03</pdfrwt>
<pdfrwt beam="1">  1       -4 0.36731537E-01 0.19321122E+03</pdfrwt>
<totfact> 0.32092867E+03</totfact>
</mgrwt>
</event>
<event>
 4    1  0.5006371E+003  0.1004490E+03  0.7546771E-02  0.1279354E+00
         -2   -1    0    0    0  501 -0.00000000000E+00  0.00000000000E+00  0.48647547383E+02  0.48647547383E+02  0.00000000000E+00 0.  1.
         21   -1    0    0  503  502  0.00000000000E+00 -0.00000000000E+00 -0.49723802494E+03  0.49723802494E+03  0.00000000000E+00 0.  1.
         21    1    1    2  503  501 -0.21065794894E+02  0.98215288035E+02 -0.43267680259E+03  0.44418377505E+03  0.00000000000E+00 0.  1.
         -2    1    1    2    0  502  0.21065794894E+02 -0.98215288035E+02 -0.15913674971E+02  0.10170179728E+03  0.00000000000E+00 0.  1.
<mgrwt>
<rscale>  2 0.10044904E+03</rscale>
<asrwt>0</asrwt>
<pdfrwt beam="2">  1       21 0.76498158E-01 0.10044904E+03</pdfrwt>
<pdfrwt beam="1">  1       -2 0.74842380E-02 0.10044904E+03</pdfrwt>
<totfact> 0.12540572E+04</totfact>
</mgrwt>
</event>
<event>
 4    1  0.5006371E+003  0.1027104E+03  0.7546771E-02  0.1274697E+00
          2   -1    0    0  503    0 -0.00000000000E+00  0.00000000000E+00  0.21005593126E+04  0.21005593126E+04  0.00000000000E+00 0. -1.
         21   -1    0    0  501  502  0.00000000000E+00 -0.00000000000E+00 -0.10246978314E+02  0.10246978314E+02  0.00000000000E+00 0.  1.
         21    1    1    2  503  502  0.56001117586E+02  0.86100502325E+02  0.29153245566E+03  0.30909641599E+03  0.00000000000E+00 0.  1.
          2    1    1    2  501    0 -0.56001117586E+02 -0.86100502325E+02  0.17987798787E+04  0.18017098750E+04  0.00000000000E+00 0. -1.
<mgrwt>
<rscale>  2 0.10271038E+03</rscale>
<asrwt>0</asrwt>
<pdfrwt beam="2">  1       21 0.15764599E-02 0.10271038E+03</pdfrwt>
<pdfrwt beam="1">  1        2 0.32316263E+00 0.10271038E+03</pdfrwt>
<totfact> 0.15571830E+05</totfact>
</mgrwt>
</event>
<event>
 4    1  0.5006371E+003  0.1378376E+03  0.7546771E-02  0.1216269E+00
          1   -1    0    0  503    0 -0.00000000000E+00  0.00000000000E+00  0.28850988598E+04  0.28850988598E+04  0.00000000000E+00 0.  1.
         21   -1    0    0  501  502  0.00000000000E+00 -0.00000000000E+00 -0.66314793254E+01  0.66314793254E+01  0.00000000000E+00 0.  1.
         21    1    1    2  503  502  0.13252795365E+03  0.37888690048E+02  0.13185647286E+04  0.13257496577E+04  0.00000000000E+00 0.  1.
          1    1    1    2  501    0 -0.13252795365E+03 -0.37888690048E+02  0.15599026519E+04  0.15659806815E+04  0.00000000000E+00 0.  1.
<mgrwt>
<rscale>  2 0.13783763E+03</rscale>
<asrwt>0</asrwt>
<pdfrwt beam="2">  1       21 0.10202299E-02 0.13783763E+03</pdfrwt>
<pdfrwt beam="1">  1        1 0.44386036E+00 0.13783763E+03</pdfrwt>
<totfact> 0.37283036E+04</totfact>
</mgrwt>
</event>
<event>
 4    1  0.5006371E+003  0.2727965E+03  0.7546771E-02  0.1099690E+00
          4   -1    0    0  502    0 -0.00000000000E+00  0.00000000000E+00  0.17808987064E+04  0.17808987064E+04  0.00000000000E+00 0.  1.
         21   -1    0    0  503  502  0.00000000000E+00 -0.00000000000E+00 -0.10449400653E+03  0.10449400653E+03  0.00000000000E+00 0.  1.
         21    1    1    2  503  501  0.10463908861E+02 -0.27259576541E+03  0.10792961651E+03  0.29337134629E+03  0.00000000000E+00 0.  1.
          4    1    1    2  501    0 -0.10463908861E+02  0.27259576541E+03  0.15684750833E+04  0.15920213666E+04  0.00000000000E+00 0.  1.
<mgrwt>
<rscale>  2 0.27279653E+03</rscale>
<asrwt>0</asrwt>
<pdfrwt beam="2">  1       21 0.16076002E-01 0.27279653E+03</pdfrwt>
<pdfrwt beam="1">  1        4 0.27398439E+00 0.27279653E+03</pdfrwt>
<totfact> 0.74368438E+01</totfact>
</mgrwt>
</event>
<event>
 4    1  0.5006371E+003  0.1191568E+03  0.7546771E-02  0.1244495E+00
         21   -1    0    0  501  502  0.00000000000E+00  0.00000000000E+00  0.29345865957E+02  0.29345865957E+02  0.00000000000E+00 0. -1.
          1   -1    0    0  503    0 -0.00000000000E+00 -0.00000000000E+00 -0.16784642299E+04  0.16784642299E+04  0.00000000000E+00 0.  1.
         21    1    1    2  503  502 -0.51366383855E+02  0.10751663982E+03 -0.10416285388E+03  0.15826633677E+03  0.00000000000E+00 0. -1.
          1    1    1    2  501    0  0.51366383855E+02 -0.10751663982E+03 -0.15449555100E+04  0.15495437591E+04  0.00000000000E+00 0.  1.
<mgrwt>
<rscale>  2 0.11915676E+03</rscale>
<asrwt>0</asrwt>
<pdfrwt beam="1">  1       21 0.45147475E-02 0.11915676E+03</pdfrwt>
<pdfrwt beam="2">  1        1 0.25822533E+00 0.11915676E+03</pdfrwt>
<totfact> 0.20317283E+04</totfact>
</mgrwt>
</event>
<event>
 4    1  0.5006371E+003  0.1022895E+03  0.7546771E-02  0.1275554E+00
         21   -1    0    0  503  502  0.00000000000E+00  0.00000000000E+00  0.11474732316E+02  0.11474732316E+02  0.00000000000E+00 0.  1.
          2   -1    0    0  502    0 -0.00000000000E+00 -0.00000000000E+00 -0.17744000402E+04  0.17744000402E+04  0.00000000000E+00 0.  1.
         21    1    1    2  503  501  0.79528286702E+02 -0.64330392977E+02 -0.25889107328E+03  0.27836618988E+03  0.00000000000E+00 0.  1.
          2    1    1    2  501    0 -0.79528286702E+02  0.64330392977E+02 -0.15040342346E+04  0.15075085826E+04  0.00000000000E+00 0.  1.
<mgrwt>
<rscale>  2 0.10228953E+03</rscale>
<asrwt>0</asrwt>
<pdfrwt beam="1">  1       21 0.17653430E-02 0.10228953E+03</pdfrwt>
<pdfrwt beam="2">  1        2 0.27298470E+00 0.10228953E+03</pdfrwt>
<totfact> 0.18998563E+05</totfact>
</mgrwt>
</event>
<event>
 4    1  0.5006371E+003  0.1073501E+03  0.7546771E-02  0.1265557E+00
         21   -1    0    0  501  502  0.00000000000E+00  0.00000000000E+00  0.29184457076E+02  0.29184457076E+02  0.00000000000E+00 0.  1.
          1   -1    0    0  503    0 -0.00000000000E+00 -0.00000000000E+00 -0.58940409003E+03  0.58940409003E+03  0.00000000000E+00 0. -1.
         21    1    1    2  503  502 -0.68990027604E+02 -0.82246029798E+02 -0.10241922339E+03  0.14837024852E+03  0.00000000000E+00 0.  1.
          1    1    1    2  501    0  0.68990027604E+02  0.82246029798E+02 -0.45780040957E+03  0.47021829859E+03  0.00000000000E+00 0. -1.
<mgrwt>
<rscale>  2 0.10735005E+03</rscale>
<asrwt>0</asrwt>
<pdfrwt beam="1">  1       21 0.44899168E-02 0.10735005E+03</pdfrwt>
<pdfrwt beam="2">  1        1 0.90677546E-01 0.10735005E+03</pdfrwt>
<totfact> 0.12710090E+05</totfact>
</mgrwt>
</event>
<event>
 4    1  0.5006371E+003  0.1497398E+03  0.7546771E-02  0.1200793E+00
         21   -1    0    0  503  502  0.00000000000E+00  0.00000000000E+00  0.54228072365E+02  0.54228072365E+02  0.00000000000E+00 0. -1.
          1   -1    0    0  502    0 -0.00000000000E+00 -0.00000000000E+00 -0.10012278722E+04  0.10012278722E+04  0.00000000000E+00 0. -1.
         21    1    1    2  503  501  0.24672202284E+02  0.14769326631E+03 -0.69165606151E+02  0.16494210970E+03  0.00000000000E+00 0. -1.
          1    1    1    2  501    0 -0.24672202284E+02 -0.14769326631E+03 -0.87783419373E+03  0.89051383490E+03  0.00000000000E+00 0. -1.
<mgrwt>
<rscale>  2 0.14973984E+03</rscale>
<asrwt>0</asrwt>
<pdfrwt beam="1">  1       21 0.83427819E-02 0.14973984E+03</pdfrwt>
<pdfrwt beam="2">  1        1 0.15403503E+00 0.14973984E+03</pdfrwt>
<totfact> 0.20180263E+04</totfact>
</mgrwt>
</event>
<event>
 4    1  0.5006371E+003  0.1237594E+03  0.7546771E-02  0.1237021E+00
         21   -1    0    0  501  502  0.00000000000E+00  0.00000000000E+00  0.13684262865E+02  0.13684262865E+02  0.00000000000E+00 0. -1.
          2   -1    0    0  503    0 -0.00000000000E+00 -0.00000000000E+00 -0.21641388823E+04  0.21641388823E+04  0.00000000000E+00 0.  1.
         21    1    1    2  503  502  0.52613288121E+02  0.11201892589E+03 -0.31860219896E+03  0.34179490784E+03  0.00000000000E+00 0. -1.
          2    1    1    2  501    0 -0.52613288121E+02 -0.11201892589E+03 -0.18318524205E+04  0.18360282373E+04  0.00000000000E+00 0.  1.
<mgrwt>
<rscale>  2 0.12375944E+03</rscale>
<asrwt>0</asrwt>
<pdfrwt beam="1">  1       21 0.21052711E-02 0.12375944E+03</pdfrwt>
<pdfrwt beam="2">  1        2 0.33294446E+00 0.12375944E+03</pdfrwt>
<totfact> 0.90678477E+04</totfact>
</mgrwt>
</event>
<event>
 4    1  0.5006371E+003  0.1283641E+03  0.7546771E-02  0.1229903E+00
         21   -1    0    0  501  502  0.00000000000E+00  0.00000000000E+00  0.85624750608E+01  0.85624750608E+01  0.00000000000E+00 0. -1.
          1   -1    0    0  503    0 -0.00000000000E+00 -0.00000000000E+00 -0.31082286219E+04  0.31082286219E+04  0.00000000000E+00 0. -1.
         21    1    1    2  503  502  0.11699650758E+03  0.52812607982E+02 -0.58806251099E+03  0.60190935462E+03  0.00000000000E+00 0. -1.
          1    1    1    2  501    0 -0.11699650758E+03 -0.52812607982E+02 -0.25116036358E+04  0.25148817423E+04  0.00000000000E+00 0. -1.
<mgrwt>
<rscale>  2 0.12836415E+03</rscale>
<asrwt>0</asrwt>
<pdfrwt beam="1">  1       21 0.13173018E-02 0.12836415E+03</pdfrwt>
<pdfrwt beam="2">  1        1 0.47818976E+00 0.12836415E+03</pdfrwt>
<totfact> 0.17540150E+04</totfact>
</mgrwt>
</event>
<event>
 4    1  0.5006371E+003  0.1048994E+03  0.7546771E-02  0.1270318E+00
         -2   -1    0    0    0  501 -0.00000000000E+00  0.00000000000E+00  0.22414369126E+03  0.22414369126E+03  0.00000000000E+00 0. -1.
         21   -1    0    0  503  502  0.00000000000E+00 -0.00000000000E+00 -0.86054431180E+02  0.86054431180E+02  0.00000000000E+00 0.  1.
         21    1    1    2  503  501 -0.11550679460E+02  0.10426147851E+03 -0.32603000097E+02  0.10984912249E+03  0.00000000000E+00 0.  1.
         -2    1    1    2    0  502  0.11550679460E+02 -0.10426147851E+03  0.17069226018E+03  0.20034899995E+03  0.00000000000E+00 0. -1.
<mgrwt>
<rscale>  2 0.10489935E+03</rscale>
<asrwt>0</asrwt>
<pdfrwt beam="2">  1       21 0.13239143E-01 0.10489935E+03</pdfrwt>
<pdfrwt beam="1">  1       -2 0.34483645E-01 0.10489935E+03</pdfrwt>
<totfact> 0.30799352E+04</totfact>
</mgrwt>
</event>
<event>
 4    1  0.5006371E+003  0.1092768E+03  0.7546771E-02  0.1261915E+00
         21   -1    0    0  501  502  0.00000000000E+00  0.00000000000E+00  0.38231553221E+02  0.38231553221E+02  0.00000000000E+00 0. -1.
          2   -1    0    0  503    0 -0.00000000000E+00 -0.00000000000E+00 -0.16312751562E+04  0.16312751562E+04  0.00000000000E+00 0. -1.
         21    1    1    2  503  502 -0.83826278979E+02  0.70104025013E+02 -0.45927044945E+02  0.11853570276E+03  0.00000000000E+00 0. -1.
          2    1    1    2  501    0  0.83826278979E+02 -0.70104025013E+02 -0.15471165580E+04  0.15509710067E+04  0.00000000000E+00 0. -1.
<mgrwt>
<rscale>  2 0.10927680E+03</rscale>
<asrwt>0</asrwt>
<pdfrwt beam="1">  1       21 0.58817781E-02 0.10927680E+03</pdfrwt>
<pdfrwt beam="2">  1        2 0.25096538E+00 0.10927680E+03</pdfrwt>
<totfact> 0.31217578E+04</totfact>
</mgrwt>
</event>
<event>
 4    1  0.5006371E+003  0.1512904E+03  0.7546771E-02  0.1198896E+00
         21   -1    0    0  503  502  0.00000000000E+00  0.00000000000E+00  0.84343015523E+02  0.84343015523E+02  0.00000000000E+00 0.  1.
          2   -1    0    0  502    0 -0.00000000000E+00 -0.00000000000E+00 -0.14501662066E+04  0.14501662066E+04  0.00000000000E+00 0. -1.
         21    1    1    2  503  501 -0.13576773320E+02 -0.15067994533E+03  0.88375767442E+01  0.15154826776E+03  0.00000000000E+00 0.  1.
          2    1    1    2  501    0  0.13576773320E+02  0.15067994533E+03 -0.13746607678E+04  0.13829609543E+04  0.00000000000E+00 0. -1.
<mgrwt>
<rscale>  2 0.15129037E+03</rscale>
<asrwt>0</asrwt>
<pdfrwt beam="1">  1       21 0.12975850E-01 0.15129037E+03</pdfrwt>
<pdfrwt beam="2">  1        2 0.22310248E+00 0.15129037E+03</pdfrwt>
<totfact> 0.96673760E+03</totfact>
</mgrwt>
</event>
<event>
 4    1  0.5006371E+003  0.1172684E+03  0.7546771E-02  0.1247672E+00
         21   -1    0    0  501  502  0.00000000000E+00  0.00000000000E+00  0.12732842992E+02  0.12732842992E+02  0.00000000000E+00 0.  1.
          2   -1    0    0  503    0 -0.00000000000E+00 -0.00000000000E+00 -0.23256748473E+04  0.23256748473E+04  0.00000000000E+00 0. -1.
         21    1    1    2  503  502  0.11568402673E+03 -0.19211840718E+02 -0.30078908178E+03  0.32284045686E+03  0.00000000000E+00 0.  1.
          2    1    1    2  501    0 -0.11568402673E+03  0.19211840718E+02 -0.20121529225E+04  0.20155672334E+04  0.00000000000E+00 0. -1.
<mgrwt>
<rscale>  2 0.11726845E+03</rscale>
<asrwt>0</asrwt>
<pdfrwt beam="1">  1       21 0.19589010E-02 0.11726845E+03</pdfrwt>
<pdfrwt beam="2">  1        2 0.35779575E+00 0.11726845E+03</pdfrwt>
<totfact> 0.84132011E+04</totfact>
</mgrwt>
</event>
<event>
 4    1  0.5006371E+003  0.1148994E+03  0.7546771E-02  0.1251757E+00
         21   -1    0    0  501  502  0.00000000000E+00  0.00000000000E+00  0.32206130328E+02  0.32206130328E+02  0.00000000000E+00 0.  1.
          1   -1    0    0  503    0 -0.00000000000E+00 -0.00000000000E+00 -0.41688991009E+03  0.41688991009E+03  0.00000000000E+00 0. -1.
         21    1    1    2  503  502 -0.29408382124E+02  0.11107214377E+03 -0.16330347217E+03  0.19967448030E+03  0.00000000000E+00 0.  1.
          1    1    1    2  501    0  0.29408382124E+02 -0.11107214377E+03 -0.22138030760E+03  0.24942156012E+03  0.00000000000E+00 0. -1.
<mgrwt>
<rscale>  2 0.11489941E+03</rscale>
<asrwt>0</asrwt>
<pdfrwt beam="1">  1       21 0.49547893E-02 0.11489941E+03</pdfrwt>
<pdfrwt beam="2">  1        1 0.64136909E-01 0.11489941E+03</pdfrwt>
<totfact> 0.16933740E+05</totfact>
</mgrwt>
</event>
<event>
 4    1  0.5006371E+003  0.1300382E+03  0.7546771E-02  0.1227399E+00
         -4   -1    0    0    0  501 -0.00000000000E+00  0.00000000000E+00  0.29279848063E+03  0.29279848063E+03  0.00000000000E+00 0.  1.
         21   -1    0    0  501  502  0.00000000000E+00 -0.00000000000E+00 -0.10356226687E+03  0.10356226687E+03  0.00000000000E+00 0.  1.
         21    1    1    2  503  502 -0.13003033917E+03  0.14343401647E+01 -0.37188522911E+02  0.13525136847E+03  0.00000000000E+00 0.  1.
         -4    1    1    2    0  503  0.13003033917E+03 -0.14343401647E+01  0.22642473667E+03  0.26110937902E+03  0.00000000000E+00 0.  1.
<mgrwt>
<rscale>  2 0.13003825E+03</rscale>
<asrwt>0</asrwt>
<pdfrwt beam="2">  1       21 0.15932657E-01 0.13003825E+03</pdfrwt>
<pdfrwt beam="1">  1       -4 0.45045920E-01 0.13003825E+03</pdfrwt>
<totfact> 0.69016078E+03</totfact>
</mgrwt>
</event>
<event>
 4    1  0.5006371E+003  0.1731509E+03  0.7546771E-02  0.1174601E+00
          2   -1    0    0  503    0 -0.00000000000E+00  0.00000000000E+00  0.72015812331E+03  0.72015812331E+03  0.00000000000E+00 0. -1.
         21   -1    0    0  501  502  0.00000000000E+00 -0.00000000000E+00 -0.15608160155E+03  0.15608160155E+03  0.00000000000E+00 0. -1.
         21    1    1    2  503  502 -0.39238155089E+02  0.16864642314E+03 -0.93129243620E+02  0.19660698073E+03  0.00000000000E+00 0. -1.
          2    1    1    2  501    0  0.39238155089E+02 -0.16864642314E+03  0.65720576538E+03  0.67963274413E+03  0.00000000000E+00 0. -1.
<mgrwt>
<rscale>  2 0.17315094E+03</rscale>
<asrwt>0</asrwt>
<pdfrwt beam="2">  1       21 0.24012554E-01 0.17315094E+03</pdfrwt>
<pdfrwt beam="1">  1        2 0.11079356E+00 0.17315094E+03</pdfrwt>
<totfact> 0.84076041E+03</totfact>
</mgrwt>
</event>
<event>
 4    1  0.5006371E+003  0.1114283E+03  0.7546771E-02  0.1257948E+00
          4   -1    0    0  503    0 -0.00000000000E+00  0.00000000000E+00  0.91458543215E+02  0.91458543215E+02  0.00000000000E+00 0. -1.
         21   -1    0    0  501  502  0.00000000000E+00 -0.00000000000E+00 -0.24486378038E+03  0.24486378038E+03  0.00000000000E+00 0. -1.
         21    1    1    2  503  502  0.22525847941E+02 -0.10912764526E+03 -0.18895270848E+03  0.21936130658E+03  0.00000000000E+00 0. -1.
          4    1    1    2  501    0 -0.22525847941E+02  0.10912764526E+03  0.35547471312E+02  0.11696101701E+03  0.00000000000E+00 0. -1.
<mgrwt>
<rscale>  2 0.11142826E+03</rscale>
<asrwt>0</asrwt>
<pdfrwt beam="2">  1       21 0.37671350E-01 0.11142826E+03</pdfrwt>
<pdfrwt beam="1">  1        4 0.14070545E-01 0.11142826E+03</pdfrwt>
<totfact> 0.11572552E+04</totfact>
</mgrwt>
</event>
<event>
 4    1  0.5006371E+003  0.1006742E+03  0.7546771E-02  0.1278885E+00
          1   -1    0    0  503    0 -0.00000000000E+00  0.00000000000E+00  0.23000455364E+03  0.23000455364E+03  0.00000000000E+00 0.  1.
         21   -1    0    0  501  502  0.00000000000E+00 -0.00000000000E+00 -0.91137638249E+02  0.91137638249E+02  0.00000000000E+00 0.  1.
         21    1    1    2  503  502  0.20209160839E+02 -0.98624950926E+02 -0.45964982601E+02  0.11067100231E+03  0.00000000000E+00 0.  1.
          1    1    1    2  501    0 -0.20209160839E+02  0.98624950926E+02  0.18483189800E+03  0.21047118958E+03  0.00000000000E+00 0.  1.
<mgrwt>
<rscale>  2 0.10067418E+03</rscale>
<asrwt>0</asrwt>
<pdfrwt beam="2">  1       21 0.14021175E-01 0.10067418E+03</pdfrwt>
<pdfrwt beam="1">  1        1 0.35385316E-01 0.10067418E+03</pdfrwt>
<totfact> 0.58475194E+04</totfact>
</mgrwt>
</event>
<event>
 4    1  0.5006371E+003  0.1186113E+03  0.7546771E-02  0.1245406E+00
          2   -1    0    0  503    0 -0.00000000000E+00  0.00000000000E+00  0.92088331761E+03  0.92088331761E+03  0.00000000000E+00 0. -1.
         21   -1    0    0  501  502  0.00000000000E+00 -0.00000000000E+00 -0.24615444817E+02  0.24615444817E+02  0.00000000000E+00 0. -1.
         21    1    1    2  503  502 -0.10173375444E+03  0.60982618001E+02  0.15695713141E+03  0.19673377339E+03  0.00000000000E+00 0. -1.
          2    1    1    2  501    0  0.10173375444E+03 -0.60982618001E+02  0.73931074138E+03  0.74876498904E+03  0.00000000000E+00 0. -1.
<mgrwt>
<rscale>  2 0.11861128E+03</rscale>
<asrwt>0</asrwt>
<pdfrwt beam="2">  1       21 0.37869922E-02 0.11861128E+03</pdfrwt>
<pdfrwt beam="1">  1        2 0.14167433E+00 0.11861128E+03</pdfrwt>
<totfact> 0.15906973E+05</totfact>
</mgrwt>
</event>
<event>
 4    1  0.5006371E+003  0.1635899E+03  0.7546771E-02  0.1184702E+00
         21   -1    0    0  501  502  0.00000000000E+00  0.00000000000E+00  0.13223409208E+03  0.13223409208E+03  0.00000000000E+00 0. -1.
          1   -1    0    0  503    0 -0.00000000000E+00 -0.00000000000E+00 -0.26630242037E+03  0.26630242037E+03  0.00000000000E+00 0. -1.
         21    1    1    2  503  502  0.15610260715E+03 -0.48924807221E+02  0.30593737160E+02  0.16642607210E+03  0.00000000000E+00 0. -1.
          1    1    1    2  501    0 -0.15610260715E+03  0.48924807221E+02 -0.16466206545E+03  0.23211044035E+03  0.00000000000E+00 0. -1.
<mgrwt>
<rscale>  2 0.16358992E+03</rscale>
<asrwt>0</asrwt>
<pdfrwt beam="1">  1       21 0.20343707E-01 0.16358992E+03</pdfrwt>
<pdfrwt beam="2">  1        1 0.40969603E-01 0.16358992E+03</pdfrwt>
<totfact> 0.24908269E+04</totfact>
</mgrwt>
</event>
<event>
 4    1  0.5006371E+003  0.1003462E+03  0.7546771E-02  0.1279570E+00
         21   -1    0    0  501  502  0.00000000000E+00  0.00000000000E+00  0.35458442957E+02  0.35458442957E+02  0.00000000000E+00 0.  1.
          1   -1    0    0  503    0 -0.00000000000E+00 -0.00000000000E+00 -0.17339163438E+04  0.17339163438E+04  0.00000000000E+00 0.  1.
         21    1    1    2  503  502  0.63822765579E+02 -0.77433890649E+02 -0.40224687387E+02  0.10810817870E+03  0.00000000000E+00 0.  1.
          1    1    1    2  501    0 -0.63822765579E+02  0.77433890649E+02 -0.16582332134E+04  0.16612666080E+04  0.00000000000E+00 0.  1.
<mgrwt>
<rscale>  2 0.10034616E+03</rscale>
<asrwt>0</asrwt>
<pdfrwt beam="1">  1       21 0.54551473E-02 0.10034616E+03</pdfrwt>
<pdfrwt beam="2">  1        1 0.26675625E+00 0.10034616E+03</pdfrwt>
<totfact> 0.13759306E+04</totfact>
</mgrwt>
</event>
<event>
 4    1  0.5006371E+003  0.1591203E+03  0.7546771E-02  0.1189694E+00
          3   -1    0    0  502    0 -0.00000000000E+00  0.00000000000E+00  0.16965872996E+03  0.16965872996E+03  0.00000000000E+00 0. -1.
         21   -1    0    0  503  502  0.00000000000E+00 -0.00000000000E+00 -0.19418240553E+03  0.19418240553E+03  0.00000000000E+00 0. -1.
         21    1    1    2  503  501  0.15894359397E+03  0.74971284777E+01 -0.99784796400E+02  0.18781980352E+03  0.00000000000E+00 0. -1.
          3    1    1    2  501    0 -0.15894359397E+03 -0.74971284777E+01  0.75261120829E+02  0.17602133197E+03  0.00000000000E+00 0. -1.
<mgrwt>
<rscale>  2 0.15912031E+03</rscale>
<asrwt>0</asrwt>
<pdfrwt beam="2">  1       21 0.29874216E-01 0.15912031E+03</pdfrwt>
<pdfrwt beam="1">  1        3 0.26101343E-01 0.15912031E+03</pdfrwt>
<totfact> 0.73119391E+03</totfact>
</mgrwt>
</event>
<event>
 4    1  0.5006371E+003  0.1075848E+03  0.7546771E-02  0.1265109E+00
         21   -1    0    0  503  502  0.00000000000E+00  0.00000000000E+00  0.56946140285E+02  0.56946140285E+02  0.00000000000E+00 0. -1.
          2   -1    0    0  502    0 -0.00000000000E+00 -0.00000000000E+00 -0.33534218290E+04  0.33534218290E+04  0.00000000000E+00 0.  1.
         21    1    1    2  503  501 -0.49139216100E+02  0.95706949808E+02  0.44622641178E+01  0.10767727059E+03  0.00000000000E+00 0. -1.
          2    1    1    2  501    0  0.49139216100E+02 -0.95706949808E+02 -0.33009379528E+04  0.33026906987E+04  0.00000000000E+00 0.  1.
<mgrwt>
<rscale>  2 0.10758477E+03</rscale>
<asrwt>0</asrwt>
<pdfrwt beam="1">  1       21 0.87609445E-02 0.10758477E+03</pdfrwt>
<pdfrwt beam="2">  1        2 0.51591106E+00 0.10758477E+03</pdfrwt>
<totfact> 0.18627870E+03</totfact>
</mgrwt>
</event>
<event>
 4    1  0.5006371E+003  0.1613186E+03  0.7546771E-02  0.1187216E+00
          2   -1    0    0  503    0 -0.00000000000E+00  0.00000000000E+00  0.11084285037E+04  0.11084285037E+04  0.00000000000E+00 0. -1.
         21   -1    0    0  501  502  0.00000000000E+00 -0.00000000000E+00 -0.23637181901E+02  0.23637181901E+02  0.00000000000E+00 0. -1.
         21    1    1    2  503  502 -0.60617799634E+02 -0.14949639653E+03  0.58884542236E+03  0.61054289092E+03  0.00000000000E+00 0. -1.
          2    1    1    2  501    0  0.60617799634E+02  0.14949639653E+03  0.49594589945E+03  0.52152279470E+03  0.00000000000E+00 0. -1.
<mgrwt>
<rscale>  2 0.16131860E+03</rscale>
<asrwt>0</asrwt>
<pdfrwt beam="2">  1       21 0.36364904E-02 0.16131860E+03</pdfrwt>
<pdfrwt beam="1">  1        2 0.17052742E+00 0.16131860E+03</pdfrwt>
<totfact> 0.13232158E+05</totfact>
</mgrwt>
</event>
<event>
 4    1  0.5006371E+003  0.1502197E+03  0.7546771E-02  0.1200203E+00
          2   -1    0    0  503    0 -0.00000000000E+00  0.00000000000E+00  0.20850864812E+04  0.20850864812E+04  0.00000000000E+00 0. -1.
         21   -1    0    0  501  502  0.00000000000E+00 -0.00000000000E+00 -0.25347931963E+02  0.25347931963E+02  0.00000000000E+00 0.  1.
         21    1    1    2  503  502  0.15015899976E+03 -0.42705821955E+01  0.23107617560E+03  0.27561234009E+03  0.00000000000E+00 0.  1.
          2    1    1    2  501    0 -0.15015899976E+03  0.42705821955E+01  0.18286623737E+04  0.18348220731E+04  0.00000000000E+00 0. -1.
<mgrwt>
<rscale>  2 0.15021972E+03</rscale>
<asrwt>0</asrwt>
<pdfrwt beam="2">  1       21 0.38996835E-02 0.15021972E+03</pdfrwt>
<pdfrwt beam="1">  1        2 0.32078240E+00 0.15021972E+03</pdfrwt>
<totfact> 0.36026513E+04</totfact>
</mgrwt>
</event>
<event>
 4    1  0.5006371E+003  0.1263557E+03  0.7546771E-02  0.1232966E+00
         21   -1    0    0  501  502  0.00000000000E+00  0.00000000000E+00  0.64935400342E+01  0.64935400342E+01  0.00000000000E+00 0.  1.
          2   -1    0    0  503    0 -0.00000000000E+00 -0.00000000000E+00 -0.27932473146E+04  0.27932473146E+04  0.00000000000E+00 0.  1.
         21    1    1    2  503  502 -0.89636867882E+01  0.12603739720E+03 -0.90892428480E+03  0.91766504166E+03  0.00000000000E+00 0.  1.
          2    1    1    2  501    0  0.89636867882E+01 -0.12603739720E+03 -0.18778294898E+04  0.18820758130E+04  0.00000000000E+00 0.  1.
<mgrwt>
<rscale>  2 0.12635574E+03</rscale>
<asrwt>0</asrwt>
<pdfrwt beam="1">  1       21 0.99900623E-03 0.12635574E+03</pdfrwt>
<pdfrwt beam="2">  1        2 0.42973033E+00 0.12635574E+03</pdfrwt>
<totfact> 0.13761007E+05</totfact>
</mgrwt>
</event>
<event>
 4    1  0.5006371E+003  0.1565706E+03  0.7546771E-02  0.1192624E+00
         -1   -1    0    0    0  501 -0.00000000000E+00  0.00000000000E+00  0.98682993812E+03  0.98682993812E+03  0.00000000000E+00 0.  1.
         21   -1    0    0  503  502  0.00000000000E+00 -0.00000000000E+00 -0.42341318627E+02  0.42341318627E+02  0.00000000000E+00 0.  1.
         21    1    1    2  503  501  0.15412429028E+03  0.27569324107E+02  0.14142421800E+03  0.21098619368E+03  0.00000000000E+00 0.  1.
         -1    1    1    2    0  502 -0.15412429028E+03 -0.27569324107E+02  0.80306440150E+03  0.81818506307E+03  0.00000000000E+00 0.  1.
<mgrwt>
<rscale>  2 0.15657064E+03</rscale>
<asrwt>0</asrwt>
<pdfrwt beam="2">  1       21 0.65140498E-02 0.15657064E+03</pdfrwt>
<pdfrwt beam="1">  1       -1 0.15181997E+00 0.15657064E+03</pdfrwt>
<totfact> 0.59748902E+03</totfact>
</mgrwt>
</event>
<event>
 4    1  0.5006371E+003  0.1125412E+03  0.7546771E-02  0.1255935E+00
         21   -1    0    0  503  502  0.00000000000E+00  0.00000000000E+00  0.12203930684E+04  0.12203930684E+04  0.00000000000E+00 0.  1.
         -1   -1    0    0    0  501 -0.00000000000E+00 -0.00000000000E+00 -0.15158199972E+02  0.15158199972E+02  0.00000000000E+00 0. -1.
         21    1    1    2  503  501 -0.86446951904E+02  0.72058661341E+02  0.94952942571E+03  0.95617553643E+03  0.00000000000E+00 0.  1.
         -1    1    1    2    0  502  0.86446951904E+02 -0.72058661341E+02  0.25570544276E+03  0.27937573199E+03  0.00000000000E+00 0. -1.
<mgrwt>
<rscale>  2 0.11254122E+03</rscale>
<asrwt>0</asrwt>
<pdfrwt beam="1">  1       21 0.18775270E+00 0.11254122E+03</pdfrwt>
<pdfrwt beam="2">  1       -1 0.23320317E-02 0.11254122E+03</pdfrwt>
<totfact> 0.79383173E+03</totfact>
</mgrwt>
</event>
<event>
 4    1  0.5006371E+003  0.1370956E+03  0.7546771E-02  0.1217291E+00
          2   -1    0    0  502    0 -0.00000000000E+00  0.00000000000E+00  0.27120583990E+03  0.27120583990E+03  0.00000000000E+00 0.  1.
         21   -1    0    0  503  502  0.00000000000E+00 -0.00000000000E+00 -0.15834098315E+03  0.15834098315E+03  0.00000000000E+00 0. -1.
         21    1    1    2  503  501  0.36039242473E+02 -0.13227384763E+03 -0.10462216946E+03  0.17245578015E+03  0.00000000000E+00 0. -1.
          2    1    1    2  501    0 -0.36039242473E+02  0.13227384763E+03  0.21748702621E+03  0.25709104289E+03  0.00000000000E+00 0.  1.
<mgrwt>
<rscale>  2 0.13709558E+03</rscale>
<asrwt>0</asrwt>
<pdfrwt beam="2">  1       21 0.24360151E-01 0.13709558E+03</pdfrwt>
<pdfrwt beam="1">  1        2 0.41723976E-01 0.13709558E+03</pdfrwt>
<totfact> 0.24145145E+04</totfact>
</mgrwt>
</event>
<event>
 4    1  0.5006371E+003  0.1138409E+03  0.7546771E-02  0.1253618E+00
          2   -1    0    0  503    0 -0.00000000000E+00  0.00000000000E+00  0.12915176672E+04  0.12915176672E+04  0.00000000000E+00 0. -1.
         21   -1    0    0  501  502  0.00000000000E+00 -0.00000000000E+00 -0.54275527872E+02  0.54275527872E+02  0.00000000000E+00 0. -1.
         21    1    1    2  503  502  0.10940601846E+03 -0.31465473357E+02  0.11103507672E+02  0.11438112069E+03  0.00000000000E+00 0. -1.
          2    1    1    2  501    0 -0.10940601846E+03  0.31465473357E+02  0.12261386317E+04  0.12314120744E+04  0.00000000000E+00 0. -1.
<mgrwt>
<rscale>  2 0.11384091E+03</rscale>
<asrwt>0</asrwt>
<pdfrwt beam="2">  1       21 0.83500822E-02 0.11384091E+03</pdfrwt>
<pdfrwt beam="1">  1        2 0.19869500E+00 0.11384091E+03</pdfrwt>
<totfact> 0.25769392E+04</totfact>
</mgrwt>
</event>
<event>
 4    1  0.5006371E+003  0.1033141E+03  0.7546771E-02  0.1273477E+00
         21   -1    0    0  501  502  0.00000000000E+00  0.00000000000E+00  0.15051843171E+02  0.15051843171E+02  0.00000000000E+00 0.  1.
          1   -1    0    0  503    0 -0.00000000000E+00 -0.00000000000E+00 -0.20339634241E+04  0.20339634241E+04  0.00000000000E+00 0.  1.
         21    1    1    2  503  502 -0.39166019539E+02  0.95602407758E+02 -0.18261221995E+03  0.20981186890E+03  0.00000000000E+00 0.  1.
          1    1    1    2  501    0  0.39166019539E+02 -0.95602407758E+02 -0.18362993610E+04  0.18392033984E+04  0.00000000000E+00 0.  1.
<mgrwt>
<rscale>  2 0.10331407E+03</rscale>
<asrwt>0</asrwt>
<pdfrwt beam="1">  1       21 0.23156674E-02 0.10331407E+03</pdfrwt>
<pdfrwt beam="2">  1        1 0.31291756E+00 0.10331407E+03</pdfrwt>
<totfact> 0.36383051E+04</totfact>
</mgrwt>
</event>
<event>
 4    1  0.5006371E+003  0.1272700E+03  0.7546771E-02  0.1231564E+00
         21   -1    0    0  503  502  0.00000000000E+00  0.00000000000E+00  0.38708680256E+03  0.38708680256E+03  0.00000000000E+00 0. -1.
          2   -1    0    0  502    0 -0.00000000000E+00 -0.00000000000E+00 -0.46999988064E+03  0.46999988064E+03  0.00000000000E+00 0.  1.
         21    1    1    2  503  501  0.56720550151E+02  0.11393169093E+03  0.36756513560E+03  0.38897529474E+03  0.00000000000E+00 0. -1.
          2    1    1    2  501    0 -0.56720550151E+02 -0.11393169093E+03 -0.45047821368E+03  0.46811138846E+03  0.00000000000E+00 0.  1.
<mgrwt>
<rscale>  2 0.12726999E+03</rscale>
<asrwt>0</asrwt>
<pdfrwt beam="1">  1       21 0.59551816E-01 0.12726999E+03</pdfrwt>
<pdfrwt beam="2">  1        2 0.72307674E-01 0.12726999E+03</pdfrwt>
<totfact> 0.22702005E+03</totfact>
</mgrwt>
</event>
<event>
 4    1  0.5006371E+003  0.1067802E+03  0.7546771E-02  0.1266651E+00
          2   -1    0    0  502    0 -0.00000000000E+00  0.00000000000E+00  0.53509315167E+03  0.53509315167E+03  0.00000000000E+00 0. -1.
         21   -1    0    0  503  502  0.00000000000E+00 -0.00000000000E+00 -0.38407015021E+03  0.38407015021E+03  0.00000000000E+00 0. -1.
         21    1    1    2  503  501  0.70429586239E+02  0.80260126731E+02 -0.37113929051E+03  0.38619475336E+03  0.00000000000E+00 0. -1.
          2    1    1    2  501    0 -0.70429586239E+02 -0.80260126731E+02  0.52216229197E+03  0.53296854852E+03  0.00000000000E+00 0. -1.
<mgrwt>
<rscale>  2 0.10678022E+03</rscale>
<asrwt>0</asrwt>
<pdfrwt beam="2">  1       21 0.59087716E-01 0.10678022E+03</pdfrwt>
<pdfrwt beam="1">  1        2 0.82322023E-01 0.10678022E+03</pdfrwt>
<totfact> 0.20302007E+03</totfact>
</mgrwt>
</event>
<event>
 4    1  0.5006371E+003  0.1186770E+03  0.7546771E-02  0.1245296E+00
         21   -1    0    0  501  502  0.00000000000E+00  0.00000000000E+00  0.69519447169E+02  0.69519447169E+02  0.00000000000E+00 0. -1.
          2   -1    0    0  503    0 -0.00000000000E+00 -0.00000000000E+00 -0.41771223994E+03  0.41771223994E+03  0.00000000000E+00 0. -1.
         21    1    1    2  503  502 -0.83452110273E+02 -0.84379894309E+02  0.72942197767E+00  0.11867920344E+03  0.00000000000E+00 0. -1.
          2    1    1    2  501    0  0.83452110273E+02  0.84379894309E+02 -0.34892221475E+03  0.36855248367E+03  0.00000000000E+00 0. -1.
<mgrwt>
<rscale>  2 0.11867696E+03</rscale>
<asrwt>0</asrwt>
<pdfrwt beam="1">  1       21 0.10695299E-01 0.11867696E+03</pdfrwt>
<pdfrwt beam="2">  1        2 0.64263423E-01 0.11867696E+03</pdfrwt>
<totfact> 0.68000693E+04</totfact>
</mgrwt>
</event>
<event>
 4    1  0.5006371E+003  0.1392415E+03  0.7546771E-02  0.1214353E+00
         -2   -1    0    0    0  501 -0.00000000000E+00  0.00000000000E+00  0.16353923773E+03  0.16353923773E+03  0.00000000000E+00 0.  1.
         21   -1    0    0  503  502  0.00000000000E+00 -0.00000000000E+00 -0.16749097326E+03  0.16749097326E+03  0.00000000000E+00 0.  1.
         21    1    1    2  503  501  0.11820642661E+03 -0.73589615474E+02 -0.91442598873E+02  0.16658313146E+03  0.00000000000E+00 0.  1.
         -2    1    1    2    0  502 -0.11820642661E+03  0.73589615474E+02  0.87490863345E+02  0.16444707953E+03  0.00000000000E+00 0.  1.
<mgrwt>
<rscale>  2 0.13924148E+03</rscale>
<asrwt>0</asrwt>
<pdfrwt beam="2">  1       21 0.25767842E-01 0.13924148E+03</pdfrwt>
<pdfrwt beam="1">  1       -2 0.25159883E-01 0.13924148E+03</pdfrwt>
<totfact> 0.16056645E+04</totfact>
</mgrwt>
</event>
<event>
 4    1  0.5006371E+003  0.1206863E+03  0.7546771E-02  0.1241969E+00
          2   -1    0    0  502    0 -0.00000000000E+00  0.00000000000E+00  0.11183469801E+03  0.11183469801E+03  0.00000000000E+00 0. -1.
         21   -1    0    0  503  502  0.00000000000E+00 -0.00000000000E+00 -0.83822517858E+03  0.83822517858E+03  0.00000000000E+00 0. -1.
         21    1    1    2  503  501 -0.36065580290E+02 -0.11517137660E+03 -0.79976455230E+03  0.80881920798E+03  0.00000000000E+00 0. -1.
          2    1    1    2  501    0  0.36065580290E+02  0.11517137660E+03  0.73374071733E+02  0.14124066862E+03  0.00000000000E+00 0. -1.
<mgrwt>
<rscale>  2 0.12068625E+03</rscale>
<asrwt>0</asrwt>
<pdfrwt beam="2">  1       21 0.12895771E+00 0.12068625E+03</pdfrwt>
<pdfrwt beam="1">  1        2 0.17205339E-01 0.12068625E+03</pdfrwt>
<totfact> 0.18524545E+03</totfact>
</mgrwt>
</event>
<event>
 4    1  0.5006371E+003  0.1001143E+03  0.7546771E-02  0.1280056E+00
         21   -1    0    0  501  502  0.00000000000E+00  0.00000000000E+00  0.34321847293E+02  0.34321847293E+02  0.00000000000E+00 0. -1.
          2   -1    0    0  503    0 -0.00000000000E+00 -0.00000000000E+00 -0.31842668199E+03  0.31842668199E+03  0.00000000000E+00 0. -1.
         21    1    1    2  503  502  0.97341563697E+02 -0.23398705184E+02 -0.91267326931E+02  0.13547178449E+03  0.00000000000E+00 0. -1.
          2    1    1    2  501    0 -0.97341563697E+02  0.23398705184E+02 -0.19283750776E+03  0.21727674479E+03  0.00000000000E+00 0. -1.
<mgrwt>
<rscale>  2 0.10011433E+03</rscale>
<asrwt>0</asrwt>
<pdfrwt beam="1">  1       21 0.52802842E-02 0.10011433E+03</pdfrwt>
<pdfrwt beam="2">  1        2 0.48988720E-01 0.10011433E+03</pdfrwt>
<totfact> 0.30088226E+05</totfact>
</mgrwt>
</event>
<event>
 4    1  0.5006371E+003  0.1196292E+03  0.7546771E-02  0.1243710E+00
          2   -1    0    0  503    0 -0.00000000000E+00  0.00000000000E+00  0.22524207857E+04  0.22524207857E+04  0.00000000000E+00 0.  1.
         21   -1    0    0  501  502  0.00000000000E+00 -0.00000000000E+00 -0.21915384554E+02  0.21915384554E+02  0.00000000000E+00 0.  1.
         21    1    1    2  503  502  0.34877335317E+02 -0.11443212799E+03  0.15700270831E+03  0.19738538663E+03  0.00000000000E+00 0.  1.
          2    1    1    2  501    0 -0.34877335317E+02  0.11443212799E+03  0.20735026929E+04  0.20769507837E+04  0.00000000000E+00 0.  1.
<mgrwt>
<rscale>  2 0.11962918E+03</rscale>
<asrwt>0</asrwt>
<pdfrwt beam="2">  1       21 0.33715994E-02 0.11962918E+03</pdfrwt>
<pdfrwt beam="1">  1        2 0.34652609E+00 0.11962918E+03</pdfrwt>
<totfact> 0.37940704E+04</totfact>
</mgrwt>
</event>
<event>
 4    1  0.5006371E+003  0.1031281E+03  0.7546771E-02  0.1273852E+00
         21   -1    0    0  503  502  0.00000000000E+00  0.00000000000E+00  0.67194392509E+02  0.67194392509E+02  0.00000000000E+00 0. -1.
          2   -1    0    0  502    0 -0.00000000000E+00 -0.00000000000E+00 -0.80984227710E+03  0.80984227710E+03  0.00000000000E+00 0. -1.
         21    1    1    2  503  501 -0.25676715014E+02 -0.99880444277E+02  0.22014281887E+02  0.10545153128E+03  0.00000000000E+00 0. -1.
          2    1    1    2  501    0  0.25676715014E+02  0.99880444277E+02 -0.76466216648E+03  0.77158513833E+03  0.00000000000E+00 0. -1.
<mgrwt>
<rscale>  2 0.10312806E+03</rscale>
<asrwt>0</asrwt>
<pdfrwt beam="1">  1       21 0.10337599E-01 0.10312806E+03</pdfrwt>
<pdfrwt beam="2">  1        2 0.12459112E+00 0.10312806E+03</pdfrwt>
<totfact> 0.34102766E+04</totfact>
</mgrwt>
</event>
<event>
 4    1  0.5006371E+003  0.1248545E+03  0.7546771E-02  0.1235297E+00
          2   -1    0    0  502    0 -0.00000000000E+00  0.00000000000E+00  0.27597583957E+04  0.27597583957E+04  0.00000000000E+00 0. -1.
         21   -1    0    0  503  502  0.00000000000E+00 -0.00000000000E+00 -0.13511883840E+03  0.13511883840E+03  0.00000000000E+00 0.  1.
         21    1    1    2  503  501  0.59254356041E+02  0.10989801230E+03 -0.10454123424E+03  0.16284201384E+03  0.00000000000E+00 0.  1.
          2    1    1    2  501    0 -0.59254356041E+02 -0.10989801230E+03  0.27291807915E+04  0.27320352203E+04  0.00000000000E+00 0. -1.
<mgrwt>
<rscale>  2 0.12485452E+03</rscale>
<asrwt>0</asrwt>
<pdfrwt beam="2">  1       21 0.20787516E-01 0.12485452E+03</pdfrwt>
<pdfrwt beam="1">  1        2 0.42457817E+00 0.12485452E+03</pdfrwt>
<totfact> 0.86497280E+02</totfact>
</mgrwt>
</event>
<event>
 4    1  0.5006371E+003  0.1093029E+03  0.7546771E-02  0.1261866E+00
          2   -1    0    0  503    0 -0.00000000000E+00  0.00000000000E+00  0.97017548435E+03  0.97017548435E+03  0.00000000000E+00 0.  1.
         21   -1    0    0  501  502  0.00000000000E+00 -0.00000000000E+00 -0.34951667252E+02  0.34951667252E+02  0.00000000000E+00 0. -1.
         21    1    1    2  503  502  0.10435597520E+03 -0.32510957881E+02  0.63158005899E+02  0.12623813073E+03  0.00000000000E+00 0. -1.
          2    1    1    2  501    0 -0.10435597520E+03  0.32510957881E+02  0.87206581120E+03  0.87888902087E+03  0.00000000000E+00 0.  1.
<mgrwt>
<rscale>  2 0.10930294E+03</rscale>
<asrwt>0</asrwt>
<pdfrwt beam="2">  1       21 0.53771803E-02 0.10930294E+03</pdfrwt>
<pdfrwt beam="1">  1        2 0.14925775E+00 0.10930294E+03</pdfrwt>
<totfact> 0.82652124E+04</totfact>
</mgrwt>
</event>
<event>
 4    1  0.5006371E+003  0.1277147E+03  0.7546771E-02  0.1230887E+00
         -2   -1    0    0    0  501 -0.00000000000E+00  0.00000000000E+00  0.78417936289E+02  0.78417936289E+02  0.00000000000E+00 0. -1.
         21   -1    0    0  503  502  0.00000000000E+00 -0.00000000000E+00 -0.25508078214E+03  0.25508078214E+03  0.00000000000E+00 0.  1.
         21    1    1    2  503  501 -0.70909964701E+02  0.10622062795E+03 -0.15996892340E+03  0.20469758511E+03  0.00000000000E+00 0.  1.
         -2    1    1    2    0  502  0.70909964701E+02 -0.10622062795E+03 -0.16693922451E+02  0.12880113332E+03  0.00000000000E+00 0. -1.
<mgrwt>
<rscale>  2 0.12771470E+03</rscale>
<asrwt>0</asrwt>
<pdfrwt beam="2">  1       21 0.39243197E-01 0.12771470E+03</pdfrwt>
<pdfrwt beam="1">  1       -2 0.12064298E-01 0.12771470E+03</pdfrwt>
<totfact> 0.24073902E+04</totfact>
</mgrwt>
</event>
<event>
 4    1  0.5006371E+003  0.1388844E+03  0.7546771E-02  0.1214838E+00
          1   -1    0    0  503    0 -0.00000000000E+00  0.00000000000E+00  0.17160522852E+03  0.17160522852E+03  0.00000000000E+00 0. -1.
         21   -1    0    0  501  502  0.00000000000E+00 -0.00000000000E+00 -0.13360978237E+03  0.13360978237E+03  0.00000000000E+00 0. -1.
         21    1    1    2  503  502  0.79818954496E+02  0.11365657753E+03 -0.41801453635E+02  0.14503876943E+03  0.00000000000E+00 0. -1.
          1    1    1    2  501    0 -0.79818954496E+02 -0.11365657753E+03  0.79796899780E+02  0.16017624146E+03  0.00000000000E+00 0. -1.
<mgrwt>
<rscale>  2 0.13888442E+03</rscale>
<asrwt>0</asrwt>
<pdfrwt beam="2">  1       21 0.20555351E-01 0.13888442E+03</pdfrwt>
<pdfrwt beam="1">  1        1 0.26400804E-01 0.13888442E+03</pdfrwt>
<totfact> 0.42206045E+04</totfact>
</mgrwt>
</event>
<event>
 4    1  0.5006371E+003  0.1214148E+03  0.7546771E-02  0.1240781E+00
         -1   -1    0    0    0  501 -0.00000000000E+00  0.00000000000E+00  0.92375010500E+03  0.92375010500E+03  0.00000000000E+00 0. -1.
         21   -1    0    0  501  502  0.00000000000E+00 -0.00000000000E+00 -0.10959607855E+03  0.10959607855E+03  0.00000000000E+00 0. -1.
         21    1    1    2  503  502 -0.10495785552E+03 -0.61036144219E+02 -0.70500295950E+02  0.14039891048E+03  0.00000000000E+00 0. -1.
         -1    1    1    2    0  503  0.10495785552E+03  0.61036144219E+02  0.88465432240E+03  0.89294727307E+03  0.00000000000E+00 0. -1.
<mgrwt>
<rscale>  2 0.12141484E+03</rscale>
<asrwt>0</asrwt>
<pdfrwt beam="2">  1       21 0.16860936E-01 0.12141484E+03</pdfrwt>
<pdfrwt beam="1">  1       -1 0.14211540E+00 0.12141484E+03</pdfrwt>
<totfact> 0.13403207E+03</totfact>
</mgrwt>
</event>
<event>
 4    1  0.5006371E+003  0.1059784E+03  0.7546771E-02  0.1268204E+00
          2   -1    0    0  503    0 -0.00000000000E+00  0.00000000000E+00  0.11864808527E+04  0.11864808527E+04  0.00000000000E+00 0. -1.
         21   -1    0    0  501  502  0.00000000000E+00 -0.00000000000E+00 -0.12425304742E+02  0.12425304742E+02  0.00000000000E+00 0. -1.
         21    1    1    2  503  502  0.97208722278E+02 -0.42212327083E+02  0.29448804286E+03  0.31297703372E+03  0.00000000000E+00 0. -1.
          2    1    1    2  501    0 -0.97208722278E+02  0.42212327083E+02  0.87956750506E+03  0.88592912369E+03  0.00000000000E+00 0. -1.
<mgrwt>
<rscale>  2 0.10597838E+03</rscale>
<asrwt>0</asrwt>
<pdfrwt beam="2">  1       21 0.19115863E-02 0.10597838E+03</pdfrwt>
<pdfrwt beam="1">  1        2 0.18253543E+00 0.10597838E+03</pdfrwt>
<totfact> 0.33816529E+05</totfact>
</mgrwt>
</event>
<event>
 4    1  0.5006371E+003  0.1048363E+03  0.7546771E-02  0.1270442E+00
         21   -1    0    0  503  502  0.00000000000E+00  0.00000000000E+00  0.36123554709E+03  0.36123554709E+03  0.00000000000E+00 0. -1.
          2   -1    0    0  502    0 -0.00000000000E+00 -0.00000000000E+00 -0.15556735827E+03  0.15556735827E+03  0.00000000000E+00 0. -1.
         21    1    1    2  503  501 -0.86928888749E+02 -0.58600487983E+02  0.33459362589E+03  0.35063306087E+03  0.00000000000E+00 0. -1.
          2    1    1    2  501    0  0.86928888749E+02  0.58600487983E+02 -0.12892543707E+03  0.16616984448E+03  0.00000000000E+00 0. -1.
<mgrwt>
<rscale>  2 0.10483630E+03</rscale>
<asrwt>0</asrwt>
<pdfrwt beam="1">  1       21 0.55574699E-01 0.10483630E+03</pdfrwt>
<pdfrwt beam="2">  1        2 0.23933440E-01 0.10483630E+03</pdfrwt>
<totfact> 0.86351530E+03</totfact>
</mgrwt>
</event>
<event>
 4    1  0.5006371E+003  0.1446091E+03  0.7546771E-02  0.1207258E+00
          2   -1    0    0  503    0 -0.00000000000E+00  0.00000000000E+00  0.15658876172E+04  0.15658876172E+04  0.00000000000E+00 0.  1.
         21   -1    0    0  501  502  0.00000000000E+00 -0.00000000000E+00 -0.13520157817E+02  0.13520157817E+02  0.00000000000E+00 0. -1.
         21    1    1    2  503  502  0.22008702081E+02  0.14292446150E+03  0.68879339348E+03  0.70380972113E+03  0.00000000000E+00 0. -1.
          2    1    1    2  501    0 -0.22008702081E+02 -0.14292446150E+03  0.86357406594E+03  0.87559805392E+03  0.00000000000E+00 0.  1.
<mgrwt>
<rscale>  2 0.14460908E+03</rscale>
<asrwt>0</asrwt>
<pdfrwt beam="2">  1       21 0.20800255E-02 0.14460908E+03</pdfrwt>
<pdfrwt beam="1">  1        2 0.24090564E+00 0.14460908E+03</pdfrwt>
<totfact> 0.18706049E+05</totfact>
</mgrwt>
</event>
<event>
 4    1  0.5006371E+003  0.1637913E+03  0.7546771E-02  0.1184482E+00
         21   -1    0    0  503  502  0.00000000000E+00  0.00000000000E+00  0.11155375742E+03  0.11155375742E+03  0.00000000000E+00 0. -1.
          2   -1    0    0  502    0 -0.00000000000E+00 -0.00000000000E+00 -0.32671466525E+03  0.32671466525E+03  0.00000000000E+00 0. -1.
         21    1    1    2  503  501 -0.11437458740E+03  0.11724346504E+03  0.49943840964E+01  0.16386738605E+03  0.00000000000E+00 0. -1.
          2    1    1    2  501    0  0.11437458740E+03 -0.11724346504E+03 -0.22015529192E+03  0.27440103662E+03  0.00000000000E+00 0. -1.
<mgrwt>
<rscale>  2 0.16379126E+03</rscale>
<asrwt>0</asrwt>
<pdfrwt beam="1">  1       21 0.17162117E-01 0.16379126E+03</pdfrwt>
<pdfrwt beam="2">  1        2 0.50263794E-01 0.16379126E+03</pdfrwt>
<totfact> 0.37981523E+04</totfact>
</mgrwt>
</event>
<event>
 4    1  0.5006371E+003  0.1115889E+03  0.7546771E-02  0.1257656E+00
          2   -1    0    0  503    0 -0.00000000000E+00  0.00000000000E+00  0.24417282837E+03  0.24417282837E+03  0.00000000000E+00 0.  1.
         21   -1    0    0  501  502  0.00000000000E+00 -0.00000000000E+00 -0.24193748981E+03  0.24193748981E+03  0.00000000000E+00 0. -1.
         21    1    1    2  503  502  0.11010413789E+03 -0.18142653662E+02 -0.21480701663E+03  0.24206224707E+03  0.00000000000E+00 0. -1.
          2    1    1    2  501    0 -0.11010413789E+03  0.18142653662E+02  0.21704235520E+03  0.24404807111E+03  0.00000000000E+00 0.  1.
<mgrwt>
<rscale>  2 0.11158888E+03</rscale>
<asrwt>0</asrwt>
<pdfrwt beam="2">  1       21 0.37221152E-01 0.11158888E+03</pdfrwt>
<pdfrwt beam="1">  1        2 0.37565051E-01 0.11158888E+03</pdfrwt>
<totfact> 0.11951686E+04</totfact>
</mgrwt>
</event>
<event>
 4    1  0.5006371E+003  0.1539821E+03  0.7546771E-02  0.1195663E+00
         21   -1    0    0  503  502  0.00000000000E+00  0.00000000000E+00  0.63082485574E+03  0.63082485574E+03  0.00000000000E+00 0.  1.
         -1   -1    0    0    0  501 -0.00000000000E+00 -0.00000000000E+00 -0.12699096645E+03  0.12699096645E+03  0.00000000000E+00 0.  1.
         21    1    1    2  503  501  0.12299955784E+03 -0.92636929943E+02  0.56984356344E+03  0.59028144035E+03  0.00000000000E+00 0.  1.
         -1    1    1    2    0  502 -0.12299955784E+03  0.92636929943E+02 -0.66009674144E+02  0.16753438184E+03  0.00000000000E+00 0.  1.
<mgrwt>
<rscale>  2 0.15398212E+03</rscale>
<asrwt>0</asrwt>
<pdfrwt beam="1">  1       21 0.97049976E-01 0.15398212E+03</pdfrwt>
<pdfrwt beam="2">  1       -1 0.19537072E-01 0.15398212E+03</pdfrwt>
<totfact> 0.16980735E+03</totfact>
</mgrwt>
</event>
<event>
 4    1  0.5006371E+003  0.1098641E+03  0.7546771E-02  0.1260822E+00
         21   -1    0    0  501  502  0.00000000000E+00  0.00000000000E+00  0.37684885758E+02  0.37684885758E+02  0.00000000000E+00 0. -1.
          1   -1    0    0  503    0 -0.00000000000E+00 -0.00000000000E+00 -0.45815329799E+03  0.45815329799E+03  0.00000000000E+00 0.  1.
         21    1    1    2  503  502  0.86574458499E+02  0.67638669099E+02 -0.74237791333E+02  0.13259478151E+03  0.00000000000E+00 0. -1.
          1    1    1    2  501    0 -0.86574458499E+02 -0.67638669099E+02 -0.34623062090E+03  0.36324340224E+03  0.00000000000E+00 0.  1.
<mgrwt>
<rscale>  2 0.10986413E+03</rscale>
<asrwt>0</asrwt>
<pdfrwt beam="1">  1       21 0.57976748E-02 0.10986413E+03</pdfrwt>
<pdfrwt beam="2">  1        1 0.70485122E-01 0.10986413E+03</pdfrwt>
<totfact> 0.11520263E+05</totfact>
</mgrwt>
</event>
<event>
 4    1  0.5006371E+003  0.1826785E+03  0.7546771E-02  0.1165236E+00
          1   -1    0    0  502    0 -0.00000000000E+00  0.00000000000E+00  0.58498640403E+03  0.58498640403E+03  0.00000000000E+00 0.  1.
         21   -1    0    0  503  502  0.00000000000E+00 -0.00000000000E+00 -0.93224059373E+02  0.93224059373E+02  0.00000000000E+00 0. -1.
         21    1    1    2  503  501  0.18109592273E+03 -0.23993909557E+02  0.34634452730E+02  0.18593274656E+03  0.00000000000E+00 0. -1.
          1    1    1    2  501    0 -0.18109592273E+03  0.23993909557E+02  0.45712789192E+03  0.49227771684E+03  0.00000000000E+00 0.  1.
<mgrwt>
<rscale>  2 0.18267852E+03</rscale>
<asrwt>0</asrwt>
<pdfrwt beam="2">  1       21 0.14342163E-01 0.18267852E+03</pdfrwt>
<pdfrwt beam="1">  1        1 0.89997906E-01 0.18267852E+03</pdfrwt>
<totfact> 0.17229665E+04</totfact>
</mgrwt>
</event>
<event>
 4    1  0.5006371E+003  0.1160495E+03  0.7546771E-02  0.1249760E+00
          1   -1    0    0  503    0 -0.00000000000E+00  0.00000000000E+00  0.41610508923E+04  0.41610508923E+04  0.00000000000E+00 0. -1.
         21   -1    0    0  501  502  0.00000000000E+00 -0.00000000000E+00 -0.39154235248E+01  0.39154235248E+01  0.00000000000E+00 0. -1.
         21    1    1    2  503  502  0.92161814145E+02  0.70524304543E+02  0.12114373803E+04  0.12169831568E+04  0.00000000000E+00 0. -1.
          1    1    1    2  501    0 -0.92161814145E+02 -0.70524304543E+02  0.29456980885E+04  0.29479831590E+04  0.00000000000E+00 0. -1.
<mgrwt>
<rscale>  2 0.11604946E+03</rscale>
<asrwt>0</asrwt>
<pdfrwt beam="2">  1       21 0.60237618E-03 0.11604946E+03</pdfrwt>
<pdfrwt beam="1">  1        1 0.64015814E+00 0.11604946E+03</pdfrwt>
<totfact> 0.94087927E+03</totfact>
</mgrwt>
</event>
<event>
 4    1  0.5006371E+003  0.1389037E+03  0.7546771E-02  0.1214812E+00
          2   -1    0    0  502    0 -0.00000000000E+00  0.00000000000E+00  0.31016298399E+04  0.31016298399E+04  0.00000000000E+00 0. -1.
         21   -1    0    0  503  502  0.00000000000E+00 -0.00000000000E+00 -0.17224792671E+02  0.17224792671E+02  0.00000000000E+00 0. -1.
         21    1    1    2  503  501 -0.13334676185E+03  0.38895597255E+02  0.29577859061E+03  0.32677086934E+03  0.00000000000E+00 0. -1.
          2    1    1    2  501    0  0.13334676185E+03 -0.38895597255E+02  0.27886264566E+04  0.27920837633E+04  0.00000000000E+00 0. -1.
<mgrwt>
<rscale>  2 0.13890366E+03</rscale>
<asrwt>0</asrwt>
<pdfrwt beam="2">  1       21 0.26499706E-02 0.13890366E+03</pdfrwt>
<pdfrwt beam="1">  1        2 0.47717338E+00 0.13890366E+03</pdfrwt>
<totfact> 0.19086754E+04</totfact>
</mgrwt>
</event>
<event>
 4    1  0.5006371E+003  0.1005752E+03  0.7546771E-02  0.1279091E+00
         21   -1    0    0  503  502  0.00000000000E+00  0.00000000000E+00  0.84626268873E+02  0.84626268873E+02  0.00000000000E+00 0.  1.
          2   -1    0    0  502    0 -0.00000000000E+00 -0.00000000000E+00 -0.46293102337E+03  0.46293102337E+03  0.00000000000E+00 0.  1.
         21    1    1    2  503  501  0.32550780200E+02  0.95162104268E+02  0.46646759102E+02  0.11086613331E+03  0.00000000000E+00 0.  1.
          2    1    1    2  501    0 -0.32550780200E+02 -0.95162104268E+02 -0.42495151360E+03  0.43669115893E+03  0.00000000000E+00 0.  1.
<mgrwt>
<rscale>  2 0.10057524E+03</rscale>
<asrwt>0</asrwt>
<pdfrwt beam="1">  1       21 0.13019426E-01 0.10057524E+03</pdfrwt>
<pdfrwt beam="2">  1        2 0.71220157E-01 0.10057524E+03</pdfrwt>
<totfact> 0.42973732E+04</totfact>
</mgrwt>
</event>
<event>
 4    1  0.5006371E+003  0.1385202E+03  0.7546771E-02  0.1215334E+00
          2   -1    0    0  502    0 -0.00000000000E+00  0.00000000000E+00  0.14959067943E+04  0.14959067943E+04  0.00000000000E+00 0.  1.
         21   -1    0    0  503  502  0.00000000000E+00 -0.00000000000E+00 -0.13482599144E+02  0.13482599144E+02  0.00000000000E+00 0. -1.
         21    1    1    2  503  501  0.66892174872E+01 -0.13835855033E+03  0.57477902756E+03  0.59123494873E+03  0.00000000000E+00 0. -1.
          2    1    1    2  501    0 -0.66892174872E+01  0.13835855033E+03  0.90764516755E+03  0.91815444466E+03  0.00000000000E+00 0.  1.
<mgrwt>
<rscale>  2 0.13852016E+03</rscale>
<asrwt>0</asrwt>
<pdfrwt beam="2">  1       21 0.20742472E-02 0.13852016E+03</pdfrwt>
<pdfrwt beam="1">  1        2 0.23013938E+00 0.13852016E+03</pdfrwt>
<totfact> 0.20424189E+05</totfact>
</mgrwt>
</event>
<event>
 4    1  0.5006371E+003  0.1018484E+03  0.7546771E-02  0.1276456E+00
          1   -1    0    0  503    0 -0.00000000000E+00  0.00000000000E+00  0.17429100496E+04  0.17429100496E+04  0.00000000000E+00 0. -1.
         21   -1    0    0  501  502  0.00000000000E+00 -0.00000000000E+00 -0.76768505215E+01  0.76768505215E+01  0.00000000000E+00 0.  1.
         21    1    1    2  503  502 -0.65801143813E+02  0.77738731775E+02  0.45267363917E+03  0.46398978927E+03  0.00000000000E+00 0.  1.
          1    1    1    2  501    0  0.65801143813E+02 -0.77738731775E+02  0.12825595599E+04  0.12865971108E+04  0.00000000000E+00 0. -1.
<mgrwt>
<rscale>  2 0.10184842E+03</rscale>
<asrwt>0</asrwt>
<pdfrwt beam="2">  1       21 0.11810553E-02 0.10184842E+03</pdfrwt>
<pdfrwt beam="1">  1        1 0.26813969E+00 0.10184842E+03</pdfrwt>
<totfact> 0.16227985E+05</totfact>
</mgrwt>
</event>
<event>
 4    1  0.5006371E+003  0.1002234E+03  0.7546771E-02  0.1279827E+00
         21   -1    0    0  501  502  0.00000000000E+00  0.00000000000E+00  0.40511426391E+02  0.40511426391E+02  0.00000000000E+00 0.  1.
          1   -1    0    0  503    0 -0.00000000000E+00 -0.00000000000E+00 -0.29555357891E+03  0.29555357891E+03  0.00000000000E+00 0.  1.
         21    1    1    2  503  502 -0.10020655848E+03 -0.18379973392E+01 -0.60083260324E+02  0.11685345852E+03  0.00000000000E+00 0.  1.
          1    1    1    2  501    0  0.10020655848E+03  0.18379973392E+01 -0.19495889219E+03  0.21921154678E+03  0.00000000000E+00 0.  1.
<mgrwt>
<rscale>  2 0.10022341E+03</rscale>
<asrwt>0</asrwt>
<pdfrwt beam="1">  1       21 0.62325270E-02 0.10022341E+03</pdfrwt>
<pdfrwt beam="2">  1        1 0.45469782E-01 0.10022341E+03</pdfrwt>
<totfact> 0.17509800E+05</totfact>
</mgrwt>
</event>
<event>
 4    1  0.5006371E+003  0.1654358E+03  0.7546771E-02  0.1182693E+00
          2   -1    0    0  502    0 -0.00000000000E+00  0.00000000000E+00  0.15499830463E+03  0.15499830463E+03  0.00000000000E+00 0.  1.
         21   -1    0    0  503  502  0.00000000000E+00 -0.00000000000E+00 -0.31461963358E+03  0.31461963358E+03  0.00000000000E+00 0. -1.
         21    1    1    2  503  501  0.16531453507E+03  0.63343352739E+01 -0.23534617895E+03  0.28767489159E+03  0.00000000000E+00 0. -1.
          2    1    1    2  501    0 -0.16531453507E+03 -0.63343352739E+01  0.75724849989E+02  0.18194304662E+03  0.00000000000E+00 0.  1.
<mgrwt>
<rscale>  2 0.16543585E+03</rscale>
<asrwt>0</asrwt>
<pdfrwt beam="2">  1       21 0.48403021E-01 0.16543585E+03</pdfrwt>
<pdfrwt beam="1">  1        2 0.23845893E-01 0.16543585E+03</pdfrwt>
<totfact> 0.11406252E+04</totfact>
</mgrwt>
</event>
<event>
 4    1  0.5006371E+003  0.1028179E+03  0.7546771E-02  0.1274479E+00
          2   -1    0    0  502    0 -0.00000000000E+00  0.00000000000E+00  0.15683971686E+04  0.15683971686E+04  0.00000000000E+00 0.  1.
         21   -1    0    0  503  502  0.00000000000E+00 -0.00000000000E+00 -0.14820259440E+02  0.14820259440E+02  0.00000000000E+00 0.  1.
         21    1    1    2  503  501 -0.59847454906E+02  0.83605083206E+02  0.19228616172E+03  0.21804929668E+03  0.00000000000E+00 0.  1.
          2    1    1    2  501    0  0.59847454906E+02 -0.83605083206E+02  0.13612907474E+04  0.13651681313E+04  0.00000000000E+00 0.  1.
<mgrwt>
<rscale>  2 0.10281794E+03</rscale>
<asrwt>0</asrwt>
<pdfrwt beam="2">  1       21 0.22800412E-02 0.10281794E+03</pdfrwt>
<pdfrwt beam="1">  1        2 0.24129174E+00 0.10281794E+03</pdfrwt>
<totfact> 0.16024774E+05</totfact>
</mgrwt>
</event>
<event>
 4    1  0.5006371E+003  0.1281763E+03  0.7546771E-02  0.1230187E+00
         21   -1    0    0  501  502  0.00000000000E+00  0.00000000000E+00  0.57839642918E+03  0.57839642918E+03  0.00000000000E+00 0.  1.
         -3   -1    0    0    0  501 -0.00000000000E+00 -0.00000000000E+00 -0.54365351191E+02  0.54365351191E+02  0.00000000000E+00 0. -1.
         21    1    1    2  503  502  0.10945627022E+03  0.66696998659E+02  0.48064420963E+03  0.49744147492E+03  0.00000000000E+00 0.  1.
         -3    1    1    2    0  503 -0.10945627022E+03 -0.66696998659E+02  0.43386868360E+02  0.13532030545E+03  0.00000000000E+00 0. -1.
<mgrwt>
<rscale>  2 0.12817630E+03</rscale>
<asrwt>0</asrwt>
<pdfrwt beam="1">  1       21 0.88984062E-01 0.12817630E+03</pdfrwt>
<pdfrwt beam="2">  1       -3 0.83639006E-02 0.12817630E+03</pdfrwt>
<totfact> 0.52258573E+03</totfact>
</mgrwt>
</event>
<event>
 4    1  0.5006371E+003  0.1044708E+03  0.7546771E-02  0.1271166E+00
         21   -1    0    0  501  502  0.00000000000E+00  0.00000000000E+00  0.99147298072E+02  0.99147298072E+02  0.00000000000E+00 0. -1.
          2   -1    0    0  503    0 -0.00000000000E+00 -0.00000000000E+00 -0.32052521190E+03  0.32052521190E+03  0.00000000000E+00 0.  1.
         21    1    1    2  503  502  0.10307852435E+03 -0.16998976741E+02  0.59338406277E+02  0.12014655156E+03  0.00000000000E+00 0. -1.
          2    1    1    2  501    0 -0.10307852435E+03  0.16998976741E+02 -0.28071632011E+03  0.29952595842E+03  0.00000000000E+00 0.  1.
<mgrwt>
<rscale>  2 0.10447080E+03</rscale>
<asrwt>0</asrwt>
<pdfrwt beam="1">  1       21 0.15253431E-01 0.10447080E+03</pdfrwt>
<pdfrwt beam="2">  1        2 0.49311571E-01 0.10447080E+03</pdfrwt>
<totfact> 0.47826882E+04</totfact>
</mgrwt>
</event>
<event>
 4    1  0.5006371E+003  0.1346105E+03  0.7546771E-02  0.1220771E+00
          2   -1    0    0  503    0 -0.00000000000E+00  0.00000000000E+00  0.57609371772E+03  0.57609371772E+03  0.00000000000E+00 0. -1.
         21   -1    0    0  501  502  0.00000000000E+00 -0.00000000000E+00 -0.33040614923E+02  0.33040614923E+02  0.00000000000E+00 0. -1.
         21    1    1    2  503  502  0.23464174878E+02 -0.13254964872E+03  0.20476789523E+03  0.24505074535E+03  0.00000000000E+00 0. -1.
          2    1    1    2  501    0 -0.23464174878E+02  0.13254964872E+03  0.33828520756E+03  0.36408358729E+03  0.00000000000E+00 0. -1.
<mgrwt>
<rscale>  2 0.13461046E+03</rscale>
<asrwt>0</asrwt>
<pdfrwt beam="2">  1       21 0.50831719E-02 0.13461046E+03</pdfrwt>
<pdfrwt beam="1">  1        2 0.88629796E-01 0.13461046E+03</pdfrwt>
<totfact> 0.17209203E+05</totfact>
</mgrwt>
</event>
<event>
 4    1  0.5006371E+003  0.1102508E+03  0.7546771E-02  0.1260106E+00
          3   -1    0    0  503    0 -0.00000000000E+00  0.00000000000E+00  0.15383610724E+03  0.15383610724E+03  0.00000000000E+00 0.  1.
         21   -1    0    0  501  502  0.00000000000E+00 -0.00000000000E+00 -0.63967239135E+03  0.63967239135E+03  0.00000000000E+00 0. -1.
         21    1    1    2  503  502  0.27867306704E+02  0.10667079921E+03 -0.61436085787E+03  0.62417506348E+03  0.00000000000E+00 0. -1.
          3    1    1    2  501    0 -0.27867306704E+02 -0.10667079921E+03  0.12852457375E+03  0.16933343511E+03  0.00000000000E+00 0.  1.
<mgrwt>
<rscale>  2 0.11025083E+03</rscale>
<asrwt>0</asrwt>
<pdfrwt beam="2">  1       21 0.98411136E-01 0.11025083E+03</pdfrwt>
<pdfrwt beam="1">  1        3 0.23667094E-01 0.11025083E+03</pdfrwt>
<totfact> 0.70729937E+02</totfact>
</mgrwt>
</event>
<event>
 4    1  0.5006371E+003  0.1386996E+03  0.7546771E-02  0.1215089E+00
          2   -1    0    0  502    0 -0.00000000000E+00  0.00000000000E+00  0.10636911475E+04  0.10636911475E+04  0.00000000000E+00 0. -1.
         21   -1    0    0  503  502  0.00000000000E+00 -0.00000000000E+00 -0.30511948661E+02  0.30511948661E+02  0.00000000000E+00 0.  1.
         21    1    1    2  503  501  0.13026926856E+03  0.47618375167E+02  0.16744678677E+03  0.21743049092E+03  0.00000000000E+00 0.  1.
          2    1    1    2  501    0 -0.13026926856E+03 -0.47618375167E+02  0.86573241203E+03  0.87677260520E+03  0.00000000000E+00 0. -1.
<mgrwt>
<rscale>  2 0.13869965E+03</rscale>
<asrwt>0</asrwt>
<pdfrwt beam="2">  1       21 0.46941468E-02 0.13869965E+03</pdfrwt>
<pdfrwt beam="1">  1        2 0.16364476E+00 0.13869965E+03</pdfrwt>
<totfact> 0.91594959E+04</totfact>
</mgrwt>
</event>
<event>
 4    1  0.5006371E+003  0.1198643E+03  0.7546771E-02  0.1243321E+00
          1   -1    0    0  502    0 -0.00000000000E+00  0.00000000000E+00  0.11390227705E+04  0.11390227705E+04  0.00000000000E+00 0.  1.
         21   -1    0    0  503  502  0.00000000000E+00 -0.00000000000E+00 -0.18469071498E+02  0.18469071498E+02  0.00000000000E+00 0.  1.
         21    1    1    2  503  501  0.45869324044E+02  0.11074048353E+03  0.23441201773E+03  0.26328016187E+03  0.00000000000E+00 0.  1.
          1    1    1    2  501    0 -0.45869324044E+02 -0.11074048353E+03  0.88614168125E+03  0.89421168010E+03  0.00000000000E+00 0.  1.
<mgrwt>
<rscale>  2 0.11986430E+03</rscale>
<asrwt>0</asrwt>
<pdfrwt beam="2">  1       21 0.28413965E-02 0.11986430E+03</pdfrwt>
<pdfrwt beam="1">  1        1 0.17523422E+00 0.11986430E+03</pdfrwt>
<totfact> 0.98572629E+04</totfact>
</mgrwt>
</event>
<event>
 4    1  0.5006371E+003  0.1136069E+03  0.7546771E-02  0.1254033E+00
         21   -1    0    0  501  502  0.00000000000E+00  0.00000000000E+00  0.17414854448E+02  0.17414854448E+02  0.00000000000E+00 0.  1.
          2   -1    0    0  503    0 -0.00000000000E+00 -0.00000000000E+00 -0.94029233081E+03  0.94029233081E+03  0.00000000000E+00 0.  1.
         21    1    1    2  503  502  0.17259837701E+02 -0.11228810036E+03 -0.24105253948E+03  0.26648235640E+03  0.00000000000E+00 0.  1.
          2    1    1    2  501    0 -0.17259837701E+02  0.11228810036E+03 -0.68182493688E+03  0.69122482886E+03  0.00000000000E+00 0.  1.
<mgrwt>
<rscale>  2 0.11360686E+03</rscale>
<asrwt>0</asrwt>
<pdfrwt beam="1">  1       21 0.26792074E-02 0.11360686E+03</pdfrwt>
<pdfrwt beam="2">  1        2 0.14466041E+00 0.11360686E+03</pdfrwt>
<totfact> 0.27260639E+05</totfact>
</mgrwt>
</event>
<event>
 4    1  0.5006371E+003  0.2651624E+03  0.7546771E-02  0.1104081E+00
          1   -1    0    0  502    0 -0.00000000000E+00  0.00000000000E+00  0.26672537165E+03  0.26672537165E+03  0.00000000000E+00 0. -1.
         21   -1    0    0  503  502  0.00000000000E+00 -0.00000000000E+00 -0.18793647345E+04  0.18793647345E+04  0.00000000000E+00 0.  1.
         21    1    1    2  503  501 -0.24334780334E+03  0.10532294649E+03 -0.18012675812E+04  0.18206800860E+04  0.00000000000E+00 0.  1.
          1    1    1    2  501    0  0.24334780334E+03 -0.10532294649E+03  0.18862821837E+03  0.32541002015E+03  0.00000000000E+00 0. -1.
<mgrwt>
<rscale>  2 0.26516236E+03</rscale>
<asrwt>0</asrwt>
<pdfrwt beam="2">  1       21 0.28913304E+00 0.26516236E+03</pdfrwt>
<pdfrwt beam="1">  1        1 0.41034672E-01 0.26516236E+03</pdfrwt>
<totfact> 0.40527122E+01</totfact>
</mgrwt>
</event>
<event>
 4    1  0.5006371E+003  0.1488007E+03  0.7546771E-02  0.1201955E+00
         21   -1    0    0  501  502  0.00000000000E+00  0.00000000000E+00  0.17307434838E+02  0.17307434838E+02  0.00000000000E+00 0.  1.
          2   -1    0    0  503    0 -0.00000000000E+00 -0.00000000000E+00 -0.15886490770E+04  0.15886490770E+04  0.00000000000E+00 0. -1.
         21    1    1    2  503  502  0.11259102780E+03 -0.97287714066E+02 -0.43134355049E+03  0.45628817364E+03  0.00000000000E+00 0.  1.
          2    1    1    2  501    0 -0.11259102780E+03  0.97287714066E+02 -0.11399980917E+04  0.11496683382E+04  0.00000000000E+00 0. -1.
<mgrwt>
<rscale>  2 0.14880067E+03</rscale>
<asrwt>0</asrwt>
<pdfrwt beam="1">  1       21 0.26626822E-02 0.14880067E+03</pdfrwt>
<pdfrwt beam="2">  1        2 0.24440755E+00 0.14880067E+03</pdfrwt>
<totfact> 0.12176961E+05</totfact>
</mgrwt>
</event>
<event>
 4    1  0.5006371E+003  0.1545027E+03  0.7546771E-02  0.1195047E+00
          2   -1    0    0  502    0 -0.00000000000E+00  0.00000000000E+00  0.13804968692E+04  0.13804968692E+04  0.00000000000E+00 0. -1.
         21   -1    0    0  503  502  0.00000000000E+00 -0.00000000000E+00 -0.60685483310E+02  0.60685483310E+02  0.00000000000E+00 0. -1.
         21    1    1    2  503  501 -0.28671361748E+02  0.15181907574E+03  0.50564548351E+02  0.16256645501E+03  0.00000000000E+00 0. -1.
          2    1    1    2  501    0  0.28671361748E+02 -0.15181907574E+03  0.12692468376E+04  0.12786158976E+04  0.00000000000E+00 0. -1.
<mgrwt>
<rscale>  2 0.15450268E+03</rscale>
<asrwt>0</asrwt>
<pdfrwt beam="2">  1       21 0.93362292E-02 0.15450268E+03</pdfrwt>
<pdfrwt beam="1">  1        2 0.21238411E+00 0.15450268E+03</pdfrwt>
<totfact> 0.18819445E+04</totfact>
</mgrwt>
</event>
<event>
 4    1  0.5006371E+003  0.1239850E+03  0.7546771E-02  0.1236664E+00
         21   -1    0    0  503  502  0.00000000000E+00  0.00000000000E+00  0.15437328507E+02  0.15437328507E+02  0.00000000000E+00 0. -1.
          2   -1    0    0  502    0 -0.00000000000E+00 -0.00000000000E+00 -0.14835983873E+04  0.14835983873E+04  0.00000000000E+00 0. -1.
         21    1    1    2  503  501  0.66357798410E+02  0.10473264477E+03 -0.30429679992E+03  0.32858610246E+03  0.00000000000E+00 0. -1.
          2    1    1    2  501    0 -0.66357798410E+02 -0.10473264477E+03 -0.11638642588E+04  0.11704496133E+04  0.00000000000E+00 0. -1.
<mgrwt>
<rscale>  2 0.12398502E+03</rscale>
<asrwt>0</asrwt>
<pdfrwt beam="1">  1       21 0.23749737E-02 0.12398502E+03</pdfrwt>
<pdfrwt beam="2">  1        2 0.22824589E+00 0.12398502E+03</pdfrwt>
<totfact> 0.16622729E+05</totfact>
</mgrwt>
</event>
<event>
 4    1  0.5006371E+003  0.1105205E+03  0.7546771E-02  0.1259609E+00
         21   -1    0    0  503  502  0.00000000000E+00  0.00000000000E+00  0.11868811990E+04  0.11868811990E+04  0.00000000000E+00 0. -1.
          1   -1    0    0  502    0 -0.00000000000E+00 -0.00000000000E+00 -0.59541795212E+02  0.59541795212E+02  0.00000000000E+00 0. -1.
         21    1    1    2  503  501 -0.90333307792E+02 -0.63676350691E+02  0.11304685085E+04  0.11358581923E+04  0.00000000000E+00 0. -1.
          1    1    1    2  501    0  0.90333307792E+02  0.63676350691E+02 -0.31291047479E+01  0.11056480195E+03  0.00000000000E+00 0. -1.
<mgrwt>
<rscale>  2 0.11052051E+03</rscale>
<asrwt>0</asrwt>
<pdfrwt beam="1">  1       21 0.18259709E+00 0.11052051E+03</pdfrwt>
<pdfrwt beam="2">  1        1 0.91602771E-02 0.11052051E+03</pdfrwt>
<totfact> 0.14168282E+03</totfact>
</mgrwt>
</event>
<event>
 4    1  0.5006371E+003  0.1000493E+03  0.7546771E-02  0.1280192E+00
         21   -1    0    0  503  502  0.00000000000E+00  0.00000000000E+00  0.10334428734E+02  0.10334428734E+02  0.00000000000E+00 0. -1.
          1   -1    0    0  502    0 -0.00000000000E+00 -0.00000000000E+00 -0.16639025630E+04  0.16639025630E+04  0.00000000000E+00 0.  1.
         21    1    1    2  503  501 -0.99646116917E+02  0.89725806398E+01 -0.28564102503E+03  0.30265599449E+03  0.00000000000E+00 0. -1.
          1    1    1    2  501    0  0.99646116917E+02 -0.89725806398E+01 -0.13679271093E+04  0.13715809973E+04  0.00000000000E+00 0.  1.
<mgrwt>
<rscale>  2 0.10004927E+03</rscale>
<asrwt>0</asrwt>
<pdfrwt beam="1">  1       21 0.15899124E-02 0.10004927E+03</pdfrwt>
<pdfrwt beam="2">  1        1 0.25598497E+00 0.10004927E+03</pdfrwt>
<totfact> 0.11368172E+05</totfact>
</mgrwt>
</event>
<event>
 4    1  0.5006371E+003  0.1343191E+03  0.7546771E-02  0.1221184E+00
          1   -1    0    0  502    0 -0.00000000000E+00  0.00000000000E+00  0.79742870286E+03  0.79742870286E+03  0.00000000000E+00 0.  1.
         21   -1    0    0  503  502  0.00000000000E+00 -0.00000000000E+00 -0.14745166126E+03  0.14745166126E+03  0.00000000000E+00 0.  1.
         21    1    1    2  503  501 -0.10142474891E+03 -0.88060379771E+02 -0.10969796450E+03  0.17342218310E+03  0.00000000000E+00 0.  1.
          1    1    1    2  501    0  0.10142474891E+03  0.88060379771E+02  0.75967500609E+03  0.77145818102E+03  0.00000000000E+00 0.  1.
<mgrwt>
<rscale>  2 0.13431906E+03</rscale>
<asrwt>0</asrwt>
<pdfrwt beam="2">  1       21 0.22684872E-01 0.13431906E+03</pdfrwt>
<pdfrwt beam="1">  1        1 0.12268134E+00 0.13431906E+03</pdfrwt>
<totfact> 0.48230575E+03</totfact>
</mgrwt>
</event>
<event>
 4    1  0.5006371E+003  0.1414682E+03  0.7546771E-02  0.1211367E+00
         21   -1    0    0  501  502  0.00000000000E+00  0.00000000000E+00  0.31173249131E+03  0.31173249131E+03  0.00000000000E+00 0.  1.
          2   -1    0    0  503    0 -0.00000000000E+00 -0.00000000000E+00 -0.76843277280E+02  0.76843277280E+02  0.00000000000E+00 0.  1.
         21    1    1    2  503  502  0.11037420232E+03  0.88491689784E+02  0.19625284774E+03  0.24192648458E+03  0.00000000000E+00 0.  1.
          2    1    1    2  501    0 -0.11037420232E+03 -0.88491689784E+02  0.38636366294E+02  0.14664928400E+03  0.00000000000E+00 0.  1.
<mgrwt>
<rscale>  2 0.14146817E+03</rscale>
<asrwt>0</asrwt>
<pdfrwt beam="1">  1       21 0.47958844E-01 0.14146817E+03</pdfrwt>
<pdfrwt beam="2">  1        2 0.11822043E-01 0.14146817E+03</pdfrwt>
<totfact> 0.26278164E+04</totfact>
</mgrwt>
</event>
<event>
 4    1  0.5006371E+003  0.1185225E+03  0.7546771E-02  0.1245555E+00
         -2   -1    0    0    0  501 -0.00000000000E+00  0.00000000000E+00  0.37326522966E+03  0.37326522966E+03  0.00000000000E+00 0. -1.
         21   -1    0    0  503  502  0.00000000000E+00 -0.00000000000E+00 -0.38673421328E+02  0.38673421328E+02  0.00000000000E+00 0. -1.
         21    1    1    2  503  501 -0.62479386617E+02 -0.10071693934E+03  0.13353380937E+03  0.17854650337E+03  0.00000000000E+00 0. -1.
         -2    1    1    2    0  502  0.62479386617E+02  0.10071693934E+03  0.20105799896E+03  0.23339214762E+03  0.00000000000E+00 0. -1.
<mgrwt>
<rscale>  2 0.11852247E+03</rscale>
<asrwt>0</asrwt>
<pdfrwt beam="2">  1       21 0.59497574E-02 0.11852247E+03</pdfrwt>
<pdfrwt beam="1">  1       -2 0.57425417E-01 0.11852247E+03</pdfrwt>
<totfact> 0.46250573E+04</totfact>
</mgrwt>
</event>
<event>
 4    1  0.5006371E+003  0.1062870E+03  0.7546771E-02  0.1267604E+00
         21   -1    0    0  501  502  0.00000000000E+00  0.00000000000E+00  0.73395412544E+02  0.73395412544E+02  0.00000000000E+00 0.  1.
          2   -1    0    0  503    0 -0.00000000000E+00 -0.00000000000E+00 -0.34997147838E+03  0.34997147838E+03  0.00000000000E+00 0.  1.
         21    1    1    2  503  502 -0.45991066723E+02 -0.95821485447E+02  0.20149086355E+02  0.10818003962E+03  0.00000000000E+00 0.  1.
          2    1    1    2  501    0  0.45991066723E+02  0.95821485447E+02 -0.29672515219E+03  0.31518685130E+03  0.00000000000E+00 0.  1.
<mgrwt>
<rscale>  2 0.10628704E+03</rscale>
<asrwt>0</asrwt>
<pdfrwt beam="1">  1       21 0.11291602E-01 0.10628704E+03</pdfrwt>
<pdfrwt beam="2">  1        2 0.53841766E-01 0.10628704E+03</pdfrwt>
<totfact> 0.74381533E+04</totfact>
</mgrwt>
</event>
<event>
 4    1  0.5006371E+003  0.1059384E+03  0.7546771E-02  0.1268282E+00
          2   -1    0    0  502    0 -0.00000000000E+00  0.00000000000E+00  0.46071804519E+03  0.46071804519E+03  0.00000000000E+00 0.  1.
         21   -1    0    0  503  502  0.00000000000E+00 -0.00000000000E+00 -0.31374400762E+02  0.31374400762E+02  0.00000000000E+00 0. -1.
         21    1    1    2  503  501 -0.65815762774E+02 -0.83013451404E+02  0.98330516088E+02  0.14454009180E+03  0.00000000000E+00 0. -1.
          2    1    1    2  501    0  0.65815762774E+02  0.83013451404E+02  0.33101312834E+03  0.34755235415E+03  0.00000000000E+00 0.  1.
<mgrwt>
<rscale>  2 0.10593841E+03</rscale>
<asrwt>0</asrwt>
<pdfrwt beam="2">  1       21 0.48268312E-02 0.10593841E+03</pdfrwt>
<pdfrwt beam="1">  1        2 0.70879694E-01 0.10593841E+03</pdfrwt>
<totfact> 0.23735456E+05</totfact>
</mgrwt>
</event>
<event>
 4    1  0.5006371E+003  0.1232601E+03  0.7546771E-02  0.1237814E+00
         21   -1    0    0  503  502  0.00000000000E+00  0.00000000000E+00  0.10658515982E+02  0.10658515982E+02  0.00000000000E+00 0. -1.
          2   -1    0    0  502    0 -0.00000000000E+00 -0.00000000000E+00 -0.26470769990E+04  0.26470769990E+04  0.00000000000E+00 0. -1.
         21    1    1    2  503  501 -0.45730324462E+02 -0.11446308211E+03 -0.41545441176E+03  0.43335369849E+03  0.00000000000E+00 0. -1.
          2    1    1    2  501    0  0.45730324462E+02  0.11446308211E+03 -0.22209640712E+04  0.22243818164E+04  0.00000000000E+00 0. -1.
<mgrwt>
<rscale>  2 0.12326013E+03</rscale>
<asrwt>0</asrwt>
<pdfrwt beam="1">  1       21 0.16397730E-02 0.12326013E+03</pdfrwt>
<pdfrwt beam="2">  1        2 0.40724230E+00 0.12326013E+03</pdfrwt>
<totfact> 0.75444097E+04</totfact>
</mgrwt>
</event>
<event>
 4    1  0.5006371E+003  0.1439780E+03  0.7546771E-02  0.1208074E+00
         21   -1    0    0  501  502  0.00000000000E+00  0.00000000000E+00  0.65977512599E+02  0.65977512599E+02  0.00000000000E+00 0. -1.
          3   -1    0    0  503    0 -0.00000000000E+00 -0.00000000000E+00 -0.38011322642E+03  0.38011322642E+03  0.00000000000E+00 0. -1.
         21    1    1    2  503  502 -0.14299855216E+03 -0.16765377443E+02 -0.64182659990E+02  0.15763590214E+03  0.00000000000E+00 0. -1.
          3    1    1    2  501    0  0.14299855216E+03  0.16765377443E+02 -0.24995305383E+03  0.28845483688E+03  0.00000000000E+00 0. -1.
<mgrwt>
<rscale>  2 0.14397800E+03</rscale>
<asrwt>0</asrwt>
<pdfrwt beam="1">  1       21 0.10150386E-01 0.14397800E+03</pdfrwt>
<pdfrwt beam="2">  1        3 0.58478959E-01 0.14397800E+03</pdfrwt>
<totfact> 0.11166312E+04</totfact>
</mgrwt>
</event>
<event>
 4    1  0.5006371E+003  0.2222913E+03  0.7546771E-02  0.1132186E+00
         21   -1    0    0  501  502  0.00000000000E+00  0.00000000000E+00  0.95650375978E+02  0.95650375978E+02  0.00000000000E+00 0. -1.
          2   -1    0    0  503    0 -0.00000000000E+00 -0.00000000000E+00 -0.88879687328E+03  0.88879687328E+03  0.00000000000E+00 0.  1.
         21    1    1    2  503  502  0.14466229331E+03 -0.16877871269E+03 -0.78047299703E+02  0.23559459661E+03  0.00000000000E+00 0. -1.
          2    1    1    2  501    0 -0.14466229331E+03  0.16877871269E+03 -0.71509919759E+03  0.74885265264E+03  0.00000000000E+00 0.  1.
<mgrwt>
<rscale>  2 0.22229132E+03</rscale>
<asrwt>0</asrwt>
<pdfrwt beam="1">  1       21 0.14715443E-01 0.22229132E+03</pdfrwt>
<pdfrwt beam="2">  1        2 0.13673797E+00 0.22229132E+03</pdfrwt>
<totfact> 0.15803174E+04</totfact>
</mgrwt>
</event>
<event>
 4    1  0.5006371E+003  0.1055987E+03  0.7546771E-02  0.1268945E+00
          1   -1    0    0  503    0 -0.00000000000E+00  0.00000000000E+00  0.24422456667E+03  0.24422456667E+03  0.00000000000E+00 0.  1.
         21   -1    0    0  501  502  0.00000000000E+00 -0.00000000000E+00 -0.92361241559E+02  0.92361241559E+02  0.00000000000E+00 0. -1.
         21    1    1    2  503  502  0.16049811486E+02  0.10437184482E+03 -0.43739424334E+02  0.11429879999E+03  0.00000000000E+00 0. -1.
          1    1    1    2  501    0 -0.16049811486E+02 -0.10437184482E+03  0.19560274944E+03  0.22228700823E+03  0.00000000000E+00 0.  1.
<mgrwt>
<rscale>  2 0.10559867E+03</rscale>
<asrwt>0</asrwt>
<pdfrwt beam="2">  1       21 0.14209422E-01 0.10559867E+03</pdfrwt>
<pdfrwt beam="1">  1        1 0.37573010E-01 0.10559867E+03</pdfrwt>
<totfact> 0.53117330E+04</totfact>
</mgrwt>
</event>
<event>
 4    1  0.5006371E+003  0.1186599E+03  0.7546771E-02  0.1245324E+00
          1   -1    0    0  502    0 -0.00000000000E+00  0.00000000000E+00  0.42774432612E+02  0.42774432612E+02  0.00000000000E+00 0.  1.
         21   -1    0    0  503  502  0.00000000000E+00 -0.00000000000E+00 -0.43064298114E+03  0.43064298114E+03  0.00000000000E+00 0. -1.
         21    1    1    2  503  501  0.34587405059E+02 -0.11350716029E+03 -0.30883573527E+03  0.33084690630E+03  0.00000000000E+00 0. -1.
          1    1    1    2  501    0 -0.34587405059E+02  0.11350716029E+03 -0.79032813258E+02  0.14257050746E+03  0.00000000000E+00 0.  1.
<mgrwt>
<rscale>  2 0.11865987E+03</rscale>
<asrwt>0</asrwt>
<pdfrwt beam="2">  1       21 0.66252765E-01 0.11865987E+03</pdfrwt>
<pdfrwt beam="1">  1        1 0.65806821E-02 0.11865987E+03</pdfrwt>
<totfact> 0.25118064E+04</totfact>
</mgrwt>
</event>
<event>
 4    1  0.5006371E+003  0.1115712E+03  0.7546771E-02  0.1257688E+00
          2   -1    0    0  503    0 -0.00000000000E+00  0.00000000000E+00  0.44764613599E+03  0.44764613599E+03  0.00000000000E+00 0.  1.
         21   -1    0    0  501  502  0.00000000000E+00 -0.00000000000E+00 -0.33522526061E+02  0.33522526061E+02  0.00000000000E+00 0. -1.
         21    1    1    2  503  502  0.11156224525E+03 -0.14171885053E+01  0.10772981324E+03  0.15509305481E+03  0.00000000000E+00 0. -1.
          2    1    1    2  501    0 -0.11156224525E+03  0.14171885053E+01  0.30639379669E+03  0.32607560724E+03  0.00000000000E+00 0.  1.
<mgrwt>
<rscale>  2 0.11157125E+03</rscale>
<asrwt>0</asrwt>
<pdfrwt beam="2">  1       21 0.51573120E-02 0.11157125E+03</pdfrwt>
<pdfrwt beam="1">  1        2 0.68868632E-01 0.11157125E+03</pdfrwt>
<totfact> 0.21974795E+05</totfact>
</mgrwt>
</event>
<event>
 4    1  0.5006371E+003  0.1298911E+03  0.7546771E-02  0.1227617E+00
          2   -1    0    0  502    0 -0.00000000000E+00  0.00000000000E+00  0.22316097640E+04  0.22316097640E+04  0.00000000000E+00 0.  1.
         21   -1    0    0  503  502  0.00000000000E+00 -0.00000000000E+00 -0.91369670036E+02  0.91369670036E+02  0.00000000000E+00 0. -1.
         21    1    1    2  503  501  0.12984856054E+03 -0.33241834408E+01 -0.42278876506E+02  0.13659869059E+03  0.00000000000E+00 0. -1.
          2    1    1    2  501    0 -0.12984856054E+03  0.33241834408E+01  0.21825189705E+04  0.21863807434E+04  0.00000000000E+00 0.  1.
<mgrwt>
<rscale>  2 0.12989110E+03</rscale>
<asrwt>0</asrwt>
<pdfrwt beam="2">  1       21 0.14056874E-01 0.12989110E+03</pdfrwt>
<pdfrwt beam="1">  1        2 0.34332454E+00 0.12989110E+03</pdfrwt>
<totfact> 0.33582256E+03</totfact>
</mgrwt>
</event>
<event>
 4    1  0.5006371E+003  0.1078620E+03  0.7546771E-02  0.1264581E+00
         -3   -1    0    0    0  501 -0.00000000000E+00  0.00000000000E+00  0.74604516281E+02  0.74604516281E+02  0.00000000000E+00 0. -1.
         21   -1    0    0  501  502  0.00000000000E+00 -0.00000000000E+00 -0.17037806450E+03  0.17037806450E+03  0.00000000000E+00 0. -1.
         21    1    1    2  503  502  0.48690194460E+02  0.96246951914E+02 -0.83538103630E+02  0.13642882960E+03  0.00000000000E+00 0. -1.
         -3    1    1    2    0  503 -0.48690194460E+02 -0.96246951914E+02 -0.12235444584E+02  0.10855375117E+03  0.00000000000E+00 0. -1.
<mgrwt>
<rscale>  2 0.10786200E+03</rscale>
<asrwt>0</asrwt>
<pdfrwt beam="2">  1       21 0.26212010E-01 0.10786200E+03</pdfrwt>
<pdfrwt beam="1">  1       -3 0.11477618E-01 0.10786200E+03</pdfrwt>
<totfact> 0.38096637E+04</totfact>
</mgrwt>
</event>
<event>
 4    1  0.5006371E+003  0.1029773E+03  0.7546771E-02  0.1274157E+00
         21   -1    0    0  503  502  0.00000000000E+00  0.00000000000E+00  0.13650430431E+02  0.13650430431E+02  0.00000000000E+00 0.  1.
          1   -1    0    0  502    0 -0.00000000000E+00 -0.00000000000E+00 -0.84814808245E+03  0.84814808245E+03  0.00000000000E+00 0.  1.
         21    1    1    2  503  501 -0.78368483346E+02 -0.66803465535E+02 -0.29231440598E+03  0.30992262604E+03  0.00000000000E+00 0.  1.
          1    1    1    2  501    0  0.78368483346E+02  0.66803465535E+02 -0.54218324604E+03  0.55187588684E+03  0.00000000000E+00 0.  1.
<mgrwt>
<rscale>  2 0.10297729E+03</rscale>
<asrwt>0</asrwt>
<pdfrwt beam="1">  1       21 0.21000652E-02 0.10297729E+03</pdfrwt>
<pdfrwt beam="2">  1        1 0.13048438E+00 0.10297729E+03</pdfrwt>
<totfact> 0.26142190E+05</totfact>
</mgrwt>
</event>
<event>
 4    1  0.5006371E+003  0.1019563E+03  0.7546771E-02  0.1276235E+00
         21   -1    0    0  503  502  0.00000000000E+00  0.00000000000E+00  0.18503311856E+02  0.18503311856E+02  0.00000000000E+00 0. -1.
          1   -1    0    0  502    0 -0.00000000000E+00 -0.00000000000E+00 -0.24243571254E+04  0.24243571254E+04  0.00000000000E+00 0. -1.
         21    1    1    2  503  501 -0.66696049030E+02  0.77115003176E+02 -0.13233087441E+03  0.16705252765E+03  0.00000000000E+00 0. -1.
          1    1    1    2  501    0  0.66696049030E+02 -0.77115003176E+02 -0.22735229391E+04  0.22758079096E+04  0.00000000000E+00 0. -1.
<mgrwt>
<rscale>  2 0.10195630E+03</rscale>
<asrwt>0</asrwt>
<pdfrwt beam="1">  1       21 0.28466657E-02 0.10195630E+03</pdfrwt>
<pdfrwt beam="2">  1        1 0.37297771E+00 0.10195630E+03</pdfrwt>
<totfact> 0.14719103E+04</totfact>
</mgrwt>
</event>
<event>
 4    1  0.5006371E+003  0.1068554E+03  0.7546771E-02  0.1266507E+00
          2   -1    0    0  503    0 -0.00000000000E+00  0.00000000000E+00  0.37310813263E+04  0.37310813263E+04  0.00000000000E+00 0. -1.
         21   -1    0    0  501  502  0.00000000000E+00 -0.00000000000E+00 -0.47685162184E+02  0.47685162184E+02  0.00000000000E+00 0.  1.
         21    1    1    2  503  502  0.10650238041E+03 -0.86782037461E+01  0.13946872277E+02  0.10776169774E+03  0.00000000000E+00 0.  1.
          2    1    1    2  501    0 -0.10650238041E+03  0.86782037461E+01  0.36694492918E+04  0.36710047907E+04  0.00000000000E+00 0. -1.
<mgrwt>
<rscale>  2 0.10685536E+03</rscale>
<asrwt>0</asrwt>
<pdfrwt beam="2">  1       21 0.73361818E-02 0.10685536E+03</pdfrwt>
<pdfrwt beam="1">  1        2 0.57401228E+00 0.10685536E+03</pdfrwt>
<totfact> 0.14372239E+03</totfact>
</mgrwt>
</event>
<event>
 4    1  0.5006371E+003  0.1082327E+03  0.7546771E-02  0.1263878E+00
         21   -1    0    0  501  502  0.00000000000E+00  0.00000000000E+00  0.24257829402E+03  0.24257829402E+03  0.00000000000E+00 0.  1.
         -1   -1    0    0    0  501 -0.00000000000E+00 -0.00000000000E+00 -0.50570170259E+02  0.50570170259E+02  0.00000000000E+00 0.  1.
         21    1    1    2  503  502  0.55759606388E+02  0.92764185177E+02  0.12712172043E+03  0.16695586111E+03  0.00000000000E+00 0.  1.
         -1    1    1    2    0  503 -0.55759606388E+02 -0.92764185177E+02  0.64886403337E+02  0.12619260317E+03  0.00000000000E+00 0.  1.
<mgrwt>
<rscale>  2 0.10823275E+03</rscale>
<asrwt>0</asrwt>
<pdfrwt beam="1">  1       21 0.37319737E-01 0.10823275E+03</pdfrwt>
<pdfrwt beam="2">  1       -1 0.77800264E-02 0.10823275E+03</pdfrwt>
<totfact> 0.54420247E+04</totfact>
</mgrwt>
</event>
<event>
 4    1  0.5006371E+003  0.1270930E+03  0.7546771E-02  0.1231834E+00
         21   -1    0    0  503  502  0.00000000000E+00  0.00000000000E+00  0.66007665298E+02  0.66007665298E+02  0.00000000000E+00 0.  1.
          4   -1    0    0  502    0 -0.00000000000E+00 -0.00000000000E+00 -0.54506556905E+03  0.54506556905E+03  0.00000000000E+00 0.  1.
         21    1    1    2  503  501  0.98874271718E+02 -0.79853041771E+02 -0.12721199149E+02  0.12772806581E+03  0.00000000000E+00 0.  1.
          4    1    1    2  501    0 -0.98874271718E+02  0.79853041771E+02 -0.46633670460E+03  0.48334516853E+03  0.00000000000E+00 0.  1.
<mgrwt>
<rscale>  2 0.12709300E+03</rscale>
<asrwt>0</asrwt>
<pdfrwt beam="1">  1       21 0.10155025E-01 0.12709300E+03</pdfrwt>
<pdfrwt beam="2">  1        4 0.83856245E-01 0.12709300E+03</pdfrwt>
<totfact> 0.41417990E+03</totfact>
</mgrwt>
</event>
<event>
 4    1  0.5006371E+003  0.1030801E+03  0.7546771E-02  0.1273949E+00
         21   -1    0    0  503  502  0.00000000000E+00  0.00000000000E+00  0.15012251432E+03  0.15012251432E+03  0.00000000000E+00 0. -1.
          2   -1    0    0  502    0 -0.00000000000E+00 -0.00000000000E+00 -0.31920020542E+04  0.31920020542E+04  0.00000000000E+00 0.  1.
         21    1    1    2  503  501  0.90318023022E+02 -0.49680684596E+02  0.13149171743E+03  0.16707958420E+03  0.00000000000E+00 0. -1.
          2    1    1    2  501    0 -0.90318023022E+02  0.49680684596E+02 -0.31733712574E+04  0.31750449844E+04  0.00000000000E+00 0.  1.
<mgrwt>
<rscale>  2 0.10308014E+03</rscale>
<asrwt>0</asrwt>
<pdfrwt beam="1">  1       21 0.23095773E-01 0.10308014E+03</pdfrwt>
<pdfrwt beam="2">  1        2 0.49107721E+00 0.10308014E+03</pdfrwt>
<totfact> 0.41517687E+02</totfact>
</mgrwt>
</event>
<event>
 4    1  0.5006371E+003  0.1227943E+03  0.7546771E-02  0.1238557E+00
          2   -1    0    0  502    0 -0.00000000000E+00  0.00000000000E+00  0.16613478074E+04  0.16613478074E+04  0.00000000000E+00 0.  1.
         21   -1    0    0  503  502  0.00000000000E+00 -0.00000000000E+00 -0.92902278950E+01  0.92902278950E+01  0.00000000000E+00 0.  1.
         21    1    1    2  503  501  0.28679500772E+02 -0.11939817746E+03  0.69919083743E+03  0.70989172814E+03  0.00000000000E+00 0.  1.
          2    1    1    2  501    0 -0.28679500772E+02  0.11939817746E+03  0.95286674203E+03  0.96074630711E+03  0.00000000000E+00 0.  1.
<mgrwt>
<rscale>  2 0.12279429E+03</rscale>
<asrwt>0</asrwt>
<pdfrwt beam="2">  1       21 0.14292672E-02 0.12279429E+03</pdfrwt>
<pdfrwt beam="1">  1        2 0.25559173E+00 0.12279429E+03</pdfrwt>
<totfact> 0.30451137E+05</totfact>
</mgrwt>
</event>
<event>
 4    1  0.5006371E+003  0.1433310E+03  0.7546771E-02  0.1208916E+00
          1   -1    0    0  503    0 -0.00000000000E+00  0.00000000000E+00  0.72574076001E+03  0.72574076001E+03  0.00000000000E+00 0. -1.
         21   -1    0    0  501  502  0.00000000000E+00 -0.00000000000E+00 -0.82800245016E+03  0.82800245016E+03  0.00000000000E+00 0.  1.
         21    1    1    2  503  502  0.66386982596E+02  0.12702970953E+03 -0.81460732390E+03  0.82712083199E+03  0.00000000000E+00 0.  1.
          1    1    1    2  501    0 -0.66386982596E+02 -0.12702970953E+03  0.71234563375E+03  0.72662237818E+03  0.00000000000E+00 0. -1.
<mgrwt>
<rscale>  2 0.14333101E+03</rscale>
<asrwt>0</asrwt>
<pdfrwt beam="2">  1       21 0.12738499E+00 0.14333101E+03</pdfrwt>
<pdfrwt beam="1">  1        1 0.11165243E+00 0.14333101E+03</pdfrwt>
<totfact> 0.14216738E+02</totfact>
</mgrwt>
</event>
<event>
 4    1  0.5006371E+003  0.1116745E+03  0.7546771E-02  0.1257500E+00
          2   -1    0    0  503    0 -0.00000000000E+00  0.00000000000E+00  0.24594714565E+04  0.24594714565E+04  0.00000000000E+00 0.  1.
         21   -1    0    0  501  502  0.00000000000E+00 -0.00000000000E+00 -0.18178862589E+03  0.18178862589E+03  0.00000000000E+00 0. -1.
         21    1    1    2  503  502 -0.28775447160E+02  0.10790355378E+03 -0.16324000199E+03  0.19778397692E+03  0.00000000000E+00 0. -1.
          2    1    1    2  501    0  0.28775447160E+02 -0.10790355378E+03  0.24409228326E+04  0.24434761054E+04  0.00000000000E+00 0.  1.
<mgrwt>
<rscale>  2 0.11167454E+03</rscale>
<asrwt>0</asrwt>
<pdfrwt beam="2">  1       21 0.27967483E-01 0.11167454E+03</pdfrwt>
<pdfrwt beam="1">  1        2 0.37838020E+00 0.11167454E+03</pdfrwt>
<totfact> 0.73120023E+02</totfact>
</mgrwt>
</event>
<event>
 4    1  0.5006371E+003  0.1331295E+03  0.7546771E-02  0.1222885E+00
          2   -1    0    0  503    0 -0.00000000000E+00  0.00000000000E+00  0.16061246909E+04  0.16061246909E+04  0.00000000000E+00 0.  1.
         21   -1    0    0  501  502  0.00000000000E+00 -0.00000000000E+00 -0.11314696558E+02  0.11314696558E+02  0.00000000000E+00 0.  1.
         21    1    1    2  503  502  0.89940111028E+02  0.98154228988E+02  0.92457162530E+03  0.93410714940E+03  0.00000000000E+00 0.  1.
          2    1    1    2  501    0 -0.89940111028E+02 -0.98154228988E+02  0.67023836905E+03  0.68333223807E+03  0.00000000000E+00 0.  1.
<mgrwt>
<rscale>  2 0.13312955E+03</rscale>
<asrwt>0</asrwt>
<pdfrwt beam="2">  1       21 0.17407238E-02 0.13312955E+03</pdfrwt>
<pdfrwt beam="1">  1        2 0.24709593E+00 0.13312955E+03</pdfrwt>
<totfact> 0.23745753E+05</totfact>
</mgrwt>
</event>
<event>
 4    1  0.5006371E+003  0.1021748E+03  0.7546771E-02  0.1275788E+00
         21   -1    0    0  501  502  0.00000000000E+00  0.00000000000E+00  0.48457410814E+03  0.48457410814E+03  0.00000000000E+00 0. -1.
         -2   -1    0    0    0  501 -0.00000000000E+00 -0.00000000000E+00 -0.44216895346E+03  0.44216895346E+03  0.00000000000E+00 0. -1.
         21    1    1    2  503  502  0.54023489748E+02 -0.86724527295E+02  0.47314459890E+03  0.48405112596E+03  0.00000000000E+00 0. -1.
         -2    1    1    2    0  503 -0.54023489748E+02  0.86724527295E+02 -0.43073944421E+03  0.44269193564E+03  0.00000000000E+00 0. -1.
<mgrwt>
<rscale>  2 0.10217476E+03</rscale>
<asrwt>0</asrwt>
<pdfrwt beam="1">  1       21 0.74549863E-01 0.10217476E+03</pdfrwt>
<pdfrwt beam="2">  1       -2 0.68025993E-01 0.10217476E+03</pdfrwt>
<totfact> 0.28243761E+02</totfact>
</mgrwt>
</event>
<event>
 4    1  0.5006371E+003  0.1367830E+03  0.7546771E-02  0.1217724E+00
         21   -1    0    0  503  502  0.00000000000E+00  0.00000000000E+00  0.21244967163E+02  0.21244967163E+02  0.00000000000E+00 0. -1.
         -2   -1    0    0    0  501 -0.00000000000E+00 -0.00000000000E+00 -0.98205752562E+03  0.98205752562E+03  0.00000000000E+00 0. -1.
         21    1    1    2  503  501  0.12577688880E+03  0.53756627098E+02 -0.31921323007E+03  0.34728473472E+03  0.00000000000E+00 0. -1.
         -2    1    1    2    0  502 -0.12577688880E+03 -0.53756627098E+02 -0.64159932838E+03  0.65601775806E+03  0.00000000000E+00 0. -1.
<mgrwt>
<rscale>  2 0.13678304E+03</rscale>
<asrwt>0</asrwt>
<pdfrwt beam="1">  1       21 0.32684558E-02 0.13678304E+03</pdfrwt>
<pdfrwt beam="2">  1       -2 0.15108580E+00 0.13678304E+03</pdfrwt>
<totfact> 0.14046425E+04</totfact>
</mgrwt>
</event>
<event>
 4    1  0.5006371E+003  0.2318414E+03  0.7546771E-02  0.1125350E+00
          3   -1    0    0  503    0 -0.00000000000E+00  0.00000000000E+00  0.58894839557E+03  0.58894839557E+03  0.00000000000E+00 0. -1.
         21   -1    0    0  501  502  0.00000000000E+00 -0.00000000000E+00 -0.10191910781E+03  0.10191910781E+03  0.00000000000E+00 0.  1.
         21    1    1    2  503  502 -0.64537983807E+02 -0.22267750736E+03  0.13182990467E+03  0.26670123247E+03  0.00000000000E+00 0.  1.
          3    1    1    2  501    0  0.64537983807E+02  0.22267750736E+03  0.35519938309E+03  0.42416627091E+03  0.00000000000E+00 0. -1.
<mgrwt>
<rscale>  2 0.23184138E+03</rscale>
<asrwt>0</asrwt>
<pdfrwt beam="2">  1       21 0.15679863E-01 0.23184138E+03</pdfrwt>
<pdfrwt beam="1">  1        3 0.90607443E-01 0.23184138E+03</pdfrwt>
<totfact> 0.20259077E+03</totfact>
</mgrwt>
</event>
<event>
 4    1  0.5006371E+003  0.1234816E+03  0.7546771E-02  0.1237462E+00
         21   -1    0    0  503  502  0.00000000000E+00  0.00000000000E+00  0.30138328027E+04  0.30138328027E+04  0.00000000000E+00 0.  1.
         -3   -1    0    0    0  501 -0.00000000000E+00 -0.00000000000E+00 -0.12558368432E+02  0.12558368432E+02  0.00000000000E+00 0.  1.
         21    1    1    2  503  501  0.80775770082E+02 -0.93396842712E+02  0.26699587043E+04  0.26728125968E+04  0.00000000000E+00 0.  1.
         -3    1    1    2    0  502 -0.80775770082E+02  0.93396842712E+02  0.33131572997E+03  0.35357857427E+03  0.00000000000E+00 0.  1.
<mgrwt>
<rscale>  2 0.12348156E+03</rscale>
<asrwt>0</asrwt>
<pdfrwt beam="1">  1       21 0.46366601E+00 0.12348156E+03</pdfrwt>
<pdfrwt beam="2">  1       -3 0.19320591E-02 0.12348156E+03</pdfrwt>
<totfact> 0.18251044E+02</totfact>
</mgrwt>
</event>
<event>
 4    1  0.5006371E+003  0.1029183E+03  0.7546771E-02  0.1274276E+00
          2   -1    0    0  502    0 -0.00000000000E+00  0.00000000000E+00  0.24829641129E+04  0.24829641129E+04  0.00000000000E+00 0.  1.
         21   -1    0    0  503  502  0.00000000000E+00 -0.00000000000E+00 -0.65257206712E+01  0.65257206712E+01  0.00000000000E+00 0.  1.
         21    1    1    2  503  501  0.10248193232E+03  0.94672289902E+01  0.50573323265E+03  0.51609909657E+03  0.00000000000E+00 0.  1.
          2    1    1    2  501    0 -0.10248193232E+03 -0.94672289902E+01  0.19707051595E+04  0.19733907370E+04  0.00000000000E+00 0.  1.
<mgrwt>
<rscale>  2 0.10291829E+03</rscale>
<asrwt>0</asrwt>
<pdfrwt beam="2">  1       21 0.10039590E-02 0.10291829E+03</pdfrwt>
<pdfrwt beam="1">  1        2 0.38199372E+00 0.10291829E+03</pdfrwt>
<totfact> 0.20157351E+05</totfact>
</mgrwt>
</event>
<event>
 4    1  0.5006371E+003  0.2155567E+03  0.7546771E-02  0.1137240E+00
          2   -1    0    0  503    0 -0.00000000000E+00  0.00000000000E+00  0.20272543842E+03  0.20272543842E+03  0.00000000000E+00 0.  1.
         21   -1    0    0  501  502  0.00000000000E+00 -0.00000000000E+00 -0.22920188115E+03  0.22920188115E+03  0.00000000000E+00 0. -1.
         21    1    1    2  503  502  0.16775597825E+03 -0.13536106993E+03 -0.13842972260E+02  0.21600073003E+03  0.00000000000E+00 0. -1.
          2    1    1    2  501    0 -0.16775597825E+03  0.13536106993E+03 -0.12633470474E+02  0.21592658954E+03  0.00000000000E+00 0.  1.
<mgrwt>
<rscale>  2 0.21555669E+03</rscale>
<asrwt>0</asrwt>
<pdfrwt beam="2">  1       21 0.35261828E-01 0.21555669E+03</pdfrwt>
<pdfrwt beam="1">  1        2 0.31188529E-01 0.21555669E+03</pdfrwt>
<totfact> 0.15990681E+04</totfact>
</mgrwt>
</event>
<event>
 4    1  0.5006371E+003  0.1202480E+03  0.7546771E-02  0.1242689E+00
         21   -1    0    0  503  502  0.00000000000E+00  0.00000000000E+00  0.11664173318E+02  0.11664173318E+02  0.00000000000E+00 0.  1.
          1   -1    0    0  502    0 -0.00000000000E+00 -0.00000000000E+00 -0.13368072776E+04  0.13368072776E+04  0.00000000000E+00 0.  1.
         21    1    1    2  503  501 -0.50058323213E+02  0.10933313518E+03 -0.48081078953E+03  0.49561939581E+03  0.00000000000E+00 0.  1.
          1    1    1    2  501    0  0.50058323213E+02 -0.10933313518E+03 -0.84433231471E+03  0.85285205507E+03  0.00000000000E+00 0.  1.
<mgrwt>
<rscale>  2 0.12024795E+03</rscale>
<asrwt>0</asrwt>
<pdfrwt beam="1">  1       21 0.17944877E-02 0.12024795E+03</pdfrwt>
<pdfrwt beam="2">  1        1 0.20566272E+00 0.12024795E+03</pdfrwt>
<totfact> 0.15251331E+05</totfact>
</mgrwt>
</event>
<event>
 4    1  0.5006371E+003  0.1099027E+03  0.7546771E-02  0.1260750E+00
          2   -1    0    0  503    0 -0.00000000000E+00  0.00000000000E+00  0.37059691778E+03  0.37059691778E+03  0.00000000000E+00 0.  1.
         21   -1    0    0  501  502  0.00000000000E+00 -0.00000000000E+00 -0.33933097882E+02  0.33933097882E+02  0.00000000000E+00 0.  1.
         21    1    1    2  503  502  0.74936773097E+02 -0.80393313646E+02  0.12812588560E+03  0.16880416879E+03  0.00000000000E+00 0.  1.
          2    1    1    2  501    0 -0.74936773097E+02  0.80393313646E+02  0.20853793430E+03  0.23572584687E+03  0.00000000000E+00 0.  1.
<mgrwt>
<rscale>  2 0.10990271E+03</rscale>
<asrwt>0</asrwt>
<pdfrwt beam="2">  1       21 0.52204769E-02 0.10990271E+03</pdfrwt>
<pdfrwt beam="1">  1        2 0.57014907E-01 0.10990271E+03</pdfrwt>
<totfact> 0.26298080E+05</totfact>
</mgrwt>
</event>
<event>
 4    1  0.5006371E+003  0.1594753E+03  0.7546771E-02  0.1189290E+00
         21   -1    0    0  501  502  0.00000000000E+00  0.00000000000E+00  0.42558895926E+02  0.42558895926E+02  0.00000000000E+00 0.  1.
          2   -1    0    0  503    0 -0.00000000000E+00 -0.00000000000E+00 -0.10752474919E+04  0.10752474919E+04  0.00000000000E+00 0.  1.
         21    1    1    2  503  502  0.15887649316E+03 -0.13806729646E+02 -0.14382824495E+03  0.21475318369E+03  0.00000000000E+00 0.  1.
          2    1    1    2  501    0 -0.15887649316E+03  0.13806729646E+02 -0.88886035104E+03  0.90305320414E+03  0.00000000000E+00 0.  1.
<mgrwt>
<rscale>  2 0.15947528E+03</rscale>
<asrwt>0</asrwt>
<pdfrwt beam="1">  1       21 0.65475225E-02 0.15947528E+03</pdfrwt>
<pdfrwt beam="2">  1        2 0.16542269E+00 0.15947528E+03</pdfrwt>
<totfact> 0.51296873E+04</totfact>
</mgrwt>
</event>
<event>
 4    1  0.5006371E+003  0.1348663E+03  0.7546771E-02  0.1220409E+00
          2   -1    0    0  503    0 -0.00000000000E+00  0.00000000000E+00  0.38276911409E+03  0.38276911409E+03  0.00000000000E+00 0. -1.
         21   -1    0    0  501  502  0.00000000000E+00 -0.00000000000E+00 -0.47643975866E+02  0.47643975866E+02  0.00000000000E+00 0. -1.
         21    1    1    2  503  502 -0.13054214717E+03  0.33877176939E+02  0.15655311748E+03  0.20663444509E+03  0.00000000000E+00 0. -1.
          2    1    1    2  501    0  0.13054214717E+03 -0.33877176939E+02  0.17857202075E+03  0.22377864487E+03  0.00000000000E+00 0. -1.
<mgrwt>
<rscale>  2 0.13486629E+03</rscale>
<asrwt>0</asrwt>
<pdfrwt beam="2">  1       21 0.73298427E-02 0.13486629E+03</pdfrwt>
<pdfrwt beam="1">  1        2 0.58887554E-01 0.13486629E+03</pdfrwt>
<totfact> 0.14429042E+05</totfact>
</mgrwt>
</event>
<event>
 4    1  0.5006371E+003  0.1054949E+03  0.7546771E-02  0.1269148E+00
         -2   -1    0    0    0  501 -0.00000000000E+00  0.00000000000E+00  0.81477145536E+03  0.81477145536E+03  0.00000000000E+00 0. -1.
         21   -1    0    0  501  502  0.00000000000E+00 -0.00000000000E+00 -0.51633052791E+02  0.51633052791E+02  0.00000000000E+00 0.  1.
         21    1    1    2  503  502  0.68198829369E+02 -0.80486609219E+02  0.10060664188E+02  0.10597354177E+03  0.00000000000E+00 0.  1.
         -2    1    1    2    0  503 -0.68198829369E+02  0.80486609219E+02  0.75307773838E+03  0.76043096638E+03  0.00000000000E+00 0. -1.
<mgrwt>
<rscale>  2 0.10549490E+03</rscale>
<asrwt>0</asrwt>
<pdfrwt beam="2">  1       21 0.79435472E-02 0.10549490E+03</pdfrwt>
<pdfrwt beam="1">  1       -2 0.12534944E+00 0.10549490E+03</pdfrwt>
<totfact> 0.50082213E+03</totfact>
</mgrwt>
</event>
<event>
 4    1  0.5006371E+003  0.1023622E+03  0.7546771E-02  0.1275406E+00
          2   -1    0    0  503    0 -0.00000000000E+00  0.00000000000E+00  0.14879885980E+04  0.14879885980E+04  0.00000000000E+00 0.  1.
         21   -1    0    0  501  502  0.00000000000E+00 -0.00000000000E+00 -0.75708472785E+02  0.75708472785E+02  0.00000000000E+00 0.  1.
         21    1    1    2  503  502 -0.28763009767E+02 -0.98238050331E+02 -0.38460883441E+02  0.10934927900E+03  0.00000000000E+00 0.  1.
          2    1    1    2  501    0  0.28763009767E+02  0.98238050331E+02  0.14507410086E+04  0.14543477917E+04  0.00000000000E+00 0.  1.
<mgrwt>
<rscale>  2 0.10236223E+03</rscale>
<asrwt>0</asrwt>
<pdfrwt beam="2">  1       21 0.11647458E-01 0.10236223E+03</pdfrwt>
<pdfrwt beam="1">  1        2 0.22892130E+00 0.10236223E+03</pdfrwt>
<totfact> 0.11443123E+04</totfact>
</mgrwt>
</event>
<event>
 4    1  0.5006371E+003  0.2700408E+03  0.7546771E-02  0.1101256E+00
         21   -1    0    0  503  502  0.00000000000E+00  0.00000000000E+00  0.64217264244E+03  0.64217264244E+03  0.00000000000E+00 0.  1.
          1   -1    0    0  502    0 -0.00000000000E+00 -0.00000000000E+00 -0.17390696505E+04  0.17390696505E+04  0.00000000000E+00 0. -1.
         21    1    1    2  503  501 -0.12568283026E+03 -0.23901020358E+03  0.60264477794E+03  0.66038078380E+03  0.00000000000E+00 0.  1.
          1    1    1    2  501    0  0.12568283026E+03  0.23901020358E+03 -0.16995417860E+04  0.17208615091E+04  0.00000000000E+00 0. -1.
<mgrwt>
<rscale>  2 0.27004083E+03</rscale>
<asrwt>0</asrwt>
<pdfrwt beam="1">  1       21 0.98795791E-01 0.27004083E+03</pdfrwt>
<pdfrwt beam="2">  1        1 0.26754918E+00 0.27004083E+03</pdfrwt>
<totfact> 0.44834336E+01</totfact>
</mgrwt>
</event>
<event>
 4    1  0.5006371E+003  0.1086072E+03  0.7546771E-02  0.1263171E+00
          1   -1    0    0  503    0 -0.00000000000E+00  0.00000000000E+00  0.19771647579E+04  0.19771647579E+04  0.00000000000E+00 0. -1.
         21   -1    0    0  501  502  0.00000000000E+00 -0.00000000000E+00 -0.13756564275E+02  0.13756564275E+02  0.00000000000E+00 0. -1.
         21    1    1    2  503  502 -0.63047677005E+02  0.88433692420E+02  0.23257456883E+03  0.25668357485E+03  0.00000000000E+00 0. -1.
          1    1    1    2  501    0  0.63047677005E+02 -0.88433692420E+02  0.17308336248E+04  0.17342377473E+04  0.00000000000E+00 0. -1.
<mgrwt>
<rscale>  2 0.10860722E+03</rscale>
<asrwt>0</asrwt>
<pdfrwt beam="2">  1       21 0.21163961E-02 0.10860722E+03</pdfrwt>
<pdfrwt beam="1">  1        1 0.30417897E+00 0.10860722E+03</pdfrwt>
<totfact> 0.45619210E+04</totfact>
</mgrwt>
</event>
<event>
 4    1  0.5006371E+003  0.1027364E+03  0.7546771E-02  0.1274645E+00
          2   -1    0    0  503    0 -0.00000000000E+00  0.00000000000E+00  0.62539480237E+02  0.62539480237E+02  0.00000000000E+00 0.  1.
         21   -1    0    0  501  502  0.00000000000E+00 -0.00000000000E+00 -0.32357533610E+03  0.32357533610E+03  0.00000000000E+00 0. -1.
         21    1    1    2  503  502 -0.10129058735E+03  0.17175308079E+02 -0.26405198328E+03  0.28333412108E+03  0.00000000000E+00 0. -1.
          2    1    1    2  501    0  0.10129058735E+03 -0.17175308079E+02  0.30161274138E+01  0.10278069526E+03  0.00000000000E+00 0.  1.
<mgrwt>
<rscale>  2 0.10273643E+03</rscale>
<asrwt>0</asrwt>
<pdfrwt beam="2">  1       21 0.49780821E-01 0.10273643E+03</pdfrwt>
<pdfrwt beam="1">  1        2 0.96214585E-02 0.10273643E+03</pdfrwt>
<totfact> 0.31199614E+04</totfact>
</mgrwt>
</event>
<event>
 4    1  0.5006371E+003  0.1052870E+03  0.7546771E-02  0.1269555E+00
          2   -1    0    0  503    0 -0.00000000000E+00  0.00000000000E+00  0.18300277529E+03  0.18300277529E+03  0.00000000000E+00 0.  1.
         21   -1    0    0  501  502  0.00000000000E+00 -0.00000000000E+00 -0.24802549260E+03  0.24802549260E+03  0.00000000000E+00 0.  1.
         21    1    1    2  503  502 -0.20990226467E+02  0.10317345660E+03 -0.21986888849E+03  0.24377793149E+03  0.00000000000E+00 0.  1.
          2    1    1    2  501    0  0.20990226467E+02 -0.10317345660E+03  0.15484617118E+03  0.18725033641E+03  0.00000000000E+00 0.  1.
<mgrwt>
<rscale>  2 0.10528700E+03</rscale>
<asrwt>0</asrwt>
<pdfrwt beam="2">  1       21 0.38157768E-01 0.10528700E+03</pdfrwt>
<pdfrwt beam="1">  1        2 0.28154273E-01 0.10528700E+03</pdfrwt>
<totfact> 0.15504434E+04</totfact>
</mgrwt>
</event>
<event>
 4    1  0.5006371E+003  0.1274541E+03  0.7546771E-02  0.1231283E+00
          1   -1    0    0  503    0 -0.00000000000E+00  0.00000000000E+00  0.33467967162E+03  0.33467967162E+03  0.00000000000E+00 0. -1.
         21   -1    0    0  501  502  0.00000000000E+00 -0.00000000000E+00 -0.85983889241E+03  0.85983889241E+03  0.00000000000E+00 0.  1.
         21    1    1    2  503  502  0.80171114953E+02  0.99081504579E+02 -0.84273648892E+03  0.85231997629E+03  0.00000000000E+00 0.  1.
          1    1    1    2  501    0 -0.80171114953E+02 -0.99081504579E+02  0.31757726813E+03  0.34219858774E+03  0.00000000000E+00 0. -1.
<mgrwt>
<rscale>  2 0.12745412E+03</rscale>
<asrwt>0</asrwt>
<pdfrwt beam="2">  1       21 0.13228291E+00 0.12745412E+03</pdfrwt>
<pdfrwt beam="1">  1        1 0.51489180E-01 0.12745412E+03</pdfrwt>
<totfact> 0.36424196E+02</totfact>
</mgrwt>
</event>
<event>
 4    1  0.5006371E+003  0.1438086E+03  0.7546771E-02  0.1208294E+00
         21   -1    0    0  501  502  0.00000000000E+00  0.00000000000E+00  0.19317146822E+02  0.19317146822E+02  0.00000000000E+00 0. -1.
          2   -1    0    0  503    0 -0.00000000000E+00 -0.00000000000E+00 -0.12350869711E+04  0.12350869711E+04  0.00000000000E+00 0. -1.
         21    1    1    2  503  502  0.20741090784E+02  0.14230498525E+03 -0.37899487081E+03  0.40536158399E+03  0.00000000000E+00 0. -1.
          2    1    1    2  501    0 -0.20741090784E+02 -0.14230498525E+03 -0.83677495345E+03  0.84904253391E+03  0.00000000000E+00 0. -1.
<mgrwt>
<rscale>  2 0.14380856E+03</rscale>
<asrwt>0</asrwt>
<pdfrwt beam="1">  1       21 0.29718696E-02 0.14380856E+03</pdfrwt>
<pdfrwt beam="2">  1        2 0.19001332E+00 0.14380856E+03</pdfrwt>
<totfact> 0.15662488E+05</totfact>
</mgrwt>
</event>
<event>
 4    1  0.5006371E+003  0.1221179E+03  0.7546771E-02  0.1239644E+00
          1   -1    0    0  503    0 -0.00000000000E+00  0.00000000000E+00  0.84765241268E+02  0.84765241268E+02  0.00000000000E+00 0. -1.
         21   -1    0    0  501  502  0.00000000000E+00 -0.00000000000E+00 -0.38214303244E+03  0.38214303244E+03  0.00000000000E+00 0.  1.
         21    1    1    2  503  502  0.10653825733E+03 -0.59685650624E+02 -0.32018185880E+03  0.34267944185E+03  0.00000000000E+00 0.  1.
          1    1    1    2  501    0 -0.10653825733E+03  0.59685650624E+02  0.22804067623E+02  0.12422883186E+03  0.00000000000E+00 0. -1.
<mgrwt>
<rscale>  2 0.12211788E+03</rscale>
<asrwt>0</asrwt>
<pdfrwt beam="2">  1       21 0.58791235E-01 0.12211788E+03</pdfrwt>
<pdfrwt beam="1">  1        1 0.13040806E-01 0.12211788E+03</pdfrwt>
<totfact> 0.13086950E+04</totfact>
</mgrwt>
</event>
<event>
 4    1  0.5006371E+003  0.2027649E+03  0.7546771E-02  0.1147427E+00
         21   -1    0    0  503  502  0.00000000000E+00  0.00000000000E+00  0.35881840718E+03  0.35881840718E+03  0.00000000000E+00 0. -1.
          1   -1    0    0  502    0 -0.00000000000E+00 -0.00000000000E+00 -0.19591802908E+04  0.19591802908E+04  0.00000000000E+00 0. -1.
         21    1    1    2  503  501  0.16063931988E+03 -0.12372795877E+03  0.32441643426E+03  0.38256976055E+03  0.00000000000E+00 0. -1.
          1    1    1    2  501    0 -0.16063931988E+03  0.12372795877E+03 -0.19247783179E+04  0.19354289374E+04  0.00000000000E+00 0. -1.
<mgrwt>
<rscale>  2 0.20276489E+03</rscale>
<asrwt>0</asrwt>
<pdfrwt beam="1">  1       21 0.55202832E-01 0.20276489E+03</pdfrwt>
<pdfrwt beam="2">  1        1 0.30141235E+00 0.20276489E+03</pdfrwt>
<totfact> 0.12582612E+02</totfact>
</mgrwt>
</event>
<event>
 4    1  0.5006371E+003  0.1637967E+03  0.7546771E-02  0.1184476E+00
          2   -1    0    0  502    0 -0.00000000000E+00  0.00000000000E+00  0.27603097739E+03  0.27603097739E+03  0.00000000000E+00 0. -1.
         21   -1    0    0  503  502  0.00000000000E+00 -0.00000000000E+00 -0.29638797678E+04  0.29638797678E+04  0.00000000000E+00 0.  1.
         21    1    1    2  503  501  0.15707968117E+03 -0.46425588264E+02 -0.29370960950E+04  0.29416598771E+04  0.00000000000E+00 0.  1.
          2    1    1    2  501    0 -0.15707968117E+03  0.46425588264E+02  0.24924730456E+03  0.29825086809E+03  0.00000000000E+00 0. -1.
<mgrwt>
<rscale>  2 0.16379671E+03</rscale>
<asrwt>0</asrwt>
<pdfrwt beam="2">  1       21 0.45598152E+00 0.16379671E+03</pdfrwt>
<pdfrwt beam="1">  1        2 0.42466303E-01 0.16379671E+03</pdfrwt>
<totfact> 0.59538345E+00</totfact>
</mgrwt>
</event>
<event>
 4    1  0.5006371E+003  0.1198882E+03  0.7546771E-02  0.1243282E+00
          1   -1    0    0  503    0 -0.00000000000E+00  0.00000000000E+00  0.45306295929E+03  0.45306295929E+03  0.00000000000E+00 0. -1.
         21   -1    0    0  501  502  0.00000000000E+00 -0.00000000000E+00 -0.31749356776E+02  0.31749356776E+02  0.00000000000E+00 0. -1.
         21    1    1    2  503  502 -0.11643913862E+03  0.28550229264E+02  0.21744162347E+03  0.24830233228E+03  0.00000000000E+00 0. -1.
          1    1    1    2  501    0  0.11643913862E+03 -0.28550229264E+02  0.20387197905E+03  0.23650998379E+03  0.00000000000E+00 0. -1.
<mgrwt>
<rscale>  2 0.11988823E+03</rscale>
<asrwt>0</asrwt>
<pdfrwt beam="2">  1       21 0.48845168E-02 0.11988823E+03</pdfrwt>
<pdfrwt beam="1">  1        1 0.69701989E-01 0.11988823E+03</pdfrwt>
<totfact> 0.15636683E+05</totfact>
</mgrwt>
</event>
<event>
 4    1  0.5006371E+003  0.1126760E+03  0.7546771E-02  0.1255693E+00
         21   -1    0    0  501  502  0.00000000000E+00  0.00000000000E+00  0.23168186335E+02  0.23168186335E+02  0.00000000000E+00 0.  1.
          3   -1    0    0  503    0 -0.00000000000E+00 -0.00000000000E+00 -0.59440209555E+03  0.59440209555E+03  0.00000000000E+00 0.  1.
         21    1    1    2  503  502  0.25987306918E+02 -0.10963819796E+03 -0.19933024585E+03  0.22897253434E+03  0.00000000000E+00 0.  1.
          3    1    1    2  501    0 -0.25987306918E+02  0.10963819796E+03 -0.37190366336E+03  0.38859774754E+03  0.00000000000E+00 0.  1.
<mgrwt>
<rscale>  2 0.11267597E+03</rscale>
<asrwt>0</asrwt>
<pdfrwt beam="1">  1       21 0.35643364E-02 0.11267597E+03</pdfrwt>
<pdfrwt beam="2">  1        3 0.91446475E-01 0.11267597E+03</pdfrwt>
<totfact> 0.24977222E+04</totfact>
</mgrwt>
</event>
<event>
 4    1  0.5006371E+003  0.1446070E+03  0.7546771E-02  0.1207261E+00
         21   -1    0    0  501  502  0.00000000000E+00  0.00000000000E+00  0.16772098656E+03  0.16772098656E+03  0.00000000000E+00 0. -1.
          2   -1    0    0  503    0 -0.00000000000E+00 -0.00000000000E+00 -0.18224839870E+03  0.18224839870E+03  0.00000000000E+00 0. -1.
         21    1    1    2  503  502 -0.48308349511E+02  0.13629923620E+03  0.91084499273E+02  0.17090220721E+03  0.00000000000E+00 0. -1.
          2    1    1    2  501    0  0.48308349511E+02 -0.13629923620E+03 -0.10561191141E+03  0.17906717805E+03  0.00000000000E+00 0. -1.
<mgrwt>
<rscale>  2 0.14460698E+03</rscale>
<asrwt>0</asrwt>
<pdfrwt beam="1">  1       21 0.25803229E-01 0.14460698E+03</pdfrwt>
<pdfrwt beam="2">  1        2 0.28038215E-01 0.14460698E+03</pdfrwt>
<totfact> 0.33187310E+04</totfact>
</mgrwt>
</event>
<event>
 4    1  0.5006371E+003  0.1190965E+03  0.7546771E-02  0.1244595E+00
          1   -1    0    0  502    0 -0.00000000000E+00  0.00000000000E+00  0.23086020961E+03  0.23086020961E+03  0.00000000000E+00 0.  1.
         21   -1    0    0  503  502  0.00000000000E+00 -0.00000000000E+00 -0.99446275683E+02  0.99446275683E+02  0.00000000000E+00 0. -1.
         21    1    1    2  503  501  0.10316653136E+03 -0.59503244290E+02 -0.36392277920E+02  0.12453259480E+03  0.00000000000E+00 0. -1.
          1    1    1    2  501    0 -0.10316653136E+03  0.59503244290E+02  0.16780621184E+03  0.20577389049E+03  0.00000000000E+00 0.  1.
<mgrwt>
<rscale>  2 0.11909647E+03</rscale>
<asrwt>0</asrwt>
<pdfrwt beam="2">  1       21 0.15299427E-01 0.11909647E+03</pdfrwt>
<pdfrwt beam="1">  1        1 0.35516955E-01 0.11909647E+03</pdfrwt>
<totfact> 0.49986151E+04</totfact>
</mgrwt>
</event>
<event>
 4    1  0.5006371E+003  0.1277054E+03  0.7546771E-02  0.1230901E+00
          2   -1    0    0  503    0 -0.00000000000E+00  0.00000000000E+00  0.11003154006E+02  0.11003154006E+02  0.00000000000E+00 0. -1.
         21   -1    0    0  501  502  0.00000000000E+00 -0.00000000000E+00 -0.16985673062E+04  0.16985673062E+04  0.00000000000E+00 0. -1.
         21    1    1    2  503  502  0.12273557210E+03  0.35279705065E+02 -0.11488730654E+04  0.11559489602E+04  0.00000000000E+00 0. -1.
          2    1    1    2  501    0 -0.12273557210E+03 -0.35279705065E+02 -0.53869108682E+03  0.55362150000E+03  0.00000000000E+00 0. -1.
<mgrwt>
<rscale>  2 0.12770544E+03</rscale>
<asrwt>0</asrwt>
<pdfrwt beam="2">  1       21 0.26131803E+00 0.12770544E+03</pdfrwt>
<pdfrwt beam="1">  1        2 0.16927930E-02 0.12770544E+03</pdfrwt>
<totfact> 0.48689077E+03</totfact>
</mgrwt>
</event>
<event>
 4    1  0.5006371E+003  0.1090836E+03  0.7546771E-02  0.1262276E+00
         21   -1    0    0  503  502  0.00000000000E+00  0.00000000000E+00  0.83694284733E+02  0.83694284733E+02  0.00000000000E+00 0.  1.
         -3   -1    0    0    0  501 -0.00000000000E+00 -0.00000000000E+00 -0.17396445032E+03  0.17396445032E+03  0.00000000000E+00 0.  1.
         21    1    1    2  503  501 -0.91653042401E+02 -0.59151969990E+02  0.99363104515E+01  0.10953522721E+03  0.00000000000E+00 0.  1.
         -3    1    1    2    0  502  0.91653042401E+02  0.59151969990E+02 -0.10020647604E+03  0.14812350784E+03  0.00000000000E+00 0.  1.
<mgrwt>
<rscale>  2 0.10908362E+03</rscale>
<asrwt>0</asrwt>
<pdfrwt beam="1">  1       21 0.12876044E-01 0.10908362E+03</pdfrwt>
<pdfrwt beam="2">  1       -3 0.26763761E-01 0.10908362E+03</pdfrwt>
<totfact> 0.32302877E+04</totfact>
</mgrwt>
</event>
<event>
 4    1  0.5006371E+003  0.1166938E+03  0.7546771E-02  0.1248653E+00
         21   -1    0    0  503  502  0.00000000000E+00  0.00000000000E+00  0.28918501231E+03  0.28918501231E+03  0.00000000000E+00 0.  1.
         -2   -1    0    0    0  501 -0.00000000000E+00 -0.00000000000E+00 -0.47197144649E+02  0.47197144649E+02  0.00000000000E+00 0. -1.
         21    1    1    2  503  501  0.40709648153E+01  0.11662274170E+03  0.12904443056E+03  0.17398247525E+03  0.00000000000E+00 0.  1.
         -2    1    1    2    0  502 -0.40709648153E+01 -0.11662274170E+03  0.11294343710E+03  0.16239968171E+03  0.00000000000E+00 0. -1.
<mgrwt>
<rscale>  2 0.11669377E+03</rscale>
<asrwt>0</asrwt>
<pdfrwt beam="1">  1       21 0.44490001E-01 0.11669377E+03</pdfrwt>
<pdfrwt beam="2">  1       -2 0.72610993E-02 0.11669377E+03</pdfrwt>
<totfact> 0.41215733E+04</totfact>
</mgrwt>
</event>
<event>
 4    1  0.5006371E+003  0.1142699E+03  0.7546771E-02  0.1252861E+00
         21   -1    0    0  503  502  0.00000000000E+00  0.00000000000E+00  0.49245343045E+02  0.49245343045E+02  0.00000000000E+00 0. -1.
          2   -1    0    0  502    0 -0.00000000000E+00 -0.00000000000E+00 -0.85482751299E+03  0.85482751299E+03  0.00000000000E+00 0. -1.
         21    1    1    2  503  501  0.25283056310E+02  0.11143781337E+03 -0.27351679809E+02  0.11749780242E+03  0.00000000000E+00 0. -1.
          2    1    1    2  501    0 -0.25283056310E+02 -0.11143781337E+03 -0.77823049013E+03  0.78657505361E+03  0.00000000000E+00 0. -1.
<mgrwt>
<rscale>  2 0.11426994E+03</rscale>
<asrwt>0</asrwt>
<pdfrwt beam="1">  1       21 0.75762071E-02 0.11426994E+03</pdfrwt>
<pdfrwt beam="2">  1        2 0.13151192E+00 0.11426994E+03</pdfrwt>
<totfact> 0.54515285E+04</totfact>
</mgrwt>
</event>
<event>
 4    1  0.5006371E+003  0.1021392E+03  0.7546771E-02  0.1275861E+00
         -1   -1    0    0    0  501 -0.00000000000E+00  0.00000000000E+00  0.19934374091E+04  0.19934374091E+04  0.00000000000E+00 0.  1.
         21   -1    0    0  501  502  0.00000000000E+00 -0.00000000000E+00 -0.91021293673E+01  0.91021293673E+01  0.00000000000E+00 0.  1.
         21    1    1    2  503  502  0.63572160000E+02 -0.79943697681E+02  0.33939050782E+03  0.35442676412E+03  0.00000000000E+00 0.  1.
         -1    1    1    2    0  503 -0.63572160000E+02  0.79943697681E+02  0.16449447719E+04  0.16481127744E+04  0.00000000000E+00 0.  1.
<mgrwt>
<rscale>  2 0.10213919E+03</rscale>
<asrwt>0</asrwt>
<pdfrwt beam="2">  1       21 0.14003292E-02 0.10213919E+03</pdfrwt>
<pdfrwt beam="1">  1       -1 0.30668233E+00 0.10213919E+03</pdfrwt>
<totfact> 0.75245255E+03</totfact>
</mgrwt>
</event>
<event>
 4    1  0.5006371E+003  0.1077573E+03  0.7546771E-02  0.1264780E+00
         21   -1    0    0  503  502  0.00000000000E+00  0.00000000000E+00  0.53994889215E+02  0.53994889215E+02  0.00000000000E+00 0. -1.
          1   -1    0    0  502    0 -0.00000000000E+00 -0.00000000000E+00 -0.76398061953E+03  0.76398061953E+03  0.00000000000E+00 0.  1.
         21    1    1    2  503  501  0.81524911502E+02 -0.70465045749E+02 -0.83137966653E+01  0.10807753274E+03  0.00000000000E+00 0. -1.
          1    1    1    2  501    0 -0.81524911502E+02  0.70465045749E+02 -0.70167193365E+03  0.70989797601E+03  0.00000000000E+00 0.  1.
<mgrwt>
<rscale>  2 0.10775729E+03</rscale>
<asrwt>0</asrwt>
<pdfrwt beam="1">  1       21 0.83069066E-02 0.10775729E+03</pdfrwt>
<pdfrwt beam="2">  1        1 0.11753547E+00 0.10775729E+03</pdfrwt>
<totfact> 0.31260732E+04</totfact>
</mgrwt>
</event>
<event>
 4    1  0.5006371E+003  0.1481852E+03  0.7546771E-02  0.1202721E+00
          4   -1    0    0  502    0 -0.00000000000E+00  0.00000000000E+00  0.15584564260E+03  0.15584564260E+03  0.00000000000E+00 0. -1.
         21   -1    0    0  503  502  0.00000000000E+00 -0.00000000000E+00 -0.17887120724E+03  0.17887120724E+03  0.00000000000E+00 0. -1.
         21    1    1    2  503  501 -0.21464558270E+02  0.14662237040E+03 -0.88620417027E+02  0.17266274954E+03  0.00000000000E+00 0. -1.
          4    1    1    2  501    0  0.21464558270E+02 -0.14662237040E+03  0.65594852388E+02  0.16205410030E+03  0.00000000000E+00 0. -1.
<mgrwt>
<rscale>  2 0.14818518E+03</rscale>
<asrwt>0</asrwt>
<pdfrwt beam="2">  1       21 0.27518647E-01 0.14818518E+03</pdfrwt>
<pdfrwt beam="1">  1        4 0.23976253E-01 0.14818518E+03</pdfrwt>
<totfact> 0.84379831E+03</totfact>
</mgrwt>
</event>
<event>
 4    1  0.5006371E+003  0.1201096E+03  0.7546771E-02  0.1242916E+00
          2   -1    0    0  502    0 -0.00000000000E+00  0.00000000000E+00  0.10268244822E+04  0.10268244822E+04  0.00000000000E+00 0. -1.
         21   -1    0    0  503  502  0.00000000000E+00 -0.00000000000E+00 -0.18710008941E+02  0.18710008941E+02  0.00000000000E+00 0.  1.
         21    1    1    2  503  501 -0.11037555501E+03  0.47366095908E+02  0.24314720132E+03  0.27119526488E+03  0.00000000000E+00 0.  1.
          2    1    1    2  501    0  0.11037555501E+03 -0.47366095908E+02  0.76496727190E+03  0.77433922622E+03  0.00000000000E+00 0. -1.
<mgrwt>
<rscale>  2 0.12010958E+03</rscale>
<asrwt>0</asrwt>
<pdfrwt beam="2">  1       21 0.28784637E-02 0.12010958E+03</pdfrwt>
<pdfrwt beam="1">  1        2 0.15797295E+00 0.12010958E+03</pdfrwt>
<totfact> 0.21567737E+05</totfact>
</mgrwt>
</event>
<event>
 4    1  0.5006371E+003  0.2501123E+03  0.7546771E-02  0.1113234E+00
         21   -1    0    0  501  502  0.00000000000E+00  0.00000000000E+00  0.22713156154E+03  0.22713156154E+03  0.00000000000E+00 0.  1.
          3   -1    0    0  503    0 -0.00000000000E+00 -0.00000000000E+00 -0.31868834831E+03  0.31868834831E+03  0.00000000000E+00 0.  1.
         21    1    1    2  503  502  0.13358600686E+03  0.21144964386E+03  0.54782776278E+02  0.25604164836E+03  0.00000000000E+00 0.  1.
          3    1    1    2  501    0 -0.13358600686E+03 -0.21144964386E+03 -0.14633956305E+03  0.28977826149E+03  0.00000000000E+00 0.  1.
<mgrwt>
<rscale>  2 0.25011232E+03</rscale>
<asrwt>0</asrwt>
<pdfrwt beam="1">  1       21 0.34943317E-01 0.25011232E+03</pdfrwt>
<pdfrwt beam="2">  1        3 0.49028977E-01 0.25011232E+03</pdfrwt>
<totfact> 0.16148357E+03</totfact>
</mgrwt>
</event>
<event>
 4    1  0.5006371E+003  0.1057710E+03  0.7546771E-02  0.1268608E+00
         21   -1    0    0  503  502  0.00000000000E+00  0.00000000000E+00  0.80337010683E+02  0.80337010683E+02  0.00000000000E+00 0.  1.
          2   -1    0    0  502    0 -0.00000000000E+00 -0.00000000000E+00 -0.45465449763E+03  0.45465449763E+03  0.00000000000E+00 0.  1.
         21    1    1    2  503  501 -0.32718150967E+02 -0.10058339320E+03  0.35636145404E+02  0.11161286328E+03  0.00000000000E+00 0.  1.
          2    1    1    2  501    0  0.32718150967E+02  0.10058339320E+03 -0.40995363235E+03  0.42337864503E+03  0.00000000000E+00 0.  1.
<mgrwt>
<rscale>  2 0.10577096E+03</rscale>
<asrwt>0</asrwt>
<pdfrwt beam="1">  1       21 0.12359540E-01 0.10577096E+03</pdfrwt>
<pdfrwt beam="2">  1        2 0.69946845E-01 0.10577096E+03</pdfrwt>
<totfact> 0.48063272E+04</totfact>
</mgrwt>
</event>
<event>
 4    1  0.5006371E+003  0.1666316E+03  0.7546771E-02  0.1181407E+00
         21   -1    0    0  503  502  0.00000000000E+00  0.00000000000E+00  0.73295857377E+02  0.73295857377E+02  0.00000000000E+00 0.  1.
          2   -1    0    0  502    0 -0.00000000000E+00 -0.00000000000E+00 -0.12727307080E+04  0.12727307080E+04  0.00000000000E+00 0. -1.
         21    1    1    2  503  501  0.13176586945E+03 -0.10199922124E+03 -0.35687754171E+02  0.17041039077E+03  0.00000000000E+00 0.  1.
          2    1    1    2  501    0 -0.13176586945E+03  0.10199922124E+03 -0.11637470964E+04  0.11756161746E+04  0.00000000000E+00 0. -1.
<mgrwt>
<rscale>  2 0.16663159E+03</rscale>
<asrwt>0</asrwt>
<pdfrwt beam="1">  1       21 0.11276287E-01 0.16663159E+03</pdfrwt>
<pdfrwt beam="2">  1        2 0.19580470E+00 0.16663159E+03</pdfrwt>
<totfact> 0.15373631E+04</totfact>
</mgrwt>
</event>
<event>
 4    1  0.5006371E+003  0.1487894E+03  0.7546771E-02  0.1201969E+00
         -2   -1    0    0    0  501 -0.00000000000E+00  0.00000000000E+00  0.12450618989E+03  0.12450618989E+03  0.00000000000E+00 0.  1.
         21   -1    0    0  503  502  0.00000000000E+00 -0.00000000000E+00 -0.42323954972E+03  0.42323954972E+03  0.00000000000E+00 0.  1.
         21    1    1    2  503  501 -0.14858618858E+03  0.77730064703E+01 -0.35792164237E+03  0.38761601765E+03  0.00000000000E+00 0.  1.
         -2    1    1    2    0  502  0.14858618858E+03 -0.77730064703E+01  0.59188282533E+02  0.16012972196E+03  0.00000000000E+00 0.  1.
<mgrwt>
<rscale>  2 0.14878936E+03</rscale>
<asrwt>0</asrwt>
<pdfrwt beam="2">  1       21 0.65113777E-01 0.14878936E+03</pdfrwt>
<pdfrwt beam="1">  1       -2 0.19154798E-01 0.14878936E+03</pdfrwt>
<totfact> 0.39470633E+03</totfact>
</mgrwt>
</event>
<event>
 4    1  0.5006371E+003  0.1125345E+03  0.7546771E-02  0.1255947E+00
          1   -1    0    0  503    0 -0.00000000000E+00  0.00000000000E+00  0.18509699228E+04  0.18509699228E+04  0.00000000000E+00 0. -1.
         21   -1    0    0  501  502  0.00000000000E+00 -0.00000000000E+00 -0.14399575977E+03  0.14399575977E+03  0.00000000000E+00 0. -1.
         21    1    1    2  503  502  0.97596786560E+02  0.56025640453E+02 -0.12001015656E+03  0.16451882206E+03  0.00000000000E+00 0. -1.
          1    1    1    2  501    0 -0.97596786560E+02 -0.56025640453E+02  0.18269843196E+04  0.18304468606E+04  0.00000000000E+00 0. -1.
<mgrwt>
<rscale>  2 0.11253446E+03</rscale>
<asrwt>0</asrwt>
<pdfrwt beam="2">  1       21 0.22153195E-01 0.11253446E+03</pdfrwt>
<pdfrwt beam="1">  1        1 0.28476459E+00 0.11253446E+03</pdfrwt>
<totfact> 0.97982758E+02</totfact>
</mgrwt>
</event>
<event>
 4    1  0.5006371E+003  0.1098151E+03  0.7546771E-02  0.1260913E+00
          3   -1    0    0  502    0 -0.00000000000E+00  0.00000000000E+00  0.17745792622E+02  0.17745792622E+02  0.00000000000E+00 0. -1.
         21   -1    0    0  503  502  0.00000000000E+00 -0.00000000000E+00 -0.21156579124E+04  0.21156579124E+04  0.00000000000E+00 0. -1.
         21    1    1    2  503  501 -0.96677694967E+02  0.52084251623E+02 -0.19278009309E+04  0.19309261444E+04  0.00000000000E+00 0. -1.
          3    1    1    2  501    0  0.96677694967E+02 -0.52084251623E+02 -0.17011118888E+03  0.20247756062E+03  0.00000000000E+00 0. -1.
<mgrwt>
<rscale>  2 0.10981505E+03</rscale>
<asrwt>0</asrwt>
<pdfrwt beam="2">  1       21 0.32548568E+00 0.10981505E+03</pdfrwt>
<pdfrwt beam="1">  1        3 0.27301232E-02 0.10981505E+03</pdfrwt>
<totfact> 0.75669804E+02</totfact>
</mgrwt>
</event>
<event>
 4    1  0.5006371E+003  0.1030153E+03  0.7546771E-02  0.1274080E+00
         21   -1    0    0  501  502  0.00000000000E+00  0.00000000000E+00  0.16733234951E+03  0.16733234951E+03  0.00000000000E+00 0.  1.
          4   -1    0    0  503    0 -0.00000000000E+00 -0.00000000000E+00 -0.81764367805E+02  0.81764367805E+02  0.00000000000E+00 0.  1.
         21    1    1    2  503  502 -0.62817868287E+02  0.81645956918E+02  0.10177860249E+03  0.14481377967E+03  0.00000000000E+00 0.  1.
          4    1    1    2  501    0  0.62817868287E+02 -0.81645956918E+02 -0.16210620787E+02  0.10428293764E+03  0.00000000000E+00 0.  1.
<mgrwt>
<rscale>  2 0.10301527E+03</rscale>
<asrwt>0</asrwt>
<pdfrwt beam="1">  1       21 0.25743438E-01 0.10301527E+03</pdfrwt>
<pdfrwt beam="2">  1        4 0.12579134E-01 0.10301527E+03</pdfrwt>
<totfact> 0.28986932E+04</totfact>
</mgrwt>
</event>
<event>
 4    1  0.5006371E+003  0.1127545E+03  0.7546771E-02  0.1255552E+00
         21   -1    0    0  503  502  0.00000000000E+00  0.00000000000E+00  0.16784256015E+04  0.16784256015E+04  0.00000000000E+00 0.  1.
         -2   -1    0    0    0  501 -0.00000000000E+00 -0.00000000000E+00 -0.81390506944E+02  0.81390506944E+02  0.00000000000E+00 0.  1.
         21    1    1    2  503  501  0.21222224515E+02  0.11073927395E+03  0.16364810502E+04  0.16403608741E+04  0.00000000000E+00 0.  1.
         -2    1    1    2    0  502 -0.21222224515E+02 -0.11073927395E+03 -0.39445955609E+02  0.11945523438E+03  0.00000000000E+00 0.  1.
<mgrwt>
<rscale>  2 0.11275447E+03</rscale>
<asrwt>0</asrwt>
<pdfrwt beam="1">  1       21 0.25821930E+00 0.11275447E+03</pdfrwt>
<pdfrwt beam="2">  1       -2 0.12521618E-01 0.11275447E+03</pdfrwt>
<totfact> 0.23661412E+02</totfact>
</mgrwt>
</event>
<event>
 4    1  0.5006371E+003  0.1449985E+03  0.7546771E-02  0.1206757E+00
         21   -1    0    0  501  502  0.00000000000E+00  0.00000000000E+00  0.13138912757E+03  0.13138912757E+03  0.00000000000E+00 0. -1.
          1   -1    0    0  503    0 -0.00000000000E+00 -0.00000000000E+00 -0.77955800165E+03  0.77955800165E+03  0.00000000000E+00 0.  1.
         21    1    1    2  503  502  0.80247208057E+02 -0.12076814869E+03  0.81960228681E+02  0.16655941650E+03  0.00000000000E+00 0. -1.
          1    1    1    2  501    0 -0.80247208057E+02  0.12076814869E+03 -0.73012910276E+03  0.74438771271E+03  0.00000000000E+00 0.  1.
<mgrwt>
<rscale>  2 0.14499848E+03</rscale>
<asrwt>0</asrwt>
<pdfrwt beam="1">  1       21 0.20213712E-01 0.14499848E+03</pdfrwt>
<pdfrwt beam="2">  1        1 0.11993200E+00 0.14499848E+03</pdfrwt>
<totfact> 0.61608659E+03</totfact>
</mgrwt>
</event>
<event>
 4    1  0.5006371E+003  0.1219812E+03  0.7546771E-02  0.1239864E+00
          2   -1    0    0  503    0 -0.00000000000E+00  0.00000000000E+00  0.19558185707E+03  0.19558185707E+03  0.00000000000E+00 0. -1.
         21   -1    0    0  501  502  0.00000000000E+00 -0.00000000000E+00 -0.12397328189E+03  0.12397328189E+03  0.00000000000E+00 0. -1.
         21    1    1    2  503  502 -0.59822245137E+02 -0.10630481177E+03 -0.63507220529E+02  0.13752302017E+03  0.00000000000E+00 0. -1.
          2    1    1    2  501    0  0.59822245137E+02  0.10630481177E+03  0.13511579571E+03  0.18203211878E+03  0.00000000000E+00 0. -1.
<mgrwt>
<rscale>  2 0.12198120E+03</rscale>
<asrwt>0</asrwt>
<pdfrwt beam="2">  1       21 0.19072813E-01 0.12198120E+03</pdfrwt>
<pdfrwt beam="1">  1        2 0.30089516E-01 0.12198120E+03</pdfrwt>
<totfact> 0.53974170E+04</totfact>
</mgrwt>
</event>
<event>
 4    1  0.5006371E+003  0.1220342E+03  0.7546771E-02  0.1239778E+00
          2   -1    0    0  503    0 -0.00000000000E+00  0.00000000000E+00  0.18598086663E+04  0.18598086663E+04  0.00000000000E+00 0.  1.
         21   -1    0    0  501  502  0.00000000000E+00 -0.00000000000E+00 -0.25316280636E+02  0.25316280636E+02  0.00000000000E+00 0.  1.
         21    1    1    2  503  502  0.11316625093E+03  0.45669947597E+02  0.13787575839E+03  0.18412514552E+03  0.00000000000E+00 0.  1.
          2    1    1    2  501    0 -0.11316625093E+03 -0.45669947597E+02  0.16966166272E+04  0.17009998014E+04  0.00000000000E+00 0.  1.
<mgrwt>
<rscale>  2 0.12203419E+03</rscale>
<asrwt>0</asrwt>
<pdfrwt beam="2">  1       21 0.38948139E-02 0.12203419E+03</pdfrwt>
<pdfrwt beam="1">  1        2 0.28612430E+00 0.12203419E+03</pdfrwt>
<totfact> 0.47430940E+04</totfact>
</mgrwt>
</event>
<event>
 4    1  0.5006371E+003  0.1224746E+03  0.7546771E-02  0.1239070E+00
         -3   -1    0    0    0  501 -0.00000000000E+00  0.00000000000E+00  0.12146804545E+02  0.12146804545E+02  0.00000000000E+00 0.  1.
         21   -1    0    0  503  502  0.00000000000E+00 -0.00000000000E+00 -0.13005345007E+04  0.13005345007E+04  0.00000000000E+00 0.  1.
         21    1    1    2  503  501  0.15366251607E+02  0.12150676773E+03 -0.79164706207E+03  0.80106497063E+03  0.00000000000E+00 0.  1.
         -3    1    1    2    0  502 -0.15366251607E+02 -0.12150676773E+03 -0.49674063411E+03  0.51161633464E+03  0.00000000000E+00 0.  1.
<mgrwt>
<rscale>  2 0.12247455E+03</rscale>
<asrwt>0</asrwt>
<pdfrwt beam="2">  1       21 0.20008217E+00 0.12247455E+03</pdfrwt>
<pdfrwt beam="1">  1       -3 0.18687398E-02 0.12247455E+03</pdfrwt>
<totfact> 0.70182421E+03</totfact>
</mgrwt>
</event>
<event>
 4    1  0.5006371E+003  0.1363800E+03  0.7546771E-02  0.1218285E+00
         -1   -1    0    0    0  501 -0.00000000000E+00  0.00000000000E+00  0.12540134217E+04  0.12540134217E+04  0.00000000000E+00 0.  1.
         21   -1    0    0  503  502  0.00000000000E+00 -0.00000000000E+00 -0.25508772372E+02  0.25508772372E+02  0.00000000000E+00 0. -1.
         21    1    1    2  503  501  0.13631210580E+03  0.43032568335E+01  0.20035430708E+03  0.24236616218E+03  0.00000000000E+00 0. -1.
         -1    1    1    2    0  502 -0.13631210580E+03 -0.43032568335E+01  0.10281503423E+04  0.10371560319E+04  0.00000000000E+00 0.  1.
<mgrwt>
<rscale>  2 0.13638001E+03</rscale>
<asrwt>0</asrwt>
<pdfrwt beam="2">  1       21 0.39244275E-02 0.13638001E+03</pdfrwt>
<pdfrwt beam="1">  1       -1 0.19292509E+00 0.13638001E+03</pdfrwt>
<totfact> 0.72343500E+03</totfact>
</mgrwt>
</event>
<event>
 4    1  0.5006371E+003  0.1117779E+03  0.7546771E-02  0.1257312E+00
         -3   -1    0    0    0  501 -0.00000000000E+00  0.00000000000E+00  0.49282953021E+03  0.49282953021E+03  0.00000000000E+00 0.  1.
         21   -1    0    0  503  502  0.00000000000E+00 -0.00000000000E+00 -0.27336723269E+02  0.27336723269E+02  0.00000000000E+00 0.  1.
         21    1    1    2  503  501  0.10126891786E+03  0.47317081374E+02  0.16267030545E+03  0.19737256190E+03  0.00000000000E+00 0.  1.
         -3    1    1    2    0  502 -0.10126891786E+03 -0.47317081374E+02  0.30282250149E+03  0.32279369158E+03  0.00000000000E+00 0.  1.
<mgrwt>
<rscale>  2 0.11177790E+03</rscale>
<asrwt>0</asrwt>
<pdfrwt beam="2">  1       21 0.42056501E-02 0.11177790E+03</pdfrwt>
<pdfrwt beam="1">  1       -3 0.75819921E-01 0.11177790E+03</pdfrwt>
<totfact> 0.28508698E+04</totfact>
</mgrwt>
</event>
<event>
 4    1  0.5006371E+003  0.1016887E+03  0.7546771E-02  0.1276784E+00
          2   -1    0    0  502    0 -0.00000000000E+00  0.00000000000E+00  0.22161844085E+04  0.22161844085E+04  0.00000000000E+00 0. -1.
         21   -1    0    0  503  502  0.00000000000E+00 -0.00000000000E+00 -0.47881770426E+01  0.47881770426E+01  0.00000000000E+00 0.  1.
         21    1    1    2  503  501 -0.10074331016E+03  0.13833628679E+02  0.92826722126E+03  0.93382044200E+03  0.00000000000E+00 0.  1.
          2    1    1    2  501    0  0.10074331016E+03 -0.13833628679E+02  0.12831290102E+04  0.12871521436E+04  0.00000000000E+00 0. -1.
<mgrwt>
<rscale>  2 0.10168866E+03</rscale>
<asrwt>0</asrwt>
<pdfrwt beam="2">  1       21 0.73664439E-03 0.10168866E+03</pdfrwt>
<pdfrwt beam="1">  1        2 0.34095063E+00 0.10168866E+03</pdfrwt>
<totfact> 0.44936364E+05</totfact>
</mgrwt>
</event>
<event>
 4    1  0.5006371E+003  0.1091654E+03  0.7546771E-02  0.1262123E+00
          2   -1    0    0  503    0 -0.00000000000E+00  0.00000000000E+00  0.20469550356E+04  0.20469550356E+04  0.00000000000E+00 0.  1.
         21   -1    0    0  501  502  0.00000000000E+00 -0.00000000000E+00 -0.79956245361E+01  0.79956245361E+01  0.00000000000E+00 0.  1.
         21    1    1    2  503  502  0.44823985493E+02 -0.99538432076E+02  0.48374314357E+03  0.49590777176E+03  0.00000000000E+00 0.  1.
          2    1    1    2  501    0 -0.44823985493E+02  0.99538432076E+02  0.15552162675E+04  0.15590428884E+04  0.00000000000E+00 0.  1.
<mgrwt>
<rscale>  2 0.10916542E+03</rscale>
<asrwt>0</asrwt>
<pdfrwt beam="2">  1       21 0.12300977E-02 0.10916542E+03</pdfrwt>
<pdfrwt beam="1">  1        2 0.31491574E+00 0.10916542E+03</pdfrwt>
<totfact> 0.24574384E+05</totfact>
</mgrwt>
</event>
<event>
 4    1  0.5006371E+003  0.1109836E+03  0.7546771E-02  0.1258759E+00
          2   -1    0    0  503    0 -0.00000000000E+00  0.00000000000E+00  0.29713025409E+04  0.29713025409E+04  0.00000000000E+00 0. -1.
         21   -1    0    0  501  502  0.00000000000E+00 -0.00000000000E+00 -0.24215811862E+03  0.24215811862E+03  0.00000000000E+00 0. -1.
         21    1    1    2  503  502  0.10911652003E+03 -0.20271571927E+02 -0.22834616492E+03  0.25388840581E+03  0.00000000000E+00 0. -1.
          2    1    1    2  501    0 -0.10911652003E+03  0.20271571927E+02  0.29574905872E+04  0.29595722537E+04  0.00000000000E+00 0. -1.
<mgrwt>
<rscale>  2 0.11098356E+03</rscale>
<asrwt>0</asrwt>
<pdfrwt beam="2">  1       21 0.37255097E-01 0.11098356E+03</pdfrwt>
<pdfrwt beam="1">  1        2 0.45712344E+00 0.11098356E+03</pdfrwt>
<totfact> 0.22038410E+02</totfact>
</mgrwt>
</event>
<event>
 4    1  0.5006371E+003  0.1040667E+03  0.7546771E-02  0.1271969E+00
         21   -1    0    0  501  502  0.00000000000E+00  0.00000000000E+00  0.16031608855E+02  0.16031608855E+02  0.00000000000E+00 0.  1.
          2   -1    0    0  503    0 -0.00000000000E+00 -0.00000000000E+00 -0.97716928106E+03  0.97716928106E+03  0.00000000000E+00 0. -1.
         21    1    1    2  503  502 -0.10212824212E+03  0.19992403499E+02 -0.20466083482E+03  0.22959950206E+03  0.00000000000E+00 0.  1.
          2    1    1    2  501    0  0.10212824212E+03 -0.19992403499E+02 -0.75647683738E+03  0.76360138785E+03  0.00000000000E+00 0. -1.
<mgrwt>
<rscale>  2 0.10406668E+03</rscale>
<asrwt>0</asrwt>
<pdfrwt beam="1">  1       21 0.24664010E-02 0.10406668E+03</pdfrwt>
<pdfrwt beam="2">  1        2 0.15033375E+00 0.10406668E+03</pdfrwt>
<totfact> 0.29510691E+05</totfact>
</mgrwt>
</event>
<event>
 4    1  0.5006371E+003  0.1488174E+03  0.7546771E-02  0.1201934E+00
         21   -1    0    0  503  502  0.00000000000E+00  0.00000000000E+00  0.40088059887E+03  0.40088059887E+03  0.00000000000E+00 0. -1.
          1   -1    0    0  502    0 -0.00000000000E+00 -0.00000000000E+00 -0.16871329406E+03  0.16871329406E+03  0.00000000000E+00 0.  1.
         21    1    1    2  503  501  0.13262719585E+03  0.67502990283E+02  0.34964342484E+03  0.37999625171E+03  0.00000000000E+00 0. -1.
          1    1    1    2  501    0 -0.13262719585E+03 -0.67502990283E+02 -0.11747612003E+03  0.18959764122E+03  0.00000000000E+00 0.  1.
<mgrwt>
<rscale>  2 0.14881743E+03</rscale>
<asrwt>0</asrwt>
<pdfrwt beam="1">  1       21 0.61673938E-01 0.14881743E+03</pdfrwt>
<pdfrwt beam="2">  1        1 0.25955891E-01 0.14881743E+03</pdfrwt>
<totfact> 0.48761690E+03</totfact>
</mgrwt>
</event>
<event>
 4    1  0.5006371E+003  0.1053761E+03  0.7546771E-02  0.1269380E+00
         -3   -1    0    0    0  501 -0.00000000000E+00  0.00000000000E+00  0.26696102138E+03  0.26696102138E+03  0.00000000000E+00 0. -1.
         21   -1    0    0  501  502  0.00000000000E+00 -0.00000000000E+00 -0.94968034698E+02  0.94968034698E+02  0.00000000000E+00 0.  1.
         21    1    1    2  503  502  0.26479486862E+02 -0.10199491853E+03 -0.49668394913E+02  0.11649496162E+03  0.00000000000E+00 0.  1.
         -3    1    1    2    0  503 -0.26479486862E+02  0.10199491853E+03  0.22166138159E+03  0.24543409445E+03  0.00000000000E+00 0. -1.
<mgrwt>
<rscale>  2 0.10537612E+03</rscale>
<asrwt>0</asrwt>
<pdfrwt beam="2">  1       21 0.14610467E-01 0.10537612E+03</pdfrwt>
<pdfrwt beam="1">  1       -3 0.41070926E-01 0.10537612E+03</pdfrwt>
<totfact> 0.11565498E+04</totfact>
</mgrwt>
</event>
<event>
 4    1  0.5006371E+003  0.1399236E+03  0.7546771E-02  0.1213432E+00
          2   -1    0    0  502    0 -0.00000000000E+00  0.00000000000E+00  0.21385313521E+04  0.21385313521E+04  0.00000000000E+00 0. -1.
         21   -1    0    0  503  502  0.00000000000E+00 -0.00000000000E+00 -0.11239086672E+02  0.11239086672E+02  0.00000000000E+00 0. -1.
         21    1    1    2  503  501 -0.11747874005E+03  0.76008938733E+02  0.60079961945E+03  0.61687826665E+03  0.00000000000E+00 0. -1.
          2    1    1    2  501    0  0.11747874005E+03 -0.76008938733E+02  0.15264926460E+04  0.15328921721E+04  0.00000000000E+00 0. -1.
<mgrwt>
<rscale>  2 0.13992360E+03</rscale>
<asrwt>0</asrwt>
<pdfrwt beam="2">  1       21 0.17290920E-02 0.13992360E+03</pdfrwt>
<pdfrwt beam="1">  1        2 0.32900450E+00 0.13992360E+03</pdfrwt>
<totfact> 0.12808844E+05</totfact>
</mgrwt>
</event>
<event>
 4    1  0.5006371E+003  0.1164698E+03  0.7546771E-02  0.1249037E+00
         21   -1    0    0  501  502  0.00000000000E+00  0.00000000000E+00  0.17020043317E+02  0.17020043317E+02  0.00000000000E+00 0. -1.
          2   -1    0    0  503    0 -0.00000000000E+00 -0.00000000000E+00 -0.33494605057E+04  0.33494605057E+04  0.00000000000E+00 0. -1.
         21    1    1    2  503  502 -0.21182669764E+02  0.11452732648E+03 -0.19683049599E+03  0.22870823807E+03  0.00000000000E+00 0. -1.
          2    1    1    2  501    0  0.21182669764E+02 -0.11452732648E+03 -0.31356099664E+04  0.31377723110E+04  0.00000000000E+00 0. -1.
<mgrwt>
<rscale>  2 0.11646980E+03</rscale>
<asrwt>0</asrwt>
<pdfrwt beam="1">  1       21 0.26184704E-02 0.11646980E+03</pdfrwt>
<pdfrwt beam="2">  1        2 0.51530118E+00 0.11646980E+03</pdfrwt>
<totfact> 0.13986528E+04</totfact>
</mgrwt>
</event>
<event>
 4    1  0.5006371E+003  0.2305611E+03  0.7546771E-02  0.1126245E+00
          2   -1    0    0  503    0 -0.00000000000E+00  0.00000000000E+00  0.12574771870E+04  0.12574771870E+04  0.00000000000E+00 0.  1.
         21   -1    0    0  501  502  0.00000000000E+00 -0.00000000000E+00 -0.12336763363E+03  0.12336763363E+03  0.00000000000E+00 0.  1.
         21    1    1    2  503  502  0.16434366614E+03 -0.16170830054E+03  0.72868426394E+01  0.23067620844E+03  0.00000000000E+00 0.  1.
          2    1    1    2  501    0 -0.16434366614E+03  0.16170830054E+03  0.11268227108E+04  0.11501686122E+04  0.00000000000E+00 0.  1.
<mgrwt>
<rscale>  2 0.23056109E+03</rscale>
<asrwt>0</asrwt>
<pdfrwt beam="2">  1       21 0.18979637E-01 0.23056109E+03</pdfrwt>
<pdfrwt beam="1">  1        2 0.19345802E+00 0.23056109E+03</pdfrwt>
<totfact> 0.59496609E+03</totfact>
</mgrwt>
</event>
<event>
 4    1  0.5006371E+003  0.1046761E+03  0.7546771E-02  0.1270759E+00
         -2   -1    0    0    0  501 -0.00000000000E+00  0.00000000000E+00  0.21053284060E+03  0.21053284060E+03  0.00000000000E+00 0. -1.
         21   -1    0    0  503  502  0.00000000000E+00 -0.00000000000E+00 -0.13226237711E+03  0.13226237711E+03  0.00000000000E+00 0.  1.
         21    1    1    2  503  501 -0.53889904781E+02 -0.89738291506E+02 -0.94346581393E+02  0.14091969422E+03  0.00000000000E+00 0.  1.
         -2    1    1    2    0  502  0.53889904781E+02  0.89738291506E+02  0.17261704488E+03  0.20187552348E+03  0.00000000000E+00 0. -1.
<mgrwt>
<rscale>  2 0.10467609E+03</rscale>
<asrwt>0</asrwt>
<pdfrwt beam="2">  1       21 0.20348058E-01 0.10467609E+03</pdfrwt>
<pdfrwt beam="1">  1       -2 0.32389668E-01 0.10467609E+03</pdfrwt>
<totfact> 0.15878350E+04</totfact>
</mgrwt>
</event>
<event>
 4    1  0.5006371E+003  0.1683187E+03  0.7546771E-02  0.1179613E+00
          2   -1    0    0  502    0 -0.00000000000E+00  0.00000000000E+00  0.29140519856E+03  0.29140519856E+03  0.00000000000E+00 0.  1.
         21   -1    0    0  503  502  0.00000000000E+00 -0.00000000000E+00 -0.10737641613E+03  0.10737641613E+03  0.00000000000E+00 0. -1.
         21    1    1    2  503  501  0.69700050834E+02 -0.15320933823E+03  0.30699873055E+02  0.17109553067E+03  0.00000000000E+00 0. -1.
          2    1    1    2  501    0 -0.69700050834E+02  0.15320933823E+03  0.15332890937E+03  0.22768608402E+03  0.00000000000E+00 0.  1.
<mgrwt>
<rscale>  2 0.16831874E+03</rscale>
<asrwt>0</asrwt>
<pdfrwt beam="2">  1       21 0.16519449E-01 0.16831874E+03</pdfrwt>
<pdfrwt beam="1">  1        2 0.44831569E-01 0.16831874E+03</pdfrwt>
<totfact> 0.46012018E+04</totfact>
</mgrwt>
</event>
<event>
 4    1  0.5006371E+003  0.1079956E+03  0.7546771E-02  0.1264327E+00
          1   -1    0    0  502    0 -0.00000000000E+00  0.00000000000E+00  0.29553677962E+03  0.29553677962E+03  0.00000000000E+00 0.  1.
         21   -1    0    0  503  502  0.00000000000E+00 -0.00000000000E+00 -0.52901167376E+03  0.52901167376E+03  0.00000000000E+00 0. -1.
         21    1    1    2  503  501  0.14070971508E+01  0.10798646751E+03 -0.51333594319E+03  0.52457301461E+03  0.00000000000E+00 0. -1.
          1    1    1    2  501    0 -0.14070971508E+01 -0.10798646751E+03  0.27986104905E+03  0.29997543876E+03  0.00000000000E+00 0.  1.
<mgrwt>
<rscale>  2 0.10799563E+03</rscale>
<asrwt>0</asrwt>
<pdfrwt beam="2">  1       21 0.81386410E-01 0.10799563E+03</pdfrwt>
<pdfrwt beam="1">  1        1 0.45467198E-01 0.10799563E+03</pdfrwt>
<totfact> 0.13562338E+03</totfact>
</mgrwt>
</event>
<event>
 4    1  0.5006371E+003  0.1136223E+03  0.7546771E-02  0.1254005E+00
         21   -1    0    0  501  502  0.00000000000E+00  0.00000000000E+00  0.95771802714E+02  0.95771802714E+02  0.00000000000E+00 0.  1.
          2   -1    0    0  503    0 -0.00000000000E+00 -0.00000000000E+00 -0.31980339804E+03  0.31980339804E+03  0.00000000000E+00 0. -1.
         21    1    1    2  503  502  0.83146236197E+02 -0.77438532064E+02  0.46024610072E+02  0.12258991628E+03  0.00000000000E+00 0.  1.
          2    1    1    2  501    0 -0.83146236197E+02  0.77438532064E+02 -0.27005620539E+03  0.29298528447E+03  0.00000000000E+00 0. -1.
<mgrwt>
<rscale>  2 0.11362228E+03</rscale>
<asrwt>0</asrwt>
<pdfrwt beam="1">  1       21 0.14734124E-01 0.11362228E+03</pdfrwt>
<pdfrwt beam="2">  1        2 0.49200522E-01 0.11362228E+03</pdfrwt>
<totfact> 0.51085041E+04</totfact>
</mgrwt>
</event>
<event>
 4    1  0.5006371E+003  0.1213105E+03  0.7546771E-02  0.1240951E+00
          2   -1    0    0  503    0 -0.00000000000E+00  0.00000000000E+00  0.99581768980E+02  0.99581768980E+02  0.00000000000E+00 0.  1.
         21   -1    0    0  501  502  0.00000000000E+00 -0.00000000000E+00 -0.29017103028E+03  0.29017103028E+03  0.00000000000E+00 0. -1.
         21    1    1    2  503  502  0.81745376369E+02 -0.89632177863E+02 -0.23180728917E+03  0.26163113955E+03  0.00000000000E+00 0. -1.
          2    1    1    2  501    0 -0.81745376369E+02  0.89632177863E+02  0.41218027873E+02  0.12812165971E+03  0.00000000000E+00 0.  1.
<mgrwt>
<rscale>  2 0.12131049E+03</rscale>
<asrwt>0</asrwt>
<pdfrwt beam="2">  1       21 0.44641696E-01 0.12131049E+03</pdfrwt>
<pdfrwt beam="1">  1        2 0.15320272E-01 0.12131049E+03</pdfrwt>
<totfact> 0.22377898E+04</totfact>
</mgrwt>
</event>
<event>
 4    1  0.5006371E+003  0.1177701E+03  0.7546771E-02  0.1246822E+00
         21   -1    0    0  503  502  0.00000000000E+00  0.00000000000E+00  0.12714915404E+03  0.12714915404E+03  0.00000000000E+00 0. -1.
         -1   -1    0    0    0  501 -0.00000000000E+00 -0.00000000000E+00 -0.12206672342E+03  0.12206672342E+03  0.00000000000E+00 0. -1.
         21    1    1    2  503  501 -0.10480347895E+03  0.53721781561E+02  0.43180709606E+02  0.12543672786E+03  0.00000000000E+00 0. -1.
         -1    1    1    2    0  502  0.10480347895E+03 -0.53721781561E+02 -0.38098278984E+02  0.12377914960E+03  0.00000000000E+00 0. -1.
<mgrwt>
<rscale>  2 0.11777011E+03</rscale>
<asrwt>0</asrwt>
<pdfrwt beam="1">  1       21 0.19561408E-01 0.11777011E+03</pdfrwt>
<pdfrwt beam="2">  1       -1 0.18779496E-01 0.11777011E+03</pdfrwt>
<totfact> 0.48040032E+04</totfact>
</mgrwt>
</event>
<event>
 4    1  0.5006371E+003  0.1226854E+03  0.7546771E-02  0.1238732E+00
          1   -1    0    0  503    0 -0.00000000000E+00  0.00000000000E+00  0.12836261338E+04  0.12836261338E+04  0.00000000000E+00 0.  1.
         21   -1    0    0  501  502  0.00000000000E+00 -0.00000000000E+00 -0.14848118922E+02  0.14848118922E+02  0.00000000000E+00 0. -1.
         21    1    1    2  503  502  0.12266811256E+03 -0.20578086044E+01  0.33667604306E+03  0.35833288767E+03  0.00000000000E+00 0. -1.
          1    1    1    2  501    0 -0.12266811256E+03  0.20578086044E+01  0.93210197180E+03  0.94014136503E+03  0.00000000000E+00 0.  1.
<mgrwt>
<rscale>  2 0.12268537E+03</rscale>
<asrwt>0</asrwt>
<pdfrwt beam="2">  1       21 0.22843270E-02 0.12268537E+03</pdfrwt>
<pdfrwt beam="1">  1        1 0.19748086E+00 0.12268537E+03</pdfrwt>
<totfact> 0.11214233E+05</totfact>
</mgrwt>
</event>
<event>
 4    1  0.5006371E+003  0.1340377E+03  0.7546771E-02  0.1221585E+00
         21   -1    0    0  503  502  0.00000000000E+00  0.00000000000E+00  0.69993262685E+03  0.69993262685E+03  0.00000000000E+00 0.  1.
         -1   -1    0    0    0  501 -0.00000000000E+00 -0.00000000000E+00 -0.45394892886E+02  0.45394892886E+02  0.00000000000E+00 0.  1.
         21    1    1    2  503  501  0.42512695440E+02 -0.12711717447E+03  0.57293162107E+03  0.58840185906E+03  0.00000000000E+00 0.  1.
         -1    1    1    2    0  502 -0.42512695440E+02  0.12711717447E+03  0.81606112896E+02  0.15692566068E+03  0.00000000000E+00 0.  1.
<mgrwt>
<rscale>  2 0.13403770E+03</rscale>
<asrwt>0</asrwt>
<pdfrwt beam="1">  1       21 0.10768193E+00 0.13403770E+03</pdfrwt>
<pdfrwt beam="2">  1       -1 0.69838302E-02 0.13403770E+03</pdfrwt>
<totfact> 0.65562973E+03</totfact>
</mgrwt>
</event>
<event>
 4    1  0.5006371E+003  0.1229560E+03  0.7546771E-02  0.1238299E+00
         -2   -1    0    0    0  501 -0.00000000000E+00  0.00000000000E+00  0.63547616242E+03  0.63547616242E+03  0.00000000000E+00 0. -1.
         21   -1    0    0  503  502  0.00000000000E+00 -0.00000000000E+00 -0.28124616521E+03  0.28124616521E+03  0.00000000000E+00 0. -1.
         21    1    1    2  503  501 -0.83657423764E+01  0.12267103007E+03 -0.26143176006E+03  0.28890263487E+03  0.00000000000E+00 0. -1.
         -2    1    1    2    0  502  0.83657423764E+01 -0.12267103007E+03  0.61566175727E+03  0.62781969277E+03  0.00000000000E+00 0. -1.
<mgrwt>
<rscale>  2 0.12295596E+03</rscale>
<asrwt>0</asrwt>
<pdfrwt beam="2">  1       21 0.43268641E-01 0.12295596E+03</pdfrwt>
<pdfrwt beam="1">  1       -2 0.97765564E-01 0.12295596E+03</pdfrwt>
<totfact> 0.39404109E+02</totfact>
</mgrwt>
</event>
<event>
 4    1  0.5006371E+003  0.1401770E+03  0.7546771E-02  0.1213091E+00
         21   -1    0    0  503  502  0.00000000000E+00  0.00000000000E+00  0.43661571716E+02  0.43661571716E+02  0.00000000000E+00 0.  1.
          2   -1    0    0  502    0 -0.00000000000E+00 -0.00000000000E+00 -0.10401972064E+04  0.10401972064E+04  0.00000000000E+00 0. -1.
         21    1    1    2  503  501 -0.18952275874E+02 -0.13888989911E+03 -0.90072942864E+02  0.16662151083E+03  0.00000000000E+00 0.  1.
          2    1    1    2  501    0  0.18952275874E+02  0.13888989911E+03 -0.90646269180E+03  0.91723726727E+03  0.00000000000E+00 0. -1.
<mgrwt>
<rscale>  2 0.14017701E+03</rscale>
<asrwt>0</asrwt>
<pdfrwt beam="1">  1       21 0.67171652E-02 0.14017701E+03</pdfrwt>
<pdfrwt beam="2">  1        2 0.16003033E+00 0.14017701E+03</pdfrwt>
<totfact> 0.51533611E+04</totfact>
</mgrwt>
</event>
<event>
 4    1  0.5006371E+003  0.1033524E+03  0.7546771E-02  0.1273400E+00
         -4   -1    0    0    0  501 -0.00000000000E+00  0.00000000000E+00  0.18118424224E+04  0.18118424224E+04  0.00000000000E+00 0. -1.
         21   -1    0    0  503  502  0.00000000000E+00 -0.00000000000E+00 -0.80126186824E+02  0.80126186824E+02  0.00000000000E+00 0. -1.
         21    1    1    2  503  501  0.98599542367E+02 -0.30981292311E+02 -0.44659688880E+02  0.11258862305E+03  0.00000000000E+00 0. -1.
         -4    1    1    2    0  502 -0.98599542367E+02  0.30981292311E+02  0.17763759245E+04  0.17793799862E+04  0.00000000000E+00 0. -1.
<mgrwt>
<rscale>  2 0.10335236E+03</rscale>
<asrwt>0</asrwt>
<pdfrwt beam="2">  1       21 0.12327107E-01 0.10335236E+03</pdfrwt>
<pdfrwt beam="1">  1       -4 0.27874496E+00 0.10335236E+03</pdfrwt>
<totfact> 0.11973245E+02</totfact>
</mgrwt>
</event>
<event>
 4    1  0.5006371E+003  0.1009104E+03  0.7546771E-02  0.1278393E+00
         21   -1    0    0  501  502  0.00000000000E+00  0.00000000000E+00  0.63167774529E+02  0.63167774529E+02  0.00000000000E+00 0. -1.
          2   -1    0    0  503    0 -0.00000000000E+00 -0.00000000000E+00 -0.22393157390E+03  0.22393157390E+03  0.00000000000E+00 0.  1.
         21    1    1    2  503  502 -0.10046016768E+03 -0.95213665970E+01 -0.44063969043E+01  0.10100652477E+03  0.00000000000E+00 0. -1.
          2    1    1    2  501    0  0.10046016768E+03  0.95213665970E+01 -0.15635740247E+03  0.18609282366E+03  0.00000000000E+00 0.  1.
<mgrwt>
<rscale>  2 0.10091036E+03</rscale>
<asrwt>0</asrwt>
<pdfrwt beam="1">  1       21 0.97181190E-02 0.10091036E+03</pdfrwt>
<pdfrwt beam="2">  1        2 0.34451012E-01 0.10091036E+03</pdfrwt>
<totfact> 0.15434355E+05</totfact>
</mgrwt>
</event>
<event>
 4    1  0.5006371E+003  0.1741070E+03  0.7546771E-02  0.1173631E+00
          3   -1    0    0  503    0 -0.00000000000E+00  0.00000000000E+00  0.97047834386E+02  0.97047834386E+02  0.00000000000E+00 0.  1.
         21   -1    0    0  501  502  0.00000000000E+00 -0.00000000000E+00 -0.47298359626E+03  0.47298359626E+03  0.00000000000E+00 0. -1.
         21    1    1    2  503  502  0.12375554547E+02 -0.17366661179E+03 -0.35406381798E+03  0.39455599553E+03  0.00000000000E+00 0. -1.
          3    1    1    2  501    0 -0.12375554547E+02  0.17366661179E+03 -0.21871943892E+02  0.17547543512E+03  0.00000000000E+00 0.  1.
<mgrwt>
<rscale>  2 0.17410700E+03</rscale>
<asrwt>0</asrwt>
<pdfrwt beam="2">  1       21 0.72766709E-01 0.17410700E+03</pdfrwt>
<pdfrwt beam="1">  1        3 0.14930436E-01 0.17410700E+03</pdfrwt>
<totfact> 0.31333638E+03</totfact>
</mgrwt>
</event>
<event>
 4    1  0.5006371E+003  0.2262293E+03  0.7546771E-02  0.1129322E+00
          2   -1    0    0  503    0 -0.00000000000E+00  0.00000000000E+00  0.22442581329E+04  0.22442581329E+04  0.00000000000E+00 0.  1.
         21   -1    0    0  501  502  0.00000000000E+00 -0.00000000000E+00 -0.29201052486E+02  0.29201052486E+02  0.00000000000E+00 0.  1.
         21    1    1    2  503  502 -0.69792414378E+02  0.21519456352E+03  0.57551414380E+03  0.61838192970E+03  0.00000000000E+00 0.  1.
          2    1    1    2  501    0  0.69792414378E+02 -0.21519456352E+03  0.16395429367E+04  0.16550772557E+04  0.00000000000E+00 0.  1.
<mgrwt>
<rscale>  2 0.22622927E+03</rscale>
<asrwt>0</asrwt>
<pdfrwt beam="2">  1       21 0.44924714E-02 0.22622927E+03</pdfrwt>
<pdfrwt beam="1">  1        2 0.34527035E+00 0.22622927E+03</pdfrwt>
<totfact> 0.22883640E+04</totfact>
</mgrwt>
</event>
<event>
 4    1  0.5006371E+003  0.1165836E+03  0.7546771E-02  0.1248842E+00
         21   -1    0    0  501  502  0.00000000000E+00  0.00000000000E+00  0.12452143460E+03  0.12452143460E+03  0.00000000000E+00 0.  1.
          2   -1    0    0  503    0 -0.00000000000E+00 -0.00000000000E+00 -0.60784134931E+03  0.60784134931E+03  0.00000000000E+00 0. -1.
         21    1    1    2  503  502 -0.48194147208E+02  0.10615578159E+03  0.90017785942E+02  0.14729198069E+03  0.00000000000E+00 0.  1.
          2    1    1    2  501    0  0.48194147208E+02 -0.10615578159E+03 -0.57333770065E+03  0.58507080322E+03  0.00000000000E+00 0. -1.
<mgrwt>
<rscale>  2 0.11658356E+03</rscale>
<asrwt>0</asrwt>
<pdfrwt beam="1">  1       21 0.19157143E-01 0.11658356E+03</pdfrwt>
<pdfrwt beam="2">  1        2 0.93514055E-01 0.11658356E+03</pdfrwt>
<totfact> 0.15858521E+04</totfact>
</mgrwt>
</event>
<event>
 4    1  0.5006371E+003  0.1320303E+03  0.7546771E-02  0.1224474E+00
         21   -1    0    0  501  502  0.00000000000E+00  0.00000000000E+00  0.21582455395E+02  0.21582455395E+02  0.00000000000E+00 0. -1.
          2   -1    0    0  503    0 -0.00000000000E+00 -0.00000000000E+00 -0.13726743399E+04  0.13726743399E+04  0.00000000000E+00 0. -1.
         21    1    1    2  503  502 -0.56959133246E+01  0.13190741027E+03 -0.22830053696E+03  0.26372929964E+03  0.00000000000E+00 0. -1.
          2    1    1    2  501    0  0.56959133246E+01 -0.13190741027E+03 -0.11227913475E+04  0.11305274956E+04  0.00000000000E+00 0. -1.
<mgrwt>
<rscale>  2 0.13203033E+03</rscale>
<asrwt>0</asrwt>
<pdfrwt beam="1">  1       21 0.33203770E-02 0.13203033E+03</pdfrwt>
<pdfrwt beam="2">  1        2 0.21118071E+00 0.13203033E+03</pdfrwt>
<totfact> 0.10993517E+05</totfact>
</mgrwt>
</event>
<event>
 4    1  0.5006371E+003  0.1807585E+03  0.7546771E-02  0.1167071E+00
          2   -1    0    0  503    0 -0.00000000000E+00  0.00000000000E+00  0.26408726119E+03  0.26408726119E+03  0.00000000000E+00 0. -1.
         21   -1    0    0  501  502  0.00000000000E+00 -0.00000000000E+00 -0.21883175010E+03  0.21883175010E+03  0.00000000000E+00 0.  1.
         21    1    1    2  503  502  0.17273235776E+03 -0.53265111088E+02 -0.13655632231E+03  0.22654197986E+03  0.00000000000E+00 0.  1.
          2    1    1    2  501    0 -0.17273235776E+03  0.53265111088E+02  0.18181183340E+03  0.25637703143E+03  0.00000000000E+00 0. -1.
<mgrwt>
<rscale>  2 0.18075851E+03</rscale>
<asrwt>0</asrwt>
<pdfrwt beam="2">  1       21 0.33666423E-01 0.18075851E+03</pdfrwt>
<pdfrwt beam="1">  1        2 0.40628809E-01 0.18075851E+03</pdfrwt>
<totfact> 0.13239806E+04</totfact>
</mgrwt>
</event>
<event>
 4    1  0.5006371E+003  0.1163562E+03  0.7546771E-02  0.1249232E+00
         21   -1    0    0  501  502  0.00000000000E+00  0.00000000000E+00  0.13210807382E+04  0.13210807382E+04  0.00000000000E+00 0.  1.
          2   -1    0    0  503    0 -0.00000000000E+00 -0.00000000000E+00 -0.25207254043E+02  0.25207254043E+02  0.00000000000E+00 0.  1.
         21    1    1    2  503  502 -0.10927529818E+03 -0.39970899526E+02  0.11664938243E+04  0.11722826475E+04  0.00000000000E+00 0.  1.
          2    1    1    2  501    0  0.10927529818E+03  0.39970899526E+02  0.12937965989E+03  0.17400534473E+03  0.00000000000E+00 0.  1.
<mgrwt>
<rscale>  2 0.11635619E+03</rscale>
<asrwt>0</asrwt>
<pdfrwt beam="1">  1       21 0.20324314E+00 0.11635619E+03</pdfrwt>
<pdfrwt beam="2">  1        2 0.38780401E-02 0.11635619E+03</pdfrwt>
<totfact> 0.35271750E+03</totfact>
</mgrwt>
</event>
<event>
 4    1  0.5006371E+003  0.1103228E+03  0.7546771E-02  0.1259973E+00
          2   -1    0    0  503    0 -0.00000000000E+00  0.00000000000E+00  0.18610419264E+04  0.18610419264E+04  0.00000000000E+00 0.  1.
         21   -1    0    0  501  502  0.00000000000E+00 -0.00000000000E+00 -0.10749977286E+02  0.10749977286E+02  0.00000000000E+00 0.  1.
         21    1    1    2  503  502  0.10513921519E+03 -0.33419549128E+02  0.33945806438E+03  0.35693542597E+03  0.00000000000E+00 0.  1.
          2    1    1    2  501    0 -0.10513921519E+03  0.33419549128E+02  0.15108338847E+04  0.15148564777E+04  0.00000000000E+00 0.  1.
<mgrwt>
<rscale>  2 0.11032280E+03</rscale>
<asrwt>0</asrwt>
<pdfrwt beam="2">  1       21 0.16538441E-02 0.11032280E+03</pdfrwt>
<pdfrwt beam="1">  1        2 0.28631389E+00 0.11032280E+03</pdfrwt>
<totfact> 0.19076872E+05</totfact>
</mgrwt>
</event>
<event>
 4    1  0.5006371E+003  0.1043236E+03  0.7546771E-02  0.1271458E+00
          1   -1    0    0  503    0 -0.00000000000E+00  0.00000000000E+00  0.47064896340E+02  0.47064896340E+02  0.00000000000E+00 0. -1.
         21   -1    0    0  501  502  0.00000000000E+00 -0.00000000000E+00 -0.23131630642E+03  0.23131630642E+03  0.00000000000E+00 0. -1.
         21    1    1    2  503  502 -0.26152069042E+02  0.10099249171E+03 -0.89642914419E+02  0.13754732350E+03  0.00000000000E+00 0. -1.
          1    1    1    2  501    0  0.26152069042E+02 -0.10099249171E+03 -0.94608495664E+02  0.14083387926E+03  0.00000000000E+00 0. -1.
<mgrwt>
<rscale>  2 0.10432360E+03</rscale>
<asrwt>0</asrwt>
<pdfrwt beam="2">  1       21 0.35587123E-01 0.10432360E+03</pdfrwt>
<pdfrwt beam="1">  1        1 0.72407535E-02 0.10432360E+03</pdfrwt>
<totfact> 0.78694165E+04</totfact>
</mgrwt>
</event>
<event>
 4    1  0.5006371E+003  0.1392982E+03  0.7546771E-02  0.1214276E+00
          2   -1    0    0  503    0 -0.00000000000E+00  0.00000000000E+00  0.40041292499E+04  0.40041292499E+04  0.00000000000E+00 0. -1.
         21   -1    0    0  501  502  0.00000000000E+00 -0.00000000000E+00 -0.53954562820E+03  0.53954562820E+03  0.00000000000E+00 0.  1.
         21    1    1    2  503  502 -0.69551774408E+02  0.12069190032E+03 -0.52932022670E+03  0.54734256779E+03  0.00000000000E+00 0.  1.
          2    1    1    2  501    0  0.69551774408E+02 -0.12069190032E+03  0.39939038484E+04  0.39963323103E+04  0.00000000000E+00 0. -1.
<mgrwt>
<rscale>  2 0.13929818E+03</rscale>
<asrwt>0</asrwt>
<pdfrwt beam="2">  1       21 0.83007022E-01 0.13929818E+03</pdfrwt>
<pdfrwt beam="1">  1        2 0.61601986E+00 0.13929818E+03</pdfrwt>
<totfact> 0.82778717E+00</totfact>
</mgrwt>
</event>
<event>
 4    1  0.5006371E+003  0.1142018E+03  0.7546771E-02  0.1252981E+00
         21   -1    0    0  501  502  0.00000000000E+00  0.00000000000E+00  0.64503224416E+01  0.64503224416E+01  0.00000000000E+00 0. -1.
          1   -1    0    0  503    0 -0.00000000000E+00 -0.00000000000E+00 -0.23291853521E+04  0.23291853521E+04  0.00000000000E+00 0. -1.
         21    1    1    2  503  502  0.26795183265E+02  0.11101382563E+03 -0.15855260300E+04  0.15896335563E+04  0.00000000000E+00 0. -1.
          1    1    1    2  501    0 -0.26795183265E+02 -0.11101382563E+03 -0.73720899957E+03  0.74600211821E+03  0.00000000000E+00 0. -1.
<mgrwt>
<rscale>  2 0.11420180E+03</rscale>
<asrwt>0</asrwt>
<pdfrwt beam="1">  1       21 0.99235606E-03 0.11420180E+03</pdfrwt>
<pdfrwt beam="2">  1        1 0.35833666E+00 0.11420180E+03</pdfrwt>
<totfact> 0.90852168E+04</totfact>
</mgrwt>
</event>
<event>
 4    1  0.5006371E+003  0.1032070E+03  0.7546771E-02  0.1273693E+00
          2   -1    0    0  502    0 -0.00000000000E+00  0.00000000000E+00  0.41383967724E+04  0.41383967724E+04  0.00000000000E+00 0. -1.
         21   -1    0    0  503  502  0.00000000000E+00 -0.00000000000E+00 -0.33142384210E+01  0.33142384210E+01  0.00000000000E+00 0. -1.
         21    1    1    2  503  501 -0.10320204490E+03  0.10080612130E+01  0.10887658025E+04  0.10936464927E+04  0.00000000000E+00 0. -1.
          2    1    1    2  501    0  0.10320204490E+03 -0.10080612130E+01  0.30463167315E+04  0.30480645182E+04  0.00000000000E+00 0. -1.
<mgrwt>
<rscale>  2 0.10320697E+03</rscale>
<asrwt>0</asrwt>
<pdfrwt beam="2">  1       21 0.50988614E-03 0.10320697E+03</pdfrwt>
<pdfrwt beam="1">  1        2 0.63667229E+00 0.10320697E+03</pdfrwt>
<totfact> 0.53268214E+04</totfact>
</mgrwt>
</event>
<event>
 4    1  0.5006371E+003  0.1100996E+03  0.7546771E-02  0.1260386E+00
         21   -1    0    0  501  502  0.00000000000E+00  0.00000000000E+00  0.34850368158E+02  0.34850368158E+02  0.00000000000E+00 0. -1.
         -3   -1    0    0    0  501 -0.00000000000E+00 -0.00000000000E+00 -0.40106905977E+03  0.40106905977E+03  0.00000000000E+00 0.  1.
         21    1    1    2  503  502 -0.52421631505E+02  0.96818863630E+02 -0.10369633907E+03  0.15124434052E+03  0.00000000000E+00 0. -1.
         -3    1    1    2    0  503  0.52421631505E+02 -0.96818863630E+02 -0.26252235255E+03  0.28467508741E+03  0.00000000000E+00 0.  1.
<mgrwt>
<rscale>  2 0.11009959E+03</rscale>
<asrwt>0</asrwt>
<pdfrwt beam="1">  1       21 0.53615952E-02 0.11009959E+03</pdfrwt>
<pdfrwt beam="2">  1       -3 0.61702931E-01 0.11009959E+03</pdfrwt>
<totfact> 0.29253065E+04</totfact>
</mgrwt>
</event>
<event>
 4    1  0.5006371E+003  0.1021877E+03  0.7546771E-02  0.1275762E+00
          1   -1    0    0  503    0 -0.00000000000E+00  0.00000000000E+00  0.96906094922E+03  0.96906094922E+03  0.00000000000E+00 0.  1.
         21   -1    0    0  501  502  0.00000000000E+00 -0.00000000000E+00 -0.20622829970E+02  0.20622829970E+02  0.00000000000E+00 0.  1.
         21    1    1    2  503  502  0.97525354257E+02 -0.30514319636E+02  0.13228137156E+03  0.16715465799E+03  0.00000000000E+00 0.  1.
          1    1    1    2  501    0 -0.97525354257E+02  0.30514319636E+02  0.81615674769E+03  0.82252912120E+03  0.00000000000E+00 0.  1.
<mgrwt>
<rscale>  2 0.10218766E+03</rscale>
<asrwt>0</asrwt>
<pdfrwt beam="2">  1       21 0.31727438E-02 0.10218766E+03</pdfrwt>
<pdfrwt beam="1">  1        1 0.14908626E+00 0.10218766E+03</pdfrwt>
<totfact> 0.10845000E+05</totfact>
</mgrwt>
</event>
<event>
 4    1  0.5006371E+003  0.1036948E+03  0.7546771E-02  0.1272713E+00
          2   -1    0    0  503    0 -0.00000000000E+00  0.00000000000E+00  0.18039983115E+04  0.18039983115E+04  0.00000000000E+00 0.  1.
         21   -1    0    0  501  502  0.00000000000E+00 -0.00000000000E+00 -0.10533673351E+02  0.10533673351E+02  0.00000000000E+00 0.  1.
         21    1    1    2  503  502 -0.14310640639E+02  0.10270253063E+03  0.29893095436E+03  0.31640530922E+03  0.00000000000E+00 0.  1.
          2    1    1    2  501    0  0.14310640639E+02 -0.10270253063E+03  0.14945336838E+04  0.14981266756E+04  0.00000000000E+00 0.  1.
<mgrwt>
<rscale>  2 0.10369476E+03</rscale>
<asrwt>0</asrwt>
<pdfrwt beam="2">  1       21 0.16205666E-02 0.10369476E+03</pdfrwt>
<pdfrwt beam="1">  1        2 0.27753796E+00 0.10369476E+03</pdfrwt>
<totfact> 0.21044666E+05</totfact>
</mgrwt>
</event>
<event>
 4    1  0.5006371E+003  0.1049069E+03  0.7546771E-02  0.1270303E+00
         21   -1    0    0  503  502  0.00000000000E+00  0.00000000000E+00  0.56373173397E+02  0.56373173397E+02  0.00000000000E+00 0. -1.
         -4   -1    0    0    0  501 -0.00000000000E+00 -0.00000000000E+00 -0.21801268931E+03  0.21801268931E+03  0.00000000000E+00 0.  1.
         21    1    1    2  503  501 -0.18342509136E+02  0.10329087272E+03 -0.36464907353E+02  0.11106368217E+03  0.00000000000E+00 0. -1.
         -4    1    1    2    0  502  0.18342509136E+02 -0.10329087272E+03 -0.12517460856E+03  0.16332218054E+03  0.00000000000E+00 0.  1.
<mgrwt>
<rscale>  2 0.10490687E+03</rscale>
<asrwt>0</asrwt>
<pdfrwt beam="1">  1       21 0.86727960E-02 0.10490687E+03</pdfrwt>
<pdfrwt beam="2">  1       -4 0.33540414E-01 0.10490687E+03</pdfrwt>
<totfact> 0.35134907E+04</totfact>
</mgrwt>
</event>
<event>
 4    1  0.5006371E+003  0.1144776E+03  0.7546771E-02  0.1252496E+00
         -2   -1    0    0    0  501 -0.00000000000E+00  0.00000000000E+00  0.45717685661E+02  0.45717685661E+02  0.00000000000E+00 0.  1.
         21   -1    0    0  503  502  0.00000000000E+00 -0.00000000000E+00 -0.35400208077E+03  0.35400208077E+03  0.00000000000E+00 0.  1.
         21    1    1    2  503  501  0.11418172651E+03 -0.82249108404E+01 -0.24131645775E+03  0.26709314594E+03  0.00000000000E+00 0.  1.
         -2    1    1    2    0  502 -0.11418172651E+03  0.82249108404E+01 -0.66967937361E+02  0.13262662049E+03  0.00000000000E+00 0.  1.
<mgrwt>
<rscale>  2 0.11447758E+03</rscale>
<asrwt>0</asrwt>
<pdfrwt beam="2">  1       21 0.54461857E-01 0.11447758E+03</pdfrwt>
<pdfrwt beam="1">  1       -2 0.70334903E-02 0.11447758E+03</pdfrwt>
<totfact> 0.28556992E+04</totfact>
</mgrwt>
</event>
<event>
 4    1  0.5006371E+003  0.1066312E+03  0.7546771E-02  0.1266939E+00
         21   -1    0    0  501  502  0.00000000000E+00  0.00000000000E+00  0.59316120589E+01  0.59316120589E+01  0.00000000000E+00 0. -1.
          3   -1    0    0  503    0 -0.00000000000E+00 -0.00000000000E+00 -0.25066193014E+04  0.25066193014E+04  0.00000000000E+00 0. -1.
         21    1    1    2  503  502 -0.10436295997E+03  0.21876730380E+02 -0.64099099726E+03  0.64979972093E+03  0.00000000000E+00 0. -1.
          3    1    1    2  501    0  0.10436295997E+03 -0.21876730380E+02 -0.18596966920E+04  0.18627511925E+04  0.00000000000E+00 0. -1.
<mgrwt>
<rscale>  2 0.10663123E+03</rscale>
<asrwt>0</asrwt>
<pdfrwt beam="1">  1       21 0.91255521E-03 0.10663123E+03</pdfrwt>
<pdfrwt beam="2">  1        3 0.38563395E+00 0.10663123E+03</pdfrwt>
<totfact> 0.35144868E+03</totfact>
</mgrwt>
</event>
<event>
 4    1  0.5006371E+003  0.1076974E+03  0.7546771E-02  0.1264894E+00
          2   -1    0    0  502    0 -0.00000000000E+00  0.00000000000E+00  0.39056912385E+03  0.39056912385E+03  0.00000000000E+00 0.  1.
         21   -1    0    0  503  502  0.00000000000E+00 -0.00000000000E+00 -0.41101310542E+02  0.41101310542E+02  0.00000000000E+00 0. -1.
         21    1    1    2  503  501  0.61979164055E+02 -0.88075567887E+02  0.61042033496E+02  0.12379358743E+03  0.00000000000E+00 0. -1.
          2    1    1    2  501    0 -0.61979164055E+02  0.88075567887E+02  0.28842577982E+03  0.30787684697E+03  0.00000000000E+00 0.  1.
<mgrwt>
<rscale>  2 0.10769737E+03</rscale>
<asrwt>0</asrwt>
<pdfrwt beam="2">  1       21 0.63232788E-02 0.10769737E+03</pdfrwt>
<pdfrwt beam="1">  1        2 0.60087555E-01 0.10769737E+03</pdfrwt>
<totfact> 0.17994743E+05</totfact>
</mgrwt>
</event>
<event>
 4    1  0.5006371E+003  0.1202600E+03  0.7546771E-02  0.1242669E+00
         21   -1    0    0  501  502  0.00000000000E+00  0.00000000000E+00  0.63405218827E+02  0.63405218827E+02  0.00000000000E+00 0.  1.
          1   -1    0    0  503    0 -0.00000000000E+00 -0.00000000000E+00 -0.36684284276E+03  0.36684284276E+03  0.00000000000E+00 0. -1.
         21    1    1    2  503  502  0.56030075937E+02  0.10641002223E+03 -0.19418516081E+02  0.12181765474E+03  0.00000000000E+00 0.  1.
          1    1    1    2  501    0 -0.56030075937E+02 -0.10641002223E+03 -0.28401910785E+03  0.30843040685E+03  0.00000000000E+00 0. -1.
<mgrwt>
<rscale>  2 0.12025998E+03</rscale>
<asrwt>0</asrwt>
<pdfrwt beam="1">  1       21 0.97546490E-02 0.12025998E+03</pdfrwt>
<pdfrwt beam="2">  1        1 0.56437361E-01 0.12025998E+03</pdfrwt>
<totfact> 0.62640173E+04</totfact>
</mgrwt>
</event>
<event>
 4    1  0.5006371E+003  0.1088692E+03  0.7546771E-02  0.1262678E+00
         -1   -1    0    0    0  501 -0.00000000000E+00  0.00000000000E+00  0.65488946051E+02  0.65488946051E+02  0.00000000000E+00 0. -1.
         21   -1    0    0  503  502  0.00000000000E+00 -0.00000000000E+00 -0.18247599659E+03  0.18247599659E+03  0.00000000000E+00 0. -1.
         21    1    1    2  503  501 -0.40148979918E+02 -0.10119569917E+03 -0.69701078852E+02  0.12927006812E+03  0.00000000000E+00 0. -1.
         -1    1    1    2    0  502  0.40148979918E+02  0.10119569917E+03 -0.47285971683E+02  0.11869487452E+03  0.00000000000E+00 0. -1.
<mgrwt>
<rscale>  2 0.10886923E+03</rscale>
<asrwt>0</asrwt>
<pdfrwt beam="2">  1       21 0.28073230E-01 0.10886923E+03</pdfrwt>
<pdfrwt beam="1">  1       -1 0.10075223E-01 0.10886923E+03</pdfrwt>
<totfact> 0.63996762E+04</totfact>
</mgrwt>
</event>
<event>
 4    1  0.5006371E+003  0.1311281E+03  0.7546771E-02  0.1225791E+00
         21   -1    0    0  503  502  0.00000000000E+00  0.00000000000E+00  0.33262950777E+02  0.33262950777E+02  0.00000000000E+00 0. -1.
          1   -1    0    0  502    0 -0.00000000000E+00 -0.00000000000E+00 -0.86866103900E+03  0.86866103900E+03  0.00000000000E+00 0.  1.
         21    1    1    2  503  501  0.22574764496E+02 -0.12917025775E+03 -0.13073935562E+03  0.18516844922E+03  0.00000000000E+00 0. -1.
          1    1    1    2  501    0 -0.22574764496E+02  0.12917025775E+03 -0.70465873260E+03  0.71675554055E+03  0.00000000000E+00 0.  1.
<mgrwt>
<rscale>  2 0.13112809E+03</rscale>
<asrwt>0</asrwt>
<pdfrwt beam="1">  1       21 0.51173770E-02 0.13112809E+03</pdfrwt>
<pdfrwt beam="2">  1        1 0.13364016E+00 0.13112809E+03</pdfrwt>
<totfact> 0.58664605E+04</totfact>
</mgrwt>
</event>
<event>
 4    1  0.5006371E+003  0.1065491E+03  0.7546771E-02  0.1267097E+00
          2   -1    0    0  502    0 -0.00000000000E+00  0.00000000000E+00  0.93789423457E+03  0.93789423457E+03  0.00000000000E+00 0.  1.
         21   -1    0    0  503  502  0.00000000000E+00 -0.00000000000E+00 -0.32339407244E+02  0.32339407244E+02  0.00000000000E+00 0. -1.
         21    1    1    2  503  501  0.71368102107E+02 -0.79115768734E+02  0.69042551032E+02  0.12696292653E+03  0.00000000000E+00 0. -1.
          2    1    1    2  501    0 -0.71368102107E+02  0.79115768734E+02  0.83651227630E+03  0.84327071528E+03  0.00000000000E+00 0.  1.
<mgrwt>
<rscale>  2 0.10654910E+03</rscale>
<asrwt>0</asrwt>
<pdfrwt beam="2">  1       21 0.49752941E-02 0.10654910E+03</pdfrwt>
<pdfrwt beam="1">  1        2 0.14429140E+00 0.10654910E+03</pdfrwt>
<totfact> 0.98429276E+04</totfact>
</mgrwt>
</event>
<event>
 4    1  0.5006371E+003  0.1010031E+03  0.7546771E-02  0.1278201E+00
         -3   -1    0    0    0  501 -0.00000000000E+00  0.00000000000E+00  0.44650902013E+02  0.44650902013E+02  0.00000000000E+00 0. -1.
         21   -1    0    0  501  502  0.00000000000E+00 -0.00000000000E+00 -0.27309748233E+03  0.27309748233E+03  0.00000000000E+00 0. -1.
         21    1    1    2  503  502  0.54971251697E+02 -0.84733642897E+02 -0.17844322399E+03  0.20504539239E+03  0.00000000000E+00 0. -1.
         -3    1    1    2    0  503 -0.54971251697E+02  0.84733642897E+02 -0.50003356329E+02  0.11270299196E+03  0.00000000000E+00 0. -1.
<mgrwt>
<rscale>  2 0.10100311E+03</rscale>
<asrwt>0</asrwt>
<pdfrwt beam="2">  1       21 0.42014997E-01 0.10100311E+03</pdfrwt>
<pdfrwt beam="1">  1       -3 0.68693696E-02 0.10100311E+03</pdfrwt>
<totfact> 0.34954676E+04</totfact>
</mgrwt>
</event>
<event>
 4    1  0.5006371E+003  0.1372733E+03  0.7546771E-02  0.1217046E+00
          4   -1    0    0  503    0 -0.00000000000E+00  0.00000000000E+00  0.82314598625E+02  0.82314598625E+02  0.00000000000E+00 0.  1.
         21   -1    0    0  501  502  0.00000000000E+00 -0.00000000000E+00 -0.55146597668E+03  0.55146597668E+03  0.00000000000E+00 0.  1.
         21    1    1    2  503  502  0.80519802607E+02  0.11117792825E+03 -0.47692466589E+03  0.49628732330E+03  0.00000000000E+00 0.  1.
          4    1    1    2  501    0 -0.80519802607E+02 -0.11117792825E+03  0.77732878322E+01  0.13749325200E+03  0.00000000000E+00 0.  1.
<mgrwt>
<rscale>  2 0.13727334E+03</rscale>
<asrwt>0</asrwt>
<pdfrwt beam="2">  1       21 0.84840924E-01 0.13727334E+03</pdfrwt>
<pdfrwt beam="1">  1        4 0.12663784E-01 0.13727334E+03</pdfrwt>
<totfact> 0.25414193E+03</totfact>
</mgrwt>
</event>
<event>
 4    1  0.5006371E+003  0.2610519E+03  0.7546771E-02  0.1106513E+00
          1   -1    0    0  503    0 -0.00000000000E+00  0.00000000000E+00  0.79529739988E+02  0.79529739988E+02  0.00000000000E+00 0.  1.
         21   -1    0    0  501  502  0.00000000000E+00 -0.00000000000E+00 -0.28327182075E+04  0.28327182075E+04  0.00000000000E+00 0.  1.
         21    1    1    2  503  502 -0.18901815818E+03  0.18005618554E+03 -0.25927003030E+04  0.26058094626E+04  0.00000000000E+00 0.  1.
          1    1    1    2  501    0  0.18901815818E+03 -0.18005618554E+03 -0.16048816447E+03  0.30643848487E+03  0.00000000000E+00 0.  1.
<mgrwt>
<rscale>  2 0.26105190E+03</rscale>
<asrwt>0</asrwt>
<pdfrwt beam="2">  1       21 0.43580287E+00 0.26105190E+03</pdfrwt>
<pdfrwt beam="1">  1        1 0.12235343E-01 0.26105190E+03</pdfrwt>
<totfact> 0.24616299E+01</totfact>
</mgrwt>
</event>
<event>
 4    1  0.5006371E+003  0.2057245E+03  0.7546771E-02  0.1144997E+00
         21   -1    0    0  503  502  0.00000000000E+00  0.00000000000E+00  0.78911850610E+03  0.78911850610E+03  0.00000000000E+00 0.  1.
          1   -1    0    0  502    0 -0.00000000000E+00 -0.00000000000E+00 -0.75942099274E+02  0.75942099274E+02  0.00000000000E+00 0. -1.
         21    1    1    2  503  501 -0.75285358532E+02 -0.19145418570E+03  0.59102120856E+03  0.62580241242E+03  0.00000000000E+00 0.  1.
          1    1    1    2  501    0  0.75285358532E+02  0.19145418570E+03  0.12215519827E+03  0.23925819295E+03  0.00000000000E+00 0. -1.
<mgrwt>
<rscale>  2 0.20572455E+03</rscale>
<asrwt>0</asrwt>
<pdfrwt beam="1">  1       21 0.12140284E+00 0.20572455E+03</pdfrwt>
<pdfrwt beam="2">  1        1 0.11683400E-01 0.20572455E+03</pdfrwt>
<totfact> 0.28299158E+03</totfact>
</mgrwt>
</event>
<event>
 4    1  0.5006371E+003  0.1018821E+03  0.7546771E-02  0.1276387E+00
         21   -1    0    0  503  502  0.00000000000E+00  0.00000000000E+00  0.10172085552E+02  0.10172085552E+02  0.00000000000E+00 0. -1.
          2   -1    0    0  502    0 -0.00000000000E+00 -0.00000000000E+00 -0.11027613310E+04  0.11027613310E+04  0.00000000000E+00 0.  1.
         21    1    1    2  503  501  0.69598656605E+02 -0.74404207689E+02 -0.39425177791E+03  0.40720317227E+03  0.00000000000E+00 0. -1.
          2    1    1    2  501    0 -0.69598656605E+02  0.74404207689E+02 -0.69833746754E+03  0.70573024428E+03  0.00000000000E+00 0.  1.
<mgrwt>
<rscale>  2 0.10188208E+03</rscale>
<asrwt>0</asrwt>
<pdfrwt beam="1">  1       21 0.15649361E-02 0.10188208E+03</pdfrwt>
<pdfrwt beam="2">  1        2 0.16965560E+00 0.10188208E+03</pdfrwt>
<totfact> 0.51718848E+05</totfact>
</mgrwt>
</event>
<event>
 4    1  0.5006371E+003  0.1697450E+03  0.7546771E-02  0.1178114E+00
         21   -1    0    0  501  502  0.00000000000E+00  0.00000000000E+00  0.13584564647E+03  0.13584564647E+03  0.00000000000E+00 0. -1.
          2   -1    0    0  503    0 -0.00000000000E+00 -0.00000000000E+00 -0.22800075952E+03  0.22800075952E+03  0.00000000000E+00 0. -1.
         21    1    1    2  503  502 -0.16000634268E+03  0.56668724896E+02 -0.94114720322E+02  0.19409006843E+03  0.00000000000E+00 0. -1.
          2    1    1    2  501    0  0.16000634268E+03 -0.56668724896E+02  0.19596072678E+01  0.16975633756E+03  0.00000000000E+00 0. -1.
<mgrwt>
<rscale>  2 0.16974503E+03</rscale>
<asrwt>0</asrwt>
<pdfrwt beam="1">  1       21 0.20899330E-01 0.16974503E+03</pdfrwt>
<pdfrwt beam="2">  1        2 0.35077040E-01 0.16974503E+03</pdfrwt>
<totfact> 0.38742502E+04</totfact>
</mgrwt>
</event>
<event>
 4    1  0.5006371E+003  0.1196537E+03  0.7546771E-02  0.1243669E+00
          2   -1    0    0  503    0 -0.00000000000E+00  0.00000000000E+00  0.67245641923E+03  0.67245641923E+03  0.00000000000E+00 0. -1.
         21   -1    0    0  501  502  0.00000000000E+00 -0.00000000000E+00 -0.11552660575E+03  0.11552660575E+03  0.00000000000E+00 0.  1.
         21    1    1    2  503  502 -0.10151776561E+03 -0.63333625815E+02 -0.77374695237E+02  0.14249157293E+03  0.00000000000E+00 0.  1.
          2    1    1    2  501    0  0.10151776561E+03  0.63333625815E+02  0.63430450871E+03  0.64549145205E+03  0.00000000000E+00 0. -1.
<mgrwt>
<rscale>  2 0.11965369E+03</rscale>
<asrwt>0</asrwt>
<pdfrwt beam="2">  1       21 0.17773324E-01 0.11965369E+03</pdfrwt>
<pdfrwt beam="1">  1        2 0.10345483E+00 0.11965369E+03</pdfrwt>
<totfact> 0.16185629E+04</totfact>
</mgrwt>
</event>
<event>
 4    1  0.5006371E+003  0.1064268E+03  0.7546771E-02  0.1267334E+00
          2   -1    0    0  502    0 -0.00000000000E+00  0.00000000000E+00  0.26662878785E+03  0.26662878785E+03  0.00000000000E+00 0.  1.
         21   -1    0    0  503  502  0.00000000000E+00 -0.00000000000E+00 -0.52686478976E+02  0.52686478976E+02  0.00000000000E+00 0. -1.
         21    1    1    2  503  501 -0.80283547286E+02  0.69865737200E+02  0.36703433950E+02  0.11257802300E+03  0.00000000000E+00 0. -1.
          2    1    1    2  501    0  0.80283547286E+02 -0.69865737200E+02  0.17723887492E+03  0.20673724382E+03  0.00000000000E+00 0.  1.
<mgrwt>
<rscale>  2 0.10642683E+03</rscale>
<asrwt>0</asrwt>
<pdfrwt beam="2">  1       21 0.81056123E-02 0.10642683E+03</pdfrwt>
<pdfrwt beam="1">  1        2 0.41019813E-01 0.10642683E+03</pdfrwt>
<totfact> 0.17601518E+05</totfact>
</mgrwt>
</event>
<event>
 4    1  0.5006371E+003  0.1593657E+03  0.7546771E-02  0.1189415E+00
         21   -1    0    0  503  502  0.00000000000E+00  0.00000000000E+00  0.15995890978E+03  0.15995890978E+03  0.00000000000E+00 0. -1.
         -3   -1    0    0    0  501 -0.00000000000E+00 -0.00000000000E+00 -0.12767346468E+04  0.12767346468E+04  0.00000000000E+00 0.  1.
         21    1    1    2  503  501  0.48089294256E+02 -0.15193694087E+03  0.11380974323E+03  0.19583174379E+03  0.00000000000E+00 0. -1.
         -3    1    1    2    0  502 -0.48089294256E+02  0.15193694087E+03 -0.12305854802E+04  0.12408618127E+04  0.00000000000E+00 0.  1.
<mgrwt>
<rscale>  2 0.15936566E+03</rscale>
<asrwt>0</asrwt>
<pdfrwt beam="1">  1       21 0.24609063E-01 0.15936566E+03</pdfrwt>
<pdfrwt beam="2">  1       -3 0.19642072E+00 0.15936566E+03</pdfrwt>
<totfact> 0.13162549E+02</totfact>
</mgrwt>
</event>
<event>
 4    1  0.5006371E+003  0.1179465E+03  0.7546771E-02  0.1246524E+00
         21   -1    0    0  503  502  0.00000000000E+00  0.00000000000E+00  0.17002411265E+03  0.17002411265E+03  0.00000000000E+00 0.  1.
          2   -1    0    0  502    0 -0.00000000000E+00 -0.00000000000E+00 -0.58058651775E+03  0.58058651775E+03  0.00000000000E+00 0. -1.
         21    1    1    2  503  501  0.90567808068E+02 -0.75556971636E+02  0.14257508655E+03  0.18503793969E+03  0.00000000000E+00 0.  1.
          2    1    1    2  501    0 -0.90567808068E+02  0.75556971636E+02 -0.55313749165E+03  0.56557269072E+03  0.00000000000E+00 0. -1.
<mgrwt>
<rscale>  2 0.11794653E+03</rscale>
<asrwt>0</asrwt>
<pdfrwt beam="1">  1       21 0.26157555E-01 0.11794653E+03</pdfrwt>
<pdfrwt beam="2">  1        2 0.89321004E-01 0.11794653E+03</pdfrwt>
<totfact> 0.93407292E+03</totfact>
</mgrwt>
</event>
<event>
 4    1  0.5006371E+003  0.1047040E+03  0.7546771E-02  0.1270704E+00
         21   -1    0    0  501  502  0.00000000000E+00  0.00000000000E+00  0.25778782917E+03  0.25778782917E+03  0.00000000000E+00 0.  1.
          4   -1    0    0  503    0 -0.00000000000E+00 -0.00000000000E+00 -0.48584960992E+03  0.48584960992E+03  0.00000000000E+00 0. -1.
         21    1    1    2  503  502  0.73435205007E+02  0.74633729133E+02  0.24114240166E+03  0.26289271717E+03  0.00000000000E+00 0.  1.
          4    1    1    2  501    0 -0.73435205007E+02 -0.74633729133E+02 -0.46920418242E+03  0.48074472192E+03  0.00000000000E+00 0. -1.
<mgrwt>
<rscale>  2 0.10470398E+03</rscale>
<asrwt>0</asrwt>
<pdfrwt beam="1">  1       21 0.39659666E-01 0.10470398E+03</pdfrwt>
<pdfrwt beam="2">  1        4 0.74746093E-01 0.10470398E+03</pdfrwt>
<totfact> 0.42420366E+02</totfact>
</mgrwt>
</event>
<event>
 4    1  0.5006371E+003  0.1273771E+03  0.7546771E-02  0.1231400E+00
         21   -1    0    0  501  502  0.00000000000E+00  0.00000000000E+00  0.40693043848E+03  0.40693043848E+03  0.00000000000E+00 0. -1.
          4   -1    0    0  503    0 -0.00000000000E+00 -0.00000000000E+00 -0.17455079849E+03  0.17455079849E+03  0.00000000000E+00 0.  1.
         21    1    1    2  503  502 -0.19074740460E+02 -0.12594076039E+03  0.37157473276E+03  0.39280109836E+03  0.00000000000E+00 0. -1.
          4    1    1    2  501    0  0.19074740460E+02  0.12594076039E+03 -0.13919509278E+03  0.18868013860E+03  0.00000000000E+00 0.  1.
<mgrwt>
<rscale>  2 0.12737708E+03</rscale>
<asrwt>0</asrwt>
<pdfrwt beam="1">  1       21 0.62604682E-01 0.12737708E+03</pdfrwt>
<pdfrwt beam="2">  1        4 0.26853969E-01 0.12737708E+03</pdfrwt>
<totfact> 0.12932549E+03</totfact>
</mgrwt>
</event>
<event>
 4    1  0.5006371E+003  0.1458070E+03  0.7546771E-02  0.1205722E+00
         21   -1    0    0  501  502  0.00000000000E+00  0.00000000000E+00  0.11776082383E+04  0.11776082383E+04  0.00000000000E+00 0.  1.
         -1   -1    0    0    0  501 -0.00000000000E+00 -0.00000000000E+00 -0.29283201723E+03  0.29283201723E+03  0.00000000000E+00 0. -1.
         21    1    1    2  503  502 -0.12076873647E+03 -0.81698272059E+02  0.11545843354E+04  0.11637545630E+04  0.00000000000E+00 0.  1.
         -1    1    1    2    0  503  0.12076873647E+03  0.81698272059E+02 -0.26980811440E+03  0.30668569246E+03  0.00000000000E+00 0. -1.
<mgrwt>
<rscale>  2 0.14580705E+03</rscale>
<asrwt>0</asrwt>
<pdfrwt beam="1">  1       21 0.18117050E+00 0.14580705E+03</pdfrwt>
<pdfrwt beam="2">  1       -1 0.45051080E-01 0.14580705E+03</pdfrwt>
<totfact> 0.85867968E+01</totfact>
</mgrwt>
</event>
<event>
 4    1  0.5006371E+003  0.1042132E+03  0.7546771E-02  0.1271678E+00
         -3   -1    0    0    0  501 -0.00000000000E+00  0.00000000000E+00  0.41893613403E+02  0.41893613403E+02  0.00000000000E+00 0. -1.
         21   -1    0    0  501  502  0.00000000000E+00 -0.00000000000E+00 -0.27722625265E+03  0.27722625265E+03  0.00000000000E+00 0. -1.
         21    1    1    2  503  502  0.29208537157E+02  0.10003630251E+03 -0.15831119473E+03  0.18953320247E+03  0.00000000000E+00 0. -1.
         -3    1    1    2    0  503 -0.29208537157E+02 -0.10003630251E+03 -0.77021444518E+02  0.12958666358E+03  0.00000000000E+00 0. -1.
<mgrwt>
<rscale>  2 0.10421325E+03</rscale>
<asrwt>0</asrwt>
<pdfrwt beam="2">  1       21 0.42650194E-01 0.10421325E+03</pdfrwt>
<pdfrwt beam="1">  1       -3 0.64451711E-02 0.10421325E+03</pdfrwt>
<totfact> 0.37664120E+04</totfact>
</mgrwt>
</event>
<event>
 4    1  0.5006371E+003  0.1022275E+03  0.7546771E-02  0.1275680E+00
          3   -1    0    0  503    0 -0.00000000000E+00  0.00000000000E+00  0.97601247517E+03  0.97601247517E+03  0.00000000000E+00 0.  1.
         21   -1    0    0  501  502  0.00000000000E+00 -0.00000000000E+00 -0.11162000329E+02  0.11162000329E+02  0.00000000000E+00 0. -1.
         21    1    1    2  503  502  0.18491088681E+02 -0.10054120106E+03  0.38280262169E+03  0.39621749159E+03  0.00000000000E+00 0. -1.
          3    1    1    2  501    0 -0.18491088681E+02  0.10054120106E+03  0.58204785315E+03  0.59095698391E+03  0.00000000000E+00 0.  1.
<mgrwt>
<rscale>  2 0.10222746E+03</rscale>
<asrwt>0</asrwt>
<pdfrwt beam="2">  1       21 0.17172316E-02 0.10222746E+03</pdfrwt>
<pdfrwt beam="1">  1        3 0.15015570E+00 0.10222746E+03</pdfrwt>
<totfact> 0.25410206E+04</totfact>
</mgrwt>
</event>
<event>
 4    1  0.5006371E+003  0.1061166E+03  0.7546771E-02  0.1267935E+00
         -2   -1    0    0    0  501 -0.00000000000E+00  0.00000000000E+00  0.11158874775E+03  0.11158874775E+03  0.00000000000E+00 0. -1.
         21   -1    0    0  503  502  0.00000000000E+00 -0.00000000000E+00 -0.10546290977E+03  0.10546290977E+03  0.00000000000E+00 0. -1.
         21    1    1    2  503  501 -0.58697289777E+02  0.88404572977E+02 -0.19479007159E+02  0.10788962911E+03  0.00000000000E+00 0. -1.
         -2    1    1    2    0  502  0.58697289777E+02 -0.88404572977E+02  0.25604845146E+02  0.10916202840E+03  0.00000000000E+00 0. -1.
<mgrwt>
<rscale>  2 0.10611664E+03</rscale>
<asrwt>0</asrwt>
<pdfrwt beam="2">  1       21 0.16225063E-01 0.10611664E+03</pdfrwt>
<pdfrwt beam="1">  1       -2 0.17167500E-01 0.10611664E+03</pdfrwt>
<totfact> 0.71723636E+04</totfact>
</mgrwt>
</event>
<event>
 4    1  0.5006371E+003  0.1107470E+03  0.7546771E-02  0.1259193E+00
         21   -1    0    0  503  502  0.00000000000E+00  0.00000000000E+00  0.17594082394E+03  0.17594082394E+03  0.00000000000E+00 0.  1.
         -3   -1    0    0    0  501 -0.00000000000E+00 -0.00000000000E+00 -0.19943075872E+03  0.19943075872E+03  0.00000000000E+00 0. -1.
         21    1    1    2  503  501 -0.92607350480E+02  0.60735280580E+02  0.13962491948E+03  0.17821339402E+03  0.00000000000E+00 0.  1.
         -3    1    1    2    0  502  0.92607350480E+02 -0.60735280580E+02 -0.16311485426E+03  0.19715818864E+03  0.00000000000E+00 0. -1.
<mgrwt>
<rscale>  2 0.11074699E+03</rscale>
<asrwt>0</asrwt>
<pdfrwt beam="1">  1       21 0.27067819E-01 0.11074699E+03</pdfrwt>
<pdfrwt beam="2">  1       -3 0.30681655E-01 0.11074699E+03</pdfrwt>
<totfact> 0.64606232E+03</totfact>
</mgrwt>
</event>
<event>
 4    1  0.5006371E+003  0.1098352E+03  0.7546771E-02  0.1260875E+00
         -4   -1    0    0    0  501 -0.00000000000E+00  0.00000000000E+00  0.20678390429E+03  0.20678390429E+03  0.00000000000E+00 0. -1.
         21   -1    0    0  501  502  0.00000000000E+00 -0.00000000000E+00 -0.10103427520E+03  0.10103427520E+03  0.00000000000E+00 0.  1.
         21    1    1    2  503  502  0.95622504231E+02  0.54038033510E+02 -0.47174643788E+02  0.11953752297E+03  0.00000000000E+00 0.  1.
         -4    1    1    2    0  503 -0.95622504231E+02 -0.54038033510E+02  0.15292427288E+03  0.18828065651E+03  0.00000000000E+00 0. -1.
<mgrwt>
<rscale>  2 0.10983521E+03</rscale>
<asrwt>0</asrwt>
<pdfrwt beam="2">  1       21 0.15543735E-01 0.10983521E+03</pdfrwt>
<pdfrwt beam="1">  1       -4 0.31812908E-01 0.10983521E+03</pdfrwt>
<totfact> 0.13990853E+04</totfact>
</mgrwt>
</event>
<event>
 4    1  0.5006371E+003  0.1487965E+03  0.7546771E-02  0.1201960E+00
         21   -1    0    0  501  502  0.00000000000E+00  0.00000000000E+00  0.24302285018E+03  0.24302285018E+03  0.00000000000E+00 0.  1.
          3   -1    0    0  503    0 -0.00000000000E+00 -0.00000000000E+00 -0.93588811346E+02  0.93588811346E+02  0.00000000000E+00 0. -1.
         21    1    1    2  503  502  0.31323445278E+02  0.14546217617E+03  0.10214009886E+03  0.18047992330E+03  0.00000000000E+00 0.  1.
          3    1    1    2  501    0 -0.31323445278E+02 -0.14546217617E+03  0.47293939976E+02  0.15613173822E+03  0.00000000000E+00 0. -1.
<mgrwt>
<rscale>  2 0.14879652E+03</rscale>
<asrwt>0</asrwt>
<pdfrwt beam="1">  1       21 0.37388131E-01 0.14879652E+03</pdfrwt>
<pdfrwt beam="2">  1        3 0.14398279E-01 0.14879652E+03</pdfrwt>
<totfact> 0.13377734E+04</totfact>
</mgrwt>
</event>
<event>
 4    1  0.5006371E+003  0.1435693E+03  0.7546771E-02  0.1208605E+00
         21   -1    0    0  501  502  0.00000000000E+00  0.00000000000E+00  0.18378575150E+02  0.18378575150E+02  0.00000000000E+00 0. -1.
         -1   -1    0    0    0  501 -0.00000000000E+00 -0.00000000000E+00 -0.11243038170E+04  0.11243038170E+04  0.00000000000E+00 0. -1.
         21    1    1    2  503  502 -0.51034612268E+02 -0.13419247256E+03 -0.58133354641E+03  0.59879950194E+03  0.00000000000E+00 0. -1.
         -1    1    1    2    0  503  0.51034612268E+02  0.13419247256E+03 -0.52459169543E+03  0.54388289020E+03  0.00000000000E+00 0. -1.
<mgrwt>
<rscale>  2 0.14356933E+03</rscale>
<asrwt>0</asrwt>
<pdfrwt beam="1">  1       21 0.28274722E-02 0.14356933E+03</pdfrwt>
<pdfrwt beam="2">  1       -1 0.17296987E+00 0.14356933E+03</pdfrwt>
<totfact> 0.17003820E+04</totfact>
</mgrwt>
</event>
<event>
 4    1  0.5006371E+003  0.1105431E+03  0.7546771E-02  0.1259567E+00
          2   -1    0    0  502    0 -0.00000000000E+00  0.00000000000E+00  0.18563904483E+04  0.18563904483E+04  0.00000000000E+00 0. -1.
         21   -1    0    0  503  502  0.00000000000E+00 -0.00000000000E+00 -0.12630307249E+02  0.12630307249E+02  0.00000000000E+00 0. -1.
         21    1    1    2  503  501  0.41607909584E+02 -0.10241368810E+03  0.27522249261E+03  0.29659265346E+03  0.00000000000E+00 0. -1.
          2    1    1    2  501    0 -0.41607909584E+02  0.10241368810E+03  0.15685376485E+04  0.15724281021E+04  0.00000000000E+00 0. -1.
<mgrwt>
<rscale>  2 0.11054312E+03</rscale>
<asrwt>0</asrwt>
<pdfrwt beam="2">  1       21 0.19431257E-02 0.11054312E+03</pdfrwt>
<pdfrwt beam="1">  1        2 0.28559831E+00 0.11054312E+03</pdfrwt>
<totfact> 0.14817419E+05</totfact>
</mgrwt>
</event>
<event>
 4    1  0.5006371E+003  0.2926997E+03  0.7546771E-02  0.1088948E+00
          1   -1    0    0  503    0 -0.00000000000E+00  0.00000000000E+00  0.17773114916E+04  0.17773114916E+04  0.00000000000E+00 0. -1.
         21   -1    0    0  501  502  0.00000000000E+00 -0.00000000000E+00 -0.16154399290E+03  0.16154399290E+03  0.00000000000E+00 0. -1.
         21    1    1    2  503  502  0.89725338889E+02 -0.27860813672E+03 -0.41275101211E+01  0.29272882780E+03  0.00000000000E+00 0. -1.
          1    1    1    2  501    0 -0.89725338889E+02  0.27860813672E+03  0.16198950088E+04  0.16461266567E+04  0.00000000000E+00 0. -1.
<mgrwt>
<rscale>  2 0.29269973E+03</rscale>
<asrwt>0</asrwt>
<pdfrwt beam="2">  1       21 0.24852923E-01 0.29269973E+03</pdfrwt>
<pdfrwt beam="1">  1        1 0.27343252E+00 0.29269973E+03</pdfrwt>
<totfact> 0.77864611E+02</totfact>
</mgrwt>
</event>
<event>
 4    1  0.5006371E+003  0.2196567E+03  0.7546771E-02  0.1134139E+00
         21   -1    0    0  501  502  0.00000000000E+00  0.00000000000E+00  0.19029526022E+02  0.19029526022E+02  0.00000000000E+00 0. -1.
          2   -1    0    0  503    0 -0.00000000000E+00 -0.00000000000E+00 -0.38255020121E+04  0.38255020121E+04  0.00000000000E+00 0. -1.
         21    1    1    2  503  502 -0.21103199081E+03  0.60947099952E+02 -0.78697157609E+03  0.81705159672E+03  0.00000000000E+00 0. -1.
          2    1    1    2  501    0  0.21103199081E+03 -0.60947099952E+02 -0.30195009100E+04  0.30274799414E+04  0.00000000000E+00 0. -1.
<mgrwt>
<rscale>  2 0.21965666E+03</rscale>
<asrwt>0</asrwt>
<pdfrwt beam="1">  1       21 0.29276221E-02 0.21965666E+03</pdfrwt>
<pdfrwt beam="2">  1        2 0.58853823E+00 0.21965666E+03</pdfrwt>
<totfact> 0.52250982E+03</totfact>
</mgrwt>
</event>
<event>
 4    1  0.5006371E+003  0.1199202E+03  0.7546771E-02  0.1243229E+00
          1   -1    0    0  503    0 -0.00000000000E+00  0.00000000000E+00  0.14900959491E+04  0.14900959491E+04  0.00000000000E+00 0.  1.
         21   -1    0    0  501  502  0.00000000000E+00 -0.00000000000E+00 -0.20592958174E+02  0.20592958174E+02  0.00000000000E+00 0. -1.
         21    1    1    2  503  502  0.55804557138E+02  0.10614476202E+03  0.18415434567E+03  0.21975823564E+03  0.00000000000E+00 0. -1.
          1    1    1    2  501    0 -0.55804557138E+02 -0.10614476202E+03  0.12853486453E+04  0.12909306717E+04  0.00000000000E+00 0.  1.
<mgrwt>
<rscale>  2 0.11992022E+03</rscale>
<asrwt>0</asrwt>
<pdfrwt beam="2">  1       21 0.31681486E-02 0.11992022E+03</pdfrwt>
<pdfrwt beam="1">  1        1 0.22924545E+00 0.11992022E+03</pdfrwt>
<totfact> 0.48175724E+04</totfact>
</mgrwt>
</event>
<event>
 4    1  0.5006371E+003  0.1642170E+03  0.7546771E-02  0.1184016E+00
         21   -1    0    0  501  502  0.00000000000E+00  0.00000000000E+00  0.14987832201E+03  0.14987832201E+03  0.00000000000E+00 0.  1.
          1   -1    0    0  503    0 -0.00000000000E+00 -0.00000000000E+00 -0.18580652417E+03  0.18580652417E+03  0.00000000000E+00 0.  1.
         21    1    1    2  503  502  0.12814309281E+03  0.10269644091E+03  0.11891715467E+02  0.16464696811E+03  0.00000000000E+00 0.  1.
          1    1    1    2  501    0 -0.12814309281E+03 -0.10269644091E+03 -0.47819917629E+02  0.17103787807E+03  0.00000000000E+00 0.  1.
<mgrwt>
<rscale>  2 0.16421696E+03</rscale>
<asrwt>0</asrwt>
<pdfrwt beam="1">  1       21 0.23058203E-01 0.16421696E+03</pdfrwt>
<pdfrwt beam="2">  1        1 0.28585619E-01 0.16421696E+03</pdfrwt>
<totfact> 0.30848581E+04</totfact>
</mgrwt>
</event>
<event>
 4    1  0.5006371E+003  0.1077369E+03  0.7546771E-02  0.1264819E+00
         21   -1    0    0  501  502  0.00000000000E+00  0.00000000000E+00  0.48046458427E+02  0.48046458427E+02  0.00000000000E+00 0.  1.
          1   -1    0    0  503    0 -0.00000000000E+00 -0.00000000000E+00 -0.50165495915E+03  0.50165495915E+03  0.00000000000E+00 0.  1.
         21    1    1    2  503  502  0.80892377428E+02 -0.71159440678E+02 -0.28906681042E+02  0.11154747390E+03  0.00000000000E+00 0.  1.
          1    1    1    2  501    0 -0.80892377428E+02  0.71159440678E+02 -0.42470181968E+03  0.43815394368E+03  0.00000000000E+00 0.  1.
<mgrwt>
<rscale>  2 0.10773691E+03</rscale>
<asrwt>0</asrwt>
<pdfrwt beam="1">  1       21 0.73917629E-02 0.10773691E+03</pdfrwt>
<pdfrwt beam="2">  1        1 0.77177686E-01 0.10773691E+03</pdfrwt>
<totfact> 0.67861490E+04</totfact>
</mgrwt>
</event>
<event>
 4    1  0.5006371E+003  0.1597716E+03  0.7546771E-02  0.1188955E+00
         21   -1    0    0  501  502  0.00000000000E+00  0.00000000000E+00  0.47380810111E+02  0.47380810111E+02  0.00000000000E+00 0. -1.
          2   -1    0    0  503    0 -0.00000000000E+00 -0.00000000000E+00 -0.18634192116E+04  0.18634192116E+04  0.00000000000E+00 0.  1.
         21    1    1    2  503  502  0.75135747421E+02  0.14100207567E+03 -0.10248912427E+03  0.18981829858E+03  0.00000000000E+00 0. -1.
          2    1    1    2  501    0 -0.75135747421E+02 -0.14100207567E+03 -0.17135492772E+04  0.17209817231E+04  0.00000000000E+00 0.  1.
<mgrwt>
<rscale>  2 0.15977161E+03</rscale>
<asrwt>0</asrwt>
<pdfrwt beam="1">  1       21 0.72893545E-02 0.15977161E+03</pdfrwt>
<pdfrwt beam="2">  1        2 0.28667992E+00 0.15977161E+03</pdfrwt>
<totfact> 0.16194551E+04</totfact>
</mgrwt>
</event>
<event>
 4    1  0.5006371E+003  0.1066552E+03  0.7546771E-02  0.1266892E+00
         21   -1    0    0  503  502  0.00000000000E+00  0.00000000000E+00  0.54823416317E+02  0.54823416317E+02  0.00000000000E+00 0.  1.
         -1   -1    0    0    0  501 -0.00000000000E+00 -0.00000000000E+00 -0.20973627314E+03  0.20973627314E+03  0.00000000000E+00 0.  1.
         21    1    1    2  503  501  0.98337704892E+02 -0.41291988016E+02 -0.91144734111E+02  0.14029502854E+03  0.00000000000E+00 0.  1.
         -1    1    1    2    0  502 -0.98337704892E+02  0.41291988016E+02 -0.63768122714E+02  0.12426466091E+03  0.00000000000E+00 0.  1.
<mgrwt>
<rscale>  2 0.10665520E+03</rscale>
<asrwt>0</asrwt>
<pdfrwt beam="1">  1       21 0.84343717E-02 0.10665520E+03</pdfrwt>
<pdfrwt beam="2">  1       -1 0.32267119E-01 0.10665520E+03</pdfrwt>
<totfact> 0.88025956E+04</totfact>
</mgrwt>
</event>
<event>
 4    1  0.5006371E+003  0.1371149E+03  0.7546771E-02  0.1217265E+00
         21   -1    0    0  501  502  0.00000000000E+00  0.00000000000E+00  0.75458735823E+02  0.75458735823E+02  0.00000000000E+00 0.  1.
          2   -1    0    0  503    0 -0.00000000000E+00 -0.00000000000E+00 -0.27618636137E+03  0.27618636137E+03  0.00000000000E+00 0.  1.
         21    1    1    2  503  502  0.97608346564E+02 -0.96296916922E+02 -0.45352272511E+02  0.14442061539E+03  0.00000000000E+00 0.  1.
          2    1    1    2  501    0 -0.97608346564E+02  0.96296916922E+02 -0.15537535303E+03  0.20722448180E+03  0.00000000000E+00 0.  1.
<mgrwt>
<rscale>  2 0.13711486E+03</rscale>
<asrwt>0</asrwt>
<pdfrwt beam="1">  1       21 0.11609037E-01 0.13711486E+03</pdfrwt>
<pdfrwt beam="2">  1        2 0.42490209E-01 0.13711486E+03</pdfrwt>
<totfact> 0.91594557E+04</totfact>
</mgrwt>
</event>
<event>
 4    1  0.5006371E+003  0.1348847E+03  0.7546771E-02  0.1220383E+00
          2   -1    0    0  503    0 -0.00000000000E+00  0.00000000000E+00  0.56719426962E+03  0.56719426962E+03  0.00000000000E+00 0. -1.
         21   -1    0    0  501  502  0.00000000000E+00 -0.00000000000E+00 -0.38315429256E+02  0.38315429256E+02  0.00000000000E+00 0. -1.
         21    1    1    2  503  502 -0.68871127378E+01 -0.13470873309E+03  0.14227553429E+03  0.19605153086E+03  0.00000000000E+00 0. -1.
          2    1    1    2  501    0  0.68871127378E+01  0.13470873309E+03  0.38660330607E+03  0.40945816802E+03  0.00000000000E+00 0. -1.
<mgrwt>
<rscale>  2 0.13488467E+03</rscale>
<asrwt>0</asrwt>
<pdfrwt beam="2">  1       21 0.58946818E-02 0.13488467E+03</pdfrwt>
<pdfrwt beam="1">  1        2 0.87260651E-01 0.13488467E+03</pdfrwt>
<totfact> 0.13637714E+05</totfact>
</mgrwt>
</event>
<event>
 4    1  0.5006371E+003  0.1088869E+03  0.7546771E-02  0.1262645E+00
          2   -1    0    0  503    0 -0.00000000000E+00  0.00000000000E+00  0.29337386374E+04  0.29337386374E+04  0.00000000000E+00 0. -1.
         21   -1    0    0  501  502  0.00000000000E+00 -0.00000000000E+00 -0.51567251055E+01  0.51567251055E+01  0.00000000000E+00 0.  1.
         21    1    1    2  503  502  0.10790670299E+03 -0.14577429917E+02  0.78089655739E+03  0.78845151491E+03  0.00000000000E+00 0.  1.
          2    1    1    2  501    0 -0.10790670299E+03  0.14577429917E+02  0.21476853549E+04  0.21504438476E+04  0.00000000000E+00 0. -1.
<mgrwt>
<rscale>  2 0.10888690E+03</rscale>
<asrwt>0</asrwt>
<pdfrwt beam="2">  1       21 0.79334467E-03 0.10888690E+03</pdfrwt>
<pdfrwt beam="1">  1        2 0.45134307E+00 0.10888690E+03</pdfrwt>
<totfact> 0.16528568E+05</totfact>
</mgrwt>
</event>
<event>
 4    1  0.5006371E+003  0.1080317E+03  0.7546771E-02  0.1264259E+00
          4   -1    0    0  503    0 -0.00000000000E+00  0.00000000000E+00  0.77680611056E+03  0.77680611056E+03  0.00000000000E+00 0.  1.
         21   -1    0    0  501  502  0.00000000000E+00 -0.00000000000E+00 -0.45989807108E+02  0.45989807108E+02  0.00000000000E+00 0. -1.
         21    1    1    2  503  502  0.34363039465E+02 -0.10242083534E+03  0.27832170478E+02  0.11155929234E+03  0.00000000000E+00 0. -1.
          4    1    1    2  501    0 -0.34363039465E+02  0.10242083534E+03  0.70298413297E+03  0.71123662533E+03  0.00000000000E+00 0.  1.
<mgrwt>
<rscale>  2 0.10803169E+03</rscale>
<asrwt>0</asrwt>
<pdfrwt beam="2">  1       21 0.70753555E-02 0.10803169E+03</pdfrwt>
<pdfrwt beam="1">  1        4 0.11950862E+00 0.10803169E+03</pdfrwt>
<totfact> 0.33773873E+03</totfact>
</mgrwt>
</event>
<event>
 4    1  0.5006371E+003  0.1276863E+03  0.7546771E-02  0.1230930E+00
         21   -1    0    0  503  502  0.00000000000E+00  0.00000000000E+00  0.13063218583E+03  0.13063218583E+03  0.00000000000E+00 0. -1.
         -1   -1    0    0    0  501 -0.00000000000E+00 -0.00000000000E+00 -0.64118891829E+03  0.64118891829E+03  0.00000000000E+00 0. -1.
         21    1    1    2  503  501  0.12432786951E+03 -0.29092595135E+02  0.91042935287E+02  0.15682032488E+03  0.00000000000E+00 0. -1.
         -1    1    1    2    0  502 -0.12432786951E+03  0.29092595135E+02 -0.60159966775E+03  0.61500077924E+03  0.00000000000E+00 0. -1.
<mgrwt>
<rscale>  2 0.12768633E+03</rscale>
<asrwt>0</asrwt>
<pdfrwt beam="1">  1       21 0.20097259E-01 0.12768633E+03</pdfrwt>
<pdfrwt beam="2">  1       -1 0.98644450E-01 0.12768633E+03</pdfrwt>
<totfact> 0.22767541E+03</totfact>
</mgrwt>
</event>
<event>
 4    1  0.5006371E+003  0.1168672E+03  0.7546771E-02  0.1248357E+00
         21   -1    0    0  503  502  0.00000000000E+00  0.00000000000E+00  0.77901922480E+03  0.77901922480E+03  0.00000000000E+00 0.  1.
         -1   -1    0    0    0  501 -0.00000000000E+00 -0.00000000000E+00 -0.69354325183E+02  0.69354325183E+02  0.00000000000E+00 0.  1.
         21    1    1    2  503  501 -0.11685310665E+03  0.18148782951E+01  0.72150453063E+03  0.73090815431E+03  0.00000000000E+00 0.  1.
         -1    1    1    2    0  502  0.11685310665E+03 -0.18148782951E+01 -0.11839631012E+02  0.11746539567E+03  0.00000000000E+00 0.  1.
<mgrwt>
<rscale>  2 0.11686720E+03</rscale>
<asrwt>0</asrwt>
<pdfrwt beam="1">  1       21 0.11984911E+00 0.11686720E+03</pdfrwt>
<pdfrwt beam="2">  1       -1 0.10669897E-01 0.11686720E+03</pdfrwt>
<totfact> 0.26867767E+03</totfact>
</mgrwt>
</event>
<event>
 4    1  0.5006371E+003  0.1069081E+03  0.7546771E-02  0.1266405E+00
         21   -1    0    0  501  502  0.00000000000E+00  0.00000000000E+00  0.11200927947E+02  0.11200927947E+02  0.00000000000E+00 0.  1.
          2   -1    0    0  503    0 -0.00000000000E+00 -0.00000000000E+00 -0.10206938562E+04  0.10206938562E+04  0.00000000000E+00 0.  1.
         21    1    1    2  503  502  0.44585683937E+02 -0.97167190552E+02 -0.51360756675E+03  0.52461612514E+03  0.00000000000E+00 0.  1.
          2    1    1    2  501    0 -0.44585683937E+02  0.97167190552E+02 -0.49588536149E+03  0.50727865899E+03  0.00000000000E+00 0.  1.
<mgrwt>
<rscale>  2 0.10690812E+03</rscale>
<asrwt>0</asrwt>
<pdfrwt beam="1">  1       21 0.17232190E-02 0.10690812E+03</pdfrwt>
<pdfrwt beam="2">  1        2 0.15702988E+00 0.10690812E+03</pdfrwt>
<totfact> 0.49570810E+05</totfact>
</mgrwt>
</event>
<event>
 4    1  0.5006371E+003  0.1591737E+03  0.7546771E-02  0.1189633E+00
         21   -1    0    0  503  502  0.00000000000E+00  0.00000000000E+00  0.17727003088E+03  0.17727003088E+03  0.00000000000E+00 0.  1.
          2   -1    0    0  502    0 -0.00000000000E+00 -0.00000000000E+00 -0.11799961579E+04  0.11799961579E+04  0.00000000000E+00 0. -1.
         21    1    1    2  503  501 -0.12468398736E+03  0.98945338012E+02  0.13484484953E+03  0.20861306302E+03  0.00000000000E+00 0.  1.
          2    1    1    2  501    0  0.12468398736E+03 -0.98945338012E+02 -0.11375709766E+04  0.11486531258E+04  0.00000000000E+00 0. -1.
<mgrwt>
<rscale>  2 0.15917373E+03</rscale>
<asrwt>0</asrwt>
<pdfrwt beam="1">  1       21 0.27272311E-01 0.15917373E+03</pdfrwt>
<pdfrwt beam="2">  1        2 0.18153788E+00 0.15917373E+03</pdfrwt>
<totfact> 0.34162756E+03</totfact>
</mgrwt>
</event>
<event>
 4    1  0.5006371E+003  0.1277531E+03  0.7546771E-02  0.1230828E+00
         21   -1    0    0  503  502  0.00000000000E+00  0.00000000000E+00  0.14304219705E+02  0.14304219705E+02  0.00000000000E+00 0. -1.
          2   -1    0    0  502    0 -0.00000000000E+00 -0.00000000000E+00 -0.19129644062E+04  0.19129644062E+04  0.00000000000E+00 0. -1.
         21    1    1    2  503  501 -0.88606449575E+02 -0.92031286392E+02 -0.33717362012E+03  0.36056471081E+03  0.00000000000E+00 0. -1.
          2    1    1    2  501    0  0.88606449575E+02  0.92031286392E+02 -0.15614865663E+04  0.15667039151E+04  0.00000000000E+00 0. -1.
<mgrwt>
<rscale>  2 0.12775312E+03</rscale>
<asrwt>0</asrwt>
<pdfrwt beam="1">  1       21 0.22006495E-02 0.12775312E+03</pdfrwt>
<pdfrwt beam="2">  1        2 0.29430217E+00 0.12775312E+03</pdfrwt>
<totfact> 0.11339334E+05</totfact>
</mgrwt>
</event>
<event>
 4    1  0.5006371E+003  0.1051422E+03  0.7546771E-02  0.1269840E+00
          2   -1    0    0  503    0 -0.00000000000E+00  0.00000000000E+00  0.78085319271E+03  0.78085319271E+03  0.00000000000E+00 0. -1.
         21   -1    0    0  501  502  0.00000000000E+00 -0.00000000000E+00 -0.13264908773E+03  0.13264908773E+03  0.00000000000E+00 0. -1.
         21    1    1    2  503  502 -0.84097689298E+02  0.63106780159E+02 -0.10758732729E+03  0.15043244344E+03  0.00000000000E+00 0. -1.
          2    1    1    2  501    0  0.84097689298E+02 -0.63106780159E+02  0.75579143227E+03  0.76306983700E+03  0.00000000000E+00 0. -1.
<mgrwt>
<rscale>  2 0.10514222E+03</rscale>
<asrwt>0</asrwt>
<pdfrwt beam="2">  1       21 0.20407552E-01 0.10514222E+03</pdfrwt>
<pdfrwt beam="1">  1        2 0.12013126E+00 0.10514222E+03</pdfrwt>
<totfact> 0.10557026E+04</totfact>
</mgrwt>
</event>
<event>
 4    1  0.5006371E+003  0.1341587E+03  0.7546771E-02  0.1221412E+00
          1   -1    0    0  502    0 -0.00000000000E+00  0.00000000000E+00  0.15572508077E+03  0.15572508077E+03  0.00000000000E+00 0.  1.
         21   -1    0    0  503  502  0.00000000000E+00 -0.00000000000E+00 -0.32478469720E+03  0.32478469720E+03  0.00000000000E+00 0. -1.
         21    1    1    2  503  501  0.85307314581E+02 -0.10354326389E+03 -0.27735387268E+03  0.30809692649E+03  0.00000000000E+00 0. -1.
          1    1    1    2  501    0 -0.85307314581E+02  0.10354326389E+03  0.10829425625E+03  0.17241285148E+03  0.00000000000E+00 0.  1.
<mgrwt>
<rscale>  2 0.13415866E+03</rscale>
<asrwt>0</asrwt>
<pdfrwt beam="2">  1       21 0.49966876E-01 0.13415866E+03</pdfrwt>
<pdfrwt beam="1">  1        1 0.23957705E-01 0.13415866E+03</pdfrwt>
<totfact> 0.84266003E+03</totfact>
</mgrwt>
</event>
<event>
 4    1  0.5006371E+003  0.1080549E+03  0.7546771E-02  0.1264215E+00
          2   -1    0    0  503    0 -0.00000000000E+00  0.00000000000E+00  0.83808841701E+03  0.83808841701E+03  0.00000000000E+00 0. -1.
         21   -1    0    0  501  502  0.00000000000E+00 -0.00000000000E+00 -0.42586196603E+02  0.42586196603E+02  0.00000000000E+00 0.  1.
         21    1    1    2  503  502 -0.61933640852E+02 -0.88544277994E+02  0.36550368085E+02  0.11406925283E+03  0.00000000000E+00 0.  1.
          2    1    1    2  501    0  0.61933640852E+02  0.88544277994E+02  0.75895185232E+03  0.76660536078E+03  0.00000000000E+00 0. -1.
<mgrwt>
<rscale>  2 0.10805492E+03</rscale>
<asrwt>0</asrwt>
<pdfrwt beam="2">  1       21 0.65517232E-02 0.10805492E+03</pdfrwt>
<pdfrwt beam="1">  1        2 0.12893667E+00 0.10805492E+03</pdfrwt>
<totfact> 0.71575363E+04</totfact>
</mgrwt>
</event>
<event>
 4    1  0.5006371E+003  0.1255815E+03  0.7546771E-02  0.1234163E+00
         21   -1    0    0  501  502  0.00000000000E+00  0.00000000000E+00  0.29937161446E+02  0.29937161446E+02  0.00000000000E+00 0.  1.
          2   -1    0    0  503    0 -0.00000000000E+00 -0.00000000000E+00 -0.12213930965E+04  0.12213930965E+04  0.00000000000E+00 0.  1.
         21    1    1    2  503  502 -0.84987380706E+02  0.92454674582E+02 -0.12390260968E+03  0.17641592450E+03  0.00000000000E+00 0.  1.
          2    1    1    2  501    0  0.84987380706E+02 -0.92454674582E+02 -0.10675533253E+04  0.10749143334E+04  0.00000000000E+00 0.  1.
<mgrwt>
<rscale>  2 0.12558153E+03</rscale>
<asrwt>0</asrwt>
<pdfrwt beam="1">  1       21 0.46057153E-02 0.12558153E+03</pdfrwt>
<pdfrwt beam="2">  1        2 0.18790670E+00 0.12558153E+03</pdfrwt>
<totfact> 0.77044707E+04</totfact>
</mgrwt>
</event>
<event>
 4    1  0.5006371E+003  0.1359096E+03  0.7546771E-02  0.1218941E+00
          2   -1    0    0  503    0 -0.00000000000E+00  0.00000000000E+00  0.30547208631E+03  0.30547208631E+03  0.00000000000E+00 0.  1.
         21   -1    0    0  501  502  0.00000000000E+00 -0.00000000000E+00 -0.79066346230E+02  0.79066346230E+02  0.00000000000E+00 0.  1.
         21    1    1    2  503  502  0.13018465992E+03  0.39030292728E+02  0.19953400060E+02  0.13736647190E+03  0.00000000000E+00 0.  1.
          2    1    1    2  501    0 -0.13018465992E+03 -0.39030292728E+02  0.20645234002E+03  0.24717196064E+03  0.00000000000E+00 0.  1.
<mgrwt>
<rscale>  2 0.13590956E+03</rscale>
<asrwt>0</asrwt>
<pdfrwt beam="2">  1       21 0.12164053E-01 0.13590956E+03</pdfrwt>
<pdfrwt beam="1">  1        2 0.46995705E-01 0.13590956E+03</pdfrwt>
<totfact> 0.75758764E+04</totfact>
</mgrwt>
</event>
<event>
 4    1  0.5006371E+003  0.1169599E+03  0.7546771E-02  0.1248198E+00
         21   -1    0    0  503  502  0.00000000000E+00  0.00000000000E+00  0.41006880460E+02  0.41006880460E+02  0.00000000000E+00 0. -1.
         -4   -1    0    0    0  501 -0.00000000000E+00 -0.00000000000E+00 -0.63828240796E+03  0.63828240796E+03  0.00000000000E+00 0.  1.
         21    1    1    2  503  501 -0.76257123775E+02  0.88681854822E+02 -0.63973583558E+02  0.13331256390E+03  0.00000000000E+00 0. -1.
         -4    1    1    2    0  502  0.76257123775E+02 -0.88681854822E+02 -0.53330194394E+03  0.54597672451E+03  0.00000000000E+00 0.  1.
<mgrwt>
<rscale>  2 0.11695991E+03</rscale>
<asrwt>0</asrwt>
<pdfrwt beam="1">  1       21 0.63087510E-02 0.11695991E+03</pdfrwt>
<pdfrwt beam="2">  1       -4 0.98197290E-01 0.11695991E+03</pdfrwt>
<totfact> 0.65393029E+03</totfact>
</mgrwt>
</event>
<event>
 4    1  0.5006371E+003  0.1629862E+03  0.7546771E-02  0.1185366E+00
         21   -1    0    0  501  502  0.00000000000E+00  0.00000000000E+00  0.15818050221E+03  0.15818050221E+03  0.00000000000E+00 0. -1.
          2   -1    0    0  503    0 -0.00000000000E+00 -0.00000000000E+00 -0.21321206175E+03  0.21321206175E+03  0.00000000000E+00 0. -1.
         21    1    1    2  503  502  0.11656750999E+03  0.11391453167E+03  0.58054396157E+02  0.17301681370E+03  0.00000000000E+00 0. -1.
          2    1    1    2  501    0 -0.11656750999E+03 -0.11391453167E+03 -0.11308595570E+03  0.19837575025E+03  0.00000000000E+00 0. -1.
<mgrwt>
<rscale>  2 0.16298621E+03</rscale>
<asrwt>0</asrwt>
<pdfrwt beam="1">  1       21 0.24335462E-01 0.16298621E+03</pdfrwt>
<pdfrwt beam="2">  1        2 0.32801856E-01 0.16298621E+03</pdfrwt>
<totfact> 0.31281091E+04</totfact>
</mgrwt>
</event>
<event>
 4    1  0.5006371E+003  0.1272440E+03  0.7546771E-02  0.1231603E+00
         21   -1    0    0  503  502  0.00000000000E+00  0.00000000000E+00  0.45891708601E+02  0.45891708601E+02  0.00000000000E+00 0.  1.
          4   -1    0    0  502    0 -0.00000000000E+00 -0.00000000000E+00 -0.69367448412E+03  0.69367448412E+03  0.00000000000E+00 0.  1.
         21    1    1    2  503  501  0.55035194704E+02 -0.11472644094E+03 -0.64676216899E+02  0.14273766826E+03  0.00000000000E+00 0.  1.
          4    1    1    2  501    0 -0.55035194704E+02  0.11472644094E+03 -0.58310655862E+03  0.59682852446E+03  0.00000000000E+00 0.  1.
<mgrwt>
<rscale>  2 0.12724397E+03</rscale>
<asrwt>0</asrwt>
<pdfrwt beam="1">  1       21 0.70602633E-02 0.12724397E+03</pdfrwt>
<pdfrwt beam="2">  1        4 0.10671914E+00 0.12724397E+03</pdfrwt>
<totfact> 0.44812840E+03</totfact>
</mgrwt>
</event>
<event>
 4    1  0.5006371E+003  0.1066709E+03  0.7546771E-02  0.1266862E+00
         21   -1    0    0  503  502  0.00000000000E+00  0.00000000000E+00  0.18457984539E+03  0.18457984539E+03  0.00000000000E+00 0. -1.
          1   -1    0    0  502    0 -0.00000000000E+00 -0.00000000000E+00 -0.20934236722E+03  0.20934236722E+03  0.00000000000E+00 0.  1.
         21    1    1    2  503  501  0.10498929216E+03 -0.18866355200E+02  0.15305707982E+03  0.18656141217E+03  0.00000000000E+00 0. -1.
          1    1    1    2  501    0 -0.10498929216E+03  0.18866355200E+02 -0.17781960165E+03  0.20736080044E+03  0.00000000000E+00 0.  1.
<mgrwt>
<rscale>  2 0.10667095E+03</rscale>
<asrwt>0</asrwt>
<pdfrwt beam="1">  1       21 0.28396899E-01 0.10667095E+03</pdfrwt>
<pdfrwt beam="2">  1        1 0.32206518E-01 0.10667095E+03</pdfrwt>
<totfact> 0.17937564E+04</totfact>
</mgrwt>
</event>
<event>
 4    1  0.5006371E+003  0.1043724E+03  0.7546771E-02  0.1271361E+00
         -2   -1    0    0    0  501 -0.00000000000E+00  0.00000000000E+00  0.20901950026E+03  0.20901950026E+03  0.00000000000E+00 0.  1.
         21   -1    0    0  501  502  0.00000000000E+00 -0.00000000000E+00 -0.17221305503E+03  0.17221305503E+03  0.00000000000E+00 0. -1.
         21    1    1    2  503  502 -0.14164654523E+02  0.10340681667E+03 -0.14077737360E+03  0.17524804161E+03  0.00000000000E+00 0. -1.
         -2    1    1    2    0  503  0.14164654523E+02 -0.10340681667E+03  0.17758381882E+03  0.20598451369E+03  0.00000000000E+00 0.  1.
<mgrwt>
<rscale>  2 0.10437244E+03</rscale>
<asrwt>0</asrwt>
<pdfrwt beam="2">  1       21 0.26494316E-01 0.10437244E+03</pdfrwt>
<pdfrwt beam="1">  1       -2 0.32156846E-01 0.10437244E+03</pdfrwt>
<totfact> 0.98322607E+03</totfact>
</mgrwt>
</event>
<event>
 4    1  0.5006371E+003  0.1281852E+03  0.7546771E-02  0.1230174E+00
         -1   -1    0    0    0  501 -0.00000000000E+00  0.00000000000E+00  0.16681163244E+03  0.16681163244E+03  0.00000000000E+00 0. -1.
         21   -1    0    0  503  502  0.00000000000E+00 -0.00000000000E+00 -0.21131906271E+03  0.21131906271E+03  0.00000000000E+00 0.  1.
         21    1    1    2  503  501 -0.20334358629E+02  0.12656208268E+03 -0.16039645362E+03  0.20532527669E+03  0.00000000000E+00 0.  1.
         -1    1    1    2    0  502  0.20334358629E+02 -0.12656208268E+03  0.11588902336E+03  0.17280541846E+03  0.00000000000E+00 0. -1.
<mgrwt>
<rscale>  2 0.12818521E+03</rscale>
<asrwt>0</asrwt>
<pdfrwt beam="2">  1       21 0.32510625E-01 0.12818521E+03</pdfrwt>
<pdfrwt beam="1">  1       -1 0.25663328E-01 0.12818521E+03</pdfrwt>
<totfact> 0.11110190E+04</totfact>
</mgrwt>
</event>
<event>
 4    1  0.5006371E+003  0.1109504E+03  0.7546771E-02  0.1258820E+00
         21   -1    0    0  503  502  0.00000000000E+00  0.00000000000E+00  0.12227607368E+02  0.12227607368E+02  0.00000000000E+00 0.  1.
          2   -1    0    0  502    0 -0.00000000000E+00 -0.00000000000E+00 -0.14456594019E+04  0.14456594019E+04  0.00000000000E+00 0.  1.
         21    1    1    2  503  501  0.65449381930E+02 -0.89590051275E+02 -0.31505997016E+03  0.33402512433E+03  0.00000000000E+00 0.  1.
          2    1    1    2  501    0 -0.65449381930E+02  0.89590051275E+02 -0.11183718243E+04  0.11238618849E+04  0.00000000000E+00 0.  1.
<mgrwt>
<rscale>  2 0.11095043E+03</rscale>
<asrwt>0</asrwt>
<pdfrwt beam="1">  1       21 0.18811709E-02 0.11095043E+03</pdfrwt>
<pdfrwt beam="2">  1        2 0.22240907E+00 0.11095043E+03</pdfrwt>
<totfact> 0.25288496E+05</totfact>
</mgrwt>
</event>
<event>
 4    1  0.5006371E+003  0.1615431E+03  0.7546771E-02  0.1186965E+00
         21   -1    0    0  501  502  0.00000000000E+00  0.00000000000E+00  0.29370523580E+03  0.29370523580E+03  0.00000000000E+00 0. -1.
         -2   -1    0    0    0  501 -0.00000000000E+00 -0.00000000000E+00 -0.38639926748E+03  0.38639926748E+03  0.00000000000E+00 0. -1.
         21    1    1    2  503  502 -0.93660233362E+02 -0.13162046909E+03  0.25205775696E+03  0.29938152922E+03  0.00000000000E+00 0. -1.
         -2    1    1    2    0  503  0.93660233362E+02  0.13162046909E+03 -0.34475178865E+03  0.38072297405E+03  0.00000000000E+00 0. -1.
<mgrwt>
<rscale>  2 0.16154314E+03</rscale>
<asrwt>0</asrwt>
<pdfrwt beam="1">  1       21 0.45185421E-01 0.16154314E+03</pdfrwt>
<pdfrwt beam="2">  1       -2 0.59446041E-01 0.16154314E+03</pdfrwt>
<totfact> 0.10422724E+03</totfact>
</mgrwt>
</event>
<event>
 4    1  0.5006371E+003  0.1042254E+03  0.7546771E-02  0.1271653E+00
          2   -1    0    0  503    0 -0.00000000000E+00  0.00000000000E+00  0.25474596766E+03  0.25474596766E+03  0.00000000000E+00 0. -1.
         21   -1    0    0  501  502  0.00000000000E+00 -0.00000000000E+00 -0.48965712527E+02  0.48965712527E+02  0.00000000000E+00 0. -1.
         21    1    1    2  503  502 -0.10050828133E+03  0.27586555925E+02  0.48318854222E+02  0.11488100085E+03  0.00000000000E+00 0. -1.
          2    1    1    2  501    0  0.10050828133E+03 -0.27586555925E+02  0.15746140092E+03  0.18883067934E+03  0.00000000000E+00 0. -1.
<mgrwt>
<rscale>  2 0.10422539E+03</rscale>
<asrwt>0</asrwt>
<pdfrwt beam="2">  1       21 0.75331867E-02 0.10422539E+03</pdfrwt>
<pdfrwt beam="1">  1        2 0.39191687E-01 0.10422539E+03</pdfrwt>
<totfact> 0.20910854E+05</totfact>
</mgrwt>
</event>
<event>
 4    1  0.5006371E+003  0.1002723E+03  0.7546771E-02  0.1279724E+00
         21   -1    0    0  501  502  0.00000000000E+00  0.00000000000E+00  0.27427214133E+03  0.27427214133E+03  0.00000000000E+00 0. -1.
         -4   -1    0    0    0  501 -0.00000000000E+00 -0.00000000000E+00 -0.13446424813E+03  0.13446424813E+03  0.00000000000E+00 0. -1.
         21    1    1    2  503  502  0.47055728993E+02 -0.88545437993E+02  0.24420139309E+03  0.26398647050E+03  0.00000000000E+00 0. -1.
         -4    1    1    2    0  503 -0.47055728993E+02  0.88545437993E+02 -0.10439349988E+03  0.14474991896E+03  0.00000000000E+00 0. -1.
<mgrwt>
<rscale>  2 0.10027231E+03</rscale>
<asrwt>0</asrwt>
<pdfrwt beam="1">  1       21 0.42195714E-01 0.10027231E+03</pdfrwt>
<pdfrwt beam="2">  1       -4 0.20686807E-01 0.10027231E+03</pdfrwt>
<totfact> 0.46478994E+03</totfact>
</mgrwt>
</event>
<event>
 4    1  0.5006371E+003  0.1212079E+03  0.7546771E-02  0.1241118E+00
          2   -1    0    0  503    0 -0.00000000000E+00  0.00000000000E+00  0.10438015230E+03  0.10438015230E+03  0.00000000000E+00 0. -1.
         21   -1    0    0  501  502  0.00000000000E+00 -0.00000000000E+00 -0.28168354587E+03  0.28168354587E+03  0.00000000000E+00 0. -1.
         21    1    1    2  503  502 -0.11756756601E+03 -0.29482425207E+02 -0.22519103368E+03  0.25573882698E+03  0.00000000000E+00 0. -1.
          2    1    1    2  501    0  0.11756756601E+03  0.29482425207E+02  0.47887640115E+02  0.13032487118E+03  0.00000000000E+00 0. -1.
<mgrwt>
<rscale>  2 0.12120786E+03</rscale>
<asrwt>0</asrwt>
<pdfrwt beam="2">  1       21 0.43335930E-01 0.12120786E+03</pdfrwt>
<pdfrwt beam="1">  1        2 0.16058485E-01 0.12120786E+03</pdfrwt>
<totfact> 0.22499360E+04</totfact>
</mgrwt>
</event>
<event>
 4    1  0.5006371E+003  0.1216913E+03  0.7546771E-02  0.1240333E+00
         21   -1    0    0  501  502  0.00000000000E+00  0.00000000000E+00  0.17292418111E+02  0.17292418111E+02  0.00000000000E+00 0.  1.
          2   -1    0    0  503    0 -0.00000000000E+00 -0.00000000000E+00 -0.14851807945E+04  0.14851807945E+04  0.00000000000E+00 0.  1.
         21    1    1    2  503  502 -0.12128579068E+03 -0.99264290758E+01 -0.24512786751E+03  0.27367215504E+03  0.00000000000E+00 0.  1.
          2    1    1    2  501    0  0.12128579068E+03  0.99264290758E+01 -0.12227605089E+04  0.12288010576E+04  0.00000000000E+00 0.  1.
<mgrwt>
<rscale>  2 0.12169132E+03</rscale>
<asrwt>0</asrwt>
<pdfrwt beam="1">  1       21 0.26603708E-02 0.12169132E+03</pdfrwt>
<pdfrwt beam="2">  1        2 0.22848946E+00 0.12169132E+03</pdfrwt>
<totfact> 0.13793433E+05</totfact>
</mgrwt>
</event>
<event>
 4    1  0.5006371E+003  0.2010560E+03  0.7546771E-02  0.1148851E+00
         21   -1    0    0  501  502  0.00000000000E+00  0.00000000000E+00  0.11873976196E+03  0.11873976196E+03  0.00000000000E+00 0. -1.
          2   -1    0    0  503    0 -0.00000000000E+00 -0.00000000000E+00 -0.29600210628E+04  0.29600210628E+04  0.00000000000E+00 0.  1.
         21    1    1    2  503  502  0.15500950126E+03 -0.12804516330E+03  0.27513037953E+02  0.20292973312E+03  0.00000000000E+00 0. -1.
          2    1    1    2  501    0 -0.15500950126E+03  0.12804516330E+03 -0.28687943388E+04  0.28758310917E+04  0.00000000000E+00 0.  1.
<mgrwt>
<rscale>  2 0.20105599E+03</rscale>
<asrwt>0</asrwt>
<pdfrwt beam="1">  1       21 0.18267655E-01 0.20105599E+03</pdfrwt>
<pdfrwt beam="2">  1        2 0.45538786E+00 0.20105599E+03</pdfrwt>
<totfact> 0.78645512E+02</totfact>
</mgrwt>
</event>
<event>
 4    1  0.5006371E+003  0.1163145E+03  0.7546771E-02  0.1249304E+00
          3   -1    0    0  502    0 -0.00000000000E+00  0.00000000000E+00  0.34058970639E+03  0.34058970639E+03  0.00000000000E+00 0.  1.
         21   -1    0    0  503  502  0.00000000000E+00 -0.00000000000E+00 -0.12210369544E+03  0.12210369544E+03  0.00000000000E+00 0.  1.
         21    1    1    2  503  501  0.10332218204E+03  0.53418994803E+02 -0.80783003338E+02  0.14161552152E+03  0.00000000000E+00 0.  1.
          3    1    1    2  501    0 -0.10332218204E+03 -0.53418994803E+02  0.29926901429E+03  0.32107788031E+03  0.00000000000E+00 0.  1.
<mgrwt>
<rscale>  2 0.11631450E+03</rscale>
<asrwt>0</asrwt>
<pdfrwt beam="2">  1       21 0.18785184E-01 0.11631450E+03</pdfrwt>
<pdfrwt beam="1">  1        3 0.52398416E-01 0.11631450E+03</pdfrwt>
<totfact> 0.45772445E+03</totfact>
</mgrwt>
</event>
<event>
 4    1  0.5006371E+003  0.1061276E+03  0.7546771E-02  0.1267914E+00
         21   -1    0    0  501  502  0.00000000000E+00  0.00000000000E+00  0.38900140702E+03  0.38900140702E+03  0.00000000000E+00 0.  1.
          2   -1    0    0  503    0 -0.00000000000E+00 -0.00000000000E+00 -0.16004768159E+04  0.16004768159E+04  0.00000000000E+00 0. -1.
         21    1    1    2  503  502 -0.46838910611E+02 -0.95232254638E+02  0.37996256285E+03  0.39450553233E+03  0.00000000000E+00 0.  1.
          2    1    1    2  501    0  0.46838910611E+02  0.95232254638E+02 -0.15914379717E+04  0.15949726906E+04  0.00000000000E+00 0. -1.
<mgrwt>
<rscale>  2 0.10612759E+03</rscale>
<asrwt>0</asrwt>
<pdfrwt beam="1">  1       21 0.59846372E-01 0.10612759E+03</pdfrwt>
<pdfrwt beam="2">  1        2 0.24622719E+00 0.10612759E+03</pdfrwt>
<totfact> 0.44226213E+02</totfact>
</mgrwt>
</event>
<event>
 4    1  0.5006371E+003  0.1270713E+03  0.7546771E-02  0.1231867E+00
         21   -1    0    0  501  502  0.00000000000E+00  0.00000000000E+00  0.80786825567E+02  0.80786825567E+02  0.00000000000E+00 0. -1.
          2   -1    0    0  503    0 -0.00000000000E+00 -0.00000000000E+00 -0.53083559412E+03  0.53083559412E+03  0.00000000000E+00 0. -1.
         21    1    1    2  503  502 -0.12653164604E+03  0.11698125734E+02  0.16445432090E+02  0.12813101043E+03  0.00000000000E+00 0. -1.
          2    1    1    2  501    0  0.12653164604E+03 -0.11698125734E+02 -0.46649420065E+03  0.48349140926E+03  0.00000000000E+00 0. -1.
<mgrwt>
<rscale>  2 0.12707125E+03</rscale>
<asrwt>0</asrwt>
<pdfrwt beam="1">  1       21 0.12428743E-01 0.12707125E+03</pdfrwt>
<pdfrwt beam="2">  1        2 0.81667012E-01 0.12707125E+03</pdfrwt>
<totfact> 0.40254608E+04</totfact>
</mgrwt>
</event>
<event>
 4    1  0.5006371E+003  0.1084528E+03  0.7546771E-02  0.1263462E+00
         -3   -1    0    0    0  501 -0.00000000000E+00  0.00000000000E+00  0.37952056714E+03  0.37952056714E+03  0.00000000000E+00 0. -1.
         21   -1    0    0  503  502  0.00000000000E+00 -0.00000000000E+00 -0.30731096499E+03  0.30731096499E+03  0.00000000000E+00 0. -1.
         21    1    1    2  503  501  0.10462638075E+03  0.28554010493E+02 -0.28953444096E+03  0.30917988868E+03  0.00000000000E+00 0. -1.
         -3    1    1    2    0  502 -0.10462638075E+03 -0.28554010493E+02  0.36174404311E+03  0.37765164344E+03  0.00000000000E+00 0. -1.
<mgrwt>
<rscale>  2 0.10845281E+03</rscale>
<asrwt>0</asrwt>
<pdfrwt beam="2">  1       21 0.47278610E-01 0.10845281E+03</pdfrwt>
<pdfrwt beam="1">  1       -3 0.58387779E-01 0.10845281E+03</pdfrwt>
<totfact> 0.62128034E+02</totfact>
</mgrwt>
</event>
<event>
 4    1  0.5006371E+003  0.1247657E+03  0.7546771E-02  0.1235436E+00
          2   -1    0    0  503    0 -0.00000000000E+00  0.00000000000E+00  0.40800043523E+02  0.40800043523E+02  0.00000000000E+00 0.  1.
         21   -1    0    0  501  502  0.00000000000E+00 -0.00000000000E+00 -0.38200000189E+03  0.38200000189E+03  0.00000000000E+00 0.  1.
         21    1    1    2  503  502 -0.16397475839E+02 -0.12368350882E+03 -0.16319386018E+03  0.20542327904E+03  0.00000000000E+00 0.  1.
          2    1    1    2  501    0  0.16397475839E+02  0.12368350882E+03 -0.17800609818E+03  0.21737676637E+03  0.00000000000E+00 0.  1.
<mgrwt>
<rscale>  2 0.12476573E+03</rscale>
<asrwt>0</asrwt>
<pdfrwt beam="2">  1       21 0.58769230E-01 0.12476573E+03</pdfrwt>
<pdfrwt beam="1">  1        2 0.62769299E-02 0.12476573E+03</pdfrwt>
<totfact> 0.37791123E+04</totfact>
</mgrwt>
</event>
<event>
 4    1  0.5006371E+003  0.1006072E+03  0.7546771E-02  0.1279024E+00
          2   -1    0    0  503    0 -0.00000000000E+00  0.00000000000E+00  0.39205745633E+03  0.39205745633E+03  0.00000000000E+00 0.  1.
         21   -1    0    0  501  502  0.00000000000E+00 -0.00000000000E+00 -0.38834215798E+02  0.38834215798E+02  0.00000000000E+00 0. -1.
         21    1    1    2  503  502  0.67142563437E+02  0.74924586867E+02  0.51877031158E+02  0.11319471677E+03  0.00000000000E+00 0. -1.
          2    1    1    2  501    0 -0.67142563437E+02 -0.74924586867E+02  0.30134620937E+03  0.31769695536E+03  0.00000000000E+00 0.  1.
<mgrwt>
<rscale>  2 0.10060724E+03</rscale>
<asrwt>0</asrwt>
<pdfrwt beam="2">  1       21 0.59744950E-02 0.10060724E+03</pdfrwt>
<pdfrwt beam="1">  1        2 0.60316529E-01 0.10060724E+03</pdfrwt>
<totfact> 0.19655215E+05</totfact>
</mgrwt>
</event>
<event>
 4    1  0.5006371E+003  0.1048603E+03  0.7546771E-02  0.1270395E+00
         21   -1    0    0  503  502  0.00000000000E+00  0.00000000000E+00  0.16748070204E+02  0.16748070204E+02  0.00000000000E+00 0. -1.
          2   -1    0    0  502    0 -0.00000000000E+00 -0.00000000000E+00 -0.19066004011E+04  0.19066004011E+04  0.00000000000E+00 0. -1.
         21    1    1    2  503  501 -0.10443681067E+03 -0.94151745554E+01 -0.16623630019E+03  0.19654567010E+03  0.00000000000E+00 0. -1.
          2    1    1    2  501    0  0.10443681067E+03  0.94151745554E+01 -0.17236160307E+04  0.17268028012E+04  0.00000000000E+00 0. -1.
<mgrwt>
<rscale>  2 0.10486035E+03</rscale>
<asrwt>0</asrwt>
<pdfrwt beam="1">  1       21 0.25766275E-02 0.10486035E+03</pdfrwt>
<pdfrwt beam="2">  1        2 0.29332299E+00 0.10486035E+03</pdfrwt>
<totfact> 0.88669081E+04</totfact>
</mgrwt>
</event>
<event>
 4    1  0.5006371E+003  0.1240800E+03  0.7546771E-02  0.1236514E+00
         -3   -1    0    0    0  501 -0.00000000000E+00  0.00000000000E+00  0.33006342720E+03  0.33006342720E+03  0.00000000000E+00 0.  1.
         21   -1    0    0  503  502  0.00000000000E+00 -0.00000000000E+00 -0.59995127670E+03  0.59995127670E+03  0.00000000000E+00 0.  1.
         21    1    1    2  503  501  0.11791925166E+03 -0.38612158065E+02 -0.58150881921E+03  0.59459932348E+03  0.00000000000E+00 0.  1.
         -3    1    1    2    0  502 -0.11791925166E+03  0.38612158065E+02  0.31162096971E+03  0.33541538042E+03  0.00000000000E+00 0.  1.
<mgrwt>
<rscale>  2 0.12408001E+03</rscale>
<asrwt>0</asrwt>
<pdfrwt beam="2">  1       21 0.92300196E-01 0.12408001E+03</pdfrwt>
<pdfrwt beam="1">  1       -3 0.50778989E-01 0.12408001E+03</pdfrwt>
<totfact> 0.19391613E+02</totfact>
</mgrwt>
</event>
<event>
 4    1  0.5006371E+003  0.1143155E+03  0.7546771E-02  0.1252781E+00
          1   -1    0    0  502    0 -0.00000000000E+00  0.00000000000E+00  0.20905857100E+03  0.20905857100E+03  0.00000000000E+00 0.  1.
         21   -1    0    0  503  502  0.00000000000E+00 -0.00000000000E+00 -0.20633768486E+03  0.20633768486E+03  0.00000000000E+00 0. -1.
         21    1    1    2  503  501 -0.23426726136E+02 -0.11188937786E+03 -0.17204632519E+03  0.20656229663E+03  0.00000000000E+00 0. -1.
          1    1    1    2  501    0  0.23426726136E+02  0.11188937786E+03  0.17476721133E+03  0.20883395924E+03  0.00000000000E+00 0.  1.
<mgrwt>
<rscale>  2 0.11431555E+03</rscale>
<asrwt>0</asrwt>
<pdfrwt beam="2">  1       21 0.31744259E-01 0.11431555E+03</pdfrwt>
<pdfrwt beam="1">  1        1 0.32162857E-01 0.11431555E+03</pdfrwt>
<totfact> 0.14496107E+04</totfact>
</mgrwt>
</event>
<event>
 4    1  0.5006371E+003  0.1903612E+03  0.7546771E-02  0.1158136E+00
         21   -1    0    0  503  502  0.00000000000E+00  0.00000000000E+00  0.11470698674E+02  0.11470698674E+02  0.00000000000E+00 0. -1.
          2   -1    0    0  502    0 -0.00000000000E+00 -0.00000000000E+00 -0.31602622391E+04  0.31602622391E+04  0.00000000000E+00 0. -1.
         21    1    1    2  503  501 -0.18797349976E+03  0.30055667184E+02 -0.15443222337E+04  0.15560104566E+04  0.00000000000E+00 0. -1.
          2    1    1    2  501    0  0.18797349976E+03 -0.30055667184E+02 -0.16044693068E+04  0.16157224812E+04  0.00000000000E+00 0. -1.
<mgrwt>
<rscale>  2 0.19036118E+03</rscale>
<asrwt>0</asrwt>
<pdfrwt beam="1">  1       21 0.17647225E-02 0.19036118E+03</pdfrwt>
<pdfrwt beam="2">  1        2 0.48619428E+00 0.19036118E+03</pdfrwt>
<totfact> 0.33290876E+04</totfact>
</mgrwt>
</event>
<event>
 4    1  0.5006371E+003  0.1049316E+03  0.7546771E-02  0.1270254E+00
          2   -1    0    0  503    0 -0.00000000000E+00  0.00000000000E+00  0.75673629185E+03  0.75673629185E+03  0.00000000000E+00 0.  1.
         21   -1    0    0  501  502  0.00000000000E+00 -0.00000000000E+00 -0.12653742746E+03  0.12653742746E+03  0.00000000000E+00 0. -1.
         21    1    1    2  503  502  0.89856622357E+02 -0.54188895886E+02 -0.10037097762E+03  0.14520668775E+03  0.00000000000E+00 0. -1.
          2    1    1    2  501    0 -0.89856622357E+02  0.54188895886E+02  0.73056984201E+03  0.73806703156E+03  0.00000000000E+00 0.  1.
<mgrwt>
<rscale>  2 0.10493164E+03</rscale>
<asrwt>0</asrwt>
<pdfrwt beam="2">  1       21 0.19467297E-01 0.10493164E+03</pdfrwt>
<pdfrwt beam="1">  1        2 0.11642096E+00 0.10493164E+03</pdfrwt>
<totfact> 0.11960114E+04</totfact>
</mgrwt>
</event>
<event>
 4    1  0.5006371E+003  0.1041550E+03  0.7546771E-02  0.1271794E+00
         21   -1    0    0  501  502  0.00000000000E+00  0.00000000000E+00  0.17968965647E+02  0.17968965647E+02  0.00000000000E+00 0.  1.
          1   -1    0    0  503    0 -0.00000000000E+00 -0.00000000000E+00 -0.19775036388E+04  0.19775036388E+04  0.00000000000E+00 0.  1.
         21    1    1    2  503  502  0.10407754677E+03 -0.40147902014E+01 -0.14816436704E+03  0.18111028116E+03  0.00000000000E+00 0.  1.
          1    1    1    2  501    0 -0.10407754677E+03  0.40147902014E+01 -0.18113703061E+04  0.18143623233E+04  0.00000000000E+00 0.  1.
<mgrwt>
<rscale>  2 0.10415495E+03</rscale>
<asrwt>0</asrwt>
<pdfrwt beam="1">  1       21 0.27644570E-02 0.10415495E+03</pdfrwt>
<pdfrwt beam="2">  1        1 0.30423125E+00 0.10415495E+03</pdfrwt>
<totfact> 0.29629902E+04</totfact>
</mgrwt>
</event>
<event>
 4    1  0.5006371E+003  0.1015830E+03  0.7546771E-02  0.1277002E+00
          1   -1    0    0  503    0 -0.00000000000E+00  0.00000000000E+00  0.34195448761E+03  0.34195448761E+03  0.00000000000E+00 0. -1.
         21   -1    0    0  501  502  0.00000000000E+00 -0.00000000000E+00 -0.13545392135E+03  0.13545392135E+03  0.00000000000E+00 0.  1.
         21    1    1    2  503  502  0.92124623847E+02 -0.42803717761E+02 -0.10719112707E+03  0.14767884850E+03  0.00000000000E+00 0.  1.
          1    1    1    2  501    0 -0.92124623847E+02  0.42803717761E+02  0.31369169333E+03  0.32972956046E+03  0.00000000000E+00 0. -1.
<mgrwt>
<rscale>  2 0.10158299E+03</rscale>
<asrwt>0</asrwt>
<pdfrwt beam="2">  1       21 0.20839065E-01 0.10158299E+03</pdfrwt>
<pdfrwt beam="1">  1        1 0.52608382E-01 0.10158299E+03</pdfrwt>
<totfact> 0.17544969E+04</totfact>
</mgrwt>
</event>
<event>
 4    1  0.5006371E+003  0.1408304E+03  0.7546771E-02  0.1212216E+00
         21   -1    0    0  503  502  0.00000000000E+00  0.00000000000E+00  0.55418620835E+02  0.55418620835E+02  0.00000000000E+00 0. -1.
          1   -1    0    0  502    0 -0.00000000000E+00 -0.00000000000E+00 -0.27811487826E+04  0.27811487826E+04  0.00000000000E+00 0. -1.
         21    1    1    2  503  501 -0.55688753242E+02 -0.12935209674E+03 -0.38975339231E+02  0.14612419114E+03  0.00000000000E+00 0. -1.
          1    1    1    2  501    0  0.55688753242E+02  0.12935209674E+03 -0.26867548225E+04  0.26904432123E+04  0.00000000000E+00 0. -1.
<mgrwt>
<rscale>  2 0.14083040E+03</rscale>
<asrwt>0</asrwt>
<pdfrwt beam="1">  1       21 0.85259434E-02 0.14083040E+03</pdfrwt>
<pdfrwt beam="2">  1        1 0.42786896E+00 0.14083040E+03</pdfrwt>
<totfact> 0.13258499E+03</totfact>
</mgrwt>
</event>
<event>
 4    1  0.5006371E+003  0.1054133E+03  0.7546771E-02  0.1269307E+00
         -1   -1    0    0    0  501 -0.00000000000E+00  0.00000000000E+00  0.35705129961E+03  0.35705129961E+03  0.00000000000E+00 0.  1.
         21   -1    0    0  501  502  0.00000000000E+00 -0.00000000000E+00 -0.97736420765E+02  0.97736420765E+02  0.00000000000E+00 0. -1.
         21    1    1    2  503  502 -0.67790898329E+02  0.80723981470E+02 -0.58073702504E+02  0.12035165974E+03  0.00000000000E+00 0. -1.
         -1    1    1    2    0  503  0.67790898329E+02 -0.80723981470E+02  0.31738858135E+03  0.33443606063E+03  0.00000000000E+00 0.  1.
<mgrwt>
<rscale>  2 0.10541332E+03</rscale>
<asrwt>0</asrwt>
<pdfrwt beam="2">  1       21 0.15036373E-01 0.10541332E+03</pdfrwt>
<pdfrwt beam="1">  1       -1 0.54930968E-01 0.10541332E+03</pdfrwt>
<totfact> 0.12501111E+04</totfact>
</mgrwt>
</event>
<event>
 4    1  0.5006371E+003  0.1108736E+03  0.7546771E-02  0.1258961E+00
          2   -1    0    0  503    0 -0.00000000000E+00  0.00000000000E+00  0.25782140561E+03  0.25782140561E+03  0.00000000000E+00 0. -1.
         21   -1    0    0  501  502  0.00000000000E+00 -0.00000000000E+00 -0.69654944039E+02  0.69654944039E+02  0.00000000000E+00 0. -1.
         21    1    1    2  503  502  0.10520678450E+03  0.34992632062E+02  0.21152146766E+01  0.11089375969E+03  0.00000000000E+00 0. -1.
          2    1    1    2  501    0 -0.10520678450E+03 -0.34992632062E+02  0.18605124689E+03  0.21658258996E+03  0.00000000000E+00 0. -1.
<mgrwt>
<rscale>  2 0.11087358E+03</rscale>
<asrwt>0</asrwt>
<pdfrwt beam="2">  1       21 0.10716145E-01 0.11087358E+03</pdfrwt>
<pdfrwt beam="1">  1        2 0.39664831E-01 0.11087358E+03</pdfrwt>
<totfact> 0.11260852E+05</totfact>
</mgrwt>
</event>
<event>
 4    1  0.5006371E+003  0.1019605E+03  0.7546771E-02  0.1276226E+00
          2   -1    0    0  502    0 -0.00000000000E+00  0.00000000000E+00  0.10459523887E+04  0.10459523887E+04  0.00000000000E+00 0.  1.
         21   -1    0    0  503  502  0.00000000000E+00 -0.00000000000E+00 -0.13836368999E+02  0.13836368999E+02  0.00000000000E+00 0.  1.
         21    1    1    2  503  501 -0.99132483369E+02  0.23847401243E+02  0.23483431181E+03  0.25601387034E+03  0.00000000000E+00 0.  1.
          2    1    1    2  501    0  0.99132483369E+02 -0.23847401243E+02  0.79728170789E+03  0.80377488735E+03  0.00000000000E+00 0.  1.
<mgrwt>
<rscale>  2 0.10196052E+03</rscale>
<asrwt>0</asrwt>
<pdfrwt beam="2">  1       21 0.21286730E-02 0.10196052E+03</pdfrwt>
<pdfrwt beam="1">  1        2 0.16091569E+00 0.10196052E+03</pdfrwt>
<totfact> 0.34072417E+05</totfact>
</mgrwt>
</event>
<event>
 4    1  0.5006371E+003  0.1039240E+03  0.7546771E-02  0.1272254E+00
         21   -1    0    0  501  502  0.00000000000E+00  0.00000000000E+00  0.51670028012E+02  0.51670028012E+02  0.00000000000E+00 0.  1.
          2   -1    0    0  503    0 -0.00000000000E+00 -0.00000000000E+00 -0.41325298565E+03  0.41325298565E+03  0.00000000000E+00 0.  1.
         21    1    1    2  503  502  0.52970721931E+02 -0.89410822234E+02 -0.17372137607E+02  0.10536595123E+03  0.00000000000E+00 0.  1.
          2    1    1    2  501    0 -0.52970721931E+02  0.89410822234E+02 -0.34421082003E+03  0.35955706242E+03  0.00000000000E+00 0.  1.
<mgrwt>
<rscale>  2 0.10392397E+03</rscale>
<asrwt>0</asrwt>
<pdfrwt beam="1">  1       21 0.79492350E-02 0.10392397E+03</pdfrwt>
<pdfrwt beam="2">  1        2 0.63577383E-01 0.10392397E+03</pdfrwt>
<totfact> 0.11460453E+05</totfact>
</mgrwt>
</event>
<event>
 4    1  0.5006371E+003  0.1437465E+03  0.7546771E-02  0.1208375E+00
         21   -1    0    0  501  502  0.00000000000E+00  0.00000000000E+00  0.15042135417E+02  0.15042135417E+02  0.00000000000E+00 0. -1.
          4   -1    0    0  503    0 -0.00000000000E+00 -0.00000000000E+00 -0.14608829949E+04  0.14608829949E+04  0.00000000000E+00 0. -1.
         21    1    1    2  503  502  0.11295603445E+03  0.88904410988E+02 -0.54262043255E+03  0.56133768254E+03  0.00000000000E+00 0. -1.
          4    1    1    2  501    0 -0.11295603445E+03 -0.88904410988E+02 -0.90322042694E+03  0.91458744779E+03  0.00000000000E+00 0. -1.
<mgrwt>
<rscale>  2 0.14374651E+03</rscale>
<asrwt>0</asrwt>
<pdfrwt beam="1">  1       21 0.23141743E-02 0.14374651E+03</pdfrwt>
<pdfrwt beam="2">  1        4 0.22475126E+00 0.14374651E+03</pdfrwt>
<totfact> 0.41283954E+03</totfact>
</mgrwt>
</event>
<event>
 4    1  0.5006371E+003  0.1041994E+03  0.7546771E-02  0.1271705E+00
         21   -1    0    0  503  502  0.00000000000E+00  0.00000000000E+00  0.86987684238E+02  0.86987684238E+02  0.00000000000E+00 0. -1.
          2   -1    0    0  502    0 -0.00000000000E+00 -0.00000000000E+00 -0.18958010573E+03  0.18958010573E+03  0.00000000000E+00 0. -1.
         21    1    1    2  503  501  0.24356069542E+02 -0.10131284453E+03  0.29527774184E+02  0.10830235473E+03  0.00000000000E+00 0. -1.
          2    1    1    2  501    0 -0.24356069542E+02  0.10131284453E+03 -0.13212019568E+03  0.16826543524E+03  0.00000000000E+00 0. -1.
<mgrwt>
<rscale>  2 0.10419938E+03</rscale>
<asrwt>0</asrwt>
<pdfrwt beam="1">  1       21 0.13382721E-01 0.10419938E+03</pdfrwt>
<pdfrwt beam="2">  1        2 0.29166170E-01 0.10419938E+03</pdfrwt>
<totfact> 0.10534162E+05</totfact>
</mgrwt>
</event>
<event>
 4    1  0.5006371E+003  0.1249472E+03  0.7546771E-02  0.1235152E+00
         21   -1    0    0  501  502  0.00000000000E+00  0.00000000000E+00  0.23278296802E+02  0.23278296802E+02  0.00000000000E+00 0.  1.
          2   -1    0    0  503    0 -0.00000000000E+00 -0.00000000000E+00 -0.80821571111E+03  0.80821571111E+03  0.00000000000E+00 0. -1.
         21    1    1    2  503  502  0.11376017856E+03 -0.51676157690E+02 -0.22095213524E+03  0.25383390153E+03  0.00000000000E+00 0.  1.
          2    1    1    2  501    0 -0.11376017856E+03  0.51676157690E+02 -0.56398527907E+03  0.57766010639E+03  0.00000000000E+00 0. -1.
<mgrwt>
<rscale>  2 0.12494720E+03</rscale>
<asrwt>0</asrwt>
<pdfrwt beam="1">  1       21 0.35812763E-02 0.12494720E+03</pdfrwt>
<pdfrwt beam="2">  1        2 0.12434088E+00 0.12494720E+03</pdfrwt>
<totfact> 0.20641757E+05</totfact>
</mgrwt>
</event>
<event>
 4    1  0.5006371E+003  0.1026318E+03  0.7546771E-02  0.1274857E+00
          2   -1    0    0  502    0 -0.00000000000E+00  0.00000000000E+00  0.21839867526E+03  0.21839867526E+03  0.00000000000E+00 0.  1.
         21   -1    0    0  503  502  0.00000000000E+00 -0.00000000000E+00 -0.19792649422E+03  0.19792649422E+03  0.00000000000E+00 0. -1.
         21    1    1    2  503  501  0.10216883174E+03 -0.97368636081E+01 -0.17079665074E+03  0.19926056458E+03  0.00000000000E+00 0. -1.
          2    1    1    2  501    0 -0.10216883174E+03  0.97368636081E+01  0.19126883177E+03  0.21706460490E+03  0.00000000000E+00 0.  1.
<mgrwt>
<rscale>  2 0.10263175E+03</rscale>
<asrwt>0</asrwt>
<pdfrwt beam="2">  1       21 0.30450230E-01 0.10263175E+03</pdfrwt>
<pdfrwt beam="1">  1        2 0.33599796E-01 0.10263175E+03</pdfrwt>
<totfact> 0.19906215E+04</totfact>
</mgrwt>
</event>
<event>
 4    1  0.5006371E+003  0.1156574E+03  0.7546771E-02  0.1250438E+00
          2   -1    0    0  502    0 -0.00000000000E+00  0.00000000000E+00  0.24194660812E+04  0.24194660812E+04  0.00000000000E+00 0. -1.
         21   -1    0    0  503  502  0.00000000000E+00 -0.00000000000E+00 -0.13293541360E+02  0.13293541360E+02  0.00000000000E+00 0.  1.
         21    1    1    2  503  501 -0.11055672298E+03 -0.33968203641E+02  0.27344863273E+03  0.29690197473E+03  0.00000000000E+00 0.  1.
          2    1    1    2  501    0  0.11055672298E+03  0.33968203641E+02  0.21327239071E+04  0.21358576479E+04  0.00000000000E+00 0. -1.
<mgrwt>
<rscale>  2 0.11565737E+03</rscale>
<asrwt>0</asrwt>
<pdfrwt beam="2">  1       21 0.20451621E-02 0.11565737E+03</pdfrwt>
<pdfrwt beam="1">  1        2 0.37222520E+00 0.11565737E+03</pdfrwt>
<totfact> 0.70142220E+04</totfact>
</mgrwt>
</event>
<event>
 4    1  0.5006371E+003  0.1092558E+03  0.7546771E-02  0.1261954E+00
          2   -1    0    0  502    0 -0.00000000000E+00  0.00000000000E+00  0.12219746402E+04  0.12219746402E+04  0.00000000000E+00 0.  1.
         21   -1    0    0  503  502  0.00000000000E+00 -0.00000000000E+00 -0.11785050863E+02  0.11785050863E+02  0.00000000000E+00 0.  1.
         21    1    1    2  503  501  0.91900385560E+02 -0.59085875752E+02  0.34991706887E+03  0.36657710876E+03  0.00000000000E+00 0.  1.
          2    1    1    2  501    0 -0.91900385560E+02  0.59085875752E+02  0.86027252047E+03  0.86718258231E+03  0.00000000000E+00 0.  1.
<mgrwt>
<rscale>  2 0.10925576E+03</rscale>
<asrwt>0</asrwt>
<pdfrwt beam="2">  1       21 0.18130857E-02 0.10925576E+03</pdfrwt>
<pdfrwt beam="1">  1        2 0.18799600E+00 0.10925576E+03</pdfrwt>
<totfact> 0.35243204E+05</totfact>
</mgrwt>
</event>
<event>
 4    1  0.5006371E+003  0.1158341E+03  0.7546771E-02  0.1250132E+00
         21   -1    0    0  501  502  0.00000000000E+00  0.00000000000E+00  0.86262911386E+03  0.86262911386E+03  0.00000000000E+00 0. -1.
         -1   -1    0    0    0  501 -0.00000000000E+00 -0.00000000000E+00 -0.28543861125E+02  0.28543861125E+02  0.00000000000E+00 0. -1.
         21    1    1    2  503  502 -0.59263247666E+02  0.99525849115E+02  0.71763236328E+03  0.72692072194E+03  0.00000000000E+00 0. -1.
         -1    1    1    2    0  503  0.59263247666E+02 -0.99525849115E+02  0.11645288945E+03  0.16425225304E+03  0.00000000000E+00 0. -1.
<mgrwt>
<rscale>  2 0.11583405E+03</rscale>
<asrwt>0</asrwt>
<pdfrwt beam="1">  1       21 0.13271215E+00 0.11583405E+03</pdfrwt>
<pdfrwt beam="2">  1       -1 0.43913639E-02 0.11583405E+03</pdfrwt>
<totfact> 0.78726006E+03</totfact>
</mgrwt>
</event>
<event>
 4    1  0.5006371E+003  0.1024700E+03  0.7546771E-02  0.1275186E+00
         -2   -1    0    0    0  501 -0.00000000000E+00  0.00000000000E+00  0.15968127132E+03  0.15968127132E+03  0.00000000000E+00 0. -1.
         21   -1    0    0  503  502  0.00000000000E+00 -0.00000000000E+00 -0.71007712037E+02  0.71007712037E+02  0.00000000000E+00 0.  1.
         21    1    1    2  503  501 -0.43145613684E+02 -0.92943860023E+02  0.12970156133E+02  0.10328760839E+03  0.00000000000E+00 0.  1.
         -2    1    1    2    0  502  0.43145613684E+02  0.92943860023E+02  0.75703403153E+02  0.12740137497E+03  0.00000000000E+00 0. -1.
<mgrwt>
<rscale>  2 0.10247002E+03</rscale>
<asrwt>0</asrwt>
<pdfrwt beam="2">  1       21 0.10924263E-01 0.10247002E+03</pdfrwt>
<pdfrwt beam="1">  1       -2 0.24566349E-01 0.10247002E+03</pdfrwt>
<totfact> 0.78912466E+04</totfact>
</mgrwt>
</event>
<event>
 4    1  0.5006371E+003  0.2401712E+03  0.7546771E-02  0.1119679E+00
          2   -1    0    0  502    0 -0.00000000000E+00  0.00000000000E+00  0.31464427661E+04  0.31464427661E+04  0.00000000000E+00 0. -1.
         21   -1    0    0  503  502  0.00000000000E+00 -0.00000000000E+00 -0.49244222059E+03  0.49244222059E+03  0.00000000000E+00 0. -1.
         21    1    1    2  503  501  0.22347159213E+03 -0.87992247500E+02 -0.45825415563E+03  0.51737709580E+03  0.00000000000E+00 0. -1.
          2    1    1    2  501    0 -0.22347159213E+03  0.87992247500E+02  0.31122547012E+04  0.31215078909E+04  0.00000000000E+00 0. -1.
<mgrwt>
<rscale>  2 0.24017116E+03</rscale>
<asrwt>0</asrwt>
<pdfrwt beam="2">  1       21 0.75760344E-01 0.24017116E+03</pdfrwt>
<pdfrwt beam="1">  1        2 0.48406810E+00 0.24017116E+03</pdfrwt>
<totfact> 0.33136251E+01</totfact>
</mgrwt>
</event>
<event>
 4    1  0.5006371E+003  0.1069735E+03  0.7546771E-02  0.1266279E+00
         -2   -1    0    0    0  501 -0.00000000000E+00  0.00000000000E+00  0.53883190382E+03  0.53883190382E+03  0.00000000000E+00 0.  1.
         21   -1    0    0  503  502  0.00000000000E+00 -0.00000000000E+00 -0.18586211745E+03  0.18586211745E+03  0.00000000000E+00 0.  1.
         21    1    1    2  503  501  0.72549934576E+02  0.78611967635E+02 -0.16453278756E+03  0.19625079017E+03  0.00000000000E+00 0.  1.
         -2    1    1    2    0  502 -0.72549934576E+02 -0.78611967635E+02  0.51750257393E+03  0.52844323110E+03  0.00000000000E+00 0.  1.
<mgrwt>
<rscale>  2 0.10697352E+03</rscale>
<asrwt>0</asrwt>
<pdfrwt beam="2">  1       21 0.28594172E-01 0.10697352E+03</pdfrwt>
<pdfrwt beam="1">  1       -2 0.82897216E-01 0.10697352E+03</pdfrwt>
<totfact> 0.12940537E+03</totfact>
</mgrwt>
</event>
<event>
 4    1  0.5006371E+003  0.1217812E+03  0.7546771E-02  0.1240187E+00
          1   -1    0    0  502    0 -0.00000000000E+00  0.00000000000E+00  0.89956146376E+03  0.89956146376E+03  0.00000000000E+00 0.  1.
         21   -1    0    0  503  502  0.00000000000E+00 -0.00000000000E+00 -0.39836262814E+02  0.39836262814E+02  0.00000000000E+00 0. -1.
         21    1    1    2  503  501 -0.76348424078E+02 -0.94876649461E+02  0.70261482105E+02  0.14059635962E+03  0.00000000000E+00 0. -1.
          1    1    1    2  501    0  0.76348424078E+02  0.94876649461E+02  0.78946371885E+03  0.79880136695E+03  0.00000000000E+00 0.  1.
<mgrwt>
<rscale>  2 0.12178120E+03</rscale>
<asrwt>0</asrwt>
<pdfrwt beam="2">  1       21 0.61286565E-02 0.12178120E+03</pdfrwt>
<pdfrwt beam="1">  1        1 0.13839406E+00 0.12178120E+03</pdfrwt>
<totfact> 0.40949777E+04</totfact>
</mgrwt>
</event>
<event>
 4    1  0.5006371E+003  0.1079228E+03  0.7546771E-02  0.1264466E+00
          2   -1    0    0  502    0 -0.00000000000E+00  0.00000000000E+00  0.13804803655E+04  0.13804803655E+04  0.00000000000E+00 0.  1.
         21   -1    0    0  503  502  0.00000000000E+00 -0.00000000000E+00 -0.50341874457E+02  0.50341874457E+02  0.00000000000E+00 0.  1.
         21    1    1    2  503  501  0.10778725812E+03  0.54076644713E+01  0.12355993844E+02  0.10862783452E+03  0.00000000000E+00 0.  1.
          2    1    1    2  501    0 -0.10778725812E+03 -0.54076644713E+01  0.13177824972E+04  0.13221944055E+04  0.00000000000E+00 0.  1.
<mgrwt>
<rscale>  2 0.10792282E+03</rscale>
<asrwt>0</asrwt>
<pdfrwt beam="2">  1       21 0.77449048E-02 0.10792282E+03</pdfrwt>
<pdfrwt beam="1">  1        2 0.21238157E+00 0.10792282E+03</pdfrwt>
<totfact> 0.26349437E+04</totfact>
</mgrwt>
</event>
