<event>
 4    1  0.4926234E+003  0.1247234E+03  0.7546771E-02  0.1235502E+00
          4   -1    0    0  502    0 -0.00000000000E+00  0.00000000000E+00  0.46424800718E+02  0.46424800718E+02  0.00000000000E+00 0.  1.
         21   -1    0    0  503  502  0.00000000000E+00 -0.00000000000E+00 -0.33739099100E+03  0.33739099100E+03  0.00000000000E+00 0.  1.
         21    1    1    2  503  501 -0.98227930160E+02 -0.76858350184E+02 -0.16137248596E+03  0.20395345421E+03  0.00000000000E+00 0.  1.
          4    1    1    2  501    0  0.98227930160E+02  0.76858350184E+02 -0.12959370432E+03  0.17986233751E+03  0.00000000000E+00 0.  1.
<mgrwt>
<rscale>  2 0.12472342E+03</rscale>
<asrwt>0</asrwt>
<pdfrwt beam="2">  1       21 0.51906306E-01 0.12472342E+03</pdfrwt>
<pdfrwt beam="1">  1        4 0.71422771E-02 0.12472342E+03</pdfrwt>
<totfact> 0.19116145E+04</totfact>
</mgrwt>
</event>
<event>
 4    1  0.4926234E+003  0.1150664E+03  0.7546771E-02  0.1251465E+00
         21   -1    0    0  501  502  0.00000000000E+00  0.00000000000E+00  0.59240667656E+03  0.59240667656E+03  0.00000000000E+00 0. -1.
         -2   -1    0    0    0  501 -0.00000000000E+00 -0.00000000000E+00 -0.27529368360E+02  0.27529368360E+02  0.00000000000E+00 0. -1.
         21    1    1    2  503  502 -0.16506065310E+02 -0.11387640298E+03  0.41688761281E+03  0.43247608842E+03  0.00000000000E+00 0. -1.
         -2    1    1    2    0  503  0.16506065310E+02  0.11387640298E+03  0.14798969539E+03  0.18745995650E+03  0.00000000000E+00 0. -1.
<mgrwt>
<rscale>  2 0.11506644E+03</rscale>
<asrwt>0</asrwt>
<pdfrwt beam="1">  1       21 0.91139479E-01 0.11506644E+03</pdfrwt>
<pdfrwt beam="2">  1       -2 0.42352879E-02 0.11506644E+03</pdfrwt>
<totfact> 0.19938197E+04</totfact>
</mgrwt>
</event>
<event>
 4    1  0.4926234E+003  0.1347993E+03  0.7546771E-02  0.1220503E+00
         -1   -1    0    0    0  501 -0.00000000000E+00  0.00000000000E+00  0.24205044211E+03  0.24205044211E+03  0.00000000000E+00 0.  1.
         21   -1    0    0  501  502  0.00000000000E+00 -0.00000000000E+00 -0.13401908900E+03  0.13401908900E+03  0.00000000000E+00 0.  1.
         21    1    1    2  503  502  0.29246686286E+02  0.13158828761E+03 -0.70691530817E+02  0.15221083610E+03  0.00000000000E+00 0.  1.
         -1    1    1    2    0  503 -0.29246686286E+02 -0.13158828761E+03  0.17872288392E+03  0.22385869501E+03  0.00000000000E+00 0.  1.
<mgrwt>
<rscale>  2 0.13479928E+03</rscale>
<asrwt>0</asrwt>
<pdfrwt beam="2">  1       21 0.20618321E-01 0.13479928E+03</pdfrwt>
<pdfrwt beam="1">  1       -1 0.37238529E-01 0.13479928E+03</pdfrwt>
<totfact> 0.14081746E+04</totfact>
</mgrwt>
</event>
<event>
 4    1  0.4926234E+003  0.1162673E+03  0.7546771E-02  0.1249385E+00
         21   -1    0    0  501  502  0.00000000000E+00  0.00000000000E+00  0.11955649202E+03  0.11955649202E+03  0.00000000000E+00 0.  1.
          4   -1    0    0  503    0 -0.00000000000E+00 -0.00000000000E+00 -0.12808527539E+03  0.12808527539E+03  0.00000000000E+00 0.  1.
         21    1    1    2  503  502 -0.10980492521E+03 -0.38222541246E+02  0.38132234997E+02  0.12236074373E+03  0.00000000000E+00 0.  1.
          4    1    1    2  501    0  0.10980492521E+03  0.38222541246E+02 -0.46661018359E+02  0.12528102368E+03  0.00000000000E+00 0.  1.
<mgrwt>
<rscale>  2 0.11626730E+03</rscale>
<asrwt>0</asrwt>
<pdfrwt beam="1">  1       21 0.18393306E-01 0.11626730E+03</pdfrwt>
<pdfrwt beam="2">  1        4 0.19705427E-01 0.11626730E+03</pdfrwt>
<totfact> 0.25042494E+04</totfact>
</mgrwt>
</event>
<event>
 4    1  0.4926234E+003  0.1075956E+03  0.7546771E-02  0.1265088E+00
         21   -1    0    0  503  502  0.00000000000E+00  0.00000000000E+00  0.60088969714E+03  0.60088969714E+03  0.00000000000E+00 0.  1.
          4   -1    0    0  502    0 -0.00000000000E+00 -0.00000000000E+00 -0.35929539350E+02  0.35929539350E+02  0.00000000000E+00 0. -1.
         21    1    1    2  503  501  0.10753370285E+03  0.36483531776E+01  0.49932164237E+03  0.51078264484E+03  0.00000000000E+00 0.  1.
          4    1    1    2  501    0 -0.10753370285E+03 -0.36483531776E+01  0.65638515420E+02  0.12603659165E+03  0.00000000000E+00 0. -1.
<mgrwt>
<rscale>  2 0.10759557E+03</rscale>
<asrwt>0</asrwt>
<pdfrwt beam="1">  1       21 0.92444561E-01 0.10759557E+03</pdfrwt>
<pdfrwt beam="2">  1        4 0.55276219E-02 0.10759557E+03</pdfrwt>
<totfact> 0.81751384E+03</totfact>
</mgrwt>
</event>
<event>
 4    1  0.4926234E+003  0.1474716E+03  0.7546771E-02  0.1203615E+00
         21   -1    0    0  501  502  0.00000000000E+00  0.00000000000E+00  0.57314687944E+03  0.57314687944E+03  0.00000000000E+00 0.  1.
          2   -1    0    0  503    0 -0.00000000000E+00 -0.00000000000E+00 -0.39650450011E+02  0.39650450011E+02  0.00000000000E+00 0.  1.
         21    1    1    2  503  502 -0.28471528777E+02 -0.14469704822E+03  0.33029967542E+03  0.36172605560E+03  0.00000000000E+00 0.  1.
          2    1    1    2  501    0  0.28471528777E+02  0.14469704822E+03  0.20319675401E+03  0.25107127385E+03  0.00000000000E+00 0.  1.
<mgrwt>
<rscale>  2 0.14747157E+03</rscale>
<asrwt>0</asrwt>
<pdfrwt beam="1">  1       21 0.88176437E-01 0.14747157E+03</pdfrwt>
<pdfrwt beam="2">  1        2 0.61000696E-02 0.14747157E+03</pdfrwt>
<totfact> 0.16082009E+04</totfact>
</mgrwt>
</event>
<event>
 4    1  0.4926234E+003  0.1018814E+03  0.7546771E-02  0.1276389E+00
         21   -1    0    0  503  502  0.00000000000E+00  0.00000000000E+00  0.25407866808E+02  0.25407866808E+02  0.00000000000E+00 0.  1.
          2   -1    0    0  502    0 -0.00000000000E+00 -0.00000000000E+00 -0.23129144383E+04  0.23129144383E+04  0.00000000000E+00 0. -1.
         21    1    1    2  503  501  0.10010744066E+03 -0.18929105251E+02 -0.82858787009E+02  0.13132170150E+03  0.00000000000E+00 0.  1.
          2    1    1    2  501    0 -0.10010744066E+03  0.18929105251E+02 -0.22046477845E+04  0.22070006036E+04  0.00000000000E+00 0. -1.
<mgrwt>
<rscale>  2 0.10188136E+03</rscale>
<asrwt>0</asrwt>
<pdfrwt beam="1">  1       21 0.39089026E-02 0.10188136E+03</pdfrwt>
<pdfrwt beam="2">  1        2 0.35583299E+00 0.10188136E+03</pdfrwt>
<totfact> 0.27879922E+04</totfact>
</mgrwt>
</event>
<event>
 4    1  0.4926234E+003  0.1139101E+03  0.7546771E-02  0.1253496E+00
         21   -1    0    0  503  502  0.00000000000E+00  0.00000000000E+00  0.87743202723E+02  0.87743202723E+02  0.00000000000E+00 0.  1.
          2   -1    0    0  502    0 -0.00000000000E+00 -0.00000000000E+00 -0.30096730217E+03  0.30096730217E+03  0.00000000000E+00 0.  1.
         21    1    1    2  503  501 -0.99017909206E+02  0.56311326991E+02  0.32001424256E+02  0.11831991821E+03  0.00000000000E+00 0.  1.
          2    1    1    2  501    0  0.99017909206E+02 -0.56311326991E+02 -0.24522552370E+03  0.27039058668E+03  0.00000000000E+00 0.  1.
<mgrwt>
<rscale>  2 0.11391010E+03</rscale>
<asrwt>0</asrwt>
<pdfrwt beam="1">  1       21 0.13498954E-01 0.11391010E+03</pdfrwt>
<pdfrwt beam="2">  1        2 0.46302663E-01 0.11391010E+03</pdfrwt>
<totfact> 0.63689505E+04</totfact>
</mgrwt>
</event>
<event>
 4    1  0.4926234E+003  0.1102237E+03  0.7546771E-02  0.1260156E+00
         21   -1    0    0  501  502  0.00000000000E+00  0.00000000000E+00  0.57700142523E+02  0.57700142523E+02  0.00000000000E+00 0. -1.
          1   -1    0    0  503    0 -0.00000000000E+00 -0.00000000000E+00 -0.26854782809E+03  0.26854782809E+03  0.00000000000E+00 0. -1.
         21    1    1    2  503  502 -0.52256941060E+02  0.97048784614E+02 -0.29621766287E+02  0.11413458513E+03  0.00000000000E+00 0. -1.
          1    1    1    2  501    0  0.52256941060E+02 -0.97048784614E+02 -0.18122591928E+03  0.21211338548E+03  0.00000000000E+00 0. -1.
<mgrwt>
<rscale>  2 0.11022366E+03</rscale>
<asrwt>0</asrwt>
<pdfrwt beam="1">  1       21 0.88769451E-02 0.11022366E+03</pdfrwt>
<pdfrwt beam="2">  1        1 0.41315050E-01 0.11022366E+03</pdfrwt>
<totfact> 0.10814398E+05</totfact>
</mgrwt>
</event>
<event>
 4    1  0.4926234E+003  0.1070801E+03  0.7546771E-02  0.1266075E+00
         21   -1    0    0  501  502  0.00000000000E+00  0.00000000000E+00  0.11201025026E+04  0.11201025026E+04  0.00000000000E+00 0. -1.
          3   -1    0    0  503    0 -0.00000000000E+00 -0.00000000000E+00 -0.15315805242E+03  0.15315805242E+03  0.00000000000E+00 0.  1.
         21    1    1    2  503  502 -0.10499967090E+03  0.21005396690E+02  0.10984592097E+04  0.11036660695E+04  0.00000000000E+00 0. -1.
          3    1    1    2  501    0  0.10499967090E+03 -0.21005396690E+02 -0.13151475947E+03  0.16959448558E+03  0.00000000000E+00 0.  1.
<mgrwt>
<rscale>  2 0.10708015E+03</rscale>
<asrwt>0</asrwt>
<pdfrwt beam="1">  1       21 0.17232346E+00 0.10708015E+03</pdfrwt>
<pdfrwt beam="2">  1        3 0.23562778E-01 0.10708015E+03</pdfrwt>
<totfact> 0.17744926E+02</totfact>
</mgrwt>
</event>
<event>
 4    1  0.4926234E+003  0.1491509E+03  0.7546771E-02  0.1201520E+00
         21   -1    0    0  503  502  0.00000000000E+00  0.00000000000E+00  0.49756302216E+02  0.49756302216E+02  0.00000000000E+00 0.  1.
         -2   -1    0    0    0  501 -0.00000000000E+00 -0.00000000000E+00 -0.94029962825E+03  0.94029962825E+03  0.00000000000E+00 0. -1.
         21    1    1    2  503  501 -0.10314309599E+03 -0.10773803331E+03 -0.86755690817E+02  0.17254718764E+03  0.00000000000E+00 0.  1.
         -2    1    1    2    0  502  0.10314309599E+03  0.10773803331E+03 -0.80378763522E+03  0.81750874283E+03  0.00000000000E+00 0. -1.
<mgrwt>
<rscale>  2 0.14915087E+03</rscale>
<asrwt>0</asrwt>
<pdfrwt beam="1">  1       21 0.76548152E-02 0.14915087E+03</pdfrwt>
<pdfrwt beam="2">  1       -2 0.14466149E+00 0.14915087E+03</pdfrwt>
<totfact> 0.37429322E+03</totfact>
</mgrwt>
</event>
<event>
 4    1  0.4926234E+003  0.1065823E+03  0.7546771E-02  0.1267033E+00
         21   -1    0    0  503  502  0.00000000000E+00  0.00000000000E+00  0.10646944982E+03  0.10646944982E+03  0.00000000000E+00 0.  1.
          2   -1    0    0  502    0 -0.00000000000E+00 -0.00000000000E+00 -0.43106957199E+03  0.43106957199E+03  0.00000000000E+00 0.  1.
         21    1    1    2  503  501 -0.39458640670E+01 -0.10650920248E+03  0.70846803288E+02  0.12798066101E+03  0.00000000000E+00 0.  1.
          2    1    1    2  501    0  0.39458640670E+01  0.10650920248E+03 -0.39544692545E+03  0.40955836081E+03  0.00000000000E+00 0.  1.
<mgrwt>
<rscale>  2 0.10658227E+03</rscale>
<asrwt>0</asrwt>
<pdfrwt beam="1">  1       21 0.16379915E-01 0.10658227E+03</pdfrwt>
<pdfrwt beam="2">  1        2 0.66318396E-01 0.10658227E+03</pdfrwt>
<totfact> 0.30770555E+04</totfact>
</mgrwt>
</event>
<event>
 4    1  0.4926234E+003  0.2664035E+03  0.7546771E-02  0.1103356E+00
          2   -1    0    0  503    0 -0.00000000000E+00  0.00000000000E+00  0.78986333245E+03  0.78986333245E+03  0.00000000000E+00 0. -1.
         21   -1    0    0  501  502  0.00000000000E+00 -0.00000000000E+00 -0.52706812815E+03  0.52706812815E+03  0.00000000000E+00 0.  1.
         21    1    1    2  503  502 -0.66040848261E+01 -0.26632158827E+03 -0.46832150416E+03  0.53879108528E+03  0.00000000000E+00 0.  1.
          2    1    1    2  501    0  0.66040848261E+01  0.26632158827E+03  0.73111670846E+03  0.77814037532E+03  0.00000000000E+00 0. -1.
<mgrwt>
<rscale>  2 0.26640346E+03</rscale>
<asrwt>0</asrwt>
<pdfrwt beam="2">  1       21 0.81087404E-01 0.26640346E+03</pdfrwt>
<pdfrwt beam="1">  1        2 0.12151744E+00 0.26640346E+03</pdfrwt>
<totfact> 0.58376420E+02</totfact>
</mgrwt>
</event>
<event>
 4    1  0.4926234E+003  0.1327311E+03  0.7546771E-02  0.1223459E+00
         21   -1    0    0  503  502  0.00000000000E+00  0.00000000000E+00  0.55761592091E+03  0.55761592091E+03  0.00000000000E+00 0.  1.
          3   -1    0    0  502    0 -0.00000000000E+00 -0.00000000000E+00 -0.53227913988E+02  0.53227913988E+02  0.00000000000E+00 0. -1.
         21    1    1    2  503  501 -0.14327323075E+02 -0.13195559776E+03  0.44690649016E+03  0.46620056083E+03  0.00000000000E+00 0.  1.
          3    1    1    2  501    0  0.14327323075E+02  0.13195559776E+03  0.57481516761E+02  0.14464327407E+03  0.00000000000E+00 0. -1.
<mgrwt>
<rscale>  2 0.13273113E+03</rscale>
<asrwt>0</asrwt>
<pdfrwt beam="1">  1       21 0.85787061E-01 0.13273113E+03</pdfrwt>
<pdfrwt beam="2">  1        3 0.81889102E-02 0.13273113E+03</pdfrwt>
<totfact> 0.58834910E+03</totfact>
</mgrwt>
</event>
<event>
 4    1  0.4926234E+003  0.1312138E+03  0.7546771E-02  0.1225666E+00
          3   -1    0    0  503    0 -0.00000000000E+00  0.00000000000E+00  0.12978312847E+04  0.12978312847E+04  0.00000000000E+00 0.  1.
         21   -1    0    0  501  502  0.00000000000E+00 -0.00000000000E+00 -0.32943698251E+03  0.32943698251E+03  0.00000000000E+00 0. -1.
         21    1    1    2  503  502  0.11279136454E+03  0.67046037503E+02 -0.31288662760E+03  0.33928616947E+03  0.00000000000E+00 0. -1.
          3    1    1    2  501    0 -0.11279136454E+03 -0.67046037503E+02  0.12812809298E+04  0.12879820978E+04  0.00000000000E+00 0.  1.
<mgrwt>
<rscale>  2 0.13121381E+03</rscale>
<asrwt>0</asrwt>
<pdfrwt beam="2">  1       21 0.50682613E-01 0.13121381E+03</pdfrwt>
<pdfrwt beam="1">  1        3 0.19966635E+00 0.13121381E+03</pdfrwt>
<totfact> 0.30790645E+01</totfact>
</mgrwt>
</event>
<event>
 4    1  0.4926234E+003  0.1203896E+03  0.7546771E-02  0.1242456E+00
         21   -1    0    0  501  502  0.00000000000E+00  0.00000000000E+00  0.89744759741E+02  0.89744759741E+02  0.00000000000E+00 0. -1.
          2   -1    0    0  503    0 -0.00000000000E+00 -0.00000000000E+00 -0.20754639722E+03  0.20754639722E+03  0.00000000000E+00 0. -1.
         21    1    1    2  503  502 -0.11612055395E+03 -0.31775484413E+02  0.11115331299E+02  0.12090167513E+03  0.00000000000E+00 0. -1.
          2    1    1    2  501    0  0.11612055395E+03  0.31775484413E+02 -0.12891696878E+03  0.17638948183E+03  0.00000000000E+00 0. -1.
<mgrwt>
<rscale>  2 0.12038964E+03</rscale>
<asrwt>0</asrwt>
<pdfrwt beam="1">  1       21 0.13806886E-01 0.12038964E+03</pdfrwt>
<pdfrwt beam="2">  1        2 0.31930214E-01 0.12038964E+03</pdfrwt>
<totfact> 0.90887013E+04</totfact>
</mgrwt>
</event>
<event>
 4    1  0.4926234E+003  0.1019206E+03  0.7546771E-02  0.1276308E+00
         21   -1    0    0  501  502  0.00000000000E+00  0.00000000000E+00  0.16777123196E+03  0.16777123196E+03  0.00000000000E+00 0.  1.
          4   -1    0    0  503    0 -0.00000000000E+00 -0.00000000000E+00 -0.21860486189E+03  0.21860486189E+03  0.00000000000E+00 0.  1.
         21    1    1    2  503  502 -0.70620090429E+01  0.10167562629E+03  0.13814003386E+03  0.17166966507E+03  0.00000000000E+00 0.  1.
          4    1    1    2  501    0  0.70620090429E+01 -0.10167562629E+03 -0.18897366378E+03  0.21470642877E+03  0.00000000000E+00 0.  1.
<mgrwt>
<rscale>  2 0.10192058E+03</rscale>
<asrwt>0</asrwt>
<pdfrwt beam="1">  1       21 0.25810959E-01 0.10192058E+03</pdfrwt>
<pdfrwt beam="2">  1        4 0.33631517E-01 0.10192058E+03</pdfrwt>
<totfact> 0.49160555E+03</totfact>
</mgrwt>
</event>
<event>
 4    1  0.4926234E+003  0.1587318E+03  0.7546771E-02  0.1190136E+00
         21   -1    0    0  503  502  0.00000000000E+00  0.00000000000E+00  0.14643359241E+03  0.14643359241E+03  0.00000000000E+00 0.  1.
         -4   -1    0    0    0  501 -0.00000000000E+00 -0.00000000000E+00 -0.18623708138E+03  0.18623708138E+03  0.00000000000E+00 0.  1.
         21    1    1    2  503  501 -0.61477785617E+01  0.15861266258E+03  0.25986577721E+02  0.16084487599E+03  0.00000000000E+00 0.  1.
         -4    1    1    2    0  502  0.61477785617E+01 -0.15861266258E+03 -0.65790066691E+02  0.17182579779E+03  0.00000000000E+00 0.  1.
<mgrwt>
<rscale>  2 0.15873176E+03</rscale>
<asrwt>0</asrwt>
<pdfrwt beam="1">  1       21 0.22528245E-01 0.15873176E+03</pdfrwt>
<pdfrwt beam="2">  1       -4 0.28651859E-01 0.15873176E+03</pdfrwt>
<totfact> 0.88979376E+03</totfact>
</mgrwt>
</event>
<event>
 4    1  0.4926234E+003  0.1263652E+03  0.7546771E-02  0.1232951E+00
          2   -1    0    0  502    0 -0.00000000000E+00  0.00000000000E+00  0.98777109383E+02  0.98777109383E+02  0.00000000000E+00 0.  1.
         21   -1    0    0  503  502  0.00000000000E+00 -0.00000000000E+00 -0.18592770574E+03  0.18592770574E+03  0.00000000000E+00 0.  1.
         21    1    1    2  503  501 -0.88853414451E+02 -0.89851190333E+02 -0.95005706233E+02  0.15809569849E+03  0.00000000000E+00 0.  1.
          2    1    1    2  501    0  0.88853414451E+02  0.89851190333E+02  0.78551098757E+01  0.12660911664E+03  0.00000000000E+00 0.  1.
<mgrwt>
<rscale>  2 0.12636521E+03</rscale>
<asrwt>0</asrwt>
<pdfrwt beam="2">  1       21 0.28604262E-01 0.12636521E+03</pdfrwt>
<pdfrwt beam="1">  1        2 0.15196478E-01 0.12636521E+03</pdfrwt>
<totfact> 0.54289344E+04</totfact>
</mgrwt>
</event>
<event>
 4    1  0.4926234E+003  0.1373855E+03  0.7546771E-02  0.1216891E+00
          2   -1    0    0  503    0 -0.00000000000E+00  0.00000000000E+00  0.14590077643E+04  0.14590077643E+04  0.00000000000E+00 0.  1.
         21   -1    0    0  501  502  0.00000000000E+00 -0.00000000000E+00 -0.13240804726E+02  0.13240804726E+02  0.00000000000E+00 0. -1.
         21    1    1    2  503  502 -0.91161490045E+02  0.10278302208E+03  0.61132690080E+03  0.62657429451E+03  0.00000000000E+00 0. -1.
          2    1    1    2  501    0  0.91161490045E+02 -0.10278302208E+03  0.83444005878E+03  0.84567427453E+03  0.00000000000E+00 0.  1.
<mgrwt>
<rscale>  2 0.13738547E+03</rscale>
<asrwt>0</asrwt>
<pdfrwt beam="2">  1       21 0.20370480E-02 0.13738547E+03</pdfrwt>
<pdfrwt beam="1">  1        2 0.22446261E+00 0.13738547E+03</pdfrwt>
<totfact> 0.21983697E+05</totfact>
</mgrwt>
</event>
<event>
 4    1  0.4926234E+003  0.1277258E+03  0.7546771E-02  0.1230870E+00
         21   -1    0    0  503  502  0.00000000000E+00  0.00000000000E+00  0.97132543318E+03  0.97132543318E+03  0.00000000000E+00 0. -1.
         -2   -1    0    0    0  501 -0.00000000000E+00 -0.00000000000E+00 -0.29109046300E+02  0.29109046300E+02  0.00000000000E+00 0.  1.
         21    1    1    2  503  501 -0.10184273925E+03 -0.77083926049E+02  0.79644756563E+03  0.80662419998E+03  0.00000000000E+00 0. -1.
         -2    1    1    2    0  502  0.10184273925E+03  0.77083926049E+02  0.14576882125E+03  0.19381027950E+03  0.00000000000E+00 0.  1.
<mgrwt>
<rscale>  2 0.12772578E+03</rscale>
<asrwt>0</asrwt>
<pdfrwt beam="1">  1       21 0.14943466E+00 0.12772578E+03</pdfrwt>
<pdfrwt beam="2">  1       -2 0.44783156E-02 0.12772578E+03</pdfrwt>
<totfact> 0.55266241E+03</totfact>
</mgrwt>
</event>
<event>
 4    1  0.4926234E+003  0.1346740E+03  0.7546771E-02  0.1220681E+00
         21   -1    0    0  503  502  0.00000000000E+00  0.00000000000E+00  0.15688713592E+04  0.15688713592E+04  0.00000000000E+00 0. -1.
         -3   -1    0    0    0  501 -0.00000000000E+00 -0.00000000000E+00 -0.15517269095E+02  0.15517269095E+02  0.00000000000E+00 0. -1.
         21    1    1    2  503  501  0.13281358178E+03 -0.22308066334E+02  0.11767036096E+04  0.11843852760E+04  0.00000000000E+00 0. -1.
         -3    1    1    2    0  502 -0.13281358178E+03  0.22308066334E+02  0.37665048059E+03  0.40000335231E+03  0.00000000000E+00 0. -1.
<mgrwt>
<rscale>  2 0.13467404E+03</rscale>
<asrwt>0</asrwt>
<pdfrwt beam="1">  1       21 0.24136470E+00 0.13467404E+03</pdfrwt>
<pdfrwt beam="2">  1       -3 0.23872734E-02 0.13467404E+03</pdfrwt>
<totfact> 0.27234050E+03</totfact>
</mgrwt>
</event>
<event>
 4    1  0.4926234E+003  0.1099495E+03  0.7546771E-02  0.1260663E+00
         21   -1    0    0  501  502  0.00000000000E+00  0.00000000000E+00  0.47433369620E+02  0.47433369620E+02  0.00000000000E+00 0. -1.
          2   -1    0    0  503    0 -0.00000000000E+00 -0.00000000000E+00 -0.79133351788E+03  0.79133351788E+03  0.00000000000E+00 0. -1.
         21    1    1    2  503  502 -0.69239462798E+02 -0.85409568067E+02 -0.26643061481E+02  0.11313156169E+03  0.00000000000E+00 0. -1.
          2    1    1    2  501    0  0.69239462798E+02  0.85409568067E+02 -0.71725708677E+03  0.72563532580E+03  0.00000000000E+00 0. -1.
<mgrwt>
<rscale>  2 0.10994952E+03</rscale>
<asrwt>0</asrwt>
<pdfrwt beam="1">  1       21 0.72974414E-02 0.10994952E+03</pdfrwt>
<pdfrwt beam="2">  1        2 0.12174362E+00 0.10994952E+03</pdfrwt>
<totfact> 0.63986606E+04</totfact>
</mgrwt>
</event>
<event>
 4    1  0.4926234E+003  0.1034877E+03  0.7546771E-02  0.1273128E+00
         21   -1    0    0  501  502  0.00000000000E+00  0.00000000000E+00  0.57599742952E+02  0.57599742952E+02  0.00000000000E+00 0.  1.
          2   -1    0    0  503    0 -0.00000000000E+00 -0.00000000000E+00 -0.21967510554E+03  0.21967510554E+03  0.00000000000E+00 0.  1.
         21    1    1    2  503  502 -0.23549591338E+02 -0.10077258177E+03 -0.26703170689E+02  0.10687729326E+03  0.00000000000E+00 0.  1.
          2    1    1    2  501    0  0.23549591338E+02  0.10077258177E+03 -0.13537219190E+03  0.17039755524E+03  0.00000000000E+00 0.  1.
<mgrwt>
<rscale>  2 0.10348766E+03</rscale>
<asrwt>0</asrwt>
<pdfrwt beam="1">  1       21 0.88614989E-02 0.10348766E+03</pdfrwt>
<pdfrwt beam="2">  1        2 0.33796170E-01 0.10348766E+03</pdfrwt>
<totfact> 0.18504744E+05</totfact>
</mgrwt>
</event>
<event>
 4    1  0.4926234E+003  0.1041747E+03  0.7546771E-02  0.1271754E+00
          3   -1    0    0  503    0 -0.00000000000E+00  0.00000000000E+00  0.55614586254E+03  0.55614586254E+03  0.00000000000E+00 0.  1.
         21   -1    0    0  501  502  0.00000000000E+00 -0.00000000000E+00 -0.83015646757E+02  0.83015646757E+02  0.00000000000E+00 0.  1.
         21    1    1    2  503  502 -0.53605144062E+02  0.89324403846E+02 -0.42943246097E+02  0.11267867135E+03  0.00000000000E+00 0.  1.
          3    1    1    2  501    0  0.53605144062E+02 -0.89324403846E+02  0.51607346188E+03  0.52648283795E+03  0.00000000000E+00 0.  1.
<mgrwt>
<rscale>  2 0.10417466E+03</rscale>
<asrwt>0</asrwt>
<pdfrwt beam="2">  1       21 0.12771638E-01 0.10417466E+03</pdfrwt>
<pdfrwt beam="1">  1        3 0.85560900E-01 0.10417466E+03</pdfrwt>
<totfact> 0.32739752E+03</totfact>
</mgrwt>
</event>
<event>
 4    1  0.4926234E+003  0.1427872E+03  0.7546771E-02  0.1209627E+00
         21   -1    0    0  503  502  0.00000000000E+00  0.00000000000E+00  0.76077951139E+02  0.76077951139E+02  0.00000000000E+00 0.  1.
          1   -1    0    0  502    0 -0.00000000000E+00 -0.00000000000E+00 -0.34529459659E+03  0.34529459659E+03  0.00000000000E+00 0. -1.
         21    1    1    2  503  501  0.14273975983E+03  0.36810528276E+01 -0.34920564501E+02  0.14699535711E+03  0.00000000000E+00 0.  1.
          1    1    1    2  501    0 -0.14273975983E+03 -0.36810528276E+01 -0.23429608095E+03  0.27437719063E+03  0.00000000000E+00 0. -1.
<mgrwt>
<rscale>  2 0.14278722E+03</rscale>
<asrwt>0</asrwt>
<pdfrwt beam="1">  1       21 0.11704300E-01 0.14278722E+03</pdfrwt>
<pdfrwt beam="2">  1        1 0.53122244E-01 0.14278722E+03</pdfrwt>
<totfact> 0.49180407E+04</totfact>
</mgrwt>
</event>
<event>
 4    1  0.4926234E+003  0.1033020E+03  0.7546771E-02  0.1273502E+00
         21   -1    0    0  501  502  0.00000000000E+00  0.00000000000E+00  0.32343640868E+02  0.32343640868E+02  0.00000000000E+00 0. -1.
         -4   -1    0    0    0  501 -0.00000000000E+00 -0.00000000000E+00 -0.36088989905E+03  0.36088989905E+03  0.00000000000E+00 0. -1.
         21    1    1    2  503  502  0.32921021355E+02  0.97915799218E+02 -0.10668960064E+03  0.14850578530E+03  0.00000000000E+00 0. -1.
         -4    1    1    2    0  503 -0.32921021355E+02 -0.97915799218E+02 -0.22185665754E+03  0.24472775461E+03  0.00000000000E+00 0. -1.
<mgrwt>
<rscale>  2 0.10330197E+03</rscale>
<asrwt>0</asrwt>
<pdfrwt beam="1">  1       21 0.49759450E-02 0.10330197E+03</pdfrwt>
<pdfrwt beam="2">  1       -4 0.55521521E-01 0.10330197E+03</pdfrwt>
<totfact> 0.33142541E+04</totfact>
</mgrwt>
</event>
<event>
 4    1  0.4926234E+003  0.1452515E+03  0.7546771E-02  0.1206432E+00
          2   -1    0    0  502    0 -0.00000000000E+00  0.00000000000E+00  0.61239097264E+03  0.61239097264E+03  0.00000000000E+00 0.  1.
         21   -1    0    0  503  502  0.00000000000E+00 -0.00000000000E+00 -0.70150745049E+02  0.70150745049E+02  0.00000000000E+00 0.  1.
         21    1    1    2  503  501 -0.11304478250E+03  0.91207894322E+02  0.27669743487E+02  0.14786350984E+03  0.00000000000E+00 0.  1.
          2    1    1    2  501    0  0.11304478250E+03 -0.91207894322E+02  0.51457048410E+03  0.53467820785E+03  0.00000000000E+00 0.  1.
<mgrwt>
<rscale>  2 0.14525152E+03</rscale>
<asrwt>0</asrwt>
<pdfrwt beam="2">  1       21 0.10792423E-01 0.14525152E+03</pdfrwt>
<pdfrwt beam="1">  1        2 0.94213992E-01 0.14525152E+03</pdfrwt>
<totfact> 0.44001975E+04</totfact>
</mgrwt>
</event>
<event>
 4    1  0.4926234E+003  0.1337084E+03  0.7546771E-02  0.1222055E+00
          2   -1    0    0  502    0 -0.00000000000E+00  0.00000000000E+00  0.12146500433E+04  0.12146500433E+04  0.00000000000E+00 0. -1.
         21   -1    0    0  503  502  0.00000000000E+00 -0.00000000000E+00 -0.33729794453E+02  0.33729794453E+02  0.00000000000E+00 0. -1.
         21    1    1    2  503  501 -0.34225912594E+02  0.12925372450E+03  0.12184673159E+03  0.18089932114E+03  0.00000000000E+00 0. -1.
          2    1    1    2  501    0  0.34225912594E+02 -0.12925372450E+03  0.10590735173E+04  0.10674805167E+04  0.00000000000E+00 0. -1.
<mgrwt>
<rscale>  2 0.13370841E+03</rscale>
<asrwt>0</asrwt>
<pdfrwt beam="2">  1       21 0.51892001E-02 0.13370841E+03</pdfrwt>
<pdfrwt beam="1">  1        2 0.18686920E+00 0.13370841E+03</pdfrwt>
<totfact> 0.63596803E+04</totfact>
</mgrwt>
</event>
<event>
 4    1  0.4926234E+003  0.1569702E+03  0.7546771E-02  0.1192160E+00
         21   -1    0    0  503  502  0.00000000000E+00  0.00000000000E+00  0.10759039580E+02  0.10759039580E+02  0.00000000000E+00 0.  1.
          1   -1    0    0  502    0 -0.00000000000E+00 -0.00000000000E+00 -0.23028784315E+04  0.23028784315E+04  0.00000000000E+00 0.  1.
         21    1    1    2  503  501 -0.58392878048E+02  0.14570492691E+03 -0.10600055697E+04  0.10715649591E+04  0.00000000000E+00 0.  1.
          1    1    1    2  501    0  0.58392878048E+02 -0.14570492691E+03 -0.12321138223E+04  0.12420725119E+04  0.00000000000E+00 0.  1.
<mgrwt>
<rscale>  2 0.15697023E+03</rscale>
<asrwt>0</asrwt>
<pdfrwt beam="1">  1       21 0.16552380E-02 0.15697023E+03</pdfrwt>
<pdfrwt beam="2">  1        1 0.35428875E+00 0.15697023E+03</pdfrwt>
<totfact> 0.41548704E+04</totfact>
</mgrwt>
</event>
<event>
 4    1  0.4926234E+003  0.1381946E+03  0.7546771E-02  0.1215779E+00
         21   -1    0    0  501  502  0.00000000000E+00  0.00000000000E+00  0.69794403965E+02  0.69794403965E+02  0.00000000000E+00 0.  1.
          1   -1    0    0  503    0 -0.00000000000E+00 -0.00000000000E+00 -0.73654853564E+03  0.73654853564E+03  0.00000000000E+00 0. -1.
         21    1    1    2  503  502 -0.13564103208E+03  0.26443578872E+02 -0.13751140013E+02  0.13887709062E+03  0.00000000000E+00 0.  1.
          1    1    1    2  501    0  0.13564103208E+03 -0.26443578872E+02 -0.65300299166E+03  0.66746584899E+03  0.00000000000E+00 0. -1.
<mgrwt>
<rscale>  2 0.13819462E+03</rscale>
<asrwt>0</asrwt>
<pdfrwt beam="1">  1       21 0.10737601E-01 0.13819462E+03</pdfrwt>
<pdfrwt beam="2">  1        1 0.11331515E+00 0.13819462E+03</pdfrwt>
<totfact> 0.21029295E+04</totfact>
</mgrwt>
</event>
<event>
 4    1  0.4926234E+003  0.1050800E+03  0.7546771E-02  0.1269962E+00
         21   -1    0    0  501  502  0.00000000000E+00  0.00000000000E+00  0.73397618717E+01  0.73397618717E+01  0.00000000000E+00 0. -1.
          2   -1    0    0  503    0 -0.00000000000E+00 -0.00000000000E+00 -0.22789979887E+04  0.22789979887E+04  0.00000000000E+00 0. -1.
         21    1    1    2  503  502 -0.10142013883E+03  0.27491238374E+02 -0.46935792786E+03  0.48097679486E+03  0.00000000000E+00 0. -1.
          2    1    1    2  501    0  0.10142013883E+03 -0.27491238374E+02 -0.18023002990E+04  0.18053609557E+04  0.00000000000E+00 0. -1.
<mgrwt>
<rscale>  2 0.10508003E+03</rscale>
<asrwt>0</asrwt>
<pdfrwt beam="1">  1       21 0.11291938E-02 0.10508003E+03</pdfrwt>
<pdfrwt beam="2">  1        2 0.35061519E+00 0.10508003E+03</pdfrwt>
<totfact> 0.21399535E+05</totfact>
</mgrwt>
</event>
<event>
 4    1  0.4926234E+003  0.1062013E+03  0.7546771E-02  0.1267771E+00
         21   -1    0    0  503  502  0.00000000000E+00  0.00000000000E+00  0.41671238656E+02  0.41671238656E+02  0.00000000000E+00 0. -1.
         -1   -1    0    0    0  501 -0.00000000000E+00 -0.00000000000E+00 -0.50062779080E+03  0.50062779080E+03  0.00000000000E+00 0.  1.
         21    1    1    2  503  501 -0.36803599700E+02 -0.99620315044E+02 -0.45703697743E+02  0.11561807864E+03  0.00000000000E+00 0. -1.
         -1    1    1    2    0  502  0.36803599700E+02  0.99620315044E+02 -0.41325285440E+03  0.42668095081E+03  0.00000000000E+00 0.  1.
<mgrwt>
<rscale>  2 0.10620128E+03</rscale>
<asrwt>0</asrwt>
<pdfrwt beam="1">  1       21 0.64109594E-02 0.10620128E+03</pdfrwt>
<pdfrwt beam="2">  1       -1 0.77019665E-01 0.10620128E+03</pdfrwt>
<totfact> 0.28730236E+04</totfact>
</mgrwt>
</event>
<event>
 4    1  0.4926234E+003  0.1014527E+03  0.7546771E-02  0.1277270E+00
          2   -1    0    0  503    0 -0.00000000000E+00  0.00000000000E+00  0.11406062347E+04  0.11406062347E+04  0.00000000000E+00 0.  1.
         21   -1    0    0  501  502  0.00000000000E+00 -0.00000000000E+00 -0.20691548787E+03  0.20691548787E+03  0.00000000000E+00 0.  1.
         21    1    1    2  503  502  0.23111579198E+02 -0.98785150040E+02 -0.19205993946E+03  0.21720881959E+03  0.00000000000E+00 0.  1.
          2    1    1    2  501    0 -0.23111579198E+02  0.98785150040E+02  0.11257506863E+04  0.11303129030E+04  0.00000000000E+00 0.  1.
<mgrwt>
<rscale>  2 0.10145270E+03</rscale>
<asrwt>0</asrwt>
<pdfrwt beam="2">  1       21 0.31833153E-01 0.10145270E+03</pdfrwt>
<pdfrwt beam="1">  1        2 0.17547788E+00 0.10145270E+03</pdfrwt>
<totfact> 0.27703948E+03</totfact>
</mgrwt>
</event>
<event>
 4    1  0.4926234E+003  0.1172499E+03  0.7546771E-02  0.1247704E+00
          2   -1    0    0  503    0 -0.00000000000E+00  0.00000000000E+00  0.19615695450E+04  0.19615695450E+04  0.00000000000E+00 0.  1.
         21   -1    0    0  501  502  0.00000000000E+00 -0.00000000000E+00 -0.13404003740E+02  0.13404003740E+02  0.00000000000E+00 0.  1.
         21    1    1    2  503  502  0.68553314114E+02 -0.95120841557E+02  0.29197401334E+03  0.31463686345E+03  0.00000000000E+00 0.  1.
          2    1    1    2  501    0 -0.68553314114E+02  0.95120841557E+02  0.16561915279E+04  0.16603366853E+04  0.00000000000E+00 0.  1.
<mgrwt>
<rscale>  2 0.11724987E+03</rscale>
<asrwt>0</asrwt>
<pdfrwt beam="2">  1       21 0.20621560E-02 0.11724987E+03</pdfrwt>
<pdfrwt beam="1">  1        2 0.30177970E+00 0.11724987E+03</pdfrwt>
<totfact> 0.11907540E+05</totfact>
</mgrwt>
</event>
<event>
 4    1  0.4926234E+003  0.1259091E+03  0.7546771E-02  0.1233655E+00
         21   -1    0    0  501  502  0.00000000000E+00  0.00000000000E+00  0.19842952724E+02  0.19842952724E+02  0.00000000000E+00 0.  1.
          2   -1    0    0  503    0 -0.00000000000E+00 -0.00000000000E+00 -0.42384825291E+04  0.42384825291E+04  0.00000000000E+00 0. -1.
         21    1    1    2  503  502  0.92559412197E+02  0.85357262031E+02 -0.19129283342E+03  0.22901103704E+03  0.00000000000E+00 0.  1.
          2    1    1    2  501    0 -0.92559412197E+02 -0.85357262031E+02 -0.40273467429E+04  0.40293144447E+04  0.00000000000E+00 0. -1.
<mgrwt>
<rscale>  2 0.12590912E+03</rscale>
<asrwt>0</asrwt>
<pdfrwt beam="1">  1       21 0.30527590E-02 0.12590912E+03</pdfrwt>
<pdfrwt beam="2">  1        2 0.65207488E+00 0.12590912E+03</pdfrwt>
<totfact> 0.25446440E+03</totfact>
</mgrwt>
</event>
<event>
 4    1  0.4926234E+003  0.2294014E+03  0.7546771E-02  0.1127062E+00
         21   -1    0    0  501  502  0.00000000000E+00  0.00000000000E+00  0.20807579989E+03  0.20807579989E+03  0.00000000000E+00 0. -1.
          1   -1    0    0  503    0 -0.00000000000E+00 -0.00000000000E+00 -0.86834754222E+03  0.86834754222E+03  0.00000000000E+00 0.  1.
         21    1    1    2  503  502 -0.32953179855E+02 -0.22702221317E+03  0.12296759743E+03  0.26028067034E+03  0.00000000000E+00 0. -1.
          1    1    1    2  501    0  0.32953179855E+02  0.22702221317E+03 -0.78323933976E+03  0.81614267177E+03  0.00000000000E+00 0.  1.
<mgrwt>
<rscale>  2 0.22940139E+03</rscale>
<asrwt>0</asrwt>
<pdfrwt beam="1">  1       21 0.32011661E-01 0.22940139E+03</pdfrwt>
<pdfrwt beam="2">  1        1 0.13359193E+00 0.22940139E+03</pdfrwt>
<totfact> 0.20930786E+03</totfact>
</mgrwt>
</event>
<event>
 4    1  0.4926234E+003  0.1843013E+03  0.7546771E-02  0.1163704E+00
         -2   -1    0    0    0  501 -0.00000000000E+00  0.00000000000E+00  0.32520244095E+03  0.32520244095E+03  0.00000000000E+00 0.  1.
         21   -1    0    0  503  502  0.00000000000E+00 -0.00000000000E+00 -0.10927069393E+03  0.10927069393E+03  0.00000000000E+00 0.  1.
         21    1    1    2  503  501 -0.54547224997E+02 -0.17604422621E+03  0.62331214799E+02  0.19455628922E+03  0.00000000000E+00 0.  1.
         -2    1    1    2    0  502  0.54547224997E+02  0.17604422621E+03  0.15360053223E+03  0.23991684567E+03  0.00000000000E+00 0.  1.
<mgrwt>
<rscale>  2 0.18430130E+03</rscale>
<asrwt>0</asrwt>
<pdfrwt beam="2">  1       21 0.16810876E-01 0.18430130E+03</pdfrwt>
<pdfrwt beam="1">  1       -2 0.50031144E-01 0.18430130E+03</pdfrwt>
<totfact> 0.99118119E+03</totfact>
</mgrwt>
</event>
<event>
 4    1  0.4926234E+003  0.1164978E+03  0.7546771E-02  0.1248989E+00
         21   -1    0    0  503  502  0.00000000000E+00  0.00000000000E+00  0.86739509265E+03  0.86739509265E+03  0.00000000000E+00 0. -1.
          2   -1    0    0  502    0 -0.00000000000E+00 -0.00000000000E+00 -0.18631415475E+02  0.18631415475E+02  0.00000000000E+00 0. -1.
         21    1    1    2  503  501  0.10740634189E+03  0.45117804033E+02  0.60170128124E+03  0.61287533020E+03  0.00000000000E+00 0. -1.
          2    1    1    2  501    0 -0.10740634189E+03 -0.45117804033E+02  0.24706239594E+03  0.27315117793E+03  0.00000000000E+00 0. -1.
<mgrwt>
<rscale>  2 0.11649780E+03</rscale>
<asrwt>0</asrwt>
<pdfrwt beam="1">  1       21 0.13344537E+00 0.11649780E+03</pdfrwt>
<pdfrwt beam="2">  1        2 0.28663723E-02 0.11649780E+03</pdfrwt>
<totfact> 0.16242268E+04</totfact>
</mgrwt>
</event>
<event>
 4    1  0.4926234E+003  0.1049207E+03  0.7546771E-02  0.1270276E+00
          2   -1    0    0  502    0 -0.00000000000E+00  0.00000000000E+00  0.29964598142E+03  0.29964598142E+03  0.00000000000E+00 0.  1.
         21   -1    0    0  503  502  0.00000000000E+00 -0.00000000000E+00 -0.91236986248E+02  0.91236986248E+02  0.00000000000E+00 0.  1.
         21    1    1    2  503  501  0.90379692511E+02  0.53290438190E+02 -0.46847320059E+02  0.11490444298E+03  0.00000000000E+00 0.  1.
          2    1    1    2  501    0 -0.90379692511E+02 -0.53290438190E+02  0.25525631523E+03  0.27597852468E+03  0.00000000000E+00 0.  1.
<mgrwt>
<rscale>  2 0.10492073E+03</rscale>
<asrwt>0</asrwt>
<pdfrwt beam="2">  1       21 0.14036460E-01 0.10492073E+03</pdfrwt>
<pdfrwt beam="1">  1        2 0.46099381E-01 0.10492073E+03</pdfrwt>
<totfact> 0.59571152E+04</totfact>
</mgrwt>
</event>
<event>
 4    1  0.4926234E+003  0.1228669E+03  0.7546771E-02  0.1238441E+00
          1   -1    0    0  503    0 -0.00000000000E+00  0.00000000000E+00  0.68269281646E+02  0.68269281646E+02  0.00000000000E+00 0. -1.
         21   -1    0    0  501  502  0.00000000000E+00 -0.00000000000E+00 -0.30040081611E+03  0.30040081611E+03  0.00000000000E+00 0. -1.
         21    1    1    2  503  502  0.10597839244E+03  0.62167875780E+02 -0.21075899415E+03  0.24395823015E+03  0.00000000000E+00 0. -1.
          1    1    1    2  501    0 -0.10597839244E+03 -0.62167875780E+02 -0.21372540311E+02  0.12471186760E+03  0.00000000000E+00 0. -1.
<mgrwt>
<rscale>  2 0.12286686E+03</rscale>
<asrwt>0</asrwt>
<pdfrwt beam="2">  1       21 0.46215511E-01 0.12286686E+03</pdfrwt>
<pdfrwt beam="1">  1        1 0.10502966E-01 0.12286686E+03</pdfrwt>
<totfact> 0.28622287E+04</totfact>
</mgrwt>
</event>
<event>
 4    1  0.4926234E+003  0.1234254E+03  0.7546771E-02  0.1237551E+00
         21   -1    0    0  501  502  0.00000000000E+00  0.00000000000E+00  0.25248342654E+02  0.25248342654E+02  0.00000000000E+00 0. -1.
          2   -1    0    0  503    0 -0.00000000000E+00 -0.00000000000E+00 -0.85905460370E+03  0.85905460370E+03  0.00000000000E+00 0.  1.
         21    1    1    2  503  502  0.11154043235E+03  0.52844712069E+02 -0.17567844173E+03  0.21470152894E+03  0.00000000000E+00 0. -1.
          2    1    1    2  501    0 -0.11154043235E+03 -0.52844712069E+02 -0.65812781932E+03  0.66960141741E+03  0.00000000000E+00 0.  1.
<mgrwt>
<rscale>  2 0.12342541E+03</rscale>
<asrwt>0</asrwt>
<pdfrwt beam="1">  1       21 0.38843609E-02 0.12342541E+03</pdfrwt>
<pdfrwt beam="2">  1        2 0.13216223E+00 0.12342541E+03</pdfrwt>
<totfact> 0.16705177E+05</totfact>
</mgrwt>
</event>
<event>
 4    1  0.4926234E+003  0.1023120E+03  0.7546771E-02  0.1275508E+00
         21   -1    0    0  503  502  0.00000000000E+00  0.00000000000E+00  0.25920335815E+02  0.25920335815E+02  0.00000000000E+00 0.  1.
          2   -1    0    0  502    0 -0.00000000000E+00 -0.00000000000E+00 -0.68234449368E+03  0.68234449368E+03  0.00000000000E+00 0.  1.
         21    1    1    2  503  501 -0.74232085164E+02  0.70408414908E+02 -0.10196782186E+03  0.14444785928E+03  0.00000000000E+00 0.  1.
          2    1    1    2  501    0  0.74232085164E+02 -0.70408414908E+02 -0.55445633601E+03  0.56381697021E+03  0.00000000000E+00 0.  1.
<mgrwt>
<rscale>  2 0.10231201E+03</rscale>
<asrwt>0</asrwt>
<pdfrwt beam="1">  1       21 0.39877443E-02 0.10231201E+03</pdfrwt>
<pdfrwt beam="2">  1        2 0.10497607E+00 0.10231201E+03</pdfrwt>
<totfact> 0.21015216E+05</totfact>
</mgrwt>
</event>
<event>
 4    1  0.4926234E+003  0.1187528E+03  0.7546771E-02  0.1245169E+00
         21   -1    0    0  501  502  0.00000000000E+00  0.00000000000E+00  0.29532762651E+03  0.29532762651E+03  0.00000000000E+00 0. -1.
         -1   -1    0    0    0  501 -0.00000000000E+00 -0.00000000000E+00 -0.88597528690E+02  0.88597528690E+02  0.00000000000E+00 0.  1.
         21    1    1    2  503  502  0.11238299220E+03 -0.38370554886E+02  0.23370648487E+03  0.26214682430E+03  0.00000000000E+00 0. -1.
         -1    1    1    2    0  503 -0.11238299220E+03  0.38370554886E+02 -0.26976387052E+02  0.12177833090E+03  0.00000000000E+00 0.  1.
<mgrwt>
<rscale>  2 0.11875284E+03</rscale>
<asrwt>0</asrwt>
<pdfrwt beam="1">  1       21 0.45435019E-01 0.11875284E+03</pdfrwt>
<pdfrwt beam="2">  1       -1 0.13630389E-01 0.11875284E+03</pdfrwt>
<totfact> 0.15665663E+04</totfact>
</mgrwt>
</event>
<event>
 4    1  0.4926234E+003  0.1067176E+03  0.7546771E-02  0.1266772E+00
         21   -1    0    0  503  502  0.00000000000E+00  0.00000000000E+00  0.70777994866E+02  0.70777994866E+02  0.00000000000E+00 0. -1.
          4   -1    0    0  502    0 -0.00000000000E+00 -0.00000000000E+00 -0.45286267116E+03  0.45286267116E+03  0.00000000000E+00 0. -1.
         21    1    1    2  503  501 -0.98233547061E+02  0.41699151257E+02  0.19179988490E+02  0.10842749164E+03  0.00000000000E+00 0. -1.
          4    1    1    2  501    0  0.98233547061E+02 -0.41699151257E+02 -0.40126466478E+03  0.41521317439E+03  0.00000000000E+00 0. -1.
<mgrwt>
<rscale>  2 0.10671761E+03</rscale>
<asrwt>0</asrwt>
<pdfrwt beam="1">  1       21 0.10888922E-01 0.10671761E+03</pdfrwt>
<pdfrwt beam="2">  1        4 0.69671182E-01 0.10671761E+03</pdfrwt>
<totfact> 0.54198286E+03</totfact>
</mgrwt>
</event>
<event>
 4    1  0.4926234E+003  0.1017185E+03  0.7546771E-02  0.1276723E+00
          2   -1    0    0  503    0 -0.00000000000E+00  0.00000000000E+00  0.99936999361E+03  0.99936999361E+03  0.00000000000E+00 0.  1.
         21   -1    0    0  501  502  0.00000000000E+00 -0.00000000000E+00 -0.11544263978E+03  0.11544263978E+03  0.00000000000E+00 0.  1.
         21    1    1    2  503  502 -0.10158248435E+03 -0.52581257721E+01 -0.89860845313E+02  0.13572627061E+03  0.00000000000E+00 0.  1.
          2    1    1    2  501    0  0.10158248435E+03  0.52581257721E+01  0.97378819914E+03  0.97908636279E+03  0.00000000000E+00 0.  1.
<mgrwt>
<rscale>  2 0.10171848E+03</rscale>
<asrwt>0</asrwt>
<pdfrwt beam="2">  1       21 0.17760407E-01 0.10171848E+03</pdfrwt>
<pdfrwt beam="1">  1        2 0.15374922E+00 0.10171848E+03</pdfrwt>
<totfact> 0.99330079E+03</totfact>
</mgrwt>
</event>
<event>
 4    1  0.4926234E+003  0.1267309E+03  0.7546771E-02  0.1232389E+00
         21   -1    0    0  501  502  0.00000000000E+00  0.00000000000E+00  0.19911791614E+03  0.19911791614E+03  0.00000000000E+00 0. -1.
          1   -1    0    0  503    0 -0.00000000000E+00 -0.00000000000E+00 -0.84416843066E+03  0.84416843066E+03  0.00000000000E+00 0.  1.
         21    1    1    2  503  502  0.16214226023E+02  0.12568933267E+03  0.17357116569E+03  0.21491314299E+03  0.00000000000E+00 0. -1.
          1    1    1    2  501    0 -0.16214226023E+02 -0.12568933267E+03 -0.81862168021E+03  0.82837320381E+03  0.00000000000E+00 0.  1.
<mgrwt>
<rscale>  2 0.12673085E+03</rscale>
<asrwt>0</asrwt>
<pdfrwt beam="1">  1       21 0.30633526E-01 0.12673085E+03</pdfrwt>
<pdfrwt beam="2">  1        1 0.12987206E+00 0.12673085E+03</pdfrwt>
<totfact> 0.25076923E+03</totfact>
</mgrwt>
</event>
<event>
 4    1  0.4926234E+003  0.1078097E+03  0.7546771E-02  0.1264681E+00
         -1   -1    0    0    0  501 -0.00000000000E+00  0.00000000000E+00  0.12506237342E+03  0.12506237342E+03  0.00000000000E+00 0. -1.
         21   -1    0    0  503  502  0.00000000000E+00 -0.00000000000E+00 -0.26754485786E+03  0.26754485786E+03  0.00000000000E+00 0.  1.
         21    1    1    2  503  501  0.56164823686E+02  0.92024182657E+02 -0.22982610454E+03  0.25385621116E+03  0.00000000000E+00 0.  1.
         -1    1    1    2    0  502 -0.56164823686E+02 -0.92024182657E+02  0.87343620102E+02  0.13875102013E+03  0.00000000000E+00 0. -1.
<mgrwt>
<rscale>  2 0.10780973E+03</rscale>
<asrwt>0</asrwt>
<pdfrwt beam="2">  1       21 0.41160747E-01 0.10780973E+03</pdfrwt>
<pdfrwt beam="1">  1       -1 0.19240365E-01 0.10780973E+03</pdfrwt>
<totfact> 0.11128349E+04</totfact>
</mgrwt>
</event>
<event>
 4    1  0.4926234E+003  0.1247699E+03  0.7546771E-02  0.1235429E+00
         21   -1    0    0  503  502  0.00000000000E+00  0.00000000000E+00  0.12299171273E+03  0.12299171273E+03  0.00000000000E+00 0.  1.
         -3   -1    0    0    0  501 -0.00000000000E+00 -0.00000000000E+00 -0.13281882817E+04  0.13281882817E+04  0.00000000000E+00 0. -1.
         21    1    1    2  503  501  0.94031632357E+02 -0.82009580731E+02  0.87552610248E+02  0.15242368181E+03  0.00000000000E+00 0.  1.
         -3    1    1    2    0  502 -0.94031632357E+02  0.82009580731E+02 -0.12927491792E+04  0.12987563126E+04  0.00000000000E+00 0. -1.
<mgrwt>
<rscale>  2 0.12476987E+03</rscale>
<asrwt>0</asrwt>
<pdfrwt beam="1">  1       21 0.18921803E-01 0.12476987E+03</pdfrwt>
<pdfrwt beam="2">  1       -3 0.20433665E+00 0.12476987E+03</pdfrwt>
<totfact> 0.19496631E+02</totfact>
</mgrwt>
</event>
<event>
 4    1  0.4926234E+003  0.1045892E+03  0.7546771E-02  0.1270931E+00
         21   -1    0    0  503  502  0.00000000000E+00  0.00000000000E+00  0.58382184596E+02  0.58382184596E+02  0.00000000000E+00 0. -1.
          2   -1    0    0  502    0 -0.00000000000E+00 -0.00000000000E+00 -0.76771992960E+03  0.76771992960E+03  0.00000000000E+00 0.  1.
         21    1    1    2  503  501 -0.86046904332E+02  0.59454463406E+02  0.44583847057E+01  0.10468419249E+03  0.00000000000E+00 0. -1.
          2    1    1    2  501    0  0.86046904332E+02 -0.59454463406E+02 -0.71379612971E+03  0.72141792170E+03  0.00000000000E+00 0.  1.
<mgrwt>
<rscale>  2 0.10458921E+03</rscale>
<asrwt>0</asrwt>
<pdfrwt beam="1">  1       21 0.89818756E-02 0.10458921E+03</pdfrwt>
<pdfrwt beam="2">  1        2 0.11811074E+00 0.10458921E+03</pdfrwt>
<totfact> 0.46460333E+04</totfact>
</mgrwt>
</event>
<event>
 4    1  0.4926234E+003  0.1452113E+03  0.7546771E-02  0.1206484E+00
          1   -1    0    0  503    0 -0.00000000000E+00  0.00000000000E+00  0.20855387030E+04  0.20855387030E+04  0.00000000000E+00 0. -1.
         21   -1    0    0  501  502  0.00000000000E+00 -0.00000000000E+00 -0.13425178859E+02  0.13425178859E+02  0.00000000000E+00 0. -1.
         21    1    1    2  503  502  0.11147815988E+03 -0.93053439796E+02  0.51459740675E+03  0.53469319597E+03  0.00000000000E+00 0. -1.
          1    1    1    2  501    0 -0.11147815988E+03  0.93053439796E+02  0.15575161174E+04  0.15642706859E+04  0.00000000000E+00 0. -1.
<mgrwt>
<rscale>  2 0.14521130E+03</rscale>
<asrwt>0</asrwt>
<pdfrwt beam="2">  1       21 0.20654138E-02 0.14521130E+03</pdfrwt>
<pdfrwt beam="1">  1        1 0.32085185E+00 0.14521130E+03</pdfrwt>
<totfact> 0.40179808E+04</totfact>
</mgrwt>
</event>
<event>
 4    1  0.4926234E+003  0.1117170E+03  0.7546771E-02  0.1257423E+00
         21   -1    0    0  501  502  0.00000000000E+00  0.00000000000E+00  0.31044181345E+02  0.31044181345E+02  0.00000000000E+00 0.  1.
          2   -1    0    0  503    0 -0.00000000000E+00 -0.00000000000E+00 -0.99008166712E+03  0.99008166712E+03  0.00000000000E+00 0.  1.
         21    1    1    2  503  502 -0.10374889304E+03  0.41434876264E+02 -0.86039676887E+02  0.14100889254E+03  0.00000000000E+00 0.  1.
          2    1    1    2  501    0  0.10374889304E+03 -0.41434876264E+02 -0.87299780889E+03  0.88011695593E+03  0.00000000000E+00 0.  1.
<mgrwt>
<rscale>  2 0.11171697E+03</rscale>
<asrwt>0</asrwt>
<pdfrwt beam="1">  1       21 0.47760280E-02 0.11171697E+03</pdfrwt>
<pdfrwt beam="2">  1        2 0.15232025E+00 0.11171697E+03</pdfrwt>
<totfact> 0.98100425E+04</totfact>
</mgrwt>
</event>
<event>
 4    1  0.4926234E+003  0.1062951E+03  0.7546771E-02  0.1267589E+00
         21   -1    0    0  501  502  0.00000000000E+00  0.00000000000E+00  0.85035769543E+01  0.85035769543E+01  0.00000000000E+00 0. -1.
          1   -1    0    0  503    0 -0.00000000000E+00 -0.00000000000E+00 -0.19526709084E+04  0.19526709084E+04  0.00000000000E+00 0. -1.
         21    1    1    2  503  502  0.10577975688E+03 -0.10454158480E+02 -0.41776923363E+03  0.43107978260E+03  0.00000000000E+00 0. -1.
          1    1    1    2  501    0 -0.10577975688E+03  0.10454158480E+02 -0.15263980978E+04  0.15300947027E+04  0.00000000000E+00 0. -1.
<mgrwt>
<rscale>  2 0.10629509E+03</rscale>
<asrwt>0</asrwt>
<pdfrwt beam="1">  1       21 0.13082435E-02 0.10629509E+03</pdfrwt>
<pdfrwt beam="2">  1        1 0.30041070E+00 0.10629509E+03</pdfrwt>
<totfact> 0.10189253E+05</totfact>
</mgrwt>
</event>
<event>
 4    1  0.4926234E+003  0.1000234E+03  0.7546771E-02  0.1280247E+00
         21   -1    0    0  503  502  0.00000000000E+00  0.00000000000E+00  0.96855765746E+02  0.96855765746E+02  0.00000000000E+00 0. -1.
         -1   -1    0    0    0  501 -0.00000000000E+00 -0.00000000000E+00 -0.41687238886E+03  0.41687238886E+03  0.00000000000E+00 0.  1.
         21    1    1    2  503  501 -0.58258369373E+02  0.81305869074E+02  0.62770776578E+02  0.11808832432E+03  0.00000000000E+00 0. -1.
         -1    1    1    2    0  502  0.58258369373E+02 -0.81305869074E+02 -0.38278739969E+03  0.39563983029E+03  0.00000000000E+00 0.  1.
<mgrwt>
<rscale>  2 0.10002341E+03</rscale>
<asrwt>0</asrwt>
<pdfrwt beam="1">  1       21 0.14900887E-01 0.10002341E+03</pdfrwt>
<pdfrwt beam="2">  1       -1 0.64134213E-01 0.10002341E+03</pdfrwt>
<totfact> 0.94935264E+03</totfact>
</mgrwt>
</event>
<event>
 4    1  0.4926234E+003  0.1459677E+03  0.7546771E-02  0.1205517E+00
          2   -1    0    0  503    0 -0.00000000000E+00  0.00000000000E+00  0.10311493394E+04  0.10311493394E+04  0.00000000000E+00 0.  1.
         21   -1    0    0  501  502  0.00000000000E+00 -0.00000000000E+00 -0.27313198272E+02  0.27313198272E+02  0.00000000000E+00 0.  1.
         21    1    1    2  503  502 -0.14484028098E+03 -0.18106785786E+02  0.24077474865E+03  0.28156534281E+03  0.00000000000E+00 0.  1.
          2    1    1    2  501    0  0.14484028098E+03  0.18106785786E+02  0.76306139247E+03  0.77689719485E+03  0.00000000000E+00 0.  1.
<mgrwt>
<rscale>  2 0.14596768E+03</rscale>
<asrwt>0</asrwt>
<pdfrwt beam="2">  1       21 0.42020313E-02 0.14596768E+03</pdfrwt>
<pdfrwt beam="1">  1        2 0.15863833E+00 0.14596768E+03</pdfrwt>
<totfact> 0.11524231E+05</totfact>
</mgrwt>
</event>
<event>
 4    1  0.4926234E+003  0.1102998E+03  0.7546771E-02  0.1260016E+00
          2   -1    0    0  502    0 -0.00000000000E+00  0.00000000000E+00  0.30075064762E+04  0.30075064762E+04  0.00000000000E+00 0.  1.
         21   -1    0    0  503  502  0.00000000000E+00 -0.00000000000E+00 -0.55253920403E+01  0.55253920403E+01  0.00000000000E+00 0.  1.
         21    1    1    2  503  501 -0.74508046307E+01 -0.11004782208E+03  0.72125437397E+03  0.72963957513E+03  0.00000000000E+00 0.  1.
          2    1    1    2  501    0  0.74508046307E+01  0.11004782208E+03  0.22807267102E+04  0.22833922931E+04  0.00000000000E+00 0.  1.
<mgrwt>
<rscale>  2 0.11029976E+03</rscale>
<asrwt>0</asrwt>
<pdfrwt beam="2">  1       21 0.85006271E-03 0.11029976E+03</pdfrwt>
<pdfrwt beam="1">  1        2 0.46269200E+00 0.11029976E+03</pdfrwt>
<totfact> 0.13464930E+05</totfact>
</mgrwt>
</event>
<event>
 4    1  0.4926234E+003  0.1372771E+03  0.7546771E-02  0.1217041E+00
          2   -1    0    0  503    0 -0.00000000000E+00  0.00000000000E+00  0.12719664020E+04  0.12719664020E+04  0.00000000000E+00 0. -1.
         21   -1    0    0  501  502  0.00000000000E+00 -0.00000000000E+00 -0.14918078629E+02  0.14918078629E+02  0.00000000000E+00 0. -1.
         21    1    1    2  503  502 -0.13598458309E+03  0.18793175469E+02  0.68184476265E+03  0.69552661389E+03  0.00000000000E+00 0. -1.
          2    1    1    2  501    0  0.13598458309E+03 -0.18793175469E+02  0.57520356072E+03  0.59135786673E+03  0.00000000000E+00 0. -1.
<mgrwt>
<rscale>  2 0.13727706E+03</rscale>
<asrwt>0</asrwt>
<pdfrwt beam="2">  1       21 0.22950900E-02 0.13727706E+03</pdfrwt>
<pdfrwt beam="1">  1        2 0.19568705E+00 0.13727706E+03</pdfrwt>
<totfact> 0.22789927E+05</totfact>
</mgrwt>
</event>
<event>
 4    1  0.4926234E+003  0.1840741E+03  0.7546771E-02  0.1163917E+00
         21   -1    0    0  503  502  0.00000000000E+00  0.00000000000E+00  0.28684609422E+03  0.28684609422E+03  0.00000000000E+00 0.  1.
          1   -1    0    0  502    0 -0.00000000000E+00 -0.00000000000E+00 -0.21431540461E+03  0.21431540461E+03  0.00000000000E+00 0.  1.
         21    1    1    2  503  501  0.17503700344E+03 -0.56967805520E+02  0.20414192873E+03  0.27487671874E+03  0.00000000000E+00 0.  1.
          1    1    1    2  501    0 -0.17503700344E+03  0.56967805520E+02 -0.13161123912E+03  0.22628478009E+03  0.00000000000E+00 0.  1.
<mgrwt>
<rscale>  2 0.18407412E+03</rscale>
<asrwt>0</asrwt>
<pdfrwt beam="1">  1       21 0.44130169E-01 0.18407412E+03</pdfrwt>
<pdfrwt beam="2">  1        1 0.32971601E-01 0.18407412E+03</pdfrwt>
<totfact> 0.72082028E+03</totfact>
</mgrwt>
</event>
<event>
 4    1  0.4926234E+003  0.1301369E+03  0.7546771E-02  0.1227253E+00
         21   -1    0    0  501  502  0.00000000000E+00  0.00000000000E+00  0.69688429337E+02  0.69688429337E+02  0.00000000000E+00 0.  1.
          1   -1    0    0  503    0 -0.00000000000E+00 -0.00000000000E+00 -0.16943417232E+04  0.16943417232E+04  0.00000000000E+00 0.  1.
         21    1    1    2  503  502  0.12568588034E+03  0.33744209388E+02  0.39878398978E+01  0.13019798406E+03  0.00000000000E+00 0.  1.
          1    1    1    2  501    0 -0.12568588034E+03 -0.33744209388E+02 -0.16286411338E+04  0.16338321685E+04  0.00000000000E+00 0.  1.
<mgrwt>
<rscale>  2 0.13013690E+03</rscale>
<asrwt>0</asrwt>
<pdfrwt beam="1">  1       21 0.10721298E-01 0.13013690E+03</pdfrwt>
<pdfrwt beam="2">  1        1 0.26066794E+00 0.13013690E+03</pdfrwt>
<totfact> 0.45004653E+03</totfact>
</mgrwt>
</event>
<event>
 4    1  0.4926234E+003  0.1044829E+03  0.7546771E-02  0.1271142E+00
         21   -1    0    0  501  502  0.00000000000E+00  0.00000000000E+00  0.27273821079E+02  0.27273821079E+02  0.00000000000E+00 0.  1.
          2   -1    0    0  503    0 -0.00000000000E+00 -0.00000000000E+00 -0.66106381337E+03  0.66106381337E+03  0.00000000000E+00 0.  1.
         21    1    1    2  503  502 -0.35562172876E+02  0.98244684076E+02 -0.10072034507E+03  0.14512502886E+03  0.00000000000E+00 0.  1.
          2    1    1    2  501    0  0.35562172876E+02 -0.98244684076E+02 -0.53306964721E+03  0.54321260559E+03  0.00000000000E+00 0.  1.
<mgrwt>
<rscale>  2 0.10448295E+03</rscale>
<asrwt>0</asrwt>
<pdfrwt beam="1">  1       21 0.41959723E-02 0.10448295E+03</pdfrwt>
<pdfrwt beam="2">  1        2 0.10170213E+00 0.10448295E+03</pdfrwt>
<totfact> 0.20060465E+05</totfact>
</mgrwt>
</event>
<event>
 4    1  0.4926234E+003  0.1053905E+03  0.7546771E-02  0.1269352E+00
         -1   -1    0    0    0  501 -0.00000000000E+00  0.00000000000E+00  0.42108998247E+03  0.42108998247E+03  0.00000000000E+00 0. -1.
         21   -1    0    0  503  502  0.00000000000E+00 -0.00000000000E+00 -0.22992087536E+03  0.22992087536E+03  0.00000000000E+00 0.  1.
         21    1    1    2  503  501 -0.87836837137E+01  0.10502386314E+03 -0.21068079666E+03  0.23557071764E+03  0.00000000000E+00 0.  1.
         -1    1    1    2    0  502  0.87836837137E+01 -0.10502386314E+03  0.40184990377E+03  0.41544014019E+03  0.00000000000E+00 0. -1.
<mgrwt>
<rscale>  2 0.10539054E+03</rscale>
<asrwt>0</asrwt>
<pdfrwt beam="2">  1       21 0.35372442E-01 0.10539054E+03</pdfrwt>
<pdfrwt beam="1">  1       -1 0.64783074E-01 0.10539054E+03</pdfrwt>
<totfact> 0.18535859E+03</totfact>
</mgrwt>
</event>
<event>
 4    1  0.4926234E+003  0.1136008E+03  0.7546771E-02  0.1254043E+00
         -4   -1    0    0    0  501 -0.00000000000E+00  0.00000000000E+00  0.45471553648E+02  0.45471553648E+02  0.00000000000E+00 0.  1.
         21   -1    0    0  503  502  0.00000000000E+00 -0.00000000000E+00 -0.11437928373E+04  0.11437928373E+04  0.00000000000E+00 0.  1.
         21    1    1    2  503  501  0.10522421086E+03 -0.42813572682E+02 -0.10647695727E+04  0.10708124857E+04  0.00000000000E+00 0.  1.
         -4    1    1    2    0  502 -0.10522421086E+03  0.42813572682E+02 -0.33551710974E+02  0.11845190528E+03  0.00000000000E+00 0.  1.
<mgrwt>
<rscale>  2 0.11360078E+03</rscale>
<asrwt>0</asrwt>
<pdfrwt beam="2">  1       21 0.17596812E+00 0.11360078E+03</pdfrwt>
<pdfrwt beam="1">  1       -4 0.69956240E-02 0.11360078E+03</pdfrwt>
<totfact> 0.11356250E+03</totfact>
</mgrwt>
</event>
<event>
 4    1  0.4926234E+003  0.1221976E+03  0.7546771E-02  0.1239515E+00
          2   -1    0    0  502    0 -0.00000000000E+00  0.00000000000E+00  0.33269873976E+04  0.33269873976E+04  0.00000000000E+00 0.  1.
         21   -1    0    0  503  502  0.00000000000E+00 -0.00000000000E+00 -0.18469265568E+02  0.18469265568E+02  0.00000000000E+00 0. -1.
         21    1    1    2  503  501  0.11720198835E+03  0.34582381617E+02  0.19889903062E+03  0.23343751106E+03  0.00000000000E+00 0. -1.
          2    1    1    2  501    0 -0.11720198835E+03 -0.34582381617E+02  0.31096191014E+04  0.31120191521E+04  0.00000000000E+00 0.  1.
<mgrwt>
<rscale>  2 0.12219757E+03</rscale>
<asrwt>0</asrwt>
<pdfrwt beam="2">  1       21 0.28414281E-02 0.12219757E+03</pdfrwt>
<pdfrwt beam="1">  1        2 0.51184374E+00 0.12219757E+03</pdfrwt>
<totfact> 0.12585995E+04</totfact>
</mgrwt>
</event>
<event>
 4    1  0.4926234E+003  0.1117697E+03  0.7546771E-02  0.1257327E+00
         21   -1    0    0  501  502  0.00000000000E+00  0.00000000000E+00  0.17507267479E+03  0.17507267479E+03  0.00000000000E+00 0.  1.
         -1   -1    0    0    0  501 -0.00000000000E+00 -0.00000000000E+00 -0.87531589223E+02  0.87531589223E+02  0.00000000000E+00 0.  1.
         21    1    1    2  503  502  0.43919022811E+01 -0.11168337309E+03  0.10021496707E+03  0.15011830087E+03  0.00000000000E+00 0.  1.
         -1    1    1    2    0  503 -0.43919022811E+01  0.11168337309E+03 -0.12673881506E+02  0.11248596314E+03  0.00000000000E+00 0.  1.
<mgrwt>
<rscale>  2 0.11176969E+03</rscale>
<asrwt>0</asrwt>
<pdfrwt beam="1">  1       21 0.26934258E-01 0.11176969E+03</pdfrwt>
<pdfrwt beam="2">  1       -1 0.13466398E-01 0.11176969E+03</pdfrwt>
<totfact> 0.44441595E+04</totfact>
</mgrwt>
</event>
<event>
 4    1  0.4926234E+003  0.1293232E+03  0.7546771E-02  0.1228463E+00
         21   -1    0    0  503  502  0.00000000000E+00  0.00000000000E+00  0.15716177460E+03  0.15716177460E+03  0.00000000000E+00 0.  1.
          1   -1    0    0  502    0 -0.00000000000E+00 -0.00000000000E+00 -0.11167130528E+04  0.11167130528E+04  0.00000000000E+00 0.  1.
         21    1    1    2  503  501 -0.11358126866E+03 -0.61836703320E+02  0.12605407224E+03  0.18059377507E+03  0.00000000000E+00 0.  1.
          1    1    1    2  501    0  0.11358126866E+03  0.61836703320E+02 -0.10856053504E+04  0.10932810523E+04  0.00000000000E+00 0.  1.
<mgrwt>
<rscale>  2 0.12932317E+03</rscale>
<asrwt>0</asrwt>
<pdfrwt beam="1">  1       21 0.24178734E-01 0.12932317E+03</pdfrwt>
<pdfrwt beam="2">  1        1 0.17180201E+00 0.12932317E+03</pdfrwt>
<totfact> 0.24718524E+03</totfact>
</mgrwt>
</event>
<event>
 4    1  0.4926234E+003  0.1025535E+03  0.7546771E-02  0.1275016E+00
         -1   -1    0    0    0  501 -0.00000000000E+00  0.00000000000E+00  0.73034294261E+02  0.73034294261E+02  0.00000000000E+00 0.  1.
         21   -1    0    0  501  502  0.00000000000E+00 -0.00000000000E+00 -0.23025747501E+03  0.23025747501E+03  0.00000000000E+00 0. -1.
         21    1    1    2  503  502 -0.45533186774E+02  0.91890929381E+02 -0.17142540654E+03  0.19975956550E+03  0.00000000000E+00 0. -1.
         -1    1    1    2    0  503  0.45533186774E+02 -0.91890929381E+02  0.14202225793E+02  0.10353220377E+03  0.00000000000E+00 0.  1.
<mgrwt>
<rscale>  2 0.10255347E+03</rscale>
<asrwt>0</asrwt>
<pdfrwt beam="2">  1       21 0.35424227E-01 0.10255347E+03</pdfrwt>
<pdfrwt beam="1">  1       -1 0.11236045E-01 0.10255347E+03</pdfrwt>
<totfact> 0.34531634E+04</totfact>
</mgrwt>
</event>
<event>
 4    1  0.4926234E+003  0.1154449E+03  0.7546771E-02  0.1250807E+00
         -2   -1    0    0    0  501 -0.00000000000E+00  0.00000000000E+00  0.16676974449E+03  0.16676974449E+03  0.00000000000E+00 0. -1.
         21   -1    0    0  501  502  0.00000000000E+00 -0.00000000000E+00 -0.74675626715E+03  0.74675626715E+03  0.00000000000E+00 0. -1.
         21    1    1    2  503  502 -0.52893897753E+01  0.11532361390E+03 -0.72162413823E+03  0.73080018503E+03  0.00000000000E+00 0. -1.
         -2    1    1    2    0  503  0.52893897753E+01 -0.11532361390E+03  0.14163761557E+03  0.18272582661E+03  0.00000000000E+00 0. -1.
<mgrwt>
<rscale>  2 0.11544485E+03</rscale>
<asrwt>0</asrwt>
<pdfrwt beam="2">  1       21 0.11488558E+00 0.11544485E+03</pdfrwt>
<pdfrwt beam="1">  1       -2 0.25656884E-01 0.11544485E+03</pdfrwt>
<totfact> 0.66662379E+02</totfact>
</mgrwt>
</event>
<event>
 4    1  0.4926234E+003  0.1377355E+03  0.7546771E-02  0.1216409E+00
         21   -1    0    0  503  502  0.00000000000E+00  0.00000000000E+00  0.53314052226E+02  0.53314052226E+02  0.00000000000E+00 0.  1.
         -1   -1    0    0    0  501 -0.00000000000E+00 -0.00000000000E+00 -0.79669585730E+03  0.79669585730E+03  0.00000000000E+00 0.  1.
         21    1    1    2  503  501 -0.10329916258E+03  0.91106191600E+02 -0.55537377787E+02  0.14851079243E+03  0.00000000000E+00 0.  1.
         -1    1    1    2    0  502  0.10329916258E+03 -0.91106191600E+02 -0.68784442729E+03  0.70149911709E+03  0.00000000000E+00 0.  1.
<mgrwt>
<rscale>  2 0.13773545E+03</rscale>
<asrwt>0</asrwt>
<pdfrwt beam="1">  1       21 0.82021621E-02 0.13773545E+03</pdfrwt>
<pdfrwt beam="2">  1       -1 0.12256859E+00 0.13773545E+03</pdfrwt>
<totfact> 0.68600347E+03</totfact>
</mgrwt>
</event>
<event>
 4    1  0.4926234E+003  0.1102541E+03  0.7546771E-02  0.1260100E+00
         -2   -1    0    0    0  501 -0.00000000000E+00  0.00000000000E+00  0.35672574394E+03  0.35672574394E+03  0.00000000000E+00 0.  1.
         21   -1    0    0  503  502  0.00000000000E+00 -0.00000000000E+00 -0.11535929641E+03  0.11535929641E+03  0.00000000000E+00 0.  1.
         21    1    1    2  503  501  0.96794686540E+02  0.52789772949E+02 -0.77452694473E+02  0.13474008814E+03  0.00000000000E+00 0.  1.
         -2    1    1    2    0  502 -0.96794686540E+02 -0.52789772949E+02  0.31881914200E+03  0.33734495221E+03  0.00000000000E+00 0.  1.
<mgrwt>
<rscale>  2 0.11025412E+03</rscale>
<asrwt>0</asrwt>
<pdfrwt beam="2">  1       21 0.17747584E-01 0.11025412E+03</pdfrwt>
<pdfrwt beam="1">  1       -2 0.54880883E-01 0.11025412E+03</pdfrwt>
<totfact> 0.74733137E+03</totfact>
</mgrwt>
</event>
<event>
 4    1  0.4926234E+003  0.1035854E+03  0.7546771E-02  0.1272932E+00
          2   -1    0    0  502    0 -0.00000000000E+00  0.00000000000E+00  0.25509699866E+03  0.25509699866E+03  0.00000000000E+00 0. -1.
         21   -1    0    0  503  502  0.00000000000E+00 -0.00000000000E+00 -0.63789854116E+03  0.63789854116E+03  0.00000000000E+00 0. -1.
         21    1    1    2  503  501  0.10255226791E+03 -0.14593388950E+02 -0.62292679616E+03  0.63148058404E+03  0.00000000000E+00 0. -1.
          2    1    1    2  501    0 -0.10255226791E+03  0.14593388950E+02  0.24012525365E+03  0.26151495578E+03  0.00000000000E+00 0. -1.
<mgrwt>
<rscale>  2 0.10358540E+03</rscale>
<asrwt>0</asrwt>
<pdfrwt beam="2">  1       21 0.98138237E-01 0.10358540E+03</pdfrwt>
<pdfrwt beam="1">  1        2 0.39245692E-01 0.10358540E+03</pdfrwt>
<totfact> 0.14615610E+03</totfact>
</mgrwt>
</event>
<event>
 4    1  0.4926234E+003  0.2093207E+03  0.7546771E-02  0.1142105E+00
         21   -1    0    0  503  502  0.00000000000E+00  0.00000000000E+00  0.12083536792E+03  0.12083536792E+03  0.00000000000E+00 0.  1.
          2   -1    0    0  502    0 -0.00000000000E+00 -0.00000000000E+00 -0.10821626686E+04  0.10821626686E+04  0.00000000000E+00 0. -1.
         21    1    1    2  503  501  0.19268854774E+03  0.81769729382E+02  0.98174865212E+01  0.20955082466E+03  0.00000000000E+00 0.  1.
          2    1    1    2  501    0 -0.19268854774E+03 -0.81769729382E+02 -0.97114478725E+03  0.99344721192E+03  0.00000000000E+00 0. -1.
<mgrwt>
<rscale>  2 0.20932072E+03</rscale>
<asrwt>0</asrwt>
<pdfrwt beam="1">  1       21 0.18590057E-01 0.20932072E+03</pdfrwt>
<pdfrwt beam="2">  1        2 0.16648656E+00 0.20932072E+03</pdfrwt>
<totfact> 0.78445544E+03</totfact>
</mgrwt>
</event>
<event>
 4    1  0.4926234E+003  0.1376293E+03  0.7546771E-02  0.1216555E+00
         21   -1    0    0  501  502  0.00000000000E+00  0.00000000000E+00  0.29858964083E+03  0.29858964083E+03  0.00000000000E+00 0.  1.
         -1   -1    0    0    0  501 -0.00000000000E+00 -0.00000000000E+00 -0.90740485117E+02  0.90740485117E+02  0.00000000000E+00 0.  1.
         21    1    1    2  503  502 -0.24444489503E+02 -0.13544110666E+03  0.21070491909E+03  0.25167119297E+03  0.00000000000E+00 0.  1.
         -1    1    1    2    0  503  0.24444489503E+02  0.13544110666E+03 -0.28557633859E+01  0.13765893297E+03  0.00000000000E+00 0.  1.
<mgrwt>
<rscale>  2 0.13762931E+03</rscale>
<asrwt>0</asrwt>
<pdfrwt beam="1">  1       21 0.45936867E-01 0.13762931E+03</pdfrwt>
<pdfrwt beam="2">  1       -1 0.13960075E-01 0.13762931E+03</pdfrwt>
<totfact> 0.14762720E+04</totfact>
</mgrwt>
</event>
<event>
 4    1  0.4926234E+003  0.1387529E+03  0.7546771E-02  0.1215017E+00
         21   -1    0    0  501  502  0.00000000000E+00  0.00000000000E+00  0.48628590844E+02  0.48628590844E+02  0.00000000000E+00 0. -1.
          2   -1    0    0  503    0 -0.00000000000E+00 -0.00000000000E+00 -0.64681158638E+03  0.64681158638E+03  0.00000000000E+00 0.  1.
         21    1    1    2  503  502 -0.10603205332E+03  0.89496211450E+02 -0.82522770820E+02  0.16143845855E+03  0.00000000000E+00 0. -1.
          2    1    1    2  501    0  0.10603205332E+03 -0.89496211450E+02 -0.51566022472E+03  0.53400171868E+03  0.00000000000E+00 0.  1.
<mgrwt>
<rscale>  2 0.13875290E+03</rscale>
<asrwt>0</asrwt>
<pdfrwt beam="1">  1       21 0.74813218E-02 0.13875290E+03</pdfrwt>
<pdfrwt beam="2">  1        2 0.99509472E-01 0.13875290E+03</pdfrwt>
<totfact> 0.78176365E+04</totfact>
</mgrwt>
</event>
<event>
 4    1  0.4926234E+003  0.2318686E+03  0.7546771E-02  0.1125331E+00
         21   -1    0    0  501  502  0.00000000000E+00  0.00000000000E+00  0.14010584582E+03  0.14010584582E+03  0.00000000000E+00 0.  1.
          2   -1    0    0  503    0 -0.00000000000E+00 -0.00000000000E+00 -0.60990790815E+03  0.60990790815E+03  0.00000000000E+00 0. -1.
         21    1    1    2  503  502 -0.16180257125E+03  0.16608129215E+03 -0.65355447581E+01  0.23196073161E+03  0.00000000000E+00 0.  1.
          2    1    1    2  501    0  0.16180257125E+03 -0.16608129215E+03 -0.46326651757E+03  0.51805302235E+03  0.00000000000E+00 0. -1.
<mgrwt>
<rscale>  2 0.23186864E+03</rscale>
<asrwt>0</asrwt>
<pdfrwt beam="1">  1       21 0.21554746E-01 0.23186864E+03</pdfrwt>
<pdfrwt beam="2">  1        2 0.93831984E-01 0.23186864E+03</pdfrwt>
<totfact> 0.12375240E+04</totfact>
</mgrwt>
</event>
<event>
 4    1  0.4926234E+003  0.1103507E+03  0.7546771E-02  0.1259922E+00
          4   -1    0    0  502    0 -0.00000000000E+00  0.00000000000E+00  0.46313571857E+03  0.46313571857E+03  0.00000000000E+00 0. -1.
         21   -1    0    0  503  502  0.00000000000E+00 -0.00000000000E+00 -0.48776564393E+02  0.48776564393E+02  0.00000000000E+00 0. -1.
         21    1    1    2  503  501  0.37250977840E+02  0.10387320652E+03  0.33402907391E+02  0.11529541450E+03  0.00000000000E+00 0. -1.
          4    1    1    2  501    0 -0.37250977840E+02 -0.10387320652E+03  0.38095624679E+03  0.39661686846E+03  0.00000000000E+00 0. -1.
<mgrwt>
<rscale>  2 0.11035071E+03</rscale>
<asrwt>0</asrwt>
<pdfrwt beam="2">  1       21 0.75040871E-02 0.11035071E+03</pdfrwt>
<pdfrwt beam="1">  1        4 0.71251646E-01 0.11035071E+03</pdfrwt>
<totfact> 0.98671994E+03</totfact>
</mgrwt>
</event>
<event>
 4    1  0.4926234E+003  0.1070680E+03  0.7546771E-02  0.1266098E+00
          2   -1    0    0  502    0 -0.00000000000E+00  0.00000000000E+00  0.17778751767E+04  0.17778751767E+04  0.00000000000E+00 0.  1.
         21   -1    0    0  503  502  0.00000000000E+00 -0.00000000000E+00 -0.39516058542E+02  0.39516058542E+02  0.00000000000E+00 0.  1.
         21    1    1    2  503  501  0.68049913664E+01  0.10685151566E+03  0.37919995055E+02  0.11358468352E+03  0.00000000000E+00 0.  1.
          2    1    1    2  501    0 -0.68049913664E+01 -0.10685151566E+03  0.17004391231E+04  0.17038065517E+04  0.00000000000E+00 0.  1.
<mgrwt>
<rscale>  2 0.10706799E+03</rscale>
<asrwt>0</asrwt>
<pdfrwt beam="2">  1       21 0.60793950E-02 0.10706799E+03</pdfrwt>
<pdfrwt beam="1">  1        2 0.27351920E+00 0.10706799E+03</pdfrwt>
<totfact> 0.24898368E+04</totfact>
</mgrwt>
</event>
<event>
 4    1  0.4926234E+003  0.1188018E+03  0.7546771E-02  0.1245087E+00
         21   -1    0    0  501  502  0.00000000000E+00  0.00000000000E+00  0.25735524016E+02  0.25735524016E+02  0.00000000000E+00 0. -1.
          2   -1    0    0  503    0 -0.00000000000E+00 -0.00000000000E+00 -0.55542136902E+03  0.55542136902E+03  0.00000000000E+00 0. -1.
         21    1    1    2  503  502  0.22849041855E+02 -0.11658383884E+03 -0.23221791000E+03  0.26084291809E+03  0.00000000000E+00 0. -1.
          2    1    1    2  501    0 -0.22849041855E+02  0.11658383884E+03 -0.29746793500E+03  0.32031397495E+03  0.00000000000E+00 0. -1.
<mgrwt>
<rscale>  2 0.11880181E+03</rscale>
<asrwt>0</asrwt>
<pdfrwt beam="1">  1       21 0.39593116E-02 0.11880181E+03</pdfrwt>
<pdfrwt beam="2">  1        2 0.85449438E-01 0.11880181E+03</pdfrwt>
<totfact> 0.27061502E+05</totfact>
</mgrwt>
</event>
<event>
 4    1  0.4926234E+003  0.1161787E+03  0.7546771E-02  0.1249538E+00
          1   -1    0    0  503    0 -0.00000000000E+00  0.00000000000E+00  0.64007196786E+03  0.64007196786E+03  0.00000000000E+00 0. -1.
         21   -1    0    0  501  502  0.00000000000E+00 -0.00000000000E+00 -0.53800057088E+02  0.53800057088E+02  0.00000000000E+00 0.  1.
         21    1    1    2  503  502 -0.10572571822E+03  0.48161758434E+02  0.22605835050E+02  0.11835753565E+03  0.00000000000E+00 0.  1.
          1    1    1    2  501    0  0.10572571822E+03 -0.48161758434E+02  0.56366607572E+03  0.57551448929E+03  0.00000000000E+00 0. -1.
<mgrwt>
<rscale>  2 0.11617867E+03</rscale>
<asrwt>0</asrwt>
<pdfrwt beam="2">  1       21 0.82769323E-02 0.11617867E+03</pdfrwt>
<pdfrwt beam="1">  1        1 0.98472605E-01 0.11617867E+03</pdfrwt>
<totfact> 0.40430260E+04</totfact>
</mgrwt>
</event>
<event>
 4    1  0.4926234E+003  0.1067352E+03  0.7546771E-02  0.1266738E+00
          2   -1    0    0  503    0 -0.00000000000E+00  0.00000000000E+00  0.26280087213E+04  0.26280087213E+04  0.00000000000E+00 0. -1.
         21   -1    0    0  501  502  0.00000000000E+00 -0.00000000000E+00 -0.61025539611E+01  0.61025539611E+01  0.00000000000E+00 0.  1.
         21    1    1    2  503  502 -0.10333141520E+03  0.26739927641E+02  0.60213426015E+03  0.61152111357E+03  0.00000000000E+00 0.  1.
          2    1    1    2  501    0  0.10333141520E+03 -0.26739927641E+02  0.20197719072E+04  0.20225901617E+04  0.00000000000E+00 0. -1.
<mgrwt>
<rscale>  2 0.10673521E+03</rscale>
<asrwt>0</asrwt>
<pdfrwt beam="2">  1       21 0.93885655E-03 0.10673521E+03</pdfrwt>
<pdfrwt beam="1">  1        2 0.40430813E+00 0.10673521E+03</pdfrwt>
<totfact> 0.18738251E+05</totfact>
</mgrwt>
</event>
<event>
 4    1  0.4926234E+003  0.1104755E+03  0.7546771E-02  0.1259692E+00
          2   -1    0    0  502    0 -0.00000000000E+00  0.00000000000E+00  0.11609441092E+04  0.11609441092E+04  0.00000000000E+00 0.  1.
         21   -1    0    0  503  502  0.00000000000E+00 -0.00000000000E+00 -0.11557407654E+03  0.11557407654E+03  0.00000000000E+00 0.  1.
         21    1    1    2  503  501  0.10345903076E+03 -0.38743445472E+02 -0.85853453402E+02  0.13991297679E+03  0.00000000000E+00 0.  1.
          2    1    1    2  501    0 -0.10345903076E+03  0.38743445472E+02  0.11312234860E+04  0.11366052089E+04  0.00000000000E+00 0.  1.
<mgrwt>
<rscale>  2 0.11047545E+03</rscale>
<asrwt>0</asrwt>
<pdfrwt beam="2">  1       21 0.17780628E-01 0.11047545E+03</pdfrwt>
<pdfrwt beam="1">  1        2 0.17860678E+00 0.11047545E+03</pdfrwt>
<totfact> 0.79822362E+03</totfact>
</mgrwt>
</event>
<event>
 4    1  0.4926234E+003  0.1914494E+03  0.7546771E-02  0.1157161E+00
         21   -1    0    0  501  502  0.00000000000E+00  0.00000000000E+00  0.15419668080E+02  0.15419668080E+02  0.00000000000E+00 0. -1.
          2   -1    0    0  503    0 -0.00000000000E+00 -0.00000000000E+00 -0.24113267267E+04  0.24113267267E+04  0.00000000000E+00 0. -1.
         21    1    1    2  503  502  0.11571653280E+02  0.19109936134E+03 -0.13426813591E+04  0.13562618115E+04  0.00000000000E+00 0. -1.
          2    1    1    2  501    0 -0.11571653280E+02 -0.19109936134E+03 -0.10532256994E+04  0.10704845833E+04  0.00000000000E+00 0. -1.
<mgrwt>
<rscale>  2 0.19144939E+03</rscale>
<asrwt>0</asrwt>
<pdfrwt beam="1">  1       21 0.23722565E-02 0.19144939E+03</pdfrwt>
<pdfrwt beam="2">  1        2 0.37097337E+00 0.19144939E+03</pdfrwt>
<totfact> 0.54540800E+04</totfact>
</mgrwt>
</event>
<event>
 4    1  0.4926234E+003  0.2072256E+03  0.7546771E-02  0.1143782E+00
         21   -1    0    0  503  502  0.00000000000E+00  0.00000000000E+00  0.11629535883E+03  0.11629535883E+03  0.00000000000E+00 0. -1.
          2   -1    0    0  502    0 -0.00000000000E+00 -0.00000000000E+00 -0.11288068733E+04  0.11288068733E+04  0.00000000000E+00 0. -1.
         21    1    1    2  503  501  0.81321401889E+02 -0.19060240989E+03  0.44189976484E+01  0.20727271070E+03  0.00000000000E+00 0. -1.
          2    1    1    2  501    0 -0.81321401889E+02  0.19060240989E+03 -0.10169305121E+04  0.10378295214E+04  0.00000000000E+00 0. -1.
<mgrwt>
<rscale>  2 0.20722560E+03</rscale>
<asrwt>0</asrwt>
<pdfrwt beam="1">  1       21 0.17891594E-01 0.20722560E+03</pdfrwt>
<pdfrwt beam="2">  1        2 0.17366259E+00 0.20722560E+03</pdfrwt>
<totfact> 0.79172872E+03</totfact>
</mgrwt>
</event>
<event>
 4    1  0.4926234E+003  0.1036041E+03  0.7546771E-02  0.1272894E+00
          2   -1    0    0  502    0 -0.00000000000E+00  0.00000000000E+00  0.75675917950E+03  0.75675917950E+03  0.00000000000E+00 0.  1.
         21   -1    0    0  503  502  0.00000000000E+00 -0.00000000000E+00 -0.18839948109E+03  0.18839948109E+03  0.00000000000E+00 0.  1.
         21    1    1    2  503  501  0.95427718361E+02  0.40340601994E+02 -0.17026202278E+03  0.19930622169E+03  0.00000000000E+00 0.  1.
          2    1    1    2  501    0 -0.95427718361E+02 -0.40340601994E+02  0.73862172119E+03  0.74585243890E+03  0.00000000000E+00 0.  1.
<mgrwt>
<rscale>  2 0.10360412E+03</rscale>
<asrwt>0</asrwt>
<pdfrwt beam="2">  1       21 0.28984536E-01 0.10360412E+03</pdfrwt>
<pdfrwt beam="1">  1        2 0.11642449E+00 0.10360412E+03</pdfrwt>
<totfact> 0.56848130E+03</totfact>
</mgrwt>
</event>
<event>
 4    1  0.4926234E+003  0.1172074E+03  0.7546771E-02  0.1247776E+00
         21   -1    0    0  503  502  0.00000000000E+00  0.00000000000E+00  0.90964032484E+02  0.90964032484E+02  0.00000000000E+00 0. -1.
         -4   -1    0    0    0  501 -0.00000000000E+00 -0.00000000000E+00 -0.10187601997E+04  0.10187601997E+04  0.00000000000E+00 0.  1.
         21    1    1    2  503  501  0.47593607287E+02 -0.10710939331E+03  0.48188546986E+02  0.12672690973E+03  0.00000000000E+00 0. -1.
         -4    1    1    2    0  502 -0.47593607287E+02  0.10710939331E+03 -0.97598471422E+03  0.98299732247E+03  0.00000000000E+00 0.  1.
<mgrwt>
<rscale>  2 0.11720740E+03</rscale>
<asrwt>0</asrwt>
<pdfrwt beam="1">  1       21 0.13994466E-01 0.11720740E+03</pdfrwt>
<pdfrwt beam="2">  1       -4 0.15673234E+00 0.11720740E+03</pdfrwt>
<totfact> 0.52805145E+02</totfact>
</mgrwt>
</event>
<event>
 4    1  0.4926234E+003  0.1311321E+03  0.7546771E-02  0.1225786E+00
          2   -1    0    0  503    0 -0.00000000000E+00  0.00000000000E+00  0.11619516578E+04  0.11619516578E+04  0.00000000000E+00 0. -1.
         21   -1    0    0  501  502  0.00000000000E+00 -0.00000000000E+00 -0.30212904725E+03  0.30212904725E+03  0.00000000000E+00 0. -1.
         21    1    1    2  503  502 -0.83829015272E+02 -0.10083806849E+03 -0.28397552443E+03  0.31279021458E+03  0.00000000000E+00 0. -1.
          2    1    1    2  501    0  0.83829015272E+02  0.10083806849E+03  0.11437981350E+04  0.11512904905E+04  0.00000000000E+00 0. -1.
<mgrwt>
<rscale>  2 0.13113207E+03</rscale>
<asrwt>0</asrwt>
<pdfrwt beam="2">  1       21 0.46481393E-01 0.13113207E+03</pdfrwt>
<pdfrwt beam="1">  1        2 0.17876179E+00 0.13113207E+03</pdfrwt>
<totfact> 0.12410972E+03</totfact>
</mgrwt>
</event>
<event>
 4    1  0.4926234E+003  0.1065420E+03  0.7546771E-02  0.1267111E+00
         21   -1    0    0  503  502  0.00000000000E+00  0.00000000000E+00  0.68889427680E+02  0.68889427680E+02  0.00000000000E+00 0.  1.
         -2   -1    0    0    0  501 -0.00000000000E+00 -0.00000000000E+00 -0.65444232590E+03  0.65444232590E+03  0.00000000000E+00 0. -1.
         21    1    1    2  503  501  0.83134712037E+02  0.66631902100E+02  0.20063945304E+02  0.10841472513E+03  0.00000000000E+00 0.  1.
         -2    1    1    2    0  502 -0.83134712037E+02 -0.66631902100E+02 -0.60561684352E+03  0.61491702845E+03  0.00000000000E+00 0. -1.
<mgrwt>
<rscale>  2 0.10654197E+03</rscale>
<asrwt>0</asrwt>
<pdfrwt beam="1">  1       21 0.10598374E-01 0.10654197E+03</pdfrwt>
<pdfrwt beam="2">  1       -2 0.10068343E+00 0.10654197E+03</pdfrwt>
<totfact> 0.50947553E+03</totfact>
</mgrwt>
</event>
<event>
 4    1  0.4926234E+003  0.1424561E+03  0.7546771E-02  0.1210062E+00
         21   -1    0    0  503  502  0.00000000000E+00  0.00000000000E+00  0.32810397557E+03  0.32810397557E+03  0.00000000000E+00 0.  1.
          2   -1    0    0  502    0 -0.00000000000E+00 -0.00000000000E+00 -0.20426198097E+04  0.20426198097E+04  0.00000000000E+00 0.  1.
         21    1    1    2  503  501 -0.96835974281E+02  0.10448222302E+03  0.31001934339E+03  0.34118284558E+03  0.00000000000E+00 0.  1.
          2    1    1    2  501    0  0.96835974281E+02 -0.10448222302E+03 -0.20245351775E+04  0.20295409397E+04  0.00000000000E+00 0.  1.
<mgrwt>
<rscale>  2 0.14245610E+03</rscale>
<asrwt>0</asrwt>
<pdfrwt beam="1">  1       21 0.50477536E-01 0.14245610E+03</pdfrwt>
<pdfrwt beam="2">  1        2 0.31424920E+00 0.14245610E+03</pdfrwt>
<totfact> 0.35918916E+02</totfact>
</mgrwt>
</event>
<event>
 4    1  0.4926234E+003  0.1024484E+03  0.7546771E-02  0.1275230E+00
         21   -1    0    0  501  502  0.00000000000E+00  0.00000000000E+00  0.51864312411E+02  0.51864312411E+02  0.00000000000E+00 0.  1.
         -1   -1    0    0    0  501 -0.00000000000E+00 -0.00000000000E+00 -0.21330895324E+03  0.21330895324E+03  0.00000000000E+00 0.  1.
         21    1    1    2  503  502 -0.99182120082E+02 -0.25662880821E+02 -0.50694550612E+02  0.11430491616E+03  0.00000000000E+00 0.  1.
         -1    1    1    2    0  503  0.99182120082E+02  0.25662880821E+02 -0.11075009022E+03  0.15086834949E+03  0.00000000000E+00 0.  1.
<mgrwt>
<rscale>  2 0.10244841E+03</rscale>
<asrwt>0</asrwt>
<pdfrwt beam="1">  1       21 0.79791251E-02 0.10244841E+03</pdfrwt>
<pdfrwt beam="2">  1       -1 0.32816762E-01 0.10244841E+03</pdfrwt>
<totfact> 0.93892025E+04</totfact>
</mgrwt>
</event>
<event>
 4    1  0.4926234E+003  0.1014982E+03  0.7546771E-02  0.1277177E+00
          2   -1    0    0  503    0 -0.00000000000E+00  0.00000000000E+00  0.35850464264E+02  0.35850464264E+02  0.00000000000E+00 0. -1.
         21   -1    0    0  501  502  0.00000000000E+00 -0.00000000000E+00 -0.32477721902E+03  0.32477721902E+03  0.00000000000E+00 0. -1.
         21    1    1    2  503  502 -0.51871286060E+02  0.87242522154E+02 -0.20566859652E+03  0.22935008084E+03  0.00000000000E+00 0. -1.
          2    1    1    2  501    0  0.51871286060E+02 -0.87242522154E+02 -0.83258158238E+02  0.13127760244E+03  0.00000000000E+00 0. -1.
<mgrwt>
<rscale>  2 0.10149822E+03</rscale>
<asrwt>0</asrwt>
<pdfrwt beam="2">  1       21 0.49965727E-01 0.10149822E+03</pdfrwt>
<pdfrwt beam="1">  1        2 0.55154560E-02 0.10149822E+03</pdfrwt>
<totfact> 0.62223379E+04</totfact>
</mgrwt>
</event>
<event>
 4    1  0.4926234E+003  0.1245500E+03  0.7546771E-02  0.1235774E+00
         -2   -1    0    0    0  501 -0.00000000000E+00  0.00000000000E+00  0.13376991860E+03  0.13376991860E+03  0.00000000000E+00 0. -1.
         21   -1    0    0  501  502  0.00000000000E+00 -0.00000000000E+00 -0.29963037628E+03  0.29963037628E+03  0.00000000000E+00 0.  1.
         21    1    1    2  503  502  0.11954448167E+03 -0.34954587111E+02 -0.25259014465E+03  0.28162827882E+03  0.00000000000E+00 0.  1.
         -2    1    1    2    0  503 -0.11954448167E+03  0.34954587111E+02  0.86729686973E+02  0.15177201606E+03  0.00000000000E+00 0. -1.
<mgrwt>
<rscale>  2 0.12455002E+03</rscale>
<asrwt>0</asrwt>
<pdfrwt beam="2">  1       21 0.46096981E-01 0.12455002E+03</pdfrwt>
<pdfrwt beam="1">  1       -2 0.20579987E-01 0.12455002E+03</pdfrwt>
<totfact> 0.72421719E+03</totfact>
</mgrwt>
</event>
<event>
 4    1  0.4926234E+003  0.1323823E+03  0.7546771E-02  0.1223963E+00
          2   -1    0    0  502    0 -0.00000000000E+00  0.00000000000E+00  0.16467101491E+03  0.16467101491E+03  0.00000000000E+00 0. -1.
         21   -1    0    0  503  502  0.00000000000E+00 -0.00000000000E+00 -0.11763459397E+03  0.11763459397E+03  0.00000000000E+00 0.  1.
         21    1    1    2  503  501 -0.12933370655E+03  0.28246490837E+02 -0.20055217782E+02  0.13389280659E+03  0.00000000000E+00 0.  1.
          2    1    1    2  501    0  0.12933370655E+03 -0.28246490837E+02  0.67091638725E+02  0.14841280229E+03  0.00000000000E+00 0. -1.
<mgrwt>
<rscale>  2 0.13238229E+03</rscale>
<asrwt>0</asrwt>
<pdfrwt beam="2">  1       21 0.18097630E-01 0.13238229E+03</pdfrwt>
<pdfrwt beam="1">  1        2 0.25334002E-01 0.13238229E+03</pdfrwt>
<totfact> 0.71822175E+04</totfact>
</mgrwt>
</event>
<event>
 4    1  0.4926234E+003  0.1115161E+03  0.7546771E-02  0.1257788E+00
          2   -1    0    0  503    0 -0.00000000000E+00  0.00000000000E+00  0.10406964105E+03  0.10406964105E+03  0.00000000000E+00 0. -1.
         21   -1    0    0  501  502  0.00000000000E+00 -0.00000000000E+00 -0.78006382349E+03  0.78006382349E+03  0.00000000000E+00 0. -1.
         21    1    1    2  503  502 -0.24966394437E+02  0.10868544949E+03 -0.74479775751E+03  0.75309995842E+03  0.00000000000E+00 0. -1.
          2    1    1    2  501    0  0.24966394437E+02 -0.10868544949E+03  0.68803575076E+02  0.13103350611E+03  0.00000000000E+00 0. -1.
<mgrwt>
<rscale>  2 0.11151613E+03</rscale>
<asrwt>0</asrwt>
<pdfrwt beam="2">  1       21 0.12000982E+00 0.11151613E+03</pdfrwt>
<pdfrwt beam="1">  1        2 0.16010714E-01 0.11151613E+03</pdfrwt>
<totfact> 0.24151352E+03</totfact>
</mgrwt>
</event>
<event>
 4    1  0.4926234E+003  0.1001901E+03  0.7546771E-02  0.1279897E+00
         21   -1    0    0  503  502  0.00000000000E+00  0.00000000000E+00  0.11010067052E+04  0.11010067052E+04  0.00000000000E+00 0. -1.
          2   -1    0    0  502    0 -0.00000000000E+00 -0.00000000000E+00 -0.65382973712E+02  0.65382973712E+02  0.00000000000E+00 0.  1.
         21    1    1    2  503  501  0.90992791866E+02  0.41932815436E+02  0.10588198291E+04  0.10635494721E+04  0.00000000000E+00 0. -1.
          2    1    1    2  501    0 -0.90992791866E+02 -0.41932815436E+02 -0.23196097627E+02  0.10284020676E+03  0.00000000000E+00 0.  1.
<mgrwt>
<rscale>  2 0.10019007E+03</rscale>
<asrwt>0</asrwt>
<pdfrwt beam="1">  1       21 0.16938563E+00 0.10019007E+03</pdfrwt>
<pdfrwt beam="2">  1        2 0.10058920E-01 0.10019007E+03</pdfrwt>
<totfact> 0.17624906E+03</totfact>
</mgrwt>
</event>
<event>
 4    1  0.4926234E+003  0.1166725E+03  0.7546771E-02  0.1248689E+00
          3   -1    0    0  502    0 -0.00000000000E+00  0.00000000000E+00  0.21622200354E+03  0.21622200354E+03  0.00000000000E+00 0. -1.
         21   -1    0    0  503  502  0.00000000000E+00 -0.00000000000E+00 -0.13630519199E+03  0.13630519199E+03  0.00000000000E+00 0.  1.
         21    1    1    2  503  501  0.11349542798E+03  0.27042016919E+02 -0.89343211109E+02  0.14695132603E+03  0.00000000000E+00 0.  1.
          3    1    1    2  501    0 -0.11349542798E+03 -0.27042016919E+02  0.16926002266E+03  0.20557586950E+03  0.00000000000E+00 0. -1.
<mgrwt>
<rscale>  2 0.11667255E+03</rscale>
<asrwt>0</asrwt>
<pdfrwt beam="2">  1       21 0.20970030E-01 0.11667255E+03</pdfrwt>
<pdfrwt beam="1">  1        3 0.33264924E-01 0.11667255E+03</pdfrwt>
<totfact> 0.89963938E+03</totfact>
</mgrwt>
</event>
<event>
 4    1  0.4926234E+003  0.2472794E+03  0.7546771E-02  0.1115036E+00
         21   -1    0    0  503  502  0.00000000000E+00  0.00000000000E+00  0.11671866129E+03  0.11671866129E+03  0.00000000000E+00 0. -1.
         -2   -1    0    0    0  501 -0.00000000000E+00 -0.00000000000E+00 -0.53748954137E+03  0.53748954137E+03  0.00000000000E+00 0. -1.
         21    1    1    2  503  501 -0.13268153202E+02 -0.24692316883E+03 -0.15834376932E+03  0.29363215845E+03  0.00000000000E+00 0. -1.
         -2    1    1    2    0  502  0.13268153202E+02  0.24692316883E+03 -0.26242711076E+03  0.36057604421E+03  0.00000000000E+00 0. -1.
<mgrwt>
<rscale>  2 0.24727939E+03</rscale>
<asrwt>0</asrwt>
<pdfrwt beam="1">  1       21 0.17956717E-01 0.24727939E+03</pdfrwt>
<pdfrwt beam="2">  1       -2 0.82690700E-01 0.24727939E+03</pdfrwt>
<totfact> 0.30249696E+03</totfact>
</mgrwt>
</event>
<event>
 4    1  0.4926234E+003  0.1168246E+03  0.7546771E-02  0.1248429E+00
         21   -1    0    0  503  502  0.00000000000E+00  0.00000000000E+00  0.35924452129E+03  0.35924452129E+03  0.00000000000E+00 0. -1.
          4   -1    0    0  502    0 -0.00000000000E+00 -0.00000000000E+00 -0.72859392313E+02  0.72859392313E+02  0.00000000000E+00 0.  1.
         21    1    1    2  503  501 -0.63131580327E+02  0.98297447968E+02  0.29265521329E+03  0.31511118447E+03  0.00000000000E+00 0. -1.
          4    1    1    2  501    0  0.63131580327E+02 -0.98297447968E+02 -0.62700843190E+01  0.11699272913E+03  0.00000000000E+00 0.  1.
<mgrwt>
<rscale>  2 0.11682459E+03</rscale>
<asrwt>0</asrwt>
<pdfrwt beam="1">  1       21 0.55268387E-01 0.11682459E+03</pdfrwt>
<pdfrwt beam="2">  1        4 0.11209137E-01 0.11682459E+03</pdfrwt>
<totfact> 0.78725344E+03</totfact>
</mgrwt>
</event>
<event>
 4    1  0.4926234E+003  0.1628245E+03  0.7546771E-02  0.1185544E+00
         21   -1    0    0  501  502  0.00000000000E+00  0.00000000000E+00  0.31007324550E+03  0.31007324550E+03  0.00000000000E+00 0.  1.
          2   -1    0    0  503    0 -0.00000000000E+00 -0.00000000000E+00 -0.48529597155E+03  0.48529597155E+03  0.00000000000E+00 0. -1.
         21    1    1    2  503  502 -0.16728772091E+02 -0.16196287443E+03  0.27334413574E+03  0.31816480172E+03  0.00000000000E+00 0.  1.
          2    1    1    2  501    0  0.16728772091E+02  0.16196287443E+03 -0.44856686179E+03  0.47720441533E+03  0.00000000000E+00 0. -1.
<mgrwt>
<rscale>  2 0.16282452E+03</rscale>
<asrwt>0</asrwt>
<pdfrwt beam="1">  1       21 0.47703577E-01 0.16282452E+03</pdfrwt>
<pdfrwt beam="2">  1        2 0.74660918E-01 0.16282452E+03</pdfrwt>
<totfact> 0.34260592E+03</totfact>
</mgrwt>
</event>
<event>
 4    1  0.4926234E+003  0.1419193E+03  0.7546771E-02  0.1210769E+00
         21   -1    0    0  503  502  0.00000000000E+00  0.00000000000E+00  0.51730818343E+02  0.51730818343E+02  0.00000000000E+00 0.  1.
          4   -1    0    0  502    0 -0.00000000000E+00 -0.00000000000E+00 -0.56911233633E+03  0.56911233633E+03  0.00000000000E+00 0.  1.
         21    1    1    2  503  501  0.11353768148E+03 -0.85148592043E+02 -0.84225320915E+02  0.16503027760E+03  0.00000000000E+00 0.  1.
          4    1    1    2  501    0 -0.11353768148E+03  0.85148592043E+02 -0.43315619707E+03  0.45581287707E+03  0.00000000000E+00 0.  1.
<mgrwt>
<rscale>  2 0.14191930E+03</rscale>
<asrwt>0</asrwt>
<pdfrwt beam="1">  1       21 0.79585876E-02 0.14191930E+03</pdfrwt>
<pdfrwt beam="2">  1        4 0.87555742E-01 0.14191930E+03</pdfrwt>
<totfact> 0.57914605E+03</totfact>
</mgrwt>
</event>
<event>
 4    1  0.4926234E+003  0.1339941E+03  0.7546771E-02  0.1221647E+00
          2   -1    0    0  502    0 -0.00000000000E+00  0.00000000000E+00  0.41299963357E+03  0.41299963357E+03  0.00000000000E+00 0.  1.
         21   -1    0    0  503  502  0.00000000000E+00 -0.00000000000E+00 -0.11631005786E+03  0.11631005786E+03  0.00000000000E+00 0.  1.
         21    1    1    2  503  501  0.12762156390E+03 -0.40830908374E+02 -0.61088994513E+02  0.14726266296E+03  0.00000000000E+00 0.  1.
          2    1    1    2  501    0 -0.12762156390E+03  0.40830908374E+02  0.35777857022E+03  0.38204702847E+03  0.00000000000E+00 0.  1.
<mgrwt>
<rscale>  2 0.13399413E+03</rscale>
<asrwt>0</asrwt>
<pdfrwt beam="2">  1       21 0.17893855E-01 0.13399413E+03</pdfrwt>
<pdfrwt beam="1">  1        2 0.63538404E-01 0.13399413E+03</pdfrwt>
<totfact> 0.27410940E+04</totfact>
</mgrwt>
</event>
<event>
 4    1  0.4926234E+003  0.1089645E+03  0.7546771E-02  0.1262500E+00
         21   -1    0    0  503  502  0.00000000000E+00  0.00000000000E+00  0.68238478904E+02  0.68238478904E+02  0.00000000000E+00 0. -1.
         -1   -1    0    0    0  501 -0.00000000000E+00 -0.00000000000E+00 -0.44254164817E+03  0.44254164817E+03  0.00000000000E+00 0. -1.
         21    1    1    2  503  501  0.10504437537E+03  0.28964413074E+02  0.11794574364E+02  0.10960095805E+03  0.00000000000E+00 0. -1.
         -1    1    1    2    0  502 -0.10504437537E+03 -0.28964413074E+02 -0.38609774363E+03  0.40117916902E+03  0.00000000000E+00 0. -1.
<mgrwt>
<rscale>  2 0.10896448E+03</rscale>
<asrwt>0</asrwt>
<pdfrwt beam="1">  1       21 0.10498227E-01 0.10896448E+03</pdfrwt>
<pdfrwt beam="2">  1       -1 0.68083332E-01 0.10896448E+03</pdfrwt>
<totfact> 0.15713246E+04</totfact>
</mgrwt>
</event>
<event>
 4    1  0.4926234E+003  0.1330931E+03  0.7546771E-02  0.1222937E+00
          1   -1    0    0  502    0 -0.00000000000E+00  0.00000000000E+00  0.36714206468E+03  0.36714206468E+03  0.00000000000E+00 0.  1.
         21   -1    0    0  503  502  0.00000000000E+00 -0.00000000000E+00 -0.13044217593E+03  0.13044217593E+03  0.00000000000E+00 0.  1.
         21    1    1    2  503  501 -0.11536980012E+03 -0.66359544305E+02 -0.79141723490E+02  0.15484570481E+03  0.00000000000E+00 0.  1.
          1    1    1    2  501    0  0.11536980012E+03  0.66359544305E+02  0.31584161224E+03  0.34273853580E+03  0.00000000000E+00 0.  1.
<mgrwt>
<rscale>  2 0.13309312E+03</rscale>
<asrwt>0</asrwt>
<pdfrwt beam="2">  1       21 0.20068027E-01 0.13309312E+03</pdfrwt>
<pdfrwt beam="1">  1        1 0.56483394E-01 0.13309312E+03</pdfrwt>
<totfact> 0.17169079E+04</totfact>
</mgrwt>
</event>
<event>
 4    1  0.4926234E+003  0.1173581E+03  0.7546771E-02  0.1247520E+00
          2   -1    0    0  502    0 -0.00000000000E+00  0.00000000000E+00  0.76987414168E+03  0.76987414168E+03  0.00000000000E+00 0. -1.
         21   -1    0    0  503  502  0.00000000000E+00 -0.00000000000E+00 -0.16626579498E+03  0.16626579498E+03  0.00000000000E+00 0.  1.
         21    1    1    2  503  501  0.44727820851E+02  0.10850046077E+03 -0.14036766503E+03  0.18296450293E+03  0.00000000000E+00 0.  1.
          2    1    1    2  501    0 -0.44727820851E+02 -0.10850046077E+03  0.74397601173E+03  0.75317543373E+03  0.00000000000E+00 0. -1.
<mgrwt>
<rscale>  2 0.11735812E+03</rscale>
<asrwt>0</asrwt>
<pdfrwt beam="2">  1       21 0.25579354E-01 0.11735812E+03</pdfrwt>
<pdfrwt beam="1">  1        2 0.11844217E+00 0.11735812E+03</pdfrwt>
<totfact> 0.70134874E+03</totfact>
</mgrwt>
</event>
<event>
 4    1  0.4926234E+003  0.1200504E+03  0.7546771E-02  0.1243014E+00
         21   -1    0    0  503  502  0.00000000000E+00  0.00000000000E+00  0.77294697356E+03  0.77294697356E+03  0.00000000000E+00 0.  1.
          3   -1    0    0  502    0 -0.00000000000E+00 -0.00000000000E+00 -0.47208516709E+02  0.47208516709E+02  0.00000000000E+00 0.  1.
         21    1    1    2  503  501  0.11580283295E+03  0.31651168170E+02  0.68184447408E+03  0.69233227529E+03  0.00000000000E+00 0.  1.
          3    1    1    2  501    0 -0.11580283295E+03 -0.31651168170E+02  0.43893982768E+02  0.12782321498E+03  0.00000000000E+00 0.  1.
<mgrwt>
<rscale>  2 0.12005038E+03</rscale>
<asrwt>0</asrwt>
<pdfrwt beam="1">  1       21 0.11891491E+00 0.12005038E+03</pdfrwt>
<pdfrwt beam="2">  1        3 0.72628493E-02 0.12005038E+03</pdfrwt>
<totfact> 0.33170596E+03</totfact>
</mgrwt>
</event>
<event>
 4    1  0.4926234E+003  0.1304381E+03  0.7546771E-02  0.1226807E+00
         21   -1    0    0  501  502  0.00000000000E+00  0.00000000000E+00  0.30206909229E+03  0.30206909229E+03  0.00000000000E+00 0.  1.
          4   -1    0    0  503    0 -0.00000000000E+00 -0.00000000000E+00 -0.21295990360E+03  0.21295990360E+03  0.00000000000E+00 0.  1.
         21    1    1    2  503  502  0.11874677314E+03 -0.53974969136E+02  0.26540428648E+03  0.29572542790E+03  0.00000000000E+00 0.  1.
          4    1    1    2  501    0 -0.11874677314E+03  0.53974969136E+02 -0.17629509779E+03  0.21930356798E+03  0.00000000000E+00 0.  1.
<mgrwt>
<rscale>  2 0.13043808E+03</rscale>
<asrwt>0</asrwt>
<pdfrwt beam="1">  1       21 0.46472168E-01 0.13043808E+03</pdfrwt>
<pdfrwt beam="2">  1        4 0.32763062E-01 0.13043808E+03</pdfrwt>
<totfact> 0.16573806E+03</totfact>
</mgrwt>
</event>
<event>
 4    1  0.4926234E+003  0.1107367E+03  0.7546771E-02  0.1259212E+00
         21   -1    0    0  503  502  0.00000000000E+00  0.00000000000E+00  0.17478229173E+02  0.17478229173E+02  0.00000000000E+00 0. -1.
          1   -1    0    0  502    0 -0.00000000000E+00 -0.00000000000E+00 -0.21576078660E+04  0.21576078660E+04  0.00000000000E+00 0.  1.
         21    1    1    2  503  501  0.98369522088E+02 -0.50853208900E+02 -0.17667082107E+03  0.20850705203E+03  0.00000000000E+00 0. -1.
          1    1    1    2  501    0 -0.98369522088E+02  0.50853208900E+02 -0.19634588158E+04  0.19665790431E+04  0.00000000000E+00 0.  1.
<mgrwt>
<rscale>  2 0.11073668E+03</rscale>
<asrwt>0</asrwt>
<pdfrwt beam="1">  1       21 0.26889603E-02 0.11073668E+03</pdfrwt>
<pdfrwt beam="2">  1        1 0.33193942E+00 0.11073668E+03</pdfrwt>
<totfact> 0.23796800E+04</totfact>
</mgrwt>
</event>
<event>
 4    1  0.4926234E+003  0.1968138E+03  0.7546771E-02  0.1152455E+00
         -2   -1    0    0    0  501 -0.00000000000E+00  0.00000000000E+00  0.51573897444E+03  0.51573897444E+03  0.00000000000E+00 0. -1.
         21   -1    0    0  503  502  0.00000000000E+00 -0.00000000000E+00 -0.81576536658E+02  0.81576536658E+02  0.00000000000E+00 0.  1.
         21    1    1    2  503  501  0.15455275178E+03 -0.12185691658E+03  0.13297574993E+03  0.23752518029E+03  0.00000000000E+00 0.  1.
         -2    1    1    2    0  502 -0.15455275178E+03  0.12185691658E+03  0.30118668786E+03  0.35979033081E+03  0.00000000000E+00 0. -1.
<mgrwt>
<rscale>  2 0.19681377E+03</rscale>
<asrwt>0</asrwt>
<pdfrwt beam="2">  1       21 0.12550237E-01 0.19681377E+03</pdfrwt>
<pdfrwt beam="1">  1       -2 0.79344456E-01 0.19681377E+03</pdfrwt>
<totfact> 0.64221646E+03</totfact>
</mgrwt>
</event>
<event>
 4    1  0.4926234E+003  0.1217311E+03  0.7546771E-02  0.1240268E+00
         21   -1    0    0  503  502  0.00000000000E+00  0.00000000000E+00  0.61529354505E+02  0.61529354505E+02  0.00000000000E+00 0.  1.
          1   -1    0    0  502    0 -0.00000000000E+00 -0.00000000000E+00 -0.28946587878E+03  0.28946587878E+03  0.00000000000E+00 0.  1.
         21    1    1    2  503  501 -0.41617430934E+02  0.11439603586E+03 -0.42035691312E+02  0.12878456011E+03  0.00000000000E+00 0.  1.
          1    1    1    2  501    0  0.41617430934E+02 -0.11439603586E+03 -0.18590083297E+03  0.22221067318E+03  0.00000000000E+00 0.  1.
<mgrwt>
<rscale>  2 0.12173111E+03</rscale>
<asrwt>0</asrwt>
<pdfrwt beam="1">  1       21 0.94660543E-02 0.12173111E+03</pdfrwt>
<pdfrwt beam="2">  1        1 0.44533213E-01 0.12173111E+03</pdfrwt>
<totfact> 0.88528955E+04</totfact>
</mgrwt>
</event>
<event>
 4    1  0.4926234E+003  0.1897260E+03  0.7546771E-02  0.1158709E+00
         21   -1    0    0  503  502  0.00000000000E+00  0.00000000000E+00  0.28445866438E+02  0.28445866438E+02  0.00000000000E+00 0.  1.
         -2   -1    0    0    0  501 -0.00000000000E+00 -0.00000000000E+00 -0.13081938377E+04  0.13081938377E+04  0.00000000000E+00 0.  1.
         21    1    1    2  503  501 -0.15895951665E+03  0.10357523177E+03 -0.51902597208E+03  0.55261552300E+03  0.00000000000E+00 0.  1.
         -2    1    1    2    0  502  0.15895951665E+03 -0.10357523177E+03 -0.76072199923E+03  0.78402418118E+03  0.00000000000E+00 0.  1.
<mgrwt>
<rscale>  2 0.18972600E+03</rscale>
<asrwt>0</asrwt>
<pdfrwt beam="1">  1       21 0.43762885E-02 0.18972600E+03</pdfrwt>
<pdfrwt beam="2">  1       -2 0.20126053E+00 0.18972600E+03</pdfrwt>
<totfact> 0.39692772E+03</totfact>
</mgrwt>
</event>
<event>
 4    1  0.4926234E+003  0.1144910E+03  0.7546771E-02  0.1252472E+00
         21   -1    0    0  501  502  0.00000000000E+00  0.00000000000E+00  0.58623900635E+01  0.58623900635E+01  0.00000000000E+00 0.  1.
          2   -1    0    0  503    0 -0.00000000000E+00 -0.00000000000E+00 -0.23180448232E+04  0.23180448232E+04  0.00000000000E+00 0.  1.
         21    1    1    2  503  502 -0.44999739367E+02  0.10527687407E+03 -0.13747172920E+04  0.13794766507E+04  0.00000000000E+00 0.  1.
          2    1    1    2  501    0  0.44999739367E+02 -0.10527687407E+03 -0.93746514112E+03  0.94443056260E+03  0.00000000000E+00 0.  1.
<mgrwt>
<rscale>  2 0.11449103E+03</rscale>
<asrwt>0</asrwt>
<pdfrwt beam="1">  1       21 0.90190684E-03 0.11449103E+03</pdfrwt>
<pdfrwt beam="2">  1        2 0.35662201E+00 0.11449103E+03</pdfrwt>
<totfact> 0.29078118E+05</totfact>
</mgrwt>
</event>
<event>
 4    1  0.4926234E+003  0.1262127E+03  0.7546771E-02  0.1233186E+00
         21   -1    0    0  503  502  0.00000000000E+00  0.00000000000E+00  0.77330274915E+01  0.77330274915E+01  0.00000000000E+00 0. -1.
          2   -1    0    0  502    0 -0.00000000000E+00 -0.00000000000E+00 -0.32499711382E+04  0.32499711382E+04  0.00000000000E+00 0. -1.
         21    1    1    2  503  501 -0.17839890572E+02 -0.12494555572E+03 -0.63547717586E+03  0.64788956978E+03  0.00000000000E+00 0. -1.
          2    1    1    2  501    0  0.17839890572E+02  0.12494555572E+03 -0.26067609349E+04  0.26098145959E+04  0.00000000000E+00 0. -1.
<mgrwt>
<rscale>  2 0.12621273E+03</rscale>
<asrwt>0</asrwt>
<pdfrwt beam="1">  1       21 0.11896942E-02 0.12621273E+03</pdfrwt>
<pdfrwt beam="2">  1        2 0.49999653E+00 0.12621273E+03</pdfrwt>
<totfact> 0.56741901E+04</totfact>
</mgrwt>
</event>
<event>
 4    1  0.4926234E+003  0.1422894E+03  0.7546771E-02  0.1210281E+00
         21   -1    0    0  501  502  0.00000000000E+00  0.00000000000E+00  0.67068407752E+03  0.67068407752E+03  0.00000000000E+00 0.  1.
          4   -1    0    0  503    0 -0.00000000000E+00 -0.00000000000E+00 -0.37592616169E+03  0.37592616169E+03  0.00000000000E+00 0.  1.
         21    1    1    2  503  502  0.49866687598E+02  0.13326511735E+03  0.64923329222E+03  0.66464287084E+03  0.00000000000E+00 0.  1.
          4    1    1    2  501    0 -0.49866687598E+02 -0.13326511735E+03 -0.35447537639E+03  0.38196736837E+03  0.00000000000E+00 0.  1.
<mgrwt>
<rscale>  2 0.14228942E+03</rscale>
<asrwt>0</asrwt>
<pdfrwt beam="1">  1       21 0.10318217E+00 0.14228942E+03</pdfrwt>
<pdfrwt beam="2">  1        4 0.57834794E-01 0.14228942E+03</pdfrwt>
<totfact> 0.93178176E+01</totfact>
</mgrwt>
</event>
<event>
 4    1  0.4926234E+003  0.1051113E+03  0.7546771E-02  0.1269901E+00
         21   -1    0    0  501  502  0.00000000000E+00  0.00000000000E+00  0.12460284664E+02  0.12460284664E+02  0.00000000000E+00 0.  1.
          4   -1    0    0  503    0 -0.00000000000E+00 -0.00000000000E+00 -0.11299451014E+04  0.11299451014E+04  0.00000000000E+00 0.  1.
         21    1    1    2  503  502 -0.64883688518E+02 -0.82695123153E+02 -0.29371246472E+03  0.31195414464E+03  0.00000000000E+00 0.  1.
          4    1    1    2  501    0  0.64883688518E+02  0.82695123153E+02 -0.82377235201E+03  0.83045124141E+03  0.00000000000E+00 0.  1.
<mgrwt>
<rscale>  2 0.10511126E+03</rscale>
<asrwt>0</asrwt>
<pdfrwt beam="1">  1       21 0.19169671E-02 0.10511126E+03</pdfrwt>
<pdfrwt beam="2">  1        4 0.17383769E+00 0.10511126E+03</pdfrwt>
<totfact> 0.11344581E+04</totfact>
</mgrwt>
</event>
<event>
 4    1  0.4926234E+003  0.1316138E+03  0.7546771E-02  0.1225081E+00
          2   -1    0    0  502    0 -0.00000000000E+00  0.00000000000E+00  0.30024325446E+04  0.30024325446E+04  0.00000000000E+00 0.  1.
         21   -1    0    0  503  502  0.00000000000E+00 -0.00000000000E+00 -0.95389095255E+01  0.95389095255E+01  0.00000000000E+00 0.  1.
         21    1    1    2  503  501 -0.10402311117E+03  0.80631143889E+02  0.54974157355E+03  0.56527691153E+03  0.00000000000E+00 0.  1.
          2    1    1    2  501    0  0.10402311117E+03 -0.80631143889E+02  0.24431520615E+04  0.24466945425E+04  0.00000000000E+00 0.  1.
<mgrwt>
<rscale>  2 0.13161379E+03</rscale>
<asrwt>0</asrwt>
<pdfrwt beam="2">  1       21 0.14675269E-02 0.13161379E+03</pdfrwt>
<pdfrwt beam="1">  1        2 0.46191195E+00 0.13161379E+03</pdfrwt>
<totfact> 0.56835625E+04</totfact>
</mgrwt>
</event>
<event>
 4    1  0.4926234E+003  0.1158098E+03  0.7546771E-02  0.1250174E+00
         21   -1    0    0  501  502  0.00000000000E+00  0.00000000000E+00  0.17268678558E+02  0.17268678558E+02  0.00000000000E+00 0. -1.
          1   -1    0    0  503    0 -0.00000000000E+00 -0.00000000000E+00 -0.50187697011E+04  0.50187697011E+04  0.00000000000E+00 0. -1.
         21    1    1    2  503  502  0.11288113730E+03  0.25879814226E+02 -0.18574900399E+03  0.21889405754E+03  0.00000000000E+00 0. -1.
          1    1    1    2  501    0 -0.11288113730E+03 -0.25879814226E+02 -0.48157520185E+04  0.48171443221E+04  0.00000000000E+00 0. -1.
<mgrwt>
<rscale>  2 0.11580983E+03</rscale>
<asrwt>0</asrwt>
<pdfrwt beam="1">  1       21 0.26567185E-02 0.11580983E+03</pdfrwt>
<pdfrwt beam="2">  1        1 0.77211879E+00 0.11580983E+03</pdfrwt>
<totfact> 0.12249172E+02</totfact>
</mgrwt>
</event>
<event>
 4    1  0.4926234E+003  0.1006752E+03  0.7546771E-02  0.1278882E+00
          1   -1    0    0  502    0 -0.00000000000E+00  0.00000000000E+00  0.22019267136E+03  0.22019267136E+03  0.00000000000E+00 0.  1.
         21   -1    0    0  503  502  0.00000000000E+00 -0.00000000000E+00 -0.66994729653E+02  0.66994729653E+02  0.00000000000E+00 0.  1.
         21    1    1    2  503  501 -0.74940633882E+02 -0.67226444756E+02 -0.37274717688E+01  0.10074416870E+03  0.00000000000E+00 0.  1.
          1    1    1    2  501    0  0.74940633882E+02  0.67226444756E+02  0.15692541348E+03  0.18644323232E+03  0.00000000000E+00 0.  1.
<mgrwt>
<rscale>  2 0.10067519E+03</rscale>
<asrwt>0</asrwt>
<pdfrwt beam="2">  1       21 0.10306882E-01 0.10067519E+03</pdfrwt>
<pdfrwt beam="1">  1        1 0.33875795E-01 0.10067519E+03</pdfrwt>
<totfact> 0.10605200E+05</totfact>
</mgrwt>
</event>
<event>
 4    1  0.4926234E+003  0.1018697E+03  0.7546771E-02  0.1276413E+00
         21   -1    0    0  503  502  0.00000000000E+00  0.00000000000E+00  0.21803213533E+03  0.21803213533E+03  0.00000000000E+00 0.  1.
         -3   -1    0    0    0  501 -0.00000000000E+00 -0.00000000000E+00 -0.62730525414E+02  0.62730525414E+02  0.00000000000E+00 0.  1.
         21    1    1    2  503  501  0.79702494286E+02  0.63442515715E+02  0.14660416300E+03  0.17852232635E+03  0.00000000000E+00 0.  1.
         -3    1    1    2    0  502 -0.79702494286E+02 -0.63442515715E+02  0.86974469215E+01  0.10224033440E+03  0.00000000000E+00 0.  1.
<mgrwt>
<rscale>  2 0.10186972E+03</rscale>
<asrwt>0</asrwt>
<pdfrwt beam="1">  1       21 0.33543405E-01 0.10186972E+03</pdfrwt>
<pdfrwt beam="2">  1       -3 0.96508502E-02 0.10186972E+03</pdfrwt>
<totfact> 0.31445595E+04</totfact>
</mgrwt>
</event>
<event>
 4    1  0.4926234E+003  0.1090294E+03  0.7546771E-02  0.1262378E+00
         21   -1    0    0  501  502  0.00000000000E+00  0.00000000000E+00  0.13357332637E+02  0.13357332637E+02  0.00000000000E+00 0. -1.
          2   -1    0    0  503    0 -0.00000000000E+00 -0.00000000000E+00 -0.91035451302E+03  0.91035451302E+03  0.00000000000E+00 0. -1.
         21    1    1    2  503  502  0.99723653961E+02  0.44074885540E+02 -0.37935866723E+03  0.39471559520E+03  0.00000000000E+00 0. -1.
          2    1    1    2  501    0 -0.99723653961E+02 -0.44074885540E+02 -0.51763851315E+03  0.52899625046E+03  0.00000000000E+00 0. -1.
<mgrwt>
<rscale>  2 0.10902937E+03</rscale>
<asrwt>0</asrwt>
<pdfrwt beam="1">  1       21 0.20549744E-02 0.10902937E+03</pdfrwt>
<pdfrwt beam="2">  1        2 0.14005453E+00 0.10902937E+03</pdfrwt>
<totfact> 0.43604214E+05</totfact>
</mgrwt>
</event>
<event>
 4    1  0.4926234E+003  0.1924670E+03  0.7546771E-02  0.1156255E+00
         21   -1    0    0  503  502  0.00000000000E+00  0.00000000000E+00  0.13810579852E+03  0.13810579852E+03  0.00000000000E+00 0. -1.
          3   -1    0    0  502    0 -0.00000000000E+00 -0.00000000000E+00 -0.31548083674E+03  0.31548083674E+03  0.00000000000E+00 0. -1.
         21    1    1    2  503  501  0.13726056214E+03 -0.13491881236E+03 -0.91319442144E+00  0.19246917096E+03  0.00000000000E+00 0. -1.
          3    1    1    2  501    0 -0.13726056214E+03  0.13491881236E+03 -0.17646184380E+03  0.26111746430E+03  0.00000000000E+00 0. -1.
<mgrwt>
<rscale>  2 0.19246700E+03</rscale>
<asrwt>0</asrwt>
<pdfrwt beam="1">  1       21 0.21247046E-01 0.19246700E+03</pdfrwt>
<pdfrwt beam="2">  1        3 0.48535513E-01 0.19246700E+03</pdfrwt>
<totfact> 0.43162674E+03</totfact>
</mgrwt>
</event>
<event>
 4    1  0.4926234E+003  0.1077253E+03  0.7546771E-02  0.1264841E+00
          1   -1    0    0  502    0 -0.00000000000E+00  0.00000000000E+00  0.61160006191E+03  0.61160006191E+03  0.00000000000E+00 0. -1.
         21   -1    0    0  503  502  0.00000000000E+00 -0.00000000000E+00 -0.16447602913E+03  0.16447602913E+03  0.00000000000E+00 0. -1.
         21    1    1    2  503  501 -0.10737589776E+03 -0.86698962647E+01 -0.14140777122E+03  0.17776644307E+03  0.00000000000E+00 0. -1.
          1    1    1    2  501    0  0.10737589776E+03  0.86698962647E+01  0.58853180400E+03  0.59830964796E+03  0.00000000000E+00 0. -1.
<mgrwt>
<rscale>  2 0.10772535E+03</rscale>
<asrwt>0</asrwt>
<pdfrwt beam="2">  1       21 0.25304005E-01 0.10772535E+03</pdfrwt>
<pdfrwt beam="1">  1        1 0.94092316E-01 0.10772535E+03</pdfrwt>
<totfact> 0.57994236E+03</totfact>
</mgrwt>
</event>
<event>
 4    1  0.4926234E+003  0.1367777E+03  0.7546771E-02  0.1217732E+00
         21   -1    0    0  501  502  0.00000000000E+00  0.00000000000E+00  0.23686148718E+02  0.23686148718E+02  0.00000000000E+00 0.  1.
          2   -1    0    0  503    0 -0.00000000000E+00 -0.00000000000E+00 -0.19944481089E+04  0.19944481089E+04  0.00000000000E+00 0. -1.
         21    1    1    2  503  502  0.80629224082E+02 -0.11048565676E+03 -0.20117083025E+03  0.24326498941E+03  0.00000000000E+00 0.  1.
          2    1    1    2  501    0 -0.80629224082E+02  0.11048565676E+03 -0.17695911299E+04  0.17748692682E+04  0.00000000000E+00 0. -1.
<mgrwt>
<rscale>  2 0.13677775E+03</rscale>
<asrwt>0</asrwt>
<pdfrwt beam="1">  1       21 0.36440218E-02 0.13677775E+03</pdfrwt>
<pdfrwt beam="2">  1        2 0.30683826E+00 0.13677775E+03</pdfrwt>
<totfact> 0.45051832E+04</totfact>
</mgrwt>
</event>
<event>
 4    1  0.4926234E+003  0.1177964E+03  0.7546771E-02  0.1246777E+00
         21   -1    0    0  501  502  0.00000000000E+00  0.00000000000E+00  0.88375390852E+01  0.88375390852E+01  0.00000000000E+00 0. -1.
          2   -1    0    0  503    0 -0.00000000000E+00 -0.00000000000E+00 -0.16775215141E+04  0.16775215141E+04  0.00000000000E+00 0.  1.
         21    1    1    2  503  502  0.10780554684E+03 -0.47475754991E+02 -0.62099116427E+03  0.63206487748E+03  0.00000000000E+00 0. -1.
          2    1    1    2  501    0 -0.10780554684E+03  0.47475754991E+02 -0.10476928108E+04  0.10542941758E+04  0.00000000000E+00 0.  1.
<mgrwt>
<rscale>  2 0.11779636E+03</rscale>
<asrwt>0</asrwt>
<pdfrwt beam="1">  1       21 0.13596210E-02 0.11779636E+03</pdfrwt>
<pdfrwt beam="2">  1        2 0.25808030E+00 0.11779636E+03</pdfrwt>
<totfact> 0.32320276E+05</totfact>
</mgrwt>
</event>
<event>
 4    1  0.4926234E+003  0.1174523E+03  0.7546771E-02  0.1247360E+00
         -2   -1    0    0    0  501 -0.00000000000E+00  0.00000000000E+00  0.90040218319E+02  0.90040218319E+02  0.00000000000E+00 0. -1.
         21   -1    0    0  501  502  0.00000000000E+00 -0.00000000000E+00 -0.24157450854E+03  0.24157450854E+03  0.00000000000E+00 0.  1.
         21    1    1    2  503  502  0.43534206522E+01  0.11737162585E+03 -0.17604787704E+03  0.21163153318E+03  0.00000000000E+00 0.  1.
         -2    1    1    2    0  503 -0.43534206522E+01 -0.11737162585E+03  0.24513586823E+02  0.11998319368E+03  0.00000000000E+00 0. -1.
<mgrwt>
<rscale>  2 0.11745233E+03</rscale>
<asrwt>0</asrwt>
<pdfrwt beam="2">  1       21 0.37165309E-01 0.11745233E+03</pdfrwt>
<pdfrwt beam="1">  1       -2 0.13852341E-01 0.11745233E+03</pdfrwt>
<totfact> 0.21454282E+04</totfact>
</mgrwt>
</event>
<event>
 4    1  0.4926234E+003  0.1008379E+03  0.7546771E-02  0.1278544E+00
         21   -1    0    0  501  502  0.00000000000E+00  0.00000000000E+00  0.22798541425E+02  0.22798541425E+02  0.00000000000E+00 0.  1.
         -1   -1    0    0    0  501 -0.00000000000E+00 -0.00000000000E+00 -0.44667157649E+03  0.44667157649E+03  0.00000000000E+00 0.  1.
         21    1    1    2  503  502  0.99335452076E+02 -0.17342138573E+02 -0.20287404788E+03  0.22655277776E+03  0.00000000000E+00 0.  1.
         -1    1    1    2    0  503 -0.99335452076E+02  0.17342138573E+02 -0.22099898719E+03  0.24291734015E+03  0.00000000000E+00 0.  1.
<mgrwt>
<rscale>  2 0.10083790E+03</rscale>
<asrwt>0</asrwt>
<pdfrwt beam="1">  1       21 0.35074678E-02 0.10083790E+03</pdfrwt>
<pdfrwt beam="2">  1       -1 0.68718706E-01 0.10083790E+03</pdfrwt>
<totfact> 0.98150101E+04</totfact>
</mgrwt>
</event>
<event>
 4    1  0.4926234E+003  0.1115278E+03  0.7546771E-02  0.1257767E+00
         21   -1    0    0  503  502  0.00000000000E+00  0.00000000000E+00  0.64192071835E+02  0.64192071835E+02  0.00000000000E+00 0.  1.
          2   -1    0    0  502    0 -0.00000000000E+00 -0.00000000000E+00 -0.15184198890E+04  0.15184198890E+04  0.00000000000E+00 0. -1.
         21    1    1    2  503  501  0.62464241768E+02 -0.92394051997E+02  0.11979282518E+02  0.11216927188E+03  0.00000000000E+00 0.  1.
          2    1    1    2  501    0 -0.62464241768E+02  0.92394051997E+02 -0.14662070997E+04  0.14704426890E+04  0.00000000000E+00 0. -1.
<mgrwt>
<rscale>  2 0.11152776E+03</rscale>
<asrwt>0</asrwt>
<pdfrwt beam="1">  1       21 0.98757045E-02 0.11152776E+03</pdfrwt>
<pdfrwt beam="2">  1        2 0.23360303E+00 0.11152776E+03</pdfrwt>
<totfact> 0.14665577E+04</totfact>
</mgrwt>
</event>
<event>
 4    1  0.4926234E+003  0.1272576E+03  0.7546771E-02  0.1231583E+00
         -2   -1    0    0    0  501 -0.00000000000E+00  0.00000000000E+00  0.76058936025E+02  0.76058936025E+02  0.00000000000E+00 0. -1.
         21   -1    0    0  501  502  0.00000000000E+00 -0.00000000000E+00 -0.40363932479E+03  0.40363932479E+03  0.00000000000E+00 0. -1.
         21    1    1    2  503  502 -0.57861513140E+01 -0.12712603335E+03 -0.32865887996E+03  0.35243604707E+03  0.00000000000E+00 0. -1.
         -2    1    1    2    0  503  0.57861513140E+01  0.12712603335E+03  0.10784911949E+01  0.12726221374E+03  0.00000000000E+00 0. -1.
<mgrwt>
<rscale>  2 0.12725764E+03</rscale>
<asrwt>0</asrwt>
<pdfrwt beam="2">  1       21 0.62098358E-01 0.12725764E+03</pdfrwt>
<pdfrwt beam="1">  1       -2 0.11701375E-01 0.12725764E+03</pdfrwt>
<totfact> 0.98170902E+03</totfact>
</mgrwt>
</event>
<event>
 4    1  0.4926234E+003  0.1637954E+03  0.7546771E-02  0.1184477E+00
         -4   -1    0    0    0  501 -0.00000000000E+00  0.00000000000E+00  0.72666680916E+03  0.72666680916E+03  0.00000000000E+00 0. -1.
         21   -1    0    0  503  502  0.00000000000E+00 -0.00000000000E+00 -0.47475042396E+02  0.47475042396E+02  0.00000000000E+00 0. -1.
         21    1    1    2  503  501 -0.16075875293E+03  0.31393327386E+02  0.15708989046E+03  0.22694966696E+03  0.00000000000E+00 0. -1.
         -4    1    1    2    0  502  0.16075875293E+03 -0.31393327386E+02  0.52210187630E+03  0.54719218460E+03  0.00000000000E+00 0. -1.
<mgrwt>
<rscale>  2 0.16379535E+03</rscale>
<asrwt>0</asrwt>
<pdfrwt beam="2">  1       21 0.73038532E-02 0.16379535E+03</pdfrwt>
<pdfrwt beam="1">  1       -4 0.11179489E+00 0.16379535E+03</pdfrwt>
<totfact> 0.38527305E+03</totfact>
</mgrwt>
</event>
<event>
 4    1  0.4926234E+003  0.1298660E+03  0.7546771E-02  0.1227655E+00
         21   -1    0    0  501  502  0.00000000000E+00  0.00000000000E+00  0.79836416055E+02  0.79836416055E+02  0.00000000000E+00 0.  1.
          2   -1    0    0  503    0 -0.00000000000E+00 -0.00000000000E+00 -0.43844526427E+03  0.43844526427E+03  0.00000000000E+00 0.  1.
         21    1    1    2  503  502 -0.84938374559E+02  0.98237670071E+02  0.72394995883E+01  0.13006758877E+03  0.00000000000E+00 0.  1.
          2    1    1    2  501    0  0.84938374559E+02 -0.98237670071E+02 -0.36584834780E+03  0.38821409156E+03  0.00000000000E+00 0.  1.
<mgrwt>
<rscale>  2 0.12986596E+03</rscale>
<asrwt>0</asrwt>
<pdfrwt beam="1">  1       21 0.12282526E-01 0.12986596E+03</pdfrwt>
<pdfrwt beam="2">  1        2 0.67453117E-01 0.12986596E+03</pdfrwt>
<totfact> 0.50647086E+04</totfact>
</mgrwt>
</event>
<event>
 4    1  0.4926234E+003  0.1019598E+03  0.7546771E-02  0.1276228E+00
         -2   -1    0    0    0  501 -0.00000000000E+00  0.00000000000E+00  0.75696551580E+03  0.75696551580E+03  0.00000000000E+00 0. -1.
         21   -1    0    0  503  502  0.00000000000E+00 -0.00000000000E+00 -0.14018739339E+02  0.14018739339E+02  0.00000000000E+00 0. -1.
         21    1    1    2  503  501 -0.79782524150E+02 -0.63486543122E+02  0.31648647996E+03  0.33250486360E+03  0.00000000000E+00 0. -1.
         -2    1    1    2    0  502  0.79782524150E+02  0.63486543122E+02  0.42646029650E+03  0.43847939155E+03  0.00000000000E+00 0. -1.
<mgrwt>
<rscale>  2 0.10195976E+03</rscale>
<asrwt>0</asrwt>
<pdfrwt beam="2">  1       21 0.21567297E-02 0.10195976E+03</pdfrwt>
<pdfrwt beam="1">  1       -2 0.11645620E+00 0.10195976E+03</pdfrwt>
<totfact> 0.51768845E+04</totfact>
</mgrwt>
</event>
<event>
 4    1  0.4926234E+003  0.1210043E+03  0.7546771E-02  0.1241449E+00
         21   -1    0    0  501  502  0.00000000000E+00  0.00000000000E+00  0.65705285743E+03  0.65705285743E+03  0.00000000000E+00 0. -1.
         -1   -1    0    0    0  501 -0.00000000000E+00 -0.00000000000E+00 -0.85024334594E+02  0.85024334594E+02  0.00000000000E+00 0. -1.
         21    1    1    2  503  502 -0.12008680322E+03 -0.14872830280E+02  0.60474168416E+03  0.61672890798E+03  0.00000000000E+00 0. -1.
         -1    1    1    2    0  503  0.12008680322E+03  0.14872830280E+02 -0.32713161322E+02  0.12534828404E+03  0.00000000000E+00 0. -1.
<mgrwt>
<rscale>  2 0.12100430E+03</rscale>
<asrwt>0</asrwt>
<pdfrwt beam="1">  1       21 0.10108505E+00 0.12100430E+03</pdfrwt>
<pdfrwt beam="2">  1       -1 0.13080667E-01 0.12100430E+03</pdfrwt>
<totfact> 0.29432294E+03</totfact>
</mgrwt>
</event>
<event>
 4    1  0.4926234E+003  0.1762177E+03  0.7546771E-02  0.1171515E+00
         21   -1    0    0  501  502  0.00000000000E+00  0.00000000000E+00  0.32128262397E+02  0.32128262397E+02  0.00000000000E+00 0.  1.
          2   -1    0    0  503    0 -0.00000000000E+00 -0.00000000000E+00 -0.33048253829E+04  0.33048253829E+04  0.00000000000E+00 0. -1.
         21    1    1    2  503  502 -0.50734568372E+02 -0.16875631238E+03 -0.23290064659E+03  0.29205376317E+03  0.00000000000E+00 0.  1.
          2    1    1    2  501    0  0.50734568372E+02  0.16875631238E+03 -0.30397964739E+04  0.30448998821E+04  0.00000000000E+00 0. -1.
<mgrwt>
<rscale>  2 0.17621773E+03</rscale>
<asrwt>0</asrwt>
<pdfrwt beam="1">  1       21 0.49428100E-02 0.17621773E+03</pdfrwt>
<pdfrwt beam="2">  1        2 0.50843464E+00 0.17621773E+03</pdfrwt>
<totfact> 0.49828516E+03</totfact>
</mgrwt>
</event>
<event>
 4    1  0.4926234E+003  0.1114691E+03  0.7546771E-02  0.1257873E+00
          1   -1    0    0  503    0 -0.00000000000E+00  0.00000000000E+00  0.12303817656E+04  0.12303817656E+04  0.00000000000E+00 0.  1.
         21   -1    0    0  501  502  0.00000000000E+00 -0.00000000000E+00 -0.17612040605E+02  0.17612040605E+02  0.00000000000E+00 0.  1.
         21    1    1    2  503  502 -0.96440088036E+02 -0.55898715423E+02  0.19882465929E+03  0.22793990899E+03  0.00000000000E+00 0.  1.
          1    1    1    2  501    0  0.96440088036E+02  0.55898715423E+02  0.10139450657E+04  0.10200538973E+04  0.00000000000E+00 0.  1.
<mgrwt>
<rscale>  2 0.11146909E+03</rscale>
<asrwt>0</asrwt>
<pdfrwt beam="2">  1       21 0.27095457E-02 0.11146909E+03</pdfrwt>
<pdfrwt beam="1">  1        1 0.18928943E+00 0.11146909E+03</pdfrwt>
<totfact> 0.92200863E+04</totfact>
</mgrwt>
</event>
<event>
 4    1  0.4926234E+003  0.1428727E+03  0.7546771E-02  0.1209515E+00
         21   -1    0    0  501  502  0.00000000000E+00  0.00000000000E+00  0.47883377909E+02  0.47883377909E+02  0.00000000000E+00 0. -1.
          2   -1    0    0  503    0 -0.00000000000E+00 -0.00000000000E+00 -0.57041968532E+03  0.57041968532E+03  0.00000000000E+00 0. -1.
         21    1    1    2  503  502  0.94366184702E+02 -0.10727358047E+03 -0.10587262710E+03  0.17782466379E+03  0.00000000000E+00 0. -1.
          2    1    1    2  501    0 -0.94366184702E+02  0.10727358047E+03 -0.41666368031E+03  0.44047839944E+03  0.00000000000E+00 0. -1.
<mgrwt>
<rscale>  2 0.14287266E+03</rscale>
<asrwt>0</asrwt>
<pdfrwt beam="1">  1       21 0.73666734E-02 0.14287266E+03</pdfrwt>
<pdfrwt beam="2">  1        2 0.87756876E-01 0.14287266E+03</pdfrwt>
<totfact> 0.92729865E+04</totfact>
</mgrwt>
</event>
<event>
 4    1  0.4926234E+003  0.1080833E+03  0.7546771E-02  0.1264161E+00
          2   -1    0    0  502    0 -0.00000000000E+00  0.00000000000E+00  0.31140749540E+02  0.31140749540E+02  0.00000000000E+00 0.  1.
         21   -1    0    0  503  502  0.00000000000E+00 -0.00000000000E+00 -0.44569308297E+03  0.44569308297E+03  0.00000000000E+00 0. -1.
         21    1    1    2  503  501  0.91032374578E+01 -0.10769929699E+03 -0.30213773263E+03  0.32088816897E+03  0.00000000000E+00 0. -1.
          2    1    1    2  501    0 -0.91032374578E+01  0.10769929699E+03 -0.11241460080E+03  0.15594566354E+03  0.00000000000E+00 0.  1.
<mgrwt>
<rscale>  2 0.10808334E+03</rscale>
<asrwt>0</asrwt>
<pdfrwt beam="2">  1       21 0.68568161E-01 0.10808334E+03</pdfrwt>
<pdfrwt beam="1">  1        2 0.47908849E-02 0.10808334E+03</pdfrwt>
<totfact> 0.38430164E+04</totfact>
</mgrwt>
</event>
<event>
 4    1  0.4926234E+003  0.1037765E+03  0.7546771E-02  0.1272549E+00
          1   -1    0    0  503    0 -0.00000000000E+00  0.00000000000E+00  0.10670569396E+04  0.10670569396E+04  0.00000000000E+00 0. -1.
         21   -1    0    0  501  502  0.00000000000E+00 -0.00000000000E+00 -0.27024670672E+02  0.27024670672E+02  0.00000000000E+00 0.  1.
         21    1    1    2  503  502  0.93216839566E+02  0.45609118100E+02  0.87011797166E+02  0.13542755879E+03  0.00000000000E+00 0.  1.
          1    1    1    2  501    0 -0.93216839566E+02 -0.45609118100E+02  0.95302047179E+03  0.95865405151E+03  0.00000000000E+00 0. -1.
<mgrwt>
<rscale>  2 0.10377654E+03</rscale>
<asrwt>0</asrwt>
<pdfrwt beam="2">  1       21 0.41576425E-02 0.10377654E+03</pdfrwt>
<pdfrwt beam="1">  1        1 0.16416257E+00 0.10377654E+03</pdfrwt>
<totfact> 0.59126761E+04</totfact>
</mgrwt>
</event>
<event>
 4    1  0.4926234E+003  0.1629999E+03  0.7546771E-02  0.1185351E+00
         21   -1    0    0  503  502  0.00000000000E+00  0.00000000000E+00  0.35058968077E+03  0.35058968077E+03  0.00000000000E+00 0. -1.
          1   -1    0    0  502    0 -0.00000000000E+00 -0.00000000000E+00 -0.85930558241E+03  0.85930558241E+03  0.00000000000E+00 0.  1.
         21    1    1    2  503  501  0.57755343414E+02  0.15242468162E+03  0.32329839015E+03  0.36206465214E+03  0.00000000000E+00 0. -1.
          1    1    1    2  501    0 -0.57755343414E+02 -0.15242468162E+03 -0.83201429179E+03  0.84783061103E+03  0.00000000000E+00 0.  1.
<mgrwt>
<rscale>  2 0.16299989E+03</rscale>
<asrwt>0</asrwt>
<pdfrwt beam="1">  1       21 0.53936875E-01 0.16299989E+03</pdfrwt>
<pdfrwt beam="2">  1        1 0.13220086E+00 0.16299989E+03</pdfrwt>
<totfact> 0.76366296E+02</totfact>
</mgrwt>
</event>
<event>
 4    1  0.4926234E+003  0.1194677E+03  0.7546771E-02  0.1243978E+00
         21   -1    0    0  501  502  0.00000000000E+00  0.00000000000E+00  0.25302212015E+03  0.25302212015E+03  0.00000000000E+00 0. -1.
         -2   -1    0    0    0  501 -0.00000000000E+00 -0.00000000000E+00 -0.93663516108E+02  0.93663516108E+02  0.00000000000E+00 0. -1.
         21    1    1    2  503  502  0.72470974268E+02  0.94976197965E+02  0.18900312197E+03  0.22359494719E+03  0.00000000000E+00 0. -1.
         -2    1    1    2    0  503 -0.72470974268E+02 -0.94976197965E+02 -0.29644517937E+02  0.12309068907E+03  0.00000000000E+00 0. -1.
<mgrwt>
<rscale>  2 0.11946765E+03</rscale>
<asrwt>0</asrwt>
<pdfrwt beam="1">  1       21 0.38926480E-01 0.11946765E+03</pdfrwt>
<pdfrwt beam="2">  1       -2 0.14409772E-01 0.11946765E+03</pdfrwt>
<totfact> 0.18368143E+04</totfact>
</mgrwt>
</event>
<event>
 4    1  0.4926234E+003  0.1179308E+03  0.7546771E-02  0.1246550E+00
          2   -1    0    0  503    0 -0.00000000000E+00  0.00000000000E+00  0.65626465913E+03  0.65626465913E+03  0.00000000000E+00 0.  1.
         21   -1    0    0  501  502  0.00000000000E+00 -0.00000000000E+00 -0.80510549627E+02  0.80510549627E+02  0.00000000000E+00 0. -1.
         21    1    1    2  503  502  0.69569328398E+02 -0.95224947229E+02 -0.28331195929E+02  0.12128618508E+03  0.00000000000E+00 0. -1.
          2    1    1    2  501    0 -0.69569328398E+02  0.95224947229E+02  0.60408530543E+03  0.61548902368E+03  0.00000000000E+00 0.  1.
<mgrwt>
<rscale>  2 0.11793084E+03</rscale>
<asrwt>0</asrwt>
<pdfrwt beam="2">  1       21 0.12386239E-01 0.11793084E+03</pdfrwt>
<pdfrwt beam="1">  1        2 0.10096379E+00 0.11793084E+03</pdfrwt>
<totfact> 0.31874440E+04</totfact>
</mgrwt>
</event>
<event>
 4    1  0.4926234E+003  0.1125505E+03  0.7546771E-02  0.1255918E+00
         21   -1    0    0  501  502  0.00000000000E+00  0.00000000000E+00  0.70268196061E+02  0.70268196061E+02  0.00000000000E+00 0.  1.
          1   -1    0    0  503    0 -0.00000000000E+00 -0.00000000000E+00 -0.28473222466E+03  0.28473222466E+03  0.00000000000E+00 0. -1.
         21    1    1    2  503  502 -0.86076361233E+02  0.72515322049E+02  0.27812452836E+00  0.11255082962E+03  0.00000000000E+00 0.  1.
          1    1    1    2  501    0  0.86076361233E+02 -0.72515322049E+02 -0.21474215313E+03  0.24244959110E+03  0.00000000000E+00 0. -1.
<mgrwt>
<rscale>  2 0.11255049E+03</rscale>
<asrwt>0</asrwt>
<pdfrwt beam="1">  1       21 0.10810492E-01 0.11255049E+03</pdfrwt>
<pdfrwt beam="2">  1        1 0.43804958E-01 0.11255049E+03</pdfrwt>
<totfact> 0.71474502E+04</totfact>
</mgrwt>
</event>
<event>
 4    1  0.4926234E+003  0.1222952E+03  0.7546771E-02  0.1239358E+00
         -1   -1    0    0    0  501 -0.00000000000E+00  0.00000000000E+00  0.33290826998E+03  0.33290826998E+03  0.00000000000E+00 0.  1.
         21   -1    0    0  503  502  0.00000000000E+00 -0.00000000000E+00 -0.21029507755E+03  0.21029507755E+03  0.00000000000E+00 0. -1.
         21    1    1    2  503  501  0.17999170941E+02 -0.12096336700E+03 -0.17954279649E+03  0.21723655788E+03  0.00000000000E+00 0. -1.
         -1    1    1    2    0  502 -0.17999170941E+02  0.12096336700E+03  0.30215598892E+03  0.32596678964E+03  0.00000000000E+00 0.  1.
<mgrwt>
<rscale>  2 0.12229516E+03</rscale>
<asrwt>0</asrwt>
<pdfrwt beam="2">  1       21 0.32353089E-01 0.12229516E+03</pdfrwt>
<pdfrwt beam="1">  1       -1 0.51216657E-01 0.12229516E+03</pdfrwt>
<totfact> 0.34039067E+03</totfact>
</mgrwt>
</event>
<event>
 4    1  0.4926234E+003  0.1088408E+03  0.7546771E-02  0.1262732E+00
         21   -1    0    0  501  502  0.00000000000E+00  0.00000000000E+00  0.84366743770E+01  0.84366743770E+01  0.00000000000E+00 0.  1.
          2   -1    0    0  503    0 -0.00000000000E+00 -0.00000000000E+00 -0.14892654032E+04  0.14892654032E+04  0.00000000000E+00 0. -1.
         21    1    1    2  503  502  0.36982564892E+02  0.10236511620E+03 -0.56138581270E+03  0.57183945109E+03  0.00000000000E+00 0.  1.
          2    1    1    2  501    0 -0.36982564892E+02 -0.10236511620E+03 -0.91944291610E+03  0.92586262646E+03  0.00000000000E+00 0. -1.
<mgrwt>
<rscale>  2 0.10884083E+03</rscale>
<asrwt>0</asrwt>
<pdfrwt beam="1">  1       21 0.12979504E-02 0.10884083E+03</pdfrwt>
<pdfrwt beam="2">  1        2 0.22911767E+00 0.10884083E+03</pdfrwt>
<totfact> 0.43339467E+05</totfact>
</mgrwt>
</event>
<event>
 4    1  0.4926234E+003  0.1926126E+03  0.7546771E-02  0.1156126E+00
          1   -1    0    0  502    0 -0.00000000000E+00  0.00000000000E+00  0.68757461324E+03  0.68757461324E+03  0.00000000000E+00 0.  1.
         21   -1    0    0  503  502  0.00000000000E+00 -0.00000000000E+00 -0.13431617389E+03  0.13431617389E+03  0.00000000000E+00 0. -1.
         21    1    1    2  503  501 -0.18310334760E+03 -0.59772710394E+02 -0.41231677719E+02  0.19697630329E+03  0.00000000000E+00 0. -1.
          1    1    1    2  501    0  0.18310334760E+03  0.59772710394E+02  0.59449011707E+03  0.62491448384E+03  0.00000000000E+00 0.  1.
<mgrwt>
<rscale>  2 0.19261260E+03</rscale>
<asrwt>0</asrwt>
<pdfrwt beam="2">  1       21 0.20664027E-01 0.19261260E+03</pdfrwt>
<pdfrwt beam="1">  1        1 0.10578071E+00 0.19261260E+03</pdfrwt>
<totfact> 0.69975917E+03</totfact>
</mgrwt>
</event>
<event>
 4    1  0.4926234E+003  0.1404103E+03  0.7546771E-02  0.1212778E+00
         21   -1    0    0  501  502  0.00000000000E+00  0.00000000000E+00  0.10114796261E+03  0.10114796261E+03  0.00000000000E+00 0.  1.
          2   -1    0    0  503    0 -0.00000000000E+00 -0.00000000000E+00 -0.27560159557E+03  0.27560159557E+03  0.00000000000E+00 0.  1.
         21    1    1    2  503  502  0.79951330154E+02 -0.11542464688E+03  0.14699813521E+02  0.14117772069E+03  0.00000000000E+00 0.  1.
          2    1    1    2  501    0 -0.79951330154E+02  0.11542464688E+03 -0.18915344648E+03  0.23557183749E+03  0.00000000000E+00 0.  1.
<mgrwt>
<rscale>  2 0.14041034E+03</rscale>
<asrwt>0</asrwt>
<pdfrwt beam="1">  1       21 0.15561225E-01 0.14041034E+03</pdfrwt>
<pdfrwt beam="2">  1        2 0.42400246E-01 0.14041034E+03</pdfrwt>
<totfact> 0.54350493E+04</totfact>
</mgrwt>
</event>
<event>
 4    1  0.4926234E+003  0.2208111E+03  0.7546771E-02  0.1133280E+00
          3   -1    0    0  503    0 -0.00000000000E+00  0.00000000000E+00  0.12340830887E+03  0.12340830887E+03  0.00000000000E+00 0. -1.
         21   -1    0    0  501  502  0.00000000000E+00 -0.00000000000E+00 -0.52518541171E+03  0.52518541171E+03  0.00000000000E+00 0. -1.
         21    1    1    2  503  502 -0.22081108375E+03  0.19836597109E-01 -0.36229297291E+03  0.42428025327E+03  0.00000000000E+00 0. -1.
          3    1    1    2  501    0  0.22081108375E+03 -0.19836597109E-01 -0.39484129929E+02  0.22431346731E+03  0.00000000000E+00 0. -1.
<mgrwt>
<rscale>  2 0.22081108E+03</rscale>
<asrwt>0</asrwt>
<pdfrwt beam="2">  1       21 0.80797755E-01 0.22081108E+03</pdfrwt>
<pdfrwt beam="1">  1        3 0.18985894E-01 0.22081108E+03</pdfrwt>
<totfact> 0.16260749E+03</totfact>
</mgrwt>
</event>
<event>
 4    1  0.4926234E+003  0.1087629E+03  0.7546771E-02  0.1262878E+00
          1   -1    0    0  503    0 -0.00000000000E+00  0.00000000000E+00  0.64506088570E+03  0.64506088570E+03  0.00000000000E+00 0. -1.
         21   -1    0    0  501  502  0.00000000000E+00 -0.00000000000E+00 -0.20494961426E+03  0.20494961426E+03  0.00000000000E+00 0.  1.
         21    1    1    2  503  502  0.97203393315E+02  0.48794063497E+02 -0.18548992829E+03  0.21502528642E+03  0.00000000000E+00 0.  1.
          1    1    1    2  501    0 -0.97203393315E+02 -0.48794063497E+02  0.62560119974E+03  0.63498521354E+03  0.00000000000E+00 0. -1.
<mgrwt>
<rscale>  2 0.10876286E+03</rscale>
<asrwt>0</asrwt>
<pdfrwt beam="2">  1       21 0.31530710E-01 0.10876286E+03</pdfrwt>
<pdfrwt beam="1">  1        1 0.99240135E-01 0.10876286E+03</pdfrwt>
<totfact> 0.35429672E+03</totfact>
</mgrwt>
</event>
<event>
 4    1  0.4926234E+003  0.1099779E+03  0.7546771E-02  0.1260611E+00
          2   -1    0    0  503    0 -0.00000000000E+00  0.00000000000E+00  0.85968084974E+03  0.85968084974E+03  0.00000000000E+00 0. -1.
         21   -1    0    0  501  502  0.00000000000E+00 -0.00000000000E+00 -0.26595508466E+02  0.26595508466E+02  0.00000000000E+00 0.  1.
         21    1    1    2  503  502  0.81715411294E+01  0.10967388160E+03  0.11242314746E+03  0.15727078073E+03  0.00000000000E+00 0.  1.
          2    1    1    2  501    0 -0.81715411294E+01 -0.10967388160E+03  0.72066219381E+03  0.72900557747E+03  0.00000000000E+00 0. -1.
<mgrwt>
<rscale>  2 0.10997788E+03</rscale>
<asrwt>0</asrwt>
<pdfrwt beam="2">  1       21 0.40916173E-02 0.10997788E+03</pdfrwt>
<pdfrwt beam="1">  1        2 0.13225857E+00 0.10997788E+03</pdfrwt>
<totfact> 0.15262670E+05</totfact>
</mgrwt>
</event>
<event>
 4    1  0.4926234E+003  0.1075665E+03  0.7546771E-02  0.1265144E+00
         21   -1    0    0  503  502  0.00000000000E+00  0.00000000000E+00  0.21672014552E+03  0.21672014552E+03  0.00000000000E+00 0.  1.
          1   -1    0    0  502    0 -0.00000000000E+00 -0.00000000000E+00 -0.12447903687E+03  0.12447903687E+03  0.00000000000E+00 0. -1.
         21    1    1    2  503  501  0.35748820543E+01 -0.10750704607E+03  0.17504439027E+03  0.20545336041E+03  0.00000000000E+00 0.  1.
          1    1    1    2  501    0 -0.35748820543E+01  0.10750704607E+03 -0.82803281619E+02  0.13574582198E+03  0.00000000000E+00 0. -1.
<mgrwt>
<rscale>  2 0.10756647E+03</rscale>
<asrwt>0</asrwt>
<pdfrwt beam="1">  1       21 0.33341561E-01 0.10756647E+03</pdfrwt>
<pdfrwt beam="2">  1        1 0.19150621E-01 0.10756647E+03</pdfrwt>
<totfact> 0.25182406E+04</totfact>
</mgrwt>
</event>
<event>
 4    1  0.4926234E+003  0.1272157E+03  0.7546771E-02  0.1231647E+00
         -3   -1    0    0    0  501 -0.00000000000E+00  0.00000000000E+00  0.81487784234E+02  0.81487784234E+02  0.00000000000E+00 0.  1.
         21   -1    0    0  501  502  0.00000000000E+00 -0.00000000000E+00 -0.27554596995E+03  0.27554596995E+03  0.00000000000E+00 0. -1.
         21    1    1    2  503  502 -0.11777850364E+03  0.48083997945E+02 -0.19136179528E+03  0.22978943290E+03  0.00000000000E+00 0. -1.
         -3    1    1    2    0  503  0.11777850364E+03 -0.48083997945E+02 -0.26963904350E+01  0.12724432129E+03  0.00000000000E+00 0.  1.
<mgrwt>
<rscale>  2 0.12721575E+03</rscale>
<asrwt>0</asrwt>
<pdfrwt beam="2">  1       21 0.42391688E-01 0.12721575E+03</pdfrwt>
<pdfrwt beam="1">  1       -3 0.12536582E-01 0.12721575E+03</pdfrwt>
<totfact> 0.13041501E+04</totfact>
</mgrwt>
</event>
<event>
 4    1  0.4926234E+003  0.1150502E+03  0.7546771E-02  0.1251493E+00
         21   -1    0    0  503  502  0.00000000000E+00  0.00000000000E+00  0.61896968102E+02  0.61896968102E+02  0.00000000000E+00 0.  1.
         -2   -1    0    0    0  501 -0.00000000000E+00 -0.00000000000E+00 -0.80166375197E+03  0.80166375197E+03  0.00000000000E+00 0. -1.
         21    1    1    2  503  501 -0.69961144273E+02  0.91334495670E+02 -0.15115611480E+00  0.11505031358E+03  0.00000000000E+00 0.  1.
         -2    1    1    2    0  502  0.69961144273E+02 -0.91334495670E+02 -0.73961562775E+03  0.74851040649E+03  0.00000000000E+00 0. -1.
<mgrwt>
<rscale>  2 0.11505021E+03</rscale>
<asrwt>0</asrwt>
<pdfrwt beam="1">  1       21 0.95226101E-02 0.11505021E+03</pdfrwt>
<pdfrwt beam="2">  1       -2 0.12333289E+00 0.11505021E+03</pdfrwt>
<totfact> 0.38089362E+03</totfact>
</mgrwt>
</event>
<event>
 4    1  0.4926234E+003  0.3256665E+03  0.7546771E-02  0.1073071E+00
          2   -1    0    0  503    0 -0.00000000000E+00  0.00000000000E+00  0.22487346440E+04  0.22487346440E+04  0.00000000000E+00 0. -1.
         21   -1    0    0  501  502  0.00000000000E+00 -0.00000000000E+00 -0.51234148434E+02  0.51234148434E+02  0.00000000000E+00 0. -1.
         21    1    1    2  503  502 -0.28940490681E+03 -0.14934335624E+03  0.77460959323E+03  0.84028486840E+03  0.00000000000E+00 0. -1.
          2    1    1    2  501    0  0.28940490681E+03  0.14934335624E+03  0.14228909023E+04  0.14596839240E+04  0.00000000000E+00 0. -1.
<mgrwt>
<rscale>  2 0.32566645E+03</rscale>
<asrwt>0</asrwt>
<pdfrwt beam="2">  1       21 0.78821784E-02 0.32566645E+03</pdfrwt>
<pdfrwt beam="1">  1        2 0.34595910E+00 0.32566645E+03</pdfrwt>
<totfact> 0.83719508E+03</totfact>
</mgrwt>
</event>
<event>
 4    1  0.4926234E+003  0.2021156E+03  0.7546771E-02  0.1147966E+00
         21   -1    0    0  503  502  0.00000000000E+00  0.00000000000E+00  0.26568388216E+02  0.26568388216E+02  0.00000000000E+00 0.  1.
          2   -1    0    0  502    0 -0.00000000000E+00 -0.00000000000E+00 -0.23579543989E+04  0.23579543989E+04  0.00000000000E+00 0.  1.
         21    1    1    2  503  501 -0.12670365697E+02  0.20171808919E+03 -0.46243807494E+03  0.50467781686E+03  0.00000000000E+00 0.  1.
          2    1    1    2  501    0  0.12670365697E+02 -0.20171808919E+03 -0.18689479357E+04  0.18798449702E+04  0.00000000000E+00 0.  1.
<mgrwt>
<rscale>  2 0.20211562E+03</rscale>
<asrwt>0</asrwt>
<pdfrwt beam="1">  1       21 0.40874420E-02 0.20211562E+03</pdfrwt>
<pdfrwt beam="2">  1        2 0.36276242E+00 0.20211562E+03</pdfrwt>
<totfact> 0.23540899E+04</totfact>
</mgrwt>
</event>
<event>
 4    1  0.4926234E+003  0.1038560E+03  0.7546771E-02  0.1272390E+00
         21   -1    0    0  501  502  0.00000000000E+00  0.00000000000E+00  0.36824994739E+02  0.36824994739E+02  0.00000000000E+00 0.  1.
          1   -1    0    0  503    0 -0.00000000000E+00 -0.00000000000E+00 -0.54256955745E+03  0.54256955745E+03  0.00000000000E+00 0.  1.
         21    1    1    2  503  502 -0.49988742521E+02 -0.91034000398E+02 -0.56355808251E+02  0.11816107959E+03  0.00000000000E+00 0.  1.
          1    1    1    2  501    0  0.49988742521E+02  0.91034000398E+02 -0.44938875446E+03  0.46123347260E+03  0.00000000000E+00 0.  1.
<mgrwt>
<rscale>  2 0.10385598E+03</rscale>
<asrwt>0</asrwt>
<pdfrwt beam="1">  1       21 0.56653840E-02 0.10385598E+03</pdfrwt>
<pdfrwt beam="2">  1        1 0.83472236E-01 0.10385598E+03</pdfrwt>
<totfact> 0.96059399E+04</totfact>
</mgrwt>
</event>
<event>
 4    1  0.4926234E+003  0.1631345E+03  0.7546771E-02  0.1185203E+00
         21   -1    0    0  501  502  0.00000000000E+00  0.00000000000E+00  0.23224614952E+02  0.23224614952E+02  0.00000000000E+00 0.  1.
          2   -1    0    0  503    0 -0.00000000000E+00 -0.00000000000E+00 -0.18713587212E+04  0.18713587212E+04  0.00000000000E+00 0.  1.
         21    1    1    2  503  502  0.69328814517E+01 -0.16298709351E+03 -0.33425384167E+03  0.37193882315E+03  0.00000000000E+00 0.  1.
          2    1    1    2  501    0 -0.69328814517E+01  0.16298709351E+03 -0.15138802646E+04  0.15226445130E+04  0.00000000000E+00 0.  1.
<mgrwt>
<rscale>  2 0.16313448E+03</rscale>
<asrwt>0</asrwt>
<pdfrwt beam="1">  1       21 0.35730164E-02 0.16313448E+03</pdfrwt>
<pdfrwt beam="2">  1        2 0.28790144E+00 0.16313448E+03</pdfrwt>
<totfact> 0.53515864E+04</totfact>
</mgrwt>
</event>
<event>
 4    1  0.4926234E+003  0.1085810E+03  0.7546771E-02  0.1263220E+00
         21   -1    0    0  503  502  0.00000000000E+00  0.00000000000E+00  0.15004136993E+02  0.15004136993E+02  0.00000000000E+00 0. -1.
         -1   -1    0    0    0  501 -0.00000000000E+00 -0.00000000000E+00 -0.15115740690E+04  0.15115740690E+04  0.00000000000E+00 0.  1.
         21    1    1    2  503  501 -0.48975113341E+02  0.96908583412E+02 -0.21937304407E+03  0.24477411572E+03  0.00000000000E+00 0. -1.
         -1    1    1    2    0  502  0.48975113341E+02 -0.96908583412E+02 -0.12771968880E+04  0.12818040903E+04  0.00000000000E+00 0.  1.
<mgrwt>
<rscale>  2 0.10858101E+03</rscale>
<asrwt>0</asrwt>
<pdfrwt beam="1">  1       21 0.23083286E-02 0.10858101E+03</pdfrwt>
<pdfrwt beam="2">  1       -1 0.23254988E+00 0.10858101E+03</pdfrwt>
<totfact> 0.96158609E+03</totfact>
</mgrwt>
</event>
<event>
 4    1  0.4926234E+003  0.1282614E+03  0.7546771E-02  0.1230059E+00
         -2   -1    0    0    0  501 -0.00000000000E+00  0.00000000000E+00  0.55439856061E+03  0.55439856061E+03  0.00000000000E+00 0. -1.
         21   -1    0    0  501  502  0.00000000000E+00 -0.00000000000E+00 -0.30153491607E+03  0.30153491607E+03  0.00000000000E+00 0.  1.
         21    1    1    2  503  502 -0.12435990914E+03 -0.31394209408E+02 -0.27993191497E+03  0.30791696998E+03  0.00000000000E+00 0.  1.
         -2    1    1    2    0  503  0.12435990914E+03  0.31394209408E+02  0.53279555951E+03  0.54801650670E+03  0.00000000000E+00 0. -1.
<mgrwt>
<rscale>  2 0.12826139E+03</rscale>
<asrwt>0</asrwt>
<pdfrwt beam="2">  1       21 0.46389987E-01 0.12826139E+03</pdfrwt>
<pdfrwt beam="1">  1       -2 0.85292086E-01 0.12826139E+03</pdfrwt>
<totfact> 0.46365223E+02</totfact>
</mgrwt>
</event>
<event>
 4    1  0.4926234E+003  0.1067627E+03  0.7546771E-02  0.1266685E+00
          4   -1    0    0  502    0 -0.00000000000E+00  0.00000000000E+00  0.10902783253E+04  0.10902783253E+04  0.00000000000E+00 0. -1.
         21   -1    0    0  503  502  0.00000000000E+00 -0.00000000000E+00 -0.28134509067E+02  0.28134509067E+02  0.00000000000E+00 0.  1.
         21    1    1    2  503  501 -0.31407037586E+02 -0.10203860731E+03  0.87775598475E+02  0.13821300618E+03  0.00000000000E+00 0.  1.
          4    1    1    2  501    0  0.31407037586E+02  0.10203860731E+03  0.97436821777E+03  0.98019982819E+03  0.00000000000E+00 0. -1.
<mgrwt>
<rscale>  2 0.10676272E+03</rscale>
<asrwt>0</asrwt>
<pdfrwt beam="2">  1       21 0.43283869E-02 0.10676272E+03</pdfrwt>
<pdfrwt beam="1">  1        4 0.16773509E+00 0.10676272E+03</pdfrwt>
<totfact> 0.33097082E+03</totfact>
</mgrwt>
</event>
<event>
 4    1  0.4926234E+003  0.1044127E+03  0.7546771E-02  0.1271281E+00
          3   -1    0    0  503    0 -0.00000000000E+00  0.00000000000E+00  0.19229414854E+02  0.19229414854E+02  0.00000000000E+00 0.  1.
         21   -1    0    0  501  502  0.00000000000E+00 -0.00000000000E+00 -0.76292373597E+03  0.76292373597E+03  0.00000000000E+00 0.  1.
         21    1    1    2  503  502  0.27155135084E+02 -0.10081973137E+03 -0.57005725769E+03  0.57954059102E+03  0.00000000000E+00 0.  1.
          3    1    1    2  501    0 -0.27155135084E+02  0.10081973137E+03 -0.17363706343E+03  0.20261255981E+03  0.00000000000E+00 0.  1.
<mgrwt>
<rscale>  2 0.10441274E+03</rscale>
<asrwt>0</asrwt>
<pdfrwt beam="2">  1       21 0.11737290E+00 0.10441274E+03</pdfrwt>
<pdfrwt beam="1">  1        3 0.29583711E-02 0.10441274E+03</pdfrwt>
<totfact> 0.13968460E+04</totfact>
</mgrwt>
</event>
<event>
 4    1  0.4926234E+003  0.1148512E+03  0.7546771E-02  0.1251841E+00
          1   -1    0    0  503    0 -0.00000000000E+00  0.00000000000E+00  0.14630007995E+02  0.14630007995E+02  0.00000000000E+00 0.  1.
         21   -1    0    0  501  502  0.00000000000E+00 -0.00000000000E+00 -0.16785529684E+04  0.16785529684E+04  0.00000000000E+00 0. -1.
         21    1    1    2  503  502  0.18032878078E+02 -0.11342671635E+03 -0.14079267509E+04  0.14126034619E+04  0.00000000000E+00 0. -1.
          1    1    1    2  501    0 -0.18032878078E+02  0.11342671635E+03 -0.25599620953E+03  0.28057951452E+03  0.00000000000E+00 0.  1.
<mgrwt>
<rscale>  2 0.11485123E+03</rscale>
<asrwt>0</asrwt>
<pdfrwt beam="2">  1       21 0.25823878E+00 0.11485123E+03</pdfrwt>
<pdfrwt beam="1">  1        1 0.22507716E-02 0.11485123E+03</pdfrwt>
<totfact> 0.33507271E+03</totfact>
</mgrwt>
</event>
<event>
 4    1  0.4926234E+003  0.2556260E+03  0.7546771E-02  0.1109800E+00
         21   -1    0    0  501  502  0.00000000000E+00  0.00000000000E+00  0.52726422966E+03  0.52726422966E+03  0.00000000000E+00 0. -1.
          2   -1    0    0  503    0 -0.00000000000E+00 -0.00000000000E+00 -0.75548123067E+03  0.75548123067E+03  0.00000000000E+00 0.  1.
         21    1    1    2  503  502 -0.16570253748E+03 -0.19464663990E+03  0.47230293290E+03  0.53704255491E+03  0.00000000000E+00 0. -1.
          2    1    1    2  501    0  0.16570253748E+03  0.19464663990E+03 -0.70051993391E+03  0.74570290542E+03  0.00000000000E+00 0.  1.
<mgrwt>
<rscale>  2 0.25562599E+03</rscale>
<asrwt>0</asrwt>
<pdfrwt beam="1">  1       21 0.81117574E-01 0.25562599E+03</pdfrwt>
<pdfrwt beam="2">  1        2 0.11622788E+00 0.25562599E+03</pdfrwt>
<totfact> 0.62012235E+02</totfact>
</mgrwt>
</event>
<event>
 4    1  0.4926234E+003  0.1056018E+03  0.7546771E-02  0.1268938E+00
         21   -1    0    0  503  502  0.00000000000E+00  0.00000000000E+00  0.40965816977E+02  0.40965816977E+02  0.00000000000E+00 0.  1.
          2   -1    0    0  502    0 -0.00000000000E+00 -0.00000000000E+00 -0.13749625793E+04  0.13749625793E+04  0.00000000000E+00 0.  1.
         21    1    1    2  503  501 -0.10406986330E+03  0.17922347446E+02 -0.32978650437E+02  0.11063154328E+03  0.00000000000E+00 0.  1.
          2    1    1    2  501    0  0.10406986330E+03 -0.17922347446E+02 -0.13010181119E+04  0.13052968530E+04  0.00000000000E+00 0.  1.
<mgrwt>
<rscale>  2 0.10560183E+03</rscale>
<asrwt>0</asrwt>
<pdfrwt beam="1">  1       21 0.63024328E-02 0.10560183E+03</pdfrwt>
<pdfrwt beam="2">  1        2 0.21153272E+00 0.10560183E+03</pdfrwt>
<totfact> 0.37693317E+04</totfact>
</mgrwt>
</event>
<event>
 4    1  0.4926234E+003  0.1149146E+03  0.7546771E-02  0.1251730E+00
         21   -1    0    0  503  502  0.00000000000E+00  0.00000000000E+00  0.35233582701E+03  0.35233582701E+03  0.00000000000E+00 0.  1.
          2   -1    0    0  502    0 -0.00000000000E+00 -0.00000000000E+00 -0.63900915742E+02  0.63900915742E+02  0.00000000000E+00 0. -1.
         21    1    1    2  503  501 -0.10581622024E+03  0.44813957315E+02  0.27804179019E+03  0.30085312086E+03  0.00000000000E+00 0.  1.
          2    1    1    2  501    0  0.10581622024E+03 -0.44813957315E+02  0.10393121076E+02  0.11538362190E+03  0.00000000000E+00 0. -1.
<mgrwt>
<rscale>  2 0.11491459E+03</rscale>
<asrwt>0</asrwt>
<pdfrwt beam="1">  1       21 0.54205511E-01 0.11491459E+03</pdfrwt>
<pdfrwt beam="2">  1        2 0.98309103E-02 0.11491459E+03</pdfrwt>
<totfact> 0.25510745E+04</totfact>
</mgrwt>
</event>
<event>
 4    1  0.4926234E+003  0.1231411E+03  0.7546771E-02  0.1238003E+00
         21   -1    0    0  503  502  0.00000000000E+00  0.00000000000E+00  0.56463267722E+02  0.56463267722E+02  0.00000000000E+00 0.  1.
          2   -1    0    0  502    0 -0.00000000000E+00 -0.00000000000E+00 -0.78791929309E+03  0.78791929309E+03  0.00000000000E+00 0. -1.
         21    1    1    2  503  501 -0.33720821137E+02  0.11843406773E+03 -0.22958065095E+02  0.12526290325E+03  0.00000000000E+00 0.  1.
          2    1    1    2  501    0  0.33720821137E+02 -0.11843406773E+03 -0.70849796027E+03  0.71911965756E+03  0.00000000000E+00 0. -1.
<mgrwt>
<rscale>  2 0.12314107E+03</rscale>
<asrwt>0</asrwt>
<pdfrwt beam="1">  1       21 0.86866569E-02 0.12314107E+03</pdfrwt>
<pdfrwt beam="2">  1        2 0.12121835E+00 0.12314107E+03</pdfrwt>
<totfact> 0.47694837E+04</totfact>
</mgrwt>
</event>
<event>
 4    1  0.4926234E+003  0.1258451E+03  0.7546771E-02  0.1233754E+00
         21   -1    0    0  501  502  0.00000000000E+00  0.00000000000E+00  0.52263879813E+02  0.52263879813E+02  0.00000000000E+00 0.  1.
          1   -1    0    0  503    0 -0.00000000000E+00 -0.00000000000E+00 -0.38459199954E+03  0.38459199954E+03  0.00000000000E+00 0.  1.
         21    1    1    2  503  502 -0.69838163253E+02 -0.10468819594E+03 -0.65568385729E+02  0.14190208111E+03  0.00000000000E+00 0.  1.
          1    1    1    2  501    0  0.69838163253E+02  0.10468819594E+03 -0.26675973400E+03  0.29495379824E+03  0.00000000000E+00 0.  1.
<mgrwt>
<rscale>  2 0.12584509E+03</rscale>
<asrwt>0</asrwt>
<pdfrwt beam="1">  1       21 0.80405969E-02 0.12584509E+03</pdfrwt>
<pdfrwt beam="2">  1        1 0.59168000E-01 0.12584509E+03</pdfrwt>
<totfact> 0.82635279E+04</totfact>
</mgrwt>
</event>
<event>
 4    1  0.4926234E+003  0.1264761E+03  0.7546771E-02  0.1232780E+00
          2   -1    0    0  503    0 -0.00000000000E+00  0.00000000000E+00  0.23453009461E+04  0.23453009461E+04  0.00000000000E+00 0.  1.
         21   -1    0    0  501  502  0.00000000000E+00 -0.00000000000E+00 -0.95386307479E+01  0.95386307479E+01  0.00000000000E+00 0.  1.
         21    1    1    2  503  502 -0.84945874844E+02  0.93703798033E+02  0.53935867687E+03  0.55398915669E+03  0.00000000000E+00 0.  1.
          2    1    1    2  501    0  0.84945874844E+02 -0.93703798033E+02  0.17964036385E+04  0.18008504201E+04  0.00000000000E+00 0.  1.
<mgrwt>
<rscale>  2 0.12647610E+03</rscale>
<asrwt>0</asrwt>
<pdfrwt beam="2">  1       21 0.14674835E-02 0.12647610E+03</pdfrwt>
<pdfrwt beam="1">  1        2 0.36081507E+00 0.12647610E+03</pdfrwt>
<totfact> 0.13029909E+05</totfact>
</mgrwt>
</event>
<event>
 4    1  0.4926234E+003  0.1236839E+03  0.7546771E-02  0.1237141E+00
         21   -1    0    0  503  502  0.00000000000E+00  0.00000000000E+00  0.28728628073E+03  0.28728628073E+03  0.00000000000E+00 0.  1.
         -4   -1    0    0    0  501 -0.00000000000E+00 -0.00000000000E+00 -0.80362739199E+02  0.80362739199E+02  0.00000000000E+00 0.  1.
         21    1    1    2  503  501 -0.55912765217E+02 -0.11032439677E+03  0.21023704213E+03  0.24392073245E+03  0.00000000000E+00 0.  1.
         -4    1    1    2    0  502  0.55912765217E+02  0.11032439677E+03 -0.33135005909E+01  0.12372828748E+03  0.00000000000E+00 0.  1.
<mgrwt>
<rscale>  2 0.12368391E+03</rscale>
<asrwt>0</asrwt>
<pdfrwt beam="1">  1       21 0.44197889E-01 0.12368391E+03</pdfrwt>
<pdfrwt beam="2">  1       -4 0.12363498E-01 0.12368391E+03</pdfrwt>
<totfact> 0.10594379E+04</totfact>
</mgrwt>
</event>
<event>
 4    1  0.4926234E+003  0.1433949E+03  0.7546771E-02  0.1208833E+00
         21   -1    0    0  503  502  0.00000000000E+00  0.00000000000E+00  0.97817551950E+03  0.97817551950E+03  0.00000000000E+00 0. -1.
          1   -1    0    0  502    0 -0.00000000000E+00 -0.00000000000E+00 -0.73600258927E+02  0.73600258927E+02  0.00000000000E+00 0.  1.
         21    1    1    2  503  501 -0.99303425617E+02  0.10344524206E+03  0.89677693578E+03  0.90816901566E+03  0.00000000000E+00 0. -1.
          1    1    1    2  501    0  0.99303425617E+02 -0.10344524206E+03  0.77983247873E+01  0.14360676277E+03  0.00000000000E+00 0.  1.
<mgrwt>
<rscale>  2 0.14339487E+03</rscale>
<asrwt>0</asrwt>
<pdfrwt beam="1">  1       21 0.15048853E+00 0.14339487E+03</pdfrwt>
<pdfrwt beam="2">  1        1 0.11323117E-01 0.14339487E+03</pdfrwt>
<totfact> 0.17567128E+03</totfact>
</mgrwt>
</event>
<event>
 4    1  0.4926234E+003  0.2194974E+03  0.7546771E-02  0.1134258E+00
         21   -1    0    0  503  502  0.00000000000E+00  0.00000000000E+00  0.53634752612E+02  0.53634752612E+02  0.00000000000E+00 0. -1.
          2   -1    0    0  502    0 -0.00000000000E+00 -0.00000000000E+00 -0.17654290289E+04  0.17654290289E+04  0.00000000000E+00 0.  1.
         21    1    1    2  503  501  0.20961685759E+03  0.65114281047E+02 -0.21845709901E+03  0.30968145035E+03  0.00000000000E+00 0. -1.
          2    1    1    2  501    0 -0.20961685759E+03 -0.65114281047E+02 -0.14933371773E+04  0.15093823312E+04  0.00000000000E+00 0.  1.
<mgrwt>
<rscale>  2 0.21949737E+03</rscale>
<asrwt>0</asrwt>
<pdfrwt beam="1">  1       21 0.82515005E-02 0.21949737E+03</pdfrwt>
<pdfrwt beam="2">  1        2 0.27160446E+00 0.21949737E+03</pdfrwt>
<totfact> 0.14362325E+04</totfact>
</mgrwt>
</event>
<event>
 4    1  0.4926234E+003  0.4005708E+03  0.7546771E-02  0.1043582E+00
         21   -1    0    0  503  502  0.00000000000E+00  0.00000000000E+00  0.55297305251E+03  0.55297305251E+03  0.00000000000E+00 0.  1.
         -1   -1    0    0    0  501 -0.00000000000E+00 -0.00000000000E+00 -0.17449833527E+04  0.17449833527E+04  0.00000000000E+00 0. -1.
         21    1    1    2  503  501  0.20005768764E+03  0.34703583416E+03  0.45310135595E+03  0.60477912277E+03  0.00000000000E+00 0.  1.
         -1    1    1    2    0  502 -0.20005768764E+03 -0.34703583416E+03 -0.16451116562E+04  0.16931772825E+04  0.00000000000E+00 0. -1.
<mgrwt>
<rscale>  2 0.40057078E+03</rscale>
<asrwt>0</asrwt>
<pdfrwt beam="1">  1       21 0.85072779E-01 0.40057078E+03</pdfrwt>
<pdfrwt beam="2">  1       -1 0.26845897E+00 0.40057078E+03</pdfrwt>
<totfact> 0.60407080E+00</totfact>
</mgrwt>
</event>
<event>
 4    1  0.4926234E+003  0.1244710E+03  0.7546771E-02  0.1235898E+00
         21   -1    0    0  503  502  0.00000000000E+00  0.00000000000E+00  0.60012487144E+02  0.60012487144E+02  0.00000000000E+00 0.  1.
          2   -1    0    0  502    0 -0.00000000000E+00 -0.00000000000E+00 -0.61131305984E+03  0.61131305984E+03  0.00000000000E+00 0.  1.
         21    1    1    2  503  501  0.43854173221E+02  0.11648965613E+03 -0.20526630279E+02  0.12615217415E+03  0.00000000000E+00 0.  1.
          2    1    1    2  501    0 -0.43854173221E+02 -0.11648965613E+03 -0.53077394242E+03  0.54517337283E+03  0.00000000000E+00 0.  1.
<mgrwt>
<rscale>  2 0.12447099E+03</rscale>
<asrwt>0</asrwt>
<pdfrwt beam="1">  1       21 0.92326903E-02 0.12447099E+03</pdfrwt>
<pdfrwt beam="2">  1        2 0.94048164E-01 0.12447099E+03</pdfrwt>
<totfact> 0.57912360E+04</totfact>
</mgrwt>
</event>
<event>
 4    1  0.4926234E+003  0.1079683E+03  0.7546771E-02  0.1264379E+00
         21   -1    0    0  501  502  0.00000000000E+00  0.00000000000E+00  0.33933052566E+02  0.33933052566E+02  0.00000000000E+00 0. -1.
          4   -1    0    0  503    0 -0.00000000000E+00 -0.00000000000E+00 -0.34582194171E+03  0.34582194171E+03  0.00000000000E+00 0. -1.
         21    1    1    2  503  502  0.47386302098E+02  0.97013860664E+02 -0.14049944635E+03  0.17719267821E+03  0.00000000000E+00 0. -1.
          4    1    1    2  501    0 -0.47386302098E+02 -0.97013860664E+02 -0.17138944280E+03  0.20256231607E+03  0.00000000000E+00 0. -1.
<mgrwt>
<rscale>  2 0.10796829E+03</rscale>
<asrwt>0</asrwt>
<pdfrwt beam="1">  1       21 0.52204694E-02 0.10796829E+03</pdfrwt>
<pdfrwt beam="2">  1        4 0.53203378E-01 0.10796829E+03</pdfrwt>
<totfact> 0.33588661E+04</totfact>
</mgrwt>
</event>
<event>
 4    1  0.4926234E+003  0.1037099E+03  0.7546771E-02  0.1272682E+00
         21   -1    0    0  503  502  0.00000000000E+00  0.00000000000E+00  0.14351779315E+02  0.14351779315E+02  0.00000000000E+00 0.  1.
          2   -1    0    0  502    0 -0.00000000000E+00 -0.00000000000E+00 -0.84211952772E+03  0.84211952772E+03  0.00000000000E+00 0.  1.
         21    1    1    2  503  501  0.42833772457E+02 -0.94451157840E+02 -0.27181626350E+03  0.29092926010E+03  0.00000000000E+00 0.  1.
          2    1    1    2  501    0 -0.42833772457E+02  0.94451157840E+02 -0.55595148490E+03  0.56554204693E+03  0.00000000000E+00 0.  1.
<mgrwt>
<rscale>  2 0.10370995E+03</rscale>
<asrwt>0</asrwt>
<pdfrwt beam="1">  1       21 0.22079658E-02 0.10370995E+03</pdfrwt>
<pdfrwt beam="2">  1        2 0.12955687E+00 0.10370995E+03</pdfrwt>
<totfact> 0.42783985E+05</totfact>
</mgrwt>
</event>
<event>
 4    1  0.4926234E+003  0.2620402E+03  0.7546771E-02  0.1105924E+00
         21   -1    0    0  503  502  0.00000000000E+00  0.00000000000E+00  0.88763578751E+03  0.88763578751E+03  0.00000000000E+00 0. -1.
         -1   -1    0    0    0  501 -0.00000000000E+00 -0.00000000000E+00 -0.17949440472E+03  0.17949440472E+03  0.00000000000E+00 0. -1.
         21    1    1    2  503  501  0.81799675949E+02  0.24894549482E+03  0.75655955927E+03  0.80065436557E+03  0.00000000000E+00 0. -1.
         -1    1    1    2    0  502 -0.81799675949E+02 -0.24894549482E+03 -0.48418176482E+02  0.26647582666E+03  0.00000000000E+00 0. -1.
<mgrwt>
<rscale>  2 0.26204016E+03</rscale>
<asrwt>0</asrwt>
<pdfrwt beam="1">  1       21 0.13655935E+00 0.26204016E+03</pdfrwt>
<pdfrwt beam="2">  1       -1 0.27614524E-01 0.26204016E+03</pdfrwt>
<totfact> 0.39549135E+02</totfact>
</mgrwt>
</event>
<event>
 4    1  0.4926234E+003  0.1162098E+03  0.7546771E-02  0.1249484E+00
         21   -1    0    0  503  502  0.00000000000E+00  0.00000000000E+00  0.38138064731E+03  0.38138064731E+03  0.00000000000E+00 0.  1.
          2   -1    0    0  502    0 -0.00000000000E+00 -0.00000000000E+00 -0.71263802126E+02  0.71263802126E+02  0.00000000000E+00 0.  1.
         21    1    1    2  503  501 -0.89511352870E+01 -0.11586454983E+03  0.31558977803E+03  0.33630584997E+03  0.00000000000E+00 0.  1.
          2    1    1    2  501    0  0.89511352870E+01  0.11586454983E+03 -0.54729328508E+01  0.11633859946E+03  0.00000000000E+00 0.  1.
<mgrwt>
<rscale>  2 0.11620980E+03</rscale>
<asrwt>0</asrwt>
<pdfrwt beam="1">  1       21 0.58673945E-01 0.11620980E+03</pdfrwt>
<pdfrwt beam="2">  1        2 0.10963662E-01 0.11620980E+03</pdfrwt>
<totfact> 0.18925406E+04</totfact>
</mgrwt>
</event>
<event>
 4    1  0.4926234E+003  0.1042780E+03  0.7546771E-02  0.1271549E+00
          2   -1    0    0  503    0 -0.00000000000E+00  0.00000000000E+00  0.18507986591E+04  0.18507986591E+04  0.00000000000E+00 0.  1.
         21   -1    0    0  501  502  0.00000000000E+00 -0.00000000000E+00 -0.45409285572E+02  0.45409285572E+02  0.00000000000E+00 0.  1.
         21    1    1    2  503  502  0.10425591905E+03 -0.21476994461E+01  0.18049349621E+02  0.10582857975E+03  0.00000000000E+00 0.  1.
          2    1    1    2  501    0 -0.10425591905E+03  0.21476994461E+01  0.17873400239E+04  0.17903793650E+04  0.00000000000E+00 0.  1.
<mgrwt>
<rscale>  2 0.10427804E+03</rscale>
<asrwt>0</asrwt>
<pdfrwt beam="2">  1       21 0.69860454E-02 0.10427804E+03</pdfrwt>
<pdfrwt beam="1">  1        2 0.28473820E+00 0.10427804E+03</pdfrwt>
<totfact> 0.18094372E+04</totfact>
</mgrwt>
</event>
<event>
 4    1  0.4926234E+003  0.2309530E+03  0.7546771E-02  0.1125971E+00
          1   -1    0    0  502    0 -0.00000000000E+00  0.00000000000E+00  0.56525994184E+03  0.56525994184E+03  0.00000000000E+00 0.  1.
         21   -1    0    0  503  502  0.00000000000E+00 -0.00000000000E+00 -0.99878312296E+02  0.99878312296E+02  0.00000000000E+00 0.  1.
         21    1    1    2  503  501 -0.22860167819E+03  0.32872120800E+02  0.15453636760E+03  0.27788629420E+03  0.00000000000E+00 0.  1.
          1    1    1    2  501    0  0.22860167819E+03 -0.32872120800E+02  0.31084526194E+03  0.38725195993E+03  0.00000000000E+00 0.  1.
<mgrwt>
<rscale>  2 0.23095303E+03</rscale>
<asrwt>0</asrwt>
<pdfrwt beam="2">  1       21 0.15365895E-01 0.23095303E+03</pdfrwt>
<pdfrwt beam="1">  1        1 0.86963066E-01 0.23095303E+03</pdfrwt>
<totfact> 0.15789365E+04</totfact>
</mgrwt>
</event>
<event>
 4    1  0.4926234E+003  0.1162582E+03  0.7546771E-02  0.1249401E+00
         21   -1    0    0  501  502  0.00000000000E+00  0.00000000000E+00  0.89663753275E+02  0.89663753275E+02  0.00000000000E+00 0. -1.
         -4   -1    0    0    0  501 -0.00000000000E+00 -0.00000000000E+00 -0.10592062201E+04  0.10592062201E+04  0.00000000000E+00 0.  1.
         21    1    1    2  503  502  0.71126565498E+02 -0.91961853146E+02  0.47220474322E+02  0.12548204632E+03  0.00000000000E+00 0. -1.
         -4    1    1    2    0  503 -0.71126565498E+02  0.91961853146E+02 -0.10167629411E+04  0.10233879271E+04  0.00000000000E+00 0.  1.
<mgrwt>
<rscale>  2 0.11625821E+03</rscale>
<asrwt>0</asrwt>
<pdfrwt beam="1">  1       21 0.13794423E-01 0.11625821E+03</pdfrwt>
<pdfrwt beam="2">  1       -4 0.16295481E+00 0.11625821E+03</pdfrwt>
<totfact> 0.48973618E+02</totfact>
</mgrwt>
</event>
<event>
 4    1  0.4926234E+003  0.1369821E+03  0.7546771E-02  0.1217448E+00
          2   -1    0    0  502    0 -0.00000000000E+00  0.00000000000E+00  0.63089021140E+03  0.63089021140E+03  0.00000000000E+00 0.  1.
         21   -1    0    0  503  502  0.00000000000E+00 -0.00000000000E+00 -0.66461569190E+02  0.66461569190E+02  0.00000000000E+00 0.  1.
         21    1    1    2  503  501  0.88354706384E+02 -0.10467821180E+03  0.23044727464E+02  0.13890695313E+03  0.00000000000E+00 0.  1.
          2    1    1    2  501    0 -0.88354706384E+02  0.10467821180E+03  0.54138391474E+03  0.55844482745E+03  0.00000000000E+00 0.  1.
<mgrwt>
<rscale>  2 0.13698205E+03</rscale>
<asrwt>0</asrwt>
<pdfrwt beam="2">  1       21 0.10224857E-01 0.13698205E+03</pdfrwt>
<pdfrwt beam="1">  1        2 0.97060029E-01 0.13698205E+03</pdfrwt>
<totfact> 0.46761618E+04</totfact>
</mgrwt>
</event>
<event>
 4    1  0.4926234E+003  0.1013554E+03  0.7546771E-02  0.1277471E+00
          1   -1    0    0  503    0 -0.00000000000E+00  0.00000000000E+00  0.59621674210E+03  0.59621674210E+03  0.00000000000E+00 0.  1.
         21   -1    0    0  501  502  0.00000000000E+00 -0.00000000000E+00 -0.19382989913E+02  0.19382989913E+02  0.00000000000E+00 0. -1.
         21    1    1    2  503  502  0.10042979919E+03  0.13666225434E+02  0.18583684418E+03  0.21167957610E+03  0.00000000000E+00 0. -1.
          1    1    1    2  501    0 -0.10042979919E+03 -0.13666225434E+02  0.39099690801E+03  0.40392015591E+03  0.00000000000E+00 0.  1.
<mgrwt>
<rscale>  2 0.10135537E+03</rscale>
<asrwt>0</asrwt>
<pdfrwt beam="2">  1       21 0.29819989E-02 0.10135537E+03</pdfrwt>
<pdfrwt beam="1">  1        1 0.91725639E-01 0.10135537E+03</pdfrwt>
<totfact> 0.24481913E+05</totfact>
</mgrwt>
</event>
<event>
 4    1  0.4926234E+003  0.1345179E+03  0.7546771E-02  0.1220902E+00
          2   -1    0    0  502    0 -0.00000000000E+00  0.00000000000E+00  0.13545589119E+04  0.13545589119E+04  0.00000000000E+00 0. -1.
         21   -1    0    0  503  502  0.00000000000E+00 -0.00000000000E+00 -0.40644267739E+02  0.40644267739E+02  0.00000000000E+00 0. -1.
         21    1    1    2  503  501  0.12878510184E+03  0.38851871790E+02  0.85380312122E+02  0.15932629443E+03  0.00000000000E+00 0. -1.
          2    1    1    2  501    0 -0.12878510184E+03 -0.38851871790E+02  0.12285343320E+04  0.12358768852E+04  0.00000000000E+00 0. -1.
<mgrwt>
<rscale>  2 0.13451792E+03</rscale>
<asrwt>0</asrwt>
<pdfrwt beam="2">  1       21 0.62529653E-02 0.13451792E+03</pdfrwt>
<pdfrwt beam="1">  1        2 0.20839364E+00 0.13451792E+03</pdfrwt>
<totfact> 0.38960303E+04</totfact>
</mgrwt>
</event>
<event>
 4    1  0.4926234E+003  0.1084810E+03  0.7546771E-02  0.1263409E+00
          1   -1    0    0  503    0 -0.00000000000E+00  0.00000000000E+00  0.63534953231E+03  0.63534953231E+03  0.00000000000E+00 0. -1.
         21   -1    0    0  501  502  0.00000000000E+00 -0.00000000000E+00 -0.62635919790E+02  0.62635919790E+02  0.00000000000E+00 0. -1.
         21    1    1    2  503  502 -0.32319733624E+02 -0.10355466212E+03 -0.65240626750E+01  0.10867702895E+03  0.00000000000E+00 0. -1.
          1    1    1    2  501    0  0.32319733624E+02  0.10355466212E+03  0.57923767520E+03  0.58930842315E+03  0.00000000000E+00 0. -1.
<mgrwt>
<rscale>  2 0.10848103E+03</rscale>
<asrwt>0</asrwt>
<pdfrwt beam="2">  1       21 0.96362958E-02 0.10848103E+03</pdfrwt>
<pdfrwt beam="1">  1        1 0.97746077E-01 0.10848103E+03</pdfrwt>
<totfact> 0.31396720E+04</totfact>
</mgrwt>
</event>
<event>
 4    1  0.4926234E+003  0.1213823E+03  0.7546771E-02  0.1240834E+00
          1   -1    0    0  503    0 -0.00000000000E+00  0.00000000000E+00  0.15063358797E+04  0.15063358797E+04  0.00000000000E+00 0. -1.
         21   -1    0    0  501  502  0.00000000000E+00 -0.00000000000E+00 -0.79186729282E+02  0.79186729282E+02  0.00000000000E+00 0.  1.
         21    1    1    2  503  502 -0.32862885198E+02  0.11684898665E+03 -0.28612727975E+02  0.12470903378E+03  0.00000000000E+00 0.  1.
          1    1    1    2  501    0  0.32862885198E+02 -0.11684898665E+03  0.14557618784E+04  0.14608135752E+04  0.00000000000E+00 0. -1.
<mgrwt>
<rscale>  2 0.12138227E+03</rscale>
<asrwt>0</asrwt>
<pdfrwt beam="2">  1       21 0.12182575E-01 0.12138227E+03</pdfrwt>
<pdfrwt beam="1">  1        1 0.23174396E+00 0.12138227E+03</pdfrwt>
<totfact> 0.47653960E+03</totfact>
</mgrwt>
</event>
<event>
 4    1  0.4926234E+003  0.1070311E+03  0.7546771E-02  0.1266169E+00
         21   -1    0    0  501  502  0.00000000000E+00  0.00000000000E+00  0.12939503917E+03  0.12939503917E+03  0.00000000000E+00 0. -1.
          2   -1    0    0  503    0 -0.00000000000E+00 -0.00000000000E+00 -0.43648478229E+03  0.43648478229E+03  0.00000000000E+00 0.  1.
         21    1    1    2  503  502  0.45827575402E+02 -0.96723758261E+02  0.99076199448E+02  0.14584836433E+03  0.00000000000E+00 0. -1.
          2    1    1    2  501    0 -0.45827575402E+02  0.96723758261E+02 -0.40616594256E+03  0.42003145713E+03  0.00000000000E+00 0.  1.
<mgrwt>
<rscale>  2 0.10703108E+03</rscale>
<asrwt>0</asrwt>
<pdfrwt beam="1">  1       21 0.19906929E-01 0.10703108E+03</pdfrwt>
<pdfrwt beam="2">  1        2 0.67151504E-01 0.10703108E+03</pdfrwt>
<totfact> 0.21282374E+04</totfact>
</mgrwt>
</event>
<event>
 4    1  0.4926234E+003  0.1293624E+03  0.7546771E-02  0.1228405E+00
          1   -1    0    0  502    0 -0.00000000000E+00  0.00000000000E+00  0.15824360596E+03  0.15824360596E+03  0.00000000000E+00 0. -1.
         21   -1    0    0  503  502  0.00000000000E+00 -0.00000000000E+00 -0.11197052346E+03  0.11197052346E+03  0.00000000000E+00 0.  1.
         21    1    1    2  503  501  0.10413438028E+03  0.76750688314E+02 -0.87022604164E+01  0.12965479802E+03  0.00000000000E+00 0.  1.
          1    1    1    2  501    0 -0.10413438028E+03 -0.76750688314E+02  0.54975342921E+02  0.14055933140E+03  0.00000000000E+00 0. -1.
<mgrwt>
<rscale>  2 0.12936243E+03</rscale>
<asrwt>0</asrwt>
<pdfrwt beam="2">  1       21 0.17226234E-01 0.12936243E+03</pdfrwt>
<pdfrwt beam="1">  1        1 0.24345170E-01 0.12936243E+03</pdfrwt>
<totfact> 0.64581446E+04</totfact>
</mgrwt>
</event>
<event>
 4    1  0.4926234E+003  0.1072496E+03  0.7546771E-02  0.1265750E+00
         21   -1    0    0  501  502  0.00000000000E+00  0.00000000000E+00  0.15226648182E+02  0.15226648182E+02  0.00000000000E+00 0. -1.
          2   -1    0    0  503    0 -0.00000000000E+00 -0.00000000000E+00 -0.84231587007E+03  0.84231587007E+03  0.00000000000E+00 0.  1.
         21    1    1    2  503  502 -0.79427440104E+02  0.72067775961E+02 -0.27582588573E+03  0.29594324087E+03  0.00000000000E+00 0. -1.
          2    1    1    2  501    0  0.79427440104E+02 -0.72067775961E+02 -0.55126333615E+03  0.56159927739E+03  0.00000000000E+00 0.  1.
<mgrwt>
<rscale>  2 0.10724963E+03</rscale>
<asrwt>0</asrwt>
<pdfrwt beam="1">  1       21 0.23425599E-02 0.10724963E+03</pdfrwt>
<pdfrwt beam="2">  1        2 0.12958713E+00 0.10724963E+03</pdfrwt>
<totfact> 0.38950123E+05</totfact>
</mgrwt>
</event>
<event>
 4    1  0.4926234E+003  0.1612727E+03  0.7546771E-02  0.1187267E+00
         21   -1    0    0  501  502  0.00000000000E+00  0.00000000000E+00  0.82557269057E+02  0.82557269057E+02  0.00000000000E+00 0. -1.
          1   -1    0    0  503    0 -0.00000000000E+00 -0.00000000000E+00 -0.11848765525E+04  0.11848765525E+04  0.00000000000E+00 0. -1.
         21    1    1    2  503  502  0.58716640895E+02 -0.15020395285E+03 -0.81875822830E+01  0.16148036374E+03  0.00000000000E+00 0. -1.
          1    1    1    2  501    0 -0.58716640895E+02  0.15020395285E+03 -0.10941317011E+04  0.11059534578E+04  0.00000000000E+00 0. -1.
<mgrwt>
<rscale>  2 0.16127266E+03</rscale>
<asrwt>0</asrwt>
<pdfrwt beam="1">  1       21 0.12701119E-01 0.16127266E+03</pdfrwt>
<pdfrwt beam="2">  1        1 0.18228869E+00 0.16127266E+03</pdfrwt>
<totfact> 0.71037480E+03</totfact>
</mgrwt>
</event>
<event>
 4    1  0.4926234E+003  0.1057287E+03  0.7546771E-02  0.1268691E+00
         21   -1    0    0  501  502  0.00000000000E+00  0.00000000000E+00  0.11420326267E+03  0.11420326267E+03  0.00000000000E+00 0.  1.
          2   -1    0    0  503    0 -0.00000000000E+00 -0.00000000000E+00 -0.31952910263E+03  0.31952910263E+03  0.00000000000E+00 0.  1.
         21    1    1    2  503  502  0.18709413305E+02  0.10406015469E+03  0.77957428074E+02  0.13136178490E+03  0.00000000000E+00 0.  1.
          2    1    1    2  501    0 -0.18709413305E+02 -0.10406015469E+03 -0.28328326804E+03  0.30237058040E+03  0.00000000000E+00 0.  1.
<mgrwt>
<rscale>  2 0.10572870E+03</rscale>
<asrwt>0</asrwt>
<pdfrwt beam="1">  1       21 0.17569733E-01 0.10572870E+03</pdfrwt>
<pdfrwt beam="2">  1        2 0.49158323E-01 0.10572870E+03</pdfrwt>
<totfact> 0.37178666E+04</totfact>
</mgrwt>
</event>
<event>
 4    1  0.4926234E+003  0.1028837E+03  0.7546771E-02  0.1274346E+00
         21   -1    0    0  503  502  0.00000000000E+00  0.00000000000E+00  0.91860914492E+02  0.91860914492E+02  0.00000000000E+00 0. -1.
         -3   -1    0    0    0  501 -0.00000000000E+00 -0.00000000000E+00 -0.12557982432E+04  0.12557982432E+04  0.00000000000E+00 0. -1.
         21    1    1    2  503  501  0.71919468543E+02 -0.73570701837E+02  0.60202689851E+02  0.11920328011E+03  0.00000000000E+00 0. -1.
         -3    1    1    2    0  502 -0.71919468543E+02  0.73570701837E+02 -0.12241400185E+04  0.12284558775E+04  0.00000000000E+00 0. -1.
<mgrwt>
<rscale>  2 0.10288371E+03</rscale>
<asrwt>0</asrwt>
<pdfrwt beam="1">  1       21 0.14132449E-01 0.10288371E+03</pdfrwt>
<pdfrwt beam="2">  1       -3 0.19319972E+00 0.10288371E+03</pdfrwt>
<totfact> 0.38740018E+02</totfact>
</mgrwt>
</event>
<event>
 4    1  0.4926234E+003  0.1346120E+03  0.7546771E-02  0.1220768E+00
          1   -1    0    0  503    0 -0.00000000000E+00  0.00000000000E+00  0.30339613835E+03  0.30339613835E+03  0.00000000000E+00 0. -1.
         21   -1    0    0  501  502  0.00000000000E+00 -0.00000000000E+00 -0.28996322576E+03  0.28996322576E+03  0.00000000000E+00 0. -1.
         21    1    1    2  503  502  0.11587672133E+03 -0.68505306601E+02 -0.25764910589E+03  0.29069477695E+03  0.00000000000E+00 0. -1.
          1    1    1    2  501    0 -0.11587672133E+03  0.68505306601E+02  0.27108201848E+03  0.30266458717E+03  0.00000000000E+00 0. -1.
<mgrwt>
<rscale>  2 0.13461200E+03</rscale>
<asrwt>0</asrwt>
<pdfrwt beam="2">  1       21 0.44609727E-01 0.13461200E+03</pdfrwt>
<pdfrwt beam="1">  1        1 0.46676329E-01 0.13461200E+03</pdfrwt>
<totfact> 0.46426245E+03</totfact>
</mgrwt>
</event>
<event>
 4    1  0.4926234E+003  0.1099531E+03  0.7546771E-02  0.1260657E+00
          2   -1    0    0  503    0 -0.00000000000E+00  0.00000000000E+00  0.58484495843E+03  0.58484495843E+03  0.00000000000E+00 0.  1.
         21   -1    0    0  501  502  0.00000000000E+00 -0.00000000000E+00 -0.21763705597E+02  0.21763705597E+02  0.00000000000E+00 0. -1.
         21    1    1    2  503  502 -0.35534580904E+02  0.10405275712E+03  0.21359774778E+03  0.24023671776E+03  0.00000000000E+00 0. -1.
          2    1    1    2  501    0  0.35534580904E+02 -0.10405275712E+03  0.34948350505E+03  0.36637194626E+03  0.00000000000E+00 0.  1.
<mgrwt>
<rscale>  2 0.10995309E+03</rscale>
<asrwt>0</asrwt>
<pdfrwt beam="2">  1       21 0.33482629E-02 0.10995309E+03</pdfrwt>
<pdfrwt beam="1">  1        2 0.89976135E-01 0.10995309E+03</pdfrwt>
<totfact> 0.33542376E+05</totfact>
</mgrwt>
</event>
<event>
 4    1  0.4926234E+003  0.1142090E+03  0.7546771E-02  0.1252968E+00
          2   -1    0    0  502    0 -0.00000000000E+00  0.00000000000E+00  0.52792100699E+03  0.52792100699E+03  0.00000000000E+00 0. -1.
         21   -1    0    0  503  502  0.00000000000E+00 -0.00000000000E+00 -0.98823829083E+02  0.98823829083E+02  0.00000000000E+00 0. -1.
         21    1    1    2  503  501 -0.88454227647E+02  0.72246392033E+02 -0.56836772705E+02  0.12757002109E+03  0.00000000000E+00 0. -1.
          2    1    1    2  501    0  0.88454227647E+02 -0.72246392033E+02  0.48593395061E+03  0.49917481498E+03  0.00000000000E+00 0. -1.
<mgrwt>
<rscale>  2 0.11420898E+03</rscale>
<asrwt>0</asrwt>
<pdfrwt beam="2">  1       21 0.15203666E-01 0.11420898E+03</pdfrwt>
<pdfrwt beam="1">  1        2 0.81218615E-01 0.11420898E+03</pdfrwt>
<totfact> 0.28257288E+04</totfact>
</mgrwt>
</event>
<event>
 4    1  0.4926234E+003  0.1090515E+03  0.7546771E-02  0.1262336E+00
         -4   -1    0    0    0  501 -0.00000000000E+00  0.00000000000E+00  0.14116697570E+03  0.14116697570E+03  0.00000000000E+00 0.  1.
         21   -1    0    0  501  502  0.00000000000E+00 -0.00000000000E+00 -0.37407917546E+03  0.37407917546E+03  0.00000000000E+00 0.  1.
         21    1    1    2  503  502 -0.95386802533E+02  0.52854493073E+02 -0.34322305432E+03  0.36013095472E+03  0.00000000000E+00 0.  1.
         -4    1    1    2    0  503  0.95386802533E+02 -0.52854493073E+02  0.11031085455E+03  0.15511519644E+03  0.00000000000E+00 0.  1.
<mgrwt>
<rscale>  2 0.10905155E+03</rscale>
<asrwt>0</asrwt>
<pdfrwt beam="2">  1       21 0.57550640E-01 0.10905155E+03</pdfrwt>
<pdfrwt beam="1">  1       -4 0.21717997E-01 0.10905155E+03</pdfrwt>
<totfact> 0.22675532E+03</totfact>
</mgrwt>
</event>
<event>
 4    1  0.4926234E+003  0.1168557E+03  0.7546771E-02  0.1248376E+00
         21   -1    0    0  503  502  0.00000000000E+00  0.00000000000E+00  0.16065438875E+02  0.16065438875E+02  0.00000000000E+00 0.  1.
          1   -1    0    0  502    0 -0.00000000000E+00 -0.00000000000E+00 -0.13349100220E+04  0.13349100220E+04  0.00000000000E+00 0.  1.
         21    1    1    2  503  501 -0.25132903420E+02  0.11412097423E+03 -0.25229316007E+03  0.27804154044E+03  0.00000000000E+00 0.  1.
          1    1    1    2  501    0  0.25132903420E+02 -0.11412097423E+03 -0.10665514230E+04  0.10729339204E+04  0.00000000000E+00 0.  1.
<mgrwt>
<rscale>  2 0.11685572E+03</rscale>
<asrwt>0</asrwt>
<pdfrwt beam="1">  1       21 0.24716048E-02 0.11685572E+03</pdfrwt>
<pdfrwt beam="2">  1        1 0.20537087E+00 0.11685572E+03</pdfrwt>
<totfact> 0.91216606E+04</totfact>
</mgrwt>
</event>
<event>
 4    1  0.4926234E+003  0.1804578E+03  0.7546771E-02  0.1167361E+00
         21   -1    0    0  501  502  0.00000000000E+00  0.00000000000E+00  0.39093866436E+02  0.39093866436E+02  0.00000000000E+00 0. -1.
          1   -1    0    0  503    0 -0.00000000000E+00 -0.00000000000E+00 -0.19401963557E+04  0.19401963557E+04  0.00000000000E+00 0. -1.
         21    1    1    2  503  502 -0.85579995797E+02  0.15887442038E+03 -0.20295030927E+03  0.27157659171E+03  0.00000000000E+00 0. -1.
          1    1    1    2  501    0  0.85579995797E+02 -0.15887442038E+03 -0.16981521800E+04  0.17077136304E+04  0.00000000000E+00 0. -1.
<mgrwt>
<rscale>  2 0.18045780E+03</rscale>
<asrwt>0</asrwt>
<pdfrwt beam="1">  1       21 0.60144418E-02 0.18045780E+03</pdfrwt>
<pdfrwt beam="2">  1        1 0.29849171E+00 0.18045780E+03</pdfrwt>
<totfact> 0.83273343E+03</totfact>
</mgrwt>
</event>
<event>
 4    1  0.4926234E+003  0.1282999E+03  0.7546771E-02  0.1230000E+00
         21   -1    0    0  503  502  0.00000000000E+00  0.00000000000E+00  0.33113797436E+03  0.33113797436E+03  0.00000000000E+00 0.  1.
          3   -1    0    0  502    0 -0.00000000000E+00 -0.00000000000E+00 -0.15021870777E+03  0.15021870777E+03  0.00000000000E+00 0.  1.
         21    1    1    2  503  501 -0.12013034026E+03  0.45050654980E+02  0.28732843547E+03  0.31467203561E+03  0.00000000000E+00 0.  1.
          3    1    1    2  501    0  0.12013034026E+03 -0.45050654980E+02 -0.10640916888E+03  0.16668464652E+03  0.00000000000E+00 0.  1.
<mgrwt>
<rscale>  2 0.12829988E+03</rscale>
<asrwt>0</asrwt>
<pdfrwt beam="1">  1       21 0.50944303E-01 0.12829988E+03</pdfrwt>
<pdfrwt beam="2">  1        3 0.23110571E-01 0.12829988E+03</pdfrwt>
<totfact> 0.31106196E+03</totfact>
</mgrwt>
</event>
<event>
 4    1  0.4926234E+003  0.1068174E+03  0.7546771E-02  0.1266580E+00
          2   -1    0    0  502    0 -0.00000000000E+00  0.00000000000E+00  0.95066908202E+02  0.95066908202E+02  0.00000000000E+00 0. -1.
         21   -1    0    0  503  502  0.00000000000E+00 -0.00000000000E+00 -0.44898122277E+03  0.44898122277E+03  0.00000000000E+00 0.  1.
         21    1    1    2  503  501  0.16885508154E+02 -0.10547434982E+03 -0.40980134062E+03  0.42349391688E+03  0.00000000000E+00 0.  1.
          2    1    1    2  501    0 -0.16885508154E+02  0.10547434982E+03  0.55887026049E+02  0.12055421410E+03  0.00000000000E+00 0. -1.
<mgrwt>
<rscale>  2 0.10681741E+03</rscale>
<asrwt>0</asrwt>
<pdfrwt beam="2">  1       21 0.69074033E-01 0.10681741E+03</pdfrwt>
<pdfrwt beam="1">  1        2 0.14625678E-01 0.10681741E+03</pdfrwt>
<totfact> 0.94973795E+03</totfact>
</mgrwt>
</event>
<event>
 4    1  0.4926234E+003  0.1305914E+03  0.7546771E-02  0.1226581E+00
         -1   -1    0    0    0  501 -0.00000000000E+00  0.00000000000E+00  0.97665072370E+03  0.97665072370E+03  0.00000000000E+00 0. -1.
         21   -1    0    0  503  502  0.00000000000E+00 -0.00000000000E+00 -0.38510122660E+02  0.38510122660E+02  0.00000000000E+00 0. -1.
         21    1    1    2  503  501 -0.10840321329E+03 -0.72820791347E+02  0.93815992550E+02  0.16079665656E+03  0.00000000000E+00 0. -1.
         -1    1    1    2    0  502  0.10840321329E+03  0.72820791347E+02  0.84432460849E+03  0.85436418980E+03  0.00000000000E+00 0. -1.
<mgrwt>
<rscale>  2 0.13059144E+03</rscale>
<asrwt>0</asrwt>
<pdfrwt beam="2">  1       21 0.59246350E-02 0.13059144E+03</pdfrwt>
<pdfrwt beam="1">  1       -1 0.15025394E+00 0.13059144E+03</pdfrwt>
<totfact> 0.72380986E+03</totfact>
</mgrwt>
</event>
<event>
 4    1  0.4926234E+003  0.1599246E+03  0.7546771E-02  0.1188782E+00
          2   -1    0    0  503    0 -0.00000000000E+00  0.00000000000E+00  0.20562337581E+04  0.20562337581E+04  0.00000000000E+00 0.  1.
         21   -1    0    0  501  502  0.00000000000E+00 -0.00000000000E+00 -0.23347476064E+02  0.23347476064E+02  0.00000000000E+00 0. -1.
         21    1    1    2  503  502  0.50880274798E+02 -0.15161484417E+03  0.30568191160E+03  0.34498883230E+03  0.00000000000E+00 0. -1.
          2    1    1    2  501    0 -0.50880274798E+02  0.15161484417E+03  0.17272043705E+04  0.17345924019E+04  0.00000000000E+00 0.  1.
<mgrwt>
<rscale>  2 0.15992456E+03</rscale>
<asrwt>0</asrwt>
<pdfrwt beam="2">  1       21 0.35919210E-02 0.15992456E+03</pdfrwt>
<pdfrwt beam="1">  1        2 0.31634351E+00 0.15992456E+03</pdfrwt>
<totfact> 0.42634687E+04</totfact>
</mgrwt>
</event>
<event>
 4    1  0.4926234E+003  0.1342573E+03  0.7546771E-02  0.1221272E+00
         21   -1    0    0  501  502  0.00000000000E+00  0.00000000000E+00  0.70773203179E+03  0.70773203179E+03  0.00000000000E+00 0.  1.
          1   -1    0    0  503    0 -0.00000000000E+00 -0.00000000000E+00 -0.25507668024E+02  0.25507668024E+02  0.00000000000E+00 0. -1.
         21    1    1    2  503  502  0.13385313993E+03  0.10409663019E+02  0.35543937503E+03  0.37995022500E+03  0.00000000000E+00 0.  1.
          1    1    1    2  501    0 -0.13385313993E+03 -0.10409663019E+02  0.32678498874E+03  0.35328947482E+03  0.00000000000E+00 0. -1.
<mgrwt>
<rscale>  2 0.13425731E+03</rscale>
<asrwt>0</asrwt>
<pdfrwt beam="1">  1       21 0.10888184E+00 0.13425731E+03</pdfrwt>
<pdfrwt beam="2">  1        1 0.39242572E-02 0.13425731E+03</pdfrwt>
<totfact> 0.16500404E+04</totfact>
</mgrwt>
</event>
<event>
 4    1  0.4926234E+003  0.1635817E+03  0.7546771E-02  0.1184711E+00
          3   -1    0    0  502    0 -0.00000000000E+00  0.00000000000E+00  0.18457064255E+04  0.18457064255E+04  0.00000000000E+00 0. -1.
         21   -1    0    0  503  502  0.00000000000E+00 -0.00000000000E+00 -0.21802069215E+02  0.21802069215E+02  0.00000000000E+00 0.  1.
         21    1    1    2  503  501  0.48536430491E+01  0.16350971591E+03  0.37148758496E+03  0.40590887010E+03  0.00000000000E+00 0.  1.
          3    1    1    2  501    0 -0.48536430491E+01 -0.16350971591E+03  0.14524167713E+04  0.14615996246E+04  0.00000000000E+00 0. -1.
<mgrwt>
<rscale>  2 0.16358174E+03</rscale>
<asrwt>0</asrwt>
<pdfrwt beam="2">  1       21 0.33541660E-02 0.16358174E+03</pdfrwt>
<pdfrwt beam="1">  1        3 0.28395471E+00 0.16358174E+03</pdfrwt>
<totfact> 0.14345980E+03</totfact>
</mgrwt>
</event>
<event>
 4    1  0.4926234E+003  0.1161485E+03  0.7546771E-02  0.1249589E+00
         21   -1    0    0  503  502  0.00000000000E+00  0.00000000000E+00  0.55044943034E+03  0.55044943034E+03  0.00000000000E+00 0. -1.
          4   -1    0    0  502    0 -0.00000000000E+00 -0.00000000000E+00 -0.32705398920E+02  0.32705398920E+02  0.00000000000E+00 0.  1.
         21    1    1    2  503  501  0.27685648159E+02  0.11280064184E+03  0.40484720571E+03  0.42117898795E+03  0.00000000000E+00 0. -1.
          4    1    1    2  501    0 -0.27685648159E+02 -0.11280064184E+03  0.11289682570E+03  0.16197584131E+03  0.00000000000E+00 0.  1.
<mgrwt>
<rscale>  2 0.11614853E+03</rscale>
<asrwt>0</asrwt>
<pdfrwt beam="1">  1       21 0.84684521E-01 0.11614853E+03</pdfrwt>
<pdfrwt beam="2">  1        4 0.50316002E-02 0.11614853E+03</pdfrwt>
<totfact> 0.11663379E+04</totfact>
</mgrwt>
</event>
<event>
 4    1  0.4926234E+003  0.1039017E+03  0.7546771E-02  0.1272299E+00
         21   -1    0    0  501  502  0.00000000000E+00  0.00000000000E+00  0.16527537673E+02  0.16527537673E+02  0.00000000000E+00 0. -1.
         -2   -1    0    0    0  501 -0.00000000000E+00 -0.00000000000E+00 -0.65626414869E+03  0.65626414869E+03  0.00000000000E+00 0. -1.
         21    1    1    2  503  502 -0.63724569067E+02  0.82065528620E+02 -0.29683320856E+03  0.31449248862E+03  0.00000000000E+00 0. -1.
         -2    1    1    2    0  503  0.63724569067E+02 -0.82065528620E+02 -0.34290340246E+03  0.35829919775E+03  0.00000000000E+00 0. -1.
<mgrwt>
<rscale>  2 0.10390174E+03</rscale>
<asrwt>0</asrwt>
<pdfrwt beam="1">  1       21 0.25426979E-02 0.10390174E+03</pdfrwt>
<pdfrwt beam="2">  1       -2 0.10096372E+00 0.10390174E+03</pdfrwt>
<totfact> 0.55439190E+04</totfact>
</mgrwt>
</event>
<event>
 4    1  0.4926234E+003  0.1020317E+03  0.7546771E-02  0.1276081E+00
         21   -1    0    0  503  502  0.00000000000E+00  0.00000000000E+00  0.78891614265E+03  0.78891614265E+03  0.00000000000E+00 0.  1.
         -2   -1    0    0    0  501 -0.00000000000E+00 -0.00000000000E+00 -0.42522773079E+02  0.42522773079E+02  0.00000000000E+00 0. -1.
         21    1    1    2  503  501  0.34952778650E+02 -0.95858088733E+02  0.71843766088E+03  0.72564670638E+03  0.00000000000E+00 0.  1.
         -2    1    1    2    0  502 -0.34952778650E+02  0.95858088733E+02  0.27955708696E+02  0.10579220935E+03  0.00000000000E+00 0. -1.
<mgrwt>
<rscale>  2 0.10203171E+03</rscale>
<asrwt>0</asrwt>
<pdfrwt beam="1">  1       21 0.12137170E+00 0.10203171E+03</pdfrwt>
<pdfrwt beam="2">  1       -2 0.65419656E-02 0.10203171E+03</pdfrwt>
<totfact> 0.53076472E+03</totfact>
</mgrwt>
</event>
<event>
 4    1  0.4926234E+003  0.1071725E+03  0.7546771E-02  0.1265897E+00
         21   -1    0    0  501  502  0.00000000000E+00  0.00000000000E+00  0.27007090269E+02  0.27007090269E+02  0.00000000000E+00 0. -1.
          2   -1    0    0  503    0 -0.00000000000E+00 -0.00000000000E+00 -0.28817779799E+04  0.28817779799E+04  0.00000000000E+00 0. -1.
         21    1    1    2  503  502 -0.32578541669E+02 -0.10210081764E+03 -0.84594527253E+02  0.13653634088E+03  0.00000000000E+00 0. -1.
          2    1    1    2  501    0  0.32578541669E+02  0.10210081764E+03 -0.27701763623E+04  0.27722487292E+04  0.00000000000E+00 0. -1.
<mgrwt>
<rscale>  2 0.10717247E+03</rscale>
<asrwt>0</asrwt>
<pdfrwt beam="1">  1       21 0.41549356E-02 0.10717247E+03</pdfrwt>
<pdfrwt beam="2">  1        2 0.44335060E+00 0.10717247E+03</pdfrwt>
<totfact> 0.12443707E+04</totfact>
</mgrwt>
</event>
<event>
 4    1  0.4926234E+003  0.1063113E+03  0.7546771E-02  0.1267557E+00
         21   -1    0    0  501  502  0.00000000000E+00  0.00000000000E+00  0.32610428046E+03  0.32610428046E+03  0.00000000000E+00 0. -1.
          3   -1    0    0  503    0 -0.00000000000E+00 -0.00000000000E+00 -0.44873184870E+02  0.44873184870E+02  0.00000000000E+00 0. -1.
         21    1    1    2  503  502  0.80100031648E+01 -0.10600910774E+03  0.22911676173E+03  0.25257985189E+03  0.00000000000E+00 0. -1.
          3    1    1    2  501    0 -0.80100031648E+01  0.10600910774E+03  0.52114333864E+02  0.11839761344E+03  0.00000000000E+00 0. -1.
<mgrwt>
<rscale>  2 0.10631129E+03</rscale>
<asrwt>0</asrwt>
<pdfrwt beam="1">  1       21 0.50169888E-01 0.10631129E+03</pdfrwt>
<pdfrwt beam="2">  1        3 0.69035671E-02 0.10631129E+03</pdfrwt>
<totfact> 0.24315163E+04</totfact>
</mgrwt>
</event>
<event>
 4    1  0.4926234E+003  0.1143309E+03  0.7546771E-02  0.1252754E+00
          2   -1    0    0  503    0 -0.00000000000E+00  0.00000000000E+00  0.11959346509E+04  0.11959346509E+04  0.00000000000E+00 0. -1.
         21   -1    0    0  501  502  0.00000000000E+00 -0.00000000000E+00 -0.33670513894E+02  0.33670513894E+02  0.00000000000E+00 0.  1.
         21    1    1    2  503  502  0.91182889975E+02 -0.68972691727E+02  0.75876555890E+02  0.13721808686E+03  0.00000000000E+00 0.  1.
          2    1    1    2  501    0 -0.91182889975E+02  0.68972691727E+02  0.10863875812E+04  0.10923870780E+04  0.00000000000E+00 0. -1.
<mgrwt>
<rscale>  2 0.11433089E+03</rscale>
<asrwt>0</asrwt>
<pdfrwt beam="2">  1       21 0.51800800E-02 0.11433089E+03</pdfrwt>
<pdfrwt beam="1">  1        2 0.18398991E+00 0.11433089E+03</pdfrwt>
<totfact> 0.65362080E+04</totfact>
</mgrwt>
</event>
<event>
 4    1  0.4926234E+003  0.1081207E+03  0.7546771E-02  0.1264090E+00
          2   -1    0    0  503    0 -0.00000000000E+00  0.00000000000E+00  0.39986646045E+03  0.39986646045E+03  0.00000000000E+00 0.  1.
         21   -1    0    0  501  502  0.00000000000E+00 -0.00000000000E+00 -0.56192360529E+03  0.56192360529E+03  0.00000000000E+00 0.  1.
         21    1    1    2  503  502  0.98639258089E+02 -0.44276266503E+02 -0.54924684854E+03  0.55978763084E+03  0.00000000000E+00 0.  1.
          2    1    1    2  501    0 -0.98639258089E+02  0.44276266503E+02  0.38718970370E+03  0.40200243490E+03  0.00000000000E+00 0.  1.
<mgrwt>
<rscale>  2 0.10812072E+03</rscale>
<asrwt>0</asrwt>
<pdfrwt beam="2">  1       21 0.86449786E-01 0.10812072E+03</pdfrwt>
<pdfrwt beam="1">  1        2 0.61517917E-01 0.10812072E+03</pdfrwt>
<totfact> 0.12117438E+03</totfact>
</mgrwt>
</event>
<event>
 4    1  0.4926234E+003  0.1649976E+03  0.7546771E-02  0.1183167E+00
         21   -1    0    0  501  502  0.00000000000E+00  0.00000000000E+00  0.61662556782E+02  0.61662556782E+02  0.00000000000E+00 0.  1.
          2   -1    0    0  503    0 -0.00000000000E+00 -0.00000000000E+00 -0.10013033397E+04  0.10013033397E+04  0.00000000000E+00 0. -1.
         21    1    1    2  503  502 -0.48213354622E+02  0.15779637047E+03 -0.72424871407E+02  0.18019318549E+03  0.00000000000E+00 0.  1.
          2    1    1    2  501    0  0.48213354622E+02 -0.15779637047E+03 -0.86721591149E+03  0.88277271098E+03  0.00000000000E+00 0. -1.
<mgrwt>
<rscale>  2 0.16499764E+03</rscale>
<asrwt>0</asrwt>
<pdfrwt beam="1">  1       21 0.94865470E-02 0.16499764E+03</pdfrwt>
<pdfrwt beam="2">  1        2 0.15404667E+00 0.16499764E+03</pdfrwt>
<totfact> 0.29818749E+04</totfact>
</mgrwt>
</event>
<event>
 4    1  0.4926234E+003  0.1123110E+03  0.7546771E-02  0.1256349E+00
          1   -1    0    0  503    0 -0.00000000000E+00  0.00000000000E+00  0.11287420027E+04  0.11287420027E+04  0.00000000000E+00 0.  1.
         21   -1    0    0  501  502  0.00000000000E+00 -0.00000000000E+00 -0.11745082969E+02  0.11745082969E+02  0.00000000000E+00 0.  1.
         21    1    1    2  503  502 -0.23376908809E+02 -0.10985115102E+03  0.43287232999E+03  0.44720488516E+03  0.00000000000E+00 0.  1.
          1    1    1    2  501    0  0.23376908809E+02  0.10985115102E+03  0.68412458974E+03  0.69328220050E+03  0.00000000000E+00 0.  1.
<mgrwt>
<rscale>  2 0.11231098E+03</rscale>
<asrwt>0</asrwt>
<pdfrwt beam="2">  1       21 0.18069367E-02 0.11231098E+03</pdfrwt>
<pdfrwt beam="1">  1        1 0.17365253E+00 0.11231098E+03</pdfrwt>
<totfact> 0.20809528E+05</totfact>
</mgrwt>
</event>
<event>
 4    1  0.4926234E+003  0.1123174E+03  0.7546771E-02  0.1256338E+00
          3   -1    0    0  503    0 -0.00000000000E+00  0.00000000000E+00  0.43787844666E+02  0.43787844666E+02  0.00000000000E+00 0.  1.
         21   -1    0    0  501  502  0.00000000000E+00 -0.00000000000E+00 -0.11922240634E+04  0.11922240634E+04  0.00000000000E+00 0.  1.
         21    1    1    2  503  502 -0.97954801332E+02 -0.54954977408E+02 -0.11123989097E+04  0.11180547960E+04  0.00000000000E+00 0.  1.
          3    1    1    2  501    0  0.97954801332E+02  0.54954977408E+02 -0.36037309100E+02  0.11795711209E+03  0.00000000000E+00 0.  1.
<mgrwt>
<rscale>  2 0.11231737E+03</rscale>
<asrwt>0</asrwt>
<pdfrwt beam="2">  1       21 0.18341906E+00 0.11231737E+03</pdfrwt>
<pdfrwt beam="1">  1        3 0.67365925E-02 0.11231737E+03</pdfrwt>
<totfact> 0.12250896E+03</totfact>
</mgrwt>
</event>
<event>
 4    1  0.4926234E+003  0.2112902E+03  0.7546771E-02  0.1140548E+00
         21   -1    0    0  503  502  0.00000000000E+00  0.00000000000E+00  0.37233452209E+02  0.37233452209E+02  0.00000000000E+00 0. -1.
          2   -1    0    0  502    0 -0.00000000000E+00 -0.00000000000E+00 -0.15809049055E+04  0.15809049055E+04  0.00000000000E+00 0. -1.
         21    1    1    2  503  501 -0.17613348184E+03 -0.11670708934E+03 -0.37418603969E+03  0.42971937404E+03  0.00000000000E+00 0. -1.
          2    1    1    2  501    0  0.17613348184E+03  0.11670708934E+03 -0.11694854136E+04  0.11884189837E+04  0.00000000000E+00 0. -1.
<mgrwt>
<rscale>  2 0.21129020E+03</rscale>
<asrwt>0</asrwt>
<pdfrwt beam="1">  1       21 0.57282237E-02 0.21129020E+03</pdfrwt>
<pdfrwt beam="2">  1        2 0.24321613E+00 0.21129020E+03</pdfrwt>
<totfact> 0.33808412E+04</totfact>
</mgrwt>
</event>
<event>
 4    1  0.4926234E+003  0.1085145E+03  0.7546771E-02  0.1263346E+00
         21   -1    0    0  501  502  0.00000000000E+00  0.00000000000E+00  0.66356580661E+02  0.66356580661E+02  0.00000000000E+00 0. -1.
          1   -1    0    0  503    0 -0.00000000000E+00 -0.00000000000E+00 -0.66710419939E+03  0.66710419939E+03  0.00000000000E+00 0. -1.
         21    1    1    2  503  502  0.74151125351E+02 -0.79227564782E+02  0.13815924247E+02  0.10939047570E+03  0.00000000000E+00 0. -1.
          1    1    1    2  501    0 -0.74151125351E+02  0.79227564782E+02 -0.61456354297E+03  0.62407030434E+03  0.00000000000E+00 0. -1.
<mgrwt>
<rscale>  2 0.10851450E+03</rscale>
<asrwt>0</asrwt>
<pdfrwt beam="1">  1       21 0.10208705E-01 0.10851450E+03</pdfrwt>
<pdfrwt beam="2">  1        1 0.10263141E+00 0.10851450E+03</pdfrwt>
<totfact> 0.26544403E+04</totfact>
</mgrwt>
</event>
<event>
 4    1  0.4926234E+003  0.1633944E+03  0.7546771E-02  0.1184917E+00
         21   -1    0    0  503  502  0.00000000000E+00  0.00000000000E+00  0.37333108204E+03  0.37333108204E+03  0.00000000000E+00 0.  1.
         -2   -1    0    0    0  501 -0.00000000000E+00 -0.00000000000E+00 -0.79503541180E+02  0.79503541180E+02  0.00000000000E+00 0.  1.
         21    1    1    2  503  501 -0.16335758662E+03  0.34692735480E+01  0.21869741500E+03  0.27299504811E+03  0.00000000000E+00 0.  1.
         -2    1    1    2    0  502  0.16335758662E+03 -0.34692735480E+01  0.75130125863E+02  0.17983957511E+03  0.00000000000E+00 0.  1.
<mgrwt>
<rscale>  2 0.16339442E+03</rscale>
<asrwt>0</asrwt>
<pdfrwt beam="1">  1       21 0.57435550E-01 0.16339442E+03</pdfrwt>
<pdfrwt beam="2">  1       -2 0.12231314E-01 0.16339442E+03</pdfrwt>
<totfact> 0.10772636E+04</totfact>
</mgrwt>
</event>
<event>
 4    1  0.4926234E+003  0.1202503E+03  0.7546771E-02  0.1242685E+00
          2   -1    0    0  503    0 -0.00000000000E+00  0.00000000000E+00  0.13426217782E+04  0.13426217782E+04  0.00000000000E+00 0. -1.
         21   -1    0    0  501  502  0.00000000000E+00 -0.00000000000E+00 -0.16021614569E+02  0.16021614569E+02  0.00000000000E+00 0. -1.
         21    1    1    2  503  502  0.11985651552E+03 -0.97232716376E+01  0.27437495405E+03  0.29956926033E+03  0.00000000000E+00 0. -1.
          2    1    1    2  501    0 -0.11985651552E+03  0.97232716376E+01  0.10522252096E+04  0.10590741324E+04  0.00000000000E+00 0. -1.
<mgrwt>
<rscale>  2 0.12025027E+03</rscale>
<asrwt>0</asrwt>
<pdfrwt beam="2">  1       21 0.24648648E-02 0.12025027E+03</pdfrwt>
<pdfrwt beam="1">  1        2 0.20655711E+00 0.12025027E+03</pdfrwt>
<totfact> 0.18549469E+05</totfact>
</mgrwt>
</event>
<event>
 4    1  0.4926234E+003  0.2386851E+03  0.7546771E-02  0.1120672E+00
         21   -1    0    0  501  502  0.00000000000E+00  0.00000000000E+00  0.66178259921E+02  0.66178259921E+02  0.00000000000E+00 0.  1.
          2   -1    0    0  503    0 -0.00000000000E+00 -0.00000000000E+00 -0.34555073498E+04  0.34555073498E+04  0.00000000000E+00 0. -1.
         21    1    1    2  503  502 -0.23552335596E+03 -0.38721267191E+02 -0.16884428517E+03  0.29236788533E+03  0.00000000000E+00 0.  1.
          2    1    1    2  501    0  0.23552335596E+03  0.38721267191E+02 -0.32204848047E+04  0.32293177244E+04  0.00000000000E+00 0. -1.
<mgrwt>
<rscale>  2 0.23868512E+03</rscale>
<asrwt>0</asrwt>
<pdfrwt beam="1">  1       21 0.10181271E-01 0.23868512E+03</pdfrwt>
<pdfrwt beam="2">  1        2 0.53161652E+00 0.23868512E+03</pdfrwt>
<totfact> 0.10946198E+03</totfact>
</mgrwt>
</event>
<event>
 4    1  0.4926234E+003  0.1142322E+03  0.7546771E-02  0.1252927E+00
          2   -1    0    0  503    0 -0.00000000000E+00  0.00000000000E+00  0.15056253058E+04  0.15056253058E+04  0.00000000000E+00 0. -1.
         21   -1    0    0  501  502  0.00000000000E+00 -0.00000000000E+00 -0.56583015639E+02  0.56583015639E+02  0.00000000000E+00 0. -1.
         21    1    1    2  503  502  0.61415512873E+02  0.96317899368E+02  0.57228928409E+01  0.11437549765E+03  0.00000000000E+00 0. -1.
          2    1    1    2  501    0 -0.61415512873E+02 -0.96317899368E+02  0.14433193973E+04  0.14478328238E+04  0.00000000000E+00 0. -1.
<mgrwt>
<rscale>  2 0.11423223E+03</rscale>
<asrwt>0</asrwt>
<pdfrwt beam="2">  1       21 0.87050805E-02 0.11423223E+03</pdfrwt>
<pdfrwt beam="1">  1        2 0.23163463E+00 0.11423223E+03</pdfrwt>
<totfact> 0.18512430E+04</totfact>
</mgrwt>
</event>
<event>
 4    1  0.4926234E+003  0.1160053E+03  0.7546771E-02  0.1249836E+00
         21   -1    0    0  503  502  0.00000000000E+00  0.00000000000E+00  0.47177919754E+03  0.47177919754E+03  0.00000000000E+00 0.  1.
         -3   -1    0    0    0  501 -0.00000000000E+00 -0.00000000000E+00 -0.66410758404E+02  0.66410758404E+02  0.00000000000E+00 0. -1.
         21    1    1    2  503  501 -0.12387826375E+02  0.11534200367E+03  0.40593283312E+03  0.42218325530E+03  0.00000000000E+00 0.  1.
         -3    1    1    2    0  502  0.12387826375E+02 -0.11534200367E+03 -0.56439398352E+00  0.11600670064E+03  0.00000000000E+00 0. -1.
<mgrwt>
<rscale>  2 0.11600533E+03</rscale>
<asrwt>0</asrwt>
<pdfrwt beam="1">  1       21 0.72581413E-01 0.11600533E+03</pdfrwt>
<pdfrwt beam="2">  1       -3 0.10217040E-01 0.11600533E+03</pdfrwt>
<totfact> 0.59138090E+03</totfact>
</mgrwt>
</event>
<event>
 4    1  0.4926234E+003  0.1108661E+03  0.7546771E-02  0.1258974E+00
         21   -1    0    0  501  502  0.00000000000E+00  0.00000000000E+00  0.54883921094E+02  0.54883921094E+02  0.00000000000E+00 0. -1.
          1   -1    0    0  503    0 -0.00000000000E+00 -0.00000000000E+00 -0.31468828261E+03  0.31468828261E+03  0.00000000000E+00 0.  1.
         21    1    1    2  503  502 -0.10250362612E+03  0.42240914691E+02 -0.30676792266E+02  0.11503196871E+03  0.00000000000E+00 0. -1.
          1    1    1    2  501    0  0.10250362612E+03 -0.42240914691E+02 -0.22912756925E+03  0.25454023499E+03  0.00000000000E+00 0.  1.
<mgrwt>
<rscale>  2 0.11086608E+03</rscale>
<asrwt>0</asrwt>
<pdfrwt beam="1">  1       21 0.84436801E-02 0.11086608E+03</pdfrwt>
<pdfrwt beam="2">  1        1 0.48413582E-01 0.11086608E+03</pdfrwt>
<totfact> 0.97047936E+04</totfact>
</mgrwt>
</event>
<event>
 4    1  0.4926234E+003  0.1165129E+03  0.7546771E-02  0.1248963E+00
         21   -1    0    0  503  502  0.00000000000E+00  0.00000000000E+00  0.51169873837E+02  0.51169873837E+02  0.00000000000E+00 0.  1.
          1   -1    0    0  502    0 -0.00000000000E+00 -0.00000000000E+00 -0.27237527670E+03  0.27237527670E+03  0.00000000000E+00 0.  1.
         21    1    1    2  503  501  0.89194467845E+02  0.74964042702E+02 -0.84525752236E+02  0.14394395987E+03  0.00000000000E+00 0.  1.
          1    1    1    2  501    0 -0.89194467845E+02 -0.74964042702E+02 -0.13667965063E+03  0.17960119066E+03  0.00000000000E+00 0.  1.
<mgrwt>
<rscale>  2 0.11651292E+03</rscale>
<asrwt>0</asrwt>
<pdfrwt beam="1">  1       21 0.78722881E-02 0.11651292E+03</pdfrwt>
<pdfrwt beam="2">  1        1 0.41903890E-01 0.11651292E+03</pdfrwt>
<totfact> 0.13101385E+05</totfact>
</mgrwt>
</event>
<event>
 4    1  0.4926234E+003  0.1403243E+03  0.7546771E-02  0.1212893E+00
         21   -1    0    0  501  502  0.00000000000E+00  0.00000000000E+00  0.66504696132E+02  0.66504696132E+02  0.00000000000E+00 0.  1.
          2   -1    0    0  503    0 -0.00000000000E+00 -0.00000000000E+00 -0.90407590768E+03  0.90407590768E+03  0.00000000000E+00 0.  1.
         21    1    1    2  503  502 -0.10859911756E+03  0.88865866945E+02 -0.20817363204E+02  0.14186004812E+03  0.00000000000E+00 0.  1.
          2    1    1    2  501    0  0.10859911756E+03 -0.88865866945E+02 -0.81675384835E+03  0.82872055570E+03  0.00000000000E+00 0.  1.
<mgrwt>
<rscale>  2 0.14032431E+03</rscale>
<asrwt>0</asrwt>
<pdfrwt beam="1">  1       21 0.10231492E-01 0.14032431E+03</pdfrwt>
<pdfrwt beam="2">  1        2 0.13908860E+00 0.14032431E+03</pdfrwt>
<totfact> 0.30074574E+04</totfact>
</mgrwt>
</event>
<event>
 4    1  0.4926234E+003  0.1055001E+03  0.7546771E-02  0.1269137E+00
         21   -1    0    0  501  502  0.00000000000E+00  0.00000000000E+00  0.13420414360E+03  0.13420414360E+03  0.00000000000E+00 0.  1.
          2   -1    0    0  503    0 -0.00000000000E+00 -0.00000000000E+00 -0.14526982223E+03  0.14526982223E+03  0.00000000000E+00 0. -1.
         21    1    1    2  503  502 -0.32450079258E+02 -0.10038554681E+03  0.86002301507E+02  0.13611267949E+03  0.00000000000E+00 0.  1.
          2    1    1    2  501    0  0.32450079258E+02  0.10038554681E+03 -0.97067980137E+02  0.14336128634E+03  0.00000000000E+00 0. -1.
<mgrwt>
<rscale>  2 0.10550007E+03</rscale>
<asrwt>0</asrwt>
<pdfrwt beam="1">  1       21 0.20646791E-01 0.10550007E+03</pdfrwt>
<pdfrwt beam="2">  1        2 0.22349203E-01 0.10550007E+03</pdfrwt>
<totfact> 0.64332750E+04</totfact>
</mgrwt>
</event>
<event>
 4    1  0.4926234E+003  0.1625135E+03  0.7546771E-02  0.1185888E+00
          2   -1    0    0  502    0 -0.00000000000E+00  0.00000000000E+00  0.82159642434E+03  0.82159642434E+03  0.00000000000E+00 0.  1.
         21   -1    0    0  503  502  0.00000000000E+00 -0.00000000000E+00 -0.60147266674E+02  0.60147266674E+02  0.00000000000E+00 0. -1.
         21    1    1    2  503  501 -0.15864280738E+03 -0.35257788177E+02  0.79911367512E+02  0.18109798071E+03  0.00000000000E+00 0. -1.
          2    1    1    2  501    0  0.15864280738E+03  0.35257788177E+02  0.68153779015E+03  0.70064571030E+03  0.00000000000E+00 0.  1.
<mgrwt>
<rscale>  2 0.16251354E+03</rscale>
<asrwt>0</asrwt>
<pdfrwt beam="2">  1       21 0.92534262E-02 0.16251354E+03</pdfrwt>
<pdfrwt beam="1">  1        2 0.12639944E+00 0.16251354E+03</pdfrwt>
<totfact> 0.40485390E+04</totfact>
</mgrwt>
</event>
<event>
 4    1  0.4926234E+003  0.1070177E+03  0.7546771E-02  0.1266194E+00
         21   -1    0    0  503  502  0.00000000000E+00  0.00000000000E+00  0.10316129236E+03  0.10316129236E+03  0.00000000000E+00 0.  1.
          2   -1    0    0  502    0 -0.00000000000E+00 -0.00000000000E+00 -0.16739574761E+04  0.16739574761E+04  0.00000000000E+00 0.  1.
         21    1    1    2  503  501 -0.64608860398E+02  0.85314083020E+02  0.73190823562E+02  0.12965220498E+03  0.00000000000E+00 0.  1.
          2    1    1    2  501    0  0.64608860398E+02 -0.85314083020E+02 -0.16439870073E+04  0.16474665635E+04  0.00000000000E+00 0.  1.
<mgrwt>
<rscale>  2 0.10701774E+03</rscale>
<asrwt>0</asrwt>
<pdfrwt beam="1">  1       21 0.15870968E-01 0.10701774E+03</pdfrwt>
<pdfrwt beam="2">  1        2 0.25753193E+00 0.10701774E+03</pdfrwt>
<totfact> 0.52877533E+03</totfact>
</mgrwt>
</event>
<event>
 4    1  0.4926234E+003  0.1066439E+03  0.7546771E-02  0.1266914E+00
         21   -1    0    0  501  502  0.00000000000E+00  0.00000000000E+00  0.10308091346E+03  0.10308091346E+03  0.00000000000E+00 0.  1.
          3   -1    0    0  503    0 -0.00000000000E+00 -0.00000000000E+00 -0.45550923051E+03  0.45550923051E+03  0.00000000000E+00 0. -1.
         21    1    1    2  503  502 -0.10617178708E+03 -0.10023149498E+02  0.66914997350E+02  0.12589888311E+03  0.00000000000E+00 0.  1.
          3    1    1    2  501    0  0.10617178708E+03  0.10023149498E+02 -0.41934331439E+03  0.43269126086E+03  0.00000000000E+00 0. -1.
<mgrwt>
<rscale>  2 0.10664386E+03</rscale>
<asrwt>0</asrwt>
<pdfrwt beam="1">  1       21 0.15858602E-01 0.10664386E+03</pdfrwt>
<pdfrwt beam="2">  1        3 0.70078343E-01 0.10664386E+03</pdfrwt>
<totfact> 0.34152526E+03</totfact>
</mgrwt>
</event>
<event>
 4    1  0.4926234E+003  0.2429553E+03  0.7546771E-02  0.1117840E+00
          2   -1    0    0  503    0 -0.00000000000E+00  0.00000000000E+00  0.18624627083E+04  0.18624627083E+04  0.00000000000E+00 0. -1.
         21   -1    0    0  501  502  0.00000000000E+00 -0.00000000000E+00 -0.48455281606E+02  0.48455281606E+02  0.00000000000E+00 0.  1.
         21    1    1    2  503  502 -0.28973946344E+02 -0.24122149622E+03  0.34504270091E+03  0.42199735219E+03  0.00000000000E+00 0.  1.
          2    1    1    2  501    0  0.28973946344E+02  0.24122149622E+03  0.14689647258E+04  0.14889206377E+04  0.00000000000E+00 0. -1.
<mgrwt>
<rscale>  2 0.24295535E+03</rscale>
<asrwt>0</asrwt>
<pdfrwt beam="2">  1       21 0.74546601E-02 0.24295535E+03</pdfrwt>
<pdfrwt beam="1">  1        2 0.28653267E+00 0.24295535E+03</pdfrwt>
<totfact> 0.15146712E+04</totfact>
</mgrwt>
</event>
<event>
 4    1  0.4926234E+003  0.1015638E+03  0.7546771E-02  0.1277041E+00
          4   -1    0    0  503    0 -0.00000000000E+00  0.00000000000E+00  0.10391777162E+04  0.10391777162E+04  0.00000000000E+00 0.  1.
         21   -1    0    0  501  502  0.00000000000E+00 -0.00000000000E+00 -0.10039182458E+02  0.10039182458E+02  0.00000000000E+00 0. -1.
         21    1    1    2  503  502 -0.19197550538E+02 -0.99732953603E+02  0.45894483189E+03  0.47004847271E+03  0.00000000000E+00 0. -1.
          4    1    1    2  501    0  0.19197550538E+02  0.99732953603E+02  0.57019370189E+03  0.57916842598E+03  0.00000000000E+00 0.  1.
<mgrwt>
<rscale>  2 0.10156381E+03</rscale>
<asrwt>0</asrwt>
<pdfrwt beam="2">  1       21 0.15444904E-02 0.10156381E+03</pdfrwt>
<pdfrwt beam="1">  1        4 0.15987341E+00 0.10156381E+03</pdfrwt>
<totfact> 0.19863265E+04</totfact>
</mgrwt>
</event>
<event>
 4    1  0.4926234E+003  0.1010513E+03  0.7546771E-02  0.1278101E+00
         21   -1    0    0  501  502  0.00000000000E+00  0.00000000000E+00  0.29845573426E+02  0.29845573426E+02  0.00000000000E+00 0. -1.
          2   -1    0    0  503    0 -0.00000000000E+00 -0.00000000000E+00 -0.24436636726E+04  0.24436636726E+04  0.00000000000E+00 0.  1.
         21    1    1    2  503  502 -0.10078412848E+03  0.73434235523E+01 -0.59997403664E+02  0.11752044448E+03  0.00000000000E+00 0. -1.
          2    1    1    2  501    0  0.10078412848E+03 -0.73434235523E+01 -0.23538206955E+04  0.23559888016E+04  0.00000000000E+00 0.  1.
<mgrwt>
<rscale>  2 0.10105131E+03</rscale>
<asrwt>0</asrwt>
<pdfrwt beam="1">  1       21 0.45916274E-02 0.10105131E+03</pdfrwt>
<pdfrwt beam="2">  1        2 0.37594820E+00 0.10105131E+03</pdfrwt>
<totfact> 0.18270261E+04</totfact>
</mgrwt>
</event>
<event>
 4    1  0.4926234E+003  0.1276260E+03  0.7546771E-02  0.1231022E+00
         -1   -1    0    0    0  501 -0.00000000000E+00  0.00000000000E+00  0.46822809578E+03  0.46822809578E+03  0.00000000000E+00 0.  1.
         21   -1    0    0  503  502  0.00000000000E+00 -0.00000000000E+00 -0.35016690762E+02  0.35016690762E+02  0.00000000000E+00 0.  1.
         21    1    1    2  503  501  0.11655438802E+03 -0.51994799799E+02  0.19623935388E+03  0.23409030006E+03  0.00000000000E+00 0.  1.
         -1    1    1    2    0  502 -0.11655438802E+03  0.51994799799E+02  0.23697205113E+03  0.26915448648E+03  0.00000000000E+00 0.  1.
<mgrwt>
<rscale>  2 0.12762596E+03</rscale>
<asrwt>0</asrwt>
<pdfrwt beam="2">  1       21 0.53871835E-02 0.12762596E+03</pdfrwt>
<pdfrwt beam="1">  1       -1 0.72035087E-01 0.12762596E+03</pdfrwt>
<totfact> 0.44284949E+04</totfact>
</mgrwt>
</event>
<event>
 4    1  0.4926234E+003  0.1282671E+03  0.7546771E-02  0.1230050E+00
          1   -1    0    0  503    0 -0.00000000000E+00  0.00000000000E+00  0.30238701777E+04  0.30238701777E+04  0.00000000000E+00 0. -1.
         21   -1    0    0  501  502  0.00000000000E+00 -0.00000000000E+00 -0.10545883179E+02  0.10545883179E+02  0.00000000000E+00 0.  1.
         21    1    1    2  503  502  0.82945719539E+02  0.97838952834E+02  0.45105449250E+03  0.46893774458E+03  0.00000000000E+00 0.  1.
          1    1    1    2  501    0 -0.82945719539E+02 -0.97838952834E+02  0.25622698020E+04  0.25654783163E+04  0.00000000000E+00 0. -1.
<mgrwt>
<rscale>  2 0.12826712E+03</rscale>
<asrwt>0</asrwt>
<pdfrwt beam="2">  1       21 0.16224460E-02 0.12826712E+03</pdfrwt>
<pdfrwt beam="1">  1        1 0.46521010E+00 0.12826712E+03</pdfrwt>
<totfact> 0.14391509E+04</totfact>
</mgrwt>
</event>
<event>
 4    1  0.4926234E+003  0.1036087E+03  0.7546771E-02  0.1272885E+00
         -2   -1    0    0    0  501 -0.00000000000E+00  0.00000000000E+00  0.60082453054E+03  0.60082453054E+03  0.00000000000E+00 0. -1.
         21   -1    0    0  503  502  0.00000000000E+00 -0.00000000000E+00 -0.58000123917E+02  0.58000123917E+02  0.00000000000E+00 0.  1.
         21    1    1    2  503  501 -0.17235850826E+02  0.10216498104E+03 -0.26053828884E+01  0.10364142957E+03  0.00000000000E+00 0.  1.
         -2    1    1    2    0  502  0.17235850826E+02 -0.10216498104E+03  0.54542978951E+03  0.55518322488E+03  0.00000000000E+00 0. -1.
<mgrwt>
<rscale>  2 0.10360868E+03</rscale>
<asrwt>0</asrwt>
<pdfrwt beam="2">  1       21 0.89230964E-02 0.10360868E+03</pdfrwt>
<pdfrwt beam="1">  1       -2 0.92434539E-01 0.10360868E+03</pdfrwt>
<totfact> 0.83388019E+03</totfact>
</mgrwt>
</event>
<event>
 4    1  0.4926234E+003  0.1008919E+03  0.7546771E-02  0.1278432E+00
         21   -1    0    0  503  502  0.00000000000E+00  0.00000000000E+00  0.65565361100E+03  0.65565361100E+03  0.00000000000E+00 0. -1.
          1   -1    0    0  502    0 -0.00000000000E+00 -0.00000000000E+00 -0.91823236157E+02  0.91823236157E+02  0.00000000000E+00 0.  1.
         21    1    1    2  503  501  0.14239422570E+02  0.99881991767E+02  0.62259629081E+03  0.63071809453E+03  0.00000000000E+00 0. -1.
          1    1    1    2  501    0 -0.14239422570E+02 -0.99881991767E+02 -0.58765915972E+02  0.11675875263E+03  0.00000000000E+00 0.  1.
<mgrwt>
<rscale>  2 0.10089189E+03</rscale>
<asrwt>0</asrwt>
<pdfrwt beam="1">  1       21 0.10086978E+00 0.10089189E+03</pdfrwt>
<pdfrwt beam="2">  1        1 0.14126652E-01 0.10089189E+03</pdfrwt>
<totfact> 0.35971598E+03</totfact>
</mgrwt>
</event>
<event>
 4    1  0.4926234E+003  0.1397440E+03  0.7546771E-02  0.1213674E+00
          1   -1    0    0  503    0 -0.00000000000E+00  0.00000000000E+00  0.59803044839E+02  0.59803044839E+02  0.00000000000E+00 0.  1.
         21   -1    0    0  501  502  0.00000000000E+00 -0.00000000000E+00 -0.32811051348E+03  0.32811051348E+03  0.00000000000E+00 0.  1.
         21    1    1    2  503  502  0.54789642302E+02  0.12855539815E+03 -0.12075696577E+03  0.18469066051E+03  0.00000000000E+00 0.  1.
          1    1    1    2  501    0 -0.54789642302E+02 -0.12855539815E+03 -0.14755050287E+03  0.20322289781E+03  0.00000000000E+00 0.  1.
<mgrwt>
<rscale>  2 0.13974403E+03</rscale>
<asrwt>0</asrwt>
<pdfrwt beam="2">  1       21 0.50478541E-01 0.13974403E+03</pdfrwt>
<pdfrwt beam="1">  1        1 0.92004683E-02 0.13974403E+03</pdfrwt>
<totfact> 0.28488757E+04</totfact>
</mgrwt>
</event>
<event>
 4    1  0.4926234E+003  0.1230872E+03  0.7546771E-02  0.1238089E+00
          4   -1    0    0  503    0 -0.00000000000E+00  0.00000000000E+00  0.22107160178E+03  0.22107160178E+03  0.00000000000E+00 0.  1.
         21   -1    0    0  501  502  0.00000000000E+00 -0.00000000000E+00 -0.11904013817E+03  0.11904013817E+03  0.00000000000E+00 0. -1.
         21    1    1    2  503  502  0.12308397262E+03  0.88616214080E+00 -0.59755291636E+02  0.13682523334E+03  0.00000000000E+00 0. -1.
          4    1    1    2  501    0 -0.12308397262E+03 -0.88616214080E+00  0.16178675524E+03  0.20328650662E+03  0.00000000000E+00 0.  1.
<mgrwt>
<rscale>  2 0.12308716E+03</rscale>
<asrwt>0</asrwt>
<pdfrwt beam="2">  1       21 0.18313867E-01 0.12308716E+03</pdfrwt>
<pdfrwt beam="1">  1        4 0.34011016E-01 0.12308716E+03</pdfrwt>
<totfact> 0.92432461E+03</totfact>
</mgrwt>
</event>
<event>
 4    1  0.4926234E+003  0.1381134E+03  0.7546771E-02  0.1215890E+00
         -1   -1    0    0    0  501 -0.00000000000E+00  0.00000000000E+00  0.99017563560E+02  0.99017563560E+02  0.00000000000E+00 0. -1.
         21   -1    0    0  503  502  0.00000000000E+00 -0.00000000000E+00 -0.20101168100E+04  0.20101168100E+04  0.00000000000E+00 0. -1.
         21    1    1    2  503  501 -0.11427750933E+03 -0.77562585906E+02 -0.19583104716E+04  0.19631747776E+04  0.00000000000E+00 0. -1.
         -1    1    1    2    0  502  0.11427750933E+03  0.77562585906E+02  0.47211225232E+02  0.14595959598E+03  0.00000000000E+00 0. -1.
<mgrwt>
<rscale>  2 0.13811337E+03</rscale>
<asrwt>0</asrwt>
<pdfrwt beam="2">  1       21 0.30924871E+00 0.13811337E+03</pdfrwt>
<pdfrwt beam="1">  1       -1 0.15233473E-01 0.13811337E+03</pdfrwt>
<totfact> 0.91701687E+01</totfact>
</mgrwt>
</event>
<event>
 4    1  0.4926234E+003  0.1322059E+03  0.7546771E-02  0.1224219E+00
         21   -1    0    0  501  502  0.00000000000E+00  0.00000000000E+00  0.65323697606E+02  0.65323697606E+02  0.00000000000E+00 0. -1.
          2   -1    0    0  503    0 -0.00000000000E+00 -0.00000000000E+00 -0.68398490753E+03  0.68398490753E+03  0.00000000000E+00 0. -1.
         21    1    1    2  503  502  0.90494223031E+02  0.96380473320E+02 -0.17001074715E+02  0.13329454820E+03  0.00000000000E+00 0. -1.
          2    1    1    2  501    0 -0.90494223031E+02 -0.96380473320E+02 -0.60166013521E+03  0.61601405693E+03  0.00000000000E+00 0. -1.
<mgrwt>
<rscale>  2 0.13220590E+03</rscale>
<asrwt>0</asrwt>
<pdfrwt beam="1">  1       21 0.10049800E-01 0.13220590E+03</pdfrwt>
<pdfrwt beam="2">  1        2 0.10522844E+00 0.13220590E+03</pdfrwt>
<totfact> 0.43870477E+04</totfact>
</mgrwt>
</event>
<event>
 4    1  0.4926234E+003  0.1146162E+03  0.7546771E-02  0.1252252E+00
         21   -1    0    0  503  502  0.00000000000E+00  0.00000000000E+00  0.19141231459E+03  0.19141231459E+03  0.00000000000E+00 0.  1.
          1   -1    0    0  502    0 -0.00000000000E+00 -0.00000000000E+00 -0.17855220579E+03  0.17855220579E+03  0.00000000000E+00 0. -1.
         21    1    1    2  503  501  0.89729880333E+02  0.71312222503E+02  0.15157019285E+03  0.19002738714E+03  0.00000000000E+00 0.  1.
          1    1    1    2  501    0 -0.89729880333E+02 -0.71312222503E+02 -0.13871008405E+03  0.17993713324E+03  0.00000000000E+00 0. -1.
<mgrwt>
<rscale>  2 0.11461625E+03</rscale>
<asrwt>0</asrwt>
<pdfrwt beam="1">  1       21 0.29448048E-01 0.11461625E+03</pdfrwt>
<pdfrwt beam="2">  1        1 0.27469570E-01 0.11461625E+03</pdfrwt>
<totfact> 0.20364120E+04</totfact>
</mgrwt>
</event>
<event>
 4    1  0.4926234E+003  0.1720317E+03  0.7546771E-02  0.1175746E+00
          1   -1    0    0  502    0 -0.00000000000E+00  0.00000000000E+00  0.95701610784E+03  0.95701610784E+03  0.00000000000E+00 0. -1.
         21   -1    0    0  503  502  0.00000000000E+00 -0.00000000000E+00 -0.74602234790E+02  0.74602234790E+02  0.00000000000E+00 0.  1.
         21    1    1    2  503  501  0.65866469820E+02 -0.15892295780E+03  0.46527051175E+02  0.17821241498E+03  0.00000000000E+00 0.  1.
          1    1    1    2  501    0 -0.65866469820E+02  0.15892295780E+03  0.83588682188E+03  0.85340592765E+03  0.00000000000E+00 0. -1.
<mgrwt>
<rscale>  2 0.17203168E+03</rscale>
<asrwt>0</asrwt>
<pdfrwt beam="2">  1       21 0.11477268E-01 0.17203168E+03</pdfrwt>
<pdfrwt beam="1">  1        1 0.14723324E+00 0.17203168E+03</pdfrwt>
<totfact> 0.12365477E+04</totfact>
</mgrwt>
</event>
<event>
 4    1  0.4926234E+003  0.1077296E+03  0.7546771E-02  0.1264833E+00
          1   -1    0    0  502    0 -0.00000000000E+00  0.00000000000E+00  0.33790817932E+03  0.33790817932E+03  0.00000000000E+00 0. -1.
         21   -1    0    0  503  502  0.00000000000E+00 -0.00000000000E+00 -0.38523021864E+02  0.38523021864E+02  0.00000000000E+00 0. -1.
         21    1    1    2  503  501 -0.78041989542E+02  0.74263750812E+02  0.87712806905E+02  0.13892153653E+03  0.00000000000E+00 0. -1.
          1    1    1    2  501    0  0.78041989542E+02 -0.74263750812E+02  0.21167235055E+03  0.23750966466E+03  0.00000000000E+00 0. -1.
<mgrwt>
<rscale>  2 0.10772955E+03</rscale>
<asrwt>0</asrwt>
<pdfrwt beam="2">  1       21 0.59266190E-02 0.10772955E+03</pdfrwt>
<pdfrwt beam="1">  1        1 0.51985872E-01 0.10772955E+03</pdfrwt>
<totfact> 0.16231314E+05</totfact>
</mgrwt>
</event>
<event>
 4    1  0.4926234E+003  0.1442798E+03  0.7546771E-02  0.1207683E+00
         21   -1    0    0  503  502  0.00000000000E+00  0.00000000000E+00  0.40702573932E+02  0.40702573932E+02  0.00000000000E+00 0. -1.
          4   -1    0    0  502    0 -0.00000000000E+00 -0.00000000000E+00 -0.79653419813E+03  0.79653419813E+03  0.00000000000E+00 0.  1.
         21    1    1    2  503  501 -0.82504970667E+02  0.11836211640E+03 -0.12746917267E+03  0.19252285777E+03  0.00000000000E+00 0. -1.
          4    1    1    2  501    0  0.82504970667E+02 -0.11836211640E+03 -0.62836245153E+03  0.64471391429E+03  0.00000000000E+00 0.  1.
<mgrwt>
<rscale>  2 0.14427980E+03</rscale>
<asrwt>0</asrwt>
<pdfrwt beam="1">  1       21 0.62619348E-02 0.14427980E+03</pdfrwt>
<pdfrwt beam="2">  1        4 0.12254372E+00 0.14427980E+03</pdfrwt>
<totfact> 0.39949102E+03</totfact>
</mgrwt>
</event>
<event>
 4    1  0.4926234E+003  0.1227110E+03  0.7546771E-02  0.1238691E+00
          2   -1    0    0  503    0 -0.00000000000E+00  0.00000000000E+00  0.10235837672E+04  0.10235837672E+04  0.00000000000E+00 0.  1.
         21   -1    0    0  501  502  0.00000000000E+00 -0.00000000000E+00 -0.22703777033E+02  0.22703777033E+02  0.00000000000E+00 0.  1.
         21    1    1    2  503  502 -0.84968962913E+02  0.88533914677E+02  0.19004132926E+03  0.22621601520E+03  0.00000000000E+00 0.  1.
          2    1    1    2  501    0  0.84968962913E+02 -0.88533914677E+02  0.81083866088E+03  0.82007152901E+03  0.00000000000E+00 0.  1.
<mgrwt>
<rscale>  2 0.12271096E+03</rscale>
<asrwt>0</asrwt>
<pdfrwt beam="2">  1       21 0.34928896E-02 0.12271096E+03</pdfrwt>
<pdfrwt beam="1">  1        2 0.15747439E+00 0.12271096E+03</pdfrwt>
<totfact> 0.15776747E+05</totfact>
</mgrwt>
</event>
<event>
 4    1  0.4926234E+003  0.1588371E+03  0.7546771E-02  0.1190016E+00
         21   -1    0    0  503  502  0.00000000000E+00  0.00000000000E+00  0.30823111280E+03  0.30823111280E+03  0.00000000000E+00 0. -1.
          1   -1    0    0  502    0 -0.00000000000E+00 -0.00000000000E+00 -0.21867385591E+04  0.21867385591E+04  0.00000000000E+00 0.  1.
         21    1    1    2  503  501  0.12971216661E+03 -0.91673136350E+02  0.28466120599E+03  0.32597731868E+03  0.00000000000E+00 0. -1.
          1    1    1    2  501    0 -0.12971216661E+03  0.91673136350E+02 -0.21631686523E+04  0.21689923533E+04  0.00000000000E+00 0.  1.
<mgrwt>
<rscale>  2 0.15883706E+03</rscale>
<asrwt>0</asrwt>
<pdfrwt beam="1">  1       21 0.47420171E-01 0.15883706E+03</pdfrwt>
<pdfrwt beam="2">  1        1 0.33642132E+00 0.15883706E+03</pdfrwt>
<totfact> 0.12891694E+02</totfact>
</mgrwt>
</event>
<event>
 4    1  0.4926234E+003  0.1683019E+03  0.7546771E-02  0.1179630E+00
         21   -1    0    0  501  502  0.00000000000E+00  0.00000000000E+00  0.25743757367E+03  0.25743757367E+03  0.00000000000E+00 0. -1.
          1   -1    0    0  503    0 -0.00000000000E+00 -0.00000000000E+00 -0.58666633109E+03  0.58666633109E+03  0.00000000000E+00 0. -1.
         21    1    1    2  503  502  0.16829777848E+03  0.11813110327E+01  0.21580660686E+03  0.27367504325E+03  0.00000000000E+00 0. -1.
          1    1    1    2  501    0 -0.16829777848E+03 -0.11813110327E+01 -0.54503536427E+03  0.57042886151E+03  0.00000000000E+00 0. -1.
<mgrwt>
<rscale>  2 0.16830192E+03</rscale>
<asrwt>0</asrwt>
<pdfrwt beam="1">  1       21 0.39605781E-01 0.16830192E+03</pdfrwt>
<pdfrwt beam="2">  1        1 0.90256357E-01 0.16830192E+03</pdfrwt>
<totfact> 0.25003222E+03</totfact>
</mgrwt>
</event>
<event>
 4    1  0.4926234E+003  0.1117247E+03  0.7546771E-02  0.1257409E+00
         21   -1    0    0  501  502  0.00000000000E+00  0.00000000000E+00  0.21597150831E+03  0.21597150831E+03  0.00000000000E+00 0. -1.
          2   -1    0    0  503    0 -0.00000000000E+00 -0.00000000000E+00 -0.44603516956E+03  0.44603516956E+03  0.00000000000E+00 0. -1.
         21    1    1    2  503  502  0.19284007120E+02  0.11004787855E+03  0.19378231724E+03  0.22368279992E+03  0.00000000000E+00 0. -1.
          2    1    1    2  501    0 -0.19284007120E+02 -0.11004787855E+03 -0.42384597849E+03  0.43832387796E+03  0.00000000000E+00 0. -1.
<mgrwt>
<rscale>  2 0.11172470E+03</rscale>
<asrwt>0</asrwt>
<pdfrwt beam="1">  1       21 0.33226386E-01 0.11172470E+03</pdfrwt>
<pdfrwt beam="2">  1        2 0.68620795E-01 0.11172470E+03</pdfrwt>
<totfact> 0.78942973E+03</totfact>
</mgrwt>
</event>
<event>
 4    1  0.4926234E+003  0.2574423E+03  0.7546771E-02  0.1108690E+00
         21   -1    0    0  501  502  0.00000000000E+00  0.00000000000E+00  0.52358016720E+03  0.52358016720E+03  0.00000000000E+00 0. -1.
          2   -1    0    0  503    0 -0.00000000000E+00 -0.00000000000E+00 -0.14148022161E+04  0.14148022161E+04  0.00000000000E+00 0.  1.
         21    1    1    2  503  502 -0.24716158763E+03 -0.72025666504E+02  0.47920727665E+03  0.54398176535E+03  0.00000000000E+00 0. -1.
          2    1    1    2  501    0  0.24716158763E+03  0.72025666504E+02 -0.13704293255E+04  0.13944006180E+04  0.00000000000E+00 0.  1.
<mgrwt>
<rscale>  2 0.25744232E+03</rscale>
<asrwt>0</asrwt>
<pdfrwt beam="1">  1       21 0.80550795E-01 0.25744232E+03</pdfrwt>
<pdfrwt beam="2">  1        2 0.21766188E+00 0.25744232E+03</pdfrwt>
<totfact> 0.25173903E+02</totfact>
</mgrwt>
</event>
<event>
 4    1  0.4926234E+003  0.1226049E+03  0.7546771E-02  0.1238861E+00
         -2   -1    0    0    0  501 -0.00000000000E+00  0.00000000000E+00  0.36489058422E+03  0.36489058422E+03  0.00000000000E+00 0. -1.
         21   -1    0    0  501  502  0.00000000000E+00 -0.00000000000E+00 -0.69974259061E+02  0.69974259061E+02  0.00000000000E+00 0.  1.
         21    1    1    2  503  502  0.11731760667E+03  0.35616743311E+02  0.80177583671E+01  0.12286682908E+03  0.00000000000E+00 0.  1.
         -2    1    1    2    0  503 -0.11731760667E+03 -0.35616743311E+02  0.28689856679E+03  0.31199801420E+03  0.00000000000E+00 0. -1.
<mgrwt>
<rscale>  2 0.12260495E+03</rscale>
<asrwt>0</asrwt>
<pdfrwt beam="2">  1       21 0.10765271E-01 0.12260495E+03</pdfrwt>
<pdfrwt beam="1">  1       -2 0.56137012E-01 0.12260495E+03</pdfrwt>
<totfact> 0.17462323E+04</totfact>
</mgrwt>
</event>
<event>
 4    1  0.4926234E+003  0.1128922E+03  0.7546771E-02  0.1255306E+00
          2   -1    0    0  502    0 -0.00000000000E+00  0.00000000000E+00  0.16062785941E+04  0.16062785941E+04  0.00000000000E+00 0. -1.
         21   -1    0    0  503  502  0.00000000000E+00 -0.00000000000E+00 -0.38092560883E+02  0.38092560883E+02  0.00000000000E+00 0.  1.
         21    1    1    2  503  501 -0.63242953740E+02  0.93514637626E+02  0.52527738669E+02  0.12451434447E+03  0.00000000000E+00 0.  1.
          2    1    1    2  501    0  0.63242953740E+02 -0.93514637626E+02  0.15156582945E+04  0.15198568105E+04  0.00000000000E+00 0. -1.
<mgrwt>
<rscale>  2 0.11289224E+03</rscale>
<asrwt>0</asrwt>
<pdfrwt beam="2">  1       21 0.58603952E-02 0.11289224E+03</pdfrwt>
<pdfrwt beam="1">  1        2 0.24711973E+00 0.11289224E+03</pdfrwt>
<totfact> 0.32312246E+04</totfact>
</mgrwt>
</event>
<event>
 4    1  0.4926234E+003  0.1010037E+03  0.7546771E-02  0.1278199E+00
          2   -1    0    0  503    0 -0.00000000000E+00  0.00000000000E+00  0.15636067997E+04  0.15636067997E+04  0.00000000000E+00 0.  1.
         21   -1    0    0  501  502  0.00000000000E+00 -0.00000000000E+00 -0.21695762923E+02  0.21695762923E+02  0.00000000000E+00 0. -1.
         21    1    1    2  503  502  0.32650112366E+02 -0.95580949396E+02  0.10812024083E+03  0.14795855569E+03  0.00000000000E+00 0. -1.
          2    1    1    2  501    0 -0.32650112366E+02  0.95580949396E+02  0.14337907959E+04  0.14373440069E+04  0.00000000000E+00 0.  1.
<mgrwt>
<rscale>  2 0.10100370E+03</rscale>
<asrwt>0</asrwt>
<pdfrwt beam="2">  1       21 0.33378109E-02 0.10100370E+03</pdfrwt>
<pdfrwt beam="1">  1        2 0.24055480E+00 0.10100370E+03</pdfrwt>
<totfact> 0.86741744E+04</totfact>
</mgrwt>
</event>
<event>
 4    1  0.4926234E+003  0.1032919E+03  0.7546771E-02  0.1273522E+00
          1   -1    0    0  503    0 -0.00000000000E+00  0.00000000000E+00  0.75679750010E+03  0.75679750010E+03  0.00000000000E+00 0.  1.
         21   -1    0    0  501  502  0.00000000000E+00 -0.00000000000E+00 -0.16019843238E+02  0.16019843238E+02  0.00000000000E+00 0. -1.
         21    1    1    2  503  502  0.82298028898E+02  0.62419976749E+02  0.23654651067E+03  0.25811522769E+03  0.00000000000E+00 0. -1.
          1    1    1    2  501    0 -0.82298028898E+02 -0.62419976749E+02  0.50423114619E+03  0.51470211564E+03  0.00000000000E+00 0.  1.
<mgrwt>
<rscale>  2 0.10329191E+03</rscale>
<asrwt>0</asrwt>
<pdfrwt beam="2">  1       21 0.24645918E-02 0.10329191E+03</pdfrwt>
<pdfrwt beam="1">  1        1 0.11643036E+00 0.10329191E+03</pdfrwt>
<totfact> 0.23939503E+05</totfact>
</mgrwt>
</event>
<event>
 4    1  0.4926234E+003  0.3802068E+03  0.7546771E-02  0.1050857E+00
         -1   -1    0    0    0  501 -0.00000000000E+00  0.00000000000E+00  0.17356327331E+03  0.17356327331E+03  0.00000000000E+00 0. -1.
         21   -1    0    0  503  502  0.00000000000E+00 -0.00000000000E+00 -0.10722258518E+04  0.10722258518E+04  0.00000000000E+00 0. -1.
         21    1    1    2  503  501 -0.12622778379E+03  0.35864155230E+03 -0.74362786259E+03  0.83518837064E+03  0.00000000000E+00 0. -1.
         -1    1    1    2    0  502  0.12622778379E+03 -0.35864155230E+03 -0.15503471591E+03  0.41060075447E+03  0.00000000000E+00 0. -1.
<mgrwt>
<rscale>  2 0.38020681E+03</rscale>
<asrwt>0</asrwt>
<pdfrwt beam="2">  1       21 0.16495782E+00 0.38020681E+03</pdfrwt>
<pdfrwt beam="1">  1       -1 0.26702042E-01 0.38020681E+03</pdfrwt>
<totfact> 0.24053032E+02</totfact>
</mgrwt>
</event>
<event>
 4    1  0.4926234E+003  0.2159371E+03  0.7546771E-02  0.1136949E+00
          3   -1    0    0  503    0 -0.00000000000E+00  0.00000000000E+00  0.10972678215E+04  0.10972678215E+04  0.00000000000E+00 0.  1.
         21   -1    0    0  501  502  0.00000000000E+00 -0.00000000000E+00 -0.24841297829E+03  0.24841297829E+03  0.00000000000E+00 0.  1.
         21    1    1    2  503  502  0.72941564852E+02 -0.20324454846E+03 -0.18816503746E+03  0.28641735227E+03  0.00000000000E+00 0.  1.
          3    1    1    2  501    0 -0.72941564852E+02  0.20324454846E+03  0.10370198807E+04  0.10592634475E+04  0.00000000000E+00 0.  1.
<mgrwt>
<rscale>  2 0.21593707E+03</rscale>
<asrwt>0</asrwt>
<pdfrwt beam="2">  1       21 0.38217382E-01 0.21593707E+03</pdfrwt>
<pdfrwt beam="1">  1        3 0.16881043E+00 0.21593707E+03</pdfrwt>
<totfact> 0.82318292E+01</totfact>
</mgrwt>
</event>
<event>
 4    1  0.4926234E+003  0.1504735E+03  0.7546771E-02  0.1199892E+00
         21   -1    0    0  503  502  0.00000000000E+00  0.00000000000E+00  0.24957057516E+02  0.24957057516E+02  0.00000000000E+00 0. -1.
          1   -1    0    0  502    0 -0.00000000000E+00 -0.00000000000E+00 -0.20971564680E+04  0.20971564680E+04  0.00000000000E+00 0.  1.
         21    1    1    2  503  501  0.13156214893E+03  0.73031964806E+02 -0.23685496812E+03  0.28061101696E+03  0.00000000000E+00 0. -1.
          1    1    1    2  501    0 -0.13156214893E+03 -0.73031964806E+02 -0.18353444424E+04  0.18415025086E+04  0.00000000000E+00 0.  1.
<mgrwt>
<rscale>  2 0.15047348E+03</rscale>
<asrwt>0</asrwt>
<pdfrwt beam="1">  1       21 0.38395478E-02 0.15047348E+03</pdfrwt>
<pdfrwt beam="2">  1        1 0.32263941E+00 0.15047348E+03</pdfrwt>
<totfact> 0.14254905E+04</totfact>
</mgrwt>
</event>
<event>
 4    1  0.4926234E+003  0.1291010E+03  0.7546771E-02  0.1228796E+00
         21   -1    0    0  501  502  0.00000000000E+00  0.00000000000E+00  0.61575935750E+02  0.61575935750E+02  0.00000000000E+00 0. -1.
          1   -1    0    0  503    0 -0.00000000000E+00 -0.00000000000E+00 -0.69920775618E+03  0.69920775618E+03  0.00000000000E+00 0. -1.
         21    1    1    2  503  502 -0.94773093881E+02  0.87664916244E+02 -0.21019124195E+02  0.13080091913E+03  0.00000000000E+00 0. -1.
          1    1    1    2  501    0  0.94773093881E+02 -0.87664916244E+02 -0.61661269623E+03  0.62998277280E+03  0.00000000000E+00 0. -1.
<mgrwt>
<rscale>  2 0.12910103E+03</rscale>
<asrwt>0</asrwt>
<pdfrwt beam="1">  1       21 0.94732214E-02 0.12910103E+03</pdfrwt>
<pdfrwt beam="2">  1        1 0.10757042E+00 0.12910103E+03</pdfrwt>
<totfact> 0.28258510E+04</totfact>
</mgrwt>
</event>
<event>
 4    1  0.4926234E+003  0.1473524E+03  0.7546771E-02  0.1203765E+00
         21   -1    0    0  503  502  0.00000000000E+00  0.00000000000E+00  0.12386828914E+03  0.12386828914E+03  0.00000000000E+00 0.  1.
          2   -1    0    0  502    0 -0.00000000000E+00 -0.00000000000E+00 -0.30107844360E+03  0.30107844360E+03  0.00000000000E+00 0. -1.
         21    1    1    2  503  501  0.11396326182E+03 -0.93408222078E+02  0.48731794096E+02  0.15520151015E+03  0.00000000000E+00 0.  1.
          2    1    1    2  501    0 -0.11396326182E+03  0.93408222078E+02 -0.22594194855E+03  0.26974522259E+03  0.00000000000E+00 0. -1.
<mgrwt>
<rscale>  2 0.14735237E+03</rscale>
<asrwt>0</asrwt>
<pdfrwt beam="1">  1       21 0.19056660E-01 0.14735237E+03</pdfrwt>
<pdfrwt beam="2">  1        2 0.46319760E-01 0.14735237E+03</pdfrwt>
<totfact> 0.34170929E+04</totfact>
</mgrwt>
</event>
<event>
 4    1  0.4926234E+003  0.1022659E+03  0.7546771E-02  0.1275602E+00
         -3   -1    0    0    0  501 -0.00000000000E+00  0.00000000000E+00  0.36365680182E+02  0.36365680182E+02  0.00000000000E+00 0.  1.
         21   -1    0    0  503  502  0.00000000000E+00 -0.00000000000E+00 -0.35065933476E+03  0.35065933476E+03  0.00000000000E+00 0. -1.
         21    1    1    2  503  501  0.80013490089E+01  0.10195237283E+03 -0.23921688643E+03  0.26015961766E+03  0.00000000000E+00 0. -1.
         -3    1    1    2    0  502 -0.80013490089E+01 -0.10195237283E+03 -0.75076768151E+02  0.12686539728E+03  0.00000000000E+00 0.  1.
<mgrwt>
<rscale>  2 0.10226587E+03</rscale>
<asrwt>0</asrwt>
<pdfrwt beam="2">  1       21 0.53947590E-01 0.10226587E+03</pdfrwt>
<pdfrwt beam="1">  1       -3 0.55947200E-02 0.10226587E+03</pdfrwt>
<totfact> 0.29160635E+04</totfact>
</mgrwt>
</event>
<event>
 4    1  0.4926234E+003  0.1036938E+03  0.7546771E-02  0.1272715E+00
         21   -1    0    0  503  502  0.00000000000E+00  0.00000000000E+00  0.75090403009E+02  0.75090403009E+02  0.00000000000E+00 0. -1.
          2   -1    0    0  502    0 -0.00000000000E+00 -0.00000000000E+00 -0.27150246395E+03  0.27150246395E+03  0.00000000000E+00 0. -1.
         21    1    1    2  503  501  0.72538581987E+02 -0.74098251683E+02  0.20927114722E+02  0.10578440769E+03  0.00000000000E+00 0. -1.
          2    1    1    2  501    0 -0.72538581987E+02  0.74098251683E+02 -0.21733917566E+03  0.24080845927E+03  0.00000000000E+00 0. -1.
<mgrwt>
<rscale>  2 0.10369376E+03</rscale>
<asrwt>0</asrwt>
<pdfrwt beam="1">  1       21 0.11552370E-01 0.10369376E+03</pdfrwt>
<pdfrwt beam="2">  1        2 0.41769609E-01 0.10369376E+03</pdfrwt>
<totfact> 0.93232515E+04</totfact>
</mgrwt>
</event>
<event>
 4    1  0.4926234E+003  0.1107343E+03  0.7546771E-02  0.1259216E+00
         21   -1    0    0  503  502  0.00000000000E+00  0.00000000000E+00  0.36865516184E+01  0.36865516184E+01  0.00000000000E+00 0.  1.
          1   -1    0    0  502    0 -0.00000000000E+00 -0.00000000000E+00 -0.44651623273E+04  0.44651623273E+04  0.00000000000E+00 0. -1.
         21    1    1    2  503  501  0.11071287457E+03  0.21805127074E+01 -0.11022223107E+04  0.11077707874E+04  0.00000000000E+00 0.  1.
          1    1    1    2  501    0 -0.11071287457E+03 -0.21805127074E+01 -0.33592534650E+04  0.33610780915E+04  0.00000000000E+00 0. -1.
<mgrwt>
<rscale>  2 0.11073435E+03</rscale>
<asrwt>0</asrwt>
<pdfrwt beam="1">  1       21 0.56716138E-03 0.11073435E+03</pdfrwt>
<pdfrwt beam="2">  1        1 0.68694854E+00 0.11073435E+03</pdfrwt>
<totfact> 0.55125711E+03</totfact>
</mgrwt>
</event>
<event>
 4    1  0.4926234E+003  0.1129685E+03  0.7546771E-02  0.1255169E+00
          1   -1    0    0  503    0 -0.00000000000E+00  0.00000000000E+00  0.68424628750E+03  0.68424628750E+03  0.00000000000E+00 0. -1.
         21   -1    0    0  501  502  0.00000000000E+00 -0.00000000000E+00 -0.19238952934E+02  0.19238952934E+02  0.00000000000E+00 0. -1.
         21    1    1    2  503  502 -0.10385063363E+03 -0.44462776008E+02  0.27101466626E+03  0.29361682834E+03  0.00000000000E+00 0. -1.
          1    1    1    2  501    0  0.10385063363E+03  0.44462776008E+02  0.39399266830E+03  0.40986841209E+03  0.00000000000E+00 0. -1.
<mgrwt>
<rscale>  2 0.11296855E+03</rscale>
<asrwt>0</asrwt>
<pdfrwt beam="2">  1       21 0.29598394E-02 0.11296855E+03</pdfrwt>
<pdfrwt beam="1">  1        1 0.10526864E+00 0.11296855E+03</pdfrwt>
<totfact> 0.20617850E+05</totfact>
</mgrwt>
</event>
<event>
 4    1  0.4926234E+003  0.1145272E+03  0.7546771E-02  0.1252409E+00
          2   -1    0    0  503    0 -0.00000000000E+00  0.00000000000E+00  0.28216486692E+03  0.28216486692E+03  0.00000000000E+00 0.  1.
         21   -1    0    0  501  502  0.00000000000E+00 -0.00000000000E+00 -0.10009558154E+03  0.10009558154E+03  0.00000000000E+00 0. -1.
         21    1    1    2  503  502 -0.73160099435E+02  0.88114063188E+02 -0.48842384399E+02  0.12450729615E+03  0.00000000000E+00 0. -1.
          2    1    1    2  501    0  0.73160099435E+02 -0.88114063188E+02  0.23091166978E+03  0.25775315230E+03  0.00000000000E+00 0.  1.
<mgrwt>
<rscale>  2 0.11452724E+03</rscale>
<asrwt>0</asrwt>
<pdfrwt beam="2">  1       21 0.15399320E-01 0.11452724E+03</pdfrwt>
<pdfrwt beam="1">  1        2 0.43409979E-01 0.11452724E+03</pdfrwt>
<totfact> 0.53846212E+04</totfact>
</mgrwt>
</event>
<event>
 4    1  0.4926234E+003  0.1190563E+03  0.7546771E-02  0.1244662E+00
         21   -1    0    0  501  502  0.00000000000E+00  0.00000000000E+00  0.48725061170E+01  0.48725061170E+01  0.00000000000E+00 0.  1.
          2   -1    0    0  503    0 -0.00000000000E+00 -0.00000000000E+00 -0.29097238548E+04  0.29097238548E+04  0.00000000000E+00 0. -1.
         21    1    1    2  503  502  0.73007099807E+02 -0.94044430631E+02 -0.14745092964E+04  0.14793079655E+04  0.00000000000E+00 0.  1.
          2    1    1    2  501    0 -0.73007099807E+02  0.94044430631E+02 -0.14303420523E+04  0.14352883955E+04  0.00000000000E+00 0. -1.
<mgrwt>
<rscale>  2 0.11905625E+03</rscale>
<asrwt>0</asrwt>
<pdfrwt beam="1">  1       21 0.74961406E-03 0.11905625E+03</pdfrwt>
<pdfrwt beam="2">  1        2 0.44765118E+00 0.11905625E+03</pdfrwt>
<totfact> 0.18595674E+05</totfact>
</mgrwt>
</event>
<event>
 4    1  0.4926234E+003  0.1035522E+03  0.7546771E-02  0.1272999E+00
         21   -1    0    0  503  502  0.00000000000E+00  0.00000000000E+00  0.43478917367E+02  0.43478917367E+02  0.00000000000E+00 0. -1.
         -2   -1    0    0    0  501 -0.00000000000E+00 -0.00000000000E+00 -0.28075746449E+03  0.28075746449E+03  0.00000000000E+00 0. -1.
         21    1    1    2  503  501  0.86545554107E+02 -0.56858832172E+02 -0.62114423405E+02  0.12075289366E+03  0.00000000000E+00 0. -1.
         -2    1    1    2    0  502 -0.86545554107E+02  0.56858832172E+02 -0.17516412372E+03  0.20348348820E+03  0.00000000000E+00 0. -1.
<mgrwt>
<rscale>  2 0.10355221E+03</rscale>
<asrwt>0</asrwt>
<pdfrwt beam="1">  1       21 0.66890644E-02 0.10355221E+03</pdfrwt>
<pdfrwt beam="2">  1       -2 0.43193455E-01 0.10355221E+03</pdfrwt>
<totfact> 0.65976471E+04</totfact>
</mgrwt>
</event>
<event>
 4    1  0.4926234E+003  0.1072550E+03  0.7546771E-02  0.1265739E+00
         21   -1    0    0  503  502  0.00000000000E+00  0.00000000000E+00  0.64977538441E+02  0.64977538441E+02  0.00000000000E+00 0.  1.
          2   -1    0    0  502    0 -0.00000000000E+00 -0.00000000000E+00 -0.12857954785E+04  0.12857954785E+04  0.00000000000E+00 0. -1.
         21    1    1    2  503  501  0.18141493030E+02  0.10570960510E+03  0.16759605975E+02  0.10855652340E+03  0.00000000000E+00 0.  1.
          2    1    1    2  501    0 -0.18141493030E+02 -0.10570960510E+03 -0.12375775460E+04  0.12422164935E+04  0.00000000000E+00 0. -1.
<mgrwt>
<rscale>  2 0.10725500E+03</rscale>
<asrwt>0</asrwt>
<pdfrwt beam="1">  1       21 0.99965440E-02 0.10725500E+03</pdfrwt>
<pdfrwt beam="2">  1        2 0.19781470E+00 0.10725500E+03</pdfrwt>
<totfact> 0.19038872E+04</totfact>
</mgrwt>
</event>
<event>
 4    1  0.4926234E+003  0.1347874E+03  0.7546771E-02  0.1220520E+00
         21   -1    0    0  503  502  0.00000000000E+00  0.00000000000E+00  0.87100706354E+03  0.87100706354E+03  0.00000000000E+00 0. -1.
         -1   -1    0    0    0  501 -0.00000000000E+00 -0.00000000000E+00 -0.33043937788E+02  0.33043937788E+02  0.00000000000E+00 0. -1.
         21    1    1    2  503  501  0.53178223606E+02 -0.12385366473E+03  0.69348176072E+03  0.70645920349E+03  0.00000000000E+00 0. -1.
         -1    1    1    2    0  502 -0.53178223606E+02  0.12385366473E+03  0.14448136503E+03  0.19759179784E+03  0.00000000000E+00 0. -1.
<mgrwt>
<rscale>  2 0.13478744E+03</rscale>
<asrwt>0</asrwt>
<pdfrwt beam="1">  1       21 0.13400107E+00 0.13478744E+03</pdfrwt>
<pdfrwt beam="2">  1       -1 0.50836834E-02 0.13478744E+03</pdfrwt>
<totfact> 0.61647880E+03</totfact>
</mgrwt>
</event>
<event>
 4    1  0.4926234E+003  0.1176749E+03  0.7546771E-02  0.1246983E+00
         -3   -1    0    0    0  501 -0.00000000000E+00  0.00000000000E+00  0.24915624920E+03  0.24915624920E+03  0.00000000000E+00 0.  1.
         21   -1    0    0  503  502  0.00000000000E+00 -0.00000000000E+00 -0.65596679640E+02  0.65596679640E+02  0.00000000000E+00 0.  1.
         21    1    1    2  503  501 -0.10375825612E+03  0.55512309310E+02  0.30273046023E+02  0.12150658218E+03  0.00000000000E+00 0.  1.
         -3    1    1    2    0  502  0.10375825612E+03 -0.55512309310E+02  0.15328652353E+03  0.19324634665E+03  0.00000000000E+00 0.  1.
<mgrwt>
<rscale>  2 0.11767494E+03</rscale>
<asrwt>0</asrwt>
<pdfrwt beam="2">  1       21 0.10091797E-01 0.11767494E+03</pdfrwt>
<pdfrwt beam="1">  1       -3 0.38331730E-01 0.11767494E+03</pdfrwt>
<totfact> 0.25604964E+04</totfact>
</mgrwt>
</event>
<event>
 4    1  0.4926234E+003  0.1634993E+03  0.7546771E-02  0.1184802E+00
         21   -1    0    0  501  502  0.00000000000E+00  0.00000000000E+00  0.57392480798E+02  0.57392480798E+02  0.00000000000E+00 0.  1.
          1   -1    0    0  503    0 -0.00000000000E+00 -0.00000000000E+00 -0.83507758432E+03  0.83507758432E+03  0.00000000000E+00 0.  1.
         21    1    1    2  503  502 -0.16212444754E+03  0.21158358847E+02 -0.92092286099E+02  0.18765127710E+03  0.00000000000E+00 0.  1.
          1    1    1    2  501    0  0.16212444754E+03 -0.21158358847E+02 -0.68559281743E+03  0.70481878802E+03  0.00000000000E+00 0.  1.
<mgrwt>
<rscale>  2 0.16349927E+03</rscale>
<asrwt>0</asrwt>
<pdfrwt beam="1">  1       21 0.88296128E-02 0.16349927E+03</pdfrwt>
<pdfrwt beam="2">  1        1 0.12847347E+00 0.16349927E+03</pdfrwt>
<totfact> 0.24459555E+04</totfact>
</mgrwt>
</event>
<event>
 4    1  0.4926234E+003  0.2460016E+03  0.7546771E-02  0.1115858E+00
         21   -1    0    0  501  502  0.00000000000E+00  0.00000000000E+00  0.43318625981E+03  0.43318625981E+03  0.00000000000E+00 0.  1.
          2   -1    0    0  503    0 -0.00000000000E+00 -0.00000000000E+00 -0.13349791923E+04  0.13349791923E+04  0.00000000000E+00 0. -1.
         21    1    1    2  503  502 -0.23298457602E+03  0.78961816882E+02  0.38564998131E+03  0.45743052945E+03  0.00000000000E+00 0.  1.
          2    1    1    2  501    0  0.23298457602E+03 -0.78961816882E+02 -0.12874429138E+04  0.13107349227E+04  0.00000000000E+00 0. -1.
<mgrwt>
<rscale>  2 0.24600159E+03</rscale>
<asrwt>0</asrwt>
<pdfrwt beam="1">  1       21 0.66644041E-01 0.24600159E+03</pdfrwt>
<pdfrwt beam="2">  1        2 0.20538141E+00 0.24600159E+03</pdfrwt>
<totfact> 0.42835354E+02</totfact>
</mgrwt>
</event>
<event>
 4    1  0.4926234E+003  0.2543476E+03  0.7546771E-02  0.1110588E+00
          1   -1    0    0  502    0 -0.00000000000E+00  0.00000000000E+00  0.17143584569E+04  0.17143584569E+04  0.00000000000E+00 0. -1.
         21   -1    0    0  503  502  0.00000000000E+00 -0.00000000000E+00 -0.44555042413E+02  0.44555042413E+02  0.00000000000E+00 0. -1.
         21    1    1    2  503  501  0.25434759806E+03  0.72947178565E-01  0.49084202490E+03  0.55282782072E+03  0.00000000000E+00 0. -1.
          1    1    1    2  501    0 -0.25434759806E+03 -0.72947178565E-01  0.11789613896E+04  0.12060856786E+04  0.00000000000E+00 0. -1.
<mgrwt>
<rscale>  2 0.25434761E+03</rscale>
<asrwt>0</asrwt>
<pdfrwt beam="2">  1       21 0.68546233E-02 0.25434761E+03</pdfrwt>
<pdfrwt beam="1">  1        1 0.26374740E+00 0.25434761E+03</pdfrwt>
<totfact> 0.90578376E+03</totfact>
</mgrwt>
</event>
<event>
 4    1  0.4926234E+003  0.1298754E+03  0.7546771E-02  0.1227641E+00
          4   -1    0    0  502    0 -0.00000000000E+00  0.00000000000E+00  0.12932953539E+03  0.12932953539E+03  0.00000000000E+00 0.  1.
         21   -1    0    0  503  502  0.00000000000E+00 -0.00000000000E+00 -0.16019150171E+03  0.16019150171E+03  0.00000000000E+00 0. -1.
         21    1    1    2  503  501 -0.11966110586E+02  0.12932292905E+03 -0.77833972862E+02  0.15141246684E+03  0.00000000000E+00 0. -1.
          4    1    1    2  501    0  0.11966110586E+02 -0.12932292905E+03  0.46972006538E+02  0.13810857026E+03  0.00000000000E+00 0.  1.
<mgrwt>
<rscale>  2 0.12987535E+03</rscale>
<asrwt>0</asrwt>
<pdfrwt beam="2">  1       21 0.24644846E-01 0.12987535E+03</pdfrwt>
<pdfrwt beam="1">  1        4 0.19896852E-01 0.12987535E+03</pdfrwt>
<totfact> 0.14453428E+04</totfact>
</mgrwt>
</event>
<event>
 4    1  0.4926234E+003  0.1046073E+03  0.7546771E-02  0.1270895E+00
          2   -1    0    0  503    0 -0.00000000000E+00  0.00000000000E+00  0.41647307933E+04  0.41647307933E+04  0.00000000000E+00 0. -1.
         21   -1    0    0  501  502  0.00000000000E+00 -0.00000000000E+00 -0.56101884569E+01  0.56101884569E+01  0.00000000000E+00 0. -1.
         21    1    1    2  503  502 -0.91189855910E+02  0.51255276227E+02  0.55915566141E+03  0.56885652572E+03  0.00000000000E+00 0. -1.
          2    1    1    2  501    0  0.91189855910E+02 -0.51255276227E+02  0.35999649435E+04  0.36014844561E+04  0.00000000000E+00 0. -1.
<mgrwt>
<rscale>  2 0.10460733E+03</rscale>
<asrwt>0</asrwt>
<pdfrwt beam="2">  1       21 0.86310924E-03 0.10460733E+03</pdfrwt>
<pdfrwt beam="1">  1        2 0.64072535E+00 0.10460733E+03</pdfrwt>
<totfact> 0.22446999E+04</totfact>
</mgrwt>
</event>
<event>
 4    1  0.4926234E+003  0.2031058E+03  0.7546771E-02  0.1147145E+00
         21   -1    0    0  501  502  0.00000000000E+00  0.00000000000E+00  0.73096754243E+02  0.73096754243E+02  0.00000000000E+00 0. -1.
          4   -1    0    0  503    0 -0.00000000000E+00 -0.00000000000E+00 -0.12957846574E+04  0.12957846574E+04  0.00000000000E+00 0. -1.
         21    1    1    2  503  502 -0.12949795621E+03  0.15646798495E+03 -0.97113249480E+02  0.22512870586E+03  0.00000000000E+00 0. -1.
          4    1    1    2  501    0  0.12949795621E+03 -0.15646798495E+03 -0.11255746536E+04  0.11437527057E+04  0.00000000000E+00 0. -1.
<mgrwt>
<rscale>  2 0.20310576E+03</rscale>
<asrwt>0</asrwt>
<pdfrwt beam="1">  1       21 0.11245655E-01 0.20310576E+03</pdfrwt>
<pdfrwt beam="2">  1        4 0.19935148E+00 0.20310576E+03</pdfrwt>
<totfact> 0.40568451E+02</totfact>
</mgrwt>
</event>
<event>
 4    1  0.4926234E+003  0.1065464E+03  0.7546771E-02  0.1267102E+00
         21   -1    0    0  503  502  0.00000000000E+00  0.00000000000E+00  0.37209300500E+02  0.37209300500E+02  0.00000000000E+00 0.  1.
          1   -1    0    0  502    0 -0.00000000000E+00 -0.00000000000E+00 -0.34024254467E+03  0.34024254467E+03  0.00000000000E+00 0.  1.
         21    1    1    2  503  501  0.64136345859E+02 -0.85080296345E+02 -0.90853434263E+02  0.14002312025E+03  0.00000000000E+00 0.  1.
          1    1    1    2  501    0 -0.64136345859E+02  0.85080296345E+02 -0.21217980991E+03  0.23742872492E+03  0.00000000000E+00 0.  1.
<mgrwt>
<rscale>  2 0.10654636E+03</rscale>
<asrwt>0</asrwt>
<pdfrwt beam="1">  1       21 0.57245077E-02 0.10654636E+03</pdfrwt>
<pdfrwt beam="2">  1        1 0.52345008E-01 0.10654636E+03</pdfrwt>
<totfact> 0.17052876E+05</totfact>
</mgrwt>
</event>
<event>
 4    1  0.4926234E+003  0.1189890E+03  0.7546771E-02  0.1244774E+00
         21   -1    0    0  503  502  0.00000000000E+00  0.00000000000E+00  0.48482976469E+02  0.48482976469E+02  0.00000000000E+00 0.  1.
          4   -1    0    0  502    0 -0.00000000000E+00 -0.00000000000E+00 -0.42825659725E+03  0.42825659725E+03  0.00000000000E+00 0.  1.
         21    1    1    2  503  501 -0.11605714538E+03  0.26251175799E+02 -0.55445305088E+02  0.13127287260E+03  0.00000000000E+00 0.  1.
          4    1    1    2  501    0  0.11605714538E+03 -0.26251175799E+02 -0.32432831569E+03  0.34546670112E+03  0.00000000000E+00 0.  1.
<mgrwt>
<rscale>  2 0.11898901E+03</rscale>
<asrwt>0</asrwt>
<pdfrwt beam="1">  1       21 0.74589193E-02 0.11898901E+03</pdfrwt>
<pdfrwt beam="2">  1        4 0.65885632E-01 0.11898901E+03</pdfrwt>
<totfact> 0.11877201E+04</totfact>
</mgrwt>
</event>
<event>
 4    1  0.4926234E+003  0.1190623E+03  0.7546771E-02  0.1244652E+00
          2   -1    0    0  503    0 -0.00000000000E+00  0.00000000000E+00  0.23355360934E+04  0.23355360934E+04  0.00000000000E+00 0.  1.
         21   -1    0    0  501  502  0.00000000000E+00 -0.00000000000E+00 -0.78894055780E+01  0.78894055780E+01  0.00000000000E+00 0. -1.
         21    1    1    2  503  502  0.73878967071E+02  0.93368729535E+02  0.60108193196E+03  0.61276040208E+03  0.00000000000E+00 0. -1.
          2    1    1    2  501    0 -0.73878967071E+02 -0.93368729535E+02  0.17265647559E+04  0.17306650969E+04  0.00000000000E+00 0.  1.
<mgrwt>
<rscale>  2 0.11906226E+03</rscale>
<asrwt>0</asrwt>
<pdfrwt beam="2">  1       21 0.12137566E-02 0.11906226E+03</pdfrwt>
<pdfrwt beam="1">  1        2 0.35931270E+00 0.11906226E+03</pdfrwt>
<totfact> 0.17838525E+05</totfact>
</mgrwt>
</event>
<event>
 4    1  0.4926234E+003  0.1320691E+03  0.7546771E-02  0.1224417E+00
         21   -1    0    0  503  502  0.00000000000E+00  0.00000000000E+00  0.96386977069E+02  0.96386977069E+02  0.00000000000E+00 0. -1.
          1   -1    0    0  502    0 -0.00000000000E+00 -0.00000000000E+00 -0.50088093688E+03  0.50088093688E+03  0.00000000000E+00 0. -1.
         21    1    1    2  503  501  0.13131918010E+03 -0.14054613829E+02  0.36420233621E+02  0.13699887827E+03  0.00000000000E+00 0. -1.
          1    1    1    2  501    0 -0.13131918010E+03  0.14054613829E+02 -0.44091419343E+03  0.46026903567E+03  0.00000000000E+00 0. -1.
<mgrwt>
<rscale>  2 0.13206915E+03</rscale>
<asrwt>0</asrwt>
<pdfrwt beam="1">  1       21 0.14828766E-01 0.13206915E+03</pdfrwt>
<pdfrwt beam="2">  1        1 0.77058603E-01 0.13206915E+03</pdfrwt>
<totfact> 0.20091643E+04</totfact>
</mgrwt>
</event>
<event>
 4    1  0.4926234E+003  0.1076619E+03  0.7546771E-02  0.1264962E+00
          2   -1    0    0  502    0 -0.00000000000E+00  0.00000000000E+00  0.80316256902E+02  0.80316256902E+02  0.00000000000E+00 0. -1.
         21   -1    0    0  503  502  0.00000000000E+00 -0.00000000000E+00 -0.67127556450E+03  0.67127556450E+03  0.00000000000E+00 0. -1.
         21    1    1    2  503  501 -0.78894107768E+01  0.10737243266E+03 -0.62843765026E+03  0.63759310094E+03  0.00000000000E+00 0. -1.
          2    1    1    2  501    0  0.78894107768E+01 -0.10737243266E+03  0.37478342666E+02  0.11399872046E+03  0.00000000000E+00 0. -1.
<mgrwt>
<rscale>  2 0.10766189E+03</rscale>
<asrwt>0</asrwt>
<pdfrwt beam="2">  1       21 0.10327316E+00 0.10766189E+03</pdfrwt>
<pdfrwt beam="1">  1        2 0.12356348E-01 0.10766189E+03</pdfrwt>
<totfact> 0.46891209E+03</totfact>
</mgrwt>
</event>
<event>
 4    1  0.4926234E+003  0.1131773E+03  0.7546771E-02  0.1254797E+00
         21   -1    0    0  503  502  0.00000000000E+00  0.00000000000E+00  0.67124603659E+01  0.67124603659E+01  0.00000000000E+00 0.  1.
          2   -1    0    0  502    0 -0.00000000000E+00 -0.00000000000E+00 -0.20462504563E+04  0.20462504563E+04  0.00000000000E+00 0.  1.
         21    1    1    2  503  501 -0.14390000050E+02 -0.11225876021E+03 -0.75320559529E+03  0.76166119116E+03  0.00000000000E+00 0.  1.
          2    1    1    2  501    0  0.14390000050E+02  0.11225876021E+03 -0.12863324006E+04  0.12913017255E+04  0.00000000000E+00 0.  1.
<mgrwt>
<rscale>  2 0.11317730E+03</rscale>
<asrwt>0</asrwt>
<pdfrwt beam="1">  1       21 0.10326866E-02 0.11317730E+03</pdfrwt>
<pdfrwt beam="2">  1        2 0.31480766E+00 0.11317730E+03</pdfrwt>
<totfact> 0.32417095E+05</totfact>
</mgrwt>
</event>
<event>
 4    1  0.4926234E+003  0.1216272E+03  0.7546771E-02  0.1240437E+00
         21   -1    0    0  503  502  0.00000000000E+00  0.00000000000E+00  0.38141999762E+03  0.38141999762E+03  0.00000000000E+00 0.  1.
          1   -1    0    0  502    0 -0.00000000000E+00 -0.00000000000E+00 -0.46070755315E+02  0.46070755315E+02  0.00000000000E+00 0. -1.
         21    1    1    2  503  501 -0.10574561670E+03 -0.60091856713E+02  0.25267827612E+03  0.28042731307E+03  0.00000000000E+00 0.  1.
          1    1    1    2  501    0  0.10574561670E+03  0.60091856713E+02  0.82670966187E+02  0.14706343986E+03  0.00000000000E+00 0. -1.
<mgrwt>
<rscale>  2 0.12162716E+03</rscale>
<asrwt>0</asrwt>
<pdfrwt beam="1">  1       21 0.58679998E-01 0.12162716E+03</pdfrwt>
<pdfrwt beam="2">  1        1 0.70878088E-02 0.12162716E+03</pdfrwt>
<totfact> 0.29453290E+04</totfact>
</mgrwt>
</event>
<event>
 4    1  0.4926234E+003  0.1347194E+03  0.7546771E-02  0.1220616E+00
         21   -1    0    0  503  502  0.00000000000E+00  0.00000000000E+00  0.65608721459E+03  0.65608721459E+03  0.00000000000E+00 0. -1.
         -1   -1    0    0    0  501 -0.00000000000E+00 -0.00000000000E+00 -0.11678833836E+03  0.11678833836E+03  0.00000000000E+00 0.  1.
         21    1    1    2  503  501 -0.11938458459E+03 -0.62423074808E+02  0.60723239264E+03  0.62199718486E+03  0.00000000000E+00 0. -1.
         -1    1    1    2    0  502  0.11938458459E+03  0.62423074808E+02 -0.67933516408E+02  0.15087836809E+03  0.00000000000E+00 0.  1.
<mgrwt>
<rscale>  2 0.13471941E+03</rscale>
<asrwt>0</asrwt>
<pdfrwt beam="1">  1       21 0.10093649E+00 0.13471941E+03</pdfrwt>
<pdfrwt beam="2">  1       -1 0.17967437E-01 0.13471941E+03</pdfrwt>
<totfact> 0.17852712E+03</totfact>
</mgrwt>
</event>
<event>
 4    1  0.4926234E+003  0.1370620E+03  0.7546771E-02  0.1217338E+00
         21   -1    0    0  501  502  0.00000000000E+00  0.00000000000E+00  0.17800920524E+02  0.17800920524E+02  0.00000000000E+00 0.  1.
          1   -1    0    0  503    0 -0.00000000000E+00 -0.00000000000E+00 -0.12409938187E+04  0.12409938187E+04  0.00000000000E+00 0. -1.
         21    1    1    2  503  502 -0.19004909773E+02 -0.13573799978E+03 -0.36815519359E+03  0.39284123733E+03  0.00000000000E+00 0.  1.
          1    1    1    2  501    0  0.19004909773E+02  0.13573799978E+03 -0.85503770460E+03  0.86595350190E+03  0.00000000000E+00 0. -1.
<mgrwt>
<rscale>  2 0.13706200E+03</rscale>
<asrwt>0</asrwt>
<pdfrwt beam="1">  1       21 0.27386024E-02 0.13706200E+03</pdfrwt>
<pdfrwt beam="2">  1        1 0.19092218E+00 0.13706200E+03</pdfrwt>
<totfact> 0.89235303E+04</totfact>
</mgrwt>
</event>
<event>
 4    1  0.4926234E+003  0.1272183E+03  0.7546771E-02  0.1231643E+00
          2   -1    0    0  503    0 -0.00000000000E+00  0.00000000000E+00  0.30983967213E+03  0.30983967213E+03  0.00000000000E+00 0.  1.
         21   -1    0    0  501  502  0.00000000000E+00 -0.00000000000E+00 -0.70702080060E+02  0.70702080060E+02  0.00000000000E+00 0. -1.
         21    1    1    2  503  502 -0.76826197899E+01  0.12698613974E+03  0.22326699992E+02  0.12916262566E+03  0.00000000000E+00 0. -1.
          2    1    1    2  501    0  0.76826197899E+01 -0.12698613974E+03  0.21681089208E+03  0.25137912654E+03  0.00000000000E+00 0.  1.
<mgrwt>
<rscale>  2 0.12721833E+03</rscale>
<asrwt>0</asrwt>
<pdfrwt beam="2">  1       21 0.10877243E-01 0.12721833E+03</pdfrwt>
<pdfrwt beam="1">  1        2 0.47667641E-01 0.12721833E+03</pdfrwt>
<totfact> 0.90774515E+04</totfact>
</mgrwt>
</event>
<event>
 4    1  0.4926234E+003  0.1863925E+03  0.7546771E-02  0.1161756E+00
         21   -1    0    0  501  502  0.00000000000E+00  0.00000000000E+00  0.32116583754E+02  0.32116583754E+02  0.00000000000E+00 0.  1.
          2   -1    0    0  503    0 -0.00000000000E+00 -0.00000000000E+00 -0.14437529011E+04  0.14437529011E+04  0.00000000000E+00 0.  1.
         21    1    1    2  503  502  0.16502148103E+03 -0.86660751113E+02 -0.33630796984E+03  0.38450647011E+03  0.00000000000E+00 0.  1.
          2    1    1    2  501    0 -0.16502148103E+03  0.86660751113E+02 -0.10753283475E+04  0.10913630148E+04  0.00000000000E+00 0.  1.
<mgrwt>
<rscale>  2 0.18639253E+03</rscale>
<asrwt>0</asrwt>
<pdfrwt beam="1">  1       21 0.49410137E-02 0.18639253E+03</pdfrwt>
<pdfrwt beam="2">  1        2 0.22211579E+00 0.18639253E+03</pdfrwt>
<totfact> 0.51646984E+04</totfact>
</mgrwt>
</event>
<event>
 4    1  0.4926234E+003  0.1078966E+03  0.7546771E-02  0.1264515E+00
          2   -1    0    0  503    0 -0.00000000000E+00  0.00000000000E+00  0.10146412927E+04  0.10146412927E+04  0.00000000000E+00 0. -1.
         21   -1    0    0  501  502  0.00000000000E+00 -0.00000000000E+00 -0.34985170243E+02  0.34985170243E+02  0.00000000000E+00 0. -1.
         21    1    1    2  503  502 -0.62749613022E+02  0.87773405393E+02  0.59596049780E+02  0.12326140425E+03  0.00000000000E+00 0. -1.
          2    1    1    2  501    0  0.62749613022E+02 -0.87773405393E+02  0.92006007264E+03  0.92636505865E+03  0.00000000000E+00 0. -1.
<mgrwt>
<rscale>  2 0.10789664E+03</rscale>
<asrwt>0</asrwt>
<pdfrwt beam="2">  1       21 0.53823347E-02 0.10789664E+03</pdfrwt>
<pdfrwt beam="1">  1        2 0.15609864E+00 0.10789664E+03</pdfrwt>
<totfact> 0.77642983E+04</totfact>
</mgrwt>
</event>
<event>
 4    1  0.4926234E+003  0.1174164E+03  0.7546771E-02  0.1247421E+00
         21   -1    0    0  501  502  0.00000000000E+00  0.00000000000E+00  0.22327453936E+02  0.22327453936E+02  0.00000000000E+00 0.  1.
          2   -1    0    0  503    0 -0.00000000000E+00 -0.00000000000E+00 -0.87662696321E+03  0.87662696321E+03  0.00000000000E+00 0. -1.
         21    1    1    2  503  502  0.16873619744E+02 -0.11619760865E+03 -0.18276221168E+03  0.21722943935E+03  0.00000000000E+00 0.  1.
          2    1    1    2  501    0 -0.16873619744E+02  0.11619760865E+03 -0.67153729759E+03  0.68172497780E+03  0.00000000000E+00 0. -1.
<mgrwt>
<rscale>  2 0.11741637E+03</rscale>
<asrwt>0</asrwt>
<pdfrwt beam="1">  1       21 0.34349929E-02 0.11741637E+03</pdfrwt>
<pdfrwt beam="2">  1        2 0.13486569E+00 0.11741637E+03</pdfrwt>
<totfact> 0.19911672E+05</totfact>
</mgrwt>
</event>
<event>
 4    1  0.4926234E+003  0.2350328E+03  0.7546771E-02  0.1123147E+00
         21   -1    0    0  503  502  0.00000000000E+00  0.00000000000E+00  0.22754644157E+03  0.22754644157E+03  0.00000000000E+00 0.  1.
         -2   -1    0    0    0  501 -0.00000000000E+00 -0.00000000000E+00 -0.79885336506E+03  0.79885336506E+03  0.00000000000E+00 0. -1.
         21    1    1    2  503  501 -0.22859108932E+03 -0.54649137697E+02  0.14252494301E+03  0.27487046722E+03  0.00000000000E+00 0.  1.
         -2    1    1    2    0  502  0.22859108932E+03  0.54649137697E+02 -0.71383186650E+03  0.75152933941E+03  0.00000000000E+00 0. -1.
<mgrwt>
<rscale>  2 0.23503279E+03</rscale>
<asrwt>0</asrwt>
<pdfrwt beam="1">  1       21 0.35007145E-01 0.23503279E+03</pdfrwt>
<pdfrwt beam="2">  1       -2 0.12290052E+00 0.23503279E+03</pdfrwt>
<totfact> 0.33386015E+02</totfact>
</mgrwt>
</event>
<event>
 4    1  0.4926234E+003  0.1005287E+03  0.7546771E-02  0.1279188E+00
         21   -1    0    0  503  502  0.00000000000E+00  0.00000000000E+00  0.29811863928E+02  0.29811863928E+02  0.00000000000E+00 0. -1.
          2   -1    0    0  502    0 -0.00000000000E+00 -0.00000000000E+00 -0.12436597137E+04  0.12436597137E+04  0.00000000000E+00 0. -1.
         21    1    1    2  503  501  0.93307548353E+02 -0.37412824139E+02 -0.63857761034E+02  0.11909589260E+03  0.00000000000E+00 0. -1.
          2    1    1    2  501    0 -0.93307548353E+02  0.37412824139E+02 -0.11499900888E+04  0.11543756851E+04  0.00000000000E+00 0. -1.
<mgrwt>
<rscale>  2 0.10052869E+03</rscale>
<asrwt>0</asrwt>
<pdfrwt beam="1">  1       21 0.45864397E-02 0.10052869E+03</pdfrwt>
<pdfrwt beam="2">  1        2 0.19133230E+00 0.10052869E+03</pdfrwt>
<totfact> 0.75440192E+04</totfact>
</mgrwt>
</event>
<event>
 4    1  0.4926234E+003  0.1237012E+03  0.7546771E-02  0.1237113E+00
          2   -1    0    0  502    0 -0.00000000000E+00  0.00000000000E+00  0.30388568097E+04  0.30388568097E+04  0.00000000000E+00 0.  1.
         21   -1    0    0  503  502  0.00000000000E+00 -0.00000000000E+00 -0.11811172739E+02  0.11811172739E+02  0.00000000000E+00 0.  1.
         21    1    1    2  503  501  0.10421394742E+03 -0.66644055236E+02  0.35821791719E+03  0.37897500331E+03  0.00000000000E+00 0.  1.
          2    1    1    2  501    0 -0.10421394742E+03  0.66644055236E+02  0.26688277198E+04  0.26716929791E+04  0.00000000000E+00 0.  1.
<mgrwt>
<rscale>  2 0.12370116E+03</rscale>
<asrwt>0</asrwt>
<pdfrwt beam="2">  1       21 0.18171059E-02 0.12370116E+03</pdfrwt>
<pdfrwt beam="1">  1        2 0.46751581E+00 0.12370116E+03</pdfrwt>
<totfact> 0.38587373E+04</totfact>
</mgrwt>
</event>
<event>
 4    1  0.4926234E+003  0.1782421E+03  0.7546771E-02  0.1169515E+00
         -1   -1    0    0    0  501 -0.00000000000E+00  0.00000000000E+00  0.14248972620E+04  0.14248972620E+04  0.00000000000E+00 0. -1.
         21   -1    0    0  503  502  0.00000000000E+00 -0.00000000000E+00 -0.37234457498E+02  0.37234457498E+02  0.00000000000E+00 0. -1.
         21    1    1    2  503  501 -0.13815028585E+03  0.11262655018E+03  0.23077979199E+03  0.29159827447E+03  0.00000000000E+00 0. -1.
         -1    1    1    2    0  502  0.13815028585E+03 -0.11262655018E+03  0.11568830125E+04  0.11705334450E+04  0.00000000000E+00 0. -1.
<mgrwt>
<rscale>  2 0.17824209E+03</rscale>
<asrwt>0</asrwt>
<pdfrwt beam="2">  1       21 0.57283792E-02 0.17824209E+03</pdfrwt>
<pdfrwt beam="1">  1       -1 0.21921492E+00 0.17824209E+03</pdfrwt>
<totfact> 0.25542043E+03</totfact>
</mgrwt>
</event>
<event>
 4    1  0.4926234E+003  0.1014461E+03  0.7546771E-02  0.1277284E+00
          1   -1    0    0  502    0 -0.00000000000E+00  0.00000000000E+00  0.36735680462E+02  0.36735680462E+02  0.00000000000E+00 0.  1.
         21   -1    0    0  503  502  0.00000000000E+00 -0.00000000000E+00 -0.35810702636E+03  0.35810702636E+03  0.00000000000E+00 0.  1.
         21    1    1    2  503  501  0.75336805897E+02  0.67938812334E+02 -0.25280045163E+03  0.27239564036E+03  0.00000000000E+00 0.  1.
          1    1    1    2  501    0 -0.75336805897E+02 -0.67938812334E+02 -0.68570894272E+02  0.12244706646E+03  0.00000000000E+00 0.  1.
<mgrwt>
<rscale>  2 0.10144613E+03</rscale>
<asrwt>0</asrwt>
<pdfrwt beam="2">  1       21 0.55093386E-01 0.10144613E+03</pdfrwt>
<pdfrwt beam="1">  1        1 0.56516434E-02 0.10144613E+03</pdfrwt>
<totfact> 0.45445999E+04</totfact>
</mgrwt>
</event>
<event>
 4    1  0.4926234E+003  0.1601823E+03  0.7546771E-02  0.1188491E+00
          2   -1    0    0  502    0 -0.00000000000E+00  0.00000000000E+00  0.37901912368E+04  0.37901912368E+04  0.00000000000E+00 0.  1.
         21   -1    0    0  503  502  0.00000000000E+00 -0.00000000000E+00 -0.17440126627E+03  0.17440126627E+03  0.00000000000E+00 0.  1.
         21    1    1    2  503  501  0.14800414980E+03  0.61262888333E+02 -0.13554741808E+03  0.20983677559E+03  0.00000000000E+00 0.  1.
          2    1    1    2  501    0 -0.14800414980E+03 -0.61262888333E+02  0.37513373886E+04  0.37547557275E+04  0.00000000000E+00 0.  1.
<mgrwt>
<rscale>  2 0.16018230E+03</rscale>
<asrwt>0</asrwt>
<pdfrwt beam="2">  1       21 0.26830967E-01 0.16018230E+03</pdfrwt>
<pdfrwt beam="1">  1        2 0.58310628E+00 0.16018230E+03</pdfrwt>
<totfact> 0.11774198E+02</totfact>
</mgrwt>
</event>
<event>
 4    1  0.4926234E+003  0.1114767E+03  0.7546771E-02  0.1257859E+00
          2   -1    0    0  503    0 -0.00000000000E+00  0.00000000000E+00  0.21083014348E+03  0.21083014348E+03  0.00000000000E+00 0.  1.
         21   -1    0    0  501  502  0.00000000000E+00 -0.00000000000E+00 -0.59852329010E+02  0.59852329010E+02  0.00000000000E+00 0.  1.
         21    1    1    2  503  502  0.89127094641E+02 -0.66958300729E+02  0.58810828042E+02  0.12603875012E+03  0.00000000000E+00 0.  1.
          2    1    1    2  501    0 -0.89127094641E+02  0.66958300729E+02  0.92166986432E+02  0.14464372238E+03  0.00000000000E+00 0.  1.
<mgrwt>
<rscale>  2 0.11147669E+03</rscale>
<asrwt>0</asrwt>
<pdfrwt beam="2">  1       21 0.92080507E-02 0.11147669E+03</pdfrwt>
<pdfrwt beam="1">  1        2 0.32435406E-01 0.11147669E+03</pdfrwt>
<totfact> 0.18168069E+05</totfact>
</mgrwt>
</event>
<event>
 4    1  0.4926234E+003  0.1015709E+03  0.7546771E-02  0.1277027E+00
         21   -1    0    0  503  502  0.00000000000E+00  0.00000000000E+00  0.17674737680E+03  0.17674737680E+03  0.00000000000E+00 0.  1.
          2   -1    0    0  502    0 -0.00000000000E+00 -0.00000000000E+00 -0.12468494504E+03  0.12468494504E+03  0.00000000000E+00 0.  1.
         21    1    1    2  503  501  0.10128798833E+03  0.75761479177E+01  0.13594703088E+03  0.16970047084E+03  0.00000000000E+00 0.  1.
          2    1    1    2  501    0 -0.10128798833E+03 -0.75761479177E+01 -0.83884599121E+02  0.13173185100E+03  0.00000000000E+00 0.  1.
<mgrwt>
<rscale>  2 0.10157093E+03</rscale>
<asrwt>0</asrwt>
<pdfrwt beam="1">  1       21 0.27191904E-01 0.10157093E+03</pdfrwt>
<pdfrwt beam="2">  1        2 0.19182299E-01 0.10157093E+03</pdfrwt>
<totfact> 0.45569474E+04</totfact>
</mgrwt>
</event>
<event>
 4    1  0.4926234E+003  0.1354527E+03  0.7546771E-02  0.1219582E+00
          2   -1    0    0  503    0 -0.00000000000E+00  0.00000000000E+00  0.70877661291E+03  0.70877661291E+03  0.00000000000E+00 0. -1.
         21   -1    0    0  501  502  0.00000000000E+00 -0.00000000000E+00 -0.27343273554E+02  0.27343273554E+02  0.00000000000E+00 0. -1.
         21    1    1    2  503  502 -0.14424505236E+02 -0.13468242732E+03  0.25574829949E+03  0.28940389644E+03  0.00000000000E+00 0. -1.
          2    1    1    2  501    0  0.14424505236E+02  0.13468242732E+03  0.42568503986E+03  0.44671599003E+03  0.00000000000E+00 0. -1.
<mgrwt>
<rscale>  2 0.13545266E+03</rscale>
<asrwt>0</asrwt>
<pdfrwt beam="2">  1       21 0.42066580E-02 0.13545266E+03</pdfrwt>
<pdfrwt beam="1">  1        2 0.10904254E+00 0.13545266E+03</pdfrwt>
<totfact> 0.18593905E+05</totfact>
</mgrwt>
</event>
<event>
 4    1  0.4926234E+003  0.1357775E+03  0.7546771E-02  0.1219126E+00
         21   -1    0    0  501  502  0.00000000000E+00  0.00000000000E+00  0.18815635897E+03  0.18815635897E+03  0.00000000000E+00 0.  1.
          1   -1    0    0  503    0 -0.00000000000E+00 -0.00000000000E+00 -0.10864315451E+03  0.10864315451E+03  0.00000000000E+00 0.  1.
         21    1    1    2  503  502 -0.13148911294E+03 -0.33854789383E+02  0.86248547824E+02  0.16085504527E+03  0.00000000000E+00 0.  1.
          1    1    1    2  501    0  0.13148911294E+03  0.33854789383E+02 -0.67353433611E+01  0.13594446821E+03  0.00000000000E+00 0.  1.
<mgrwt>
<rscale>  2 0.13577752E+03</rscale>
<asrwt>0</asrwt>
<pdfrwt beam="1">  1       21 0.28947132E-01 0.13577752E+03</pdfrwt>
<pdfrwt beam="2">  1        1 0.16714332E-01 0.13577752E+03</pdfrwt>
<totfact> 0.39462578E+04</totfact>
</mgrwt>
</event>
<event>
 4    1  0.4926234E+003  0.1006620E+03  0.7546771E-02  0.1278910E+00
         21   -1    0    0  503  502  0.00000000000E+00  0.00000000000E+00  0.20269000690E+02  0.20269000690E+02  0.00000000000E+00 0.  1.
          1   -1    0    0  502    0 -0.00000000000E+00 -0.00000000000E+00 -0.35722334481E+04  0.35722334481E+04  0.00000000000E+00 0.  1.
         21    1    1    2  503  501 -0.35229637051E+02 -0.94295831771E+02 -0.11015449152E+03  0.14922078682E+03  0.00000000000E+00 0.  1.
          1    1    1    2  501    0  0.35229637051E+02  0.94295831771E+02 -0.34418099559E+04  0.34432816620E+04  0.00000000000E+00 0.  1.
<mgrwt>
<rscale>  2 0.10066197E+03</rscale>
<asrwt>0</asrwt>
<pdfrwt beam="1">  1       21 0.31183123E-02 0.10066197E+03</pdfrwt>
<pdfrwt beam="2">  1        1 0.54957358E+00 0.10066197E+03</pdfrwt>
<totfact> 0.20737562E+03</totfact>
</mgrwt>
</event>
<event>
 4    1  0.4926234E+003  0.1081504E+03  0.7546771E-02  0.1264034E+00
          1   -1    0    0  502    0 -0.00000000000E+00  0.00000000000E+00  0.18911749402E+04  0.18911749402E+04  0.00000000000E+00 0.  1.
         21   -1    0    0  503  502  0.00000000000E+00 -0.00000000000E+00 -0.14041926180E+03  0.14041926180E+03  0.00000000000E+00 0.  1.
         21    1    1    2  503  501  0.10812651939E+03 -0.22707078240E+01 -0.11779691625E+03  0.15991439518E+03  0.00000000000E+00 0.  1.
          1    1    1    2  501    0 -0.10812651939E+03  0.22707078240E+01  0.18685525947E+04  0.18716798068E+04  0.00000000000E+00 0.  1.
<mgrwt>
<rscale>  2 0.10815036E+03</rscale>
<asrwt>0</asrwt>
<pdfrwt beam="2">  1       21 0.21602965E-01 0.10815036E+03</pdfrwt>
<pdfrwt beam="1">  1        1 0.29094997E+00 0.10815036E+03</pdfrwt>
<totfact> 0.97311576E+02</totfact>
</mgrwt>
</event>
<event>
 4    1  0.4926234E+003  0.1016220E+03  0.7546771E-02  0.1276922E+00
         21   -1    0    0  503  502  0.00000000000E+00  0.00000000000E+00  0.24466777404E+04  0.24466777404E+04  0.00000000000E+00 0. -1.
         -3   -1    0    0    0  501 -0.00000000000E+00 -0.00000000000E+00 -0.69402944924E+01  0.69402944924E+01  0.00000000000E+00 0.  1.
         21    1    1    2  503  501  0.92724756486E+02 -0.41582979175E+02  0.19878121994E+04  0.19904080900E+04  0.00000000000E+00 0. -1.
         -3    1    1    2    0  502 -0.92724756486E+02  0.41582979175E+02  0.45192524646E+03  0.46320994485E+03  0.00000000000E+00 0.  1.
<mgrwt>
<rscale>  2 0.10162197E+03</rscale>
<asrwt>0</asrwt>
<pdfrwt beam="1">  1       21 0.37641127E+00 0.10162197E+03</pdfrwt>
<pdfrwt beam="2">  1       -3 0.10677396E-02 0.10162197E+03</pdfrwt>
<totfact> 0.16112548E+03</totfact>
</mgrwt>
</event>
<event>
 4    1  0.4926234E+003  0.1214726E+03  0.7546771E-02  0.1240687E+00
         21   -1    0    0  501  502  0.00000000000E+00  0.00000000000E+00  0.63259539047E+02  0.63259539047E+02  0.00000000000E+00 0. -1.
          3   -1    0    0  503    0 -0.00000000000E+00 -0.00000000000E+00 -0.44068481154E+03  0.44068481154E+03  0.00000000000E+00 0.  1.
         21    1    1    2  503  502 -0.84432615752E+02 -0.87331170385E+02 -0.15840820251E+02  0.12250114901E+03  0.00000000000E+00 0. -1.
          3    1    1    2  501    0  0.84432615752E+02  0.87331170385E+02 -0.36158445224E+03  0.38144320157E+03  0.00000000000E+00 0.  1.
<mgrwt>
<rscale>  2 0.12147263E+03</rscale>
<asrwt>0</asrwt>
<pdfrwt beam="1">  1       21 0.97322367E-02 0.12147263E+03</pdfrwt>
<pdfrwt beam="2">  1        3 0.67797664E-01 0.12147263E+03</pdfrwt>
<totfact> 0.87529736E+03</totfact>
</mgrwt>
</event>
<event>
 4    1  0.4926234E+003  0.1344374E+03  0.7546771E-02  0.1221016E+00
         -1   -1    0    0    0  501 -0.00000000000E+00  0.00000000000E+00  0.39694992021E+03  0.39694992021E+03  0.00000000000E+00 0.  1.
         21   -1    0    0  501  502  0.00000000000E+00 -0.00000000000E+00 -0.11073984370E+03  0.11073984370E+03  0.00000000000E+00 0. -1.
         21    1    1    2  503  502 -0.13413247330E+03 -0.90489942986E+01 -0.51686789468E+02  0.14403099978E+03  0.00000000000E+00 0. -1.
         -1    1    1    2    0  503  0.13413247330E+03  0.90489942986E+01  0.33789686597E+03  0.36365876413E+03  0.00000000000E+00 0.  1.
<mgrwt>
<rscale>  2 0.13443736E+03</rscale>
<asrwt>0</asrwt>
<pdfrwt beam="2">  1       21 0.17036899E-01 0.13443736E+03</pdfrwt>
<pdfrwt beam="1">  1       -1 0.61069218E-01 0.13443736E+03</pdfrwt>
<totfact> 0.81629137E+03</totfact>
</mgrwt>
</event>
<event>
 4    1  0.4926234E+003  0.1127521E+03  0.7546771E-02  0.1255557E+00
         -4   -1    0    0    0  501 -0.00000000000E+00  0.00000000000E+00  0.10023571895E+04  0.10023571895E+04  0.00000000000E+00 0. -1.
         21   -1    0    0  503  502  0.00000000000E+00 -0.00000000000E+00 -0.18724805931E+02  0.18724805931E+02  0.00000000000E+00 0.  1.
         21    1    1    2  503  501 -0.48033045357E+02 -0.10200907849E+03  0.20181438131E+03  0.23117540969E+03  0.00000000000E+00 0.  1.
         -4    1    1    2    0  502  0.48033045357E+02  0.10200907849E+03  0.78181800227E+03  0.78990658575E+03  0.00000000000E+00 0. -1.
<mgrwt>
<rscale>  2 0.11275205E+03</rscale>
<asrwt>0</asrwt>
<pdfrwt beam="2">  1       21 0.28807402E-02 0.11275205E+03</pdfrwt>
<pdfrwt beam="1">  1       -4 0.15420876E+00 0.11275205E+03</pdfrwt>
<totfact> 0.80775010E+03</totfact>
</mgrwt>
</event>
<event>
 4    1  0.4926234E+003  0.1143471E+03  0.7546771E-02  0.1252725E+00
         21   -1    0    0  501  502  0.00000000000E+00  0.00000000000E+00  0.17180609170E+02  0.17180609170E+02  0.00000000000E+00 0.  1.
          1   -1    0    0  503    0 -0.00000000000E+00 -0.00000000000E+00 -0.10767517509E+04  0.10767517509E+04  0.00000000000E+00 0. -1.
         21    1    1    2  503  502  0.52620415227E+02  0.10152017509E+03 -0.23361416971E+03  0.26009773997E+03  0.00000000000E+00 0.  1.
          1    1    1    2  501    0 -0.52620415227E+02 -0.10152017509E+03 -0.82595697203E+03  0.83383462011E+03  0.00000000000E+00 0. -1.
<mgrwt>
<rscale>  2 0.11434708E+03</rscale>
<asrwt>0</asrwt>
<pdfrwt beam="1">  1       21 0.26431706E-02 0.11434708E+03</pdfrwt>
<pdfrwt beam="2">  1        1 0.16565412E+00 0.11434708E+03</pdfrwt>
<totfact> 0.12250463E+05</totfact>
</mgrwt>
</event>
<event>
 4    1  0.4926234E+003  0.1261848E+03  0.7546771E-02  0.1233229E+00
         21   -1    0    0  503  502  0.00000000000E+00  0.00000000000E+00  0.63074274404E+03  0.63074274404E+03  0.00000000000E+00 0. -1.
          1   -1    0    0  502    0 -0.00000000000E+00 -0.00000000000E+00 -0.36898196840E+03  0.36898196840E+03  0.00000000000E+00 0.  1.
         21    1    1    2  503  501  0.32966414677E+02 -0.12180240924E+03  0.61334056441E+03  0.62618628166E+03  0.00000000000E+00 0. -1.
          1    1    1    2  501    0 -0.32966414677E+02  0.12180240924E+03 -0.35157978877E+03  0.37353843077E+03  0.00000000000E+00 0.  1.
<mgrwt>
<rscale>  2 0.12618483E+03</rscale>
<asrwt>0</asrwt>
<pdfrwt beam="1">  1       21 0.97037345E-01 0.12618483E+03</pdfrwt>
<pdfrwt beam="2">  1        1 0.56766457E-01 0.12618483E+03</pdfrwt>
<totfact> 0.68084283E+02</totfact>
</mgrwt>
</event>
<event>
 4    1  0.4926234E+003  0.1028353E+03  0.7546771E-02  0.1274444E+00
         21   -1    0    0  501  502  0.00000000000E+00  0.00000000000E+00  0.19730015844E+02  0.19730015844E+02  0.00000000000E+00 0.  1.
          2   -1    0    0  503    0 -0.00000000000E+00 -0.00000000000E+00 -0.73736836463E+03  0.73736836463E+03  0.00000000000E+00 0.  1.
         21    1    1    2  503  502  0.89880098777E+02 -0.49966607727E+02 -0.16099183054E+03  0.19103262429E+03  0.00000000000E+00 0.  1.
          2    1    1    2  501    0 -0.89880098777E+02  0.49966607727E+02 -0.55664651825E+03  0.56606575619E+03  0.00000000000E+00 0.  1.
<mgrwt>
<rscale>  2 0.10283528E+03</rscale>
<asrwt>0</asrwt>
<pdfrwt beam="1">  1       21 0.30353868E-02 0.10283528E+03</pdfrwt>
<pdfrwt beam="2">  1        2 0.11344130E+00 0.10283528E+03</pdfrwt>
<totfact> 0.30026163E+05</totfact>
</mgrwt>
</event>
<event>
 4    1  0.4926234E+003  0.1002135E+03  0.7546771E-02  0.1279848E+00
          2   -1    0    0  502    0 -0.00000000000E+00  0.00000000000E+00  0.14839909870E+04  0.14839909870E+04  0.00000000000E+00 0. -1.
         21   -1    0    0  503  502  0.00000000000E+00 -0.00000000000E+00 -0.93809508237E+02  0.93809508237E+02  0.00000000000E+00 0. -1.
         21    1    1    2  503  501  0.96876809438E+02 -0.25644325212E+02 -0.64821405209E+02  0.11935058523E+03  0.00000000000E+00 0. -1.
          2    1    1    2  501    0 -0.96876809438E+02  0.25644325212E+02  0.14550028840E+04  0.14584499100E+04  0.00000000000E+00 0. -1.
<mgrwt>
<rscale>  2 0.10021351E+03</rscale>
<asrwt>0</asrwt>
<pdfrwt beam="2">  1       21 0.14432233E-01 0.10021351E+03</pdfrwt>
<pdfrwt beam="1">  1        2 0.22830629E+00 0.10021351E+03</pdfrwt>
<totfact> 0.78756655E+03</totfact>
</mgrwt>
</event>
<event>
 4    1  0.4926234E+003  0.1153886E+03  0.7546771E-02  0.1250904E+00
          1   -1    0    0  503    0 -0.00000000000E+00  0.00000000000E+00  0.41101328625E+03  0.41101328625E+03  0.00000000000E+00 0. -1.
         21   -1    0    0  501  502  0.00000000000E+00 -0.00000000000E+00 -0.12462345753E+03  0.12462345753E+03  0.00000000000E+00 0. -1.
         21    1    1    2  503  502 -0.35050669715E+02 -0.10993629872E+03 -0.87200745227E+02  0.14463232416E+03  0.00000000000E+00 0. -1.
          1    1    1    2  501    0  0.35050669715E+02  0.10993629872E+03  0.37359057395E+03  0.39100441962E+03  0.00000000000E+00 0. -1.
<mgrwt>
<rscale>  2 0.11538864E+03</rscale>
<asrwt>0</asrwt>
<pdfrwt beam="2">  1       21 0.19172840E-01 0.11538864E+03</pdfrwt>
<pdfrwt beam="1">  1        1 0.63232813E-01 0.11538864E+03</pdfrwt>
<totfact> 0.16245209E+04</totfact>
</mgrwt>
</event>
<event>
 4    1  0.4926234E+003  0.1044192E+03  0.7546771E-02  0.1271268E+00
          1   -1    0    0  503    0 -0.00000000000E+00  0.00000000000E+00  0.97423493364E+03  0.97423493364E+03  0.00000000000E+00 0.  1.
         21   -1    0    0  501  502  0.00000000000E+00 -0.00000000000E+00 -0.15599322478E+02  0.15599322478E+02  0.00000000000E+00 0.  1.
         21    1    1    2  503  502 -0.10124270960E+03 -0.25559242507E+02  0.21624194445E+03  0.24013317068E+03  0.00000000000E+00 0.  1.
          1    1    1    2  501    0  0.10124270960E+03  0.25559242507E+02  0.74239366672E+03  0.74970108544E+03  0.00000000000E+00 0.  1.
<mgrwt>
<rscale>  2 0.10441916E+03</rscale>
<asrwt>0</asrwt>
<pdfrwt beam="2">  1       21 0.23998965E-02 0.10441916E+03</pdfrwt>
<pdfrwt beam="1">  1        1 0.14988225E+00 0.10441916E+03</pdfrwt>
<totfact> 0.16934508E+05</totfact>
</mgrwt>
</event>
<event>
 4    1  0.4926234E+003  0.1185872E+03  0.7546771E-02  0.1245446E+00
         21   -1    0    0  501  502  0.00000000000E+00  0.00000000000E+00  0.26412455830E+02  0.26412455830E+02  0.00000000000E+00 0.  1.
          1   -1    0    0  503    0 -0.00000000000E+00 -0.00000000000E+00 -0.98918616274E+03  0.98918616274E+03  0.00000000000E+00 0.  1.
         21    1    1    2  503  502  0.11679455628E+03 -0.20541479186E+02 -0.13632827130E+03  0.18068845647E+03  0.00000000000E+00 0.  1.
          1    1    1    2  501    0 -0.11679455628E+03  0.20541479186E+02 -0.82644543561E+03  0.83491016210E+03  0.00000000000E+00 0.  1.
<mgrwt>
<rscale>  2 0.11858719E+03</rscale>
<asrwt>0</asrwt>
<pdfrwt beam="1">  1       21 0.40634544E-02 0.11858719E+03</pdfrwt>
<pdfrwt beam="2">  1        1 0.15218250E+00 0.11858719E+03</pdfrwt>
<totfact> 0.69897777E+04</totfact>
</mgrwt>
</event>
<event>
 4    1  0.4926234E+003  0.1042802E+03  0.7546771E-02  0.1271544E+00
         21   -1    0    0  501  502  0.00000000000E+00  0.00000000000E+00  0.32446470433E+03  0.32446470433E+03  0.00000000000E+00 0.  1.
          2   -1    0    0  503    0 -0.00000000000E+00 -0.00000000000E+00 -0.62424946081E+03  0.62424946081E+03  0.00000000000E+00 0. -1.
         21    1    1    2  503  502 -0.93919670436E+02  0.45315061667E+02  0.31155537935E+03  0.32854392965E+03  0.00000000000E+00 0.  1.
          2    1    1    2  501    0  0.93919670436E+02 -0.45315061667E+02 -0.61134013583E+03  0.62017023549E+03  0.00000000000E+00 0. -1.
<mgrwt>
<rscale>  2 0.10428020E+03</rscale>
<asrwt>0</asrwt>
<pdfrwt beam="1">  1       21 0.49917647E-01 0.10428020E+03</pdfrwt>
<pdfrwt beam="2">  1        2 0.96038378E-01 0.10428020E+03</pdfrwt>
<totfact> 0.24307191E+03</totfact>
</mgrwt>
</event>
<event>
 4    1  0.4926234E+003  0.1090870E+03  0.7546771E-02  0.1262270E+00
         21   -1    0    0  501  502  0.00000000000E+00  0.00000000000E+00  0.64365788912E+03  0.64365788912E+03  0.00000000000E+00 0.  1.
          4   -1    0    0  503    0 -0.00000000000E+00 -0.00000000000E+00 -0.24532730844E+03  0.24532730844E+03  0.00000000000E+00 0.  1.
         21    1    1    2  503  502  0.66323497107E+02 -0.86609244304E+02  0.62658122955E+03  0.63600629296E+03  0.00000000000E+00 0.  1.
          4    1    1    2  501    0 -0.66323497107E+02  0.86609244304E+02 -0.22825064887E+03  0.25297890460E+03  0.00000000000E+00 0.  1.
<mgrwt>
<rscale>  2 0.10908697E+03</rscale>
<asrwt>0</asrwt>
<pdfrwt beam="1">  1       21 0.99024290E-01 0.10908697E+03</pdfrwt>
<pdfrwt beam="2">  1        4 0.37742663E-01 0.10908697E+03</pdfrwt>
<totfact> 0.24397624E+02</totfact>
</mgrwt>
</event>
<event>
 4    1  0.4926234E+003  0.1006211E+03  0.7546771E-02  0.1278995E+00
         21   -1    0    0  501  502  0.00000000000E+00  0.00000000000E+00  0.10986384983E+04  0.10986384983E+04  0.00000000000E+00 0.  1.
          4   -1    0    0  503    0 -0.00000000000E+00 -0.00000000000E+00 -0.13365022030E+02  0.13365022030E+02  0.00000000000E+00 0.  1.
         21    1    1    2  503  502  0.42088885219E+02  0.91395478552E+02  0.85243956643E+03  0.85835763070E+03  0.00000000000E+00 0.  1.
          4    1    1    2  501    0 -0.42088885219E+02 -0.91395478552E+02  0.23283390988E+03  0.25364588968E+03  0.00000000000E+00 0.  1.
<mgrwt>
<rscale>  2 0.10062111E+03</rscale>
<asrwt>0</asrwt>
<pdfrwt beam="1">  1       21 0.16902124E+00 0.10062111E+03</pdfrwt>
<pdfrwt beam="2">  1        4 0.20561581E-02 0.10062111E+03</pdfrwt>
<totfact> 0.87230231E+03</totfact>
</mgrwt>
</event>
<event>
 4    1  0.4926234E+003  0.1527876E+03  0.7546771E-02  0.1197089E+00
         21   -1    0    0  501  502  0.00000000000E+00  0.00000000000E+00  0.10923697035E+04  0.10923697035E+04  0.00000000000E+00 0.  1.
         -1   -1    0    0    0  501 -0.00000000000E+00 -0.00000000000E+00 -0.11618662274E+03  0.11618662274E+03  0.00000000000E+00 0. -1.
         21    1    1    2  503  502 -0.25511923907E+02 -0.15064260040E+03  0.10339761437E+04  0.10452036726E+04  0.00000000000E+00 0.  1.
         -1    1    1    2    0  503  0.25511923907E+02  0.15064260040E+03 -0.57793063023E+02  0.16335265363E+03  0.00000000000E+00 0. -1.
<mgrwt>
<rscale>  2 0.15278760E+03</rscale>
<asrwt>0</asrwt>
<pdfrwt beam="1">  1       21 0.16805687E+00 0.15278760E+03</pdfrwt>
<pdfrwt beam="2">  1       -1 0.17874866E-01 0.15278760E+03</pdfrwt>
<totfact> 0.49532922E+02</totfact>
</mgrwt>
</event>
<event>
 4    1  0.4926234E+003  0.1232774E+03  0.7546771E-02  0.1237786E+00
         21   -1    0    0  501  502  0.00000000000E+00  0.00000000000E+00  0.23093993655E+03  0.23093993655E+03  0.00000000000E+00 0. -1.
         -3   -1    0    0    0  501 -0.00000000000E+00 -0.00000000000E+00 -0.20896223246E+03  0.20896223246E+03  0.00000000000E+00 0. -1.
         21    1    1    2  503  502 -0.12289387708E+03  0.97160922553E+01  0.19304143790E+03  0.22904651104E+03  0.00000000000E+00 0. -1.
         -3    1    1    2    0  503  0.12289387708E+03 -0.97160922553E+01 -0.17106373381E+03  0.21085565797E+03  0.00000000000E+00 0. -1.
<mgrwt>
<rscale>  2 0.12327736E+03</rscale>
<asrwt>0</asrwt>
<pdfrwt beam="1">  1       21 0.35529221E-01 0.12327736E+03</pdfrwt>
<pdfrwt beam="2">  1       -3 0.32148036E-01 0.12327736E+03</pdfrwt>
<totfact> 0.35186567E+03</totfact>
</mgrwt>
</event>
<event>
 4    1  0.4926234E+003  0.1422386E+03  0.7546771E-02  0.1210348E+00
          1   -1    0    0  503    0 -0.00000000000E+00  0.00000000000E+00  0.11585648612E+03  0.11585648612E+03  0.00000000000E+00 0. -1.
         21   -1    0    0  501  502  0.00000000000E+00 -0.00000000000E+00 -0.37245969510E+03  0.37245969510E+03  0.00000000000E+00 0.  1.
         21    1    1    2  503  502 -0.12362584966E+03  0.70345346693E+02 -0.30624386802E+03  0.33766421961E+03  0.00000000000E+00 0.  1.
          1    1    1    2  501    0  0.12362584966E+03 -0.70345346693E+02  0.49640659039E+02  0.15065196160E+03  0.00000000000E+00 0. -1.
<mgrwt>
<rscale>  2 0.14223860E+03</rscale>
<asrwt>0</asrwt>
<pdfrwt beam="2">  1       21 0.57301492E-01 0.14223860E+03</pdfrwt>
<pdfrwt beam="1">  1        1 0.17824075E-01 0.14223860E+03</pdfrwt>
<totfact> 0.91997740E+03</totfact>
</mgrwt>
</event>
<event>
 4    1  0.4926234E+003  0.1176359E+03  0.7546771E-02  0.1247049E+00
         21   -1    0    0  501  502  0.00000000000E+00  0.00000000000E+00  0.17569663590E+02  0.17569663590E+02  0.00000000000E+00 0.  1.
          2   -1    0    0  503    0 -0.00000000000E+00 -0.00000000000E+00 -0.81055773431E+03  0.81055773431E+03  0.00000000000E+00 0.  1.
         21    1    1    2  503  502  0.96366321878E+02  0.67466557842E+02 -0.32683812185E+03  0.34736344412E+03  0.00000000000E+00 0.  1.
          2    1    1    2  501    0 -0.96366321878E+02 -0.67466557842E+02 -0.46614994887E+03  0.48076395378E+03  0.00000000000E+00 0.  1.
<mgrwt>
<rscale>  2 0.11763590E+03</rscale>
<asrwt>0</asrwt>
<pdfrwt beam="1">  1       21 0.27030254E-02 0.11763590E+03</pdfrwt>
<pdfrwt beam="2">  1        2 0.12470118E+00 0.11763590E+03</pdfrwt>
<totfact> 0.32547349E+05</totfact>
</mgrwt>
</event>
<event>
 4    1  0.4926234E+003  0.1378788E+03  0.7546771E-02  0.1216212E+00
         21   -1    0    0  501  502  0.00000000000E+00  0.00000000000E+00  0.20079135230E+03  0.20079135230E+03  0.00000000000E+00 0.  1.
         -3   -1    0    0    0  501 -0.00000000000E+00 -0.00000000000E+00 -0.17913794756E+03  0.17913794756E+03  0.00000000000E+00 0. -1.
         21    1    1    2  503  502  0.46048276258E+02 -0.12996195950E+03  0.14126466336E+03  0.19739873297E+03  0.00000000000E+00 0.  1.
         -3    1    1    2    0  503 -0.46048276258E+02  0.12996195950E+03 -0.11961125862E+03  0.18253056690E+03  0.00000000000E+00 0. -1.
<mgrwt>
<rscale>  2 0.13787877E+03</rscale>
<asrwt>0</asrwt>
<pdfrwt beam="1">  1       21 0.30890977E-01 0.13787877E+03</pdfrwt>
<pdfrwt beam="2">  1       -3 0.27559684E-01 0.13787877E+03</pdfrwt>
<totfact> 0.61687440E+03</totfact>
</mgrwt>
</event>
<event>
 4    1  0.4926234E+003  0.2214714E+03  0.7546771E-02  0.1132791E+00
          2   -1    0    0  503    0 -0.00000000000E+00  0.00000000000E+00  0.56302119489E+03  0.56302119489E+03  0.00000000000E+00 0. -1.
         21   -1    0    0  501  502  0.00000000000E+00 -0.00000000000E+00 -0.10121065294E+03  0.10121065294E+03  0.00000000000E+00 0. -1.
         21    1    1    2  503  502 -0.16941176348E+03  0.14265071641E+03  0.10697854631E+03  0.24595524363E+03  0.00000000000E+00 0. -1.
          2    1    1    2  501    0  0.16941176348E+03 -0.14265071641E+03  0.35483199563E+03  0.41827660420E+03  0.00000000000E+00 0. -1.
<mgrwt>
<rscale>  2 0.22147138E+03</rscale>
<asrwt>0</asrwt>
<pdfrwt beam="2">  1       21 0.15570870E-01 0.22147138E+03</pdfrwt>
<pdfrwt beam="1">  1        2 0.86618644E-01 0.22147138E+03</pdfrwt>
<totfact> 0.24894208E+04</totfact>
</mgrwt>
</event>
<event>
 4    1  0.4926234E+003  0.1420586E+03  0.7546771E-02  0.1210586E+00
         -2   -1    0    0    0  501 -0.00000000000E+00  0.00000000000E+00  0.62934722910E+02  0.62934722910E+02  0.00000000000E+00 0.  1.
         21   -1    0    0  503  502  0.00000000000E+00 -0.00000000000E+00 -0.34858805394E+03  0.34858805394E+03  0.00000000000E+00 0. -1.
         21    1    1    2  503  501  0.26705538898E+02  0.13952579762E+03 -0.20106778689E+03  0.24618872625E+03  0.00000000000E+00 0. -1.
         -2    1    1    2    0  502 -0.26705538898E+02 -0.13952579762E+03 -0.84585544142E+02  0.16533405060E+03  0.00000000000E+00 0.  1.
<mgrwt>
<rscale>  2 0.14205856E+03</rscale>
<asrwt>0</asrwt>
<pdfrwt beam="2">  1       21 0.53628930E-01 0.14205856E+03</pdfrwt>
<pdfrwt beam="1">  1       -2 0.96822653E-02 0.14205856E+03</pdfrwt>
<totfact> 0.18043813E+04</totfact>
</mgrwt>
</event>
<event>
 4    1  0.4926234E+003  0.1638547E+03  0.7546771E-02  0.1184412E+00
         21   -1    0    0  501  502  0.00000000000E+00  0.00000000000E+00  0.37953385552E+02  0.37953385552E+02  0.00000000000E+00 0.  1.
         -2   -1    0    0    0  501 -0.00000000000E+00 -0.00000000000E+00 -0.12046860112E+04  0.12046860112E+04  0.00000000000E+00 0.  1.
         21    1    1    2  503  502 -0.11097454035E+03 -0.12055298286E+03 -0.18417632682E+03  0.24651427878E+03  0.00000000000E+00 0.  1.
         -2    1    1    2    0  503  0.11097454035E+03  0.12055298286E+03 -0.98255629879E+03  0.99612511793E+03  0.00000000000E+00 0.  1.
<mgrwt>
<rscale>  2 0.16385472E+03</rscale>
<asrwt>0</asrwt>
<pdfrwt beam="1">  1       21 0.58389826E-02 0.16385472E+03</pdfrwt>
<pdfrwt beam="2">  1       -2 0.18533630E+00 0.16385472E+03</pdfrwt>
<totfact> 0.30876606E+03</totfact>
</mgrwt>
</event>
<event>
 4    1  0.4926234E+003  0.1080868E+03  0.7546771E-02  0.1264154E+00
         21   -1    0    0  501  502  0.00000000000E+00  0.00000000000E+00  0.47554699212E+02  0.47554699212E+02  0.00000000000E+00 0.  1.
          1   -1    0    0  503    0 -0.00000000000E+00 -0.00000000000E+00 -0.30431722732E+03  0.30431722732E+03  0.00000000000E+00 0.  1.
         21    1    1    2  503  502  0.10703176270E+03  0.15064853917E+02 -0.51145889538E+02  0.11957696295E+03  0.00000000000E+00 0.  1.
          1    1    1    2  501    0 -0.10703176270E+03 -0.15064853917E+02 -0.20561663857E+03  0.23229496359E+03  0.00000000000E+00 0.  1.
<mgrwt>
<rscale>  2 0.10808676E+03</rscale>
<asrwt>0</asrwt>
<pdfrwt beam="1">  1       21 0.73161077E-02 0.10808676E+03</pdfrwt>
<pdfrwt beam="2">  1        1 0.46818034E-01 0.10808676E+03</pdfrwt>
<totfact> 0.12918166E+05</totfact>
</mgrwt>
</event>
<event>
 4    1  0.4926234E+003  0.1283949E+03  0.7546771E-02  0.1229857E+00
         21   -1    0    0  503  502  0.00000000000E+00  0.00000000000E+00  0.78317649982E+03  0.78317649982E+03  0.00000000000E+00 0. -1.
          4   -1    0    0  502    0 -0.00000000000E+00 -0.00000000000E+00 -0.32438864685E+02  0.32438864685E+02  0.00000000000E+00 0. -1.
         21    1    1    2  503  501 -0.11329456472E+03 -0.60411956235E+02  0.61701362259E+03  0.63023096823E+03  0.00000000000E+00 0. -1.
          4    1    1    2  501    0  0.11329456472E+03  0.60411956235E+02  0.13372401255E+03  0.18538439628E+03  0.00000000000E+00 0. -1.
<mgrwt>
<rscale>  2 0.12839495E+03</rscale>
<asrwt>0</asrwt>
<pdfrwt beam="1">  1       21 0.12048868E+00 0.12839495E+03</pdfrwt>
<pdfrwt beam="2">  1        4 0.49905952E-02 0.12839495E+03</pdfrwt>
<totfact> 0.52055558E+03</totfact>
</mgrwt>
</event>
<event>
 4    1  0.4926234E+003  0.1098202E+03  0.7546771E-02  0.1260903E+00
          1   -1    0    0  502    0 -0.00000000000E+00  0.00000000000E+00  0.10909407744E+04  0.10909407744E+04  0.00000000000E+00 0.  1.
         21   -1    0    0  503  502  0.00000000000E+00 -0.00000000000E+00 -0.19283129957E+03  0.19283129957E+03  0.00000000000E+00 0. -1.
         21    1    1    2  503  501 -0.13401286699E+02  0.10899945560E+03 -0.17415991587E+03  0.20589354556E+03  0.00000000000E+00 0. -1.
          1    1    1    2  501    0  0.13401286699E+02 -0.10899945560E+03  0.10722693907E+04  0.10778785285E+04  0.00000000000E+00 0.  1.
<mgrwt>
<rscale>  2 0.10982020E+03</rscale>
<asrwt>0</asrwt>
<pdfrwt beam="2">  1       21 0.29666354E-01 0.10982020E+03</pdfrwt>
<pdfrwt beam="1">  1        1 0.16783704E+00 0.10982020E+03</pdfrwt>
<totfact> 0.17720514E+03</totfact>
</mgrwt>
</event>
<event>
 4    1  0.4926234E+003  0.1830817E+03  0.7546771E-02  0.1164853E+00
         -2   -1    0    0    0  501 -0.00000000000E+00  0.00000000000E+00  0.16559913277E+03  0.16559913277E+03  0.00000000000E+00 0.  1.
         21   -1    0    0  501  502  0.00000000000E+00 -0.00000000000E+00 -0.33758158771E+03  0.33758158771E+03  0.00000000000E+00 0.  1.
         21    1    1    2  503  502  0.15415251355E+03  0.98771951263E+02 -0.24519287877E+03  0.30600399277E+03  0.00000000000E+00 0.  1.
         -2    1    1    2    0  503 -0.15415251355E+03 -0.98771951263E+02  0.73210423833E+02  0.19717672771E+03  0.00000000000E+00 0.  1.
<mgrwt>
<rscale>  2 0.18308166E+03</rscale>
<asrwt>0</asrwt>
<pdfrwt beam="2">  1       21 0.51935629E-01 0.18308166E+03</pdfrwt>
<pdfrwt beam="1">  1       -2 0.25476790E-01 0.18308166E+03</pdfrwt>
<totfact> 0.38760003E+03</totfact>
</mgrwt>
</event>
<event>
 4    1  0.4926234E+003  0.1152926E+03  0.7546771E-02  0.1251071E+00
         21   -1    0    0  503  502  0.00000000000E+00  0.00000000000E+00  0.15946568701E+02  0.15946568701E+02  0.00000000000E+00 0.  1.
          2   -1    0    0  502    0 -0.00000000000E+00 -0.00000000000E+00 -0.18375913524E+04  0.18375913524E+04  0.00000000000E+00 0. -1.
         21    1    1    2  503  501 -0.11180026824E+03  0.28161833722E+02 -0.22577424655E+03  0.25350818382E+03  0.00000000000E+00 0.  1.
          2    1    1    2  501    0  0.11180026824E+03 -0.28161833722E+02 -0.15958705371E+04  0.16000297372E+04  0.00000000000E+00 0. -1.
<mgrwt>
<rscale>  2 0.11529262E+03</rscale>
<asrwt>0</asrwt>
<pdfrwt beam="1">  1       21 0.24533172E-02 0.11529262E+03</pdfrwt>
<pdfrwt beam="2">  1        2 0.28270648E+00 0.11529262E+03</pdfrwt>
<totfact> 0.10394276E+05</totfact>
</mgrwt>
</event>
<event>
 4    1  0.4926234E+003  0.1027905E+03  0.7546771E-02  0.1274535E+00
         21   -1    0    0  501  502  0.00000000000E+00  0.00000000000E+00  0.15054756923E+03  0.15054756923E+03  0.00000000000E+00 0.  1.
         -4   -1    0    0    0  501 -0.00000000000E+00 -0.00000000000E+00 -0.24430139730E+03  0.24430139730E+03  0.00000000000E+00 0.  1.
         21    1    1    2  503  502  0.72580410394E+02 -0.72787201146E+02  0.11979417028E+03  0.15784972555E+03  0.00000000000E+00 0.  1.
         -4    1    1    2    0  503 -0.72580410394E+02  0.72787201146E+02 -0.21354799835E+03  0.23699924097E+03  0.00000000000E+00 0.  1.
<mgrwt>
<rscale>  2 0.10279053E+03</rscale>
<asrwt>0</asrwt>
<pdfrwt beam="1">  1       21 0.23161165E-01 0.10279053E+03</pdfrwt>
<pdfrwt beam="2">  1       -4 0.37584830E-01 0.10279053E+03</pdfrwt>
<totfact> 0.48669587E+03</totfact>
</mgrwt>
</event>
<event>
 4    1  0.4926234E+003  0.1534290E+03  0.7546771E-02  0.1196322E+00
         21   -1    0    0  501  502  0.00000000000E+00  0.00000000000E+00  0.20218616941E+03  0.20218616941E+03  0.00000000000E+00 0. -1.
          2   -1    0    0  503    0 -0.00000000000E+00 -0.00000000000E+00 -0.35068934045E+03  0.35068934045E+03  0.00000000000E+00 0.  1.
         21    1    1    2  503  502  0.57793851838E+02 -0.14212782432E+03  0.15168415447E+03  0.21575108453E+03  0.00000000000E+00 0. -1.
          2    1    1    2  501    0 -0.57793851838E+02  0.14212782432E+03 -0.30018732551E+03  0.33712442533E+03  0.00000000000E+00 0.  1.
<mgrwt>
<rscale>  2 0.15342897E+03</rscale>
<asrwt>0</asrwt>
<pdfrwt beam="1">  1       21 0.31105564E-01 0.15342897E+03</pdfrwt>
<pdfrwt beam="2">  1        2 0.53952207E-01 0.15342897E+03</pdfrwt>
<totfact> 0.11480504E+04</totfact>
</mgrwt>
</event>
<event>
 4    1  0.4926234E+003  0.2324025E+03  0.7546771E-02  0.1124960E+00
         21   -1    0    0  501  502  0.00000000000E+00  0.00000000000E+00  0.14791299643E+03  0.14791299643E+03  0.00000000000E+00 0.  1.
          2   -1    0    0  503    0 -0.00000000000E+00 -0.00000000000E+00 -0.54523337739E+03  0.54523337739E+03  0.00000000000E+00 0.  1.
         21    1    1    2  503  502 -0.23152426202E+03  0.20185546609E+02  0.51553258820E+00  0.23240311093E+03  0.00000000000E+00 0.  1.
          2    1    1    2  501    0  0.23152426202E+03 -0.20185546609E+02 -0.39783591354E+03  0.46074326289E+03  0.00000000000E+00 0.  1.
<mgrwt>
<rscale>  2 0.23240254E+03</rscale>
<asrwt>0</asrwt>
<pdfrwt beam="1">  1       21 0.22755846E-01 0.23240254E+03</pdfrwt>
<pdfrwt beam="2">  1        2 0.83882058E-01 0.23240254E+03</pdfrwt>
<totfact> 0.12703427E+04</totfact>
</mgrwt>
</event>
<event>
 4    1  0.4926234E+003  0.1139296E+03  0.7546771E-02  0.1253461E+00
         21   -1    0    0  503  502  0.00000000000E+00  0.00000000000E+00  0.27697943248E+03  0.27697943248E+03  0.00000000000E+00 0. -1.
          2   -1    0    0  502    0 -0.00000000000E+00 -0.00000000000E+00 -0.35203205325E+03  0.35203205325E+03  0.00000000000E+00 0.  1.
         21    1    1    2  503  501  0.21216124190E+01 -0.11390986103E+03  0.25529862322E+03  0.27956635115E+03  0.00000000000E+00 0. -1.
          2    1    1    2  501    0 -0.21216124190E+01  0.11390986103E+03 -0.33035124398E+03  0.34944513458E+03  0.00000000000E+00 0.  1.
<mgrwt>
<rscale>  2 0.11392962E+03</rscale>
<asrwt>0</asrwt>
<pdfrwt beam="1">  1       21 0.42612220E-01 0.11392962E+03</pdfrwt>
<pdfrwt beam="2">  1        2 0.54158777E-01 0.11392962E+03</pdfrwt>
<totfact> 0.62037053E+03</totfact>
</mgrwt>
</event>
<event>
 4    1  0.4926234E+003  0.1324923E+03  0.7546771E-02  0.1223804E+00
         -2   -1    0    0    0  501 -0.00000000000E+00  0.00000000000E+00  0.14153834719E+03  0.14153834719E+03  0.00000000000E+00 0.  1.
         21   -1    0    0  503  502  0.00000000000E+00 -0.00000000000E+00 -0.77521501048E+03  0.77521501048E+03  0.00000000000E+00 0. -1.
         21    1    1    2  503  501  0.49128724508E+02 -0.12304706418E+03 -0.73695071662E+03  0.74876603175E+03  0.00000000000E+00 0. -1.
         -2    1    1    2    0  502 -0.49128724508E+02  0.12304706418E+03  0.10327405333E+03  0.16798732591E+03  0.00000000000E+00 0.  1.
<mgrwt>
<rscale>  2 0.13249231E+03</rscale>
<asrwt>0</asrwt>
<pdfrwt beam="2">  1       21 0.11926385E+00 0.13249231E+03</pdfrwt>
<pdfrwt beam="1">  1       -2 0.21775131E-01 0.13249231E+03</pdfrwt>
<totfact> 0.79970793E+02</totfact>
</mgrwt>
</event>
<event>
 4    1  0.4926234E+003  0.1351630E+03  0.7546771E-02  0.1219990E+00
          1   -1    0    0  503    0 -0.00000000000E+00  0.00000000000E+00  0.20628122009E+04  0.20628122009E+04  0.00000000000E+00 0. -1.
         21   -1    0    0  501  502  0.00000000000E+00 -0.00000000000E+00 -0.34295878695E+02  0.34295878695E+02  0.00000000000E+00 0. -1.
         21    1    1    2  503  502 -0.12474409690E+03  0.52037921252E+02  0.11118240786E+03  0.17501589292E+03  0.00000000000E+00 0. -1.
          1    1    1    2  501    0  0.12474409690E+03 -0.52037921252E+02  0.19173339143E+04  0.19220921867E+04  0.00000000000E+00 0. -1.
<mgrwt>
<rscale>  2 0.13516299E+03</rscale>
<asrwt>0</asrwt>
<pdfrwt beam="2">  1       21 0.52762906E-02 0.13516299E+03</pdfrwt>
<pdfrwt beam="1">  1        1 0.31735563E+00 0.13516299E+03</pdfrwt>
<totfact> 0.88618021E+03</totfact>
</mgrwt>
</event>
<event>
 4    1  0.4926234E+003  0.1106907E+03  0.7546771E-02  0.1259296E+00
         21   -1    0    0  501  502  0.00000000000E+00  0.00000000000E+00  0.41408905322E+01  0.41408905322E+01  0.00000000000E+00 0.  1.
          2   -1    0    0  503    0 -0.00000000000E+00 -0.00000000000E+00 -0.38039495501E+04  0.38039495501E+04  0.00000000000E+00 0.  1.
         21    1    1    2  503  502  0.13083884729E+02 -0.10991472055E+03 -0.10024674797E+04  0.10085601031E+04  0.00000000000E+00 0.  1.
          2    1    1    2  501    0 -0.13083884729E+02  0.10991472055E+03 -0.27973411799E+04  0.27995303375E+04  0.00000000000E+00 0.  1.
<mgrwt>
<rscale>  2 0.11069071E+03</rscale>
<asrwt>0</asrwt>
<pdfrwt beam="1">  1       21 0.63705653E-03 0.11069071E+03</pdfrwt>
<pdfrwt beam="2">  1        2 0.58522627E+00 0.11069071E+03</pdfrwt>
<totfact> 0.66342983E+04</totfact>
</mgrwt>
</event>
<event>
 4    1  0.4926234E+003  0.1045435E+03  0.7546771E-02  0.1271022E+00
          2   -1    0    0  503    0 -0.00000000000E+00  0.00000000000E+00  0.16962654466E+04  0.16962654466E+04  0.00000000000E+00 0.  1.
         21   -1    0    0  501  502  0.00000000000E+00 -0.00000000000E+00 -0.36698805627E+02  0.36698805627E+02  0.00000000000E+00 0.  1.
         21    1    1    2  503  502  0.10547952330E+02  0.10401003848E+03  0.43033420970E+02  0.11305406991E+03  0.00000000000E+00 0.  1.
          2    1    1    2  501    0 -0.10547952330E+02 -0.10401003848E+03  0.16165332200E+04  0.16199101823E+04  0.00000000000E+00 0.  1.
<mgrwt>
<rscale>  2 0.10454352E+03</rscale>
<asrwt>0</asrwt>
<pdfrwt beam="2">  1       21 0.56459714E-02 0.10454352E+03</pdfrwt>
<pdfrwt beam="1">  1        2 0.26096385E+00 0.10454352E+03</pdfrwt>
<totfact> 0.31041860E+04</totfact>
</mgrwt>
</event>
<event>
 4    1  0.4926234E+003  0.1124154E+03  0.7546771E-02  0.1256161E+00
         21   -1    0    0  501  502  0.00000000000E+00  0.00000000000E+00  0.44752421404E+02  0.44752421404E+02  0.00000000000E+00 0. -1.
          1   -1    0    0  503    0 -0.00000000000E+00 -0.00000000000E+00 -0.18157716821E+04  0.18157716821E+04  0.00000000000E+00 0. -1.
         21    1    1    2  503  502  0.10867282220E+03  0.28765167766E+02 -0.30637522644E+02  0.11651555671E+03  0.00000000000E+00 0. -1.
          1    1    1    2  501    0 -0.10867282220E+03 -0.28765167766E+02 -0.17403817381E+04  0.17440085468E+04  0.00000000000E+00 0. -1.
<mgrwt>
<rscale>  2 0.11241538E+03</rscale>
<asrwt>0</asrwt>
<pdfrwt beam="1">  1       21 0.68849875E-02 0.11241538E+03</pdfrwt>
<pdfrwt beam="2">  1        1 0.27934951E+00 0.11241538E+03</pdfrwt>
<totfact> 0.81923424E+03</totfact>
</mgrwt>
</event>
<event>
 4    1  0.4926234E+003  0.1013066E+03  0.7546771E-02  0.1277572E+00
          2   -1    0    0  503    0 -0.00000000000E+00  0.00000000000E+00  0.91081682868E+03  0.91081682868E+03  0.00000000000E+00 0.  1.
         21   -1    0    0  501  502  0.00000000000E+00 -0.00000000000E+00 -0.13868204926E+03  0.13868204926E+03  0.00000000000E+00 0. -1.
         21    1    1    2  503  502  0.29515351873E+02 -0.96911666070E+02 -0.11691250236E+03  0.15469828772E+03  0.00000000000E+00 0. -1.
          2    1    1    2  501    0 -0.29515351873E+02  0.96911666070E+02  0.88904728178E+03  0.89480059022E+03  0.00000000000E+00 0.  1.
<mgrwt>
<rscale>  2 0.10130660E+03</rscale>
<asrwt>0</asrwt>
<pdfrwt beam="2">  1       21 0.21335700E-01 0.10130660E+03</pdfrwt>
<pdfrwt beam="1">  1        2 0.14012566E+00 0.10130660E+03</pdfrwt>
<totfact> 0.80286540E+03</totfact>
</mgrwt>
</event>
<event>
 4    1  0.4926234E+003  0.2629748E+03  0.7546771E-02  0.1105369E+00
         -2   -1    0    0    0  501 -0.00000000000E+00  0.00000000000E+00  0.46786245814E+03  0.46786245814E+03  0.00000000000E+00 0. -1.
         21   -1    0    0  501  502  0.00000000000E+00 -0.00000000000E+00 -0.23724056782E+04  0.23724056782E+04  0.00000000000E+00 0.  1.
         21    1    1    2  503  502 -0.11210867243E+03 -0.23788107466E+03 -0.23274536837E+04  0.23422630958E+04  0.00000000000E+00 0.  1.
         -2    1    1    2    0  503  0.11210867243E+03  0.23788107466E+03  0.42291046367E+03  0.49800504053E+03  0.00000000000E+00 0. -1.
<mgrwt>
<rscale>  2 0.26297483E+03</rscale>
<asrwt>0</asrwt>
<pdfrwt beam="2">  1       21 0.36498548E+00 0.26297483E+03</pdfrwt>
<pdfrwt beam="1">  1       -2 0.71978841E-01 0.26297483E+03</pdfrwt>
<totfact> 0.18965629E+00</totfact>
</mgrwt>
</event>
<event>
 4    1  0.4926234E+003  0.1106618E+03  0.7546771E-02  0.1259349E+00
          2   -1    0    0  502    0 -0.00000000000E+00  0.00000000000E+00  0.22716496178E+04  0.22716496178E+04  0.00000000000E+00 0. -1.
         21   -1    0    0  503  502  0.00000000000E+00 -0.00000000000E+00 -0.83979641756E+01  0.83979641756E+01  0.00000000000E+00 0. -1.
         21    1    1    2  503  501  0.10911393343E+03 -0.18444133231E+02  0.44943701443E+03  0.46286030988E+03  0.00000000000E+00 0. -1.
          2    1    1    2  501    0 -0.10911393343E+03  0.18444133231E+02  0.18138146392E+04  0.18171872721E+04  0.00000000000E+00 0. -1.
<mgrwt>
<rscale>  2 0.11066181E+03</rscale>
<asrwt>0</asrwt>
<pdfrwt beam="2">  1       21 0.12919963E-02 0.11066181E+03</pdfrwt>
<pdfrwt beam="1">  1        2 0.34948407E+00 0.11066181E+03</pdfrwt>
<totfact> 0.17449284E+05</totfact>
</mgrwt>
</event>
<event>
 4    1  0.4926234E+003  0.1302239E+03  0.7546771E-02  0.1227124E+00
         21   -1    0    0  501  502  0.00000000000E+00  0.00000000000E+00  0.55710450896E+02  0.55710450896E+02  0.00000000000E+00 0.  1.
          1   -1    0    0  503    0 -0.00000000000E+00 -0.00000000000E+00 -0.37901897792E+03  0.37901897792E+03  0.00000000000E+00 0. -1.
         21    1    1    2  503  502 -0.11749408838E+03  0.56155258716E+02 -0.65208633380E+02  0.14563804364E+03  0.00000000000E+00 0.  1.
          1    1    1    2  501    0  0.11749408838E+03 -0.56155258716E+02 -0.25809989365E+03  0.28909138519E+03  0.00000000000E+00 0. -1.
<mgrwt>
<rscale>  2 0.13022394E+03</rscale>
<asrwt>0</asrwt>
<pdfrwt beam="1">  1       21 0.85708384E-02 0.13022394E+03</pdfrwt>
<pdfrwt beam="2">  1        1 0.58310613E-01 0.13022394E+03</pdfrwt>
<totfact> 0.75437401E+04</totfact>
</mgrwt>
</event>
<event>
 4    1  0.4926234E+003  0.1454077E+03  0.7546771E-02  0.1206232E+00
         21   -1    0    0  503  502  0.00000000000E+00  0.00000000000E+00  0.17928993485E+02  0.17928993485E+02  0.00000000000E+00 0. -1.
          1   -1    0    0  502    0 -0.00000000000E+00 -0.00000000000E+00 -0.29156773998E+04  0.29156773998E+04  0.00000000000E+00 0.  1.
         21    1    1    2  503  501  0.76280162997E+02 -0.12379309872E+03 -0.31692733993E+03  0.34869231903E+03  0.00000000000E+00 0. -1.
          1    1    1    2  501    0 -0.76280162997E+02  0.12379309872E+03 -0.25808210664E+04  0.25849140743E+04  0.00000000000E+00 0.  1.
<mgrwt>
<rscale>  2 0.14540768E+03</rscale>
<asrwt>0</asrwt>
<pdfrwt beam="1">  1       21 0.27583069E-02 0.14540768E+03</pdfrwt>
<pdfrwt beam="2">  1        1 0.44856572E+00 0.14540768E+03</pdfrwt>
<totfact> 0.71616115E+03</totfact>
</mgrwt>
</event>
<event>
 4    1  0.4926234E+003  0.1299125E+03  0.7546771E-02  0.1227586E+00
         -3   -1    0    0    0  501 -0.00000000000E+00  0.00000000000E+00  0.32548004603E+03  0.32548004603E+03  0.00000000000E+00 0. -1.
         21   -1    0    0  501  502  0.00000000000E+00 -0.00000000000E+00 -0.68012113319E+02  0.68012113319E+02  0.00000000000E+00 0. -1.
         21    1    1    2  503  502  0.41719478418E+02 -0.12303149010E+03  0.32834607420E+02  0.13399766371E+03  0.00000000000E+00 0. -1.
         -3    1    1    2    0  503 -0.41719478418E+02  0.12303149010E+03  0.22463332530E+03  0.25949449564E+03  0.00000000000E+00 0. -1.
<mgrwt>
<rscale>  2 0.12991252E+03</rscale>
<asrwt>0</asrwt>
<pdfrwt beam="2">  1       21 0.10463402E-01 0.12991252E+03</pdfrwt>
<pdfrwt beam="1">  1       -3 0.50073852E-01 0.12991252E+03</pdfrwt>
<totfact> 0.14385671E+04</totfact>
</mgrwt>
</event>
<event>
 4    1  0.4926234E+003  0.1888473E+03  0.7546771E-02  0.1159505E+00
         -2   -1    0    0    0  501 -0.00000000000E+00  0.00000000000E+00  0.17756990189E+02  0.17756990189E+02  0.00000000000E+00 0.  1.
         21   -1    0    0  503  502  0.00000000000E+00 -0.00000000000E+00 -0.24980598164E+04  0.24980598164E+04  0.00000000000E+00 0.  1.
         21    1    1    2  503  501 -0.11251873676E+03 -0.15166688505E+03 -0.17970685254E+04  0.18069639164E+04  0.00000000000E+00 0.  1.
         -2    1    1    2    0  502  0.11251873676E+03  0.15166688505E+03 -0.68323430075E+03  0.70885289014E+03  0.00000000000E+00 0.  1.
<mgrwt>
<rscale>  2 0.18884732E+03</rscale>
<asrwt>0</asrwt>
<pdfrwt beam="2">  1       21 0.38431722E+00 0.18884732E+03</pdfrwt>
<pdfrwt beam="1">  1       -2 0.27318423E-02 0.18884732E+03</pdfrwt>
<totfact> 0.41038235E+02</totfact>
</mgrwt>
</event>
<event>
 4    1  0.4926234E+003  0.1004598E+03  0.7546771E-02  0.1279332E+00
          2   -1    0    0  503    0 -0.00000000000E+00  0.00000000000E+00  0.20221297559E+03  0.20221297559E+03  0.00000000000E+00 0. -1.
         21   -1    0    0  501  502  0.00000000000E+00 -0.00000000000E+00 -0.56147683817E+02  0.56147683817E+02  0.00000000000E+00 0. -1.
         21    1    1    2  503  502  0.47353584481E+02 -0.88599109534E+02  0.29970935217E+02  0.10483520941E+03  0.00000000000E+00 0. -1.
          2    1    1    2  501    0 -0.47353584481E+02  0.88599109534E+02  0.11609435655E+03  0.15352545000E+03  0.00000000000E+00 0. -1.
<mgrwt>
<rscale>  2 0.10045976E+03</rscale>
<asrwt>0</asrwt>
<pdfrwt beam="2">  1       21 0.86381053E-02 0.10045976E+03</pdfrwt>
<pdfrwt beam="1">  1        2 0.31109688E-01 0.10045976E+03</pdfrwt>
<totfact> 0.21086328E+05</totfact>
</mgrwt>
</event>
<event>
 4    1  0.4926234E+003  0.1729621E+03  0.7546771E-02  0.1174794E+00
          1   -1    0    0  503    0 -0.00000000000E+00  0.00000000000E+00  0.13748402279E+04  0.13748402279E+04  0.00000000000E+00 0.  1.
         21   -1    0    0  501  502  0.00000000000E+00 -0.00000000000E+00 -0.24265553439E+02  0.24265553439E+02  0.00000000000E+00 0. -1.
         21    1    1    2  503  502 -0.81365064546E+01  0.17277064641E+03  0.45047680980E+03  0.48254041817E+03  0.00000000000E+00 0. -1.
          1    1    1    2  501    0  0.81365064546E+01 -0.17277064641E+03  0.90009786470E+03  0.91656536321E+03  0.00000000000E+00 0.  1.
<mgrwt>
<rscale>  2 0.17296213E+03</rscale>
<asrwt>0</asrwt>
<pdfrwt beam="2">  1       21 0.37331631E-02 0.17296213E+03</pdfrwt>
<pdfrwt beam="1">  1        1 0.21151382E+00 0.17296213E+03</pdfrwt>
<totfact> 0.43396028E+04</totfact>
</mgrwt>
</event>
<event>
 4    1  0.4926234E+003  0.1171450E+03  0.7546771E-02  0.1247883E+00
         21   -1    0    0  503  502  0.00000000000E+00  0.00000000000E+00  0.10245301603E+03  0.10245301603E+03  0.00000000000E+00 0.  1.
         -1   -1    0    0    0  501 -0.00000000000E+00 -0.00000000000E+00 -0.34358176478E+03  0.34358176478E+03  0.00000000000E+00 0. -1.
         21    1    1    2  503  501  0.11667629061E+03  0.10468717237E+02  0.53639816257E+02  0.12884168859E+03  0.00000000000E+00 0.  1.
         -1    1    1    2    0  502 -0.11667629061E+03 -0.10468717237E+02 -0.29476856501E+03  0.31719309222E+03  0.00000000000E+00 0. -1.
<mgrwt>
<rscale>  2 0.11714500E+03</rscale>
<asrwt>0</asrwt>
<pdfrwt beam="1">  1       21 0.15762002E-01 0.11714500E+03</pdfrwt>
<pdfrwt beam="2">  1       -1 0.52858733E-01 0.11714500E+03</pdfrwt>
<totfact> 0.12329352E+04</totfact>
</mgrwt>
</event>
<event>
 4    1  0.4926234E+003  0.1896727E+03  0.7546771E-02  0.1158757E+00
         -3   -1    0    0    0  501 -0.00000000000E+00  0.00000000000E+00  0.65052008189E+03  0.65052008189E+03  0.00000000000E+00 0. -1.
         21   -1    0    0  503  502  0.00000000000E+00 -0.00000000000E+00 -0.66240621612E+02  0.66240621612E+02  0.00000000000E+00 0. -1.
         21    1    1    2  503  501  0.18598604641E+03 -0.37214324648E+02  0.14651224906E+03  0.23966967798E+03  0.00000000000E+00 0. -1.
         -3    1    1    2    0  502 -0.18598604641E+03  0.37214324648E+02  0.43776721122E+03  0.47709102552E+03  0.00000000000E+00 0. -1.
<mgrwt>
<rscale>  2 0.18967265E+03</rscale>
<asrwt>0</asrwt>
<pdfrwt beam="2">  1       21 0.10190865E-01 0.18967265E+03</pdfrwt>
<pdfrwt beam="1">  1       -3 0.10008001E+00 0.18967265E+03</pdfrwt>
<totfact> 0.35029427E+03</totfact>
</mgrwt>
</event>
<event>
 4    1  0.4926234E+003  0.1979749E+03  0.7546771E-02  0.1151459E+00
          2   -1    0    0  502    0 -0.00000000000E+00  0.00000000000E+00  0.12694448354E+03  0.12694448354E+03  0.00000000000E+00 0.  1.
         21   -1    0    0  503  502  0.00000000000E+00 -0.00000000000E+00 -0.31503973243E+03  0.31503973243E+03  0.00000000000E+00 0.  1.
         21    1    1    2  503  501  0.18105486194E+03  0.80082445614E+02 -0.62821126296E+02  0.20770304532E+03  0.00000000000E+00 0.  1.
          2    1    1    2  501    0 -0.18105486194E+03 -0.80082445614E+02 -0.12527412259E+03  0.23428117065E+03  0.00000000000E+00 0.  1.
<mgrwt>
<rscale>  2 0.19797490E+03</rscale>
<asrwt>0</asrwt>
<pdfrwt beam="2">  1       21 0.48467651E-01 0.19797490E+03</pdfrwt>
<pdfrwt beam="1">  1        2 0.19529921E-01 0.19797490E+03</pdfrwt>
<totfact> 0.14176348E+04</totfact>
</mgrwt>
</event>
<event>
 4    1  0.4926234E+003  0.1044819E+03  0.7546771E-02  0.1271144E+00
         21   -1    0    0  503  502  0.00000000000E+00  0.00000000000E+00  0.49908588357E+01  0.49908588357E+01  0.00000000000E+00 0. -1.
          2   -1    0    0  502    0 -0.00000000000E+00 -0.00000000000E+00 -0.22940082459E+04  0.22940082459E+04  0.00000000000E+00 0.  1.
         21    1    1    2  503  501  0.81323513392E+02  0.65596911366E+02 -0.89658081577E+03  0.90264811960E+03  0.00000000000E+00 0. -1.
          2    1    1    2  501    0 -0.81323513392E+02 -0.65596911366E+02 -0.13924365713E+04  0.13963509852E+04  0.00000000000E+00 0.  1.
<mgrwt>
<rscale>  2 0.10448191E+03</rscale>
<asrwt>0</asrwt>
<pdfrwt beam="1">  1       21 0.76782520E-03 0.10448191E+03</pdfrwt>
<pdfrwt beam="2">  1        2 0.35292399E+00 0.10448191E+03</pdfrwt>
<totfact> 0.38441425E+05</totfact>
</mgrwt>
</event>
<event>
 4    1  0.4926234E+003  0.1316335E+03  0.7546771E-02  0.1225052E+00
          2   -1    0    0  503    0 -0.00000000000E+00  0.00000000000E+00  0.85486774355E+03  0.85486774355E+03  0.00000000000E+00 0. -1.
         21   -1    0    0  501  502  0.00000000000E+00 -0.00000000000E+00 -0.13443080376E+03  0.13443080376E+03  0.00000000000E+00 0. -1.
         21    1    1    2  503  502 -0.89396600993E+02  0.96621083770E+02 -0.95617119035E+02  0.16269609568E+03  0.00000000000E+00 0. -1.
          2    1    1    2  501    0  0.89396600993E+02 -0.96621083770E+02  0.81605405883E+03  0.82660245163E+03  0.00000000000E+00 0. -1.
<mgrwt>
<rscale>  2 0.13163353E+03</rscale>
<asrwt>0</asrwt>
<pdfrwt beam="2">  1       21 0.20681663E-01 0.13163353E+03</pdfrwt>
<pdfrwt beam="1">  1        2 0.13151811E+00 0.13163353E+03</pdfrwt>
<totfact> 0.91134191E+03</totfact>
</mgrwt>
</event>
<event>
 4    1  0.4926234E+003  0.1045051E+03  0.7546771E-02  0.1271098E+00
          4   -1    0    0  503    0 -0.00000000000E+00  0.00000000000E+00  0.42223027001E+03  0.42223027001E+03  0.00000000000E+00 0. -1.
         21   -1    0    0  501  502  0.00000000000E+00 -0.00000000000E+00 -0.59152384897E+02  0.59152384897E+02  0.00000000000E+00 0.  1.
         21    1    1    2  503  502  0.10447752867E+03 -0.24024160582E+01  0.98419866089E+00  0.10450978063E+03  0.00000000000E+00 0.  1.
          4    1    1    2  501    0 -0.10447752867E+03  0.24024160582E+01  0.36209368645E+03  0.37687287428E+03  0.00000000000E+00 0. -1.
<mgrwt>
<rscale>  2 0.10450515E+03</rscale>
<asrwt>0</asrwt>
<pdfrwt beam="2">  1       21 0.91003672E-02 0.10450515E+03</pdfrwt>
<pdfrwt beam="1">  1        4 0.64958501E-01 0.10450515E+03</pdfrwt>
<totfact> 0.85799706E+03</totfact>
</mgrwt>
</event>
<event>
 4    1  0.4926234E+003  0.1026457E+03  0.7546771E-02  0.1274829E+00
          1   -1    0    0  503    0 -0.00000000000E+00  0.00000000000E+00  0.14488914407E+04  0.14488914407E+04  0.00000000000E+00 0.  1.
         21   -1    0    0  501  502  0.00000000000E+00 -0.00000000000E+00 -0.12558437716E+02  0.12558437716E+02  0.00000000000E+00 0. -1.
         21    1    1    2  503  502 -0.25129071624E+02  0.99522163988E+02  0.24406257129E+03  0.26476908821E+03  0.00000000000E+00 0. -1.
          1    1    1    2  501    0  0.25129071624E+02 -0.99522163988E+02  0.11922704317E+04  0.11966807902E+04  0.00000000000E+00 0.  1.
<mgrwt>
<rscale>  2 0.10264566E+03</rscale>
<asrwt>0</asrwt>
<pdfrwt beam="2">  1       21 0.19320685E-02 0.10264566E+03</pdfrwt>
<pdfrwt beam="1">  1        1 0.22290624E+00 0.10264566E+03</pdfrwt>
<totfact> 0.11423152E+05</totfact>
</mgrwt>
</event>
<event>
 4    1  0.4926234E+003  0.1013964E+03  0.7546771E-02  0.1277387E+00
          2   -1    0    0  503    0 -0.00000000000E+00  0.00000000000E+00  0.16817331590E+04  0.16817331590E+04  0.00000000000E+00 0.  1.
         21   -1    0    0  501  502  0.00000000000E+00 -0.00000000000E+00 -0.10438357651E+03  0.10438357651E+03  0.00000000000E+00 0.  1.
         21    1    1    2  503  502  0.92066214927E+02  0.42485831512E+02 -0.77836965632E+02  0.12782733287E+03  0.00000000000E+00 0.  1.
          2    1    1    2  501    0 -0.92066214927E+02 -0.42485831512E+02  0.16551865481E+04  0.16582894026E+04  0.00000000000E+00 0.  1.
<mgrwt>
<rscale>  2 0.10139642E+03</rscale>
<asrwt>0</asrwt>
<pdfrwt beam="2">  1       21 0.16059013E-01 0.10139642E+03</pdfrwt>
<pdfrwt beam="1">  1        2 0.25872816E+00 0.10139642E+03</pdfrwt>
<totfact> 0.51523167E+03</totfact>
</mgrwt>
</event>
<event>
 4    1  0.4926234E+003  0.1340153E+03  0.7546771E-02  0.1221617E+00
          3   -1    0    0  502    0 -0.00000000000E+00  0.00000000000E+00  0.81828264991E+02  0.81828264991E+02  0.00000000000E+00 0.  1.
         21   -1    0    0  503  502  0.00000000000E+00 -0.00000000000E+00 -0.30326995972E+03  0.30326995972E+03  0.00000000000E+00 0. -1.
         21    1    1    2  503  501 -0.12945250756E+03  0.34672019271E+02 -0.21192750907E+03  0.25074562755E+03  0.00000000000E+00 0. -1.
          3    1    1    2  501    0  0.12945250756E+03 -0.34672019271E+02 -0.95141856577E+01  0.13435259716E+03  0.00000000000E+00 0.  1.
<mgrwt>
<rscale>  2 0.13401530E+03</rscale>
<asrwt>0</asrwt>
<pdfrwt beam="2">  1       21 0.46656917E-01 0.13401530E+03</pdfrwt>
<pdfrwt beam="1">  1        3 0.12588964E-01 0.13401530E+03</pdfrwt>
<totfact> 0.10690147E+04</totfact>
</mgrwt>
</event>
<event>
 4    1  0.4926234E+003  0.1705796E+03  0.7546771E-02  0.1177245E+00
         21   -1    0    0  501  502  0.00000000000E+00  0.00000000000E+00  0.41977400861E+02  0.41977400861E+02  0.00000000000E+00 0.  1.
          2   -1    0    0  503    0 -0.00000000000E+00 -0.00000000000E+00 -0.93823292429E+03  0.93823292429E+03  0.00000000000E+00 0.  1.
         21    1    1    2  503  502 -0.52088447965E+02 -0.16243217133E+03 -0.19764722900E+03  0.26107823315E+03  0.00000000000E+00 0.  1.
          2    1    1    2  501    0  0.52088447965E+02  0.16243217133E+03 -0.69860829443E+03  0.71913209200E+03  0.00000000000E+00 0.  1.
<mgrwt>
<rscale>  2 0.17057965E+03</rscale>
<asrwt>0</asrwt>
<pdfrwt beam="1">  1       21 0.64580624E-02 0.17057965E+03</pdfrwt>
<pdfrwt beam="2">  1        2 0.14434351E+00 0.17057965E+03</pdfrwt>
<totfact> 0.63428179E+04</totfact>
</mgrwt>
</event>
<event>
 4    1  0.4926234E+003  0.1053091E+03  0.7546771E-02  0.1269512E+00
         21   -1    0    0  501  502  0.00000000000E+00  0.00000000000E+00  0.22507242641E+02  0.22507242641E+02  0.00000000000E+00 0. -1.
          3   -1    0    0  503    0 -0.00000000000E+00 -0.00000000000E+00 -0.81043050254E+03  0.81043050254E+03  0.00000000000E+00 0.  1.
         21    1    1    2  503  502 -0.35802665955E+02  0.99036280759E+02 -0.13320645457E+03  0.16980569877E+03  0.00000000000E+00 0. -1.
          3    1    1    2  501    0  0.35802665955E+02 -0.99036280759E+02 -0.65471680532E+03  0.66313204641E+03  0.00000000000E+00 0.  1.
<mgrwt>
<rscale>  2 0.10530914E+03</rscale>
<asrwt>0</asrwt>
<pdfrwt beam="1">  1       21 0.34626534E-02 0.10530914E+03</pdfrwt>
<pdfrwt beam="2">  1        3 0.12468159E+00 0.10530914E+03</pdfrwt>
<totfact> 0.12820649E+04</totfact>
</mgrwt>
</event>
<event>
 4    1  0.4926234E+003  0.1607633E+03  0.7546771E-02  0.1187838E+00
          1   -1    0    0  502    0 -0.00000000000E+00  0.00000000000E+00  0.96466601990E+03  0.96466601990E+03  0.00000000000E+00 0. -1.
         21   -1    0    0  503  502  0.00000000000E+00 -0.00000000000E+00 -0.15546899358E+03  0.15546899358E+03  0.00000000000E+00 0.  1.
         21    1    1    2  503  501  0.14374862504E+03 -0.71980391251E+02 -0.10493152278E+03  0.19197778100E+03  0.00000000000E+00 0.  1.
          1    1    1    2  501    0 -0.14374862504E+03  0.71980391251E+02  0.91412854910E+03  0.92815723248E+03  0.00000000000E+00 0. -1.
<mgrwt>
<rscale>  2 0.16076332E+03</rscale>
<asrwt>0</asrwt>
<pdfrwt beam="2">  1       21 0.23918307E-01 0.16076332E+03</pdfrwt>
<pdfrwt beam="1">  1        1 0.14841015E+00 0.16076332E+03</pdfrwt>
<totfact> 0.31937098E+03</totfact>
</mgrwt>
</event>
<event>
 4    1  0.4926234E+003  0.1010815E+03  0.7546771E-02  0.1278038E+00
          2   -1    0    0  503    0 -0.00000000000E+00  0.00000000000E+00  0.33935328021E+02  0.33935328021E+02  0.00000000000E+00 0. -1.
         21   -1    0    0  501  502  0.00000000000E+00 -0.00000000000E+00 -0.18593073165E+04  0.18593073165E+04  0.00000000000E+00 0. -1.
         21    1    1    2  503  502 -0.63474660689E+02 -0.78666639727E+02 -0.17792789999E+04  0.17821479266E+04  0.00000000000E+00 0. -1.
          2    1    1    2  501    0  0.63474660689E+02  0.78666639727E+02 -0.46092988571E+02  0.11109471793E+03  0.00000000000E+00 0. -1.
<mgrwt>
<rscale>  2 0.10108152E+03</rscale>
<asrwt>0</asrwt>
<pdfrwt beam="2">  1       21 0.28604735E+00 0.10108152E+03</pdfrwt>
<pdfrwt beam="1">  1        2 0.52208184E-02 0.10108152E+03</pdfrwt>
<totfact> 0.81166593E+02</totfact>
</mgrwt>
</event>
<event>
 4    1  0.4926234E+003  0.1332475E+03  0.7546771E-02  0.1222715E+00
          3   -1    0    0  502    0 -0.00000000000E+00  0.00000000000E+00  0.12752837111E+03  0.12752837111E+03  0.00000000000E+00 0. -1.
         21   -1    0    0  503  502  0.00000000000E+00 -0.00000000000E+00 -0.23339173475E+03  0.23339173475E+03  0.00000000000E+00 0.  1.
         21    1    1    2  503  501  0.50199503729E+02 -0.12342976984E+03 -0.16755986935E+03  0.21408224605E+03  0.00000000000E+00 0.  1.
          3    1    1    2  501    0 -0.50199503729E+02  0.12342976984E+03  0.61696505706E+02  0.14683785981E+03  0.00000000000E+00 0. -1.
<mgrwt>
<rscale>  2 0.13324751E+03</rscale>
<asrwt>0</asrwt>
<pdfrwt beam="2">  1       21 0.35906421E-01 0.13324751E+03</pdfrwt>
<pdfrwt beam="1">  1        3 0.19619749E-01 0.13324751E+03</pdfrwt>
<totfact> 0.84366712E+03</totfact>
</mgrwt>
</event>
<event>
 4    1  0.4926234E+003  0.1105317E+03  0.7546771E-02  0.1259588E+00
         21   -1    0    0  503  502  0.00000000000E+00  0.00000000000E+00  0.13869179227E+03  0.13869179227E+03  0.00000000000E+00 0. -1.
         -4   -1    0    0    0  501 -0.00000000000E+00 -0.00000000000E+00 -0.14511376630E+03  0.14511376630E+03  0.00000000000E+00 0.  1.
         21    1    1    2  503  501 -0.33580758030E+02 -0.10530713402E+03  0.85743384313E+02  0.13988991293E+03  0.00000000000E+00 0. -1.
         -4    1    1    2    0  502  0.33580758030E+02  0.10530713402E+03 -0.92165358342E+02  0.14391564565E+03  0.00000000000E+00 0.  1.
<mgrwt>
<rscale>  2 0.11053171E+03</rscale>
<asrwt>0</asrwt>
<pdfrwt beam="1">  1       21 0.21337199E-01 0.11053171E+03</pdfrwt>
<pdfrwt beam="2">  1       -4 0.22325195E-01 0.11053171E+03</pdfrwt>
<totfact> 0.15136660E+04</totfact>
</mgrwt>
</event>
<event>
 4    1  0.4926234E+003  0.1077821E+03  0.7546771E-02  0.1264733E+00
          2   -1    0    0  503    0 -0.00000000000E+00  0.00000000000E+00  0.28958042332E+02  0.28958042332E+02  0.00000000000E+00 0.  1.
         21   -1    0    0  501  502  0.00000000000E+00 -0.00000000000E+00 -0.51262906063E+03  0.51262906063E+03  0.00000000000E+00 0. -1.
         21    1    1    2  503  502  0.19063800834E+01 -0.10776519835E+03 -0.36810628381E+03  0.38356121863E+03  0.00000000000E+00 0. -1.
          2    1    1    2  501    0 -0.19063800834E+01  0.10776519835E+03 -0.11556473449E+03  0.15802588433E+03  0.00000000000E+00 0.  1.
<mgrwt>
<rscale>  2 0.10778206E+03</rscale>
<asrwt>0</asrwt>
<pdfrwt beam="2">  1       21 0.78866006E-01 0.10778206E+03</pdfrwt>
<pdfrwt beam="1">  1        2 0.44550836E-02 0.10778206E+03</pdfrwt>
<totfact> 0.31104680E+04</totfact>
</mgrwt>
</event>
<event>
 4    1  0.4926234E+003  0.1715994E+03  0.7546771E-02  0.1176190E+00
         21   -1    0    0  501  502  0.00000000000E+00  0.00000000000E+00  0.36708543502E+02  0.36708543502E+02  0.00000000000E+00 0.  1.
          2   -1    0    0  503    0 -0.00000000000E+00 -0.00000000000E+00 -0.14841101557E+04  0.14841101557E+04  0.00000000000E+00 0.  1.
         21    1    1    2  503  502 -0.63748021513E+00 -0.17159817813E+03 -0.20824810049E+03  0.26983997568E+03  0.00000000000E+00 0.  1.
          2    1    1    2  501    0  0.63748021513E+00  0.17159817813E+03 -0.12391535118E+04  0.12509787236E+04  0.00000000000E+00 0.  1.
<mgrwt>
<rscale>  2 0.17159936E+03</rscale>
<asrwt>0</asrwt>
<pdfrwt beam="1">  1       21 0.56474671E-02 0.17159936E+03</pdfrwt>
<pdfrwt beam="2">  1        2 0.22832468E+00 0.17159936E+03</pdfrwt>
<totfact> 0.39293315E+04</totfact>
</mgrwt>
</event>
<event>
 4    1  0.4926234E+003  0.1052133E+03  0.7546771E-02  0.1269700E+00
          1   -1    0    0  502    0 -0.00000000000E+00  0.00000000000E+00  0.51132705311E+02  0.51132705311E+02  0.00000000000E+00 0.  1.
         21   -1    0    0  503  502  0.00000000000E+00 -0.00000000000E+00 -0.34544602032E+03  0.34544602032E+03  0.00000000000E+00 0. -1.
         21    1    1    2  503  501  0.31470323171E+02 -0.10039653765E+03 -0.26830736671E+03  0.28819904414E+03  0.00000000000E+00 0. -1.
          1    1    1    2  501    0 -0.31470323171E+02  0.10039653765E+03 -0.26005948298E+02  0.10837968149E+03  0.00000000000E+00 0.  1.
<mgrwt>
<rscale>  2 0.10521334E+03</rscale>
<asrwt>0</asrwt>
<pdfrwt beam="2">  1       21 0.53145542E-01 0.10521334E+03</pdfrwt>
<pdfrwt beam="1">  1        1 0.78665700E-02 0.10521334E+03</pdfrwt>
<totfact> 0.31455301E+04</totfact>
</mgrwt>
</event>
<event>
 4    1  0.4926234E+003  0.1047569E+03  0.7546771E-02  0.1270599E+00
         21   -1    0    0  501  502  0.00000000000E+00  0.00000000000E+00  0.93970055641E+01  0.93970055641E+01  0.00000000000E+00 0.  1.
          2   -1    0    0  503    0 -0.00000000000E+00 -0.00000000000E+00 -0.13500367356E+04  0.13500367356E+04  0.00000000000E+00 0.  1.
         21    1    1    2  503  502 -0.92001163301E+02  0.50097947863E+02 -0.42060266892E+03  0.43345198526E+03  0.00000000000E+00 0.  1.
          2    1    1    2  501    0  0.92001163301E+02 -0.50097947863E+02 -0.92003706116E+03  0.92598175594E+03  0.00000000000E+00 0.  1.
<mgrwt>
<rscale>  2 0.10475695E+03</rscale>
<asrwt>0</asrwt>
<pdfrwt beam="1">  1       21 0.14456934E-02 0.10475695E+03</pdfrwt>
<pdfrwt beam="2">  1        2 0.20769793E+00 0.10475695E+03</pdfrwt>
<totfact> 0.43109269E+05</totfact>
</mgrwt>
</event>
<event>
 4    1  0.4926234E+003  0.1037276E+03  0.7546771E-02  0.1272647E+00
         21   -1    0    0  503  502  0.00000000000E+00  0.00000000000E+00  0.53225883036E+02  0.53225883036E+02  0.00000000000E+00 0. -1.
         -1   -1    0    0    0  501 -0.00000000000E+00 -0.00000000000E+00 -0.47786307124E+03  0.47786307124E+03  0.00000000000E+00 0. -1.
         21    1    1    2  503  501 -0.77052447907E+02  0.69443081321E+02 -0.10613418392E+02  0.10426919930E+03  0.00000000000E+00 0. -1.
         -1    1    1    2    0  502  0.77052447907E+02 -0.69443081321E+02 -0.41402376981E+03  0.42681975498E+03  0.00000000000E+00 0. -1.
<mgrwt>
<rscale>  2 0.10372763E+03</rscale>
<asrwt>0</asrwt>
<pdfrwt beam="1">  1       21 0.81885975E-02 0.10372763E+03</pdfrwt>
<pdfrwt beam="2">  1       -1 0.73517394E-01 0.10372763E+03</pdfrwt>
<totfact> 0.20762518E+04</totfact>
</mgrwt>
</event>
<event>
 4    1  0.4926234E+003  0.1369345E+03  0.7546771E-02  0.1217514E+00
         21   -1    0    0  501  502  0.00000000000E+00  0.00000000000E+00  0.16610419470E+03  0.16610419470E+03  0.00000000000E+00 0.  1.
          2   -1    0    0  503    0 -0.00000000000E+00 -0.00000000000E+00 -0.25044795395E+03  0.25044795395E+03  0.00000000000E+00 0.  1.
         21    1    1    2  503  502 -0.93781047525E+02 -0.99780662441E+02  0.11218558861E+03  0.17702167033E+03  0.00000000000E+00 0.  1.
          2    1    1    2  501    0  0.93781047525E+02  0.99780662441E+02 -0.19652934787E+03  0.23953047832E+03  0.00000000000E+00 0.  1.
<mgrwt>
<rscale>  2 0.13693453E+03</rscale>
<asrwt>0</asrwt>
<pdfrwt beam="1">  1       21 0.25554492E-01 0.13693453E+03</pdfrwt>
<pdfrwt beam="2">  1        2 0.38530454E-01 0.13693453E+03</pdfrwt>
<totfact> 0.24002701E+04</totfact>
</mgrwt>
</event>
<event>
 4    1  0.4926234E+003  0.1230713E+03  0.7546771E-02  0.1238115E+00
         21   -1    0    0  501  502  0.00000000000E+00  0.00000000000E+00  0.17650414214E+02  0.17650414214E+02  0.00000000000E+00 0. -1.
         -3   -1    0    0    0  501 -0.00000000000E+00 -0.00000000000E+00 -0.14251733797E+04  0.14251733797E+04  0.00000000000E+00 0.  1.
         21    1    1    2  503  502  0.10496366530E+03 -0.64258593757E+02 -0.24871735584E+03  0.27750110090E+03  0.00000000000E+00 0. -1.
         -3    1    1    2    0  503 -0.10496366530E+03  0.64258593757E+02 -0.11588056097E+04  0.11653226930E+04  0.00000000000E+00 0.  1.
<mgrwt>
<rscale>  2 0.12307127E+03</rscale>
<asrwt>0</asrwt>
<pdfrwt beam="1">  1       21 0.27154489E-02 0.12307127E+03</pdfrwt>
<pdfrwt beam="2">  1       -3 0.21925740E+00 0.12307127E+03</pdfrwt>
<totfact> 0.44942346E+03</totfact>
</mgrwt>
</event>
<event>
 4    1  0.4926234E+003  0.1278383E+03  0.7546771E-02  0.1230699E+00
         21   -1    0    0  503  502  0.00000000000E+00  0.00000000000E+00  0.55677322866E+02  0.55677322866E+02  0.00000000000E+00 0. -1.
         -1   -1    0    0    0  501 -0.00000000000E+00 -0.00000000000E+00 -0.32149186653E+03  0.32149186653E+03  0.00000000000E+00 0.  1.
         21    1    1    2  503  501  0.12249421069E+03 -0.36576009432E+02 -0.77284822916E+02  0.14938400172E+03  0.00000000000E+00 0. -1.
         -1    1    1    2    0  502 -0.12249421069E+03  0.36576009432E+02 -0.18852972075E+03  0.22778518768E+03  0.00000000000E+00 0.  1.
<mgrwt>
<rscale>  2 0.12783832E+03</rscale>
<asrwt>0</asrwt>
<pdfrwt beam="1">  1       21 0.85657416E-02 0.12783832E+03</pdfrwt>
<pdfrwt beam="2">  1       -1 0.49460289E-01 0.12783832E+03</pdfrwt>
<totfact> 0.40932152E+04</totfact>
</mgrwt>
</event>
<event>
 4    1  0.4926234E+003  0.1650169E+03  0.7546771E-02  0.1183146E+00
          2   -1    0    0  502    0 -0.00000000000E+00  0.00000000000E+00  0.12840366719E+04  0.12840366719E+04  0.00000000000E+00 0.  1.
         21   -1    0    0  503  502  0.00000000000E+00 -0.00000000000E+00 -0.79658125434E+02  0.79658125434E+02  0.00000000000E+00 0.  1.
         21    1    1    2  503  501 -0.89531750672E+02  0.13861691428E+03  0.18114384689E+02  0.16600817521E+03  0.00000000000E+00 0.  1.
          2    1    1    2  501    0  0.89531750672E+02 -0.13861691428E+03  0.11862641618E+04  0.11976866222E+04  0.00000000000E+00 0.  1.
<mgrwt>
<rscale>  2 0.16501692E+03</rscale>
<asrwt>0</asrwt>
<pdfrwt beam="2">  1       21 0.12255097E-01 0.16501692E+03</pdfrwt>
<pdfrwt beam="1">  1        2 0.19754409E+00 0.16501692E+03</pdfrwt>
<totfact> 0.13076058E+04</totfact>
</mgrwt>
</event>
<event>
 4    1  0.4926234E+003  0.1527796E+03  0.7546771E-02  0.1197098E+00
          2   -1    0    0  503    0 -0.00000000000E+00  0.00000000000E+00  0.12816749411E+04  0.12816749411E+04  0.00000000000E+00 0. -1.
         21   -1    0    0  501  502  0.00000000000E+00 -0.00000000000E+00 -0.51115215233E+02  0.51115215233E+02  0.00000000000E+00 0.  1.
         21    1    1    2  503  502 -0.15238014240E+03 -0.11041422805E+02  0.80620587603E+02  0.17274634573E+03  0.00000000000E+00 0.  1.
          2    1    1    2  501    0  0.15238014240E+03  0.11041422805E+02  0.11499391383E+04  0.11600438106E+04  0.00000000000E+00 0. -1.
<mgrwt>
<rscale>  2 0.15277965E+03</rscale>
<asrwt>0</asrwt>
<pdfrwt beam="2">  1       21 0.78638802E-02 0.15277965E+03</pdfrwt>
<pdfrwt beam="1">  1        2 0.19718074E+00 0.15277965E+03</pdfrwt>
<totfact> 0.28683334E+04</totfact>
</mgrwt>
</event>
<event>
 4    1  0.4926234E+003  0.1470095E+03  0.7546771E-02  0.1204197E+00
         21   -1    0    0  501  502  0.00000000000E+00  0.00000000000E+00  0.25037921144E+02  0.25037921144E+02  0.00000000000E+00 0. -1.
          1   -1    0    0  503    0 -0.00000000000E+00 -0.00000000000E+00 -0.18409489505E+04  0.18409489505E+04  0.00000000000E+00 0.  1.
         21    1    1    2  503  502 -0.74840601598E+00  0.14700760122E+03 -0.22800122189E+03  0.27128647609E+03  0.00000000000E+00 0. -1.
          1    1    1    2  501    0  0.74840601598E+00 -0.14700760122E+03 -0.15879098075E+04  0.15947003955E+04  0.00000000000E+00 0.  1.
<mgrwt>
<rscale>  2 0.14700951E+03</rscale>
<asrwt>0</asrwt>
<pdfrwt beam="1">  1       21 0.38519887E-02 0.14700951E+03</pdfrwt>
<pdfrwt beam="2">  1        1 0.28322285E+00 0.14700951E+03</pdfrwt>
<totfact> 0.20678483E+04</totfact>
</mgrwt>
</event>
<event>
 4    1  0.4926234E+003  0.2460486E+03  0.7546771E-02  0.1115828E+00
         21   -1    0    0  503  502  0.00000000000E+00  0.00000000000E+00  0.16100851055E+03  0.16100851055E+03  0.00000000000E+00 0.  1.
         -4   -1    0    0    0  501 -0.00000000000E+00 -0.00000000000E+00 -0.45097575454E+03  0.45097575454E+03  0.00000000000E+00 0.  1.
         21    1    1    2  503  501 -0.46615342784E+02  0.24159248105E+03 -0.20221950080E+02  0.24687819739E+03  0.00000000000E+00 0.  1.
         -4    1    1    2    0  502  0.46615342784E+02 -0.24159248105E+03 -0.26974529391E+03  0.36510606770E+03  0.00000000000E+00 0.  1.
<mgrwt>
<rscale>  2 0.24604861E+03</rscale>
<asrwt>0</asrwt>
<pdfrwt beam="1">  1       21 0.24770541E-01 0.24604861E+03</pdfrwt>
<pdfrwt beam="2">  1       -4 0.69380884E-01 0.24604861E+03</pdfrwt>
<totfact> 0.12623049E+03</totfact>
</mgrwt>
</event>
<event>
 4    1  0.4926234E+003  0.1536769E+03  0.7546771E-02  0.1196026E+00
         -2   -1    0    0    0  501 -0.00000000000E+00  0.00000000000E+00  0.22226055166E+03  0.22226055166E+03  0.00000000000E+00 0.  1.
         21   -1    0    0  501  502  0.00000000000E+00 -0.00000000000E+00 -0.25971116311E+03  0.25971116311E+03  0.00000000000E+00 0. -1.
         21    1    1    2  503  502 -0.15011644024E+03  0.32888469117E+02 -0.20396603909E+03  0.25537960399E+03  0.00000000000E+00 0. -1.
         -2    1    1    2    0  503  0.15011644024E+03 -0.32888469117E+02  0.16651542763E+03  0.22659211079E+03  0.00000000000E+00 0.  1.
<mgrwt>
<rscale>  2 0.15367692E+03</rscale>
<asrwt>0</asrwt>
<pdfrwt beam="2">  1       21 0.39955564E-01 0.15367692E+03</pdfrwt>
<pdfrwt beam="1">  1       -2 0.34193931E-01 0.15367692E+03</pdfrwt>
<totfact> 0.39292820E+03</totfact>
</mgrwt>
</event>
<event>
 4    1  0.4926234E+003  0.1976172E+03  0.7546771E-02  0.1151765E+00
          1   -1    0    0  503    0 -0.00000000000E+00  0.00000000000E+00  0.57510373949E+03  0.57510373949E+03  0.00000000000E+00 0.  1.
         21   -1    0    0  501  502  0.00000000000E+00 -0.00000000000E+00 -0.90803126612E+02  0.90803126612E+02  0.00000000000E+00 0.  1.
         21    1    1    2  503  502  0.17192076341E+03 -0.97446459068E+02  0.74952439300E+02  0.21135380156E+03  0.00000000000E+00 0.  1.
          1    1    1    2  501    0 -0.17192076341E+03  0.97446459068E+02  0.40934817358E+03  0.45455306454E+03  0.00000000000E+00 0.  1.
<mgrwt>
<rscale>  2 0.19761721E+03</rscale>
<asrwt>0</asrwt>
<pdfrwt beam="2">  1       21 0.13969712E-01 0.19761721E+03</pdfrwt>
<pdfrwt beam="1">  1        1 0.88477496E-01 0.19761721E+03</pdfrwt>
<totfact> 0.18451093E+04</totfact>
</mgrwt>
</event>
<event>
 4    1  0.4926234E+003  0.2624012E+03  0.7546771E-02  0.1105709E+00
         -4   -1    0    0    0  501 -0.00000000000E+00  0.00000000000E+00  0.23030957457E+03  0.23030957457E+03  0.00000000000E+00 0.  1.
         21   -1    0    0  501  502  0.00000000000E+00 -0.00000000000E+00 -0.31795649282E+03  0.31795649282E+03  0.00000000000E+00 0.  1.
         21    1    1    2  503  502 -0.18222714773E+03  0.18880580779E+03 -0.11082176231E+03  0.28484351744E+03  0.00000000000E+00 0.  1.
         -4    1    1    2    0  503  0.18222714773E+03 -0.18880580779E+03  0.23174844062E+02  0.26342254995E+03  0.00000000000E+00 0.  1.
<mgrwt>
<rscale>  2 0.26240116E+03</rscale>
<asrwt>0</asrwt>
<pdfrwt beam="2">  1       21 0.48916383E-01 0.26240116E+03</pdfrwt>
<pdfrwt beam="1">  1       -4 0.35432242E-01 0.26240116E+03</pdfrwt>
<totfact> 0.12948866E+03</totfact>
</mgrwt>
</event>
<event>
 4    1  0.4926234E+003  0.1183639E+03  0.7546771E-02  0.1245821E+00
          1   -1    0    0  503    0 -0.00000000000E+00  0.00000000000E+00  0.72235771487E+02  0.72235771487E+02  0.00000000000E+00 0.  1.
         21   -1    0    0  501  502  0.00000000000E+00 -0.00000000000E+00 -0.36149222982E+03  0.36149222982E+03  0.00000000000E+00 0.  1.
         21    1    1    2  503  502 -0.10771641445E+03  0.49063018703E+02 -0.29226764524E+03  0.31532583497E+03  0.00000000000E+00 0.  1.
          1    1    1    2  501    0  0.10771641445E+03 -0.49063018703E+02  0.30111869111E+01  0.11840216633E+03  0.00000000000E+00 0.  1.
<mgrwt>
<rscale>  2 0.11836387E+03</rscale>
<asrwt>0</asrwt>
<pdfrwt beam="2">  1       21 0.55614191E-01 0.11836387E+03</pdfrwt>
<pdfrwt beam="1">  1        1 0.11113195E-01 0.11836387E+03</pdfrwt>
<totfact> 0.18133628E+04</totfact>
</mgrwt>
</event>
<event>
 4    1  0.4926234E+003  0.1414342E+03  0.7546771E-02  0.1211412E+00
         21   -1    0    0  501  502  0.00000000000E+00  0.00000000000E+00  0.18641679819E+03  0.18641679819E+03  0.00000000000E+00 0.  1.
          2   -1    0    0  503    0 -0.00000000000E+00 -0.00000000000E+00 -0.10279863920E+04  0.10279863920E+04  0.00000000000E+00 0. -1.
         21    1    1    2  503  502  0.12604501231E+03  0.64158404306E+02  0.15385230288E+03  0.20898367657E+03  0.00000000000E+00 0.  1.
          2    1    1    2  501    0 -0.12604501231E+03 -0.64158404306E+02 -0.99542189667E+03  0.10054195136E+04  0.00000000000E+00 0. -1.
<mgrwt>
<rscale>  2 0.14143425E+03</rscale>
<asrwt>0</asrwt>
<pdfrwt beam="1">  1       21 0.28679507E-01 0.14143425E+03</pdfrwt>
<pdfrwt beam="2">  1        2 0.15815176E+00 0.14143425E+03</pdfrwt>
<totfact> 0.38272610E+03</totfact>
</mgrwt>
</event>
<event>
 4    1  0.4926234E+003  0.1596139E+03  0.7546771E-02  0.1189133E+00
         21   -1    0    0  503  502  0.00000000000E+00  0.00000000000E+00  0.27122520799E+03  0.27122520799E+03  0.00000000000E+00 0.  1.
          3   -1    0    0  502    0 -0.00000000000E+00 -0.00000000000E+00 -0.15688447701E+03  0.15688447701E+03  0.00000000000E+00 0.  1.
         21    1    1    2  503  501 -0.15855979894E+03 -0.18313460729E+02  0.19276521084E+03  0.25026989270E+03  0.00000000000E+00 0.  1.
          3    1    1    2  501    0  0.15855979894E+03  0.18313460729E+02 -0.78424479859E+02  0.17783979230E+03  0.00000000000E+00 0.  1.
<mgrwt>
<rscale>  2 0.15961389E+03</rscale>
<asrwt>0</asrwt>
<pdfrwt beam="1">  1       21 0.41726955E-01 0.15961389E+03</pdfrwt>
<pdfrwt beam="2">  1        3 0.24136073E-01 0.15961389E+03</pdfrwt>
<totfact> 0.43511928E+03</totfact>
</mgrwt>
</event>
<event>
 4    1  0.4926234E+003  0.1275054E+03  0.7546771E-02  0.1231205E+00
          4   -1    0    0  503    0 -0.00000000000E+00  0.00000000000E+00  0.63802780578E+03  0.63802780578E+03  0.00000000000E+00 0.  1.
         21   -1    0    0  501  502  0.00000000000E+00 -0.00000000000E+00 -0.30442367167E+02  0.30442367167E+02  0.00000000000E+00 0.  1.
         21    1    1    2  503  502 -0.87126383718E+02  0.93094747592E+02  0.16886228190E+03  0.21159420837E+03  0.00000000000E+00 0.  1.
          4    1    1    2  501    0  0.87126383718E+02 -0.93094747592E+02  0.43872315672E+03  0.45687596458E+03  0.00000000000E+00 0.  1.
<mgrwt>
<rscale>  2 0.12750545E+03</rscale>
<asrwt>0</asrwt>
<pdfrwt beam="2">  1       21 0.46834416E-02 0.12750545E+03</pdfrwt>
<pdfrwt beam="1">  1        4 0.98158114E-01 0.12750545E+03</pdfrwt>
<totfact> 0.10898403E+04</totfact>
</mgrwt>
</event>
<event>
 4    1  0.4926234E+003  0.1039034E+03  0.7546771E-02  0.1272295E+00
         21   -1    0    0  501  502  0.00000000000E+00  0.00000000000E+00  0.10517766714E+04  0.10517766714E+04  0.00000000000E+00 0.  1.
         -4   -1    0    0    0  501 -0.00000000000E+00 -0.00000000000E+00 -0.28747763115E+02  0.28747763115E+02  0.00000000000E+00 0. -1.
         21    1    1    2  503  502 -0.73595810740E+02  0.73345573062E+02  0.94471839184E+03  0.95041504425E+03  0.00000000000E+00 0.  1.
         -4    1    1    2    0  503  0.73595810740E+02 -0.73345573062E+02  0.78310516404E+02  0.13010939023E+03  0.00000000000E+00 0. -1.
<mgrwt>
<rscale>  2 0.10390340E+03</rscale>
<asrwt>0</asrwt>
<pdfrwt beam="1">  1       21 0.16181177E+00 0.10390340E+03</pdfrwt>
<pdfrwt beam="2">  1       -4 0.44227336E-02 0.10390340E+03</pdfrwt>
<totfact> 0.29717174E+03</totfact>
</mgrwt>
</event>
<event>
 4    1  0.4926234E+003  0.1149926E+03  0.7546771E-02  0.1251594E+00
          2   -1    0    0  503    0 -0.00000000000E+00  0.00000000000E+00  0.17454884736E+04  0.17454884736E+04  0.00000000000E+00 0.  1.
         21   -1    0    0  501  502  0.00000000000E+00 -0.00000000000E+00 -0.21587105941E+03  0.21587105941E+03  0.00000000000E+00 0.  1.
         21    1    1    2  503  502 -0.90382361269E+02 -0.71093851521E+02 -0.19850955798E+03  0.22941087935E+03  0.00000000000E+00 0.  1.
          2    1    1    2  501    0  0.90382361269E+02  0.71093851521E+02  0.17281269722E+04  0.17319486536E+04  0.00000000000E+00 0.  1.
<mgrwt>
<rscale>  2 0.11499264E+03</rscale>
<asrwt>0</asrwt>
<pdfrwt beam="2">  1       21 0.33210933E-01 0.11499264E+03</pdfrwt>
<pdfrwt beam="1">  1        2 0.26853668E+00 0.11499264E+03</pdfrwt>
<totfact> 0.12150945E+03</totfact>
</mgrwt>
</event>
<event>
 4    1  0.4926234E+003  0.1115761E+03  0.7546771E-02  0.1257679E+00
         21   -1    0    0  501  502  0.00000000000E+00  0.00000000000E+00  0.88392973824E+01  0.88392973824E+01  0.00000000000E+00 0.  1.
          1   -1    0    0  503    0 -0.00000000000E+00 -0.00000000000E+00 -0.15229563743E+04  0.15229563743E+04  0.00000000000E+00 0.  1.
         21    1    1    2  503  502  0.73696958023E+02 -0.83773416722E+02 -0.54699764755E+03  0.55826127700E+03  0.00000000000E+00 0.  1.
          1    1    1    2  501    0 -0.73696958023E+02  0.83773416722E+02 -0.96711942932E+03  0.97353439464E+03  0.00000000000E+00 0.  1.
<mgrwt>
<rscale>  2 0.11157610E+03</rscale>
<asrwt>0</asrwt>
<pdfrwt beam="1">  1       21 0.13598931E-02 0.11157610E+03</pdfrwt>
<pdfrwt beam="2">  1        1 0.23430078E+00 0.11157610E+03</pdfrwt>
<totfact> 0.17940430E+05</totfact>
</mgrwt>
</event>
<event>
 4    1  0.4926234E+003  0.1077035E+03  0.7546771E-02  0.1264883E+00
         21   -1    0    0  503  502  0.00000000000E+00  0.00000000000E+00  0.36311492241E+02  0.36311492241E+02  0.00000000000E+00 0.  1.
         -1   -1    0    0    0  501 -0.00000000000E+00 -0.00000000000E+00 -0.50446753382E+03  0.50446753382E+03  0.00000000000E+00 0.  1.
         21    1    1    2  503  501  0.10227624674E+03  0.33758182082E+02 -0.70332771245E+02  0.12863414871E+03  0.00000000000E+00 0.  1.
         -1    1    1    2    0  502 -0.10227624674E+03 -0.33758182082E+02 -0.39782327033E+03  0.41214487734E+03  0.00000000000E+00 0.  1.
<mgrwt>
<rscale>  2 0.10770351E+03</rscale>
<asrwt>0</asrwt>
<pdfrwt beam="1">  1       21 0.55863837E-02 0.10770351E+03</pdfrwt>
<pdfrwt beam="2">  1       -1 0.77610386E-01 0.10770351E+03</pdfrwt>
<totfact> 0.35704686E+04</totfact>
</mgrwt>
</event>
<event>
 4    1  0.4926234E+003  0.1225999E+03  0.7546771E-02  0.1238869E+00
         21   -1    0    0  503  502  0.00000000000E+00  0.00000000000E+00  0.63533616213E+02  0.63533616213E+02  0.00000000000E+00 0.  1.
          2   -1    0    0  502    0 -0.00000000000E+00 -0.00000000000E+00 -0.37444243882E+04  0.37444243882E+04  0.00000000000E+00 0.  1.
         21    1    1    2  503  501 -0.10658896132E+03 -0.60576713870E+02  0.24038994780E+01  0.12262350375E+03  0.00000000000E+00 0.  1.
          2    1    1    2  501    0  0.10658896132E+03  0.60576713870E+02 -0.36832946715E+04  0.36853345007E+04  0.00000000000E+00 0.  1.
<mgrwt>
<rscale>  2 0.12259994E+03</rscale>
<asrwt>0</asrwt>
<pdfrwt beam="1">  1       21 0.97744034E-02 0.12259994E+03</pdfrwt>
<pdfrwt beam="2">  1        2 0.57606524E+00 0.12259994E+03</pdfrwt>
<totfact> 0.83923998E+02</totfact>
</mgrwt>
</event>
<event>
 4    1  0.4926234E+003  0.1092089E+03  0.7546771E-02  0.1262042E+00
          1   -1    0    0  503    0 -0.00000000000E+00  0.00000000000E+00  0.69723694436E+02  0.69723694436E+02  0.00000000000E+00 0.  1.
         21   -1    0    0  501  502  0.00000000000E+00 -0.00000000000E+00 -0.27438752917E+03  0.27438752917E+03  0.00000000000E+00 0.  1.
         21    1    1    2  503  502 -0.83024793000E+02 -0.70946992399E+02 -0.20791759797E+03  0.23485382588E+03  0.00000000000E+00 0.  1.
          1    1    1    2  501    0  0.83024793000E+02  0.70946992399E+02  0.32537632367E+01  0.10925739773E+03  0.00000000000E+00 0.  1.
<mgrwt>
<rscale>  2 0.10920894E+03</rscale>
<asrwt>0</asrwt>
<pdfrwt beam="2">  1       21 0.42213467E-01 0.10920894E+03</pdfrwt>
<pdfrwt beam="1">  1        1 0.10726722E-01 0.10920894E+03</pdfrwt>
<totfact> 0.33385241E+04</totfact>
</mgrwt>
</event>
<event>
 4    1  0.4926234E+003  0.1133651E+03  0.7546771E-02  0.1254462E+00
         21   -1    0    0  503  502  0.00000000000E+00  0.00000000000E+00  0.39517235591E+02  0.39517235591E+02  0.00000000000E+00 0.  1.
         -1   -1    0    0    0  501 -0.00000000000E+00 -0.00000000000E+00 -0.37146855292E+03  0.37146855292E+03  0.00000000000E+00 0.  1.
         21    1    1    2  503  501  0.10421531568E+03 -0.44618627204E+02 -0.93465031562E+02  0.14692639668E+03  0.00000000000E+00 0.  1.
         -1    1    1    2    0  502 -0.10421531568E+03  0.44618627204E+02 -0.23848628577E+03  0.26405939183E+03  0.00000000000E+00 0.  1.
<mgrwt>
<rscale>  2 0.11336514E+03</rscale>
<asrwt>0</asrwt>
<pdfrwt beam="1">  1       21 0.60795748E-02 0.11336514E+03</pdfrwt>
<pdfrwt beam="2">  1       -1 0.57149008E-01 0.11336514E+03</pdfrwt>
<totfact> 0.56152039E+04</totfact>
</mgrwt>
</event>
<event>
 4    1  0.4926234E+003  0.1163662E+03  0.7546771E-02  0.1249215E+00
          1   -1    0    0  503    0 -0.00000000000E+00  0.00000000000E+00  0.25225005320E+03  0.25225005320E+03  0.00000000000E+00 0. -1.
         21   -1    0    0  501  502  0.00000000000E+00 -0.00000000000E+00 -0.24460518635E+03  0.24460518635E+03  0.00000000000E+00 0. -1.
         21    1    1    2  503  502  0.12425612677E+02 -0.11570087699E+03 -0.21565874332E+03  0.24505057102E+03  0.00000000000E+00 0. -1.
          1    1    1    2  501    0 -0.12425612677E+02  0.11570087699E+03  0.22330361016E+03  0.25180466854E+03  0.00000000000E+00 0. -1.
<mgrwt>
<rscale>  2 0.11636618E+03</rscale>
<asrwt>0</asrwt>
<pdfrwt beam="2">  1       21 0.37631567E-01 0.11636618E+03</pdfrwt>
<pdfrwt beam="1">  1        1 0.38807700E-01 0.11636618E+03</pdfrwt>
<totfact> 0.82434599E+03</totfact>
</mgrwt>
</event>
<event>
 4    1  0.4926234E+003  0.1222812E+03  0.7546771E-02  0.1239381E+00
         21   -1    0    0  501  502  0.00000000000E+00  0.00000000000E+00  0.78812214889E+03  0.78812214889E+03  0.00000000000E+00 0. -1.
         -4   -1    0    0    0  501 -0.00000000000E+00 -0.00000000000E+00 -0.32438125342E+02  0.32438125342E+02  0.00000000000E+00 0. -1.
         21    1    1    2  503  502  0.10849775511E+03 -0.56399733520E+02  0.64218327068E+03  0.65372168845E+03  0.00000000000E+00 0. -1.
         -4    1    1    2    0  503 -0.10849775511E+03  0.56399733520E+02  0.11350075286E+03  0.16683858578E+03  0.00000000000E+00 0. -1.
<mgrwt>
<rscale>  2 0.12228120E+03</rscale>
<asrwt>0</asrwt>
<pdfrwt beam="1">  1       21 0.12124955E+00 0.12228120E+03</pdfrwt>
<pdfrwt beam="2">  1       -4 0.49904814E-02 0.12228120E+03</pdfrwt>
<totfact> 0.51151445E+03</totfact>
</mgrwt>
</event>
<event>
 4    1  0.4926234E+003  0.1012773E+03  0.7546771E-02  0.1277633E+00
         21   -1    0    0  501  502  0.00000000000E+00  0.00000000000E+00  0.98920961199E+02  0.98920961199E+02  0.00000000000E+00 0.  1.
          2   -1    0    0  503    0 -0.00000000000E+00 -0.00000000000E+00 -0.47666354995E+03  0.47666354995E+03  0.00000000000E+00 0.  1.
         21    1    1    2  503  502  0.18886239551E+02 -0.99500777678E+02  0.65701660936E+02  0.12072200733E+03  0.00000000000E+00 0.  1.
          2    1    1    2  501    0 -0.18886239551E+02  0.99500777678E+02 -0.44344424968E+03  0.45486250382E+03  0.00000000000E+00 0.  1.
<mgrwt>
<rscale>  2 0.10127732E+03</rscale>
<asrwt>0</asrwt>
<pdfrwt beam="1">  1       21 0.15218610E-01 0.10127732E+03</pdfrwt>
<pdfrwt beam="2">  1        2 0.73332852E-01 0.10127732E+03</pdfrwt>
<totfact> 0.31533707E+04</totfact>
</mgrwt>
</event>
<event>
 4    1  0.4926234E+003  0.1335046E+03  0.7546771E-02  0.1222346E+00
         21   -1    0    0  501  502  0.00000000000E+00  0.00000000000E+00  0.10088195977E+03  0.10088195977E+03  0.00000000000E+00 0.  1.
          2   -1    0    0  503    0 -0.00000000000E+00 -0.00000000000E+00 -0.78758305010E+03  0.78758305010E+03  0.00000000000E+00 0.  1.
         21    1    1    2  503  502 -0.13344750607E+03  0.39039111975E+01  0.47895105724E+02  0.14183588598E+03  0.00000000000E+00 0.  1.
          2    1    1    2  501    0  0.13344750607E+03 -0.39039111975E+01 -0.73459619605E+03  0.74662912389E+03  0.00000000000E+00 0.  1.
<mgrwt>
<rscale>  2 0.13350460E+03</rscale>
<asrwt>0</asrwt>
<pdfrwt beam="1">  1       21 0.15520302E-01 0.13350460E+03</pdfrwt>
<pdfrwt beam="2">  1        2 0.12116662E+00 0.13350460E+03</pdfrwt>
<totfact> 0.17081451E+04</totfact>
</mgrwt>
</event>
<event>
 4    1  0.4926234E+003  0.1178932E+03  0.7546771E-02  0.1246614E+00
          2   -1    0    0  502    0 -0.00000000000E+00  0.00000000000E+00  0.49357121478E+03  0.49357121478E+03  0.00000000000E+00 0.  1.
         21   -1    0    0  503  502  0.00000000000E+00 -0.00000000000E+00 -0.20829973781E+03  0.20829973781E+03  0.00000000000E+00 0.  1.
         21    1    1    2  503  501  0.11051196461E+03  0.41059906427E+02 -0.18371759569E+03  0.21829101036E+03  0.00000000000E+00 0.  1.
          2    1    1    2  501    0 -0.11051196461E+03 -0.41059906427E+02  0.46898907266E+03  0.48357994222E+03  0.00000000000E+00 0.  1.
<mgrwt>
<rscale>  2 0.11789322E+03</rscale>
<asrwt>0</asrwt>
<pdfrwt beam="2">  1       21 0.32046114E-01 0.11789322E+03</pdfrwt>
<pdfrwt beam="1">  1        2 0.75934033E-01 0.11789322E+03</pdfrwt>
<totfact> 0.75742322E+03</totfact>
</mgrwt>
</event>
<event>
 4    1  0.4926234E+003  0.1003804E+03  0.7546771E-02  0.1279498E+00
         21   -1    0    0  501  502  0.00000000000E+00  0.00000000000E+00  0.24611695507E+02  0.24611695507E+02  0.00000000000E+00 0. -1.
         -2   -1    0    0    0  501 -0.00000000000E+00 -0.00000000000E+00 -0.48011654787E+03  0.48011654787E+03  0.00000000000E+00 0.  1.
         21    1    1    2  503  502  0.55018247315E+02  0.83959671014E+02 -0.13090476704E+03  0.16496148620E+03  0.00000000000E+00 0. -1.
         -2    1    1    2    0  503 -0.55018247315E+02 -0.83959671014E+02 -0.32460008532E+03  0.33976675718E+03  0.00000000000E+00 0.  1.
<mgrwt>
<rscale>  2 0.10038045E+03</rscale>
<asrwt>0</asrwt>
<pdfrwt beam="1">  1       21 0.37864146E-02 0.10038045E+03</pdfrwt>
<pdfrwt beam="2">  1       -2 0.73864086E-01 0.10038045E+03</pdfrwt>
<totfact> 0.57669584E+04</totfact>
</mgrwt>
</event>
<event>
 4    1  0.4926234E+003  0.1019088E+03  0.7546771E-02  0.1276332E+00
         21   -1    0    0  501  502  0.00000000000E+00  0.00000000000E+00  0.23407876358E+02  0.23407876358E+02  0.00000000000E+00 0. -1.
          2   -1    0    0  503    0 -0.00000000000E+00 -0.00000000000E+00 -0.83260508058E+03  0.83260508058E+03  0.00000000000E+00 0. -1.
         21    1    1    2  503  502 -0.81153824367E+02 -0.61639780044E+02 -0.11206983476E+03  0.15147624750E+03  0.00000000000E+00 0. -1.
          2    1    1    2  501    0  0.81153824367E+02  0.61639780044E+02 -0.69712736946E+03  0.70453670944E+03  0.00000000000E+00 0. -1.
<mgrwt>
<rscale>  2 0.10190881E+03</rscale>
<asrwt>0</asrwt>
<pdfrwt beam="1">  1       21 0.36012125E-02 0.10190881E+03</pdfrwt>
<pdfrwt beam="2">  1        2 0.12809306E+00 0.10190881E+03</pdfrwt>
<totfact> 0.19562640E+05</totfact>
</mgrwt>
</event>
<event>
 4    1  0.4926234E+003  0.1020243E+03  0.7546771E-02  0.1276096E+00
          2   -1    0    0  502    0 -0.00000000000E+00  0.00000000000E+00  0.66011179797E+03  0.66011179797E+03  0.00000000000E+00 0.  1.
         21   -1    0    0  503  502  0.00000000000E+00 -0.00000000000E+00 -0.51396605605E+02  0.51396605605E+02  0.00000000000E+00 0. -1.
         21    1    1    2  503  501  0.76412964608E+02  0.67601875179E+02  0.81614846325E+01  0.10235020527E+03  0.00000000000E+00 0. -1.
          2    1    1    2  501    0 -0.76412964608E+02 -0.67601875179E+02  0.60055370773E+03  0.60915819830E+03  0.00000000000E+00 0.  1.
<mgrwt>
<rscale>  2 0.10202428E+03</rscale>
<asrwt>0</asrwt>
<pdfrwt beam="2">  1       21 0.79071706E-02 0.10202428E+03</pdfrwt>
<pdfrwt beam="1">  1        2 0.10155566E+00 0.10202428E+03</pdfrwt>
<totfact> 0.69111995E+04</totfact>
</mgrwt>
</event>
<event>
 4    1  0.4926234E+003  0.1138697E+03  0.7546771E-02  0.1253567E+00
          2   -1    0    0  503    0 -0.00000000000E+00  0.00000000000E+00  0.11798594913E+03  0.11798594913E+03  0.00000000000E+00 0.  1.
         21   -1    0    0  501  502  0.00000000000E+00 -0.00000000000E+00 -0.11743642021E+03  0.11743642021E+03  0.00000000000E+00 0.  1.
         21    1    1    2  503  502 -0.65474303183E+02 -0.93163465838E+02  0.30099864680E+02  0.11778080318E+03  0.00000000000E+00 0.  1.
          2    1    1    2  501    0  0.65474303183E+02  0.93163465838E+02 -0.29550335755E+02  0.11764156615E+03  0.00000000000E+00 0.  1.
<mgrwt>
<rscale>  2 0.11386973E+03</rscale>
<asrwt>0</asrwt>
<pdfrwt beam="2">  1       21 0.18067141E-01 0.11386973E+03</pdfrwt>
<pdfrwt beam="1">  1        2 0.18151685E-01 0.11386973E+03</pdfrwt>
<totfact> 0.10407714E+05</totfact>
</mgrwt>
</event>
<event>
 4    1  0.4926234E+003  0.1210053E+03  0.7546771E-02  0.1241448E+00
          2   -1    0    0  502    0 -0.00000000000E+00  0.00000000000E+00  0.14920435546E+03  0.14920435546E+03  0.00000000000E+00 0.  1.
         21   -1    0    0  503  502  0.00000000000E+00 -0.00000000000E+00 -0.29280439123E+03  0.29280439123E+03  0.00000000000E+00 0.  1.
         21    1    1    2  503  501  0.27853950518E+02 -0.11775588746E+03 -0.25200217982E+03  0.27954854718E+03  0.00000000000E+00 0.  1.
          2    1    1    2  501    0 -0.27853950518E+02  0.11775588746E+03  0.10840214406E+03  0.16246019952E+03  0.00000000000E+00 0.  1.
<mgrwt>
<rscale>  2 0.12100534E+03</rscale>
<asrwt>0</asrwt>
<pdfrwt beam="2">  1       21 0.45046829E-01 0.12100534E+03</pdfrwt>
<pdfrwt beam="1">  1        2 0.22954516E-01 0.12100534E+03</pdfrwt>
<totfact> 0.13880476E+04</totfact>
</mgrwt>
</event>
<event>
 4    1  0.4926234E+003  0.1127645E+03  0.7546771E-02  0.1255534E+00
         21   -1    0    0  501  502  0.00000000000E+00  0.00000000000E+00  0.10356877694E+02  0.10356877694E+02  0.00000000000E+00 0. -1.
          2   -1    0    0  503    0 -0.00000000000E+00 -0.00000000000E+00 -0.15746632947E+04  0.15746632947E+04  0.00000000000E+00 0. -1.
         21    1    1    2  503  502 -0.10473822832E+02 -0.11227706173E+03 -0.41018111450E+03  0.42539909056E+03  0.00000000000E+00 0. -1.
          2    1    1    2  501    0  0.10473822832E+02  0.11227706173E+03 -0.11541253025E+04  0.11596210818E+04  0.00000000000E+00 0. -1.
<mgrwt>
<rscale>  2 0.11276453E+03</rscale>
<asrwt>0</asrwt>
<pdfrwt beam="1">  1       21 0.15933662E-02 0.11276453E+03</pdfrwt>
<pdfrwt beam="2">  1        2 0.24225582E+00 0.11276453E+03</pdfrwt>
<totfact> 0.28308323E+05</totfact>
</mgrwt>
</event>
<event>
 4    1  0.4926234E+003  0.1032472E+03  0.7546771E-02  0.1273612E+00
         21   -1    0    0  501  502  0.00000000000E+00  0.00000000000E+00  0.26527919848E+02  0.26527919848E+02  0.00000000000E+00 0. -1.
          2   -1    0    0  503    0 -0.00000000000E+00 -0.00000000000E+00 -0.46351809637E+03  0.46351809637E+03  0.00000000000E+00 0. -1.
         21    1    1    2  503  502  0.31531560109E+02  0.98314516781E+02 -0.12911548020E+03  0.16532026712E+03  0.00000000000E+00 0. -1.
          2    1    1    2  501    0 -0.31531560109E+02 -0.98314516781E+02 -0.30787469631E+03  0.32472574909E+03  0.00000000000E+00 0. -1.
<mgrwt>
<rscale>  2 0.10324720E+03</rscale>
<asrwt>0</asrwt>
<pdfrwt beam="1">  1       21 0.40812183E-02 0.10324720E+03</pdfrwt>
<pdfrwt beam="2">  1        2 0.71310478E-01 0.10324720E+03</pdfrwt>
<totfact> 0.31113397E+05</totfact>
</mgrwt>
</event>
<event>
 4    1  0.4926234E+003  0.1161382E+03  0.7546771E-02  0.1249607E+00
          1   -1    0    0  502    0 -0.00000000000E+00  0.00000000000E+00  0.14468426019E+03  0.14468426019E+03  0.00000000000E+00 0. -1.
         21   -1    0    0  503  502  0.00000000000E+00 -0.00000000000E+00 -0.11546320233E+03  0.11546320233E+03  0.00000000000E+00 0. -1.
         21    1    1    2  503  501  0.26711911546E+02  0.11302454285E+03 -0.42474931786E+02  0.12366160817E+03  0.00000000000E+00 0. -1.
          1    1    1    2  501    0 -0.26711911546E+02 -0.11302454285E+03  0.71695989646E+02  0.13648585434E+03  0.00000000000E+00 0. -1.
<mgrwt>
<rscale>  2 0.11613817E+03</rscale>
<asrwt>0</asrwt>
<pdfrwt beam="2">  1       21 0.17763570E-01 0.11613817E+03</pdfrwt>
<pdfrwt beam="1">  1        1 0.22259117E-01 0.11613817E+03</pdfrwt>
<totfact> 0.68121084E+04</totfact>
</mgrwt>
</event>
<event>
 4    1  0.4926234E+003  0.1155301E+03  0.7546771E-02  0.1250659E+00
          2   -1    0    0  502    0 -0.00000000000E+00  0.00000000000E+00  0.15108803885E+04  0.15108803885E+04  0.00000000000E+00 0.  1.
         21   -1    0    0  503  502  0.00000000000E+00 -0.00000000000E+00 -0.13907304157E+03  0.13907304157E+03  0.00000000000E+00 0. -1.
         21    1    1    2  503  501  0.95789293591E+02  0.64588082483E+02 -0.11244150873E+03  0.16121508010E+03  0.00000000000E+00 0. -1.
          2    1    1    2  501    0 -0.95789293591E+02 -0.64588082483E+02  0.14842488557E+04  0.14887383500E+04  0.00000000000E+00 0.  1.
<mgrwt>
<rscale>  2 0.11553012E+03</rscale>
<asrwt>0</asrwt>
<pdfrwt beam="2">  1       21 0.21395854E-01 0.11553012E+03</pdfrwt>
<pdfrwt beam="1">  1        2 0.23244313E+00 0.11553012E+03</pdfrwt>
<totfact> 0.36879836E+03</totfact>
</mgrwt>
</event>
<event>
 4    1  0.4926234E+003  0.1162543E+03  0.7546771E-02  0.1249407E+00
          1   -1    0    0  503    0 -0.00000000000E+00  0.00000000000E+00  0.33766962109E+02  0.33766962109E+02  0.00000000000E+00 0. -1.
         21   -1    0    0  501  502  0.00000000000E+00 -0.00000000000E+00 -0.40058609055E+03  0.40058609055E+03  0.00000000000E+00 0. -1.
         21    1    1    2  503  502 -0.18583108742E+02 -0.11475943308E+03 -0.18974634149E+03  0.22252805109E+03  0.00000000000E+00 0. -1.
          1    1    1    2  501    0  0.18583108742E+02  0.11475943308E+03 -0.17707278696E+03  0.21182500158E+03  0.00000000000E+00 0. -1.
<mgrwt>
<rscale>  2 0.11625429E+03</rscale>
<asrwt>0</asrwt>
<pdfrwt beam="2">  1       21 0.61628630E-01 0.11625429E+03</pdfrwt>
<pdfrwt beam="1">  1        1 0.51949172E-02 0.11625429E+03</pdfrwt>
<totfact> 0.40374206E+04</totfact>
</mgrwt>
</event>
<event>
 4    1  0.4926234E+003  0.1184841E+03  0.7546771E-02  0.1245619E+00
         21   -1    0    0  503  502  0.00000000000E+00  0.00000000000E+00  0.36423240657E+02  0.36423240657E+02  0.00000000000E+00 0.  1.
          3   -1    0    0  502    0 -0.00000000000E+00 -0.00000000000E+00 -0.87810516024E+03  0.87810516024E+03  0.00000000000E+00 0.  1.
         21    1    1    2  503  501  0.64386134560E+02  0.99463096101E+02 -0.78328939855E+02  0.14203487117E+03  0.00000000000E+00 0.  1.
          3    1    1    2  501    0 -0.64386134560E+02 -0.99463096101E+02 -0.76335297973E+03  0.77249352972E+03  0.00000000000E+00 0.  1.
<mgrwt>
<rscale>  2 0.11848410E+03</rscale>
<asrwt>0</asrwt>
<pdfrwt beam="1">  1       21 0.56035760E-02 0.11848410E+03</pdfrwt>
<pdfrwt beam="2">  1        3 0.13509309E+00 0.11848410E+03</pdfrwt>
<totfact> 0.47925573E+03</totfact>
</mgrwt>
</event>
<event>
 4    1  0.4926234E+003  0.1190829E+03  0.7546771E-02  0.1244618E+00
          3   -1    0    0  502    0 -0.00000000000E+00  0.00000000000E+00  0.34339546967E+03  0.34339546967E+03  0.00000000000E+00 0.  1.
         21   -1    0    0  503  502  0.00000000000E+00 -0.00000000000E+00 -0.55835663495E+02  0.55835663495E+02  0.00000000000E+00 0.  1.
         21    1    1    2  503  501  0.11908033553E+03  0.78631978743E+00  0.41915901805E+02  0.12624455407E+03  0.00000000000E+00 0.  1.
          3    1    1    2  501    0 -0.11908033553E+03 -0.78631978743E+00  0.24564390437E+03  0.27298657909E+03  0.00000000000E+00 0.  1.
<mgrwt>
<rscale>  2 0.11908293E+03</rscale>
<asrwt>0</asrwt>
<pdfrwt beam="2">  1       21 0.85901023E-02 0.11908293E+03</pdfrwt>
<pdfrwt beam="1">  1        3 0.52830071E-01 0.11908293E+03</pdfrwt>
<totfact> 0.18108934E+04</totfact>
</mgrwt>
</event>
<event>
 4    1  0.4926234E+003  0.1980341E+03  0.7546771E-02  0.1151408E+00
         21   -1    0    0  501  502  0.00000000000E+00  0.00000000000E+00  0.94800827435E+02  0.94800827435E+02  0.00000000000E+00 0.  1.
         -2   -1    0    0    0  501 -0.00000000000E+00 -0.00000000000E+00 -0.44321387584E+03  0.44321387584E+03  0.00000000000E+00 0.  1.
         21    1    1    2  503  502  0.17528166600E+03 -0.92162125170E+02 -0.10476913476E+03  0.22404037884E+03  0.00000000000E+00 0.  1.
         -2    1    1    2    0  503 -0.17528166600E+03  0.92162125170E+02 -0.24364391365E+03  0.31397432444E+03  0.00000000000E+00 0.  1.
<mgrwt>
<rscale>  2 0.19803414E+03</rscale>
<asrwt>0</asrwt>
<pdfrwt beam="1">  1       21 0.14584743E-01 0.19803414E+03</pdfrwt>
<pdfrwt beam="2">  1       -2 0.68186751E-01 0.19803414E+03</pdfrwt>
<totfact> 0.67919384E+03</totfact>
</mgrwt>
</event>
<event>
 4    1  0.4926234E+003  0.1273518E+03  0.7546771E-02  0.1231439E+00
         21   -1    0    0  503  502  0.00000000000E+00  0.00000000000E+00  0.81278850583E+02  0.81278850583E+02  0.00000000000E+00 0.  1.
          1   -1    0    0  502    0 -0.00000000000E+00 -0.00000000000E+00 -0.20071913771E+03  0.20071913771E+03  0.00000000000E+00 0.  1.
         21    1    1    2  503  501 -0.10643165071E+03  0.69934141550E+02 -0.48918734519E+02  0.13642405585E+03  0.00000000000E+00 0.  1.
          1    1    1    2  501    0  0.10643165071E+03 -0.69934141550E+02 -0.70521552613E+02  0.14557393245E+03  0.00000000000E+00 0.  1.
<mgrwt>
<rscale>  2 0.12735180E+03</rscale>
<asrwt>0</asrwt>
<pdfrwt beam="1">  1       21 0.12504439E-01 0.12735180E+03</pdfrwt>
<pdfrwt beam="2">  1        1 0.30879867E-01 0.12735180E+03</pdfrwt>
<totfact> 0.85406457E+04</totfact>
</mgrwt>
</event>
<event>
 4    1  0.4926234E+003  0.1064012E+03  0.7546771E-02  0.1267383E+00
          1   -1    0    0  502    0 -0.00000000000E+00  0.00000000000E+00  0.53613320696E+03  0.53613320696E+03  0.00000000000E+00 0. -1.
         21   -1    0    0  503  502  0.00000000000E+00 -0.00000000000E+00 -0.83742725535E+02  0.83742725535E+02  0.00000000000E+00 0.  1.
         21    1    1    2  503  501  0.11682745854E+02 -0.10575785978E+03 -0.41832438352E+02  0.11432919293E+03  0.00000000000E+00 0.  1.
          1    1    1    2  501    0 -0.11682745854E+02  0.10575785978E+03  0.49422291978E+03  0.50554673957E+03  0.00000000000E+00 0. -1.
<mgrwt>
<rscale>  2 0.10640118E+03</rscale>
<asrwt>0</asrwt>
<pdfrwt beam="2">  1       21 0.12883497E-01 0.10640118E+03</pdfrwt>
<pdfrwt beam="1">  1        1 0.82482030E-01 0.10640118E+03</pdfrwt>
<totfact> 0.23685928E+04</totfact>
</mgrwt>
</event>
<event>
 4    1  0.4926234E+003  0.1041207E+03  0.7546771E-02  0.1271862E+00
         21   -1    0    0  501  502  0.00000000000E+00  0.00000000000E+00  0.18952367178E+02  0.18952367178E+02  0.00000000000E+00 0. -1.
          2   -1    0    0  503    0 -0.00000000000E+00 -0.00000000000E+00 -0.60613278501E+03  0.60613278501E+03  0.00000000000E+00 0. -1.
         21    1    1    2  503  502  0.70062013797E+02  0.77022361510E+02 -0.21944468512E+03  0.24289318594E+03  0.00000000000E+00 0. -1.
          2    1    1    2  501    0 -0.70062013797E+02 -0.77022361510E+02 -0.36773573272E+03  0.38219196625E+03  0.00000000000E+00 0. -1.
<mgrwt>
<rscale>  2 0.10412075E+03</rscale>
<asrwt>0</asrwt>
<pdfrwt beam="1">  1       21 0.29157491E-02 0.10412075E+03</pdfrwt>
<pdfrwt beam="2">  1        2 0.93251187E-01 0.10412075E+03</pdfrwt>
<totfact> 0.40263059E+05</totfact>
</mgrwt>
</event>
<event>
 4    1  0.4926234E+003  0.1681928E+03  0.7546771E-02  0.1179746E+00
         21   -1    0    0  501  502  0.00000000000E+00  0.00000000000E+00  0.91983962017E+02  0.91983962017E+02  0.00000000000E+00 0.  1.
          2   -1    0    0  503    0 -0.00000000000E+00 -0.00000000000E+00 -0.11690271130E+04  0.11690271130E+04  0.00000000000E+00 0.  1.
         21    1    1    2  503  502  0.16364137335E+03 -0.38862801534E+02  0.27320489073E+01  0.16821498301E+03  0.00000000000E+00 0.  1.
          2    1    1    2  501    0 -0.16364137335E+03  0.38862801534E+02 -0.10797751999E+04  0.10927960920E+04  0.00000000000E+00 0.  1.
<mgrwt>
<rscale>  2 0.16819280E+03</rscale>
<asrwt>0</asrwt>
<pdfrwt beam="1">  1       21 0.14151380E-01 0.16819280E+03</pdfrwt>
<pdfrwt beam="2">  1        2 0.17985031E+00 0.16819280E+03</pdfrwt>
<totfact> 0.11683555E+04</totfact>
</mgrwt>
</event>
<event>
 4    1  0.4926234E+003  0.1098537E+03  0.7546771E-02  0.1260841E+00
         21   -1    0    0  503  502  0.00000000000E+00  0.00000000000E+00  0.16285981245E+03  0.16285981245E+03  0.00000000000E+00 0.  1.
          4   -1    0    0  502    0 -0.00000000000E+00 -0.00000000000E+00 -0.25278215043E+03  0.25278215043E+03  0.00000000000E+00 0.  1.
         21    1    1    2  503  501  0.71029828658E+02 -0.83800959264E+02  0.12976474970E+03  0.17001978590E+03  0.00000000000E+00 0.  1.
          4    1    1    2  501    0 -0.71029828658E+02  0.83800959264E+02 -0.21968708768E+03  0.24562217698E+03  0.00000000000E+00 0.  1.
<mgrwt>
<rscale>  2 0.10985371E+03</rscale>
<asrwt>0</asrwt>
<pdfrwt beam="1">  1       21 0.25055356E-01 0.10985371E+03</pdfrwt>
<pdfrwt beam="2">  1        4 0.38889561E-01 0.10985371E+03</pdfrwt>
<totfact> 0.39514407E+03</totfact>
</mgrwt>
</event>
<event>
 4    1  0.4926234E+003  0.1128680E+03  0.7546771E-02  0.1255349E+00
          2   -1    0    0  502    0 -0.00000000000E+00  0.00000000000E+00  0.12293964175E+04  0.12293964175E+04  0.00000000000E+00 0.  1.
         21   -1    0    0  503  502  0.00000000000E+00 -0.00000000000E+00 -0.55141767616E+02  0.55141767616E+02  0.00000000000E+00 0.  1.
         21    1    1    2  503  501  0.10998304503E+03 -0.25355569308E+02  0.83427731207E+01  0.11317586736E+03  0.00000000000E+00 0.  1.
          2    1    1    2  501    0 -0.10998304503E+03  0.25355569308E+02  0.11659118767E+04  0.11713623177E+04  0.00000000000E+00 0.  1.
<mgrwt>
<rscale>  2 0.11286795E+03</rscale>
<asrwt>0</asrwt>
<pdfrwt beam="2">  1       21 0.84833498E-02 0.11286795E+03</pdfrwt>
<pdfrwt beam="1">  1        2 0.18913789E+00 0.11286795E+03</pdfrwt>
<totfact> 0.27095007E+04</totfact>
</mgrwt>
</event>
<event>
 4    1  0.4926234E+003  0.1352793E+03  0.7546771E-02  0.1219826E+00
         21   -1    0    0  503  502  0.00000000000E+00  0.00000000000E+00  0.14247931437E+03  0.14247931437E+03  0.00000000000E+00 0. -1.
         -1   -1    0    0    0  501 -0.00000000000E+00 -0.00000000000E+00 -0.23786123040E+03  0.23786123040E+03  0.00000000000E+00 0. -1.
         21    1    1    2  503  501  0.11061079084E+03 -0.77882800675E+02  0.81289983340E+02  0.15782439318E+03  0.00000000000E+00 0. -1.
         -1    1    1    2    0  502 -0.11061079084E+03  0.77882800675E+02 -0.17667189936E+03  0.22251615159E+03  0.00000000000E+00 0. -1.
<mgrwt>
<rscale>  2 0.13527926E+03</rscale>
<asrwt>0</asrwt>
<pdfrwt beam="1">  1       21 0.21919895E-01 0.13527926E+03</pdfrwt>
<pdfrwt beam="2">  1       -1 0.36594035E-01 0.13527926E+03</pdfrwt>
<totfact> 0.12949900E+04</totfact>
</mgrwt>
</event>
<event>
 4    1  0.4926234E+003  0.1114985E+03  0.7546771E-02  0.1257820E+00
          1   -1    0    0  503    0 -0.00000000000E+00  0.00000000000E+00  0.27655109401E+03  0.27655109401E+03  0.00000000000E+00 0.  1.
         21   -1    0    0  501  502  0.00000000000E+00 -0.00000000000E+00 -0.86579170037E+02  0.86579170037E+02  0.00000000000E+00 0. -1.
         21    1    1    2  503  502  0.10888318989E+03  0.24007738980E+02 -0.30908526699E+02  0.11570331713E+03  0.00000000000E+00 0. -1.
          1    1    1    2  501    0 -0.10888318989E+03 -0.24007738980E+02  0.22088045067E+03  0.24742694692E+03  0.00000000000E+00 0.  1.
<mgrwt>
<rscale>  2 0.11149852E+03</rscale>
<asrwt>0</asrwt>
<pdfrwt beam="2">  1       21 0.13319872E-01 0.11149852E+03</pdfrwt>
<pdfrwt beam="1">  1        1 0.42546322E-01 0.11149852E+03</pdfrwt>
<totfact> 0.51236701E+04</totfact>
</mgrwt>
</event>
<event>
 4    1  0.4926234E+003  0.1521731E+03  0.7546771E-02  0.1197828E+00
         21   -1    0    0  501  502  0.00000000000E+00  0.00000000000E+00  0.68299344799E+02  0.68299344799E+02  0.00000000000E+00 0.  1.
          2   -1    0    0  503    0 -0.00000000000E+00 -0.00000000000E+00 -0.40863285360E+03  0.40863285360E+03  0.00000000000E+00 0.  1.
         21    1    1    2  503  502  0.10219192702E+03  0.11275399173E+03 -0.71760635813E+02  0.16824458818E+03  0.00000000000E+00 0.  1.
          2    1    1    2  501    0 -0.10219192702E+03 -0.11275399173E+03 -0.26857287299E+03  0.30868761023E+03  0.00000000000E+00 0.  1.
<mgrwt>
<rscale>  2 0.15217310E+03</rscale>
<asrwt>0</asrwt>
<pdfrwt beam="1">  1       21 0.10507592E-01 0.15217310E+03</pdfrwt>
<pdfrwt beam="2">  1        2 0.62866592E-01 0.15217310E+03</pdfrwt>
<totfact> 0.72147522E+04</totfact>
</mgrwt>
</event>
<event>
 4    1  0.4926234E+003  0.1625165E+03  0.7546771E-02  0.1185885E+00
         21   -1    0    0  501  502  0.00000000000E+00  0.00000000000E+00  0.82508311317E+02  0.82508311317E+02  0.00000000000E+00 0.  1.
          1   -1    0    0  503    0 -0.00000000000E+00 -0.00000000000E+00 -0.32013931752E+03  0.32013931752E+03  0.00000000000E+00 0.  1.
         21    1    1    2  503  502  0.16831163927E+02  0.16164254438E+03 -0.11683576449E+03  0.20015542984E+03  0.00000000000E+00 0.  1.
          1    1    1    2  501    0 -0.16831163927E+02 -0.16164254438E+03 -0.12079524172E+03  0.20249219899E+03  0.00000000000E+00 0.  1.
<mgrwt>
<rscale>  2 0.16251646E+03</rscale>
<asrwt>0</asrwt>
<pdfrwt beam="1">  1       21 0.12693586E-01 0.16251646E+03</pdfrwt>
<pdfrwt beam="2">  1        1 0.49252203E-01 0.16251646E+03</pdfrwt>
<totfact> 0.46840007E+04</totfact>
</mgrwt>
</event>
<event>
 4    1  0.4926234E+003  0.1051580E+03  0.7546771E-02  0.1269809E+00
         21   -1    0    0  503  502  0.00000000000E+00  0.00000000000E+00  0.32396676251E+02  0.32396676251E+02  0.00000000000E+00 0. -1.
         -1   -1    0    0    0  501 -0.00000000000E+00 -0.00000000000E+00 -0.41911661056E+03  0.41911661056E+03  0.00000000000E+00 0. -1.
         21    1    1    2  503  501  0.52199519889E+02  0.91287536989E+02 -0.96106686379E+02  0.14245946600E+03  0.00000000000E+00 0. -1.
         -1    1    1    2    0  502 -0.52199519889E+02 -0.91287536989E+02 -0.29061324793E+03  0.30905382081E+03  0.00000000000E+00 0. -1.
<mgrwt>
<rscale>  2 0.10515800E+03</rscale>
<asrwt>0</asrwt>
<pdfrwt beam="1">  1       21 0.49841041E-02 0.10515800E+03</pdfrwt>
<pdfrwt beam="2">  1       -1 0.64479477E-01 0.10515800E+03</pdfrwt>
<totfact> 0.62186503E+04</totfact>
</mgrwt>
</event>
<event>
 4    1  0.4926234E+003  0.1052382E+03  0.7546771E-02  0.1269651E+00
         21   -1    0    0  503  502  0.00000000000E+00  0.00000000000E+00  0.88196057745E+01  0.88196057745E+01  0.00000000000E+00 0.  1.
         -1   -1    0    0    0  501 -0.00000000000E+00 -0.00000000000E+00 -0.33813743723E+04  0.33813743723E+04  0.00000000000E+00 0. -1.
         21    1    1    2  503  501  0.30949173701E+02 -0.10058447530E+03 -0.34229767194E+03  0.35811001695E+03  0.00000000000E+00 0.  1.
         -1    1    1    2    0  502 -0.30949173701E+02  0.10058447530E+03 -0.30302570946E+04  0.30320839612E+04  0.00000000000E+00 0. -1.
<mgrwt>
<rscale>  2 0.10523824E+03</rscale>
<asrwt>0</asrwt>
<pdfrwt beam="1">  1       21 0.13568629E-02 0.10523824E+03</pdfrwt>
<pdfrwt beam="2">  1       -1 0.52021125E+00 0.10523824E+03</pdfrwt>
<totfact> 0.31833801E+02</totfact>
</mgrwt>
</event>
<event>
 4    1  0.4926234E+003  0.1055446E+03  0.7546771E-02  0.1269050E+00
          1   -1    0    0  503    0 -0.00000000000E+00  0.00000000000E+00  0.20781357916E+04  0.20781357916E+04  0.00000000000E+00 0.  1.
         21   -1    0    0  501  502  0.00000000000E+00 -0.00000000000E+00 -0.58259179003E+01  0.58259179003E+01  0.00000000000E+00 0.  1.
         21    1    1    2  503  502  0.69288238514E+01 -0.10531692230E+03  0.74161753693E+03  0.74909027080E+03  0.00000000000E+00 0.  1.
          1    1    1    2  501    0 -0.69288238514E+01  0.10531692230E+03  0.13306923368E+04  0.13348714387E+04  0.00000000000E+00 0.  1.
<mgrwt>
<rscale>  2 0.10554460E+03</rscale>
<asrwt>0</asrwt>
<pdfrwt beam="2">  1       21 0.89629672E-03 0.10554460E+03</pdfrwt>
<pdfrwt beam="1">  1        1 0.31971261E+00 0.10554460E+03</pdfrwt>
<totfact> 0.15393648E+05</totfact>
</mgrwt>
</event>
<event>
 4    1  0.4926234E+003  0.1285394E+03  0.7546771E-02  0.1229639E+00
         21   -1    0    0  501  502  0.00000000000E+00  0.00000000000E+00  0.17324040990E+02  0.17324040990E+02  0.00000000000E+00 0.  1.
          3   -1    0    0  503    0 -0.00000000000E+00 -0.00000000000E+00 -0.95435556805E+03  0.95435556805E+03  0.00000000000E+00 0. -1.
         21    1    1    2  503  502 -0.60890360547E+02  0.11320223450E+03 -0.45603368308E+03  0.47380280920E+03  0.00000000000E+00 0.  1.
          3    1    1    2  501    0  0.60890360547E+02 -0.11320223450E+03 -0.48099784398E+03  0.49787679983E+03  0.00000000000E+00 0. -1.
<mgrwt>
<rscale>  2 0.12853942E+03</rscale>
<asrwt>0</asrwt>
<pdfrwt beam="1">  1       21 0.26652373E-02 0.12853942E+03</pdfrwt>
<pdfrwt beam="2">  1        3 0.14682392E+00 0.12853942E+03</pdfrwt>
<totfact> 0.13472606E+04</totfact>
</mgrwt>
</event>
<event>
 4    1  0.4926234E+003  0.1072236E+03  0.7546771E-02  0.1265799E+00
          2   -1    0    0  502    0 -0.00000000000E+00  0.00000000000E+00  0.31743823958E+04  0.31743823958E+04  0.00000000000E+00 0. -1.
         21   -1    0    0  503  502  0.00000000000E+00 -0.00000000000E+00 -0.74382220218E+01  0.74382220218E+01  0.00000000000E+00 0. -1.
         21    1    1    2  503  501 -0.10274853256E+03 -0.30653437170E+02  0.44390255372E+03  0.45666877641E+03  0.00000000000E+00 0. -1.
          2    1    1    2  501    0  0.10274853256E+03  0.30653437170E+02  0.27230416201E+04  0.27251518414E+04  0.00000000000E+00 0. -1.
<mgrwt>
<rscale>  2 0.10722357E+03</rscale>
<asrwt>0</asrwt>
<pdfrwt beam="2">  1       21 0.11443444E-02 0.10722357E+03</pdfrwt>
<pdfrwt beam="1">  1        2 0.48836544E+00 0.10722357E+03</pdfrwt>
<totfact> 0.67550791E+04</totfact>
</mgrwt>
</event>
<event>
 4    1  0.4926234E+003  0.1113436E+03  0.7546771E-02  0.1258102E+00
         -1   -1    0    0    0  501 -0.00000000000E+00  0.00000000000E+00  0.48361587214E+02  0.48361587214E+02  0.00000000000E+00 0. -1.
         21   -1    0    0  503  502  0.00000000000E+00 -0.00000000000E+00 -0.33234378814E+03  0.33234378814E+03  0.00000000000E+00 0.  1.
         21    1    1    2  503  501 -0.91663035786E+02 -0.63208300276E+02 -0.23301589035E+03  0.25825144048E+03  0.00000000000E+00 0.  1.
         -1    1    1    2    0  502  0.91663035786E+02  0.63208300276E+02 -0.50966310578E+02  0.12245393488E+03  0.00000000000E+00 0. -1.
<mgrwt>
<rscale>  2 0.11134362E+03</rscale>
<asrwt>0</asrwt>
<pdfrwt beam="2">  1       21 0.51129812E-01 0.11134362E+03</pdfrwt>
<pdfrwt beam="1">  1       -1 0.74402444E-02 0.11134362E+03</pdfrwt>
<totfact> 0.30878084E+04</totfact>
</mgrwt>
</event>
<event>
 4    1  0.4926234E+003  0.1496969E+03  0.7546771E-02  0.1200846E+00
         -1   -1    0    0    0  501 -0.00000000000E+00  0.00000000000E+00  0.59304191579E+03  0.59304191579E+03  0.00000000000E+00 0. -1.
         21   -1    0    0  503  502  0.00000000000E+00 -0.00000000000E+00 -0.96388207838E+03  0.96388207838E+03  0.00000000000E+00 0. -1.
         21    1    1    2  503  501  0.10085189624E+03  0.11062573058E+03 -0.94847061060E+03  0.96021125614E+03  0.00000000000E+00 0. -1.
         -1    1    1    2    0  502 -0.10085189624E+03 -0.11062573058E+03  0.57763044802E+03  0.59671273802E+03  0.00000000000E+00 0. -1.
<mgrwt>
<rscale>  2 0.14969688E+03</rscale>
<asrwt>0</asrwt>
<pdfrwt beam="2">  1       21 0.14828955E+00 0.14969688E+03</pdfrwt>
<pdfrwt beam="1">  1       -1 0.91237218E-01 0.14969688E+03</pdfrwt>
<totfact> 0.37170876E+01</totfact>
</mgrwt>
</event>
<event>
 4    1  0.4926234E+003  0.1083028E+03  0.7546771E-02  0.1263745E+00
          1   -1    0    0  503    0 -0.00000000000E+00  0.00000000000E+00  0.37269128000E+04  0.37269128000E+04  0.00000000000E+00 0.  1.
         21   -1    0    0  501  502  0.00000000000E+00 -0.00000000000E+00 -0.59312603634E+02  0.59312603634E+02  0.00000000000E+00 0.  1.
         21    1    1    2  503  502 -0.10101871073E+03  0.39047677726E+02 -0.84019046535E+01  0.10862823323E+03  0.00000000000E+00 0.  1.
          1    1    1    2  501    0  0.10101871073E+03 -0.39047677726E+02  0.36760021010E+04  0.36775971704E+04  0.00000000000E+00 0.  1.
<mgrwt>
<rscale>  2 0.10830282E+03</rscale>
<asrwt>0</asrwt>
<pdfrwt beam="2">  1       21 0.91250188E-02 0.10830282E+03</pdfrwt>
<pdfrwt beam="1">  1        1 0.57337102E+00 0.10830282E+03</pdfrwt>
<totfact> 0.25840529E+02</totfact>
</mgrwt>
</event>
<event>
 4    1  0.4926234E+003  0.1127684E+03  0.7546771E-02  0.1255527E+00
          2   -1    0    0  502    0 -0.00000000000E+00  0.00000000000E+00  0.96609076100E+03  0.96609076100E+03  0.00000000000E+00 0.  1.
         21   -1    0    0  503  502  0.00000000000E+00 -0.00000000000E+00 -0.52055007269E+02  0.52055007269E+02  0.00000000000E+00 0.  1.
         21    1    1    2  503  501  0.71476033736E+02  0.87223203954E+02  0.16991659663E+02  0.11404133989E+03  0.00000000000E+00 0.  1.
          2    1    1    2  501    0 -0.71476033736E+02 -0.87223203954E+02  0.89704409407E+03  0.90410442838E+03  0.00000000000E+00 0.  1.
<mgrwt>
<rscale>  2 0.11276839E+03</rscale>
<asrwt>0</asrwt>
<pdfrwt beam="2">  1       21 0.80084634E-02 0.11276839E+03</pdfrwt>
<pdfrwt beam="1">  1        2 0.14862933E+00 0.11276839E+03</pdfrwt>
<totfact> 0.42264259E+04</totfact>
</mgrwt>
</event>
<event>
 4    1  0.4926234E+003  0.1366886E+03  0.7546771E-02  0.1217855E+00
         21   -1    0    0  501  502  0.00000000000E+00  0.00000000000E+00  0.12029934492E+03  0.12029934492E+03  0.00000000000E+00 0. -1.
          1   -1    0    0  503    0 -0.00000000000E+00 -0.00000000000E+00 -0.49022725959E+04  0.49022725959E+04  0.00000000000E+00 0.  1.
         21    1    1    2  503  502 -0.12515654356E+03 -0.54950942879E+02  0.80198710211E+02  0.15847901955E+03  0.00000000000E+00 0. -1.
          1    1    1    2  501    0  0.12515654356E+03  0.54950942879E+02 -0.48621719612E+04  0.48640929213E+04  0.00000000000E+00 0.  1.
<mgrwt>
<rscale>  2 0.13668857E+03</rscale>
<asrwt>0</asrwt>
<pdfrwt beam="1">  1       21 0.18507593E-01 0.13668857E+03</pdfrwt>
<pdfrwt beam="2">  1        1 0.75419574E+00 0.13668857E+03</pdfrwt>
<totfact> 0.57668369E+00</totfact>
</mgrwt>
</event>
<event>
 4    1  0.4926234E+003  0.1299621E+03  0.7546771E-02  0.1227512E+00
         21   -1    0    0  501  502  0.00000000000E+00  0.00000000000E+00  0.45138457202E+03  0.45138457202E+03  0.00000000000E+00 0.  1.
          1   -1    0    0  503    0 -0.00000000000E+00 -0.00000000000E+00 -0.33458070575E+03  0.33458070575E+03  0.00000000000E+00 0.  1.
         21    1    1    2  503  502  0.42619421220E+02  0.12277509957E+03  0.42875819696E+03  0.44802202133E+03  0.00000000000E+00 0.  1.
          1    1    1    2  501    0 -0.42619421220E+02 -0.12277509957E+03 -0.31195433069E+03  0.33794325644E+03  0.00000000000E+00 0.  1.
<mgrwt>
<rscale>  2 0.12996207E+03</rscale>
<asrwt>0</asrwt>
<pdfrwt beam="1">  1       21 0.69443781E-01 0.12996207E+03</pdfrwt>
<pdfrwt beam="2">  1        1 0.51473954E-01 0.12996207E+03</pdfrwt>
<totfact> 0.16263538E+03</totfact>
</mgrwt>
</event>
<event>
 4    1  0.4926234E+003  0.1159316E+03  0.7546771E-02  0.1249964E+00
         21   -1    0    0  501  502  0.00000000000E+00  0.00000000000E+00  0.11872425584E+04  0.11872425584E+04  0.00000000000E+00 0. -1.
         -2   -1    0    0    0  501 -0.00000000000E+00 -0.00000000000E+00 -0.20491325391E+02  0.20491325391E+02  0.00000000000E+00 0.  1.
         21    1    1    2  503  502 -0.10104903733E+03 -0.56826275168E+02  0.98735700536E+03  0.99413982394E+03  0.00000000000E+00 0. -1.
         -2    1    1    2    0  503  0.10104903733E+03  0.56826275168E+02  0.17939422767E+03  0.21359405988E+03  0.00000000000E+00 0.  1.
<mgrwt>
<rscale>  2 0.11593159E+03</rscale>
<asrwt>0</asrwt>
<pdfrwt beam="1">  1       21 0.18265265E+00 0.11593159E+03</pdfrwt>
<pdfrwt beam="2">  1       -2 0.31525125E-02 0.11593159E+03</pdfrwt>
<totfact> 0.54545382E+03</totfact>
</mgrwt>
</event>
<event>
 4    1  0.4926234E+003  0.1137117E+03  0.7546771E-02  0.1253847E+00
          3   -1    0    0  503    0 -0.00000000000E+00  0.00000000000E+00  0.15252683256E+04  0.15252683256E+04  0.00000000000E+00 0. -1.
         21   -1    0    0  501  502  0.00000000000E+00 -0.00000000000E+00 -0.10839053789E+02  0.10839053789E+02  0.00000000000E+00 0. -1.
         21    1    1    2  503  502 -0.25764304845E+02 -0.11075442120E+03  0.39870394577E+03  0.41460243317E+03  0.00000000000E+00 0. -1.
          3    1    1    2  501    0  0.25764304845E+02  0.11075442120E+03  0.11157253261E+04  0.11215049463E+04  0.00000000000E+00 0. -1.
<mgrwt>
<rscale>  2 0.11371166E+03</rscale>
<asrwt>0</asrwt>
<pdfrwt beam="2">  1       21 0.16675479E-02 0.11371166E+03</pdfrwt>
<pdfrwt beam="1">  1        3 0.23465650E+00 0.11371166E+03</pdfrwt>
<totfact> 0.81380195E+03</totfact>
</mgrwt>
</event>
<event>
 4    1  0.4926234E+003  0.1391884E+03  0.7546771E-02  0.1214425E+00
          4   -1    0    0  502    0 -0.00000000000E+00  0.00000000000E+00  0.75430992261E+03  0.75430992261E+03  0.00000000000E+00 0. -1.
         21   -1    0    0  503  502  0.00000000000E+00 -0.00000000000E+00 -0.73161692284E+03  0.73161692284E+03  0.00000000000E+00 0.  1.
         21    1    1    2  503  501  0.81503112972E+02  0.11283017265E+03 -0.71845944874E+03  0.73181786312E+03  0.00000000000E+00 0.  1.
          4    1    1    2  501    0 -0.81503112972E+02 -0.11283017265E+03  0.74115244852E+03  0.75410898233E+03  0.00000000000E+00 0. -1.
<mgrwt>
<rscale>  2 0.13918838E+03</rscale>
<asrwt>0</asrwt>
<pdfrwt beam="2">  1       21 0.11255645E+00 0.13918838E+03</pdfrwt>
<pdfrwt beam="1">  1        4 0.11604768E+00 0.13918838E+03</pdfrwt>
<totfact> 0.16070340E+01</totfact>
</mgrwt>
</event>
<event>
 4    1  0.4926234E+003  0.1518397E+03  0.7546771E-02  0.1198230E+00
         21   -1    0    0  501  502  0.00000000000E+00  0.00000000000E+00  0.16060069527E+03  0.16060069527E+03  0.00000000000E+00 0. -1.
          2   -1    0    0  503    0 -0.00000000000E+00 -0.00000000000E+00 -0.26690520003E+03  0.26690520003E+03  0.00000000000E+00 0.  1.
         21    1    1    2  503  502 -0.93295604798E+02  0.11979665217E+03  0.92159423042E+02  0.17761944432E+03  0.00000000000E+00 0. -1.
          2    1    1    2  501    0  0.93295604798E+02 -0.11979665217E+03 -0.19846392780E+03  0.24988645098E+03  0.00000000000E+00 0.  1.
<mgrwt>
<rscale>  2 0.15183974E+03</rscale>
<asrwt>0</asrwt>
<pdfrwt beam="1">  1       21 0.24707799E-01 0.15183974E+03</pdfrwt>
<pdfrwt beam="2">  1        2 0.41062338E-01 0.15183974E+03</pdfrwt>
<totfact> 0.23892274E+04</totfact>
</mgrwt>
</event>
<event>
 4    1  0.4926234E+003  0.1214771E+03  0.7546771E-02  0.1240680E+00
          2   -1    0    0  503    0 -0.00000000000E+00  0.00000000000E+00  0.11573683278E+04  0.11573683278E+04  0.00000000000E+00 0. -1.
         21   -1    0    0  501  502  0.00000000000E+00 -0.00000000000E+00 -0.14431864836E+02  0.14431864836E+02  0.00000000000E+00 0. -1.
         21    1    1    2  503  502 -0.72071816101E+02  0.97787250505E+02  0.37146806913E+03  0.39082632897E+03  0.00000000000E+00 0. -1.
          2    1    1    2  501    0  0.72071816101E+02 -0.97787250505E+02  0.77146839385E+03  0.78097386368E+03  0.00000000000E+00 0. -1.
<mgrwt>
<rscale>  2 0.12147713E+03</rscale>
<asrwt>0</asrwt>
<pdfrwt beam="2">  1       21 0.22202878E-02 0.12147713E+03</pdfrwt>
<pdfrwt beam="1">  1        2 0.17805659E+00 0.12147713E+03</pdfrwt>
<totfact> 0.27712396E+05</totfact>
</mgrwt>
</event>
<event>
 4    1  0.4926234E+003  0.2065671E+03  0.7546771E-02  0.1144314E+00
         21   -1    0    0  501  502  0.00000000000E+00  0.00000000000E+00  0.75407578592E+02  0.75407578592E+02  0.00000000000E+00 0.  1.
          1   -1    0    0  503    0 -0.00000000000E+00 -0.00000000000E+00 -0.73041058773E+03  0.73041058773E+03  0.00000000000E+00 0.  1.
         21    1    1    2  503  502 -0.20468915252E+03 -0.27790290455E+02 -0.13626251077E+03  0.24746195918E+03  0.00000000000E+00 0.  1.
          1    1    1    2  501    0  0.20468915252E+03  0.27790290455E+02 -0.51874049836E+03  0.55835620713E+03  0.00000000000E+00 0.  1.
<mgrwt>
<rscale>  2 0.20656706E+03</rscale>
<asrwt>0</asrwt>
<pdfrwt beam="1">  1       21 0.11601166E-01 0.20656706E+03</pdfrwt>
<pdfrwt beam="2">  1        1 0.11237086E+00 0.20656706E+03</pdfrwt>
<totfact> 0.18346628E+04</totfact>
</mgrwt>
</event>
<event>
 4    1  0.4926234E+003  0.1572457E+03  0.7546771E-02  0.1191842E+00
         21   -1    0    0  501  502  0.00000000000E+00  0.00000000000E+00  0.21835927187E+02  0.21835927187E+02  0.00000000000E+00 0. -1.
          2   -1    0    0  503    0 -0.00000000000E+00 -0.00000000000E+00 -0.14609196389E+04  0.14609196389E+04  0.00000000000E+00 0. -1.
         21    1    1    2  503  502  0.87266589415E+01 -0.15700331841E+03 -0.36795590666E+03  0.40014715520E+03  0.00000000000E+00 0. -1.
          2    1    1    2  501    0 -0.87266589415E+01  0.15700331841E+03 -0.10711278050E+04  0.10826084109E+04  0.00000000000E+00 0. -1.
<mgrwt>
<rscale>  2 0.15724566E+03</rscale>
<asrwt>0</asrwt>
<pdfrwt beam="1">  1       21 0.33593730E-02 0.15724566E+03</pdfrwt>
<pdfrwt beam="2">  1        2 0.22475689E+00 0.15724566E+03</pdfrwt>
<totfact> 0.96817709E+04</totfact>
</mgrwt>
</event>
<event>
 4    1  0.4926234E+003  0.1036411E+03  0.7546771E-02  0.1272820E+00
         -1   -1    0    0    0  501 -0.00000000000E+00  0.00000000000E+00  0.18848126389E+02  0.18848126389E+02  0.00000000000E+00 0. -1.
         21   -1    0    0  501  502  0.00000000000E+00 -0.00000000000E+00 -0.77837200255E+03  0.77837200255E+03  0.00000000000E+00 0.  1.
         21    1    1    2  503  502 -0.71700044891E+02  0.74837015320E+02 -0.58605399251E+03  0.59514767700E+03  0.00000000000E+00 0.  1.
         -1    1    1    2    0  503  0.71700044891E+02 -0.74837015320E+02 -0.17346988365E+03  0.20207245194E+03  0.00000000000E+00 0. -1.
<mgrwt>
<rscale>  2 0.10364109E+03</rscale>
<asrwt>0</asrwt>
<pdfrwt beam="2">  1       21 0.11974955E+00 0.10364109E+03</pdfrwt>
<pdfrwt beam="1">  1       -1 0.28997115E-02 0.10364109E+03</pdfrwt>
<totfact> 0.18561719E+04</totfact>
</mgrwt>
</event>
<event>
 4    1  0.4926234E+003  0.1220608E+03  0.7546771E-02  0.1239736E+00
         21   -1    0    0  503  502  0.00000000000E+00  0.00000000000E+00  0.39586203596E+02  0.39586203596E+02  0.00000000000E+00 0.  1.
          2   -1    0    0  502    0 -0.00000000000E+00 -0.00000000000E+00 -0.20271845782E+04  0.20271845782E+04  0.00000000000E+00 0. -1.
         21    1    1    2  503  501 -0.12166422676E+03 -0.98315145291E+01 -0.61263333253E+02  0.13657246704E+03  0.00000000000E+00 0.  1.
          2    1    1    2  501    0  0.12166422676E+03  0.98315145291E+01 -0.19263350414E+04  0.19301983148E+04  0.00000000000E+00 0. -1.
<mgrwt>
<rscale>  2 0.12206082E+03</rscale>
<asrwt>0</asrwt>
<pdfrwt beam="1">  1       21 0.60901829E-02 0.12206082E+03</pdfrwt>
<pdfrwt beam="2">  1        2 0.31187467E+00 0.12206082E+03</pdfrwt>
<totfact> 0.18435963E+04</totfact>
</mgrwt>
</event>
<event>
 4    1  0.4926234E+003  0.1255202E+03  0.7546771E-02  0.1234258E+00
         -4   -1    0    0    0  501 -0.00000000000E+00  0.00000000000E+00  0.72135505958E+02  0.72135505958E+02  0.00000000000E+00 0.  1.
         21   -1    0    0  501  502  0.00000000000E+00 -0.00000000000E+00 -0.47395706328E+03  0.47395706328E+03  0.00000000000E+00 0. -1.
         21    1    1    2  503  502  0.48510530226E+02  0.11576726797E+03 -0.40140399090E+03  0.42057162979E+03  0.00000000000E+00 0. -1.
         -4    1    1    2    0  503 -0.48510530226E+02 -0.11576726797E+03 -0.41756642155E+00  0.12552093944E+03  0.00000000000E+00 0.  1.
<mgrwt>
<rscale>  2 0.12552024E+03</rscale>
<asrwt>0</asrwt>
<pdfrwt beam="2">  1       21 0.72916471E-01 0.12552024E+03</pdfrwt>
<pdfrwt beam="1">  1       -4 0.11097770E-01 0.12552024E+03</pdfrwt>
<totfact> 0.44445942E+03</totfact>
</mgrwt>
</event>
<event>
 4    1  0.4926234E+003  0.1154335E+03  0.7546771E-02  0.1250826E+00
         21   -1    0    0  501  502  0.00000000000E+00  0.00000000000E+00  0.40009499666E+02  0.40009499666E+02  0.00000000000E+00 0.  1.
          1   -1    0    0  503    0 -0.00000000000E+00 -0.00000000000E+00 -0.37665263746E+03  0.37665263746E+03  0.00000000000E+00 0. -1.
         21    1    1    2  503  502 -0.28678941005E+02  0.11181415270E+03 -0.97433287226E+02  0.15105671736E+03  0.00000000000E+00 0.  1.
          1    1    1    2  501    0  0.28678941005E+02 -0.11181415270E+03 -0.23920985057E+03  0.26560541977E+03  0.00000000000E+00 0. -1.
<mgrwt>
<rscale>  2 0.11543347E+03</rscale>
<asrwt>0</asrwt>
<pdfrwt beam="1">  1       21 0.61553077E-02 0.11543347E+03</pdfrwt>
<pdfrwt beam="2">  1        1 0.57946559E-01 0.11543347E+03</pdfrwt>
<totfact> 0.13348445E+05</totfact>
</mgrwt>
</event>
<event>
 4    1  0.4926234E+003  0.1047872E+03  0.7546771E-02  0.1270540E+00
          2   -1    0    0  503    0 -0.00000000000E+00  0.00000000000E+00  0.35869099591E+04  0.35869099591E+04  0.00000000000E+00 0. -1.
         21   -1    0    0  501  502  0.00000000000E+00 -0.00000000000E+00 -0.36887049299E+01  0.36887049299E+01  0.00000000000E+00 0. -1.
         21    1    1    2  503  502  0.10405056609E+03  0.12402702040E+02  0.10511551089E+04  0.10563651879E+04  0.00000000000E+00 0. -1.
          2    1    1    2  501    0 -0.10405056609E+03 -0.12402702040E+02  0.25320661453E+04  0.25342334761E+04  0.00000000000E+00 0. -1.
<mgrwt>
<rscale>  2 0.10478715E+03</rscale>
<asrwt>0</asrwt>
<pdfrwt beam="2">  1       21 0.56749594E-03 0.10478715E+03</pdfrwt>
<pdfrwt beam="1">  1        2 0.55182951E+00 0.10478715E+03</pdfrwt>
<totfact> 0.11162707E+05</totfact>
</mgrwt>
</event>
<event>
 4    1  0.4926234E+003  0.1117895E+03  0.7546771E-02  0.1257291E+00
         21   -1    0    0  501  502  0.00000000000E+00  0.00000000000E+00  0.40647475690E+03  0.40647475690E+03  0.00000000000E+00 0.  1.
          4   -1    0    0  503    0 -0.00000000000E+00 -0.00000000000E+00 -0.36059824115E+02  0.36059824115E+02  0.00000000000E+00 0.  1.
         21    1    1    2  503  502  0.69105042479E+02  0.87871380756E+02  0.27015835988E+03  0.29237377767E+03  0.00000000000E+00 0.  1.
          4    1    1    2  501    0 -0.69105042479E+02 -0.87871380756E+02  0.10025657290E+03  0.15016080334E+03  0.00000000000E+00 0.  1.
<mgrwt>
<rscale>  2 0.11178947E+03</rscale>
<asrwt>0</asrwt>
<pdfrwt beam="1">  1       21 0.62534575E-01 0.11178947E+03</pdfrwt>
<pdfrwt beam="2">  1        4 0.55476655E-02 0.11178947E+03</pdfrwt>
<totfact> 0.19297048E+04</totfact>
</mgrwt>
</event>
<event>
 4    1  0.4926234E+003  0.1204147E+03  0.7546771E-02  0.1242414E+00
          1   -1    0    0  503    0 -0.00000000000E+00  0.00000000000E+00  0.12946382655E+04  0.12946382655E+04  0.00000000000E+00 0.  1.
         21   -1    0    0  501  502  0.00000000000E+00 -0.00000000000E+00 -0.11827594855E+02  0.11827594855E+02  0.00000000000E+00 0.  1.
         21    1    1    2  503  502 -0.50499068392E+02 -0.10931398509E+03  0.49090928834E+03  0.50546180135E+03  0.00000000000E+00 0.  1.
          1    1    1    2  501    0  0.50499068392E+02  0.10931398509E+03  0.79190138229E+03  0.80100405899E+03  0.00000000000E+00 0.  1.
<mgrwt>
<rscale>  2 0.12041471E+03</rscale>
<asrwt>0</asrwt>
<pdfrwt beam="2">  1       21 0.18196310E-02 0.12041471E+03</pdfrwt>
<pdfrwt beam="1">  1        1 0.19917501E+00 0.12041471E+03</pdfrwt>
<totfact> 0.15907004E+05</totfact>
</mgrwt>
</event>
<event>
 4    1  0.4926234E+003  0.1044884E+03  0.7546771E-02  0.1271131E+00
         -1   -1    0    0    0  501 -0.00000000000E+00  0.00000000000E+00  0.28222528584E+03  0.28222528584E+03  0.00000000000E+00 0.  1.
         21   -1    0    0  503  502  0.00000000000E+00 -0.00000000000E+00 -0.87136036604E+03  0.87136036604E+03  0.00000000000E+00 0.  1.
         21    1    1    2  503  501  0.99491776935E+01  0.10401368547E+03 -0.85841140024E+03  0.86474734169E+03  0.00000000000E+00 0.  1.
         -1    1    1    2    0  502 -0.99491776935E+01 -0.10401368547E+03  0.26927632003E+03  0.28883831019E+03  0.00000000000E+00 0.  1.
<mgrwt>
<rscale>  2 0.10448843E+03</rscale>
<asrwt>0</asrwt>
<pdfrwt beam="2">  1       21 0.13405544E+00 0.10448843E+03</pdfrwt>
<pdfrwt beam="1">  1       -1 0.43419276E-01 0.10448843E+03</pdfrwt>
<totfact> 0.21188785E+02</totfact>
</mgrwt>
</event>
<event>
 4    1  0.4926234E+003  0.1395375E+03  0.7546771E-02  0.1213953E+00
          1   -1    0    0  503    0 -0.00000000000E+00  0.00000000000E+00  0.16458741415E+04  0.16458741415E+04  0.00000000000E+00 0. -1.
         21   -1    0    0  501  502  0.00000000000E+00 -0.00000000000E+00 -0.28283070313E+02  0.28283070313E+02  0.00000000000E+00 0.  1.
         21    1    1    2  503  502 -0.10175314772E+03 -0.95482992652E+02  0.17034635866E+03  0.22020124174E+03  0.00000000000E+00 0.  1.
          1    1    1    2  501    0  0.10175314772E+03  0.95482992652E+02  0.14472447125E+04  0.14539559701E+04  0.00000000000E+00 0. -1.
<mgrwt>
<rscale>  2 0.13953747E+03</rscale>
<asrwt>0</asrwt>
<pdfrwt beam="2">  1       21 0.43512429E-02 0.13953747E+03</pdfrwt>
<pdfrwt beam="1">  1        1 0.25321133E+00 0.13953747E+03</pdfrwt>
<totfact> 0.22530826E+04</totfact>
</mgrwt>
</event>
<event>
 4    1  0.4926234E+003  0.1687419E+03  0.7546771E-02  0.1179166E+00
         21   -1    0    0  503  502  0.00000000000E+00  0.00000000000E+00  0.13806115816E+03  0.13806115816E+03  0.00000000000E+00 0. -1.
         -1   -1    0    0    0  501 -0.00000000000E+00 -0.00000000000E+00 -0.30510116961E+03  0.30510116961E+03  0.00000000000E+00 0. -1.
         21    1    1    2  503  501  0.15630780397E+02  0.16801643808E+03  0.42611041368E+02  0.17403891981E+03  0.00000000000E+00 0. -1.
         -1    1    1    2    0  502 -0.15630780397E+02 -0.16801643808E+03 -0.20965105282E+03  0.26912340795E+03  0.00000000000E+00 0. -1.
<mgrwt>
<rscale>  2 0.16874195E+03</rscale>
<asrwt>0</asrwt>
<pdfrwt beam="1">  1       21 0.21240178E-01 0.16874195E+03</pdfrwt>
<pdfrwt beam="2">  1       -1 0.46938641E-01 0.16874195E+03</pdfrwt>
<totfact> 0.88220509E+03</totfact>
</mgrwt>
</event>
<event>
 4    1  0.4926234E+003  0.1371393E+03  0.7546771E-02  0.1217231E+00
         21   -1    0    0  503  502  0.00000000000E+00  0.00000000000E+00  0.48440049789E+02  0.48440049789E+02  0.00000000000E+00 0.  1.
         -1   -1    0    0    0  501 -0.00000000000E+00 -0.00000000000E+00 -0.16617546003E+04  0.16617546003E+04  0.00000000000E+00 0.  1.
         21    1    1    2  503  501  0.13512305027E+03 -0.23429798948E+02 -0.58089464373E+02  0.14893481817E+03  0.00000000000E+00 0.  1.
         -1    1    1    2    0  502 -0.13512305027E+03  0.23429798948E+02 -0.15552250862E+04  0.15612598319E+04  0.00000000000E+00 0.  1.
<mgrwt>
<rscale>  2 0.13713932E+03</rscale>
<asrwt>0</asrwt>
<pdfrwt beam="1">  1       21 0.74523172E-02 0.13713932E+03</pdfrwt>
<pdfrwt beam="2">  1       -1 0.25565449E+00 0.13713932E+03</pdfrwt>
<totfact> 0.97541193E+02</totfact>
</mgrwt>
</event>
<event>
 4    1  0.4926234E+003  0.1987530E+03  0.7546771E-02  0.1150795E+00
          2   -1    0    0  503    0 -0.00000000000E+00  0.00000000000E+00  0.13333226105E+04  0.13333226105E+04  0.00000000000E+00 0.  1.
         21   -1    0    0  501  502  0.00000000000E+00 -0.00000000000E+00 -0.73883193142E+02  0.73883193142E+02  0.00000000000E+00 0. -1.
         21    1    1    2  503  502 -0.19129732130E+03  0.53926676730E+02  0.85166478233E+02  0.21623154399E+03  0.00000000000E+00 0. -1.
          2    1    1    2  501    0  0.19129732130E+03 -0.53926676730E+02  0.11742729391E+04  0.11909742596E+04  0.00000000000E+00 0.  1.
<mgrwt>
<rscale>  2 0.19875299E+03</rscale>
<asrwt>0</asrwt>
<pdfrwt beam="2">  1       21 0.11366646E-01 0.19875299E+03</pdfrwt>
<pdfrwt beam="1">  1        2 0.20512654E+00 0.19875299E+03</pdfrwt>
<totfact> 0.13908226E+04</totfact>
</mgrwt>
</event>
<event>
 4    1  0.4926234E+003  0.1037130E+03  0.7546771E-02  0.1272676E+00
          2   -1    0    0  503    0 -0.00000000000E+00  0.00000000000E+00  0.75754869239E+03  0.75754869239E+03  0.00000000000E+00 0. -1.
         21   -1    0    0  501  502  0.00000000000E+00 -0.00000000000E+00 -0.15396554491E+02  0.15396554491E+02  0.00000000000E+00 0. -1.
         21    1    1    2  503  502  0.10042531774E+03 -0.25906413932E+02  0.26328919102E+03  0.28297983115E+03  0.00000000000E+00 0. -1.
          2    1    1    2  501    0 -0.10042531774E+03  0.25906413932E+02  0.47886294687E+03  0.48996541573E+03  0.00000000000E+00 0. -1.
<mgrwt>
<rscale>  2 0.10371300E+03</rscale>
<asrwt>0</asrwt>
<pdfrwt beam="2">  1       21 0.23687013E-02 0.10371300E+03</pdfrwt>
<pdfrwt beam="1">  1        2 0.11654592E+00 0.10371300E+03</pdfrwt>
<totfact> 0.43502357E+05</totfact>
</mgrwt>
</event>
<event>
 4    1  0.4926234E+003  0.1182886E+03  0.7546771E-02  0.1245947E+00
          2   -1    0    0  502    0 -0.00000000000E+00  0.00000000000E+00  0.69539687211E+03  0.69539687211E+03  0.00000000000E+00 0.  1.
         21   -1    0    0  503  502  0.00000000000E+00 -0.00000000000E+00 -0.20285473912E+02  0.20285473912E+02  0.00000000000E+00 0. -1.
         21    1    1    2  503  501  0.11590505783E+03 -0.23626540424E+02  0.30535041933E+03  0.32746156175E+03  0.00000000000E+00 0. -1.
          2    1    1    2  501    0 -0.11590505783E+03  0.23626540424E+02  0.36976097888E+03  0.38822078427E+03  0.00000000000E+00 0.  1.
<mgrwt>
<rscale>  2 0.11828861E+03</rscale>
<asrwt>0</asrwt>
<pdfrwt beam="2">  1       21 0.31208427E-02 0.11828861E+03</pdfrwt>
<pdfrwt beam="1">  1        2 0.10698412E+00 0.11828861E+03</pdfrwt>
<totfact> 0.30977349E+05</totfact>
</mgrwt>
</event>
<event>
 4    1  0.4926234E+003  0.1539859E+03  0.7546771E-02  0.1195659E+00
         -3   -1    0    0    0  501 -0.00000000000E+00  0.00000000000E+00  0.21880555776E+03  0.21880555776E+03  0.00000000000E+00 0. -1.
         21   -1    0    0  503  502  0.00000000000E+00 -0.00000000000E+00 -0.19822540942E+03  0.19822540942E+03  0.00000000000E+00 0.  1.
         21    1    1    2  503  501 -0.21700547990E+02 -0.15244910498E+03 -0.13009930047E+03  0.20158737901E+03  0.00000000000E+00 0.  1.
         -3    1    1    2    0  502  0.21700547990E+02  0.15244910498E+03  0.15067944881E+03  0.21544358817E+03  0.00000000000E+00 0. -1.
<mgrwt>
<rscale>  2 0.15398585E+03</rscale>
<asrwt>0</asrwt>
<pdfrwt beam="2">  1       21 0.30496217E-01 0.15398585E+03</pdfrwt>
<pdfrwt beam="1">  1       -3 0.33662394E-01 0.15398585E+03</pdfrwt>
<totfact> 0.43801363E+03</totfact>
</mgrwt>
</event>
<event>
 4    1  0.4926234E+003  0.1562130E+03  0.7546771E-02  0.1193040E+00
         21   -1    0    0  503  502  0.00000000000E+00  0.00000000000E+00  0.65896752387E+02  0.65896752387E+02  0.00000000000E+00 0. -1.
          1   -1    0    0  502    0 -0.00000000000E+00 -0.00000000000E+00 -0.62777953178E+03  0.62777953178E+03  0.00000000000E+00 0. -1.
         21    1    1    2  503  501 -0.14114078441E+03 -0.66946040855E+02 -0.58823888432E+02  0.16692136849E+03  0.00000000000E+00 0. -1.
          1    1    1    2  501    0  0.14114078441E+03  0.66946040855E+02 -0.50305889096E+03  0.52675491567E+03  0.00000000000E+00 0. -1.
<mgrwt>
<rscale>  2 0.15621297E+03</rscale>
<asrwt>0</asrwt>
<pdfrwt beam="1">  1       21 0.10137961E-01 0.15621297E+03</pdfrwt>
<pdfrwt beam="2">  1        1 0.96581471E-01 0.15621297E+03</pdfrwt>
<totfact> 0.29141904E+04</totfact>
</mgrwt>
</event>
<event>
 4    1  0.4926234E+003  0.1247794E+03  0.7546771E-02  0.1235414E+00
         21   -1    0    0  503  502  0.00000000000E+00  0.00000000000E+00  0.25847174929E+02  0.25847174929E+02  0.00000000000E+00 0.  1.
          1   -1    0    0  502    0 -0.00000000000E+00 -0.00000000000E+00 -0.16731172682E+04  0.16731172682E+04  0.00000000000E+00 0. -1.
         21    1    1    2  503  501 -0.39456519191E+02  0.11837683701E+03 -0.14406848022E+03  0.19059281057E+03  0.00000000000E+00 0.  1.
          1    1    1    2  501    0  0.39456519191E+02 -0.11837683701E+03 -0.15032016130E+04  0.15083716325E+04  0.00000000000E+00 0. -1.
<mgrwt>
<rscale>  2 0.12477938E+03</rscale>
<asrwt>0</asrwt>
<pdfrwt beam="1">  1       21 0.39764870E-02 0.12477938E+03</pdfrwt>
<pdfrwt beam="2">  1        1 0.25740275E+00 0.12477938E+03</pdfrwt>
<totfact> 0.25249461E+04</totfact>
</mgrwt>
</event>
<event>
 4    1  0.4926234E+003  0.1396962E+03  0.7546771E-02  0.1213738E+00
         -1   -1    0    0    0  501 -0.00000000000E+00  0.00000000000E+00  0.90265240190E+03  0.90265240190E+03  0.00000000000E+00 0. -1.
         21   -1    0    0  503  502  0.00000000000E+00 -0.00000000000E+00 -0.41831428876E+02  0.41831428876E+02  0.00000000000E+00 0. -1.
         21    1    1    2  503  501  0.72110471484E+02 -0.11964570432E+03  0.10215225773E+03  0.17306096734E+03  0.00000000000E+00 0. -1.
         -1    1    1    2    0  502 -0.72110471484E+02  0.11964570432E+03  0.75866871530E+03  0.77142286344E+03  0.00000000000E+00 0. -1.
<mgrwt>
<rscale>  2 0.13969615E+03</rscale>
<asrwt>0</asrwt>
<pdfrwt beam="2">  1       21 0.64356051E-02 0.13969615E+03</pdfrwt>
<pdfrwt beam="1">  1       -1 0.13886959E+00 0.13969615E+03</pdfrwt>
<totfact> 0.76767504E+03</totfact>
</mgrwt>
</event>
<event>
 4    1  0.4926234E+003  0.1033391E+03  0.7546771E-02  0.1273427E+00
         21   -1    0    0  503  502  0.00000000000E+00  0.00000000000E+00  0.91434427800E+02  0.91434427800E+02  0.00000000000E+00 0.  1.
          2   -1    0    0  502    0 -0.00000000000E+00 -0.00000000000E+00 -0.14891065784E+03  0.14891065784E+03  0.00000000000E+00 0.  1.
         21    1    1    2  503  501 -0.10292652505E+03  0.92250226997E+01  0.27071516592E+02  0.10682620284E+03  0.00000000000E+00 0.  1.
          2    1    1    2  501    0  0.10292652505E+03 -0.92250226997E+01 -0.84547746634E+02  0.13351888280E+03  0.00000000000E+00 0.  1.
<mgrwt>
<rscale>  2 0.10333910E+03</rscale>
<asrwt>0</asrwt>
<pdfrwt beam="1">  1       21 0.14066835E-01 0.10333910E+03</pdfrwt>
<pdfrwt beam="2">  1        2 0.22909332E-01 0.10333910E+03</pdfrwt>
<totfact> 0.12537768E+05</totfact>
</mgrwt>
</event>
<event>
 4    1  0.4926234E+003  0.1023932E+03  0.7546771E-02  0.1275342E+00
         21   -1    0    0  503  502  0.00000000000E+00  0.00000000000E+00  0.27958999578E+03  0.27958999578E+03  0.00000000000E+00 0. -1.
         -1   -1    0    0    0  501 -0.00000000000E+00 -0.00000000000E+00 -0.39225467174E+03  0.39225467174E+03  0.00000000000E+00 0. -1.
         21    1    1    2  503  501  0.81614541176E+02 -0.61833925276E+02  0.26312983487E+03  0.28235027474E+03  0.00000000000E+00 0. -1.
         -1    1    1    2    0  502 -0.81614541176E+02  0.61833925276E+02 -0.37579451082E+03  0.38949439279E+03  0.00000000000E+00 0. -1.
<mgrwt>
<rscale>  2 0.10239320E+03</rscale>
<asrwt>0</asrwt>
<pdfrwt beam="1">  1       21 0.43013846E-01 0.10239320E+03</pdfrwt>
<pdfrwt beam="2">  1       -1 0.60346872E-01 0.10239320E+03</pdfrwt>
<totfact> 0.14426628E+03</totfact>
</mgrwt>
</event>
<event>
 4    1  0.4926234E+003  0.1028776E+03  0.7546771E-02  0.1274359E+00
         21   -1    0    0  503  502  0.00000000000E+00  0.00000000000E+00  0.86087741770E+03  0.86087741770E+03  0.00000000000E+00 0. -1.
          1   -1    0    0  502    0 -0.00000000000E+00 -0.00000000000E+00 -0.24687866256E+02  0.24687866256E+02  0.00000000000E+00 0.  1.
         21    1    1    2  503  501 -0.97608240617E+02  0.32502811355E+02  0.73181943936E+03  0.73901521852E+03  0.00000000000E+00 0. -1.
          1    1    1    2  501    0  0.97608240617E+02 -0.32502811355E+02  0.10437011209E+03  0.14655006544E+03  0.00000000000E+00 0.  1.
<mgrwt>
<rscale>  2 0.10287760E+03</rscale>
<asrwt>0</asrwt>
<pdfrwt beam="1">  1       21 0.13244266E+00 0.10287760E+03</pdfrwt>
<pdfrwt beam="2">  1        1 0.37981339E-02 0.10287760E+03</pdfrwt>
<totfact> 0.10765154E+04</totfact>
</mgrwt>
</event>
<event>
 4    1  0.4926234E+003  0.1104897E+03  0.7546771E-02  0.1259666E+00
         21   -1    0    0  501  502  0.00000000000E+00  0.00000000000E+00  0.66951464116E+02  0.66951464116E+02  0.00000000000E+00 0. -1.
          1   -1    0    0  503    0 -0.00000000000E+00 -0.00000000000E+00 -0.29560892986E+03  0.29560892986E+03  0.00000000000E+00 0. -1.
         21    1    1    2  503  502 -0.10362292425E+03 -0.38343884067E+02 -0.21149979699E+01  0.11050989590E+03  0.00000000000E+00 0. -1.
          1    1    1    2  501    0  0.10362292425E+03  0.38343884067E+02 -0.22654246778E+03  0.25205049808E+03  0.00000000000E+00 0. -1.
<mgrwt>
<rscale>  2 0.11048966E+03</rscale>
<asrwt>0</asrwt>
<pdfrwt beam="1">  1       21 0.10300225E-01 0.11048966E+03</pdfrwt>
<pdfrwt beam="2">  1        1 0.45478297E-01 0.11048966E+03</pdfrwt>
<totfact> 0.74242393E+04</totfact>
</mgrwt>
</event>
<event>
 4    1  0.4926234E+003  0.1350883E+03  0.7546771E-02  0.1220095E+00
         21   -1    0    0  501  502  0.00000000000E+00  0.00000000000E+00  0.45456648924E+02  0.45456648924E+02  0.00000000000E+00 0. -1.
          2   -1    0    0  503    0 -0.00000000000E+00 -0.00000000000E+00 -0.98038770861E+03  0.98038770861E+03  0.00000000000E+00 0.  1.
         21    1    1    2  503  502  0.50329614300E+02  0.12536263075E+03 -0.73311386955E+02  0.15369911751E+03  0.00000000000E+00 0. -1.
          2    1    1    2  501    0 -0.50329614300E+02 -0.12536263075E+03 -0.86161967273E+03  0.87214524003E+03  0.00000000000E+00 0.  1.
<mgrwt>
<rscale>  2 0.13508834E+03</rscale>
<asrwt>0</asrwt>
<pdfrwt beam="1">  1       21 0.69933305E-02 0.13508834E+03</pdfrwt>
<pdfrwt beam="2">  1        2 0.15082888E+00 0.13508834E+03</pdfrwt>
<totfact> 0.52221118E+04</totfact>
</mgrwt>
</event>
<event>
 4    1  0.4926234E+003  0.1190356E+03  0.7546771E-02  0.1244697E+00
          3   -1    0    0  502    0 -0.00000000000E+00  0.00000000000E+00  0.70009926205E+02  0.70009926205E+02  0.00000000000E+00 0. -1.
         21   -1    0    0  503  502  0.00000000000E+00 -0.00000000000E+00 -0.36674632900E+03  0.36674632900E+03  0.00000000000E+00 0. -1.
         21    1    1    2  503  501 -0.87703561755E+02  0.80483301371E+02 -0.29455774289E+03  0.31770070891E+03  0.00000000000E+00 0. -1.
          3    1    1    2  501    0  0.87703561755E+02 -0.80483301371E+02 -0.21786599007E+01  0.11905554629E+03  0.00000000000E+00 0. -1.
<mgrwt>
<rscale>  2 0.11903561E+03</rscale>
<asrwt>0</asrwt>
<pdfrwt beam="2">  1       21 0.56422512E-01 0.11903561E+03</pdfrwt>
<pdfrwt beam="1">  1        3 0.10770758E-01 0.11903561E+03</pdfrwt>
<totfact> 0.93029909E+03</totfact>
</mgrwt>
</event>
<event>
 4    1  0.4926234E+003  0.1709568E+03  0.7546771E-02  0.1176854E+00
          1   -1    0    0  503    0 -0.00000000000E+00  0.00000000000E+00  0.15867926761E+03  0.15867926761E+03  0.00000000000E+00 0.  1.
         21   -1    0    0  501  502  0.00000000000E+00 -0.00000000000E+00 -0.69202812046E+03  0.69202812046E+03  0.00000000000E+00 0. -1.
         21    1    1    2  503  502  0.10745162970E+03 -0.13296758086E+03 -0.63105349602E+03  0.65380023335E+03  0.00000000000E+00 0. -1.
          1    1    1    2  501    0 -0.10745162970E+03  0.13296758086E+03  0.97704643173E+02  0.19690715473E+03  0.00000000000E+00 0.  1.
<mgrwt>
<rscale>  2 0.17095681E+03</rscale>
<asrwt>0</asrwt>
<pdfrwt beam="2">  1       21 0.10646586E+00 0.17095681E+03</pdfrwt>
<pdfrwt beam="1">  1        1 0.24412195E-01 0.17095681E+03</pdfrwt>
<totfact> 0.15209197E+03</totfact>
</mgrwt>
</event>
<event>
 4    1  0.4926234E+003  0.1436132E+03  0.7546771E-02  0.1208548E+00
         21   -1    0    0  503  502  0.00000000000E+00  0.00000000000E+00  0.30029361961E+03  0.30029361961E+03  0.00000000000E+00 0. -1.
          4   -1    0    0  502    0 -0.00000000000E+00 -0.00000000000E+00 -0.10272375549E+03  0.10272375549E+03  0.00000000000E+00 0. -1.
         21    1    1    2  503  501  0.95129154409E+01 -0.14329774114E+03  0.21478677883E+03  0.25837588614E+03  0.00000000000E+00 0. -1.
          4    1    1    2  501    0 -0.95129154409E+01  0.14329774114E+03 -0.17216914709E+02  0.14464148896E+03  0.00000000000E+00 0. -1.
<mgrwt>
<rscale>  2 0.14361315E+03</rscale>
<asrwt>0</asrwt>
<pdfrwt beam="1">  1       21 0.46199018E-01 0.14361315E+03</pdfrwt>
<pdfrwt beam="2">  1        4 0.15803655E-01 0.14361315E+03</pdfrwt>
<totfact> 0.63923743E+03</totfact>
</mgrwt>
</event>
<event>
 4    1  0.4926234E+003  0.1471062E+03  0.7546771E-02  0.1204075E+00
         21   -1    0    0  503  502  0.00000000000E+00  0.00000000000E+00  0.26247243865E+02  0.26247243865E+02  0.00000000000E+00 0.  1.
          2   -1    0    0  502    0 -0.00000000000E+00 -0.00000000000E+00 -0.17020199667E+04  0.17020199667E+04  0.00000000000E+00 0. -1.
         21    1    1    2  503  501  0.64646552324E+02  0.13214027332E+03 -0.21739897705E+03  0.26249294044E+03  0.00000000000E+00 0.  1.
          2    1    1    2  501    0 -0.64646552324E+02 -0.13214027332E+03 -0.14583737458E+04  0.14657742701E+04  0.00000000000E+00 0. -1.
<mgrwt>
<rscale>  2 0.14710618E+03</rscale>
<asrwt>0</asrwt>
<pdfrwt beam="1">  1       21 0.40380365E-02 0.14710618E+03</pdfrwt>
<pdfrwt beam="2">  1        2 0.26184929E+00 0.14710618E+03</pdfrwt>
<totfact> 0.53505221E+04</totfact>
</mgrwt>
</event>
<event>
 4    1  0.4926234E+003  0.1079929E+03  0.7546771E-02  0.1264333E+00
         21   -1    0    0  501  502  0.00000000000E+00  0.00000000000E+00  0.59595449580E+02  0.59595449580E+02  0.00000000000E+00 0.  1.
          2   -1    0    0  503    0 -0.00000000000E+00 -0.00000000000E+00 -0.51253600826E+03  0.51253600826E+03  0.00000000000E+00 0.  1.
         21    1    1    2  503  502 -0.62677152595E+02  0.87943383686E+02 -0.15518157683E+01  0.10800403846E+03  0.00000000000E+00 0.  1.
          2    1    1    2  501    0  0.62677152595E+02 -0.87943383686E+02 -0.45138874292E+03  0.46412741938E+03  0.00000000000E+00 0.  1.
<mgrwt>
<rscale>  2 0.10799289E+03</rscale>
<asrwt>0</asrwt>
<pdfrwt beam="1">  1       21 0.91685305E-02 0.10799289E+03</pdfrwt>
<pdfrwt beam="2">  1        2 0.78851695E-01 0.10799289E+03</pdfrwt>
<totfact> 0.71188096E+04</totfact>
</mgrwt>
</event>
<event>
 4    1  0.4926234E+003  0.1285569E+03  0.7546771E-02  0.1229613E+00
         -2   -1    0    0    0  501 -0.00000000000E+00  0.00000000000E+00  0.37382863583E+03  0.37382863583E+03  0.00000000000E+00 0. -1.
         21   -1    0    0  501  502  0.00000000000E+00 -0.00000000000E+00 -0.89615575747E+02  0.89615575747E+02  0.00000000000E+00 0. -1.
         21    1    1    2  503  502 -0.12257450251E+03 -0.38760545535E+02 -0.22835477199E+02  0.13056932096E+03  0.00000000000E+00 0. -1.
         -2    1    1    2    0  503  0.12257450251E+03  0.38760545535E+02  0.30704853728E+03  0.33287489061E+03  0.00000000000E+00 0. -1.
<mgrwt>
<rscale>  2 0.12855695E+03</rscale>
<asrwt>0</asrwt>
<pdfrwt beam="2">  1       21 0.13787012E-01 0.12855695E+03</pdfrwt>
<pdfrwt beam="1">  1       -2 0.57512097E-01 0.12855695E+03</pdfrwt>
<totfact> 0.10731149E+04</totfact>
</mgrwt>
</event>
<event>
 4    1  0.4926234E+003  0.1315276E+03  0.7546771E-02  0.1225206E+00
         21   -1    0    0  503  502  0.00000000000E+00  0.00000000000E+00  0.17988390826E+03  0.17988390826E+03  0.00000000000E+00 0. -1.
          2   -1    0    0  502    0 -0.00000000000E+00 -0.00000000000E+00 -0.10551076422E+04  0.10551076422E+04  0.00000000000E+00 0.  1.
         21    1    1    2  503  501  0.57197942595E+02 -0.11843946022E+03  0.15107004989E+03  0.20030394491E+03  0.00000000000E+00 0. -1.
          2    1    1    2  501    0 -0.57197942595E+02  0.11843946022E+03 -0.10262937838E+04  0.10346876055E+04  0.00000000000E+00 0.  1.
<mgrwt>
<rscale>  2 0.13152760E+03</rscale>
<asrwt>0</asrwt>
<pdfrwt beam="1">  1       21 0.27674447E-01 0.13152760E+03</pdfrwt>
<pdfrwt beam="2">  1        2 0.16232425E+00 0.13152760E+03</pdfrwt>
<totfact> 0.39722014E+03</totfact>
</mgrwt>
</event>
<event>
 4    1  0.4926234E+003  0.1146090E+03  0.7546771E-02  0.1252265E+00
         21   -1    0    0  501  502  0.00000000000E+00  0.00000000000E+00  0.17736090590E+03  0.17736090590E+03  0.00000000000E+00 0.  1.
          1   -1    0    0  503    0 -0.00000000000E+00 -0.00000000000E+00 -0.11350821006E+03  0.11350821006E+03  0.00000000000E+00 0.  1.
         21    1    1    2  503  502 -0.98551703112E+02  0.58504585284E+02  0.11766397852E+03  0.16425600910E+03  0.00000000000E+00 0.  1.
          1    1    1    2  501    0  0.98551703112E+02 -0.58504585284E+02 -0.53811282672E+02  0.12661310686E+03  0.00000000000E+00 0.  1.
<mgrwt>
<rscale>  2 0.11460901E+03</rscale>
<asrwt>0</asrwt>
<pdfrwt beam="1">  1       21 0.27286293E-01 0.11460901E+03</pdfrwt>
<pdfrwt beam="2">  1        1 0.17462802E-01 0.11460901E+03</pdfrwt>
<totfact> 0.41656130E+04</totfact>
</mgrwt>
</event>
<event>
 4    1  0.4926234E+003  0.1117598E+03  0.7546771E-02  0.1257345E+00
          3   -1    0    0  503    0 -0.00000000000E+00  0.00000000000E+00  0.47477306902E+03  0.47477306902E+03  0.00000000000E+00 0.  1.
         21   -1    0    0  501  502  0.00000000000E+00 -0.00000000000E+00 -0.33817379957E+02  0.33817379957E+02  0.00000000000E+00 0. -1.
         21    1    1    2  503  502  0.68821369031E+02 -0.88056063340E+02  0.10064522218E+03  0.15039851021E+03  0.00000000000E+00 0. -1.
          3    1    1    2  501    0 -0.68821369031E+02  0.88056063340E+02  0.34031046688E+03  0.35819193876E+03  0.00000000000E+00 0.  1.
<mgrwt>
<rscale>  2 0.11175979E+03</rscale>
<asrwt>0</asrwt>
<pdfrwt beam="2">  1       21 0.52026742E-02 0.11175979E+03</pdfrwt>
<pdfrwt beam="1">  1        3 0.73042006E-01 0.11175979E+03</pdfrwt>
<totfact> 0.21670424E+04</totfact>
</mgrwt>
</event>
<event>
 4    1  0.4926234E+003  0.1003703E+03  0.7546771E-02  0.1279519E+00
         -2   -1    0    0    0  501 -0.00000000000E+00  0.00000000000E+00  0.84642961738E+02  0.84642961738E+02  0.00000000000E+00 0. -1.
         21   -1    0    0  503  502  0.00000000000E+00 -0.00000000000E+00 -0.12703391500E+03  0.12703391500E+03  0.00000000000E+00 0. -1.
         21    1    1    2  503  501 -0.26810933483E+02  0.96723205262E+02 -0.47778610416E+02  0.11116204480E+03  0.00000000000E+00 0. -1.
         -2    1    1    2    0  502  0.26810933483E+02 -0.96723205262E+02  0.53876571529E+01  0.10051483194E+03  0.00000000000E+00 0. -1.
<mgrwt>
<rscale>  2 0.10037034E+03</rscale>
<asrwt>0</asrwt>
<pdfrwt beam="2">  1       21 0.19543679E-01 0.10037034E+03</pdfrwt>
<pdfrwt beam="1">  1       -2 0.13021994E-01 0.10037034E+03</pdfrwt>
<totfact> 0.79832968E+04</totfact>
</mgrwt>
</event>
<event>
 4    1  0.4926234E+003  0.1032391E+03  0.7546771E-02  0.1273628E+00
         21   -1    0    0  503  502  0.00000000000E+00  0.00000000000E+00  0.70806491692E+02  0.70806491692E+02  0.00000000000E+00 0.  1.
          1   -1    0    0  502    0 -0.00000000000E+00 -0.00000000000E+00 -0.79535512615E+03  0.79535512615E+03  0.00000000000E+00 0. -1.
         21    1    1    2  503  501 -0.29438800024E+02  0.98952812918E+02  0.27676935331E+02  0.10688458673E+03  0.00000000000E+00 0.  1.
          1    1    1    2  501    0  0.29438800024E+02 -0.98952812918E+02 -0.75222556979E+03  0.75927703112E+03  0.00000000000E+00 0. -1.
<mgrwt>
<rscale>  2 0.10323905E+03</rscale>
<asrwt>0</asrwt>
<pdfrwt beam="1">  1       21 0.10893306E-01 0.10323905E+03</pdfrwt>
<pdfrwt beam="2">  1        1 0.12236233E+00 0.10323905E+03</pdfrwt>
<totfact> 0.18418439E+04</totfact>
</mgrwt>
</event>
<event>
 4    1  0.4926234E+003  0.1045368E+03  0.7546771E-02  0.1271035E+00
          1   -1    0    0  503    0 -0.00000000000E+00  0.00000000000E+00  0.28808304413E+03  0.28808304413E+03  0.00000000000E+00 0. -1.
         21   -1    0    0  501  502  0.00000000000E+00 -0.00000000000E+00 -0.90276094093E+02  0.90276094093E+02  0.00000000000E+00 0. -1.
         21    1    1    2  503  502 -0.95290112911E+02 -0.42985256902E+02 -0.45147545773E+02  0.11386939369E+03  0.00000000000E+00 0. -1.
          1    1    1    2  501    0  0.95290112911E+02  0.42985256902E+02  0.24295449581E+03  0.26448974453E+03  0.00000000000E+00 0. -1.
<mgrwt>
<rscale>  2 0.10453678E+03</rscale>
<asrwt>0</asrwt>
<pdfrwt beam="2">  1       21 0.13888630E-01 0.10453678E+03</pdfrwt>
<pdfrwt beam="1">  1        1 0.44320468E-01 0.10453678E+03</pdfrwt>
<totfact> 0.45176736E+04</totfact>
</mgrwt>
</event>
<event>
 4    1  0.4926234E+003  0.1193416E+03  0.7546771E-02  0.1244187E+00
         -2   -1    0    0    0  501 -0.00000000000E+00  0.00000000000E+00  0.44299298090E+03  0.44299298090E+03  0.00000000000E+00 0.  1.
         21   -1    0    0  503  502  0.00000000000E+00 -0.00000000000E+00 -0.11331980272E+03  0.11331980272E+03  0.00000000000E+00 0.  1.
         21    1    1    2  503  501  0.10907789869E+03 -0.48419282949E+02 -0.70577382039E+02  0.13864913198E+03  0.00000000000E+00 0.  1.
         -2    1    1    2    0  502 -0.10907789869E+03  0.48419282949E+02  0.40025056022E+03  0.41766365164E+03  0.00000000000E+00 0.  1.
<mgrwt>
<rscale>  2 0.11934159E+03</rscale>
<asrwt>0</asrwt>
<pdfrwt beam="2">  1       21 0.17433816E-01 0.11934159E+03</pdfrwt>
<pdfrwt beam="1">  1       -2 0.68152766E-01 0.11934159E+03</pdfrwt>
<totfact> 0.49435326E+03</totfact>
</mgrwt>
</event>
<event>
 4    1  0.4926234E+003  0.1600403E+03  0.7546771E-02  0.1188651E+00
          2   -1    0    0  502    0 -0.00000000000E+00  0.00000000000E+00  0.21779920631E+04  0.21779920631E+04  0.00000000000E+00 0. -1.
         21   -1    0    0  503  502  0.00000000000E+00 -0.00000000000E+00 -0.11075881781E+03  0.11075881781E+03  0.00000000000E+00 0. -1.
         21    1    1    2  503  501  0.27200269941E+02  0.15771189800E+03 -0.48302180123E+02  0.16717056577E+03  0.00000000000E+00 0. -1.
          2    1    1    2  501    0 -0.27200269941E+02 -0.15771189800E+03  0.21155354254E+04  0.21215803151E+04  0.00000000000E+00 0. -1.
<mgrwt>
<rscale>  2 0.16004030E+03</rscale>
<asrwt>0</asrwt>
<pdfrwt beam="2">  1       21 0.17039820E-01 0.16004030E+03</pdfrwt>
<pdfrwt beam="1">  1        2 0.33507567E+00 0.16004030E+03</pdfrwt>
<totfact> 0.24700600E+03</totfact>
</mgrwt>
</event>
<event>
 4    1  0.4926234E+003  0.1136377E+03  0.7546771E-02  0.1253978E+00
          2   -1    0    0  503    0 -0.00000000000E+00  0.00000000000E+00  0.10730437242E+04  0.10730437242E+04  0.00000000000E+00 0. -1.
         21   -1    0    0  501  502  0.00000000000E+00 -0.00000000000E+00 -0.25771182721E+02  0.25771182721E+02  0.00000000000E+00 0. -1.
         21    1    1    2  503  502  0.91262732805E+02 -0.67709942392E+02  0.12252152326E+03  0.16710788838E+03  0.00000000000E+00 0. -1.
          2    1    1    2  501    0 -0.91262732805E+02  0.67709942392E+02  0.92475101826E+03  0.93170701857E+03  0.00000000000E+00 0. -1.
<mgrwt>
<rscale>  2 0.11363768E+03</rscale>
<asrwt>0</asrwt>
<pdfrwt beam="2">  1       21 0.39647982E-02 0.11363768E+03</pdfrwt>
<pdfrwt beam="1">  1        2 0.16508362E+00 0.11363768E+03</pdfrwt>
<totfact> 0.11960174E+05</totfact>
</mgrwt>
</event>
<event>
 4    1  0.4926234E+003  0.1002287E+03  0.7546771E-02  0.1279816E+00
         21   -1    0    0  501  502  0.00000000000E+00  0.00000000000E+00  0.78747049577E+02  0.78747049577E+02  0.00000000000E+00 0.  1.
          2   -1    0    0  503    0 -0.00000000000E+00 -0.00000000000E+00 -0.33951281464E+03  0.33951281464E+03  0.00000000000E+00 0.  1.
         21    1    1    2  503  502 -0.58563554363E+02  0.81339452906E+02  0.34850197859E+02  0.10611471523E+03  0.00000000000E+00 0.  1.
          2    1    1    2  501    0  0.58563554363E+02 -0.81339452906E+02 -0.29561596292E+03  0.31214514898E+03  0.00000000000E+00 0.  1.
<mgrwt>
<rscale>  2 0.10022872E+03</rscale>
<asrwt>0</asrwt>
<pdfrwt beam="1">  1       21 0.12114931E-01 0.10022872E+03</pdfrwt>
<pdfrwt beam="2">  1        2 0.52232741E-01 0.10022872E+03</pdfrwt>
<totfact> 0.67748192E+04</totfact>
</mgrwt>
</event>
<event>
 4    1  0.4926234E+003  0.1029489E+03  0.7546771E-02  0.1274214E+00
         21   -1    0    0  501  502  0.00000000000E+00  0.00000000000E+00  0.46287299972E+02  0.46287299972E+02  0.00000000000E+00 0.  1.
         -1   -1    0    0    0  501 -0.00000000000E+00 -0.00000000000E+00 -0.12118929557E+04  0.12118929557E+04  0.00000000000E+00 0.  1.
         21    1    1    2  503  502  0.88744268054E+02 -0.52181687288E+02 -0.16250352006E+02  0.10422354600E+03  0.00000000000E+00 0.  1.
         -1    1    1    2    0  503 -0.88744268054E+02  0.52181687288E+02 -0.11493553037E+04  0.11539567096E+04  0.00000000000E+00 0.  1.
<mgrwt>
<rscale>  2 0.10294889E+03</rscale>
<asrwt>0</asrwt>
<pdfrwt beam="1">  1       21 0.71211232E-02 0.10294889E+03</pdfrwt>
<pdfrwt beam="2">  1       -1 0.18644507E+00 0.10294889E+03</pdfrwt>
<totfact> 0.29550471E+03</totfact>
</mgrwt>
</event>
<event>
 4    1  0.4926234E+003  0.1274892E+03  0.7546771E-02  0.1231230E+00
         21   -1    0    0  503  502  0.00000000000E+00  0.00000000000E+00  0.78140787806E+02  0.78140787806E+02  0.00000000000E+00 0.  1.
         -1   -1    0    0    0  501 -0.00000000000E+00 -0.00000000000E+00 -0.84918103292E+03  0.84918103292E+03  0.00000000000E+00 0.  1.
         21    1    1    2  503  501  0.12745453489E+03 -0.29745620343E+01  0.17372865938E+02  0.12866748989E+03  0.00000000000E+00 0.  1.
         -1    1    1    2    0  502 -0.12745453489E+03  0.29745620343E+01 -0.78841311106E+03  0.79865433084E+03  0.00000000000E+00 0.  1.
<mgrwt>
<rscale>  2 0.12748924E+03</rscale>
<asrwt>0</asrwt>
<pdfrwt beam="1">  1       21 0.12021660E-01 0.12748924E+03</pdfrwt>
<pdfrwt beam="2">  1       -1 0.13064323E+00 0.12748924E+03</pdfrwt>
<totfact> 0.30209543E+03</totfact>
</mgrwt>
</event>
<event>
 4    1  0.4926234E+003  0.1096126E+03  0.7546771E-02  0.1261289E+00
         21   -1    0    0  501  502  0.00000000000E+00  0.00000000000E+00  0.90943080870E+03  0.90943080870E+03  0.00000000000E+00 0. -1.
         -1   -1    0    0    0  501 -0.00000000000E+00 -0.00000000000E+00 -0.58157925428E+03  0.58157925428E+03  0.00000000000E+00 0.  1.
         21    1    1    2  503  502 -0.10908957295E+03  0.10695297486E+02  0.90091451262E+03  0.90755819833E+03  0.00000000000E+00 0. -1.
         -1    1    1    2    0  503  0.10908957295E+03 -0.10695297486E+02 -0.57306295820E+03  0.58345186466E+03  0.00000000000E+00 0.  1.
<mgrwt>
<rscale>  2 0.10961261E+03</rscale>
<asrwt>0</asrwt>
<pdfrwt beam="1">  1       21 0.13991243E+00 0.10961261E+03</pdfrwt>
<pdfrwt beam="2">  1       -1 0.89473731E-01 0.10961261E+03</pdfrwt>
<totfact> 0.47342495E+01</totfact>
</mgrwt>
</event>
<event>
 4    1  0.4926234E+003  0.1341688E+03  0.7546771E-02  0.1221398E+00
          4   -1    0    0  503    0 -0.00000000000E+00  0.00000000000E+00  0.13731167245E+03  0.13731167245E+03  0.00000000000E+00 0.  1.
         21   -1    0    0  501  502  0.00000000000E+00 -0.00000000000E+00 -0.20754047431E+03  0.20754047431E+03  0.00000000000E+00 0. -1.
         21    1    1    2  503  502 -0.13410987922E+03  0.39773532398E+01 -0.13975953534E+03  0.19373695249E+03  0.00000000000E+00 0. -1.
          4    1    1    2  501    0  0.13410987922E+03 -0.39773532398E+01  0.69530733482E+02  0.15111519427E+03  0.00000000000E+00 0.  1.
<mgrwt>
<rscale>  2 0.13416885E+03</rscale>
<asrwt>0</asrwt>
<pdfrwt beam="2">  1       21 0.31929304E-01 0.13416885E+03</pdfrwt>
<pdfrwt beam="1">  1        4 0.21124873E-01 0.13416885E+03</pdfrwt>
<totfact> 0.79217897E+03</totfact>
</mgrwt>
</event>
<event>
 4    1  0.4926234E+003  0.1018881E+03  0.7546771E-02  0.1276375E+00
          1   -1    0    0  502    0 -0.00000000000E+00  0.00000000000E+00  0.20240298802E+04  0.20240298802E+04  0.00000000000E+00 0. -1.
         21   -1    0    0  503  502  0.00000000000E+00 -0.00000000000E+00 -0.20088406322E+02  0.20088406322E+02  0.00000000000E+00 0.  1.
         21    1    1    2  503  501 -0.40470225029E+02 -0.93505827044E+02  0.11998620187E+03  0.15740987086E+03  0.00000000000E+00 0.  1.
          1    1    1    2  501    0  0.40470225029E+02  0.93505827044E+02  0.18839552721E+04  0.18867084157E+04  0.00000000000E+00 0. -1.
<mgrwt>
<rscale>  2 0.10188807E+03</rscale>
<asrwt>0</asrwt>
<pdfrwt beam="2">  1       21 0.30905257E-02 0.10188807E+03</pdfrwt>
<pdfrwt beam="1">  1        1 0.31138905E+00 0.10188807E+03</pdfrwt>
<totfact> 0.23114914E+04</totfact>
</mgrwt>
</event>
<event>
 4    1  0.4926234E+003  0.1903796E+03  0.7546771E-02  0.1158119E+00
          2   -1    0    0  502    0 -0.00000000000E+00  0.00000000000E+00  0.23846231311E+03  0.23846231311E+03  0.00000000000E+00 0.  1.
         21   -1    0    0  503  502  0.00000000000E+00 -0.00000000000E+00 -0.61546157631E+03  0.61546157631E+03  0.00000000000E+00 0. -1.
         21    1    1    2  503  501  0.18411248920E+03 -0.48445739044E+02 -0.55900904235E+03  0.59053832030E+03  0.00000000000E+00 0. -1.
          2    1    1    2  501    0 -0.18411248920E+03  0.48445739044E+02  0.18200977916E+03  0.26338556912E+03  0.00000000000E+00 0.  1.
<mgrwt>
<rscale>  2 0.19037962E+03</rscale>
<asrwt>0</asrwt>
<pdfrwt beam="2">  1       21 0.94686395E-01 0.19037962E+03</pdfrwt>
<pdfrwt beam="1">  1        2 0.36686510E-01 0.19037962E+03</pdfrwt>
<totfact> 0.16217831E+03</totfact>
</mgrwt>
</event>
<event>
 4    1  0.4926234E+003  0.1214348E+03  0.7546771E-02  0.1240749E+00
         21   -1    0    0  501  502  0.00000000000E+00  0.00000000000E+00  0.11382431562E+02  0.11382431562E+02  0.00000000000E+00 0.  1.
          3   -1    0    0  503    0 -0.00000000000E+00 -0.00000000000E+00 -0.26169555213E+04  0.26169555213E+04  0.00000000000E+00 0.  1.
         21    1    1    2  503  502  0.50093386251E+02 -0.11062128565E+03 -0.36894661153E+03  0.38841732498E+03  0.00000000000E+00 0.  1.
          3    1    1    2  501    0 -0.50093386251E+02  0.11062128565E+03 -0.22366264782E+04  0.22399206279E+04  0.00000000000E+00 0.  1.
<mgrwt>
<rscale>  2 0.12143482E+03</rscale>
<asrwt>0</asrwt>
<pdfrwt beam="1">  1       21 0.17511435E-02 0.12143482E+03</pdfrwt>
<pdfrwt beam="2">  1        3 0.40260849E+00 0.12143482E+03</pdfrwt>
<totfact> 0.10274960E+03</totfact>
</mgrwt>
</event>
<event>
 4    1  0.4926234E+003  0.1339677E+03  0.7546771E-02  0.1221684E+00
         21   -1    0    0  503  502  0.00000000000E+00  0.00000000000E+00  0.10283931101E+03  0.10283931101E+03  0.00000000000E+00 0. -1.
          2   -1    0    0  502    0 -0.00000000000E+00 -0.00000000000E+00 -0.26529468565E+04  0.26529468565E+04  0.00000000000E+00 0.  1.
         21    1    1    2  503  501  0.68468715357E+02  0.11514939803E+03  0.56747547842E+02  0.14549100672E+03  0.00000000000E+00 0. -1.
          2    1    1    2  501    0 -0.68468715357E+02 -0.11514939803E+03 -0.26068550934E+04  0.26102951608E+04  0.00000000000E+00 0.  1.
<mgrwt>
<rscale>  2 0.13396772E+03</rscale>
<asrwt>0</asrwt>
<pdfrwt beam="1">  1       21 0.15821432E-01 0.13396772E+03</pdfrwt>
<pdfrwt beam="2">  1        2 0.40814568E+00 0.13396772E+03</pdfrwt>
<totfact> 0.16163094E+03</totfact>
</mgrwt>
</event>
<event>
 4    1  0.4926234E+003  0.1056982E+03  0.7546771E-02  0.1268750E+00
         -1   -1    0    0    0  501 -0.00000000000E+00  0.00000000000E+00  0.17016366302E+03  0.17016366302E+03  0.00000000000E+00 0. -1.
         21   -1    0    0  503  502  0.00000000000E+00 -0.00000000000E+00 -0.67253440224E+02  0.67253440224E+02  0.00000000000E+00 0. -1.
         21    1    1    2  503  501 -0.82623965950E+02  0.65919530585E+02  0.33154491727E+02  0.11077601087E+03  0.00000000000E+00 0. -1.
         -1    1    1    2    0  502  0.82623965950E+02 -0.65919530585E+02  0.69755731072E+02  0.12664109238E+03  0.00000000000E+00 0. -1.
<mgrwt>
<rscale>  2 0.10569818E+03</rscale>
<asrwt>0</asrwt>
<pdfrwt beam="2">  1       21 0.10346683E-01 0.10569818E+03</pdfrwt>
<pdfrwt beam="1">  1       -1 0.26179025E-01 0.10569818E+03</pdfrwt>
<totfact> 0.87415918E+04</totfact>
</mgrwt>
</event>
<event>
 4    1  0.4926234E+003  0.1246668E+03  0.7546771E-02  0.1235591E+00
         21   -1    0    0  501  502  0.00000000000E+00  0.00000000000E+00  0.42042664155E+02  0.42042664155E+02  0.00000000000E+00 0.  1.
          2   -1    0    0  503    0 -0.00000000000E+00 -0.00000000000E+00 -0.73441032755E+03  0.73441032755E+03  0.00000000000E+00 0. -1.
         21    1    1    2  503  502  0.18435092712E+02  0.12329622913E+03 -0.72588251942E+02  0.14425972092E+03  0.00000000000E+00 0.  1.
          2    1    1    2  501    0 -0.18435092712E+02 -0.12329622913E+03 -0.61977941146E+03  0.63219327079E+03  0.00000000000E+00 0. -1.
<mgrwt>
<rscale>  2 0.12466681E+03</rscale>
<asrwt>0</asrwt>
<pdfrwt beam="1">  1       21 0.64681028E-02 0.12466681E+03</pdfrwt>
<pdfrwt beam="2">  1        2 0.11298619E+00 0.12466681E+03</pdfrwt>
<totfact> 0.86180989E+04</totfact>
</mgrwt>
</event>
<event>
 4    1  0.4926234E+003  0.1044718E+03  0.7546771E-02  0.1271164E+00
         -2   -1    0    0    0  501 -0.00000000000E+00  0.00000000000E+00  0.52798341323E+02  0.52798341323E+02  0.00000000000E+00 0.  1.
         21   -1    0    0  503  502  0.00000000000E+00 -0.00000000000E+00 -0.21673074621E+03  0.21673074621E+03  0.00000000000E+00 0. -1.
         21    1    1    2  503  501  0.73902728926E+02 -0.73842694714E+02 -0.11093272406E+03  0.15238249956E+03  0.00000000000E+00 0. -1.
         -2    1    1    2    0  502 -0.73902728926E+02  0.73842694714E+02 -0.52999680828E+02  0.11714658797E+03  0.00000000000E+00 0.  1.
<mgrwt>
<rscale>  2 0.10447180E+03</rscale>
<asrwt>0</asrwt>
<pdfrwt beam="2">  1       21 0.33343192E-01 0.10447180E+03</pdfrwt>
<pdfrwt beam="1">  1       -2 0.81228217E-02 0.10447180E+03</pdfrwt>
<totfact> 0.61196530E+04</totfact>
</mgrwt>
</event>
<event>
 4    1  0.4926234E+003  0.1134985E+03  0.7546771E-02  0.1254225E+00
         -2   -1    0    0    0  501 -0.00000000000E+00  0.00000000000E+00  0.82450451744E+02  0.82450451744E+02  0.00000000000E+00 0.  1.
         21   -1    0    0  501  502  0.00000000000E+00 -0.00000000000E+00 -0.49341505481E+03  0.49341505481E+03  0.00000000000E+00 0.  1.
         21    1    1    2  503  502  0.11080130067E+03  0.24596557303E+02 -0.44350242803E+03  0.45779506608E+03  0.00000000000E+00 0.  1.
         -2    1    1    2    0  503 -0.11080130067E+03 -0.24596557303E+02  0.32537824962E+02  0.11807044047E+03  0.00000000000E+00 0.  1.
<mgrwt>
<rscale>  2 0.11349854E+03</rscale>
<asrwt>0</asrwt>
<pdfrwt beam="2">  1       21 0.75910009E-01 0.11349854E+03</pdfrwt>
<pdfrwt beam="1">  1       -2 0.12684685E-01 0.11349854E+03</pdfrwt>
<totfact> 0.55943883E+03</totfact>
</mgrwt>
</event>
<event>
 4    1  0.4926234E+003  0.1031957E+03  0.7546771E-02  0.1273716E+00
         21   -1    0    0  501  502  0.00000000000E+00  0.00000000000E+00  0.64408218424E+02  0.64408218424E+02  0.00000000000E+00 0.  1.
          2   -1    0    0  503    0 -0.00000000000E+00 -0.00000000000E+00 -0.48057644745E+03  0.48057644745E+03  0.00000000000E+00 0.  1.
         21    1    1    2  503  502 -0.74403605423E+02 -0.71508483727E+02  0.12609687251E+02  0.10396328178E+03  0.00000000000E+00 0.  1.
          2    1    1    2  501    0  0.74403605423E+02  0.71508483727E+02 -0.42877791628E+03  0.44102138410E+03  0.00000000000E+00 0.  1.
<mgrwt>
<rscale>  2 0.10319574E+03</rscale>
<asrwt>0</asrwt>
<pdfrwt beam="1">  1       21 0.99089572E-02 0.10319574E+03</pdfrwt>
<pdfrwt beam="2">  1        2 0.73934834E-01 0.10319574E+03</pdfrwt>
<totfact> 0.66655280E+04</totfact>
</mgrwt>
</event>
<event>
 4    1  0.4926234E+003  0.1050934E+03  0.7546771E-02  0.1269936E+00
         21   -1    0    0  501  502  0.00000000000E+00  0.00000000000E+00  0.68798348563E+03  0.68798348563E+03  0.00000000000E+00 0.  1.
         -2   -1    0    0    0  501 -0.00000000000E+00 -0.00000000000E+00 -0.17853461482E+02  0.17853461482E+02  0.00000000000E+00 0.  1.
         21    1    1    2  503  502 -0.83065039354E+02  0.64380238115E+02  0.44712020626E+03  0.45930501267E+03  0.00000000000E+00 0.  1.
         -2    1    1    2    0  503  0.83065039354E+02 -0.64380238115E+02  0.22300981789E+03  0.24653193444E+03  0.00000000000E+00 0.  1.
<mgrwt>
<rscale>  2 0.10509337E+03</rscale>
<asrwt>0</asrwt>
<pdfrwt beam="1">  1       21 0.10584359E+00 0.10509337E+03</pdfrwt>
<pdfrwt beam="2">  1       -2 0.27466869E-02 0.10509337E+03</pdfrwt>
<totfact> 0.26594166E+04</totfact>
</mgrwt>
</event>
<event>
 4    1  0.4926234E+003  0.1146417E+03  0.7546771E-02  0.1252208E+00
         21   -1    0    0  501  502  0.00000000000E+00  0.00000000000E+00  0.36922715655E+03  0.36922715655E+03  0.00000000000E+00 0. -1.
         -2   -1    0    0    0  501 -0.00000000000E+00 -0.00000000000E+00 -0.36716625989E+03  0.36716625989E+03  0.00000000000E+00 0. -1.
         21    1    1    2  503  502 -0.88827592997E+02  0.72473225319E+02  0.35092472285E+03  0.36917593472E+03  0.00000000000E+00 0. -1.
         -2    1    1    2    0  503  0.88827592997E+02 -0.72473225319E+02 -0.34886382618E+03  0.36721748173E+03  0.00000000000E+00 0. -1.
<mgrwt>
<rscale>  2 0.11464166E+03</rscale>
<asrwt>0</asrwt>
<pdfrwt beam="1">  1       21 0.56804178E-01 0.11464166E+03</pdfrwt>
<pdfrwt beam="2">  1       -2 0.56487117E-01 0.11464166E+03</pdfrwt>
<totfact> 0.73511821E+02</totfact>
</mgrwt>
</event>
<event>
 4    1  0.4926234E+003  0.1035390E+03  0.7546771E-02  0.1273025E+00
         21   -1    0    0  501  502  0.00000000000E+00  0.00000000000E+00  0.12228082048E+03  0.12228082048E+03  0.00000000000E+00 0.  1.
          2   -1    0    0  503    0 -0.00000000000E+00 -0.00000000000E+00 -0.20874084721E+04  0.20874084721E+04  0.00000000000E+00 0. -1.
         21    1    1    2  503  502  0.10232382500E+03 -0.15816112659E+02  0.98830622217E+02  0.14313562264E+03  0.00000000000E+00 0.  1.
          2    1    1    2  501    0 -0.10232382500E+03  0.15816112659E+02 -0.20639582738E+04  0.20665536699E+04  0.00000000000E+00 0. -1.
<mgrwt>
<rscale>  2 0.10353895E+03</rscale>
<asrwt>0</asrwt>
<pdfrwt beam="1">  1       21 0.18812433E-01 0.10353895E+03</pdfrwt>
<pdfrwt beam="2">  1        2 0.32113978E+00 0.10353895E+03</pdfrwt>
<totfact> 0.24077571E+03</totfact>
</mgrwt>
</event>
<event>
 4    1  0.4926234E+003  0.1144124E+03  0.7546771E-02  0.1252610E+00
         -2   -1    0    0    0  501 -0.00000000000E+00  0.00000000000E+00  0.24690579357E+02  0.24690579357E+02  0.00000000000E+00 0. -1.
         21   -1    0    0  503  502  0.00000000000E+00 -0.00000000000E+00 -0.53665749531E+03  0.53665749531E+03  0.00000000000E+00 0.  1.
         21    1    1    2  503  501  0.85942497737E+02 -0.75525415007E+02 -0.28684350242E+03  0.30881935838E+03  0.00000000000E+00 0.  1.
         -2    1    1    2    0  502 -0.85942497737E+02  0.75525415007E+02 -0.22512341353E+03  0.25252871629E+03  0.00000000000E+00 0. -1.
<mgrwt>
<rscale>  2 0.11441242E+03</rscale>
<asrwt>0</asrwt>
<pdfrwt beam="2">  1       21 0.82562688E-01 0.11441242E+03</pdfrwt>
<pdfrwt beam="1">  1       -2 0.37985508E-02 0.11441242E+03</pdfrwt>
<totfact> 0.29285984E+04</totfact>
</mgrwt>
</event>
<event>
 4    1  0.4926234E+003  0.1213734E+03  0.7546771E-02  0.1240848E+00
          2   -1    0    0  502    0 -0.00000000000E+00  0.00000000000E+00  0.20522946903E+04  0.20522946903E+04  0.00000000000E+00 0. -1.
         21   -1    0    0  503  502  0.00000000000E+00 -0.00000000000E+00 -0.15058291303E+02  0.15058291303E+02  0.00000000000E+00 0.  1.
         21    1    1    2  503  501 -0.62326089254E+02  0.10414876426E+03  0.27085151420E+03  0.29680304790E+03  0.00000000000E+00 0.  1.
          2    1    1    2  501    0  0.62326089254E+02 -0.10414876426E+03  0.17663848848E+04  0.17705499337E+04  0.00000000000E+00 0. -1.
<mgrwt>
<rscale>  2 0.12137342E+03</rscale>
<asrwt>0</asrwt>
<pdfrwt beam="2">  1       21 0.23166618E-02 0.12137342E+03</pdfrwt>
<pdfrwt beam="1">  1        2 0.31573742E+00 0.12137342E+03</pdfrwt>
<totfact> 0.88662838E+04</totfact>
</mgrwt>
</event>
<event>
 4    1  0.4926234E+003  0.1044003E+03  0.7546771E-02  0.1271306E+00
         21   -1    0    0  503  502  0.00000000000E+00  0.00000000000E+00  0.86142856397E+03  0.86142856397E+03  0.00000000000E+00 0. -1.
          2   -1    0    0  502    0 -0.00000000000E+00 -0.00000000000E+00 -0.43790090489E+04  0.43790090489E+04  0.00000000000E+00 0. -1.
         21    1    1    2  503  501 -0.74493450163E+01 -0.10413421872E+03  0.85764038731E+03  0.86397133182E+03  0.00000000000E+00 0. -1.
          2    1    1    2  501    0  0.74493450163E+01  0.10413421872E+03 -0.43752208723E+04  0.43764662811E+04  0.00000000000E+00 0. -1.
<mgrwt>
<rscale>  2 0.10440033E+03</rscale>
<asrwt>0</asrwt>
<pdfrwt beam="1">  1       21 0.13252747E+00 0.10440033E+03</pdfrwt>
<pdfrwt beam="2">  1        2 0.67369371E+00 0.10440033E+03</pdfrwt>
<totfact> 0.15084424E+00</totfact>
</mgrwt>
</event>
<event>
 4    1  0.4926234E+003  0.1035059E+03  0.7546771E-02  0.1273092E+00
          2   -1    0    0  503    0 -0.00000000000E+00  0.00000000000E+00  0.19611550685E+03  0.19611550685E+03  0.00000000000E+00 0.  1.
         21   -1    0    0  501  502  0.00000000000E+00 -0.00000000000E+00 -0.61622203719E+02  0.61622203719E+02  0.00000000000E+00 0.  1.
         21    1    1    2  503  502 -0.45530886014E+02  0.92953773149E+02  0.23831852773E+02  0.10621404206E+03  0.00000000000E+00 0.  1.
          2    1    1    2  501    0  0.45530886014E+02 -0.92953773149E+02  0.11066145036E+03  0.15152366851E+03  0.00000000000E+00 0.  1.
<mgrwt>
<rscale>  2 0.10350587E+03</rscale>
<asrwt>0</asrwt>
<pdfrwt beam="2">  1       21 0.94803392E-02 0.10350587E+03</pdfrwt>
<pdfrwt beam="1">  1        2 0.30171616E-01 0.10350587E+03</pdfrwt>
<totfact> 0.18587961E+05</totfact>
</mgrwt>
</event>
<event>
 4    1  0.4926234E+003  0.1076047E+03  0.7546771E-02  0.1265071E+00
          2   -1    0    0  502    0 -0.00000000000E+00  0.00000000000E+00  0.91384956968E+03  0.91384956968E+03  0.00000000000E+00 0.  1.
         21   -1    0    0  503  502  0.00000000000E+00 -0.00000000000E+00 -0.46718132377E+02  0.46718132377E+02  0.00000000000E+00 0. -1.
         21    1    1    2  503  501 -0.47518065603E+02 -0.96544314718E+02  0.23550647190E+02  0.11015173283E+03  0.00000000000E+00 0. -1.
          2    1    1    2  501    0  0.47518065603E+02  0.96544314718E+02  0.84358079011E+03  0.85041596923E+03  0.00000000000E+00 0.  1.
<mgrwt>
<rscale>  2 0.10760470E+03</rscale>
<asrwt>0</asrwt>
<pdfrwt beam="2">  1       21 0.71874056E-02 0.10760470E+03</pdfrwt>
<pdfrwt beam="1">  1        2 0.14059223E+00 0.10760470E+03</pdfrwt>
<totfact> 0.54742812E+04</totfact>
</mgrwt>
</event>
<event>
 4    1  0.4926234E+003  0.1761724E+03  0.7546771E-02  0.1171560E+00
         21   -1    0    0  503  502  0.00000000000E+00  0.00000000000E+00  0.18969232701E+03  0.18969232701E+03  0.00000000000E+00 0. -1.
          4   -1    0    0  502    0 -0.00000000000E+00 -0.00000000000E+00 -0.20365199907E+03  0.20365199907E+03  0.00000000000E+00 0.  1.
         21    1    1    2  503  501  0.15174946962E+03  0.89491961115E+02  0.80221577148E+02  0.19357741106E+03  0.00000000000E+00 0. -1.
          4    1    1    2  501    0 -0.15174946962E+03 -0.89491961115E+02 -0.94181249209E+02  0.19976691502E+03  0.00000000000E+00 0.  1.
<mgrwt>
<rscale>  2 0.17617239E+03</rscale>
<asrwt>0</asrwt>
<pdfrwt beam="1">  1       21 0.29183435E-01 0.17617239E+03</pdfrwt>
<pdfrwt beam="2">  1        4 0.31331077E-01 0.17617239E+03</pdfrwt>
<totfact> 0.46087416E+03</totfact>
</mgrwt>
</event>
<event>
 4    1  0.4926234E+003  0.1063184E+03  0.7546771E-02  0.1267544E+00
         -1   -1    0    0    0  501 -0.00000000000E+00  0.00000000000E+00  0.17407259245E+03  0.17407259245E+03  0.00000000000E+00 0. -1.
         21   -1    0    0  501  502  0.00000000000E+00 -0.00000000000E+00 -0.69580140209E+02  0.69580140209E+02  0.00000000000E+00 0. -1.
         21    1    1    2  503  502  0.13546264740E+02  0.10545192134E+03  0.20772878517E+02  0.10832876573E+03  0.00000000000E+00 0. -1.
         -1    1    1    2    0  503 -0.13546264740E+02 -0.10545192134E+03  0.83719573723E+02  0.13532396693E+03  0.00000000000E+00 0. -1.
<mgrwt>
<rscale>  2 0.10631843E+03</rscale>
<asrwt>0</asrwt>
<pdfrwt beam="2">  1       21 0.10704637E-01 0.10631843E+03</pdfrwt>
<pdfrwt beam="1">  1       -1 0.26780399E-01 0.10631843E+03</pdfrwt>
<totfact> 0.79383360E+04</totfact>
</mgrwt>
</event>
<event>
 4    1  0.4926234E+003  0.1161503E+03  0.7546771E-02  0.1249586E+00
          2   -1    0    0  503    0 -0.00000000000E+00  0.00000000000E+00  0.24431660161E+03  0.24431660161E+03  0.00000000000E+00 0. -1.
         21   -1    0    0  501  502  0.00000000000E+00 -0.00000000000E+00 -0.90966715969E+02  0.90966715969E+02  0.00000000000E+00 0. -1.
         21    1    1    2  503  502 -0.32285486774E+02  0.11157298917E+03 -0.28416095344E+02  0.11957574605E+03  0.00000000000E+00 0. -1.
          2    1    1    2  501    0  0.32285486774E+02 -0.11157298917E+03  0.18176598099E+03  0.21570757153E+03  0.00000000000E+00 0. -1.
<mgrwt>
<rscale>  2 0.11615027E+03</rscale>
<asrwt>0</asrwt>
<pdfrwt beam="2">  1       21 0.13994879E-01 0.11615027E+03</pdfrwt>
<pdfrwt beam="1">  1        2 0.37587169E-01 0.11615027E+03</pdfrwt>
<totfact> 0.74461410E+04</totfact>
</mgrwt>
</event>
<event>
 4    1  0.4926234E+003  0.1030070E+03  0.7546771E-02  0.1274097E+00
         -2   -1    0    0    0  501 -0.00000000000E+00  0.00000000000E+00  0.88071285546E+02  0.88071285546E+02  0.00000000000E+00 0.  1.
         21   -1    0    0  503  502  0.00000000000E+00 -0.00000000000E+00 -0.20384413662E+03  0.20384413662E+03  0.00000000000E+00 0.  1.
         21    1    1    2  503  501  0.90174224115E+02 -0.49789986339E+02 -0.15122888593E+03  0.18297707336E+03  0.00000000000E+00 0.  1.
         -2    1    1    2    0  502 -0.90174224115E+02  0.49789986339E+02  0.35456034854E+02  0.10893834881E+03  0.00000000000E+00 0.  1.
<mgrwt>
<rscale>  2 0.10300696E+03</rscale>
<asrwt>0</asrwt>
<pdfrwt beam="2">  1       21 0.31360637E-01 0.10300696E+03</pdfrwt>
<pdfrwt beam="1">  1       -2 0.13549428E-01 0.10300696E+03</pdfrwt>
<totfact> 0.30869974E+04</totfact>
</mgrwt>
</event>
<event>
 4    1  0.4926234E+003  0.1138712E+03  0.7546771E-02  0.1253564E+00
         21   -1    0    0  503  502  0.00000000000E+00  0.00000000000E+00  0.38894041009E+03  0.38894041009E+03  0.00000000000E+00 0.  1.
          2   -1    0    0  502    0 -0.00000000000E+00 -0.00000000000E+00 -0.16470313368E+04  0.16470313368E+04  0.00000000000E+00 0.  1.
         21    1    1    2  503  501 -0.12380927051E+02  0.11319612218E+03  0.37858495569E+03  0.39533937080E+03  0.00000000000E+00 0.  1.
          2    1    1    2  501    0  0.12380927051E+02 -0.11319612218E+03 -0.16366758824E+04  0.16406323761E+04  0.00000000000E+00 0.  1.
<mgrwt>
<rscale>  2 0.11387120E+03</rscale>
<asrwt>0</asrwt>
<pdfrwt beam="1">  1       21 0.59836986E-01 0.11387120E+03</pdfrwt>
<pdfrwt beam="2">  1        2 0.25338944E+00 0.11387120E+03</pdfrwt>
<totfact> 0.41450170E+02</totfact>
</mgrwt>
</event>
<event>
 4    1  0.4926234E+003  0.1104411E+03  0.7546771E-02  0.1259755E+00
         -1   -1    0    0    0  501 -0.00000000000E+00  0.00000000000E+00  0.95225120978E+02  0.95225120978E+02  0.00000000000E+00 0. -1.
         21   -1    0    0  503  502  0.00000000000E+00 -0.00000000000E+00 -0.20508854675E+03  0.20508854675E+03  0.00000000000E+00 0.  1.
         21    1    1    2  503  501 -0.42502931920E+01  0.11035926100E+03 -0.14693857755E+03  0.18381560611E+03  0.00000000000E+00 0.  1.
         -1    1    1    2    0  502  0.42502931920E+01 -0.11035926100E+03  0.37075151778E+02  0.11649806161E+03  0.00000000000E+00 0. -1.
<mgrwt>
<rscale>  2 0.11044108E+03</rscale>
<asrwt>0</asrwt>
<pdfrwt beam="2">  1       21 0.31552084E-01 0.11044108E+03</pdfrwt>
<pdfrwt beam="1">  1       -1 0.14650019E-01 0.11044108E+03</pdfrwt>
<totfact> 0.28793722E+04</totfact>
</mgrwt>
</event>
<event>
 4    1  0.4926234E+003  0.1138771E+03  0.7546771E-02  0.1253554E+00
          2   -1    0    0  502    0 -0.00000000000E+00  0.00000000000E+00  0.58232217358E+03  0.58232217358E+03  0.00000000000E+00 0.  1.
         21   -1    0    0  503  502  0.00000000000E+00 -0.00000000000E+00 -0.63050472720E+02  0.63050472720E+02  0.00000000000E+00 0. -1.
         21    1    1    2  503  501  0.11352743687E+03  0.89169301305E+01  0.11905027750E+00  0.11387714757E+03  0.00000000000E+00 0. -1.
          2    1    1    2  501    0 -0.11352743687E+03 -0.89169301305E+01  0.51915265059E+03  0.53149549874E+03  0.00000000000E+00 0.  1.
<mgrwt>
<rscale>  2 0.11387709E+03</rscale>
<asrwt>0</asrwt>
<pdfrwt beam="2">  1       21 0.97000731E-02 0.11387709E+03</pdfrwt>
<pdfrwt beam="1">  1        2 0.89588023E-01 0.11387709E+03</pdfrwt>
<totfact> 0.56096387E+04</totfact>
</mgrwt>
</event>
<event>
 4    1  0.4926234E+003  0.1017154E+03  0.7546771E-02  0.1276730E+00
         -1   -1    0    0    0  501 -0.00000000000E+00  0.00000000000E+00  0.34677537754E+03  0.34677537754E+03  0.00000000000E+00 0. -1.
         21   -1    0    0  503  502  0.00000000000E+00 -0.00000000000E+00 -0.15162373708E+03  0.15162373708E+03  0.00000000000E+00 0. -1.
         21    1    1    2  503  501  0.50869585132E+02 -0.88081222704E+02 -0.12576462113E+03  0.16174905382E+03  0.00000000000E+00 0. -1.
         -1    1    1    2    0  502 -0.50869585132E+02  0.88081222704E+02  0.32091626159E+03  0.33665006080E+03  0.00000000000E+00 0. -1.
<mgrwt>
<rscale>  2 0.10171537E+03</rscale>
<asrwt>0</asrwt>
<pdfrwt beam="2">  1       21 0.23326729E-01 0.10171537E+03</pdfrwt>
<pdfrwt beam="1">  1       -1 0.53350058E-01 0.10171537E+03</pdfrwt>
<totfact> 0.59148115E+03</totfact>
</mgrwt>
</event>
<event>
 4    1  0.4926234E+003  0.2820995E+03  0.7546771E-02  0.1094548E+00
         21   -1    0    0  501  502  0.00000000000E+00  0.00000000000E+00  0.51178398446E+02  0.51178398446E+02  0.00000000000E+00 0.  1.
          2   -1    0    0  503    0 -0.00000000000E+00 -0.00000000000E+00 -0.24078701985E+04  0.24078701985E+04  0.00000000000E+00 0. -1.
         21    1    1    2  503  502 -0.20668216145E+03  0.19199636295E+03 -0.44657785006E+03  0.52821576597E+03  0.00000000000E+00 0.  1.
          2    1    1    2  501    0  0.20668216145E+03 -0.19199636295E+03 -0.19101139500E+04  0.19308328310E+04  0.00000000000E+00 0. -1.
<mgrwt>
<rscale>  2 0.28209948E+03</rscale>
<asrwt>0</asrwt>
<pdfrwt beam="1">  1       21 0.78736003E-02 0.28209948E+03</pdfrwt>
<pdfrwt beam="2">  1        2 0.37044154E+00 0.28209948E+03</pdfrwt>
<totfact> 0.69784996E+03</totfact>
</mgrwt>
</event>
<event>
 4    1  0.4926234E+003  0.1080837E+03  0.7546771E-02  0.1264160E+00
         21   -1    0    0  501  502  0.00000000000E+00  0.00000000000E+00  0.14582894219E+03  0.14582894219E+03  0.00000000000E+00 0. -1.
          1   -1    0    0  503    0 -0.00000000000E+00 -0.00000000000E+00 -0.17590393361E+03  0.17590393361E+03  0.00000000000E+00 0.  1.
         21    1    1    2  503  502  0.88798141360E+02 -0.61619651393E+02  0.10367619189E+03  0.14976930297E+03  0.00000000000E+00 0. -1.
          1    1    1    2  501    0 -0.88798141360E+02  0.61619651393E+02 -0.13375118331E+03  0.17196357284E+03  0.00000000000E+00 0.  1.
<mgrwt>
<rscale>  2 0.10808372E+03</rscale>
<asrwt>0</asrwt>
<pdfrwt beam="1">  1       21 0.22435222E-01 0.10808372E+03</pdfrwt>
<pdfrwt beam="2">  1        1 0.27062144E-01 0.10808372E+03</pdfrwt>
<totfact> 0.34662914E+04</totfact>
</mgrwt>
</event>
<event>
 4    1  0.4926234E+003  0.1075639E+03  0.7546771E-02  0.1265149E+00
          1   -1    0    0  503    0 -0.00000000000E+00  0.00000000000E+00  0.24014807697E+02  0.24014807697E+02  0.00000000000E+00 0. -1.
         21   -1    0    0  501  502  0.00000000000E+00 -0.00000000000E+00 -0.98842535222E+03  0.98842535222E+03  0.00000000000E+00 0. -1.
         21    1    1    2  503  502 -0.86377134310E+02  0.64101358848E+02 -0.84462929126E+03  0.85145089887E+03  0.00000000000E+00 0. -1.
          1    1    1    2  501    0  0.86377134310E+02 -0.64101358848E+02 -0.11978125326E+03  0.16098926104E+03  0.00000000000E+00 0. -1.
<mgrwt>
<rscale>  2 0.10756390E+03</rscale>
<asrwt>0</asrwt>
<pdfrwt beam="2">  1       21 0.15206545E+00 0.10756390E+03</pdfrwt>
<pdfrwt beam="1">  1        1 0.36945856E-02 0.10756390E+03</pdfrwt>
<totfact> 0.78734314E+03</totfact>
</mgrwt>
</event>
<event>
 4    1  0.4926234E+003  0.1026051E+03  0.7546771E-02  0.1274911E+00
          1   -1    0    0  503    0 -0.00000000000E+00  0.00000000000E+00  0.11526491181E+04  0.11526491181E+04  0.00000000000E+00 0.  1.
         21   -1    0    0  501  502  0.00000000000E+00 -0.00000000000E+00 -0.41228702705E+02  0.41228702705E+02  0.00000000000E+00 0.  1.
         21    1    1    2  503  502 -0.96665412758E+02  0.34403602055E+02  0.29026854390E+02  0.10663192830E+03  0.00000000000E+00 0.  1.
          1    1    1    2  501    0  0.96665412758E+02 -0.34403602055E+02  0.10823935610E+04  0.10872458925E+04  0.00000000000E+00 0.  1.
<mgrwt>
<rscale>  2 0.10260512E+03</rscale>
<asrwt>0</asrwt>
<pdfrwt beam="2">  1       21 0.63428782E-02 0.10260512E+03</pdfrwt>
<pdfrwt beam="1">  1        1 0.17733061E+00 0.10260512E+03</pdfrwt>
<totfact> 0.25440556E+04</totfact>
</mgrwt>
</event>
<event>
 4    1  0.4926234E+003  0.1066889E+03  0.7546771E-02  0.1266827E+00
         21   -1    0    0  501  502  0.00000000000E+00  0.00000000000E+00  0.41936344979E+02  0.41936344979E+02  0.00000000000E+00 0. -1.
          2   -1    0    0  503    0 -0.00000000000E+00 -0.00000000000E+00 -0.17740295271E+04  0.17740295271E+04  0.00000000000E+00 0.  1.
         21    1    1    2  503  502 -0.23430125223E+02 -0.10408429983E+03 -0.30405439816E+02  0.11093693257E+03  0.00000000000E+00 0. -1.
          2    1    1    2  501    0  0.23430125223E+02  0.10408429983E+03 -0.17016877423E+04  0.17050289395E+04  0.00000000000E+00 0.  1.
<mgrwt>
<rscale>  2 0.10668886E+03</rscale>
<asrwt>0</asrwt>
<pdfrwt beam="1">  1       21 0.64517443E-02 0.10668886E+03</pdfrwt>
<pdfrwt beam="2">  1        2 0.27292767E+00 0.10668886E+03</pdfrwt>
<totfact> 0.22620450E+04</totfact>
</mgrwt>
</event>
<event>
 4    1  0.4926234E+003  0.1529349E+03  0.7546771E-02  0.1196912E+00
         21   -1    0    0  503  502  0.00000000000E+00  0.00000000000E+00  0.76225075204E+02  0.76225075204E+02  0.00000000000E+00 0. -1.
          2   -1    0    0  502    0 -0.00000000000E+00 -0.00000000000E+00 -0.16175047749E+04  0.16175047749E+04  0.00000000000E+00 0.  1.
         21    1    1    2  503  501 -0.55946986761E+02 -0.14233422281E+03 -0.83208365460E+01  0.15316113290E+03  0.00000000000E+00 0. -1.
          2    1    1    2  501    0  0.55946986761E+02  0.14233422281E+03 -0.15329588631E+04  0.15405687172E+04  0.00000000000E+00 0.  1.
<mgrwt>
<rscale>  2 0.15293494E+03</rscale>
<asrwt>0</asrwt>
<pdfrwt beam="1">  1       21 0.11726934E-01 0.15293494E+03</pdfrwt>
<pdfrwt beam="2">  1        2 0.24884690E+00 0.15293494E+03</pdfrwt>
<totfact> 0.94635850E+03</totfact>
</mgrwt>
</event>
<event>
 4    1  0.4926234E+003  0.2389387E+03  0.7546771E-02  0.1120502E+00
         21   -1    0    0  503  502  0.00000000000E+00  0.00000000000E+00  0.19250136019E+02  0.19250136019E+02  0.00000000000E+00 0.  1.
          2   -1    0    0  502    0 -0.00000000000E+00 -0.00000000000E+00 -0.34366832018E+04  0.34366832018E+04  0.00000000000E+00 0.  1.
         21    1    1    2  503  501  0.14274318977E+03 -0.19161443622E+03 -0.10690841738E+04  0.10954600317E+04  0.00000000000E+00 0.  1.
          2    1    1    2  501    0 -0.14274318977E+03  0.19161443622E+03 -0.23483488921E+04  0.23604733062E+04  0.00000000000E+00 0.  1.
<mgrwt>
<rscale>  2 0.23893872E+03</rscale>
<asrwt>0</asrwt>
<pdfrwt beam="1">  1       21 0.29615599E-02 0.23893872E+03</pdfrwt>
<pdfrwt beam="2">  1        2 0.52872041E+00 0.23893872E+03</pdfrwt>
<totfact> 0.93501320E+03</totfact>
</mgrwt>
</event>
<event>
 4    1  0.4926234E+003  0.1029444E+03  0.7546771E-02  0.1274223E+00
         21   -1    0    0  501  502  0.00000000000E+00  0.00000000000E+00  0.31447452108E+03  0.31447452108E+03  0.00000000000E+00 0.  1.
         -1   -1    0    0    0  501 -0.00000000000E+00 -0.00000000000E+00 -0.14730235163E+03  0.14730235163E+03  0.00000000000E+00 0. -1.
         21    1    1    2  503  502  0.50561541517E+02 -0.89672045144E+02  0.28635085489E+03  0.30429320935E+03  0.00000000000E+00 0.  1.
         -1    1    1    2    0  503 -0.50561541517E+02  0.89672045144E+02 -0.11917868545E+03  0.15748366336E+03  0.00000000000E+00 0. -1.
<mgrwt>
<rscale>  2 0.10294438E+03</rscale>
<asrwt>0</asrwt>
<pdfrwt beam="1">  1       21 0.48380696E-01 0.10294438E+03</pdfrwt>
<pdfrwt beam="2">  1       -1 0.22661900E-01 0.10294438E+03</pdfrwt>
<totfact> 0.61821712E+03</totfact>
</mgrwt>
</event>
<event>
 4    1  0.4926234E+003  0.1027965E+03  0.7546771E-02  0.1274523E+00
         21   -1    0    0  501  502  0.00000000000E+00  0.00000000000E+00  0.60643287453E+02  0.60643287453E+02  0.00000000000E+00 0.  1.
          4   -1    0    0  503    0 -0.00000000000E+00 -0.00000000000E+00 -0.37098821667E+03  0.37098821667E+03  0.00000000000E+00 0.  1.
         21    1    1    2  503  502  0.91823369455E+02  0.46212486506E+02  0.19892869594E+01  0.10281576897E+03  0.00000000000E+00 0.  1.
          4    1    1    2  501    0 -0.91823369455E+02 -0.46212486506E+02 -0.31233421618E+03  0.32881573515E+03  0.00000000000E+00 0.  1.
<mgrwt>
<rscale>  2 0.10279652E+03</rscale>
<asrwt>0</asrwt>
<pdfrwt beam="1">  1       21 0.93297364E-02 0.10279652E+03</pdfrwt>
<pdfrwt beam="2">  1        4 0.57075111E-01 0.10279652E+03</pdfrwt>
<totfact> 0.10755382E+04</totfact>
</mgrwt>
</event>
<event>
 4    1  0.4926234E+003  0.1040168E+03  0.7546771E-02  0.1272069E+00
          1   -1    0    0  502    0 -0.00000000000E+00  0.00000000000E+00  0.11254389921E+04  0.11254389921E+04  0.00000000000E+00 0. -1.
         21   -1    0    0  503  502  0.00000000000E+00 -0.00000000000E+00 -0.26425716088E+02  0.26425716088E+02  0.00000000000E+00 0.  1.
         21    1    1    2  503  501  0.77784368391E+02  0.69058575707E+02  0.90129289903E+02  0.13763278586E+03  0.00000000000E+00 0.  1.
          1    1    1    2  501    0 -0.77784368391E+02 -0.69058575707E+02  0.10088839861E+04  0.10142319224E+04  0.00000000000E+00 0. -1.
<mgrwt>
<rscale>  2 0.10401680E+03</rscale>
<asrwt>0</asrwt>
<pdfrwt beam="2">  1       21 0.40654956E-02 0.10401680E+03</pdfrwt>
<pdfrwt beam="1">  1        1 0.17314442E+00 0.10401680E+03</pdfrwt>
<totfact> 0.55864496E+04</totfact>
</mgrwt>
</event>
<event>
 4    1  0.4926234E+003  0.1102105E+03  0.7546771E-02  0.1260180E+00
          2   -1    0    0  503    0 -0.00000000000E+00  0.00000000000E+00  0.63523728587E+03  0.63523728587E+03  0.00000000000E+00 0.  1.
         21   -1    0    0  501  502  0.00000000000E+00 -0.00000000000E+00 -0.56682165981E+02  0.56682165981E+02  0.00000000000E+00 0.  1.
         21    1    1    2  503  502  0.11018521321E+03 -0.23630303158E+01  0.76520947189E+01  0.11047587826E+03  0.00000000000E+00 0.  1.
          2    1    1    2  501    0 -0.11018521321E+03  0.23630303158E+01  0.57090302517E+03  0.58144357360E+03  0.00000000000E+00 0.  1.
<mgrwt>
<rscale>  2 0.11021055E+03</rscale>
<asrwt>0</asrwt>
<pdfrwt beam="2">  1       21 0.87203336E-02 0.11021055E+03</pdfrwt>
<pdfrwt beam="1">  1        2 0.97728809E-01 0.11021055E+03</pdfrwt>
<totfact> 0.61115465E+04</totfact>
</mgrwt>
</event>
<event>
 4    1  0.4926234E+003  0.1034658E+03  0.7546771E-02  0.1273172E+00
         21   -1    0    0  503  502  0.00000000000E+00  0.00000000000E+00  0.12764302045E+03  0.12764302045E+03  0.00000000000E+00 0. -1.
          2   -1    0    0  502    0 -0.00000000000E+00 -0.00000000000E+00 -0.28971464610E+03  0.28971464610E+03  0.00000000000E+00 0.  1.
         21    1    1    2  503  501  0.34296535741E+02 -0.97616177871E+02  0.94863857286E+02  0.14037208400E+03  0.00000000000E+00 0. -1.
          2    1    1    2  501    0 -0.34296535741E+02  0.97616177871E+02 -0.25693548294E+03  0.27698558255E+03  0.00000000000E+00 0.  1.
<mgrwt>
<rscale>  2 0.10346579E+03</rscale>
<asrwt>0</asrwt>
<pdfrwt beam="1">  1       21 0.19637388E-01 0.10346579E+03</pdfrwt>
<pdfrwt beam="2">  1        2 0.44571483E-01 0.10346579E+03</pdfrwt>
<totfact> 0.33625173E+04</totfact>
</mgrwt>
</event>
<event>
 4    1  0.4926234E+003  0.1085532E+03  0.7546771E-02  0.1263273E+00
          1   -1    0    0  502    0 -0.00000000000E+00  0.00000000000E+00  0.70083843568E+03  0.70083843568E+03  0.00000000000E+00 0.  1.
         21   -1    0    0  503  502  0.00000000000E+00 -0.00000000000E+00 -0.29720215774E+03  0.29720215774E+03  0.00000000000E+00 0. -1.
         21    1    1    2  503  501 -0.18220582630E+01 -0.10853790987E+03 -0.28288091798E+03  0.30299407838E+03  0.00000000000E+00 0. -1.
          1    1    1    2  501    0  0.18220582630E+01  0.10853790987E+03  0.68651719593E+03  0.69504651505E+03  0.00000000000E+00 0.  1.
<mgrwt>
<rscale>  2 0.10855320E+03</rscale>
<asrwt>0</asrwt>
<pdfrwt beam="2">  1       21 0.45723409E-01 0.10855320E+03</pdfrwt>
<pdfrwt beam="1">  1        1 0.10782130E+00 0.10855320E+03</pdfrwt>
<totfact> 0.15136720E+03</totfact>
</mgrwt>
</event>
<event>
 4    1  0.4926234E+003  0.1078405E+03  0.7546771E-02  0.1264622E+00
         21   -1    0    0  501  502  0.00000000000E+00  0.00000000000E+00  0.66322554591E+03  0.66322554591E+03  0.00000000000E+00 0. -1.
          2   -1    0    0  503    0 -0.00000000000E+00 -0.00000000000E+00 -0.23138954428E+02  0.23138954428E+02  0.00000000000E+00 0.  1.
         21    1    1    2  503  502 -0.17557075474E+01 -0.10782623923E+03  0.48893367018E+03  0.50068524465E+03  0.00000000000E+00 0. -1.
          2    1    1    2  501    0  0.17557075474E+01  0.10782623923E+03  0.15115292130E+03  0.18567925569E+03  0.00000000000E+00 0.  1.
<mgrwt>
<rscale>  2 0.10784053E+03</rscale>
<asrwt>0</asrwt>
<pdfrwt beam="1">  1       21 0.10203468E+00 0.10784053E+03</pdfrwt>
<pdfrwt beam="2">  1        2 0.35598397E-02 0.10784053E+03</pdfrwt>
<totfact> 0.23261432E+04</totfact>
</mgrwt>
</event>
<event>
 4    1  0.4926234E+003  0.1007397E+03  0.7546771E-02  0.1278748E+00
         21   -1    0    0  501  502  0.00000000000E+00  0.00000000000E+00  0.32497138883E+02  0.32497138883E+02  0.00000000000E+00 0.  1.
          1   -1    0    0  503    0 -0.00000000000E+00 -0.00000000000E+00 -0.32989631303E+03  0.32989631303E+03  0.00000000000E+00 0.  1.
         21    1    1    2  503  502  0.88010912969E+02  0.49015968034E+02 -0.10683824747E+03  0.14684310350E+03  0.00000000000E+00 0.  1.
          1    1    1    2  501    0 -0.88010912969E+02 -0.49015968034E+02 -0.19056092668E+03  0.21555034842E+03  0.00000000000E+00 0.  1.
<mgrwt>
<rscale>  2 0.10073969E+03</rscale>
<asrwt>0</asrwt>
<pdfrwt beam="1">  1       21 0.49995600E-02 0.10073969E+03</pdfrwt>
<pdfrwt beam="2">  1        1 0.50753277E-01 0.10073969E+03</pdfrwt>
<totfact> 0.22156496E+05</totfact>
</mgrwt>
</event>
<event>
 4    1  0.4926234E+003  0.1069481E+03  0.7546771E-02  0.1266328E+00
         21   -1    0    0  501  502  0.00000000000E+00  0.00000000000E+00  0.87496192357E+02  0.87496192357E+02  0.00000000000E+00 0. -1.
          3   -1    0    0  503    0 -0.00000000000E+00 -0.00000000000E+00 -0.23019541306E+03  0.23019541306E+03  0.00000000000E+00 0.  1.
         21    1    1    2  503  502  0.80240253823E+02  0.70706455299E+02  0.33068380964E+02  0.11194382062E+03  0.00000000000E+00 0. -1.
          3    1    1    2  501    0 -0.80240253823E+02 -0.70706455299E+02 -0.17576760167E+03  0.20574778480E+03  0.00000000000E+00 0.  1.
<mgrwt>
<rscale>  2 0.10694812E+03</rscale>
<asrwt>0</asrwt>
<pdfrwt beam="1">  1       21 0.13460953E-01 0.10694812E+03</pdfrwt>
<pdfrwt beam="2">  1        3 0.35414679E-01 0.10694812E+03</pdfrwt>
<totfact> 0.17766959E+04</totfact>
</mgrwt>
</event>
<event>
 4    1  0.4926234E+003  0.1852390E+03  0.7546771E-02  0.1162827E+00
         -4   -1    0    0    0  501 -0.00000000000E+00  0.00000000000E+00  0.17710304013E+04  0.17710304013E+04  0.00000000000E+00 0. -1.
         21   -1    0    0  501  502  0.00000000000E+00 -0.00000000000E+00 -0.86991550947E+02  0.86991550947E+02  0.00000000000E+00 0. -1.
         21    1    1    2  503  502  0.10321137854E+03 -0.15382097025E+03  0.22971639647E+02  0.18665791110E+03  0.00000000000E+00 0. -1.
         -4    1    1    2    0  503 -0.10321137854E+03  0.15382097025E+03  0.16610672107E+04  0.16713640411E+04  0.00000000000E+00 0. -1.
<mgrwt>
<rscale>  2 0.18523898E+03</rscale>
<asrwt>0</asrwt>
<pdfrwt beam="2">  1       21 0.13383317E-01 0.18523898E+03</pdfrwt>
<pdfrwt beam="1">  1       -4 0.27246619E+00 0.18523898E+03</pdfrwt>
<totfact> 0.10913753E+02</totfact>
</mgrwt>
</event>
<event>
 4    1  0.4926234E+003  0.1247794E+03  0.7546771E-02  0.1235415E+00
          2   -1    0    0  503    0 -0.00000000000E+00  0.00000000000E+00  0.62635146690E+03  0.62635146690E+03  0.00000000000E+00 0. -1.
         21   -1    0    0  501  502  0.00000000000E+00 -0.00000000000E+00 -0.38838657034E+02  0.38838657034E+02  0.00000000000E+00 0. -1.
         21    1    1    2  503  502  0.25715071479E+02  0.12210086734E+03  0.94208833944E+02  0.15634957979E+03  0.00000000000E+00 0. -1.
          2    1    1    2  501    0 -0.25715071479E+02 -0.12210086734E+03  0.49330397592E+03  0.50884054414E+03  0.00000000000E+00 0. -1.
<mgrwt>
<rscale>  2 0.12477935E+03</rscale>
<asrwt>0</asrwt>
<pdfrwt beam="2">  1       21 0.59751784E-02 0.12477935E+03</pdfrwt>
<pdfrwt beam="1">  1        2 0.96361757E-01 0.12477935E+03</pdfrwt>
<totfact> 0.11882342E+05</totfact>
</mgrwt>
</event>
<event>
 4    1  0.4926234E+003  0.1161337E+03  0.7546771E-02  0.1249615E+00
         21   -1    0    0  503  502  0.00000000000E+00  0.00000000000E+00  0.18212162734E+02  0.18212162734E+02  0.00000000000E+00 0.  1.
          1   -1    0    0  502    0 -0.00000000000E+00 -0.00000000000E+00 -0.10999791711E+04  0.10999791711E+04  0.00000000000E+00 0.  1.
         21    1    1    2  503  501 -0.38234759868E+02  0.10965922649E+03 -0.22128870480E+03  0.24991145169E+03  0.00000000000E+00 0.  1.
          1    1    1    2  501    0  0.38234759868E+02 -0.10965922649E+03 -0.86047830360E+03  0.86827988217E+03  0.00000000000E+00 0.  1.
<mgrwt>
<rscale>  2 0.11613373E+03</rscale>
<asrwt>0</asrwt>
<pdfrwt beam="1">  1       21 0.28018709E-02 0.11613373E+03</pdfrwt>
<pdfrwt beam="2">  1        1 0.16922758E+00 0.11613373E+03</pdfrwt>
<totfact> 0.10732355E+05</totfact>
</mgrwt>
</event>
<event>
 4    1  0.4926234E+003  0.1136254E+03  0.7546771E-02  0.1254000E+00
          2   -1    0    0  502    0 -0.00000000000E+00  0.00000000000E+00  0.40118746316E+03  0.40118746316E+03  0.00000000000E+00 0.  1.
         21   -1    0    0  503  502  0.00000000000E+00 -0.00000000000E+00 -0.66878113086E+02  0.66878113086E+02  0.00000000000E+00 0. -1.
         21    1    1    2  503  501  0.10218234771E+03  0.49694170175E+02 -0.14149650785E+01  0.11363425918E+03  0.00000000000E+00 0. -1.
          2    1    1    2  501    0 -0.10218234771E+03 -0.49694170175E+02  0.33572431515E+03  0.35443131707E+03  0.00000000000E+00 0.  1.
<mgrwt>
<rscale>  2 0.11362545E+03</rscale>
<asrwt>0</asrwt>
<pdfrwt beam="2">  1       21 0.10288941E-01 0.11362545E+03</pdfrwt>
<pdfrwt beam="1">  1        2 0.61721146E-01 0.11362545E+03</pdfrwt>
<totfact> 0.75896127E+04</totfact>
</mgrwt>
</event>
<event>
 4    1  0.4926234E+003  0.1080030E+03  0.7546771E-02  0.1264313E+00
         21   -1    0    0  501  502  0.00000000000E+00  0.00000000000E+00  0.19150790524E+02  0.19150790524E+02  0.00000000000E+00 0.  1.
          2   -1    0    0  503    0 -0.00000000000E+00 -0.00000000000E+00 -0.74513857341E+03  0.74513857341E+03  0.00000000000E+00 0.  1.
         21    1    1    2  503  502  0.10232448709E+03  0.34559370940E+02 -0.19970813192E+03  0.22704182155E+03  0.00000000000E+00 0.  1.
          2    1    1    2  501    0 -0.10232448709E+03 -0.34559370940E+02 -0.52627965096E+03  0.53724754238E+03  0.00000000000E+00 0.  1.
<mgrwt>
<rscale>  2 0.10800301E+03</rscale>
<asrwt>0</asrwt>
<pdfrwt beam="1">  1       21 0.29462758E-02 0.10800301E+03</pdfrwt>
<pdfrwt beam="2">  1        2 0.11463669E+00 0.10800301E+03</pdfrwt>
<totfact> 0.31210448E+05</totfact>
</mgrwt>
</event>
<event>
 4    1  0.4926234E+003  0.1068537E+03  0.7546771E-02  0.1266510E+00
          2   -1    0    0  502    0 -0.00000000000E+00  0.00000000000E+00  0.15194097992E+04  0.15194097992E+04  0.00000000000E+00 0.  1.
         21   -1    0    0  503  502  0.00000000000E+00 -0.00000000000E+00 -0.90738143588E+01  0.90738143588E+01  0.00000000000E+00 0. -1.
         21    1    1    2  503  501 -0.56841655160E+02 -0.90480626412E+02  0.43836274460E+03  0.45119797580E+03  0.00000000000E+00 0. -1.
          2    1    1    2  501    0  0.56841655160E+02  0.90480626412E+02  0.10719732402E+04  0.10772856377E+04  0.00000000000E+00 0.  1.
<mgrwt>
<rscale>  2 0.10685372E+03</rscale>
<asrwt>0</asrwt>
<pdfrwt beam="2">  1       21 0.13959726E-02 0.10685372E+03</pdfrwt>
<pdfrwt beam="1">  1        2 0.23375515E+00 0.10685372E+03</pdfrwt>
<totfact> 0.37237669E+05</totfact>
</mgrwt>
</event>
<event>
 4    1  0.4926234E+003  0.1097801E+03  0.7546771E-02  0.1260978E+00
         21   -1    0    0  503  502  0.00000000000E+00  0.00000000000E+00  0.12443385118E+02  0.12443385118E+02  0.00000000000E+00 0.  1.
          1   -1    0    0  502    0 -0.00000000000E+00 -0.00000000000E+00 -0.13435947960E+04  0.13435947960E+04  0.00000000000E+00 0.  1.
         21    1    1    2  503  501 -0.27518074667E+02 -0.10627524917E+03 -0.30734200188E+03  0.32635989205E+03  0.00000000000E+00 0.  1.
          1    1    1    2  501    0  0.27518074667E+02  0.10627524917E+03 -0.10238094090E+04  0.10296782890E+04  0.00000000000E+00 0.  1.
<mgrwt>
<rscale>  2 0.10978011E+03</rscale>
<asrwt>0</asrwt>
<pdfrwt beam="1">  1       21 0.19143664E-02 0.10978011E+03</pdfrwt>
<pdfrwt beam="2">  1        1 0.20670695E+00 0.10978011E+03</pdfrwt>
<totfact> 0.13587814E+05</totfact>
</mgrwt>
</event>
<event>
 4    1  0.4926234E+003  0.1203806E+03  0.7546771E-02  0.1242471E+00
         21   -1    0    0  501  502  0.00000000000E+00  0.00000000000E+00  0.14839616392E+02  0.14839616392E+02  0.00000000000E+00 0. -1.
          2   -1    0    0  503    0 -0.00000000000E+00 -0.00000000000E+00 -0.29827058279E+04  0.29827058279E+04  0.00000000000E+00 0.  1.
         21    1    1    2  503  502 -0.11048812096E+03 -0.47789715957E+02 -0.25475741551E+03  0.28176731994E+03  0.00000000000E+00 0. -1.
          2    1    1    2  501    0  0.11048812096E+03  0.47789715957E+02 -0.27131087960E+04  0.27157781244E+04  0.00000000000E+00 0.  1.
<mgrwt>
<rscale>  2 0.12038057E+03</rscale>
<asrwt>0</asrwt>
<pdfrwt beam="1">  1       21 0.22830138E-02 0.12038057E+03</pdfrwt>
<pdfrwt beam="2">  1        2 0.45887865E+00 0.12038057E+03</pdfrwt>
<totfact> 0.28822963E+04</totfact>
</mgrwt>
</event>
<event>
 4    1  0.4926234E+003  0.1453397E+03  0.7546771E-02  0.1206319E+00
         21   -1    0    0  503  502  0.00000000000E+00  0.00000000000E+00  0.57902567705E+03  0.57902567705E+03  0.00000000000E+00 0. -1.
          2   -1    0    0  502    0 -0.00000000000E+00 -0.00000000000E+00 -0.11979697729E+04  0.11979697729E+04  0.00000000000E+00 0.  1.
         21    1    1    2  503  501 -0.10232977405E+03  0.10320973594E+03  0.56539253368E+03  0.58377422810E+03  0.00000000000E+00 0. -1.
          2    1    1    2  501    0  0.10232977405E+03 -0.10320973594E+03 -0.11843366295E+04  0.11932212218E+04  0.00000000000E+00 0.  1.
<mgrwt>
<rscale>  2 0.14533971E+03</rscale>
<asrwt>0</asrwt>
<pdfrwt beam="1">  1       21 0.89080875E-01 0.14533971E+03</pdfrwt>
<pdfrwt beam="2">  1        2 0.18430304E+00 0.14533971E+03</pdfrwt>
<totfact> 0.28753422E+02</totfact>
</mgrwt>
</event>
<event>
 4    1  0.4926234E+003  0.1463248E+03  0.7546771E-02  0.1205063E+00
          2   -1    0    0  503    0 -0.00000000000E+00  0.00000000000E+00  0.49016952322E+03  0.49016952322E+03  0.00000000000E+00 0. -1.
         21   -1    0    0  501  502  0.00000000000E+00 -0.00000000000E+00 -0.51597551778E+02  0.51597551778E+02  0.00000000000E+00 0.  1.
         21    1    1    2  503  502  0.16521122893E+02  0.14538914485E+03  0.11317895759E+03  0.18498764116E+03  0.00000000000E+00 0.  1.
          2    1    1    2  501    0 -0.16521122893E+02 -0.14538914485E+03  0.32539301385E+03  0.35677943383E+03  0.00000000000E+00 0. -1.
<mgrwt>
<rscale>  2 0.14632481E+03</rscale>
<asrwt>0</asrwt>
<pdfrwt beam="2">  1       21 0.79380852E-02 0.14632481E+03</pdfrwt>
<pdfrwt beam="1">  1        2 0.75410693E-01 0.14632481E+03</pdfrwt>
<totfact> 0.96534194E+04</totfact>
</mgrwt>
</event>
<event>
 4    1  0.4926234E+003  0.2234342E+03  0.7546771E-02  0.1131348E+00
          2   -1    0    0  503    0 -0.00000000000E+00  0.00000000000E+00  0.25825969931E+03  0.25825969931E+03  0.00000000000E+00 0. -1.
         21   -1    0    0  501  502  0.00000000000E+00 -0.00000000000E+00 -0.21798896256E+03  0.21798896256E+03  0.00000000000E+00 0. -1.
         21    1    1    2  503  502  0.12945142442E+03  0.18211312798E+03 -0.59994592587E+02  0.23134868447E+03  0.00000000000E+00 0. -1.
          2    1    1    2  501    0 -0.12945142442E+03 -0.18211312798E+03  0.10026532934E+03  0.24489997741E+03  0.00000000000E+00 0. -1.
<mgrwt>
<rscale>  2 0.22343425E+03</rscale>
<asrwt>0</asrwt>
<pdfrwt beam="2">  1       21 0.33536763E-01 0.22343425E+03</pdfrwt>
<pdfrwt beam="1">  1        2 0.39732262E-01 0.22343425E+03</pdfrwt>
<totfact> 0.13562794E+04</totfact>
</mgrwt>
</event>
<event>
 4    1  0.4926234E+003  0.1356251E+03  0.7546771E-02  0.1219340E+00
          1   -1    0    0  502    0 -0.00000000000E+00  0.00000000000E+00  0.45712132706E+03  0.45712132706E+03  0.00000000000E+00 0. -1.
         21   -1    0    0  503  502  0.00000000000E+00 -0.00000000000E+00 -0.50760911040E+02  0.50760911040E+02  0.00000000000E+00 0. -1.
         21    1    1    2  503  501 -0.58642517668E+02 -0.12229151485E+03  0.87565474698E+02  0.16143689740E+03  0.00000000000E+00 0. -1.
          1    1    1    2  501    0  0.58642517668E+02  0.12229151485E+03  0.31879494132E+03  0.34644534070E+03  0.00000000000E+00 0. -1.
<mgrwt>
<rscale>  2 0.13562507E+03</rscale>
<asrwt>0</asrwt>
<pdfrwt beam="2">  1       21 0.78093712E-02 0.13562507E+03</pdfrwt>
<pdfrwt beam="1">  1        1 0.70326355E-01 0.13562507E+03</pdfrwt>
<totfact> 0.69940498E+04</totfact>
</mgrwt>
</event>
<event>
 4    1  0.4926234E+003  0.1093805E+03  0.7546771E-02  0.1261721E+00
          2   -1    0    0  503    0 -0.00000000000E+00  0.00000000000E+00  0.42626273632E+03  0.42626273632E+03  0.00000000000E+00 0.  1.
         21   -1    0    0  501  502  0.00000000000E+00 -0.00000000000E+00 -0.21159266127E+03  0.21159266127E+03  0.00000000000E+00 0.  1.
         21    1    1    2  503  502  0.61488353130E+02 -0.90461489965E+02 -0.18968779200E+03  0.21896473956E+03  0.00000000000E+00 0.  1.
          2    1    1    2  501    0 -0.61488353130E+02  0.90461489965E+02  0.40435786705E+03  0.41889065802E+03  0.00000000000E+00 0.  1.
<mgrwt>
<rscale>  2 0.10938052E+03</rscale>
<asrwt>0</asrwt>
<pdfrwt beam="2">  1       21 0.32552717E-01 0.10938052E+03</pdfrwt>
<pdfrwt beam="1">  1        2 0.65578882E-01 0.10938052E+03</pdfrwt>
<totfact> 0.86294946E+03</totfact>
</mgrwt>
</event>
<event>
 4    1  0.4926234E+003  0.1284431E+03  0.7546771E-02  0.1229784E+00
          1   -1    0    0  502    0 -0.00000000000E+00  0.00000000000E+00  0.16897874985E+04  0.16897874985E+04  0.00000000000E+00 0.  1.
         21   -1    0    0  503  502  0.00000000000E+00 -0.00000000000E+00 -0.29257842361E+02  0.29257842361E+02  0.00000000000E+00 0.  1.
         21    1    1    2  503  501 -0.24143872338E+02  0.12615352906E+03  0.12865697272E+03  0.18179729397E+03  0.00000000000E+00 0.  1.
          1    1    1    2  501    0  0.24143872338E+02 -0.12615352906E+03  0.15318726835E+04  0.15372480469E+04  0.00000000000E+00 0.  1.
<mgrwt>
<rscale>  2 0.12844314E+03</rscale>
<asrwt>0</asrwt>
<pdfrwt beam="2">  1       21 0.45012079E-02 0.12844314E+03</pdfrwt>
<pdfrwt beam="1">  1        1 0.25996723E+00 0.12844314E+03</pdfrwt>
<totfact> 0.20023362E+04</totfact>
</mgrwt>
</event>
<event>
 4    1  0.4926234E+003  0.1419355E+03  0.7546771E-02  0.1210748E+00
         21   -1    0    0  503  502  0.00000000000E+00  0.00000000000E+00  0.77517283146E+02  0.77517283146E+02  0.00000000000E+00 0. -1.
         -1   -1    0    0    0  501 -0.00000000000E+00 -0.00000000000E+00 -0.26420886319E+03  0.26420886319E+03  0.00000000000E+00 0. -1.
         21    1    1    2  503  501 -0.13038003644E+03 -0.56095642920E+02 -0.11520066558E+03  0.18280281291E+03  0.00000000000E+00 0. -1.
         -1    1    1    2    0  502  0.13038003644E+03  0.56095642920E+02 -0.71490914463E+02  0.15892333343E+03  0.00000000000E+00 0. -1.
<mgrwt>
<rscale>  2 0.14193546E+03</rscale>
<asrwt>0</asrwt>
<pdfrwt beam="1">  1       21 0.11925736E-01 0.14193546E+03</pdfrwt>
<pdfrwt beam="2">  1       -1 0.40647517E-01 0.14193546E+03</pdfrwt>
<totfact> 0.32633994E+04</totfact>
</mgrwt>
</event>
<event>
 4    1  0.4926234E+003  0.1260390E+03  0.7546771E-02  0.1233454E+00
         21   -1    0    0  503  502  0.00000000000E+00  0.00000000000E+00  0.92299457574E+03  0.92299457574E+03  0.00000000000E+00 0.  1.
          2   -1    0    0  502    0 -0.00000000000E+00 -0.00000000000E+00 -0.17211315057E+02  0.17211315057E+02  0.00000000000E+00 0.  1.
         21    1    1    2  503  501  0.60524147311E+02 -0.11055607234E+03  0.45153191135E+03  0.46879300817E+03  0.00000000000E+00 0.  1.
          2    1    1    2  501    0 -0.60524147311E+02  0.11055607234E+03  0.45425134933E+03  0.47141288263E+03  0.00000000000E+00 0.  1.
<mgrwt>
<rscale>  2 0.12603895E+03</rscale>
<asrwt>0</asrwt>
<pdfrwt beam="1">  1       21 0.14199913E+00 0.12603895E+03</pdfrwt>
<pdfrwt beam="2">  1        2 0.26478953E-02 0.12603895E+03</pdfrwt>
<totfact> 0.15428415E+04</totfact>
</mgrwt>
</event>
<event>
 4    1  0.4926234E+003  0.1094407E+03  0.7546771E-02  0.1261609E+00
         -2   -1    0    0    0  501 -0.00000000000E+00  0.00000000000E+00  0.13762794092E+03  0.13762794092E+03  0.00000000000E+00 0.  1.
         21   -1    0    0  503  502  0.00000000000E+00 -0.00000000000E+00 -0.90970429048E+02  0.90970429048E+02  0.00000000000E+00 0.  1.
         21    1    1    2  503  501 -0.68932290442E+02 -0.85003542033E+02 -0.47051373944E+00  0.10944169318E+03  0.00000000000E+00 0.  1.
         -2    1    1    2    0  502  0.68932290442E+02  0.85003542033E+02  0.47128025611E+02  0.11915667678E+03  0.00000000000E+00 0.  1.
<mgrwt>
<rscale>  2 0.10944068E+03</rscale>
<asrwt>0</asrwt>
<pdfrwt beam="2">  1       21 0.13995451E-01 0.10944068E+03</pdfrwt>
<pdfrwt beam="1">  1       -2 0.21173529E-01 0.10944068E+03</pdfrwt>
<totfact> 0.65956670E+04</totfact>
</mgrwt>
</event>
<event>
 4    1  0.4926234E+003  0.1121640E+03  0.7546771E-02  0.1256614E+00
         21   -1    0    0  501  502  0.00000000000E+00  0.00000000000E+00  0.69917562979E+02  0.69917562979E+02  0.00000000000E+00 0.  1.
          2   -1    0    0  503    0 -0.00000000000E+00 -0.00000000000E+00 -0.19157342785E+04  0.19157342785E+04  0.00000000000E+00 0. -1.
         21    1    1    2  503  502  0.65545678876E+02 -0.91019383810E+02  0.22142019609E+02  0.11432861969E+03  0.00000000000E+00 0.  1.
          2    1    1    2  501    0 -0.65545678876E+02  0.91019383810E+02 -0.18679587352E+04  0.18713232218E+04  0.00000000000E+00 0. -1.
<mgrwt>
<rscale>  2 0.11216401E+03</rscale>
<asrwt>0</asrwt>
<pdfrwt beam="1">  1       21 0.10756547E-01 0.11216401E+03</pdfrwt>
<pdfrwt beam="2">  1        2 0.29472837E+00 0.11216401E+03</pdfrwt>
<totfact> 0.79306652E+03</totfact>
</mgrwt>
</event>
<event>
 4    1  0.4926234E+003  0.1048980E+03  0.7546771E-02  0.1270321E+00
          2   -1    0    0  503    0 -0.00000000000E+00  0.00000000000E+00  0.27057572775E+04  0.27057572775E+04  0.00000000000E+00 0.  1.
         21   -1    0    0  501  502  0.00000000000E+00 -0.00000000000E+00 -0.41923216095E+01  0.41923216095E+01  0.00000000000E+00 0. -1.
         21    1    1    2  503  502  0.93174275948E+02 -0.48188601968E+02  0.11162610831E+04  0.11211790190E+04  0.00000000000E+00 0. -1.
          2    1    1    2  501    0 -0.93174275948E+02  0.48188601968E+02  0.15853038728E+04  0.15887705801E+04  0.00000000000E+00 0.  1.
<mgrwt>
<rscale>  2 0.10489798E+03</rscale>
<asrwt>0</asrwt>
<pdfrwt beam="2">  1       21 0.64497472E-03 0.10489798E+03</pdfrwt>
<pdfrwt beam="1">  1        2 0.41626895E+00 0.10489798E+03</pdfrwt>
<totfact> 0.30522576E+05</totfact>
</mgrwt>
</event>
<event>
 4    1  0.4926234E+003  0.1726666E+03  0.7546771E-02  0.1175095E+00
         21   -1    0    0  503  502  0.00000000000E+00  0.00000000000E+00  0.72438984802E+02  0.72438984802E+02  0.00000000000E+00 0. -1.
          1   -1    0    0  502    0 -0.00000000000E+00 -0.00000000000E+00 -0.43816959522E+03  0.43816959522E+03  0.00000000000E+00 0. -1.
         21    1    1    2  503  501  0.17135075832E+03  0.21276478994E+02 -0.11996279521E+03  0.21024947840E+03  0.00000000000E+00 0. -1.
          1    1    1    2  501    0 -0.17135075832E+03 -0.21276478994E+02 -0.24576781520E+03  0.30035910161E+03  0.00000000000E+00 0. -1.
<mgrwt>
<rscale>  2 0.17266665E+03</rscale>
<asrwt>0</asrwt>
<pdfrwt beam="1">  1       21 0.11144459E-01 0.17266665E+03</pdfrwt>
<pdfrwt beam="2">  1        1 0.67410707E-01 0.17266665E+03</pdfrwt>
<totfact> 0.39723299E+04</totfact>
</mgrwt>
</event>
<event>
 4    1  0.4926234E+003  0.1266273E+03  0.7546771E-02  0.1232548E+00
         21   -1    0    0  503  502  0.00000000000E+00  0.00000000000E+00  0.67385190104E+02  0.67385190104E+02  0.00000000000E+00 0. -1.
          1   -1    0    0  502    0 -0.00000000000E+00 -0.00000000000E+00 -0.69087817368E+03  0.69087817368E+03  0.00000000000E+00 0. -1.
         21    1    1    2  503  501  0.12619074024E+03  0.10506120191E+02 -0.47716666905E+01  0.12671720597E+03  0.00000000000E+00 0. -1.
          1    1    1    2  501    0 -0.12619074024E+03 -0.10506120191E+02 -0.61872131689E+03  0.63154615782E+03  0.00000000000E+00 0. -1.
<mgrwt>
<rscale>  2 0.12662733E+03</rscale>
<asrwt>0</asrwt>
<pdfrwt beam="1">  1       21 0.10366953E-01 0.12662733E+03</pdfrwt>
<pdfrwt beam="2">  1        1 0.10628895E+00 0.12662733E+03</pdfrwt>
<totfact> 0.24558564E+04</totfact>
</mgrwt>
</event>
<event>
 4    1  0.4926234E+003  0.1014837E+03  0.7546771E-02  0.1277207E+00
          2   -1    0    0  503    0 -0.00000000000E+00  0.00000000000E+00  0.21573318442E+03  0.21573318442E+03  0.00000000000E+00 0.  1.
         21   -1    0    0  501  502  0.00000000000E+00 -0.00000000000E+00 -0.93280365511E+03  0.93280365511E+03  0.00000000000E+00 0.  1.
         21    1    1    2  503  502  0.75342874112E+02 -0.67988159292E+02 -0.91791564708E+03  0.92350856717E+03  0.00000000000E+00 0.  1.
          2    1    1    2  501    0 -0.75342874112E+02  0.67988159292E+02  0.20084517638E+03  0.22502827236E+03  0.00000000000E+00 0.  1.
<mgrwt>
<rscale>  2 0.10148369E+03</rscale>
<asrwt>0</asrwt>
<pdfrwt beam="2">  1       21 0.14350826E+00 0.10148369E+03</pdfrwt>
<pdfrwt beam="1">  1        2 0.33189720E-01 0.10148369E+03</pdfrwt>
<totfact> 0.69838074E+02</totfact>
</mgrwt>
</event>
<event>
 4    1  0.4926234E+003  0.1133211E+03  0.7546771E-02  0.1254540E+00
          1   -1    0    0  502    0 -0.00000000000E+00  0.00000000000E+00  0.13445983269E+04  0.13445983269E+04  0.00000000000E+00 0. -1.
         21   -1    0    0  503  502  0.00000000000E+00 -0.00000000000E+00 -0.61232817182E+02  0.61232817182E+02  0.00000000000E+00 0.  1.
         21    1    1    2  503  501  0.84799901939E+02  0.75170796857E+02 -0.40930431408E+01  0.11339499579E+03  0.00000000000E+00 0.  1.
          1    1    1    2  501    0 -0.84799901939E+02 -0.75170796857E+02  0.12874585528E+04  0.12924361483E+04  0.00000000000E+00 0. -1.
<mgrwt>
<rscale>  2 0.11332110E+03</rscale>
<asrwt>0</asrwt>
<pdfrwt beam="2">  1       21 0.94204344E-02 0.11332110E+03</pdfrwt>
<pdfrwt beam="1">  1        1 0.20686126E+00 0.11332110E+03</pdfrwt>
<totfact> 0.95725809E+03</totfact>
</mgrwt>
</event>
<event>
 4    1  0.4926234E+003  0.1098351E+03  0.7546771E-02  0.1260876E+00
          2   -1    0    0  502    0 -0.00000000000E+00  0.00000000000E+00  0.28751547769E+04  0.28751547769E+04  0.00000000000E+00 0.  1.
         21   -1    0    0  503  502  0.00000000000E+00 -0.00000000000E+00 -0.29045537001E+03  0.29045537001E+03  0.00000000000E+00 0. -1.
         21    1    1    2  503  501  0.86572664242E+02 -0.67593823784E+02 -0.27898133503E+03  0.29982384245E+03  0.00000000000E+00 0. -1.
          2    1    1    2  501    0 -0.86572664242E+02  0.67593823784E+02  0.28636807419E+04  0.28657863044E+04  0.00000000000E+00 0.  1.
<mgrwt>
<rscale>  2 0.10983511E+03</rscale>
<asrwt>0</asrwt>
<pdfrwt beam="2">  1       21 0.44685443E-01 0.10983511E+03</pdfrwt>
<pdfrwt beam="1">  1        2 0.44233149E+00 0.10983511E+03</pdfrwt>
<totfact> 0.17409482E+02</totfact>
</mgrwt>
</event>
<event>
 4    1  0.4926234E+003  0.1587408E+03  0.7546771E-02  0.1190126E+00
          1   -1    0    0  502    0 -0.00000000000E+00  0.00000000000E+00  0.46218210037E+03  0.46218210037E+03  0.00000000000E+00 0. -1.
         21   -1    0    0  503  502  0.00000000000E+00 -0.00000000000E+00 -0.24691509387E+03  0.24691509387E+03  0.00000000000E+00 0.  1.
         21    1    1    2  503  501 -0.40685851029E+02 -0.15343824268E+03 -0.20533296831E+03  0.25953855334E+03  0.00000000000E+00 0.  1.
          1    1    1    2  501    0  0.40685851029E+02  0.15343824268E+03  0.42059997482E+03  0.44955864090E+03  0.00000000000E+00 0. -1.
<mgrwt>
<rscale>  2 0.15874077E+03</rscale>
<asrwt>0</asrwt>
<pdfrwt beam="2">  1       21 0.37986937E-01 0.15874077E+03</pdfrwt>
<pdfrwt beam="1">  1        1 0.71104939E-01 0.15874077E+03</pdfrwt>
<totfact> 0.37440000E+03</totfact>
</mgrwt>
</event>
<event>
 4    1  0.4926234E+003  0.1056062E+03  0.7546771E-02  0.1268930E+00
         21   -1    0    0  503  502  0.00000000000E+00  0.00000000000E+00  0.69402633172E+01  0.69402633172E+01  0.00000000000E+00 0. -1.
          2   -1    0    0  502    0 -0.00000000000E+00 -0.00000000000E+00 -0.20014531542E+04  0.20014531542E+04  0.00000000000E+00 0. -1.
         21    1    1    2  503  501  0.99424034535E+02  0.35602546817E+02 -0.55142630301E+03  0.56144781381E+03  0.00000000000E+00 0. -1.
          2    1    1    2  501    0 -0.99424034535E+02 -0.35602546817E+02 -0.14430865879E+04  0.14469456037E+04  0.00000000000E+00 0. -1.
<mgrwt>
<rscale>  2 0.10560625E+03</rscale>
<asrwt>0</asrwt>
<pdfrwt beam="1">  1       21 0.10677307E-02 0.10560625E+03</pdfrwt>
<pdfrwt beam="2">  1        2 0.30791648E+00 0.10560625E+03</pdfrwt>
<totfact> 0.32379249E+05</totfact>
</mgrwt>
</event>
<event>
 4    1  0.4926234E+003  0.1095502E+03  0.7546771E-02  0.1261405E+00
         21   -1    0    0  503  502  0.00000000000E+00  0.00000000000E+00  0.14308398723E+03  0.14308398723E+03  0.00000000000E+00 0.  1.
          2   -1    0    0  502    0 -0.00000000000E+00 -0.00000000000E+00 -0.14785662400E+03  0.14785662400E+03  0.00000000000E+00 0. -1.
         21    1    1    2  503  501  0.93260296656E+02  0.57478417772E+02  0.93306565411E+02  0.14390054409E+03  0.00000000000E+00 0.  1.
          2    1    1    2  501    0 -0.93260296656E+02 -0.57478417772E+02 -0.98079202178E+02  0.14704006713E+03  0.00000000000E+00 0. -1.
<mgrwt>
<rscale>  2 0.10955022E+03</rscale>
<asrwt>0</asrwt>
<pdfrwt beam="1">  1       21 0.22012921E-01 0.10955022E+03</pdfrwt>
<pdfrwt beam="2">  1        2 0.22747173E-01 0.10955022E+03</pdfrwt>
<totfact> 0.56091464E+04</totfact>
</mgrwt>
</event>
<event>
 4    1  0.4926234E+003  0.1953461E+03  0.7546771E-02  0.1153726E+00
          1   -1    0    0  502    0 -0.00000000000E+00  0.00000000000E+00  0.91098322206E+03  0.91098322206E+03  0.00000000000E+00 0.  1.
         21   -1    0    0  503  502  0.00000000000E+00 -0.00000000000E+00 -0.59447220183E+02  0.59447220183E+02  0.00000000000E+00 0.  1.
         21    1    1    2  503  501  0.14351747816E+03  0.13252481191E+03  0.16206806480E+03  0.25382306817E+03  0.00000000000E+00 0.  1.
          1    1    1    2  501    0 -0.14351747816E+03 -0.13252481191E+03  0.68946793708E+03  0.71660737407E+03  0.00000000000E+00 0.  1.
<mgrwt>
<rscale>  2 0.19534608E+03</rscale>
<asrwt>0</asrwt>
<pdfrwt beam="2">  1       21 0.91457268E-02 0.19534608E+03</pdfrwt>
<pdfrwt beam="1">  1        1 0.14015126E+00 0.19534608E+03</pdfrwt>
<totfact> 0.19923911E+04</totfact>
</mgrwt>
</event>
<event>
 4    1  0.4926234E+003  0.1037384E+03  0.7546771E-02  0.1272625E+00
          1   -1    0    0  503    0 -0.00000000000E+00  0.00000000000E+00  0.61218368218E+02  0.61218368218E+02  0.00000000000E+00 0. -1.
         21   -1    0    0  501  502  0.00000000000E+00 -0.00000000000E+00 -0.20399011591E+04  0.20399011591E+04  0.00000000000E+00 0. -1.
         21    1    1    2  503  502  0.99795662026E+02 -0.28327951890E+02 -0.19936148209E+04  0.19963120250E+04  0.00000000000E+00 0. -1.
          1    1    1    2  501    0 -0.99795662026E+02  0.28327951890E+02  0.14932030043E+02  0.10480750230E+03  0.00000000000E+00 0. -1.
<mgrwt>
<rscale>  2 0.10373836E+03</rscale>
<asrwt>0</asrwt>
<pdfrwt beam="2">  1       21 0.31383089E+00 0.10373836E+03</pdfrwt>
<pdfrwt beam="1">  1        1 0.94182122E-02 0.10373836E+03</pdfrwt>
<totfact> 0.23867028E+02</totfact>
</mgrwt>
</event>
<event>
 4    1  0.4926234E+003  0.1015987E+03  0.7546771E-02  0.1276970E+00
         21   -1    0    0  503  502  0.00000000000E+00  0.00000000000E+00  0.47646627196E+02  0.47646627196E+02  0.00000000000E+00 0.  1.
          1   -1    0    0  502    0 -0.00000000000E+00 -0.00000000000E+00 -0.83532658694E+03  0.83532658694E+03  0.00000000000E+00 0.  1.
         21    1    1    2  503  501 -0.10013719522E+03  0.17170564120E+02 -0.13892260994E+02  0.10254404446E+03  0.00000000000E+00 0.  1.
          1    1    1    2  501    0  0.10013719522E+03 -0.17170564120E+02 -0.77378769875E+03  0.78042916967E+03  0.00000000000E+00 0.  1.
<mgrwt>
<rscale>  2 0.10159865E+03</rscale>
<asrwt>0</asrwt>
<pdfrwt beam="1">  1       21 0.73302502E-02 0.10159865E+03</pdfrwt>
<pdfrwt beam="2">  1        1 0.12851178E+00 0.10159865E+03</pdfrwt>
<totfact> 0.33909548E+04</totfact>
</mgrwt>
</event>
<event>
 4    1  0.4926234E+003  0.1231957E+03  0.7546771E-02  0.1237916E+00
         21   -1    0    0  503  502  0.00000000000E+00  0.00000000000E+00  0.22075906025E+02  0.22075906025E+02  0.00000000000E+00 0. -1.
         -3   -1    0    0    0  501 -0.00000000000E+00 -0.00000000000E+00 -0.10402248102E+04  0.10402248102E+04  0.00000000000E+00 0.  1.
         21    1    1    2  503  501  0.99924618616E+02  0.72057338693E+02 -0.19978025969E+03  0.23471118769E+03  0.00000000000E+00 0. -1.
         -3    1    1    2    0  502 -0.99924618616E+02 -0.72057338693E+02 -0.81836864447E+03  0.82758952852E+03  0.00000000000E+00 0.  1.
<mgrwt>
<rscale>  2 0.12319574E+03</rscale>
<asrwt>0</asrwt>
<pdfrwt beam="1">  1       21 0.33962930E-02 0.12319574E+03</pdfrwt>
<pdfrwt beam="2">  1       -3 0.16003460E+00 0.12319574E+03</pdfrwt>
<totfact> 0.72516027E+03</totfact>
</mgrwt>
</event>
<event>
 4    1  0.4926234E+003  0.1036499E+03  0.7546771E-02  0.1272803E+00
          2   -1    0    0  503    0 -0.00000000000E+00  0.00000000000E+00  0.54402852671E+03  0.54402852671E+03  0.00000000000E+00 0.  1.
         21   -1    0    0  501  502  0.00000000000E+00 -0.00000000000E+00 -0.73915655033E+02  0.73915655033E+02  0.00000000000E+00 0.  1.
         21    1    1    2  503  502 -0.96493414607E+02  0.37846064952E+02 -0.29441519540E+02  0.10775020542E+03  0.00000000000E+00 0.  1.
          2    1    1    2  501    0  0.96493414607E+02 -0.37846064952E+02  0.49955439121E+03  0.51019397632E+03  0.00000000000E+00 0.  1.
<mgrwt>
<rscale>  2 0.10364991E+03</rscale>
<asrwt>0</asrwt>
<pdfrwt beam="2">  1       21 0.11371640E-01 0.10364991E+03</pdfrwt>
<pdfrwt beam="1">  1        2 0.83696694E-01 0.10364991E+03</pdfrwt>
<totfact> 0.45783080E+04</totfact>
</mgrwt>
</event>
<event>
 4    1  0.4926234E+003  0.1056530E+03  0.7546771E-02  0.1268838E+00
         21   -1    0    0  501  502  0.00000000000E+00  0.00000000000E+00  0.29670562384E+02  0.29670562384E+02  0.00000000000E+00 0.  1.
          2   -1    0    0  503    0 -0.00000000000E+00 -0.00000000000E+00 -0.12381409027E+04  0.12381409027E+04  0.00000000000E+00 0. -1.
         21    1    1    2  503  502 -0.76100954259E+02 -0.73288545993E+02 -0.75334474898E+02  0.12976073875E+03  0.00000000000E+00 0.  1.
          2    1    1    2  501    0  0.76100954259E+02  0.73288545993E+02 -0.11331358654E+04  0.11380507263E+04  0.00000000000E+00 0. -1.
<mgrwt>
<rscale>  2 0.10565305E+03</rscale>
<asrwt>0</asrwt>
<pdfrwt beam="1">  1       21 0.45647012E-02 0.10565305E+03</pdfrwt>
<pdfrwt beam="2">  1        2 0.19048325E+00 0.10565305E+03</pdfrwt>
<totfact> 0.76572499E+04</totfact>
</mgrwt>
</event>
<event>
 4    1  0.4926234E+003  0.1129807E+03  0.7546771E-02  0.1255147E+00
         21   -1    0    0  501  502  0.00000000000E+00  0.00000000000E+00  0.10164470192E+02  0.10164470192E+02  0.00000000000E+00 0.  1.
          1   -1    0    0  503    0 -0.00000000000E+00 -0.00000000000E+00 -0.12695265743E+04  0.12695265743E+04  0.00000000000E+00 0.  1.
         21    1    1    2  503  502 -0.55223300298E+02  0.98564882492E+02 -0.56317391149E+03  0.57439490208E+03  0.00000000000E+00 0.  1.
          1    1    1    2  501    0  0.55223300298E+02 -0.98564882492E+02 -0.69618819262E+03  0.70529614241E+03  0.00000000000E+00 0.  1.
<mgrwt>
<rscale>  2 0.11298075E+03</rscale>
<asrwt>0</asrwt>
<pdfrwt beam="1">  1       21 0.15637651E-02 0.11298075E+03</pdfrwt>
<pdfrwt beam="2">  1        1 0.19531172E+00 0.11298075E+03</pdfrwt>
<totfact> 0.21037670E+05</totfact>
</mgrwt>
</event>
<event>
 4    1  0.4926234E+003  0.1164505E+03  0.7546771E-02  0.1249070E+00
         21   -1    0    0  503  502  0.00000000000E+00  0.00000000000E+00  0.68754044763E+03  0.68754044763E+03  0.00000000000E+00 0.  1.
         -1   -1    0    0    0  501 -0.00000000000E+00 -0.00000000000E+00 -0.24822754408E+02  0.24822754408E+02  0.00000000000E+00 0.  1.
         21    1    1    2  503  501 -0.11224690371E+03 -0.31005672537E+02  0.49279429380E+03  0.50636640402E+03  0.00000000000E+00 0.  1.
         -1    1    1    2    0  502  0.11224690371E+03  0.31005672537E+02  0.16992339943E+03  0.20599679802E+03  0.00000000000E+00 0.  1.
<mgrwt>
<rscale>  2 0.11645050E+03</rscale>
<asrwt>0</asrwt>
<pdfrwt beam="1">  1       21 0.10577544E+00 0.11645050E+03</pdfrwt>
<pdfrwt beam="2">  1       -1 0.38188858E-02 0.11645050E+03</pdfrwt>
<totfact> 0.16732253E+04</totfact>
</mgrwt>
</event>
<event>
 4    1  0.4926234E+003  0.1435991E+03  0.7546771E-02  0.1208567E+00
         21   -1    0    0  501  502  0.00000000000E+00  0.00000000000E+00  0.62375713827E+02  0.62375713827E+02  0.00000000000E+00 0.  1.
          2   -1    0    0  503    0 -0.00000000000E+00 -0.00000000000E+00 -0.20582816302E+04  0.20582816302E+04  0.00000000000E+00 0.  1.
         21    1    1    2  503  502 -0.47905571389E+02  0.13537269213E+03 -0.26500889669E+02  0.14602399357E+03  0.00000000000E+00 0.  1.
          2    1    1    2  501    0  0.47905571389E+02 -0.13537269213E+03 -0.19694050268E+04  0.19746333505E+04  0.00000000000E+00 0.  1.
<mgrwt>
<rscale>  2 0.14359913E+03</rscale>
<asrwt>0</asrwt>
<pdfrwt beam="1">  1       21 0.95962646E-02 0.14359913E+03</pdfrwt>
<pdfrwt beam="2">  1        2 0.31665868E+00 0.14359913E+03</pdfrwt>
<totfact> 0.80372463E+03</totfact>
</mgrwt>
</event>
<event>
 4    1  0.4926234E+003  0.1068759E+03  0.7546771E-02  0.1266467E+00
         21   -1    0    0  501  502  0.00000000000E+00  0.00000000000E+00  0.34385879517E+02  0.34385879517E+02  0.00000000000E+00 0. -1.
         -1   -1    0    0    0  501 -0.00000000000E+00 -0.00000000000E+00 -0.71771752788E+03  0.71771752788E+03  0.00000000000E+00 0.  1.
         21    1    1    2  503  502 -0.22790550163E+02 -0.10441765544E+03 -0.66051628143E+02  0.12563945847E+03  0.00000000000E+00 0. -1.
         -1    1    1    2    0  503  0.22790550163E+02  0.10441765544E+03 -0.61728002023E+03  0.62646394893E+03  0.00000000000E+00 0.  1.
<mgrwt>
<rscale>  2 0.10687589E+03</rscale>
<asrwt>0</asrwt>
<pdfrwt beam="1">  1       21 0.52901357E-02 0.10687589E+03</pdfrwt>
<pdfrwt beam="2">  1       -1 0.11041807E+00 0.10687589E+03</pdfrwt>
<totfact> 0.18438991E+04</totfact>
</mgrwt>
</event>
<event>
 4    1  0.4926234E+003  0.1284417E+03  0.7546771E-02  0.1229786E+00
         21   -1    0    0  501  502  0.00000000000E+00  0.00000000000E+00  0.20982490166E+02  0.20982490166E+02  0.00000000000E+00 0. -1.
          2   -1    0    0  503    0 -0.00000000000E+00 -0.00000000000E+00 -0.12445553150E+04  0.12445553150E+04  0.00000000000E+00 0. -1.
         21    1    1    2  503  502  0.31522614500E+02 -0.12451347921E+03 -0.22779632351E+03  0.26151184818E+03  0.00000000000E+00 0. -1.
          2    1    1    2  501    0 -0.31522614500E+02  0.12451347921E+03 -0.99577650130E+03  0.10040259570E+04  0.00000000000E+00 0. -1.
<mgrwt>
<rscale>  2 0.12844174E+03</rscale>
<asrwt>0</asrwt>
<pdfrwt beam="1">  1       21 0.32280762E-02 0.12844174E+03</pdfrwt>
<pdfrwt beam="2">  1        2 0.19147000E+00 0.12844174E+03</pdfrwt>
<totfact> 0.13491016E+05</totfact>
</mgrwt>
</event>
<event>
 4    1  0.4926234E+003  0.1037437E+03  0.7546771E-02  0.1272615E+00
          1   -1    0    0  503    0 -0.00000000000E+00  0.00000000000E+00  0.13155905796E+04  0.13155905796E+04  0.00000000000E+00 0. -1.
         21   -1    0    0  501  502  0.00000000000E+00 -0.00000000000E+00 -0.33168180420E+02  0.33168180420E+02  0.00000000000E+00 0. -1.
         21    1    1    2  503  502  0.69540837249E+02 -0.76985829959E+02  0.55878550502E+02  0.11783530229E+03  0.00000000000E+00 0. -1.
          1    1    1    2  501    0 -0.69540837249E+02  0.76985829959E+02  0.12265438487E+04  0.12309234577E+04  0.00000000000E+00 0. -1.
<mgrwt>
<rscale>  2 0.10374366E+03</rscale>
<asrwt>0</asrwt>
<pdfrwt beam="2">  1       21 0.51027980E-02 0.10374366E+03</pdfrwt>
<pdfrwt beam="1">  1        1 0.20239851E+00 0.10374366E+03</pdfrwt>
<totfact> 0.28503246E+04</totfact>
</mgrwt>
</event>
<event>
 4    1  0.4926234E+003  0.1171217E+03  0.7546771E-02  0.1247922E+00
         21   -1    0    0  503  502  0.00000000000E+00  0.00000000000E+00  0.20974579737E+03  0.20974579737E+03  0.00000000000E+00 0.  1.
         -4   -1    0    0    0  501 -0.00000000000E+00 -0.00000000000E+00 -0.78576436071E+02  0.78576436071E+02  0.00000000000E+00 0. -1.
         21    1    1    2  503  501  0.11635028759E+03 -0.13420615936E+02  0.12461715117E+03  0.17101735795E+03  0.00000000000E+00 0.  1.
         -4    1    1    2    0  502 -0.11635028759E+03  0.13420615936E+02  0.65522101277E+01  0.11730487549E+03  0.00000000000E+00 0. -1.
<mgrwt>
<rscale>  2 0.11712174E+03</rscale>
<asrwt>0</asrwt>
<pdfrwt beam="1">  1       21 0.32268584E-01 0.11712174E+03</pdfrwt>
<pdfrwt beam="2">  1       -4 0.12088683E-01 0.11712174E+03</pdfrwt>
<totfact> 0.20427718E+04</totfact>
</mgrwt>
</event>
<event>
 4    1  0.4926234E+003  0.1276156E+03  0.7546771E-02  0.1231037E+00
          2   -1    0    0  503    0 -0.00000000000E+00  0.00000000000E+00  0.41671602761E+02  0.41671602761E+02  0.00000000000E+00 0. -1.
         21   -1    0    0  501  502  0.00000000000E+00 -0.00000000000E+00 -0.78964727464E+03  0.78964727464E+03  0.00000000000E+00 0. -1.
         21    1    1    2  503  502  0.88015376749E+02 -0.92406883007E+02 -0.66939305849E+03  0.68144904822E+03  0.00000000000E+00 0. -1.
          2    1    1    2  501    0 -0.88015376749E+02  0.92406883007E+02 -0.78582613395E+02  0.14986982918E+03  0.00000000000E+00 0. -1.
<mgrwt>
<rscale>  2 0.12761559E+03</rscale>
<asrwt>0</asrwt>
<pdfrwt beam="2">  1       21 0.12148419E+00 0.12761559E+03</pdfrwt>
<pdfrwt beam="1">  1        2 0.64110164E-02 0.12761559E+03</pdfrwt>
<totfact> 0.71016275E+03</totfact>
</mgrwt>
</event>
<event>
 4    1  0.4926234E+003  0.1011799E+03  0.7546771E-02  0.1277834E+00
          2   -1    0    0  502    0 -0.00000000000E+00  0.00000000000E+00  0.58067707345E+03  0.58067707345E+03  0.00000000000E+00 0. -1.
         21   -1    0    0  503  502  0.00000000000E+00 -0.00000000000E+00 -0.18873231215E+02  0.18873231215E+02  0.00000000000E+00 0. -1.
         21    1    1    2  503  501 -0.23158260989E+01  0.10115342407E+03  0.20396479008E+03  0.22768182590E+03  0.00000000000E+00 0. -1.
          2    1    1    2  501    0  0.23158260989E+01 -0.10115342407E+03  0.35783905215E+03  0.37186847877E+03  0.00000000000E+00 0. -1.
<mgrwt>
<rscale>  2 0.10117993E+03</rscale>
<asrwt>0</asrwt>
<pdfrwt beam="2">  1       21 0.29035745E-02 0.10117993E+03</pdfrwt>
<pdfrwt beam="1">  1        2 0.89334921E-01 0.10117993E+03</pdfrwt>
<totfact> 0.42457390E+05</totfact>
</mgrwt>
</event>
<event>
 4    1  0.4926234E+003  0.1047999E+03  0.7546771E-02  0.1270514E+00
         21   -1    0    0  501  502  0.00000000000E+00  0.00000000000E+00  0.12218834351E+03  0.12218834351E+03  0.00000000000E+00 0.  1.
          2   -1    0    0  503    0 -0.00000000000E+00 -0.00000000000E+00 -0.11190198584E+03  0.11190198584E+03  0.00000000000E+00 0. -1.
         21    1    1    2  503  502 -0.97073906418E+02  0.39492629662E+02  0.57059568497E+02  0.11932646589E+03  0.00000000000E+00 0.  1.
          2    1    1    2  501    0  0.97073906418E+02 -0.39492629662E+02 -0.46773210835E+02  0.11476386346E+03  0.00000000000E+00 0. -1.
<mgrwt>
<rscale>  2 0.10479986E+03</rscale>
<asrwt>0</asrwt>
<pdfrwt beam="1">  1       21 0.18798207E-01 0.10479986E+03</pdfrwt>
<pdfrwt beam="2">  1        2 0.17215690E-01 0.10479986E+03</pdfrwt>
<totfact> 0.10247154E+05</totfact>
</mgrwt>
</event>
<event>
 4    1  0.4926234E+003  0.1031724E+03  0.7546771E-02  0.1273763E+00
         21   -1    0    0  501  502  0.00000000000E+00  0.00000000000E+00  0.31072414576E+03  0.31072414576E+03  0.00000000000E+00 0.  1.
          2   -1    0    0  503    0 -0.00000000000E+00 -0.00000000000E+00 -0.72831765078E+03  0.72831765078E+03  0.00000000000E+00 0.  1.
         21    1    1    2  503  502  0.40481079386E+02 -0.94899032631E+02  0.29835887464E+03  0.31569377925E+03  0.00000000000E+00 0.  1.
          2    1    1    2  501    0 -0.40481079386E+02  0.94899032631E+02 -0.71595237965E+03  0.72334801729E+03  0.00000000000E+00 0.  1.
<mgrwt>
<rscale>  2 0.10317240E+03</rscale>
<asrwt>0</asrwt>
<pdfrwt beam="1">  1       21 0.47803715E-01 0.10317240E+03</pdfrwt>
<pdfrwt beam="2">  1        2 0.11204887E+00 0.10317240E+03</pdfrwt>
<totfact> 0.22220042E+03</totfact>
</mgrwt>
</event>
<event>
 4    1  0.4926234E+003  0.1576700E+03  0.7546771E-02  0.1191353E+00
          1   -1    0    0  503    0 -0.00000000000E+00  0.00000000000E+00  0.98587378702E+03  0.98587378702E+03  0.00000000000E+00 0.  1.
         21   -1    0    0  501  502  0.00000000000E+00 -0.00000000000E+00 -0.13464953640E+03  0.13464953640E+03  0.00000000000E+00 0. -1.
         21    1    1    2  503  502 -0.49442690811E+01 -0.15759242852E+03 -0.79471906563E+02  0.17656614414E+03  0.00000000000E+00 0. -1.
          1    1    1    2  501    0  0.49442690811E+01  0.15759242852E+03  0.93069615718E+03  0.94395717928E+03  0.00000000000E+00 0.  1.
<mgrwt>
<rscale>  2 0.15766997E+03</rscale>
<asrwt>0</asrwt>
<pdfrwt beam="2">  1       21 0.20715314E-01 0.15766997E+03</pdfrwt>
<pdfrwt beam="1">  1        1 0.15167289E+00 0.15766997E+03</pdfrwt>
<totfact> 0.40400954E+03</totfact>
</mgrwt>
</event>
<event>
 4    1  0.4926234E+003  0.1042302E+03  0.7546771E-02  0.1271644E+00
         21   -1    0    0  501  502  0.00000000000E+00  0.00000000000E+00  0.37073943431E+02  0.37073943431E+02  0.00000000000E+00 0. -1.
          1   -1    0    0  503    0 -0.00000000000E+00 -0.00000000000E+00 -0.35976045739E+03  0.35976045739E+03  0.00000000000E+00 0. -1.
         21    1    1    2  503  502  0.10394755248E+03 -0.76707106986E+01 -0.75891503821E+02  0.12893197362E+03  0.00000000000E+00 0. -1.
          1    1    1    2  501    0 -0.10394755248E+03  0.76707106986E+01 -0.24679501014E+03  0.26790242720E+03  0.00000000000E+00 0. -1.
<mgrwt>
<rscale>  2 0.10423019E+03</rscale>
<asrwt>0</asrwt>
<pdfrwt beam="1">  1       21 0.57036836E-02 0.10423019E+03</pdfrwt>
<pdfrwt beam="2">  1        1 0.55347763E-01 0.10423019E+03</pdfrwt>
<totfact> 0.15995738E+05</totfact>
</mgrwt>
</event>
<event>
 4    1  0.4926234E+003  0.1181084E+03  0.7546771E-02  0.1246251E+00
         21   -1    0    0  501  502  0.00000000000E+00  0.00000000000E+00  0.43823980641E+02  0.43823980641E+02  0.00000000000E+00 0. -1.
          2   -1    0    0  503    0 -0.00000000000E+00 -0.00000000000E+00 -0.39085584677E+03  0.39085584677E+03  0.00000000000E+00 0. -1.
         21    1    1    2  503  502  0.29063428415E+02  0.11447663737E+03 -0.26715118142E+03  0.29209473995E+03  0.00000000000E+00 0. -1.
          2    1    1    2  501    0 -0.29063428415E+02 -0.11447663737E+03 -0.79880684705E+02  0.14258508745E+03  0.00000000000E+00 0. -1.
<mgrwt>
<rscale>  2 0.11810835E+03</rscale>
<asrwt>0</asrwt>
<pdfrwt beam="1">  1       21 0.67421507E-02 0.11810835E+03</pdfrwt>
<pdfrwt beam="2">  1        2 0.60131670E-01 0.11810835E+03</pdfrwt>
<totfact> 0.16192595E+05</totfact>
</mgrwt>
</event>
<event>
 4    1  0.4926234E+003  0.1183401E+03  0.7546771E-02  0.1245861E+00
         21   -1    0    0  501  502  0.00000000000E+00  0.00000000000E+00  0.21827091921E+03  0.21827091921E+03  0.00000000000E+00 0. -1.
          1   -1    0    0  503    0 -0.00000000000E+00 -0.00000000000E+00 -0.35596940852E+03  0.35596940852E+03  0.00000000000E+00 0. -1.
         21    1    1    2  503  502 -0.11833994291E+03 -0.21246001681E+00  0.19111078243E+03  0.22478371468E+03  0.00000000000E+00 0. -1.
          1    1    1    2  501    0  0.11833994291E+03  0.21246001681E+00 -0.32880927174E+03  0.34945661305E+03  0.00000000000E+00 0. -1.
<mgrwt>
<rscale>  2 0.11834013E+03</rscale>
<asrwt>0</asrwt>
<pdfrwt beam="1">  1       21 0.33580142E-01 0.11834013E+03</pdfrwt>
<pdfrwt beam="2">  1        1 0.54764524E-01 0.11834013E+03</pdfrwt>
<totfact> 0.67373555E+03</totfact>
</mgrwt>
</event>
<event>
 4    1  0.4926234E+003  0.1825990E+03  0.7546771E-02  0.1165311E+00
          1   -1    0    0  503    0 -0.00000000000E+00  0.00000000000E+00  0.10227857649E+04  0.10227857649E+04  0.00000000000E+00 0. -1.
         21   -1    0    0  501  502  0.00000000000E+00 -0.00000000000E+00 -0.51109327575E+02  0.51109327575E+02  0.00000000000E+00 0. -1.
         21    1    1    2  503  502  0.14385352744E+03 -0.11246577338E+03  0.16270469750E+03  0.24457147448E+03  0.00000000000E+00 0. -1.
          1    1    1    2  501    0 -0.14385352744E+03  0.11246577338E+03  0.80897173987E+03  0.82932361804E+03  0.00000000000E+00 0. -1.
<mgrwt>
<rscale>  2 0.18259898E+03</rscale>
<asrwt>0</asrwt>
<pdfrwt beam="2">  1       21 0.78629742E-02 0.18259898E+03</pdfrwt>
<pdfrwt beam="1">  1        1 0.15735164E+00 0.18259898E+03</pdfrwt>
<totfact> 0.21424399E+04</totfact>
</mgrwt>
</event>
<event>
 4    1  0.4926234E+003  0.1255696E+03  0.7546771E-02  0.1234182E+00
          2   -1    0    0  502    0 -0.00000000000E+00  0.00000000000E+00  0.44328854474E+03  0.44328854474E+03  0.00000000000E+00 0. -1.
         21   -1    0    0  503  502  0.00000000000E+00 -0.00000000000E+00 -0.83777362285E+02  0.83777362285E+02  0.00000000000E+00 0. -1.
         21    1    1    2  503  501  0.72419556844E+02 -0.10258235838E+03 -0.20151725598E+02  0.12717635200E+03  0.00000000000E+00 0. -1.
          2    1    1    2  501    0 -0.72419556844E+02  0.10258235838E+03  0.37966290805E+03  0.39988955502E+03  0.00000000000E+00 0. -1.
<mgrwt>
<rscale>  2 0.12556963E+03</rscale>
<asrwt>0</asrwt>
<pdfrwt beam="2">  1       21 0.12888825E-01 0.12556963E+03</pdfrwt>
<pdfrwt beam="1">  1        2 0.68198236E-01 0.12556963E+03</pdfrwt>
<totfact> 0.45928840E+04</totfact>
</mgrwt>
</event>
<event>
 4    1  0.4926234E+003  0.1002260E+03  0.7546771E-02  0.1279821E+00
         21   -1    0    0  501  502  0.00000000000E+00  0.00000000000E+00  0.69102900282E+01  0.69102900282E+01  0.00000000000E+00 0.  1.
          1   -1    0    0  503    0 -0.00000000000E+00 -0.00000000000E+00 -0.14863346024E+04  0.14863346024E+04  0.00000000000E+00 0.  1.
         21    1    1    2  503  502 -0.96179358249E+02 -0.28191831951E+02 -0.85040336877E+03  0.85628916726E+03  0.00000000000E+00 0.  1.
          1    1    1    2  501    0  0.96179358249E+02  0.28191831951E+02 -0.62902094359E+03  0.63695572516E+03  0.00000000000E+00 0.  1.
<mgrwt>
<rscale>  2 0.10022599E+03</rscale>
<asrwt>0</asrwt>
<pdfrwt beam="1">  1       21 0.10631213E-02 0.10022599E+03</pdfrwt>
<pdfrwt beam="2">  1        1 0.22866691E+00 0.10022599E+03</pdfrwt>
<totfact> 0.27852983E+05</totfact>
</mgrwt>
</event>
<event>
 4    1  0.4926234E+003  0.1183777E+03  0.7546771E-02  0.1245798E+00
         21   -1    0    0  501  502  0.00000000000E+00  0.00000000000E+00  0.15421559548E+02  0.15421559548E+02  0.00000000000E+00 0.  1.
          2   -1    0    0  503    0 -0.00000000000E+00 -0.00000000000E+00 -0.25680998321E+04  0.25680998321E+04  0.00000000000E+00 0.  1.
         21    1    1    2  503  502 -0.91645644634E+02 -0.74928989053E+02 -0.23796436686E+03  0.26578246269E+03  0.00000000000E+00 0.  1.
          2    1    1    2  501    0  0.91645644634E+02  0.74928989053E+02 -0.23147139057E+04  0.23177389289E+04  0.00000000000E+00 0.  1.
<mgrwt>
<rscale>  2 0.11837769E+03</rscale>
<asrwt>0</asrwt>
<pdfrwt beam="1">  1       21 0.23725491E-02 0.11837769E+03</pdfrwt>
<pdfrwt beam="2">  1        2 0.39509204E+00 0.11837769E+03</pdfrwt>
<totfact> 0.45979279E+04</totfact>
</mgrwt>
</event>
<event>
 4    1  0.4926234E+003  0.1738632E+03  0.7546771E-02  0.1173878E+00
         -2   -1    0    0    0  501 -0.00000000000E+00  0.00000000000E+00  0.81071628208E+03  0.81071628208E+03  0.00000000000E+00 0. -1.
         21   -1    0    0  503  502  0.00000000000E+00 -0.00000000000E+00 -0.61222048293E+02  0.61222048293E+02  0.00000000000E+00 0. -1.
         21    1    1    2  503  501 -0.29341910580E+02 -0.17136941128E+03  0.10214611301E+03  0.20164883149E+03  0.00000000000E+00 0. -1.
         -2    1    1    2    0  502  0.29341910580E+02  0.17136941128E+03  0.64734812078E+03  0.67028949889E+03  0.00000000000E+00 0. -1.
<mgrwt>
<rscale>  2 0.17386323E+03</rscale>
<asrwt>0</asrwt>
<pdfrwt beam="2">  1       21 0.94187773E-02 0.17386323E+03</pdfrwt>
<pdfrwt beam="1">  1       -2 0.12472557E+00 0.17386323E+03</pdfrwt>
<totfact> 0.37625938E+03</totfact>
</mgrwt>
</event>
<event>
 4    1  0.4926234E+003  0.1028102E+03  0.7546771E-02  0.1274495E+00
         21   -1    0    0  503  502  0.00000000000E+00  0.00000000000E+00  0.76884416187E+03  0.76884416187E+03  0.00000000000E+00 0. -1.
          2   -1    0    0  502    0 -0.00000000000E+00 -0.00000000000E+00 -0.22529200025E+02  0.22529200025E+02  0.00000000000E+00 0. -1.
         21    1    1    2  503  501 -0.10077427092E+03 -0.20358640481E+02  0.62019336124E+03  0.62865708717E+03  0.00000000000E+00 0. -1.
          2    1    1    2  501    0  0.10077427092E+03  0.20358640481E+02  0.12612160061E+03  0.16271627473E+03  0.00000000000E+00 0. -1.
<mgrwt>
<rscale>  2 0.10281015E+03</rscale>
<asrwt>0</asrwt>
<pdfrwt beam="1">  1       21 0.11828370E+00 0.10281015E+03</pdfrwt>
<pdfrwt beam="2">  1        2 0.34660314E-02 0.10281015E+03</pdfrwt>
<totfact> 0.16978725E+04</totfact>
</mgrwt>
</event>
<event>
 4    1  0.4926234E+003  0.1698172E+03  0.7546771E-02  0.1178039E+00
         21   -1    0    0  501  502  0.00000000000E+00  0.00000000000E+00  0.98970320639E+02  0.98970320639E+02  0.00000000000E+00 0.  1.
          1   -1    0    0  503    0 -0.00000000000E+00 -0.00000000000E+00 -0.54867708681E+03  0.54867708681E+03  0.00000000000E+00 0.  1.
         21    1    1    2  503  502 -0.14750927911E+03 -0.84136146115E+02 -0.31009183304E+01  0.16984550097E+03  0.00000000000E+00 0.  1.
          1    1    1    2  501    0  0.14750927911E+03  0.84136146115E+02 -0.44660584784E+03  0.47780190648E+03  0.00000000000E+00 0.  1.
<mgrwt>
<rscale>  2 0.16981719E+03</rscale>
<asrwt>0</asrwt>
<pdfrwt beam="1">  1       21 0.15226204E-01 0.16981719E+03</pdfrwt>
<pdfrwt beam="2">  1        1 0.84411857E-01 0.16981719E+03</pdfrwt>
<totfact> 0.16894492E+04</totfact>
</mgrwt>
</event>
<event>
 4    1  0.4926234E+003  0.1325288E+03  0.7546771E-02  0.1223751E+00
          2   -1    0    0  503    0 -0.00000000000E+00  0.00000000000E+00  0.20666740681E+04  0.20666740681E+04  0.00000000000E+00 0. -1.
         21   -1    0    0  501  502  0.00000000000E+00 -0.00000000000E+00 -0.21754831963E+02  0.21754831963E+02  0.00000000000E+00 0. -1.
         21    1    1    2  503  502 -0.64207011968E+02  0.11593682684E+03  0.20733977097E+03  0.24607655075E+03  0.00000000000E+00 0. -1.
          2    1    1    2  501    0  0.64207011968E+02 -0.11593682684E+03  0.18375794651E+04  0.18423523493E+04  0.00000000000E+00 0. -1.
<mgrwt>
<rscale>  2 0.13252882E+03</rscale>
<asrwt>0</asrwt>
<pdfrwt beam="2">  1       21 0.33468989E-02 0.13252882E+03</pdfrwt>
<pdfrwt beam="1">  1        2 0.31794970E+00 0.13252882E+03</pdfrwt>
<totfact> 0.47668402E+04</totfact>
</mgrwt>
</event>
<event>
 4    1  0.4926234E+003  0.1258576E+03  0.7546771E-02  0.1233735E+00
         21   -1    0    0  501  502  0.00000000000E+00  0.00000000000E+00  0.15694514614E+03  0.15694514614E+03  0.00000000000E+00 0.  1.
          2   -1    0    0  503    0 -0.00000000000E+00 -0.00000000000E+00 -0.45051954435E+03  0.45051954435E+03  0.00000000000E+00 0. -1.
         21    1    1    2  503  502  0.81287756225E+02 -0.96085594893E+02  0.12076884114E+03  0.17442836309E+03  0.00000000000E+00 0.  1.
          2    1    1    2  501    0 -0.81287756225E+02  0.96085594893E+02 -0.41434323935E+03  0.43303632741E+03  0.00000000000E+00 0. -1.
<mgrwt>
<rscale>  2 0.12585762E+03</rscale>
<asrwt>0</asrwt>
<pdfrwt beam="1">  1       21 0.24145408E-01 0.12585762E+03</pdfrwt>
<pdfrwt beam="2">  1        2 0.69310697E-01 0.12585762E+03</pdfrwt>
<totfact> 0.14327368E+04</totfact>
</mgrwt>
</event>
<event>
 4    1  0.4926234E+003  0.1204631E+03  0.7546771E-02  0.1242335E+00
         21   -1    0    0  503  502  0.00000000000E+00  0.00000000000E+00  0.16641730088E+03  0.16641730088E+03  0.00000000000E+00 0. -1.
         -3   -1    0    0    0  501 -0.00000000000E+00 -0.00000000000E+00 -0.26083475169E+03  0.26083475169E+03  0.00000000000E+00 0. -1.
         21    1    1    2  503  501  0.11821925068E+03  0.23142375053E+02  0.12708890114E+03  0.17510839371E+03  0.00000000000E+00 0. -1.
         -3    1    1    2    0  502 -0.11821925068E+03 -0.23142375053E+02 -0.22150635194E+03  0.25214365886E+03  0.00000000000E+00 0. -1.
<mgrwt>
<rscale>  2 0.12046311E+03</rscale>
<asrwt>0</asrwt>
<pdfrwt beam="1">  1       21 0.25602662E-01 0.12046311E+03</pdfrwt>
<pdfrwt beam="2">  1       -3 0.40128423E-01 0.12046311E+03</pdfrwt>
<totfact> 0.43463851E+03</totfact>
</mgrwt>
</event>
<event>
 4    1  0.4926234E+003  0.2980957E+03  0.7546771E-02  0.1086196E+00
          2   -1    0    0  502    0 -0.00000000000E+00  0.00000000000E+00  0.11085845831E+04  0.11085845831E+04  0.00000000000E+00 0. -1.
         21   -1    0    0  503  502  0.00000000000E+00 -0.00000000000E+00 -0.17846943466E+03  0.17846943466E+03  0.00000000000E+00 0. -1.
         21    1    1    2  503  501 -0.28528691313E+03  0.86443052804E+02 -0.12569198719E+02  0.29836053515E+03  0.00000000000E+00 0. -1.
          2    1    1    2  501    0  0.28528691313E+03 -0.86443052804E+02  0.94268434712E+03  0.98869348258E+03  0.00000000000E+00 0. -1.
<mgrwt>
<rscale>  2 0.29809566E+03</rscale>
<asrwt>0</asrwt>
<pdfrwt beam="2">  1       21 0.27456837E-01 0.29809566E+03</pdfrwt>
<pdfrwt beam="1">  1        2 0.17055147E+00 0.29809566E+03</pdfrwt>
<totfact> 0.35038293E+03</totfact>
</mgrwt>
</event>
<event>
 4    1  0.4926234E+003  0.1332107E+03  0.7546771E-02  0.1222768E+00
         21   -1    0    0  503  502  0.00000000000E+00  0.00000000000E+00  0.37338342217E+02  0.37338342217E+02  0.00000000000E+00 0.  1.
          1   -1    0    0  502    0 -0.00000000000E+00 -0.00000000000E+00 -0.10731386671E+04  0.10731386671E+04  0.00000000000E+00 0.  1.
         21    1    1    2  503  501  0.76763860276E+01  0.13298934181E+03 -0.10346043525E+03  0.16866876889E+03  0.00000000000E+00 0.  1.
          1    1    1    2  501    0 -0.76763860276E+01 -0.13298934181E+03 -0.93233988967E+03  0.94180824047E+03  0.00000000000E+00 0.  1.
<mgrwt>
<rscale>  2 0.13321071E+03</rscale>
<asrwt>0</asrwt>
<pdfrwt beam="1">  1       21 0.57443597E-02 0.13321071E+03</pdfrwt>
<pdfrwt beam="2">  1        1 0.16509828E+00 0.13321071E+03</pdfrwt>
<totfact> 0.34027498E+04</totfact>
</mgrwt>
</event>
<event>
 4    1  0.4926234E+003  0.1015247E+03  0.7546771E-02  0.1277122E+00
         21   -1    0    0  503  502  0.00000000000E+00  0.00000000000E+00  0.25149732753E+03  0.25149732753E+03  0.00000000000E+00 0. -1.
         -2   -1    0    0    0  501 -0.00000000000E+00 -0.00000000000E+00 -0.11119492327E+03  0.11119492327E+03  0.00000000000E+00 0.  1.
         21    1    1    2  503  501 -0.78973531706E+02 -0.63800068714E+02  0.21425298717E+03  0.23708987745E+03  0.00000000000E+00 0. -1.
         -2    1    1    2    0  502  0.78973531706E+02  0.63800068714E+02 -0.73950582909E+02  0.12560237335E+03  0.00000000000E+00 0.  1.
<mgrwt>
<rscale>  2 0.10152471E+03</rscale>
<asrwt>0</asrwt>
<pdfrwt beam="1">  1       21 0.38691896E-01 0.10152471E+03</pdfrwt>
<pdfrwt beam="2">  1       -2 0.17106911E-01 0.10152471E+03</pdfrwt>
<totfact> 0.14022956E+04</totfact>
</mgrwt>
</event>
<event>
 4    1  0.4926234E+003  0.1843897E+03  0.7546771E-02  0.1163621E+00
         21   -1    0    0  503  502  0.00000000000E+00  0.00000000000E+00  0.90928823042E+02  0.90928823042E+02  0.00000000000E+00 0.  1.
          2   -1    0    0  502    0 -0.00000000000E+00 -0.00000000000E+00 -0.10710571462E+04  0.10710571462E+04  0.00000000000E+00 0. -1.
         21    1    1    2  503  501  0.15314189293E+03  0.10269915336E+03 -0.21331125865E+02  0.18561942895E+03  0.00000000000E+00 0.  1.
          2    1    1    2  501    0 -0.15314189293E+03 -0.10269915336E+03 -0.95879719726E+03  0.97636654026E+03  0.00000000000E+00 0. -1.
<mgrwt>
<rscale>  2 0.18438968E+03</rscale>
<asrwt>0</asrwt>
<pdfrwt beam="1">  1       21 0.13989049E-01 0.18438968E+03</pdfrwt>
<pdfrwt beam="2">  1        2 0.16477803E+00 0.18438968E+03</pdfrwt>
<totfact> 0.13514906E+04</totfact>
</mgrwt>
</event>
<event>
 4    1  0.4926234E+003  0.1338552E+03  0.7546771E-02  0.1221845E+00
          2   -1    0    0  503    0 -0.00000000000E+00  0.00000000000E+00  0.23833765214E+04  0.23833765214E+04  0.00000000000E+00 0.  1.
         21   -1    0    0  501  502  0.00000000000E+00 -0.00000000000E+00 -0.33413659247E+02  0.33413659247E+02  0.00000000000E+00 0. -1.
         21    1    1    2  503  502 -0.58759498029E+02 -0.12026854455E+03  0.11117155366E+03  0.17400090735E+03  0.00000000000E+00 0. -1.
          2    1    1    2  501    0  0.58759498029E+02  0.12026854455E+03  0.22387913085E+04  0.22427892733E+04  0.00000000000E+00 0.  1.
<mgrwt>
<rscale>  2 0.13385515E+03</rscale>
<asrwt>0</asrwt>
<pdfrwt beam="2">  1       21 0.51405648E-02 0.13385515E+03</pdfrwt>
<pdfrwt beam="1">  1        2 0.36667318E+00 0.13385515E+03</pdfrwt>
<totfact> 0.15968974E+04</totfact>
</mgrwt>
</event>
<event>
 4    1  0.4926234E+003  0.1054671E+03  0.7546771E-02  0.1269202E+00
          2   -1    0    0  503    0 -0.00000000000E+00  0.00000000000E+00  0.20724333111E+03  0.20724333111E+03  0.00000000000E+00 0. -1.
         21   -1    0    0  501  502  0.00000000000E+00 -0.00000000000E+00 -0.13878227270E+03  0.13878227270E+03  0.00000000000E+00 0. -1.
         21    1    1    2  503  502  0.36532278957E+02  0.98937853867E+02 -0.10125736144E+03  0.14620656476E+03  0.00000000000E+00 0. -1.
          2    1    1    2  501    0 -0.36532278957E+02 -0.98937853867E+02  0.16971841985E+03  0.19981903905E+03  0.00000000000E+00 0. -1.
<mgrwt>
<rscale>  2 0.10546709E+03</rscale>
<asrwt>0</asrwt>
<pdfrwt beam="2">  1       21 0.21351119E-01 0.10546709E+03</pdfrwt>
<pdfrwt beam="1">  1        2 0.31883589E-01 0.10546709E+03</pdfrwt>
<totfact> 0.41089394E+04</totfact>
</mgrwt>
</event>
<event>
 4    1  0.4926234E+003  0.1113378E+03  0.7546771E-02  0.1258112E+00
         -2   -1    0    0    0  501 -0.00000000000E+00  0.00000000000E+00  0.11091679413E+04  0.11091679413E+04  0.00000000000E+00 0. -1.
         21   -1    0    0  503  502  0.00000000000E+00 -0.00000000000E+00 -0.58814563732E+02  0.58814563732E+02  0.00000000000E+00 0.  1.
         21    1    1    2  503  501 -0.10492248691E+03  0.37247524357E+02 -0.40841153465E+00  0.11133855186E+03  0.00000000000E+00 0.  1.
         -2    1    1    2    0  502  0.10492248691E+03 -0.37247524357E+02  0.10507617891E+04  0.10566439532E+04  0.00000000000E+00 0. -1.
<mgrwt>
<rscale>  2 0.11133780E+03</rscale>
<asrwt>0</asrwt>
<pdfrwt beam="2">  1       21 0.90483952E-02 0.11133780E+03</pdfrwt>
<pdfrwt beam="1">  1       -2 0.17064121E+00 0.11133780E+03</pdfrwt>
<totfact> 0.18347876E+03</totfact>
</mgrwt>
</event>
<event>
 4    1  0.4926234E+003  0.1035993E+03  0.7546771E-02  0.1272904E+00
         -2   -1    0    0    0  501 -0.00000000000E+00  0.00000000000E+00  0.10637527518E+04  0.10637527518E+04  0.00000000000E+00 0. -1.
         21   -1    0    0  501  502  0.00000000000E+00 -0.00000000000E+00 -0.22506322924E+02  0.22506322924E+02  0.00000000000E+00 0. -1.
         21    1    1    2  503  502  0.73101398300E+02  0.73409741760E+02  0.11720526102E+03  0.15642850709E+03  0.00000000000E+00 0. -1.
         -2    1    1    2    0  503 -0.73101398300E+02 -0.73409741760E+02  0.92404116783E+03  0.92983056761E+03  0.00000000000E+00 0. -1.
<mgrwt>
<rscale>  2 0.10359925E+03</rscale>
<asrwt>0</asrwt>
<pdfrwt beam="2">  1       21 0.34625120E-02 0.10359925E+03</pdfrwt>
<pdfrwt beam="1">  1       -2 0.16365423E+00 0.10359925E+03</pdfrwt>
<totfact> 0.10314380E+04</totfact>
</mgrwt>
</event>
<event>
 4    1  0.4926234E+003  0.1166947E+03  0.7546771E-02  0.1248652E+00
         21   -1    0    0  501  502  0.00000000000E+00  0.00000000000E+00  0.64429475628E+03  0.64429475628E+03  0.00000000000E+00 0.  1.
          3   -1    0    0  503    0 -0.00000000000E+00 -0.00000000000E+00 -0.12251970891E+03  0.12251970891E+03  0.00000000000E+00 0. -1.
         21    1    1    2  503  502 -0.85225396001E+02  0.79713727347E+02  0.60965980924E+03  0.62072758070E+03  0.00000000000E+00 0.  1.
          3    1    1    2  501    0  0.85225396001E+02 -0.79713727347E+02 -0.87884761861E+02  0.14608688448E+03  0.00000000000E+00 0. -1.
<mgrwt>
<rscale>  2 0.11669467E+03</rscale>
<asrwt>0</asrwt>
<pdfrwt beam="1">  1       21 0.99122269E-01 0.11669467E+03</pdfrwt>
<pdfrwt beam="2">  1        3 0.18849186E-01 0.11669467E+03</pdfrwt>
<totfact> 0.10385438E+03</totfact>
</mgrwt>
</event>
<event>
 4    1  0.4926234E+003  0.1051599E+03  0.7546771E-02  0.1269805E+00
          2   -1    0    0  502    0 -0.00000000000E+00  0.00000000000E+00  0.16198447961E+04  0.16198447961E+04  0.00000000000E+00 0. -1.
         21   -1    0    0  503  502  0.00000000000E+00 -0.00000000000E+00 -0.30080752162E+02  0.30080752162E+02  0.00000000000E+00 0. -1.
         21    1    1    2  503  501 -0.48107164858E+02 -0.93510947119E+02  0.69549735821E+02  0.12607839741E+03  0.00000000000E+00 0. -1.
          2    1    1    2  501    0  0.48107164858E+02  0.93510947119E+02  0.15202143081E+04  0.15238471508E+04  0.00000000000E+00 0. -1.
<mgrwt>
<rscale>  2 0.10515986E+03</rscale>
<asrwt>0</asrwt>
<pdfrwt beam="2">  1       21 0.46278093E-02 0.10515986E+03</pdfrwt>
<pdfrwt beam="1">  1        2 0.24920682E+00 0.10515986E+03</pdfrwt>
<totfact> 0.47327732E+04</totfact>
</mgrwt>
</event>
<event>
 4    1  0.4926234E+003  0.1331103E+03  0.7546771E-02  0.1222912E+00
         21   -1    0    0  501  502  0.00000000000E+00  0.00000000000E+00  0.52060469517E+02  0.52060469517E+02  0.00000000000E+00 0. -1.
          3   -1    0    0  503    0 -0.00000000000E+00 -0.00000000000E+00 -0.76127051314E+03  0.76127051314E+03  0.00000000000E+00 0.  1.
         21    1    1    2  503  502  0.41645818190E+02  0.12642779401E+03 -0.52211822782E+02  0.14298404005E+03  0.00000000000E+00 0. -1.
          3    1    1    2  501    0 -0.41645818190E+02 -0.12642779401E+03 -0.65699822084E+03  0.67034694260E+03  0.00000000000E+00 0.  1.
<mgrwt>
<rscale>  2 0.13311033E+03</rscale>
<asrwt>0</asrwt>
<pdfrwt beam="1">  1       21 0.80093035E-02 0.13311033E+03</pdfrwt>
<pdfrwt beam="2">  1        3 0.11711853E+00 0.13311033E+03</pdfrwt>
<totfact> 0.36778106E+03</totfact>
</mgrwt>
</event>
<event>
 4    1  0.4926234E+003  0.1146054E+03  0.7546771E-02  0.1252271E+00
          2   -1    0    0  503    0 -0.00000000000E+00  0.00000000000E+00  0.25416425422E+04  0.25416425422E+04  0.00000000000E+00 0. -1.
         21   -1    0    0  501  502  0.00000000000E+00 -0.00000000000E+00 -0.62551878339E+01  0.62551878339E+01  0.00000000000E+00 0. -1.
         21    1    1    2  503  502 -0.64032048194E+02 -0.95048889869E+02  0.73650590601E+03  0.74536926704E+03  0.00000000000E+00 0. -1.
          2    1    1    2  501    0  0.64032048194E+02  0.95048889869E+02  0.17988814484E+04  0.18025284630E+04  0.00000000000E+00 0. -1.
<mgrwt>
<rscale>  2 0.11460539E+03</rscale>
<asrwt>0</asrwt>
<pdfrwt beam="2">  1       21 0.96233862E-03 0.11460539E+03</pdfrwt>
<pdfrwt beam="1">  1        2 0.39102110E+00 0.11460539E+03</pdfrwt>
<totfact> 0.20036401E+05</totfact>
</mgrwt>
</event>
<event>
 4    1  0.4926234E+003  0.1520893E+03  0.7546771E-02  0.1197929E+00
          2   -1    0    0  502    0 -0.00000000000E+00  0.00000000000E+00  0.98917016655E+03  0.98917016655E+03  0.00000000000E+00 0. -1.
         21   -1    0    0  503  502  0.00000000000E+00 -0.00000000000E+00 -0.28657965589E+02  0.28657965589E+02  0.00000000000E+00 0. -1.
         21    1    1    2  503  501 -0.63357553259E+02  0.13826419885E+03  0.26194630240E+03  0.30289772792E+03  0.00000000000E+00 0. -1.
          2    1    1    2  501    0  0.63357553259E+02 -0.13826419885E+03  0.69856589857E+03  0.71493040422E+03  0.00000000000E+00 0. -1.
<mgrwt>
<rscale>  2 0.15208934E+03</rscale>
<asrwt>0</asrwt>
<pdfrwt beam="2">  1       21 0.44089185E-02 0.15208934E+03</pdfrwt>
<pdfrwt beam="1">  1        2 0.15218000E+00 0.15208934E+03</pdfrwt>
<totfact> 0.11270631E+05</totfact>
</mgrwt>
</event>
<event>
 4    1  0.4926234E+003  0.1485266E+03  0.7546771E-02  0.1202295E+00
          2   -1    0    0  502    0 -0.00000000000E+00  0.00000000000E+00  0.15776790893E+04  0.15776790893E+04  0.00000000000E+00 0.  1.
         21   -1    0    0  503  502  0.00000000000E+00 -0.00000000000E+00 -0.20428479268E+02  0.20428479268E+02  0.00000000000E+00 0. -1.
         21    1    1    2  503  501  0.13856208164E+03  0.53485630830E+02  0.32977990291E+03  0.36168349082E+03  0.00000000000E+00 0. -1.
          2    1    1    2  501    0 -0.13856208164E+03 -0.53485630830E+02  0.12274707071E+04  0.12364240778E+04  0.00000000000E+00 0.  1.
<mgrwt>
<rscale>  2 0.14852664E+03</rscale>
<asrwt>0</asrwt>
<pdfrwt beam="2">  1       21 0.31428442E-02 0.14852664E+03</pdfrwt>
<pdfrwt beam="1">  1        2 0.24271976E+00 0.14852664E+03</pdfrwt>
<totfact> 0.93959262E+04</totfact>
</mgrwt>
</event>
<event>
 4    1  0.4926234E+003  0.1557310E+03  0.7546771E-02  0.1193602E+00
         21   -1    0    0  501  502  0.00000000000E+00  0.00000000000E+00  0.12425917824E+03  0.12425917824E+03  0.00000000000E+00 0.  1.
          1   -1    0    0  503    0 -0.00000000000E+00 -0.00000000000E+00 -0.28360365551E+03  0.28360365551E+03  0.00000000000E+00 0.  1.
         21    1    1    2  503  502  0.14509298492E+03  0.56570034888E+02  0.34202538880E+02  0.15944264419E+03  0.00000000000E+00 0.  1.
          1    1    1    2  501    0 -0.14509298492E+03 -0.56570034888E+02 -0.19354701615E+03  0.24842018956E+03  0.00000000000E+00 0.  1.
<mgrwt>
<rscale>  2 0.15573100E+03</rscale>
<asrwt>0</asrwt>
<pdfrwt beam="1">  1       21 0.19116797E-01 0.15573100E+03</pdfrwt>
<pdfrwt beam="2">  1        1 0.43631332E-01 0.15573100E+03</pdfrwt>
<totfact> 0.25864901E+04</totfact>
</mgrwt>
</event>
<event>
 4    1  0.4926234E+003  0.1763845E+03  0.7546771E-02  0.1171349E+00
          2   -1    0    0  502    0 -0.00000000000E+00  0.00000000000E+00  0.31188418817E+03  0.31188418817E+03  0.00000000000E+00 0.  1.
         21   -1    0    0  503  502  0.00000000000E+00 -0.00000000000E+00 -0.29542559845E+03  0.29542559845E+03  0.00000000000E+00 0.  1.
         21    1    1    2  503  501 -0.61155902133E+02 -0.16544318739E+03 -0.23889807079E+03  0.29695754048E+03  0.00000000000E+00 0.  1.
          2    1    1    2  501    0  0.61155902133E+02  0.16544318739E+03  0.25535666051E+03  0.31035224615E+03  0.00000000000E+00 0.  1.
<mgrwt>
<rscale>  2 0.17638450E+03</rscale>
<asrwt>0</asrwt>
<pdfrwt beam="2">  1       21 0.45450092E-01 0.17638450E+03</pdfrwt>
<pdfrwt beam="1">  1        2 0.47982183E-01 0.17638450E+03</pdfrwt>
<totfact> 0.60673684E+03</totfact>
</mgrwt>
</event>
<event>
 4    1  0.4926234E+003  0.1024921E+03  0.7546771E-02  0.1275141E+00
         21   -1    0    0  501  502  0.00000000000E+00  0.00000000000E+00  0.10403133653E+02  0.10403133653E+02  0.00000000000E+00 0.  1.
          3   -1    0    0  503    0 -0.00000000000E+00 -0.00000000000E+00 -0.13435585231E+04  0.13435585231E+04  0.00000000000E+00 0. -1.
         21    1    1    2  503  502  0.55401635475E+02  0.86228140422E+02 -0.32914088315E+03  0.34472939296E+03  0.00000000000E+00 0.  1.
          3    1    1    2  501    0 -0.55401635475E+02 -0.86228140422E+02 -0.10040145063E+04  0.10092322638E+04  0.00000000000E+00 0. -1.
<mgrwt>
<rscale>  2 0.10249211E+03</rscale>
<asrwt>0</asrwt>
<pdfrwt beam="1">  1       21 0.16004820E-02 0.10249211E+03</pdfrwt>
<pdfrwt beam="2">  1        3 0.20670132E+00 0.10249211E+03</pdfrwt>
<totfact> 0.12396781E+04</totfact>
</mgrwt>
</event>
<event>
 4    1  0.4926234E+003  0.1420710E+03  0.7546771E-02  0.1210569E+00
         21   -1    0    0  501  502  0.00000000000E+00  0.00000000000E+00  0.12950195754E+03  0.12950195754E+03  0.00000000000E+00 0. -1.
          2   -1    0    0  503    0 -0.00000000000E+00 -0.00000000000E+00 -0.27593675652E+03  0.27593675652E+03  0.00000000000E+00 0.  1.
         21    1    1    2  503  502 -0.91263437771E+02 -0.10888140084E+03  0.60509853914E+02  0.15442026079E+03  0.00000000000E+00 0. -1.
          2    1    1    2  501    0  0.91263437771E+02  0.10888140084E+03 -0.20694465290E+03  0.25101845327E+03  0.00000000000E+00 0.  1.
<mgrwt>
<rscale>  2 0.14207102E+03</rscale>
<asrwt>0</asrwt>
<pdfrwt beam="1">  1       21 0.19923378E-01 0.14207102E+03</pdfrwt>
<pdfrwt beam="2">  1        2 0.42451808E-01 0.14207102E+03</pdfrwt>
<totfact> 0.34522867E+04</totfact>
</mgrwt>
</event>
<event>
 4    1  0.4926234E+003  0.1030151E+03  0.7546771E-02  0.1274080E+00
         21   -1    0    0  501  502  0.00000000000E+00  0.00000000000E+00  0.33289738238E+02  0.33289738238E+02  0.00000000000E+00 0.  1.
          1   -1    0    0  503    0 -0.00000000000E+00 -0.00000000000E+00 -0.10581441037E+04  0.10581441037E+04  0.00000000000E+00 0.  1.
         21    1    1    2  503  502 -0.74254847242E+01  0.10274709752E+03 -0.56259848112E+02  0.11737663473E+03  0.00000000000E+00 0.  1.
          1    1    1    2  501    0  0.74254847242E+01 -0.10274709752E+03 -0.96859451731E+03  0.97405720717E+03  0.00000000000E+00 0.  1.
<mgrwt>
<rscale>  2 0.10301507E+03</rscale>
<asrwt>0</asrwt>
<pdfrwt beam="1">  1       21 0.51214980E-02 0.10301507E+03</pdfrwt>
<pdfrwt beam="2">  1        1 0.16279141E+00 0.10301507E+03</pdfrwt>
<totfact> 0.42406414E+04</totfact>
</mgrwt>
</event>
<event>
 4    1  0.4926234E+003  0.1045817E+03  0.7546771E-02  0.1270946E+00
          4   -1    0    0  503    0 -0.00000000000E+00  0.00000000000E+00  0.74341047731E+02  0.74341047731E+02  0.00000000000E+00 0.  1.
         21   -1    0    0  501  502  0.00000000000E+00 -0.00000000000E+00 -0.21266015519E+03  0.21266015519E+03  0.00000000000E+00 0. -1.
         21    1    1    2  503  502  0.75327355814E+02  0.72547386199E+02 -0.14882169273E+03  0.18189345784E+03  0.00000000000E+00 0. -1.
          4    1    1    2  501    0 -0.75327355814E+02 -0.72547386199E+02  0.10502585271E+02  0.10510774508E+03  0.00000000000E+00 0.  1.
<mgrwt>
<rscale>  2 0.10458171E+03</rscale>
<asrwt>0</asrwt>
<pdfrwt beam="2">  1       21 0.32716947E-01 0.10458171E+03</pdfrwt>
<pdfrwt beam="1">  1        4 0.11437084E-01 0.10458171E+03</pdfrwt>
<totfact> 0.21596273E+04</totfact>
</mgrwt>
</event>
<event>
 4    1  0.4926234E+003  0.1133338E+03  0.7546771E-02  0.1254518E+00
         21   -1    0    0  501  502  0.00000000000E+00  0.00000000000E+00  0.14716250075E+03  0.14716250075E+03  0.00000000000E+00 0.  1.
          2   -1    0    0  503    0 -0.00000000000E+00 -0.00000000000E+00 -0.16975618167E+03  0.16975618167E+03  0.00000000000E+00 0.  1.
         21    1    1    2  503  502 -0.90582669065E+02  0.68112583267E+02  0.99153161161E+02  0.15058516960E+03  0.00000000000E+00 0.  1.
          2    1    1    2  501    0  0.90582669065E+02 -0.68112583267E+02 -0.12174684208E+03  0.16633351283E+03  0.00000000000E+00 0.  1.
<mgrwt>
<rscale>  2 0.11333377E+03</rscale>
<asrwt>0</asrwt>
<pdfrwt beam="1">  1       21 0.22640385E-01 0.11333377E+03</pdfrwt>
<pdfrwt beam="2">  1        2 0.26116336E-01 0.11333377E+03</pdfrwt>
<totfact> 0.45762701E+04</totfact>
</mgrwt>
</event>
<event>
 4    1  0.4926234E+003  0.1004501E+03  0.7546771E-02  0.1279352E+00
          2   -1    0    0  503    0 -0.00000000000E+00  0.00000000000E+00  0.40236469216E+03  0.40236469216E+03  0.00000000000E+00 0.  1.
         21   -1    0    0  501  502  0.00000000000E+00 -0.00000000000E+00 -0.68052825779E+02  0.68052825779E+02  0.00000000000E+00 0. -1.
         21    1    1    2  503  502  0.99491110408E+02  0.13847254189E+02 -0.19757672412E+02  0.10237476798E+03  0.00000000000E+00 0. -1.
          2    1    1    2  501    0 -0.99491110408E+02 -0.13847254189E+02  0.35406953879E+03  0.36804274996E+03  0.00000000000E+00 0.  1.
<mgrwt>
<rscale>  2 0.10045012E+03</rscale>
<asrwt>0</asrwt>
<pdfrwt beam="2">  1       21 0.10469666E-01 0.10045012E+03</pdfrwt>
<pdfrwt beam="1">  1        2 0.61902259E-01 0.10045012E+03</pdfrwt>
<totfact> 0.73164352E+04</totfact>
</mgrwt>
</event>
<event>
 4    1  0.4926234E+003  0.1027564E+03  0.7546771E-02  0.1274604E+00
         21   -1    0    0  501  502  0.00000000000E+00  0.00000000000E+00  0.12836992792E+03  0.12836992792E+03  0.00000000000E+00 0.  1.
          3   -1    0    0  503    0 -0.00000000000E+00 -0.00000000000E+00 -0.21625575120E+03  0.21625575120E+03  0.00000000000E+00 0.  1.
         21    1    1    2  503  502 -0.47752037043E+01 -0.10264543108E+03  0.91697691343E+02  0.13772201599E+03  0.00000000000E+00 0.  1.
          3    1    1    2  501    0  0.47752037043E+01  0.10264543108E+03 -0.17958351462E+03  0.20690366312E+03  0.00000000000E+00 0.  1.
<mgrwt>
<rscale>  2 0.10275645E+03</rscale>
<asrwt>0</asrwt>
<pdfrwt beam="1">  1       21 0.19749220E-01 0.10275645E+03</pdfrwt>
<pdfrwt beam="2">  1        3 0.33270115E-01 0.10275645E+03</pdfrwt>
<totfact> 0.99651796E+03</totfact>
</mgrwt>
</event>
<event>
 4    1  0.4926234E+003  0.1095122E+03  0.7546771E-02  0.1261476E+00
          2   -1    0    0  502    0 -0.00000000000E+00  0.00000000000E+00  0.10649318940E+04  0.10649318940E+04  0.00000000000E+00 0.  1.
         21   -1    0    0  503  502  0.00000000000E+00 -0.00000000000E+00 -0.76112800941E+02  0.76112800941E+02  0.00000000000E+00 0.  1.
         21    1    1    2  503  501 -0.10767384047E+03 -0.19981809056E+02 -0.32216738475E+02  0.11415273476E+03  0.00000000000E+00 0.  1.
          2    1    1    2  501    0  0.10767384047E+03  0.19981809056E+02  0.10210358315E+04  0.10268919601E+04  0.00000000000E+00 0.  1.
<mgrwt>
<rscale>  2 0.10951223E+03</rscale>
<asrwt>0</asrwt>
<pdfrwt beam="2">  1       21 0.11709662E-01 0.10951223E+03</pdfrwt>
<pdfrwt beam="1">  1        2 0.16383567E+00 0.10951223E+03</pdfrwt>
<totfact> 0.19106293E+04</totfact>
</mgrwt>
</event>
<event>
 4    1  0.4926234E+003  0.1288553E+03  0.7546771E-02  0.1229164E+00
         21   -1    0    0  501  502  0.00000000000E+00  0.00000000000E+00  0.14532548406E+04  0.14532548406E+04  0.00000000000E+00 0. -1.
         -1   -1    0    0    0  501 -0.00000000000E+00 -0.00000000000E+00 -0.43602597243E+02  0.43602597243E+02  0.00000000000E+00 0.  1.
         21    1    1    2  503  502  0.11044223514E+03 -0.66379157440E+02  0.13477653732E+04  0.13539110683E+04  0.00000000000E+00 0. -1.
         -1    1    1    2    0  503 -0.11044223514E+03  0.66379157440E+02  0.61886870140E+02  0.14294636946E+03  0.00000000000E+00 0.  1.
<mgrwt>
<rscale>  2 0.12885527E+03</rscale>
<asrwt>0</asrwt>
<pdfrwt beam="1">  1       21 0.22357763E+00 0.12885527E+03</pdfrwt>
<pdfrwt beam="2">  1       -1 0.67080930E-02 0.12885527E+03</pdfrwt>
<totfact> 0.10035482E+03</totfact>
</mgrwt>
</event>
<event>
 4    1  0.4926234E+003  0.1005430E+03  0.7546771E-02  0.1279158E+00
          1   -1    0    0  503    0 -0.00000000000E+00  0.00000000000E+00  0.17707694837E+03  0.17707694837E+03  0.00000000000E+00 0. -1.
         21   -1    0    0  501  502  0.00000000000E+00 -0.00000000000E+00 -0.78943238266E+02  0.78943238266E+02  0.00000000000E+00 0. -1.
         21    1    1    2  503  502 -0.81473894602E+01 -0.10021234271E+03 -0.18287974292E+02  0.10219267875E+03  0.00000000000E+00 0. -1.
          1    1    1    2  501    0  0.81473894602E+01  0.10021234271E+03  0.11642168439E+03  0.15382750789E+03  0.00000000000E+00 0. -1.
<mgrwt>
<rscale>  2 0.10054299E+03</rscale>
<asrwt>0</asrwt>
<pdfrwt beam="2">  1       21 0.12145114E-01 0.10054299E+03</pdfrwt>
<pdfrwt beam="1">  1        1 0.27242607E-01 0.10054299E+03</pdfrwt>
<totfact> 0.10405232E+05</totfact>
</mgrwt>
</event>
<event>
 4    1  0.4926234E+003  0.1056107E+03  0.7546771E-02  0.1268921E+00
         21   -1    0    0  501  502  0.00000000000E+00  0.00000000000E+00  0.80147612713E+01  0.80147612713E+01  0.00000000000E+00 0. -1.
          2   -1    0    0  503    0 -0.00000000000E+00 -0.00000000000E+00 -0.17169084990E+04  0.17169084990E+04  0.00000000000E+00 0. -1.
         21    1    1    2  503  502  0.10401072380E+03 -0.18313485201E+02 -0.47904951579E+03  0.49055280346E+03  0.00000000000E+00 0. -1.
          2    1    1    2  501    0 -0.10401072380E+03  0.18313485201E+02 -0.12298442219E+04  0.12343704568E+04  0.00000000000E+00 0. -1.
<mgrwt>
<rscale>  2 0.10561067E+03</rscale>
<asrwt>0</asrwt>
<pdfrwt beam="1">  1       21 0.12330398E-02 0.10561067E+03</pdfrwt>
<pdfrwt beam="2">  1        2 0.26413985E+00 0.10561067E+03</pdfrwt>
<totfact> 0.35936203E+05</totfact>
</mgrwt>
</event>
<event>
 4    1  0.4926234E+003  0.1099053E+03  0.7546771E-02  0.1260745E+00
         -3   -1    0    0    0  501 -0.00000000000E+00  0.00000000000E+00  0.18926761245E+03  0.18926761245E+03  0.00000000000E+00 0.  1.
         21   -1    0    0  503  502  0.00000000000E+00 -0.00000000000E+00 -0.10130208691E+03  0.10130208691E+03  0.00000000000E+00 0. -1.
         21    1    1    2  503  501  0.85975376848E+02  0.68464716249E+02 -0.44390161356E+02  0.11853130059E+03  0.00000000000E+00 0. -1.
         -3    1    1    2    0  502 -0.85975376848E+02 -0.68464716249E+02  0.13235568690E+03  0.17203839877E+03  0.00000000000E+00 0.  1.
<mgrwt>
<rscale>  2 0.10990534E+03</rscale>
<asrwt>0</asrwt>
<pdfrwt beam="2">  1       21 0.15584936E-01 0.10990534E+03</pdfrwt>
<pdfrwt beam="1">  1       -3 0.29118094E-01 0.10990534E+03</pdfrwt>
<totfact> 0.19706413E+04</totfact>
</mgrwt>
</event>
<event>
 4    1  0.4926234E+003  0.1189886E+03  0.7546771E-02  0.1244775E+00
          2   -1    0    0  502    0 -0.00000000000E+00  0.00000000000E+00  0.27046586806E+03  0.27046586806E+03  0.00000000000E+00 0.  1.
         21   -1    0    0  503  502  0.00000000000E+00 -0.00000000000E+00 -0.54064676673E+02  0.54064676673E+02  0.00000000000E+00 0. -1.
         21    1    1    2  503  501 -0.86382427501E+02 -0.81831313544E+02  0.13711677472E+03  0.18154695692E+03  0.00000000000E+00 0. -1.
          2    1    1    2  501    0  0.86382427501E+02  0.81831313544E+02  0.79284416664E+02  0.14298358781E+03  0.00000000000E+00 0.  1.
<mgrwt>
<rscale>  2 0.11898860E+03</rscale>
<asrwt>0</asrwt>
<pdfrwt beam="2">  1       21 0.83176427E-02 0.11898860E+03</pdfrwt>
<pdfrwt beam="1">  1        2 0.41610133E-01 0.11898860E+03</pdfrwt>
<totfact> 0.16676430E+05</totfact>
</mgrwt>
</event>
<event>
 4    1  0.4926234E+003  0.1106879E+03  0.7546771E-02  0.1259301E+00
         21   -1    0    0  501  502  0.00000000000E+00  0.00000000000E+00  0.18378835818E+03  0.18378835818E+03  0.00000000000E+00 0.  1.
          2   -1    0    0  503    0 -0.00000000000E+00 -0.00000000000E+00 -0.11899843412E+04  0.11899843412E+04  0.00000000000E+00 0.  1.
         21    1    1    2  503  502  0.67766605217E+02  0.87518522121E+02  0.16427150177E+03  0.19808314111E+03  0.00000000000E+00 0.  1.
          2    1    1    2  501    0 -0.67766605217E+02 -0.87518522121E+02 -0.11704674848E+04  0.11756895583E+04  0.00000000000E+00 0.  1.
<mgrwt>
<rscale>  2 0.11068787E+03</rscale>
<asrwt>0</asrwt>
<pdfrwt beam="1">  1       21 0.28275131E-01 0.11068787E+03</pdfrwt>
<pdfrwt beam="2">  1        2 0.18307452E+00 0.11068787E+03</pdfrwt>
<totfact> 0.32421451E+03</totfact>
</mgrwt>
</event>
<event>
 4    1  0.4926234E+003  0.1540913E+03  0.7546771E-02  0.1195534E+00
          4   -1    0    0  503    0 -0.00000000000E+00  0.00000000000E+00  0.16046869778E+04  0.16046869778E+04  0.00000000000E+00 0.  1.
         21   -1    0    0  501  502  0.00000000000E+00 -0.00000000000E+00 -0.21315090798E+03  0.21315090798E+03  0.00000000000E+00 0. -1.
         21    1    1    2  503  502  0.76135179106E+02 -0.13396850914E+03 -0.18103538022E+03  0.23773501179E+03  0.00000000000E+00 0. -1.
          4    1    1    2  501    0 -0.76135179106E+02  0.13396850914E+03  0.15725714500E+04  0.15801028740E+04  0.00000000000E+00 0.  1.
<mgrwt>
<rscale>  2 0.15409129E+03</rscale>
<asrwt>0</asrwt>
<pdfrwt beam="2">  1       21 0.32792448E-01 0.15409129E+03</pdfrwt>
<pdfrwt beam="1">  1        4 0.24687491E+00 0.15409129E+03</pdfrwt>
<totfact> 0.29052749E+01</totfact>
</mgrwt>
</event>
<event>
 4    1  0.4926234E+003  0.1687254E+03  0.7546771E-02  0.1179184E+00
         -2   -1    0    0    0  501 -0.00000000000E+00  0.00000000000E+00  0.16767772218E+03  0.16767772218E+03  0.00000000000E+00 0. -1.
         21   -1    0    0  503  502  0.00000000000E+00 -0.00000000000E+00 -0.45175482855E+03  0.45175482855E+03  0.00000000000E+00 0.  1.
         21    1    1    2  503  501 -0.10457683531E+03 -0.13240821214E+03 -0.38672963398E+03  0.42193371390E+03  0.00000000000E+00 0.  1.
         -2    1    1    2    0  502  0.10457683531E+03  0.13240821214E+03  0.10265252761E+03  0.19749883683E+03  0.00000000000E+00 0. -1.
<mgrwt>
<rscale>  2 0.16872537E+03</rscale>
<asrwt>0</asrwt>
<pdfrwt beam="2">  1       21 0.69500743E-01 0.16872537E+03</pdfrwt>
<pdfrwt beam="1">  1       -2 0.25796572E-01 0.16872537E+03</pdfrwt>
<totfact> 0.20389779E+03</totfact>
</mgrwt>
</event>
<event>
 4    1  0.4926234E+003  0.1360730E+03  0.7546771E-02  0.1218713E+00
         21   -1    0    0  501  502  0.00000000000E+00  0.00000000000E+00  0.13841142025E+03  0.13841142025E+03  0.00000000000E+00 0. -1.
          2   -1    0    0  503    0 -0.00000000000E+00 -0.00000000000E+00 -0.16173150681E+03  0.16173150681E+03  0.00000000000E+00 0. -1.
         21    1    1    2  503  502 -0.13607301917E+03  0.61024678980E-01  0.50734821273E+02  0.14522359436E+03  0.00000000000E+00 0. -1.
          2    1    1    2  501    0  0.13607301917E+03 -0.61024678980E-01 -0.74054907836E+02  0.15491933270E+03  0.00000000000E+00 0. -1.
<mgrwt>
<rscale>  2 0.13607303E+03</rscale>
<asrwt>0</asrwt>
<pdfrwt beam="1">  1       21 0.21294065E-01 0.13607303E+03</pdfrwt>
<pdfrwt beam="2">  1        2 0.24881770E-01 0.13607303E+03</pdfrwt>
<totfact> 0.54276961E+04</totfact>
</mgrwt>
</event>
<event>
 4    1  0.4926234E+003  0.1075528E+03  0.7546771E-02  0.1265170E+00
          2   -1    0    0  503    0 -0.00000000000E+00  0.00000000000E+00  0.24336786727E+04  0.24336786727E+04  0.00000000000E+00 0.  1.
         21   -1    0    0  501  502  0.00000000000E+00 -0.00000000000E+00 -0.14398407813E+02  0.14398407813E+02  0.00000000000E+00 0. -1.
         21    1    1    2  503  502  0.91582215228E+02 -0.56394104824E+02  0.20780750542E+03  0.23399050518E+03  0.00000000000E+00 0. -1.
          2    1    1    2  501    0 -0.91582215228E+02  0.56394104824E+02  0.22114727594E+04  0.22140865753E+04  0.00000000000E+00 0.  1.
<mgrwt>
<rscale>  2 0.10755276E+03</rscale>
<asrwt>0</asrwt>
<pdfrwt beam="2">  1       21 0.22151416E-02 0.10755276E+03</pdfrwt>
<pdfrwt beam="1">  1        2 0.37441178E+00 0.10755276E+03</pdfrwt>
<totfact> 0.60765674E+04</totfact>
</mgrwt>
</event>
<event>
 4    1  0.4926234E+003  0.1175284E+03  0.7546771E-02  0.1247231E+00
          2   -1    0    0  503    0 -0.00000000000E+00  0.00000000000E+00  0.36444448434E+03  0.36444448434E+03  0.00000000000E+00 0. -1.
         21   -1    0    0  501  502  0.00000000000E+00 -0.00000000000E+00 -0.19505628649E+03  0.19505628649E+03  0.00000000000E+00 0. -1.
         21    1    1    2  503  502  0.11193695428E+03  0.35819709418E+02 -0.16641054750E+03  0.20372875015E+03  0.00000000000E+00 0. -1.
          2    1    1    2  501    0 -0.11193695428E+03 -0.35819709418E+02  0.33579874535E+03  0.35577202068E+03  0.00000000000E+00 0. -1.
<mgrwt>
<rscale>  2 0.11752844E+03</rscale>
<asrwt>0</asrwt>
<pdfrwt beam="2">  1       21 0.30008659E-01 0.11752844E+03</pdfrwt>
<pdfrwt beam="1">  1        2 0.56068382E-01 0.11752844E+03</pdfrwt>
<totfact> 0.11898512E+04</totfact>
</mgrwt>
</event>
<event>
 4    1  0.4926234E+003  0.1383888E+03  0.7546771E-02  0.1215514E+00
         21   -1    0    0  501  502  0.00000000000E+00  0.00000000000E+00  0.18800763206E+03  0.18800763206E+03  0.00000000000E+00 0.  1.
          2   -1    0    0  503    0 -0.00000000000E+00 -0.00000000000E+00 -0.84125263605E+03  0.84125263605E+03  0.00000000000E+00 0. -1.
         21    1    1    2  503  502 -0.12126235708E+03  0.66685035020E+02  0.15584492571E+03  0.20842047407E+03  0.00000000000E+00 0.  1.
          2    1    1    2  501    0  0.12126235708E+03 -0.66685035020E+02 -0.80908992971E+03  0.82083979405E+03  0.00000000000E+00 0. -1.
<mgrwt>
<rscale>  2 0.13838878E+03</rscale>
<asrwt>0</asrwt>
<pdfrwt beam="1">  1       21 0.28924252E-01 0.13838878E+03</pdfrwt>
<pdfrwt beam="2">  1        2 0.12942348E+00 0.13838878E+03</pdfrwt>
<totfact> 0.49231953E+03</totfact>
</mgrwt>
</event>
<event>
 4    1  0.4926234E+003  0.1057914E+03  0.7546771E-02  0.1268568E+00
         -3   -1    0    0    0  501 -0.00000000000E+00  0.00000000000E+00  0.26173928470E+03  0.26173928470E+03  0.00000000000E+00 0.  1.
         21   -1    0    0  501  502  0.00000000000E+00 -0.00000000000E+00 -0.53798850515E+02  0.53798850515E+02  0.00000000000E+00 0. -1.
         21    1    1    2  503  502  0.85405209835E+02  0.62432085906E+02  0.32502640529E+02  0.11067175276E+03  0.00000000000E+00 0. -1.
         -3    1    1    2    0  503 -0.85405209835E+02 -0.62432085906E+02  0.17543779366E+03  0.20486638246E+03  0.00000000000E+00 0.  1.
<mgrwt>
<rscale>  2 0.10579138E+03</rscale>
<asrwt>0</asrwt>
<pdfrwt beam="2">  1       21 0.82767464E-02 0.10579138E+03</pdfrwt>
<pdfrwt beam="1">  1       -3 0.40267581E-01 0.10579138E+03</pdfrwt>
<totfact> 0.32529398E+04</totfact>
</mgrwt>
</event>
<event>
 4    1  0.4926234E+003  0.1114149E+03  0.7546771E-02  0.1257972E+00
         21   -1    0    0  501  502  0.00000000000E+00  0.00000000000E+00  0.24960733829E+02  0.24960733829E+02  0.00000000000E+00 0. -1.
         -1   -1    0    0    0  501 -0.00000000000E+00 -0.00000000000E+00 -0.81378726742E+03  0.81378726742E+03  0.00000000000E+00 0.  1.
         21    1    1    2  503  502 -0.10797379990E+03  0.27475963592E+02 -0.13288658017E+03  0.17341312877E+03  0.00000000000E+00 0. -1.
         -1    1    1    2    0  503  0.10797379990E+03 -0.27475963592E+02 -0.65593995342E+03  0.66533487248E+03  0.00000000000E+00 0.  1.
<mgrwt>
<rscale>  2 0.11141486E+03</rscale>
<asrwt>0</asrwt>
<pdfrwt beam="1">  1       21 0.38401132E-02 0.11141486E+03</pdfrwt>
<pdfrwt beam="2">  1       -1 0.12519803E+00 0.11141486E+03</pdfrwt>
<totfact> 0.23495969E+04</totfact>
</mgrwt>
</event>
<event>
 4    1  0.4926234E+003  0.1401811E+03  0.7546771E-02  0.1213086E+00
          2   -1    0    0  502    0 -0.00000000000E+00  0.00000000000E+00  0.10888767700E+04  0.10888767700E+04  0.00000000000E+00 0. -1.
         21   -1    0    0  503  502  0.00000000000E+00 -0.00000000000E+00 -0.38941404759E+03  0.38941404759E+03  0.00000000000E+00 0.  1.
         21    1    1    2  503  501 -0.84348351565E+02  0.11196467382E+03 -0.37208360196E+03  0.39761405840E+03  0.00000000000E+00 0.  1.
          2    1    1    2  501    0  0.84348351565E+02 -0.11196467382E+03  0.10715463243E+04  0.10806767592E+04  0.00000000000E+00 0. -1.
<mgrwt>
<rscale>  2 0.14018107E+03</rscale>
<asrwt>0</asrwt>
<pdfrwt beam="2">  1       21 0.59909854E-01 0.14018107E+03</pdfrwt>
<pdfrwt beam="1">  1        2 0.16751950E+00 0.14018107E+03</pdfrwt>
<totfact> 0.79865214E+02</totfact>
</mgrwt>
</event>
<event>
 4    1  0.4926234E+003  0.1114392E+03  0.7546771E-02  0.1257928E+00
         21   -1    0    0  503  502  0.00000000000E+00  0.00000000000E+00  0.42099733319E+01  0.42099733319E+01  0.00000000000E+00 0.  1.
          1   -1    0    0  502    0 -0.00000000000E+00 -0.00000000000E+00 -0.43149721924E+04  0.43149721924E+04  0.00000000000E+00 0.  1.
         21    1    1    2  503  501  0.80394304925E+02  0.77171602177E+02 -0.94067374179E+03  0.94725170305E+03  0.00000000000E+00 0.  1.
          1    1    1    2  501    0 -0.80394304925E+02 -0.77171602177E+02 -0.33700884773E+04  0.33719304627E+04  0.00000000000E+00 0.  1.
<mgrwt>
<rscale>  2 0.11143922E+03</rscale>
<asrwt>0</asrwt>
<pdfrwt beam="1">  1       21 0.64768815E-03 0.11143922E+03</pdfrwt>
<pdfrwt beam="2">  1        1 0.66384193E+00 0.11143922E+03</pdfrwt>
<totfact> 0.61746925E+03</totfact>
</mgrwt>
</event>
<event>
 4    1  0.4926234E+003  0.1107844E+03  0.7546771E-02  0.1259124E+00
          1   -1    0    0  503    0 -0.00000000000E+00  0.00000000000E+00  0.28069263063E+02  0.28069263063E+02  0.00000000000E+00 0. -1.
         21   -1    0    0  501  502  0.00000000000E+00 -0.00000000000E+00 -0.51278177580E+03  0.51278177580E+03  0.00000000000E+00 0. -1.
         21    1    1    2  503  502  0.89357439846E+02 -0.65486112129E+02 -0.34614654281E+03  0.36344272181E+03  0.00000000000E+00 0. -1.
          1    1    1    2  501    0 -0.89357439846E+02  0.65486112129E+02 -0.13856596993E+03  0.17740831705E+03  0.00000000000E+00 0. -1.
<mgrwt>
<rscale>  2 0.11078440E+03</rscale>
<asrwt>0</asrwt>
<pdfrwt beam="2">  1       21 0.78889507E-01 0.11078440E+03</pdfrwt>
<pdfrwt beam="1">  1        1 0.43183480E-02 0.11078440E+03</pdfrwt>
<totfact> 0.30355542E+04</totfact>
</mgrwt>
</event>
<event>
 4    1  0.4926234E+003  0.1076475E+03  0.7546771E-02  0.1264989E+00
          2   -1    0    0  503    0 -0.00000000000E+00  0.00000000000E+00  0.88265852865E+03  0.88265852865E+03  0.00000000000E+00 0.  1.
         21   -1    0    0  501  502  0.00000000000E+00 -0.00000000000E+00 -0.41549928306E+02  0.41549928306E+02  0.00000000000E+00 0.  1.
         21    1    1    2  503  502 -0.10487087566E+03 -0.24291465344E+02  0.38365628278E+02  0.11427990761E+03  0.00000000000E+00 0.  1.
          2    1    1    2  501    0  0.10487087566E+03  0.24291465344E+02  0.80274297207E+03  0.80992854935E+03  0.00000000000E+00 0.  1.
<mgrwt>
<rscale>  2 0.10764746E+03</rscale>
<asrwt>0</asrwt>
<pdfrwt beam="2">  1       21 0.63922973E-02 0.10764746E+03</pdfrwt>
<pdfrwt beam="1">  1        2 0.13579361E+00 0.10764746E+03</pdfrwt>
<totfact> 0.69880061E+04</totfact>
</mgrwt>
</event>
<event>
 4    1  0.4926234E+003  0.1093957E+03  0.7546771E-02  0.1261693E+00
          4   -1    0    0  503    0 -0.00000000000E+00  0.00000000000E+00  0.81066647561E+02  0.81066647561E+02  0.00000000000E+00 0.  1.
         21   -1    0    0  501  502  0.00000000000E+00 -0.00000000000E+00 -0.18507838179E+03  0.18507838179E+03  0.00000000000E+00 0.  1.
         21    1    1    2  503  502  0.97519918486E+02  0.49570993606E+02 -0.11186898341E+03  0.15646752813E+03  0.00000000000E+00 0.  1.
          4    1    1    2  501    0 -0.97519918486E+02 -0.49570993606E+02  0.78572491884E+01  0.10967750122E+03  0.00000000000E+00 0.  1.
<mgrwt>
<rscale>  2 0.10939569E+03</rscale>
<asrwt>0</asrwt>
<pdfrwt beam="2">  1       21 0.28473597E-01 0.10939569E+03</pdfrwt>
<pdfrwt beam="1">  1        4 0.12471792E-01 0.10939569E+03</pdfrwt>
<totfact> 0.24467683E+04</totfact>
</mgrwt>
</event>
<event>
 4    1  0.4926234E+003  0.1038635E+03  0.7546771E-02  0.1272375E+00
          2   -1    0    0  503    0 -0.00000000000E+00  0.00000000000E+00  0.17722776851E+04  0.17722776851E+04  0.00000000000E+00 0. -1.
         21   -1    0    0  501  502  0.00000000000E+00 -0.00000000000E+00 -0.13088293988E+02  0.13088293988E+02  0.00000000000E+00 0.  1.
         21    1    1    2  503  502  0.10329188978E+03 -0.10881919742E+02  0.22669147844E+03  0.24935247556E+03  0.00000000000E+00 0.  1.
          2    1    1    2  501    0 -0.10329188978E+03  0.10881919742E+02  0.15324979126E+04  0.15360135035E+04  0.00000000000E+00 0. -1.
<mgrwt>
<rscale>  2 0.10386352E+03</rscale>
<asrwt>0</asrwt>
<pdfrwt beam="2">  1       21 0.20135851E-02 0.10386352E+03</pdfrwt>
<pdfrwt beam="1">  1        2 0.27265792E+00 0.10386352E+03</pdfrwt>
<totfact> 0.15429211E+05</totfact>
</mgrwt>
</event>
<event>
 4    1  0.4926234E+003  0.1036369E+03  0.7546771E-02  0.1272829E+00
         -3   -1    0    0    0  501 -0.00000000000E+00  0.00000000000E+00  0.46865129127E+03  0.46865129127E+03  0.00000000000E+00 0.  1.
         21   -1    0    0  503  502  0.00000000000E+00 -0.00000000000E+00 -0.50426218910E+02  0.50426218910E+02  0.00000000000E+00 0.  1.
         21    1    1    2  503  501 -0.94728196559E+02 -0.42037829353E+02  0.17420425407E+02  0.10509082520E+03  0.00000000000E+00 0.  1.
         -3    1    1    2    0  502  0.94728196559E+02  0.42037829353E+02  0.40080464695E+03  0.41398668498E+03  0.00000000000E+00 0.  1.
<mgrwt>
<rscale>  2 0.10363692E+03</rscale>
<asrwt>0</asrwt>
<pdfrwt beam="2">  1       21 0.77578802E-02 0.10363692E+03</pdfrwt>
<pdfrwt beam="1">  1       -3 0.72100196E-01 0.10363692E+03</pdfrwt>
<totfact> 0.11238987E+04</totfact>
</mgrwt>
</event>
<event>
 4    1  0.4926234E+003  0.1488809E+03  0.7546771E-02  0.1201855E+00
          1   -1    0    0  503    0 -0.00000000000E+00  0.00000000000E+00  0.81154746232E+03  0.81154746232E+03  0.00000000000E+00 0. -1.
         21   -1    0    0  501  502  0.00000000000E+00 -0.00000000000E+00 -0.48087885829E+02  0.48087885829E+02  0.00000000000E+00 0.  1.
         21    1    1    2  503  502 -0.14123229042E+03  0.47105877002E+02  0.99216254042E+02  0.17891167813E+03  0.00000000000E+00 0.  1.
          1    1    1    2  501    0  0.14123229042E+03 -0.47105877002E+02  0.66424332245E+03  0.68072367002E+03  0.00000000000E+00 0. -1.
<mgrwt>
<rscale>  2 0.14888090E+03</rscale>
<asrwt>0</asrwt>
<pdfrwt beam="2">  1       21 0.73981369E-02 0.14888090E+03</pdfrwt>
<pdfrwt beam="1">  1        1 0.12485345E+00 0.14888090E+03</pdfrwt>
<totfact> 0.34778667E+04</totfact>
</mgrwt>
</event>
<event>
 4    1  0.4926234E+003  0.1159264E+03  0.7546771E-02  0.1249973E+00
         21   -1    0    0  503  502  0.00000000000E+00  0.00000000000E+00  0.17047652988E+02  0.17047652988E+02  0.00000000000E+00 0. -1.
          2   -1    0    0  502    0 -0.00000000000E+00 -0.00000000000E+00 -0.24389711375E+04  0.24389711375E+04  0.00000000000E+00 0. -1.
         21    1    1    2  503  501  0.11382946287E+03 -0.21949423598E+02 -0.20071690549E+03  0.23178912822E+03  0.00000000000E+00 0. -1.
          2    1    1    2  501    0 -0.11382946287E+03  0.21949423598E+02 -0.22212065790E+04  0.22242296623E+04  0.00000000000E+00 0. -1.
<mgrwt>
<rscale>  2 0.11592637E+03</rscale>
<asrwt>0</asrwt>
<pdfrwt beam="1">  1       21 0.26227178E-02 0.11592637E+03</pdfrwt>
<pdfrwt beam="2">  1        2 0.37522605E+00 0.11592637E+03</pdfrwt>
<totfact> 0.45796341E+04</totfact>
</mgrwt>
</event>
<event>
 4    1  0.4926234E+003  0.1020515E+03  0.7546771E-02  0.1276040E+00
          1   -1    0    0  503    0 -0.00000000000E+00  0.00000000000E+00  0.28505756652E+03  0.28505756652E+03  0.00000000000E+00 0.  1.
         21   -1    0    0  501  502  0.00000000000E+00 -0.00000000000E+00 -0.37965946951E+02  0.37965946951E+02  0.00000000000E+00 0. -1.
         21    1    1    2  503  502  0.62795069936E+02 -0.80444299474E+02  0.92187174733E+02  0.13752447532E+03  0.00000000000E+00 0. -1.
          1    1    1    2  501    0 -0.62795069936E+02  0.80444299474E+02  0.15490444484E+03  0.18549903816E+03  0.00000000000E+00 0.  1.
<mgrwt>
<rscale>  2 0.10205149E+03</rscale>
<asrwt>0</asrwt>
<pdfrwt beam="2">  1       21 0.58409151E-02 0.10205149E+03</pdfrwt>
<pdfrwt beam="1">  1        1 0.43855009E-01 0.10205149E+03</pdfrwt>
<totfact> 0.20439656E+05</totfact>
</mgrwt>
</event>
<event>
 4    1  0.4926234E+003  0.1302639E+03  0.7546771E-02  0.1227065E+00
         21   -1    0    0  501  502  0.00000000000E+00  0.00000000000E+00  0.14180990479E+03  0.14180990479E+03  0.00000000000E+00 0.  1.
          3   -1    0    0  503    0 -0.00000000000E+00 -0.00000000000E+00 -0.12011611492E+03  0.12011611492E+03  0.00000000000E+00 0. -1.
         21    1    1    2  503  502 -0.12874459694E+03  0.19837262140E+02  0.18934870556E+02  0.13163288925E+03  0.00000000000E+00 0.  1.
          3    1    1    2  501    0  0.12874459694E+03 -0.19837262140E+02  0.27589193060E+01  0.13029313046E+03  0.00000000000E+00 0. -1.
<mgrwt>
<rscale>  2 0.13026392E+03</rscale>
<asrwt>0</asrwt>
<pdfrwt beam="1">  1       21 0.21816908E-01 0.13026392E+03</pdfrwt>
<pdfrwt beam="2">  1        3 0.18479402E-01 0.13026392E+03</pdfrwt>
<totfact> 0.24300273E+04</totfact>
</mgrwt>
</event>
<event>
 4    1  0.4926234E+003  0.1229336E+03  0.7546771E-02  0.1238334E+00
         21   -1    0    0  501  502  0.00000000000E+00  0.00000000000E+00  0.33891789979E+02  0.33891789979E+02  0.00000000000E+00 0. -1.
          1   -1    0    0  503    0 -0.00000000000E+00 -0.00000000000E+00 -0.22124071464E+04  0.22124071464E+04  0.00000000000E+00 0.  1.
         21    1    1    2  503  502  0.41280136692E+02  0.11579562128E+03 -0.85655616434E+02  0.14983177307E+03  0.00000000000E+00 0. -1.
          1    1    1    2  501    0 -0.41280136692E+02 -0.11579562128E+03 -0.20928597400E+04  0.20964671633E+04  0.00000000000E+00 0.  1.
<mgrwt>
<rscale>  2 0.12293362E+03</rscale>
<asrwt>0</asrwt>
<pdfrwt beam="1">  1       21 0.52141197E-02 0.12293362E+03</pdfrwt>
<pdfrwt beam="2">  1        1 0.34037045E+00 0.12293362E+03</pdfrwt>
<totfact> 0.73075382E+03</totfact>
</mgrwt>
</event>
<event>
 4    1  0.4926234E+003  0.1129677E+03  0.7546771E-02  0.1255171E+00
         21   -1    0    0  501  502  0.00000000000E+00  0.00000000000E+00  0.70842166385E+02  0.70842166385E+02  0.00000000000E+00 0. -1.
          3   -1    0    0  503    0 -0.00000000000E+00 -0.00000000000E+00 -0.42424250308E+03  0.42424250308E+03  0.00000000000E+00 0. -1.
         21    1    1    2  503  502 -0.10905514970E+03 -0.29473119655E+02  0.11069836670E+02  0.11350872980E+03  0.00000000000E+00 0. -1.
          3    1    1    2  501    0  0.10905514970E+03  0.29473119655E+02 -0.36447017337E+03  0.38157593967E+03  0.00000000000E+00 0. -1.
<mgrwt>
<rscale>  2 0.11296765E+03</rscale>
<asrwt>0</asrwt>
<pdfrwt beam="1">  1       21 0.10898795E-01 0.11296765E+03</pdfrwt>
<pdfrwt beam="2">  1        3 0.65268078E-01 0.11296765E+03</pdfrwt>
<totfact> 0.77403932E+03</totfact>
</mgrwt>
</event>
<event>
 4    1  0.4926234E+003  0.1470339E+03  0.7546771E-02  0.1204166E+00
         21   -1    0    0  503  502  0.00000000000E+00  0.00000000000E+00  0.42651647128E+02  0.42651647128E+02  0.00000000000E+00 0. -1.
          2   -1    0    0  502    0 -0.00000000000E+00 -0.00000000000E+00 -0.97487168677E+03  0.97487168677E+03  0.00000000000E+00 0. -1.
         21    1    1    2  503  501  0.71327756046E+02  0.12857416712E+03 -0.11360686847E+03  0.18581034900E+03  0.00000000000E+00 0. -1.
          2    1    1    2  501    0 -0.71327756046E+02 -0.12857416712E+03 -0.81861317117E+03  0.83171298490E+03  0.00000000000E+00 0. -1.
<mgrwt>
<rscale>  2 0.14703389E+03</rscale>
<asrwt>0</asrwt>
<pdfrwt beam="1">  1       21 0.65617916E-02 0.14703389E+03</pdfrwt>
<pdfrwt beam="2">  1        2 0.14998026E+00 0.14703389E+03</pdfrwt>
<totfact> 0.58658369E+04</totfact>
</mgrwt>
</event>
<event>
 4    1  0.4926234E+003  0.2373751E+03  0.7546771E-02  0.1121554E+00
         21   -1    0    0  503  502  0.00000000000E+00  0.00000000000E+00  0.41645186491E+02  0.41645186491E+02  0.00000000000E+00 0. -1.
          2   -1    0    0  502    0 -0.00000000000E+00 -0.00000000000E+00 -0.14760167091E+04  0.14760167091E+04  0.00000000000E+00 0. -1.
         21    1    1    2  503  501  0.20711189545E+03 -0.11598101590E+03 -0.49813779226E+03  0.55180448835E+03  0.00000000000E+00 0. -1.
          2    1    1    2  501    0 -0.20711189545E+03  0.11598101590E+03 -0.93623373036E+03  0.96585740725E+03  0.00000000000E+00 0. -1.
<mgrwt>
<rscale>  2 0.23737509E+03</rscale>
<asrwt>0</asrwt>
<pdfrwt beam="1">  1       21 0.64069528E-02 0.23737509E+03</pdfrwt>
<pdfrwt beam="2">  1        2 0.22707946E+00 0.23737509E+03</pdfrwt>
<totfact> 0.31522815E+04</totfact>
</mgrwt>
</event>
<event>
 4    1  0.4926234E+003  0.1568028E+03  0.7546771E-02  0.1192354E+00
          1   -1    0    0  503    0 -0.00000000000E+00  0.00000000000E+00  0.27737968771E+03  0.27737968771E+03  0.00000000000E+00 0. -1.
         21   -1    0    0  501  502  0.00000000000E+00 -0.00000000000E+00 -0.99797140554E+02  0.99797140554E+02  0.00000000000E+00 0. -1.
         21    1    1    2  503  502  0.13439251927E+03  0.80782304689E+02  0.25736384466E+02  0.15890088568E+03  0.00000000000E+00 0. -1.
          1    1    1    2  501    0 -0.13439251927E+03 -0.80782304689E+02  0.15184616269E+03  0.21827594258E+03  0.00000000000E+00 0. -1.
<mgrwt>
<rscale>  2 0.15680284E+03</rscale>
<asrwt>0</asrwt>
<pdfrwt beam="2">  1       21 0.15353406E-01 0.15680284E+03</pdfrwt>
<pdfrwt beam="1">  1        1 0.42673798E-01 0.15680284E+03</pdfrwt>
<totfact> 0.39727853E+04</totfact>
</mgrwt>
</event>
<event>
 4    1  0.4926234E+003  0.1523173E+03  0.7546771E-02  0.1197654E+00
          4   -1    0    0  503    0 -0.00000000000E+00  0.00000000000E+00  0.97321685385E+03  0.97321685385E+03  0.00000000000E+00 0. -1.
         21   -1    0    0  501  502  0.00000000000E+00 -0.00000000000E+00 -0.19739978320E+03  0.19739978320E+03  0.00000000000E+00 0. -1.
         21    1    1    2  503  502  0.15229339344E+03  0.27003225417E+01 -0.16092051789E+03  0.22157613253E+03  0.00000000000E+00 0. -1.
          4    1    1    2  501    0 -0.15229339344E+03 -0.27003225417E+01  0.93673758855E+03  0.94904050452E+03  0.00000000000E+00 0. -1.
<mgrwt>
<rscale>  2 0.15231733E+03</rscale>
<asrwt>0</asrwt>
<pdfrwt beam="2">  1       21 0.30369198E-01 0.15231733E+03</pdfrwt>
<pdfrwt beam="1">  1        4 0.14972567E+00 0.15231733E+03</pdfrwt>
<totfact> 0.14063090E+02</totfact>
</mgrwt>
</event>
<event>
 4    1  0.4926234E+003  0.1054659E+03  0.7546771E-02  0.1269204E+00
          1   -1    0    0  502    0 -0.00000000000E+00  0.00000000000E+00  0.46147649498E+02  0.46147649498E+02  0.00000000000E+00 0.  1.
         21   -1    0    0  503  502  0.00000000000E+00 -0.00000000000E+00 -0.36645820396E+03  0.36645820396E+03  0.00000000000E+00 0.  1.
         21    1    1    2  503  501 -0.10329481353E+03 -0.21289428564E+02 -0.28084974902E+03  0.29999939966E+03  0.00000000000E+00 0.  1.
          1    1    1    2  501    0  0.10329481353E+03  0.21289428564E+02 -0.39460805442E+02  0.11260645380E+03  0.00000000000E+00 0.  1.
<mgrwt>
<rscale>  2 0.10546591E+03</rscale>
<asrwt>0</asrwt>
<pdfrwt beam="2">  1       21 0.56378188E-01 0.10546591E+03</pdfrwt>
<pdfrwt beam="1">  1        1 0.70996380E-02 0.10546591E+03</pdfrwt>
<totfact> 0.31905641E+04</totfact>
</mgrwt>
</event>
<event>
 4    1  0.4926234E+003  0.1038146E+03  0.7546771E-02  0.1272473E+00
          1   -1    0    0  503    0 -0.00000000000E+00  0.00000000000E+00  0.73158620411E+03  0.73158620411E+03  0.00000000000E+00 0.  1.
         21   -1    0    0  501  502  0.00000000000E+00 -0.00000000000E+00 -0.46785362922E+02  0.46785362922E+02  0.00000000000E+00 0. -1.
         21    1    1    2  503  502  0.10368849976E+03  0.51149576179E+01  0.20263000656E+02  0.10577361188E+03  0.00000000000E+00 0. -1.
          1    1    1    2  501    0 -0.10368849976E+03 -0.51149576179E+01  0.66453784054E+03  0.67259795516E+03  0.00000000000E+00 0.  1.
<mgrwt>
<rscale>  2 0.10381458E+03</rscale>
<asrwt>0</asrwt>
<pdfrwt beam="2">  1       21 0.71977487E-02 0.10381458E+03</pdfrwt>
<pdfrwt beam="1">  1        1 0.11255172E+00 0.10381458E+03</pdfrwt>
<totfact> 0.42543453E+04</totfact>
</mgrwt>
</event>
<event>
 4    1  0.4926234E+003  0.1048409E+03  0.7546771E-02  0.1270433E+00
          1   -1    0    0  502    0 -0.00000000000E+00  0.00000000000E+00  0.41004045286E+03  0.41004045286E+03  0.00000000000E+00 0. -1.
         21   -1    0    0  503  502  0.00000000000E+00 -0.00000000000E+00 -0.46905031521E+02  0.46905031521E+02  0.00000000000E+00 0.  1.
         21    1    1    2  503  501  0.10457475889E+03  0.74657713737E+01  0.32009484485E+02  0.10961854331E+03  0.00000000000E+00 0.  1.
          1    1    1    2  501    0 -0.10457475889E+03 -0.74657713737E+01  0.33112593685E+03  0.34732694107E+03  0.00000000000E+00 0. -1.
<mgrwt>
<rscale>  2 0.10484092E+03</rscale>
<asrwt>0</asrwt>
<pdfrwt beam="2">  1       21 0.72161590E-02 0.10484092E+03</pdfrwt>
<pdfrwt beam="1">  1        1 0.63083144E-01 0.10484092E+03</pdfrwt>
<totfact> 0.91295548E+04</totfact>
</mgrwt>
</event>
<event>
 4    1  0.4926234E+003  0.1046394E+03  0.7546771E-02  0.1270832E+00
          2   -1    0    0  503    0 -0.00000000000E+00  0.00000000000E+00  0.26699895973E+03  0.26699895973E+03  0.00000000000E+00 0.  1.
         21   -1    0    0  501  502  0.00000000000E+00 -0.00000000000E+00 -0.11463046584E+03  0.11463046584E+03  0.00000000000E+00 0.  1.
         21    1    1    2  503  502  0.73204080382E+01 -0.10438299248E+03 -0.76735527579E+02  0.12976031244E+03  0.00000000000E+00 0.  1.
          2    1    1    2  501    0 -0.73204080382E+01  0.10438299248E+03  0.22910402146E+03  0.25186911312E+03  0.00000000000E+00 0.  1.
<mgrwt>
<rscale>  2 0.10463937E+03</rscale>
<asrwt>0</asrwt>
<pdfrwt beam="2">  1       21 0.17635456E-01 0.10463937E+03</pdfrwt>
<pdfrwt beam="1">  1        2 0.41076763E-01 0.10463937E+03</pdfrwt>
<totfact> 0.44590258E+04</totfact>
</mgrwt>
</event>
<event>
 4    1  0.4926234E+003  0.1086266E+03  0.7546771E-02  0.1263135E+00
         21   -1    0    0  501  502  0.00000000000E+00  0.00000000000E+00  0.57763238282E+01  0.57763238282E+01  0.00000000000E+00 0.  1.
          2   -1    0    0  503    0 -0.00000000000E+00 -0.00000000000E+00 -0.21460497685E+04  0.21460497685E+04  0.00000000000E+00 0.  1.
         21    1    1    2  503  502  0.99657907529E+02 -0.43220733257E+02 -0.83411376624E+03  0.84115724175E+03  0.00000000000E+00 0.  1.
          2    1    1    2  501    0 -0.99657907529E+02  0.43220733257E+02 -0.13061596784E+04  0.13106688506E+04  0.00000000000E+00 0.  1.
<mgrwt>
<rscale>  2 0.10862656E+03</rscale>
<asrwt>0</asrwt>
<pdfrwt beam="1">  1       21 0.88866563E-03 0.10862656E+03</pdfrwt>
<pdfrwt beam="2">  1        2 0.33016135E+00 0.10862656E+03</pdfrwt>
<totfact> 0.36471899E+05</totfact>
</mgrwt>
</event>
<event>
 4    1  0.4926234E+003  0.1037617E+03  0.7546771E-02  0.1272579E+00
         21   -1    0    0  503  502  0.00000000000E+00  0.00000000000E+00  0.25881812432E+02  0.25881812432E+02  0.00000000000E+00 0. -1.
          2   -1    0    0  502    0 -0.00000000000E+00 -0.00000000000E+00 -0.74914905397E+03  0.74914905397E+03  0.00000000000E+00 0.  1.
         21    1    1    2  503  501  0.10302219159E+03 -0.12366098668E+02 -0.10320965857E+03  0.14635137847E+03  0.00000000000E+00 0. -1.
          2    1    1    2  501    0 -0.10302219159E+03  0.12366098668E+02 -0.62005758297E+03  0.62867948794E+03  0.00000000000E+00 0.  1.
<mgrwt>
<rscale>  2 0.10376171E+03</rscale>
<asrwt>0</asrwt>
<pdfrwt beam="1">  1       21 0.39818170E-02 0.10376171E+03</pdfrwt>
<pdfrwt beam="2">  1        2 0.11525371E+00 0.10376171E+03</pdfrwt>
<totfact> 0.18877558E+05</totfact>
</mgrwt>
</event>
<event>
 4    1  0.4926234E+003  0.1002672E+03  0.7546771E-02  0.1279735E+00
         21   -1    0    0  501  502  0.00000000000E+00  0.00000000000E+00  0.63453624369E+02  0.63453624369E+02  0.00000000000E+00 0.  1.
          2   -1    0    0  503    0 -0.00000000000E+00 -0.00000000000E+00 -0.24012910537E+03  0.24012910537E+03  0.00000000000E+00 0.  1.
         21    1    1    2  503  502  0.29067223348E+02 -0.95961443060E+02  0.19634668617E+00  0.10026734553E+03  0.00000000000E+00 0.  1.
          2    1    1    2  501    0 -0.29067223348E+02  0.95961443060E+02 -0.17687182769E+03  0.20331538421E+03  0.00000000000E+00 0.  1.
<mgrwt>
<rscale>  2 0.10026715E+03</rscale>
<asrwt>0</asrwt>
<pdfrwt beam="1">  1       21 0.97620962E-02 0.10026715E+03</pdfrwt>
<pdfrwt beam="2">  1        2 0.36942939E-01 0.10026715E+03</pdfrwt>
<totfact> 0.14217053E+05</totfact>
</mgrwt>
</event>
<event>
 4    1  0.4926234E+003  0.1069763E+03  0.7546771E-02  0.1266274E+00
         -1   -1    0    0    0  501 -0.00000000000E+00  0.00000000000E+00  0.41583190772E+03  0.41583190772E+03  0.00000000000E+00 0.  1.
         21   -1    0    0  503  502  0.00000000000E+00 -0.00000000000E+00 -0.12100383701E+03  0.12100383701E+03  0.00000000000E+00 0.  1.
         21    1    1    2  503  501  0.10477624207E+03 -0.21583732351E+02 -0.88513630161E+02  0.13884733029E+03  0.00000000000E+00 0.  1.
         -1    1    1    2    0  502 -0.10477624207E+03  0.21583732351E+02  0.38334170087E+03  0.39798841444E+03  0.00000000000E+00 0.  1.
<mgrwt>
<rscale>  2 0.10697625E+03</rscale>
<asrwt>0</asrwt>
<pdfrwt beam="2">  1       21 0.18615975E-01 0.10697625E+03</pdfrwt>
<pdfrwt beam="1">  1       -1 0.63974139E-01 0.10697625E+03</pdfrwt>
<totfact> 0.63749053E+03</totfact>
</mgrwt>
</event>
<event>
 4    1  0.4926234E+003  0.1120971E+03  0.7546771E-02  0.1256735E+00
         21   -1    0    0  501  502  0.00000000000E+00  0.00000000000E+00  0.12470428142E+02  0.12470428142E+02  0.00000000000E+00 0. -1.
          2   -1    0    0  503    0 -0.00000000000E+00 -0.00000000000E+00 -0.11846707800E+04  0.11846707800E+04  0.00000000000E+00 0.  1.
         21    1    1    2  503  502  0.11113501360E+03 -0.14654713247E+02 -0.35471472194E+03  0.37200576047E+03  0.00000000000E+00 0. -1.
          2    1    1    2  501    0 -0.11113501360E+03  0.14654713247E+02 -0.81748562990E+03  0.82513544765E+03  0.00000000000E+00 0.  1.
<mgrwt>
<rscale>  2 0.11209706E+03</rscale>
<asrwt>0</asrwt>
<pdfrwt beam="1">  1       21 0.19185268E-02 0.11209706E+03</pdfrwt>
<pdfrwt beam="2">  1        2 0.18225710E+00 0.11209706E+03</pdfrwt>
<totfact> 0.33772870E+05</totfact>
</mgrwt>
</event>
<event>
 4    1  0.4926234E+003  0.1090886E+03  0.7546771E-02  0.1262267E+00
          2   -1    0    0  503    0 -0.00000000000E+00  0.00000000000E+00  0.52971390773E+03  0.52971390773E+03  0.00000000000E+00 0. -1.
         21   -1    0    0  501  502  0.00000000000E+00 -0.00000000000E+00 -0.72675856371E+02  0.72675856371E+02  0.00000000000E+00 0.  1.
         21    1    1    2  503  502 -0.55170188275E+00  0.10908722341E+03 -0.21831693537E+02  0.11125173944E+03  0.00000000000E+00 0.  1.
          2    1    1    2  501    0  0.55170188275E+00 -0.10908722341E+03  0.47886974490E+03  0.49113802466E+03  0.00000000000E+00 0. -1.
<mgrwt>
<rscale>  2 0.10908862E+03</rscale>
<asrwt>0</asrwt>
<pdfrwt beam="2">  1       21 0.11180901E-01 0.10908862E+03</pdfrwt>
<pdfrwt beam="1">  1        2 0.81494445E-01 0.10908862E+03</pdfrwt>
<totfact> 0.48593443E+04</totfact>
</mgrwt>
</event>
<event>
 4    1  0.4926234E+003  0.1012062E+03  0.7546771E-02  0.1277780E+00
         -2   -1    0    0    0  501 -0.00000000000E+00  0.00000000000E+00  0.45809615385E+02  0.45809615385E+02  0.00000000000E+00 0. -1.
         21   -1    0    0  503  502  0.00000000000E+00 -0.00000000000E+00 -0.30362417030E+03  0.30362417030E+03  0.00000000000E+00 0.  1.
         21    1    1    2  503  501  0.31619528409E+02 -0.96139970452E+02 -0.21860833126E+03  0.24089892277E+03  0.00000000000E+00 0.  1.
         -2    1    1    2    0  502 -0.31619528409E+02  0.96139970452E+02 -0.39206223660E+02  0.10853486292E+03  0.00000000000E+00 0. -1.
<mgrwt>
<rscale>  2 0.10120617E+03</rscale>
<asrwt>0</asrwt>
<pdfrwt beam="2">  1       21 0.46711410E-01 0.10120617E+03</pdfrwt>
<pdfrwt beam="1">  1       -2 0.70476332E-02 0.10120617E+03</pdfrwt>
<totfact> 0.38900600E+04</totfact>
</mgrwt>
</event>
<event>
 4    1  0.4926234E+003  0.1036035E+03  0.7546771E-02  0.1272896E+00
         21   -1    0    0  503  502  0.00000000000E+00  0.00000000000E+00  0.12890444059E+03  0.12890444059E+03  0.00000000000E+00 0.  1.
          2   -1    0    0  502    0 -0.00000000000E+00 -0.00000000000E+00 -0.16298586246E+04  0.16298586246E+04  0.00000000000E+00 0. -1.
         21    1    1    2  503  501  0.10338260489E+03  0.67618945935E+01  0.10614640435E+03  0.14832648236E+03  0.00000000000E+00 0.  1.
          2    1    1    2  501    0 -0.10338260489E+03 -0.67618945935E+01 -0.16071005884E+04  0.16104365828E+04  0.00000000000E+00 0. -1.
<mgrwt>
<rscale>  2 0.10360350E+03</rscale>
<asrwt>0</asrwt>
<pdfrwt beam="1">  1       21 0.19831453E-01 0.10360350E+03</pdfrwt>
<pdfrwt beam="2">  1        2 0.25074747E+00 0.10360350E+03</pdfrwt>
<totfact> 0.37230187E+03</totfact>
</mgrwt>
</event>
<event>
 4    1  0.4926234E+003  0.1159700E+03  0.7546771E-02  0.1249897E+00
         21   -1    0    0  501  502  0.00000000000E+00  0.00000000000E+00  0.72255058250E+01  0.72255058250E+01  0.00000000000E+00 0.  1.
          1   -1    0    0  503    0 -0.00000000000E+00 -0.00000000000E+00 -0.25420340158E+04  0.25420340158E+04  0.00000000000E+00 0.  1.
         21    1    1    2  503  502  0.10949169813E+03  0.38217912927E+02 -0.60781591407E+03  0.61878043458E+03  0.00000000000E+00 0.  1.
          1    1    1    2  501    0 -0.10949169813E+03 -0.38217912927E+02 -0.19269925959E+04  0.19304790870E+04  0.00000000000E+00 0.  1.
<mgrwt>
<rscale>  2 0.11597000E+03</rscale>
<asrwt>0</asrwt>
<pdfrwt beam="1">  1       21 0.11116158E-02 0.11597000E+03</pdfrwt>
<pdfrwt beam="2">  1        1 0.39108233E+00 0.11597000E+03</pdfrwt>
<totfact> 0.55357687E+04</totfact>
</mgrwt>
</event>
<event>
 4    1  0.4926234E+003  0.1186155E+03  0.7546771E-02  0.1245399E+00
          1   -1    0    0  502    0 -0.00000000000E+00  0.00000000000E+00  0.16322461133E+04  0.16322461133E+04  0.00000000000E+00 0.  1.
         21   -1    0    0  503  502  0.00000000000E+00 -0.00000000000E+00 -0.33710229204E+02  0.33710229204E+02  0.00000000000E+00 0.  1.
         21    1    1    2  503  501  0.65681934848E+02 -0.98770065316E+02  0.80635574182E+02  0.14342851248E+03  0.00000000000E+00 0.  1.
          1    1    1    2  501    0 -0.65681934848E+02  0.98770065316E+02  0.15179003099E+04  0.15225278300E+04  0.00000000000E+00 0.  1.
<mgrwt>
<rscale>  2 0.11861552E+03</rscale>
<asrwt>0</asrwt>
<pdfrwt beam="2">  1       21 0.51861904E-02 0.11861552E+03</pdfrwt>
<pdfrwt beam="1">  1        1 0.25111473E+00 0.11861552E+03</pdfrwt>
<totfact> 0.17242708E+04</totfact>
</mgrwt>
</event>
<event>
 4    1  0.4926234E+003  0.1165869E+03  0.7546771E-02  0.1248836E+00
         -1   -1    0    0    0  501 -0.00000000000E+00  0.00000000000E+00  0.11247041007E+03  0.11247041007E+03  0.00000000000E+00 0. -1.
         21   -1    0    0  501  502  0.00000000000E+00 -0.00000000000E+00 -0.13557103446E+03  0.13557103446E+03  0.00000000000E+00 0. -1.
         21    1    1    2  503  502 -0.57859449135E+02 -0.10121660383E+03 -0.52412218040E+02  0.12782627799E+03  0.00000000000E+00 0. -1.
         -1    1    1    2    0  503  0.57859449135E+02  0.10121660383E+03  0.29311593649E+02  0.12021516654E+03  0.00000000000E+00 0. -1.
<mgrwt>
<rscale>  2 0.11658695E+03</rscale>
<asrwt>0</asrwt>
<pdfrwt beam="2">  1       21 0.20857082E-01 0.11658695E+03</pdfrwt>
<pdfrwt beam="1">  1       -1 0.17303140E-01 0.11658695E+03</pdfrwt>
<totfact> 0.48570534E+04</totfact>
</mgrwt>
</event>
<event>
 4    1  0.4926234E+003  0.1133809E+03  0.7546771E-02  0.1254434E+00
         -1   -1    0    0    0  501 -0.00000000000E+00  0.00000000000E+00  0.32356645108E+03  0.32356645108E+03  0.00000000000E+00 0.  1.
         21   -1    0    0  503  502  0.00000000000E+00 -0.00000000000E+00 -0.88105807356E+02  0.88105807356E+02  0.00000000000E+00 0. -1.
         21    1    1    2  503  501 -0.57562481935E+02 -0.97682127069E+02 -0.34792297119E+02  0.11859907763E+03  0.00000000000E+00 0. -1.
         -1    1    1    2    0  502  0.57562481935E+02  0.97682127069E+02  0.27025294085E+03  0.29307318081E+03  0.00000000000E+00 0.  1.
<mgrwt>
<rscale>  2 0.11338094E+03</rscale>
<asrwt>0</asrwt>
<pdfrwt beam="2">  1       21 0.13554740E-01 0.11338094E+03</pdfrwt>
<pdfrwt beam="1">  1       -1 0.49779454E-01 0.11338094E+03</pdfrwt>
<totfact> 0.18031798E+04</totfact>
</mgrwt>
</event>
<event>
 4    1  0.4926234E+003  0.1175378E+03  0.7546771E-02  0.1247215E+00
         21   -1    0    0  503  502  0.00000000000E+00  0.00000000000E+00  0.20705978016E+03  0.20705978016E+03  0.00000000000E+00 0.  1.
         -3   -1    0    0    0  501 -0.00000000000E+00 -0.00000000000E+00 -0.46006565651E+03  0.46006565651E+03  0.00000000000E+00 0.  1.
         21    1    1    2  503  501 -0.24191210793E+02  0.11502139539E+03  0.18192555330E+03  0.21659188124E+03  0.00000000000E+00 0.  1.
         -3    1    1    2    0  502  0.24191210793E+02 -0.11502139539E+03 -0.43493142965E+03  0.45053355543E+03  0.00000000000E+00 0.  1.
<mgrwt>
<rscale>  2 0.11753781E+03</rscale>
<asrwt>0</asrwt>
<pdfrwt beam="1">  1       21 0.31855351E-01 0.11753781E+03</pdfrwt>
<pdfrwt beam="2">  1       -3 0.70779331E-01 0.11753781E+03</pdfrwt>
<totfact> 0.91193970E+02</totfact>
</mgrwt>
</event>
<event>
 4    1  0.4926234E+003  0.1131552E+03  0.7546771E-02  0.1254836E+00
         21   -1    0    0  501  502  0.00000000000E+00  0.00000000000E+00  0.10281708649E+03  0.10281708649E+03  0.00000000000E+00 0.  1.
         -2   -1    0    0    0  501 -0.00000000000E+00 -0.00000000000E+00 -0.14531607071E+03  0.14531607071E+03  0.00000000000E+00 0.  1.
         21    1    1    2  503  502  0.10715693584E+03  0.36352327868E+02  0.25670165153E+02  0.11603041851E+03  0.00000000000E+00 0.  1.
         -2    1    1    2    0  503 -0.10715693584E+03 -0.36352327868E+02 -0.68169149372E+02  0.13210273868E+03  0.00000000000E+00 0.  1.
<mgrwt>
<rscale>  2 0.11315521E+03</rscale>
<asrwt>0</asrwt>
<pdfrwt beam="1">  1       21 0.15818013E-01 0.11315521E+03</pdfrwt>
<pdfrwt beam="2">  1       -2 0.22356319E-01 0.11315521E+03</pdfrwt>
<totfact> 0.48335552E+04</totfact>
</mgrwt>
</event>
<event>
 4    1  0.4926234E+003  0.1574320E+03  0.7546771E-02  0.1191627E+00
          1   -1    0    0  502    0 -0.00000000000E+00  0.00000000000E+00  0.14875197047E+04  0.14875197047E+04  0.00000000000E+00 0.  1.
         21   -1    0    0  503  502  0.00000000000E+00 -0.00000000000E+00 -0.36595213422E+03  0.36595213422E+03  0.00000000000E+00 0.  1.
         21    1    1    2  503  501  0.83375550757E+02  0.13354163233E+03 -0.34460914412E+03  0.37886714326E+03  0.00000000000E+00 0.  1.
          1    1    1    2  501    0 -0.83375550757E+02 -0.13354163233E+03  0.14661767146E+04  0.14746046957E+04  0.00000000000E+00 0.  1.
<mgrwt>
<rscale>  2 0.15743205E+03</rscale>
<asrwt>0</asrwt>
<pdfrwt beam="2">  1       21 0.56300329E-01 0.15743205E+03</pdfrwt>
<pdfrwt beam="1">  1        1 0.22884918E+00 0.15743205E+03</pdfrwt>
<totfact> 0.25367388E+02</totfact>
</mgrwt>
</event>
<event>
 4    1  0.4926234E+003  0.1022075E+03  0.7546771E-02  0.1275721E+00
         21   -1    0    0  503  502  0.00000000000E+00  0.00000000000E+00  0.19686151497E+03  0.19686151497E+03  0.00000000000E+00 0. -1.
          1   -1    0    0  502    0 -0.00000000000E+00 -0.00000000000E+00 -0.91400952321E+03  0.91400952321E+03  0.00000000000E+00 0.  1.
         21    1    1    2  503  501  0.37135976746E+02  0.95222338137E+02  0.18049700571E+03  0.20742599529E+03  0.00000000000E+00 0. -1.
          1    1    1    2  501    0 -0.37135976746E+02 -0.95222338137E+02 -0.89764501396E+03  0.90344504290E+03  0.00000000000E+00 0.  1.
<mgrwt>
<rscale>  2 0.10220751E+03</rscale>
<asrwt>0</asrwt>
<pdfrwt beam="1">  1       21 0.30286387E-01 0.10220751E+03</pdfrwt>
<pdfrwt beam="2">  1        1 0.14061685E+00 0.10220751E+03</pdfrwt>
<totfact> 0.23025991E+03</totfact>
</mgrwt>
</event>
<event>
 4    1  0.4926234E+003  0.1305419E+03  0.7546771E-02  0.1226654E+00
         21   -1    0    0  501  502  0.00000000000E+00  0.00000000000E+00  0.34896028707E+02  0.34896028707E+02  0.00000000000E+00 0.  1.
          4   -1    0    0  503    0 -0.00000000000E+00 -0.00000000000E+00 -0.51826974259E+03  0.51826974259E+03  0.00000000000E+00 0.  1.
         21    1    1    2  503  502  0.10957379958E+03 -0.70956113369E+02 -0.17522289894E+03  0.21850458094E+03  0.00000000000E+00 0.  1.
          4    1    1    2  501    0 -0.10957379958E+03  0.70956113369E+02 -0.30815081494E+03  0.33466119035E+03  0.00000000000E+00 0.  1.
<mgrwt>
<rscale>  2 0.13054190E+03</rscale>
<asrwt>0</asrwt>
<pdfrwt beam="1">  1       21 0.53686202E-02 0.13054190E+03</pdfrwt>
<pdfrwt beam="2">  1        4 0.79733800E-01 0.13054190E+03</pdfrwt>
<totfact> 0.13866550E+04</totfact>
</mgrwt>
</event>
<event>
 4    1  0.4926234E+003  0.2028910E+03  0.7546771E-02  0.1147323E+00
         21   -1    0    0  503  502  0.00000000000E+00  0.00000000000E+00  0.61010356590E+02  0.61010356590E+02  0.00000000000E+00 0.  1.
         -1   -1    0    0    0  501 -0.00000000000E+00 -0.00000000000E+00 -0.81081197455E+03  0.81081197455E+03  0.00000000000E+00 0.  1.
         21    1    1    2  503  501 -0.15581828720E+02  0.20229177244E+03 -0.19631037981E+03  0.28231634704E+03  0.00000000000E+00 0.  1.
         -1    1    1    2    0  502  0.15581828720E+02 -0.20229177244E+03 -0.55349123815E+03  0.58950598410E+03  0.00000000000E+00 0.  1.
<mgrwt>
<rscale>  2 0.20289099E+03</rscale>
<asrwt>0</asrwt>
<pdfrwt beam="1">  1       21 0.93862096E-02 0.20289099E+03</pdfrwt>
<pdfrwt beam="2">  1       -1 0.12474029E+00 0.20289099E+03</pdfrwt>
<totfact> 0.51425079E+03</totfact>
</mgrwt>
</event>
<event>
 4    1  0.4926234E+003  0.1031835E+03  0.7546771E-02  0.1273740E+00
          1   -1    0    0  503    0 -0.00000000000E+00  0.00000000000E+00  0.34521107846E+03  0.34521107846E+03  0.00000000000E+00 0.  1.
         21   -1    0    0  501  502  0.00000000000E+00 -0.00000000000E+00 -0.43332115666E+02  0.43332115666E+02  0.00000000000E+00 0.  1.
         21    1    1    2  503  502 -0.51365167358E+01 -0.10305561512E+03  0.46636799931E+02  0.11323354062E+03  0.00000000000E+00 0.  1.
          1    1    1    2  501    0  0.51365167358E+01  0.10305561512E+03  0.25524216286E+03  0.27530965351E+03  0.00000000000E+00 0.  1.
<mgrwt>
<rscale>  2 0.10318354E+03</rscale>
<asrwt>0</asrwt>
<pdfrwt beam="2">  1       21 0.66664796E-02 0.10318354E+03</pdfrwt>
<pdfrwt beam="1">  1        1 0.53109395E-01 0.10318354E+03</pdfrwt>
<totfact> 0.12928604E+05</totfact>
</mgrwt>
</event>
<event>
 4    1  0.4926234E+003  0.1065082E+03  0.7546771E-02  0.1267176E+00
          4   -1    0    0  503    0 -0.00000000000E+00  0.00000000000E+00  0.26942768239E+03  0.26942768239E+03  0.00000000000E+00 0. -1.
         21   -1    0    0  501  502  0.00000000000E+00 -0.00000000000E+00 -0.43244356486E+02  0.43244356486E+02  0.00000000000E+00 0. -1.
         21    1    1    2  503  502 -0.59063491403E+02  0.88631256308E+02  0.87704987321E+02  0.13797159277E+03  0.00000000000E+00 0. -1.
          4    1    1    2  501    0  0.59063491403E+02 -0.88631256308E+02  0.13847833858E+03  0.17470044610E+03  0.00000000000E+00 0. -1.
<mgrwt>
<rscale>  2 0.10650820E+03</rscale>
<asrwt>0</asrwt>
<pdfrwt beam="2">  1       21 0.66529781E-02 0.10650820E+03</pdfrwt>
<pdfrwt beam="1">  1        4 0.41450412E-01 0.10650820E+03</pdfrwt>
<totfact> 0.36760467E+04</totfact>
</mgrwt>
</event>
<event>
 4    1  0.4926234E+003  0.1039291E+03  0.7546771E-02  0.1272244E+00
         21   -1    0    0  503  502  0.00000000000E+00  0.00000000000E+00  0.69727614780E+03  0.69727614780E+03  0.00000000000E+00 0.  1.
          1   -1    0    0  502    0 -0.00000000000E+00 -0.00000000000E+00 -0.47011898360E+03  0.47011898360E+03  0.00000000000E+00 0. -1.
         21    1    1    2  503  501 -0.89037293297E+02  0.53606082411E+02  0.68757904594E+03  0.69538924070E+03  0.00000000000E+00 0.  1.
          1    1    1    2  501    0  0.89037293297E+02 -0.53606082411E+02 -0.46042188174E+03  0.47200589070E+03  0.00000000000E+00 0. -1.
<mgrwt>
<rscale>  2 0.10392907E+03</rscale>
<asrwt>0</asrwt>
<pdfrwt beam="1">  1       21 0.10727325E+00 0.10392907E+03</pdfrwt>
<pdfrwt beam="2">  1        1 0.72325997E-01 0.10392907E+03</pdfrwt>
<totfact> 0.40549061E+02</totfact>
</mgrwt>
</event>
<event>
 4    1  0.4926234E+003  0.1730516E+03  0.7546771E-02  0.1174702E+00
         -3   -1    0    0    0  501 -0.00000000000E+00  0.00000000000E+00  0.54266652921E+03  0.54266652921E+03  0.00000000000E+00 0. -1.
         21   -1    0    0  501  502  0.00000000000E+00 -0.00000000000E+00 -0.96972978261E+02  0.96972978261E+02  0.00000000000E+00 0. -1.
         21    1    1    2  503  502  0.17124066434E+03  0.24969636177E+02  0.12900798815E+02  0.17353177941E+03  0.00000000000E+00 0. -1.
         -3    1    1    2    0  503 -0.17124066434E+03 -0.24969636177E+02  0.43279275213E+03  0.46610772806E+03  0.00000000000E+00 0. -1.
<mgrwt>
<rscale>  2 0.17305158E+03</rscale>
<asrwt>0</asrwt>
<pdfrwt beam="2">  1       21 0.14918920E-01 0.17305158E+03</pdfrwt>
<pdfrwt beam="1">  1       -3 0.83487157E-01 0.17305158E+03</pdfrwt>
<totfact> 0.26530044E+03</totfact>
</mgrwt>
</event>
<event>
 4    1  0.4926234E+003  0.1006256E+03  0.7546771E-02  0.1278986E+00
         21   -1    0    0  501  502  0.00000000000E+00  0.00000000000E+00  0.45984582380E+02  0.45984582380E+02  0.00000000000E+00 0.  1.
          4   -1    0    0  503    0 -0.00000000000E+00 -0.00000000000E+00 -0.45422190712E+03  0.45422190712E+03  0.00000000000E+00 0.  1.
         21    1    1    2  503  502 -0.92094779471E+02 -0.40547085669E+02 -0.24595947909E+02  0.10358800710E+03  0.00000000000E+00 0.  1.
          4    1    1    2  501    0  0.92094779471E+02  0.40547085669E+02 -0.38364137683E+03  0.39661848240E+03  0.00000000000E+00 0.  1.
<mgrwt>
<rscale>  2 0.10062562E+03</rscale>
<asrwt>0</asrwt>
<pdfrwt beam="1">  1       21 0.70745517E-02 0.10062562E+03</pdfrwt>
<pdfrwt beam="2">  1        4 0.69880288E-01 0.10062562E+03</pdfrwt>
<totfact> 0.11263626E+04</totfact>
</mgrwt>
</event>
<event>
 4    1  0.4926234E+003  0.1055771E+03  0.7546771E-02  0.1268987E+00
         21   -1    0    0  503  502  0.00000000000E+00  0.00000000000E+00  0.47287085832E+03  0.47287085832E+03  0.00000000000E+00 0. -1.
         -1   -1    0    0    0  501 -0.00000000000E+00 -0.00000000000E+00 -0.23795149407E+02  0.23795149407E+02  0.00000000000E+00 0. -1.
         21    1    1    2  503  501 -0.10504100830E+03 -0.10626294697E+02  0.24858411604E+03  0.27007516419E+03  0.00000000000E+00 0. -1.
         -1    1    1    2    0  502  0.10504100830E+03  0.10626294697E+02  0.20049159288E+03  0.22659084354E+03  0.00000000000E+00 0. -1.
<mgrwt>
<rscale>  2 0.10557714E+03</rscale>
<asrwt>0</asrwt>
<pdfrwt beam="1">  1       21 0.72749356E-01 0.10557714E+03</pdfrwt>
<pdfrwt beam="2">  1       -1 0.36607926E-02 0.10557714E+03</pdfrwt>
<totfact> 0.41520550E+04</totfact>
</mgrwt>
</event>
<event>
 4    1  0.4926234E+003  0.1165062E+03  0.7546771E-02  0.1248975E+00
         -3   -1    0    0    0  501 -0.00000000000E+00  0.00000000000E+00  0.17585096476E+02  0.17585096476E+02  0.00000000000E+00 0.  1.
         21   -1    0    0  503  502  0.00000000000E+00 -0.00000000000E+00 -0.15921777207E+04  0.15921777207E+04  0.00000000000E+00 0.  1.
         21    1    1    2  503  501 -0.11566022777E+03  0.14014541794E+02 -0.13650200336E+04  0.13699829882E+04  0.00000000000E+00 0.  1.
         -3    1    1    2    0  502  0.11566022777E+03 -0.14014541794E+02 -0.20957259060E+03  0.23977982901E+03  0.00000000000E+00 0.  1.
<mgrwt>
<rscale>  2 0.11650620E+03</rscale>
<asrwt>0</asrwt>
<pdfrwt beam="2">  1       21 0.24495045E+00 0.11650620E+03</pdfrwt>
<pdfrwt beam="1">  1       -3 0.27053992E-02 0.11650620E+03</pdfrwt>
<totfact> 0.21590217E+03</totfact>
</mgrwt>
</event>
<event>
 4    1  0.4926234E+003  0.1171459E+03  0.7546771E-02  0.1247881E+00
         21   -1    0    0  503  502  0.00000000000E+00  0.00000000000E+00  0.49305203431E+02  0.49305203431E+02  0.00000000000E+00 0. -1.
          2   -1    0    0  502    0 -0.00000000000E+00 -0.00000000000E+00 -0.63858296755E+03  0.63858296755E+03  0.00000000000E+00 0. -1.
         21    1    1    2  503  501 -0.38633344758E+02  0.11059211476E+03 -0.36304298680E+02  0.12264237962E+03  0.00000000000E+00 0. -1.
          2    1    1    2  501    0  0.38633344758E+02 -0.11059211476E+03 -0.55297346543E+03  0.56524579136E+03  0.00000000000E+00 0. -1.
<mgrwt>
<rscale>  2 0.11714585E+03</rscale>
<asrwt>0</asrwt>
<pdfrwt beam="1">  1       21 0.75854164E-02 0.11714585E+03</pdfrwt>
<pdfrwt beam="2">  1        2 0.98243527E-01 0.11714585E+03</pdfrwt>
<totfact> 0.77279137E+04</totfact>
</mgrwt>
</event>
<event>
 4    1  0.4926234E+003  0.1290409E+03  0.7546771E-02  0.1228886E+00
          1   -1    0    0  503    0 -0.00000000000E+00  0.00000000000E+00  0.30026536271E+04  0.30026536271E+04  0.00000000000E+00 0. -1.
         21   -1    0    0  501  502  0.00000000000E+00 -0.00000000000E+00 -0.33873002097E+02  0.33873002097E+02  0.00000000000E+00 0. -1.
         21    1    1    2  503  502  0.12866996928E+03  0.97769779019E+01  0.95961748234E+02  0.16081109232E+03  0.00000000000E+00 0. -1.
          1    1    1    2  501    0 -0.12866996928E+03 -0.97769779019E+01  0.28728188767E+04  0.28757155368E+04  0.00000000000E+00 0. -1.
<mgrwt>
<rscale>  2 0.12904089E+03</rscale>
<asrwt>0</asrwt>
<pdfrwt beam="2">  1       21 0.52112334E-02 0.12904089E+03</pdfrwt>
<pdfrwt beam="1">  1        1 0.46194650E+00 0.12904089E+03</pdfrwt>
<totfact> 0.21967768E+03</totfact>
</mgrwt>
</event>
<event>
 4    1  0.4926234E+003  0.1726374E+03  0.7546771E-02  0.1175125E+00
          2   -1    0    0  502    0 -0.00000000000E+00  0.00000000000E+00  0.16921795179E+04  0.16921795179E+04  0.00000000000E+00 0.  1.
         21   -1    0    0  503  502  0.00000000000E+00 -0.00000000000E+00 -0.56181003272E+02  0.56181003272E+02  0.00000000000E+00 0. -1.
         21    1    1    2  503  501 -0.11653948153E+03  0.12736654448E+03  0.93693297398E+02  0.19642332189E+03  0.00000000000E+00 0. -1.
          2    1    1    2  501    0  0.11653948153E+03 -0.12736654448E+03  0.15423052172E+04  0.15519371993E+04  0.00000000000E+00 0.  1.
<mgrwt>
<rscale>  2 0.17263744E+03</rscale>
<asrwt>0</asrwt>
<pdfrwt beam="2">  1       21 0.86432326E-02 0.17263744E+03</pdfrwt>
<pdfrwt beam="1">  1        2 0.26033527E+00 0.17263744E+03</pdfrwt>
<totfact> 0.14697025E+04</totfact>
</mgrwt>
</event>
<event>
 4    1  0.4926234E+003  0.1083748E+03  0.7546771E-02  0.1263609E+00
          1   -1    0    0  502    0 -0.00000000000E+00  0.00000000000E+00  0.11949307310E+04  0.11949307310E+04  0.00000000000E+00 0.  1.
         21   -1    0    0  503  502  0.00000000000E+00 -0.00000000000E+00 -0.81303651038E+02  0.81303651038E+02  0.00000000000E+00 0. -1.
         21    1    1    2  503  501 -0.56018401091E+02  0.92774139483E+02 -0.41489372201E+02  0.11604512150E+03  0.00000000000E+00 0. -1.
          1    1    1    2  501    0  0.56018401091E+02 -0.92774139483E+02  0.11551164521E+04  0.11601892605E+04  0.00000000000E+00 0.  1.
<mgrwt>
<rscale>  2 0.10837482E+03</rscale>
<asrwt>0</asrwt>
<pdfrwt beam="2">  1       21 0.12508255E-01 0.10837482E+03</pdfrwt>
<pdfrwt beam="1">  1        1 0.18383548E+00 0.10837482E+03</pdfrwt>
<totfact> 0.73491087E+03</totfact>
</mgrwt>
</event>
<event>
 4    1  0.4926234E+003  0.1013119E+03  0.7546771E-02  0.1277561E+00
          2   -1    0    0  503    0 -0.00000000000E+00  0.00000000000E+00  0.59043304490E+03  0.59043304490E+03  0.00000000000E+00 0.  1.
         21   -1    0    0  501  502  0.00000000000E+00 -0.00000000000E+00 -0.17397619797E+02  0.17397619797E+02  0.00000000000E+00 0.  1.
         21    1    1    2  503  502 -0.12742206645E+02 -0.10050744650E+03  0.29500917351E+03  0.31192070000E+03  0.00000000000E+00 0.  1.
          2    1    1    2  501    0  0.12742206645E+02  0.10050744650E+03  0.27802625159E+03  0.29590996469E+03  0.00000000000E+00 0.  1.
<mgrwt>
<rscale>  2 0.10131195E+03</rscale>
<asrwt>0</asrwt>
<pdfrwt beam="2">  1       21 0.26765574E-02 0.10131195E+03</pdfrwt>
<pdfrwt beam="1">  1        2 0.90835837E-01 0.10131195E+03</pdfrwt>
<totfact> 0.47573078E+05</totfact>
</mgrwt>
</event>
<event>
 4    1  0.4926234E+003  0.1438776E+03  0.7546771E-02  0.1208205E+00
         21   -1    0    0  501  502  0.00000000000E+00  0.00000000000E+00  0.47348232984E+03  0.47348232984E+03  0.00000000000E+00 0.  1.
         -2   -1    0    0    0  501 -0.00000000000E+00 -0.00000000000E+00 -0.64965634362E+02  0.64965634362E+02  0.00000000000E+00 0.  1.
         21    1    1    2  503  502 -0.13914633601E+03 -0.36593256542E+02  0.35821700840E+03  0.38603133857E+03  0.00000000000E+00 0.  1.
         -2    1    1    2    0  503  0.13914633601E+03  0.36593256542E+02  0.50299687076E+02  0.15241662563E+03  0.00000000000E+00 0.  1.
<mgrwt>
<rscale>  2 0.14387762E+03</rscale>
<asrwt>0</asrwt>
<pdfrwt beam="1">  1       21 0.72843433E-01 0.14387762E+03</pdfrwt>
<pdfrwt beam="2">  1       -2 0.99947133E-02 0.14387762E+03</pdfrwt>
<totfact> 0.88992446E+03</totfact>
</mgrwt>
</event>
<event>
 4    1  0.4926234E+003  0.1093256E+03  0.7546771E-02  0.1261824E+00
          2   -1    0    0  502    0 -0.00000000000E+00  0.00000000000E+00  0.15256683114E+04  0.15256683114E+04  0.00000000000E+00 0.  1.
         21   -1    0    0  503  502  0.00000000000E+00 -0.00000000000E+00 -0.14396440168E+02  0.14396440168E+02  0.00000000000E+00 0. -1.
         21    1    1    2  503  501 -0.80960512278E+02  0.73467625187E+02  0.23574305773E+03  0.25985935767E+03  0.00000000000E+00 0. -1.
          2    1    1    2  501    0  0.80960512278E+02 -0.73467625187E+02  0.12755288135E+04  0.12802053939E+04  0.00000000000E+00 0.  1.
<mgrwt>
<rscale>  2 0.10932564E+03</rscale>
<asrwt>0</asrwt>
<pdfrwt beam="2">  1       21 0.22148382E-02 0.10932564E+03</pdfrwt>
<pdfrwt beam="1">  1        2 0.23471807E+00 0.10932564E+03</pdfrwt>
<totfact> 0.17675272E+05</totfact>
</mgrwt>
</event>
<event>
 4    1  0.4926234E+003  0.1623308E+03  0.7546771E-02  0.1186090E+00
         21   -1    0    0  501  502  0.00000000000E+00  0.00000000000E+00  0.21538392068E+02  0.21538392068E+02  0.00000000000E+00 0. -1.
          2   -1    0    0  503    0 -0.00000000000E+00 -0.00000000000E+00 -0.12939831166E+04  0.12939831166E+04  0.00000000000E+00 0.  1.
         21    1    1    2  503  502  0.14227894120E+03  0.78153686913E+02 -0.48266213999E+03  0.50922886531E+03  0.00000000000E+00 0. -1.
          2    1    1    2  501    0 -0.14227894120E+03 -0.78153686913E+02 -0.78978258451E+03  0.80629264333E+03  0.00000000000E+00 0.  1.
<mgrwt>
<rscale>  2 0.16233082E+03</rscale>
<asrwt>0</asrwt>
<pdfrwt beam="1">  1       21 0.33135983E-02 0.16233082E+03</pdfrwt>
<pdfrwt beam="2">  1        2 0.19907436E+00 0.16233082E+03</pdfrwt>
<totfact> 0.12163117E+05</totfact>
</mgrwt>
</event>
<event>
 4    1  0.4926234E+003  0.1580198E+03  0.7546771E-02  0.1190951E+00
          2   -1    0    0  502    0 -0.00000000000E+00  0.00000000000E+00  0.35438932913E+04  0.35438932913E+04  0.00000000000E+00 0.  1.
         21   -1    0    0  503  502  0.00000000000E+00 -0.00000000000E+00 -0.29049023102E+02  0.29049023102E+02  0.00000000000E+00 0. -1.
         21    1    1    2  503  501 -0.15389774642E+03  0.35857287381E+02  0.20263316729E+03  0.25696393112E+03  0.00000000000E+00 0. -1.
          2    1    1    2  501    0  0.15389774642E+03 -0.35857287381E+02  0.33122111009E+04  0.33159783832E+04  0.00000000000E+00 0.  1.
<mgrwt>
<rscale>  2 0.15801981E+03</rscale>
<asrwt>0</asrwt>
<pdfrwt beam="2">  1       21 0.44690833E-02 0.15801981E+03</pdfrwt>
<pdfrwt beam="1">  1        2 0.54521401E+00 0.15801981E+03</pdfrwt>
<totfact> 0.42073458E+03</totfact>
</mgrwt>
</event>
<event>
 4    1  0.4926234E+003  0.1234490E+03  0.7546771E-02  0.1237513E+00
         21   -1    0    0  501  502  0.00000000000E+00  0.00000000000E+00  0.67554409971E+02  0.67554409971E+02  0.00000000000E+00 0.  1.
          2   -1    0    0  503    0 -0.00000000000E+00 -0.00000000000E+00 -0.18034514200E+04  0.18034514200E+04  0.00000000000E+00 0.  1.
         21    1    1    2  503  502  0.37035062156E+02 -0.11776276092E+03  0.70901100427E+01  0.12365247005E+03  0.00000000000E+00 0.  1.
          2    1    1    2  501    0 -0.37035062156E+02  0.11776276092E+03 -0.17429871201E+04  0.17473533600E+04  0.00000000000E+00 0.  1.
<mgrwt>
<rscale>  2 0.12344903E+03</rscale>
<asrwt>0</asrwt>
<pdfrwt beam="1">  1       21 0.10392986E-01 0.12344903E+03</pdfrwt>
<pdfrwt beam="2">  1        2 0.27745406E+00 0.12344903E+03</pdfrwt>
<totfact> 0.95380773E+03</totfact>
</mgrwt>
</event>
<event>
 4    1  0.4926234E+003  0.1032627E+03  0.7546771E-02  0.1273581E+00
         21   -1    0    0  501  502  0.00000000000E+00  0.00000000000E+00  0.87384544476E+02  0.87384544476E+02  0.00000000000E+00 0.  1.
         -1   -1    0    0    0  501 -0.00000000000E+00 -0.00000000000E+00 -0.18112874275E+03  0.18112874275E+03  0.00000000000E+00 0.  1.
         21    1    1    2  503  502 -0.22836540537E+02  0.10070592098E+03  0.29819141328E+02  0.10748195799E+03  0.00000000000E+00 0.  1.
         -1    1    1    2    0  503  0.22836540537E+02 -0.10070592098E+03 -0.12356333961E+03  0.16103132924E+03  0.00000000000E+00 0.  1.
<mgrwt>
<rscale>  2 0.10326272E+03</rscale>
<asrwt>0</asrwt>
<pdfrwt beam="1">  1       21 0.13443776E-01 0.10326272E+03</pdfrwt>
<pdfrwt beam="2">  1       -1 0.27865960E-01 0.10326272E+03</pdfrwt>
<totfact> 0.49696873E+04</totfact>
</mgrwt>
</event>
<event>
 4    1  0.4926234E+003  0.1272376E+03  0.7546771E-02  0.1231613E+00
         21   -1    0    0  503  502  0.00000000000E+00  0.00000000000E+00  0.29993613415E+02  0.29993613415E+02  0.00000000000E+00 0. -1.
          2   -1    0    0  502    0 -0.00000000000E+00 -0.00000000000E+00 -0.16698899293E+04  0.16698899293E+04  0.00000000000E+00 0. -1.
         21    1    1    2  503  501  0.10630698228E+03 -0.69915832420E+02 -0.12073571420E+03  0.17540385055E+03  0.00000000000E+00 0. -1.
          2    1    1    2  501    0 -0.10630698228E+03  0.69915832420E+02 -0.15191606017E+04  0.15244796922E+04  0.00000000000E+00 0. -1.
<mgrwt>
<rscale>  2 0.12723757E+03</rscale>
<asrwt>0</asrwt>
<pdfrwt beam="1">  1       21 0.46144015E-02 0.12723757E+03</pdfrwt>
<pdfrwt beam="2">  1        2 0.25690617E+00 0.12723757E+03</pdfrwt>
<totfact> 0.44642268E+04</totfact>
</mgrwt>
</event>
<event>
 4    1  0.4926234E+003  0.1049375E+03  0.7546771E-02  0.1270243E+00
         21   -1    0    0  501  502  0.00000000000E+00  0.00000000000E+00  0.14638413429E+02  0.14638413429E+02  0.00000000000E+00 0.  1.
          2   -1    0    0  503    0 -0.00000000000E+00 -0.00000000000E+00 -0.22871560847E+04  0.22871560847E+04  0.00000000000E+00 0. -1.
         21    1    1    2  503  502 -0.34958727848E+02  0.98943269890E+02 -0.19344003994E+03  0.22007028959E+03  0.00000000000E+00 0.  1.
          2    1    1    2  501    0  0.34958727848E+02 -0.98943269890E+02 -0.20790776313E+04  0.20817242085E+04  0.00000000000E+00 0. -1.
<mgrwt>
<rscale>  2 0.10493752E+03</rscale>
<asrwt>0</asrwt>
<pdfrwt beam="1">  1       21 0.22520644E-02 0.10493752E+03</pdfrwt>
<pdfrwt beam="2">  1        2 0.35187004E+00 0.10493752E+03</pdfrwt>
<totfact> 0.70567551E+04</totfact>
</mgrwt>
</event>
<event>
 4    1  0.4926234E+003  0.2059107E+03  0.7546771E-02  0.1144846E+00
          1   -1    0    0  502    0 -0.00000000000E+00  0.00000000000E+00  0.12666534014E+04  0.12666534014E+04  0.00000000000E+00 0.  1.
         21   -1    0    0  503  502  0.00000000000E+00 -0.00000000000E+00 -0.51790004735E+03  0.51790004735E+03  0.00000000000E+00 0. -1.
         21    1    1    2  503  501 -0.19353301486E+03 -0.70314813083E+02 -0.48858319161E+03  0.53020065626E+03  0.00000000000E+00 0. -1.
          1    1    1    2  501    0  0.19353301486E+03  0.70314813083E+02  0.12373365456E+04  0.12543527925E+04  0.00000000000E+00 0.  1.
<mgrwt>
<rscale>  2 0.20591066E+03</rscale>
<asrwt>0</asrwt>
<pdfrwt beam="2">  1       21 0.79676931E-01 0.20591066E+03</pdfrwt>
<pdfrwt beam="1">  1        1 0.19486975E+00 0.20591066E+03</pdfrwt>
<totfact> 0.15974666E+02</totfact>
</mgrwt>
</event>
<event>
 4    1  0.4926234E+003  0.2749574E+03  0.7546771E-02  0.1098475E+00
          1   -1    0    0  503    0 -0.00000000000E+00  0.00000000000E+00  0.10765075745E+04  0.10765075745E+04  0.00000000000E+00 0. -1.
         21   -1    0    0  501  502  0.00000000000E+00 -0.00000000000E+00 -0.70398903174E+02  0.70398903174E+02  0.00000000000E+00 0. -1.
         21    1    1    2  503  502  0.21150397965E+03  0.17569183217E+03  0.47484419582E+03  0.54870626350E+03  0.00000000000E+00 0. -1.
          1    1    1    2  501    0 -0.21150397965E+03 -0.17569183217E+03  0.53126447546E+03  0.59820021413E+03  0.00000000000E+00 0. -1.
<mgrwt>
<rscale>  2 0.27495737E+03</rscale>
<asrwt>0</asrwt>
<pdfrwt beam="2">  1       21 0.10830601E-01 0.27495737E+03</pdfrwt>
<pdfrwt beam="1">  1        1 0.16561654E+00 0.27495737E+03</pdfrwt>
<totfact> 0.10900217E+04</totfact>
</mgrwt>
</event>
<event>
 4    1  0.4926234E+003  0.1044678E+03  0.7546771E-02  0.1271172E+00
          2   -1    0    0  502    0 -0.00000000000E+00  0.00000000000E+00  0.12334704863E+04  0.12334704863E+04  0.00000000000E+00 0. -1.
         21   -1    0    0  503  502  0.00000000000E+00 -0.00000000000E+00 -0.20938047454E+02  0.20938047454E+02  0.00000000000E+00 0.  1.
         21    1    1    2  503  501  0.10310524730E+03  0.16817507958E+02  0.12966163905E+03  0.16651024364E+03  0.00000000000E+00 0.  1.
          2    1    1    2  501    0 -0.10310524730E+03 -0.16817507958E+02  0.10828707998E+04  0.10878982902E+04  0.00000000000E+00 0. -1.
<mgrwt>
<rscale>  2 0.10446780E+03</rscale>
<asrwt>0</asrwt>
<pdfrwt beam="2">  1       21 0.32212390E-02 0.10446780E+03</pdfrwt>
<pdfrwt beam="1">  1        2 0.18976463E+00 0.10446780E+03</pdfrwt>
<totfact> 0.13686813E+05</totfact>
</mgrwt>
</event>
<event>
 4    1  0.4926234E+003  0.1549606E+03  0.7546771E-02  0.1194507E+00
          3   -1    0    0  503    0 -0.00000000000E+00  0.00000000000E+00  0.11364303196E+03  0.11364303196E+03  0.00000000000E+00 0.  1.
         21   -1    0    0  501  502  0.00000000000E+00 -0.00000000000E+00 -0.77540884001E+03  0.77540884001E+03  0.00000000000E+00 0. -1.
         21    1    1    2  503  502  0.15493841387E+03  0.26241095192E+01 -0.71003468288E+03  0.72674758269E+03  0.00000000000E+00 0. -1.
          3    1    1    2  501    0 -0.15493841387E+03 -0.26241095192E+01  0.48268874831E+02  0.16230428929E+03  0.00000000000E+00 0.  1.
<mgrwt>
<rscale>  2 0.15496063E+03</rscale>
<asrwt>0</asrwt>
<pdfrwt beam="2">  1       21 0.11929367E+00 0.15496063E+03</pdfrwt>
<pdfrwt beam="1">  1        3 0.17483543E-01 0.15496063E+03</pdfrwt>
<totfact> 0.75681490E+02</totfact>
</mgrwt>
</event>
<event>
 4    1  0.4926234E+003  0.1836104E+03  0.7546771E-02  0.1164354E+00
          4   -1    0    0  503    0 -0.00000000000E+00  0.00000000000E+00  0.35575826865E+03  0.35575826865E+03  0.00000000000E+00 0.  1.
         21   -1    0    0  501  502  0.00000000000E+00 -0.00000000000E+00 -0.18644230342E+03  0.18644230342E+03  0.00000000000E+00 0.  1.
         21    1    1    2  503  502 -0.18360767094E+03 -0.99383356372E+00 -0.10544682817E+03  0.21173520752E+03  0.00000000000E+00 0.  1.
          4    1    1    2  501    0  0.18360767094E+03  0.99383356372E+00  0.27476279340E+03  0.33046536456E+03  0.00000000000E+00 0.  1.
<mgrwt>
<rscale>  2 0.18361036E+03</rscale>
<asrwt>0</asrwt>
<pdfrwt beam="2">  1       21 0.28683431E-01 0.18361036E+03</pdfrwt>
<pdfrwt beam="1">  1        4 0.54732041E-01 0.18361036E+03</pdfrwt>
<totfact> 0.15713423E+03</totfact>
</mgrwt>
</event>
<event>
 4    1  0.4926234E+003  0.1370702E+03  0.7546771E-02  0.1217326E+00
          1   -1    0    0  502    0 -0.00000000000E+00  0.00000000000E+00  0.25162796891E+04  0.25162796891E+04  0.00000000000E+00 0.  1.
         21   -1    0    0  503  502  0.00000000000E+00 -0.00000000000E+00 -0.16009539950E+02  0.16009539950E+02  0.00000000000E+00 0.  1.
         21    1    1    2  503  501  0.10471206936E+03  0.88451280714E+02  0.32523329045E+03  0.35293758619E+03  0.00000000000E+00 0.  1.
          1    1    1    2  501    0 -0.10471206936E+03 -0.88451280714E+02  0.21750368587E+04  0.21793516428E+04  0.00000000000E+00 0.  1.
<mgrwt>
<rscale>  2 0.13707022E+03</rscale>
<asrwt>0</asrwt>
<pdfrwt beam="2">  1       21 0.24630081E-02 0.13707022E+03</pdfrwt>
<pdfrwt beam="1">  1        1 0.38711964E+00 0.13707022E+03</pdfrwt>
<totfact> 0.15969809E+04</totfact>
</mgrwt>
</event>
<event>
 4    1  0.4926234E+003  0.1006014E+03  0.7546771E-02  0.1279036E+00
         21   -1    0    0  501  502  0.00000000000E+00  0.00000000000E+00  0.29280612537E+03  0.29280612537E+03  0.00000000000E+00 0. -1.
          1   -1    0    0  503    0 -0.00000000000E+00 -0.00000000000E+00 -0.76030856467E+02  0.76030856467E+02  0.00000000000E+00 0.  1.
         21    1    1    2  503  502  0.51613670613E+02 -0.86352005382E+02  0.24458179562E+03  0.26446340877E+03  0.00000000000E+00 0. -1.
          1    1    1    2  501    0 -0.51613670613E+02  0.86352005382E+02 -0.27806526716E+02  0.10437357307E+03  0.00000000000E+00 0.  1.
<mgrwt>
<rscale>  2 0.10060139E+03</rscale>
<asrwt>0</asrwt>
<pdfrwt beam="1">  1       21 0.45047096E-01 0.10060139E+03</pdfrwt>
<pdfrwt beam="2">  1        1 0.11697055E-01 0.10060139E+03</pdfrwt>
<totfact> 0.26131085E+04</totfact>
</mgrwt>
</event>
<event>
 4    1  0.4926234E+003  0.1158146E+03  0.7546771E-02  0.1250166E+00
          1   -1    0    0  502    0 -0.00000000000E+00  0.00000000000E+00  0.11321996336E+03  0.11321996336E+03  0.00000000000E+00 0. -1.
         21   -1    0    0  503  502  0.00000000000E+00 -0.00000000000E+00 -0.90976205377E+03  0.90976205377E+03  0.00000000000E+00 0.  1.
         21    1    1    2  503  501  0.25653644727E+02  0.11293761977E+03 -0.87529794419E+03  0.88292667111E+03  0.00000000000E+00 0.  1.
          1    1    1    2  501    0 -0.25653644727E+02 -0.11293761977E+03  0.78755853781E+02  0.14005534603E+03  0.00000000000E+00 0. -1.
<mgrwt>
<rscale>  2 0.11581457E+03</rscale>
<asrwt>0</asrwt>
<pdfrwt beam="2">  1       21 0.13996338E+00 0.11581457E+03</pdfrwt>
<pdfrwt beam="1">  1        1 0.17418457E-01 0.11581457E+03</pdfrwt>
<totfact> 0.12325194E+03</totfact>
</mgrwt>
</event>
<event>
 4    1  0.4926234E+003  0.1013979E+03  0.7546771E-02  0.1277384E+00
         21   -1    0    0  501  502  0.00000000000E+00  0.00000000000E+00  0.67884838634E+03  0.67884838634E+03  0.00000000000E+00 0.  1.
          1   -1    0    0  503    0 -0.00000000000E+00 -0.00000000000E+00 -0.35492064352E+03  0.35492064352E+03  0.00000000000E+00 0.  1.
         21    1    1    2  503  502  0.95039466496E+01  0.10095147980E+03  0.66769963623E+03  0.67535496629E+03  0.00000000000E+00 0.  1.
          1    1    1    2  501    0 -0.95039466496E+01 -0.10095147980E+03 -0.34377189340E+03  0.35841406358E+03  0.00000000000E+00 0.  1.
<mgrwt>
<rscale>  2 0.10139786E+03</rscale>
<asrwt>0</asrwt>
<pdfrwt beam="1">  1       21 0.10443821E+00 0.10139786E+03</pdfrwt>
<pdfrwt beam="2">  1        1 0.54603176E-01 0.10139786E+03</pdfrwt>
<totfact> 0.61600034E+02</totfact>
</mgrwt>
</event>
<event>
 4    1  0.4926234E+003  0.1204093E+03  0.7546771E-02  0.1242423E+00
         21   -1    0    0  501  502  0.00000000000E+00  0.00000000000E+00  0.69581305663E+01  0.69581305663E+01  0.00000000000E+00 0. -1.
          1   -1    0    0  503    0 -0.00000000000E+00 -0.00000000000E+00 -0.30265234471E+04  0.30265234471E+04  0.00000000000E+00 0.  1.
         21    1    1    2  503  502  0.11715897129E+03  0.27788062891E+02 -0.66321242392E+03  0.67405424132E+03  0.00000000000E+00 0. -1.
          1    1    1    2  501    0 -0.11715897129E+03 -0.27788062891E+02 -0.23563528926E+04  0.23594273363E+04  0.00000000000E+00 0.  1.
<mgrwt>
<rscale>  2 0.12040931E+03</rscale>
<asrwt>0</asrwt>
<pdfrwt beam="1">  1       21 0.10704794E-02 0.12040931E+03</pdfrwt>
<pdfrwt beam="2">  1        1 0.46561996E+00 0.12040931E+03</pdfrwt>
<totfact> 0.27846736E+04</totfact>
</mgrwt>
</event>
<event>
 4    1  0.4926234E+003  0.1067125E+03  0.7546771E-02  0.1266782E+00
          2   -1    0    0  503    0 -0.00000000000E+00  0.00000000000E+00  0.16114523833E+03  0.16114523833E+03  0.00000000000E+00 0. -1.
         21   -1    0    0  501  502  0.00000000000E+00 -0.00000000000E+00 -0.31128650651E+03  0.31128650651E+03  0.00000000000E+00 0.  1.
         21    1    1    2  503  502 -0.48325697564E+02 -0.95143013217E+02 -0.28275070246E+03  0.30221767941E+03  0.00000000000E+00 0.  1.
          2    1    1    2  501    0  0.48325697564E+02  0.95143013217E+02  0.13260943428E+03  0.17021406543E+03  0.00000000000E+00 0. -1.
<mgrwt>
<rscale>  2 0.10671254E+03</rscale>
<asrwt>0</asrwt>
<pdfrwt beam="2">  1       21 0.47890231E-01 0.10671254E+03</pdfrwt>
<pdfrwt beam="1">  1        2 0.24791575E-01 0.10671254E+03</pdfrwt>
<totfact> 0.11285088E+04</totfact>
</mgrwt>
</event>
<event>
 4    1  0.4926234E+003  0.1123553E+03  0.7546771E-02  0.1256269E+00
         21   -1    0    0  501  502  0.00000000000E+00  0.00000000000E+00  0.33619071072E+03  0.33619071072E+03  0.00000000000E+00 0. -1.
          3   -1    0    0  503    0 -0.00000000000E+00 -0.00000000000E+00 -0.51429573753E+03  0.51429573753E+03  0.00000000000E+00 0.  1.
         21    1    1    2  503  502 -0.11204011232E+03 -0.84094634629E+01  0.32037280471E+03  0.33950322508E+03  0.00000000000E+00 0. -1.
          3    1    1    2  501    0  0.11204011232E+03  0.84094634629E+01 -0.49847783152E+03  0.51098322317E+03  0.00000000000E+00 0.  1.
<mgrwt>
<rscale>  2 0.11235527E+03</rscale>
<asrwt>0</asrwt>
<pdfrwt beam="1">  1       21 0.51721648E-01 0.11235527E+03</pdfrwt>
<pdfrwt beam="2">  1        3 0.79122421E-01 0.11235527E+03</pdfrwt>
<totfact> 0.27341090E+02</totfact>
</mgrwt>
</event>
<event>
 4    1  0.4926234E+003  0.1212494E+03  0.7546771E-02  0.1241050E+00
          2   -1    0    0  503    0 -0.00000000000E+00  0.00000000000E+00  0.84944840609E+03  0.84944840609E+03  0.00000000000E+00 0. -1.
         21   -1    0    0  501  502  0.00000000000E+00 -0.00000000000E+00 -0.40631345884E+02  0.40631345884E+02  0.00000000000E+00 0.  1.
         21    1    1    2  503  502 -0.94215030525E+02  0.76321288192E+02  0.67219857435E+02  0.13863592695E+03  0.00000000000E+00 0.  1.
          2    1    1    2  501    0  0.94215030525E+02 -0.76321288192E+02  0.74159720277E+03  0.75144382502E+03  0.00000000000E+00 0. -1.
<mgrwt>
<rscale>  2 0.12124938E+03</rscale>
<asrwt>0</asrwt>
<pdfrwt beam="2">  1       21 0.62509769E-02 0.12124938E+03</pdfrwt>
<pdfrwt beam="1">  1        2 0.13068436E+00 0.12124938E+03</pdfrwt>
<totfact> 0.76300201E+04</totfact>
</mgrwt>
</event>
<event>
 4    1  0.4926234E+003  0.1105446E+03  0.7546771E-02  0.1259565E+00
          1   -1    0    0  503    0 -0.00000000000E+00  0.00000000000E+00  0.16527870398E+04  0.16527870398E+04  0.00000000000E+00 0.  1.
         21   -1    0    0  501  502  0.00000000000E+00 -0.00000000000E+00 -0.85403915420E+01  0.85403915420E+01  0.00000000000E+00 0. -1.
         21    1    1    2  503  502 -0.27251356169E+01 -0.11051103893E+03  0.51774018647E+03  0.52941006486E+03  0.00000000000E+00 0. -1.
          1    1    1    2  501    0  0.27251356169E+01  0.11051103893E+03  0.11265064618E+04  0.11319173665E+04  0.00000000000E+00 0.  1.
<mgrwt>
<rscale>  2 0.11054463E+03</rscale>
<asrwt>0</asrwt>
<pdfrwt beam="2">  1       21 0.13139077E-02 0.11054463E+03</pdfrwt>
<pdfrwt beam="1">  1        1 0.25427467E+00 0.11054463E+03</pdfrwt>
<totfact> 0.15653050E+05</totfact>
</mgrwt>
</event>
<event>
 4    1  0.4926234E+003  0.1186895E+03  0.7546771E-02  0.1245275E+00
         21   -1    0    0  501  502  0.00000000000E+00  0.00000000000E+00  0.91422454446E+02  0.91422454446E+02  0.00000000000E+00 0. -1.
         -4   -1    0    0    0  501 -0.00000000000E+00 -0.00000000000E+00 -0.27927333468E+03  0.27927333468E+03  0.00000000000E+00 0. -1.
         21    1    1    2  503  502 -0.73135692554E+02 -0.93479265334E+02  0.30167696727E+02  0.12246343331E+03  0.00000000000E+00 0. -1.
         -4    1    1    2    0  503  0.73135692554E+02  0.93479265334E+02 -0.21801857697E+03  0.24823235582E+03  0.00000000000E+00 0. -1.
<mgrwt>
<rscale>  2 0.11868952E+03</rscale>
<asrwt>0</asrwt>
<pdfrwt beam="1">  1       21 0.14064993E-01 0.11868952E+03</pdfrwt>
<pdfrwt beam="2">  1       -4 0.42965129E-01 0.11868952E+03</pdfrwt>
<totfact> 0.94180258E+03</totfact>
</mgrwt>
</event>
<event>
 4    1  0.4926234E+003  0.1690911E+03  0.7546771E-02  0.1178799E+00
         -4   -1    0    0    0  501 -0.00000000000E+00  0.00000000000E+00  0.15517787815E+03  0.15517787815E+03  0.00000000000E+00 0. -1.
         21   -1    0    0  501  502  0.00000000000E+00 -0.00000000000E+00 -0.44588221171E+03  0.44588221171E+03  0.00000000000E+00 0. -1.
         21    1    1    2  503  502  0.11170300776E+02  0.16872172420E+03 -0.37556099568E+03  0.41187116591E+03  0.00000000000E+00 0. -1.
         -4    1    1    2    0  503 -0.11170300776E+02 -0.16872172420E+03  0.84856662122E+02  0.18918892395E+03  0.00000000000E+00 0. -1.
<mgrwt>
<rscale>  2 0.16909109E+03</rscale>
<asrwt>0</asrwt>
<pdfrwt beam="2">  1       21 0.68597262E-01 0.16909109E+03</pdfrwt>
<pdfrwt beam="1">  1       -4 0.23873520E-01 0.16909109E+03</pdfrwt>
<totfact> 0.13277287E+03</totfact>
</mgrwt>
</event>
<event>
 4    1  0.4926234E+003  0.1068093E+03  0.7546771E-02  0.1266595E+00
         21   -1    0    0  501  502  0.00000000000E+00  0.00000000000E+00  0.13873225149E+03  0.13873225149E+03  0.00000000000E+00 0.  1.
          1   -1    0    0  503    0 -0.00000000000E+00 -0.00000000000E+00 -0.61532045530E+03  0.61532045530E+03  0.00000000000E+00 0.  1.
         21    1    1    2  503  502 -0.83931298750E+02 -0.66058777851E+02  0.11263605129E+03  0.15522598073E+03  0.00000000000E+00 0.  1.
          1    1    1    2  501    0  0.83931298750E+02  0.66058777851E+02 -0.58922425511E+03  0.59882672606E+03  0.00000000000E+00 0.  1.
<mgrwt>
<rscale>  2 0.10680929E+03</rscale>
<asrwt>0</asrwt>
<pdfrwt beam="1">  1       21 0.21343423E-01 0.10680929E+03</pdfrwt>
<pdfrwt beam="2">  1        1 0.94664686E-01 0.10680929E+03</pdfrwt>
<totfact> 0.79059444E+03</totfact>
</mgrwt>
</event>
<event>
 4    1  0.4926234E+003  0.1472378E+03  0.7546771E-02  0.1203909E+00
         21   -1    0    0  503  502  0.00000000000E+00  0.00000000000E+00  0.40475926160E+02  0.40475926160E+02  0.00000000000E+00 0.  1.
          2   -1    0    0  502    0 -0.00000000000E+00 -0.00000000000E+00 -0.93668317902E+03  0.93668317902E+03  0.00000000000E+00 0.  1.
         21    1    1    2  503  501 -0.92754733246E+01 -0.14694533817E+03 -0.12839427582E+03  0.19535623071E+03  0.00000000000E+00 0.  1.
          2    1    1    2  501    0  0.92754733246E+01  0.14694533817E+03 -0.76781297704E+03  0.78180287447E+03  0.00000000000E+00 0.  1.
<mgrwt>
<rscale>  2 0.14723779E+03</rscale>
<asrwt>0</asrwt>
<pdfrwt beam="1">  1       21 0.62270656E-02 0.14723779E+03</pdfrwt>
<pdfrwt beam="2">  1        2 0.14410510E+00 0.14723779E+03</pdfrwt>
<totfact> 0.67696590E+04</totfact>
</mgrwt>
</event>
<event>
 4    1  0.4926234E+003  0.1498037E+03  0.7546771E-02  0.1200714E+00
         21   -1    0    0  503  502  0.00000000000E+00  0.00000000000E+00  0.27595729895E+03  0.27595729895E+03  0.00000000000E+00 0.  1.
          2   -1    0    0  502    0 -0.00000000000E+00 -0.00000000000E+00 -0.34164663418E+03  0.34164663418E+03  0.00000000000E+00 0.  1.
         21    1    1    2  503  501  0.37467468937E+02  0.14504250006E+03  0.23671189382E+03  0.28013150257E+03  0.00000000000E+00 0.  1.
          2    1    1    2  501    0 -0.37467468937E+02 -0.14504250006E+03 -0.30240122906E+03  0.33747243056E+03  0.00000000000E+00 0.  1.
<mgrwt>
<rscale>  2 0.14980367E+03</rscale>
<asrwt>0</asrwt>
<pdfrwt beam="1">  1       21 0.42454969E-01 0.14980367E+03</pdfrwt>
<pdfrwt beam="2">  1        2 0.52561020E-01 0.14980367E+03</pdfrwt>
<totfact> 0.63758432E+03</totfact>
</mgrwt>
</event>
<event>
 4    1  0.4926234E+003  0.1030464E+03  0.7546771E-02  0.1274017E+00
          4   -1    0    0  503    0 -0.00000000000E+00  0.00000000000E+00  0.20364181720E+03  0.20364181720E+03  0.00000000000E+00 0. -1.
         21   -1    0    0  501  502  0.00000000000E+00 -0.00000000000E+00 -0.15267192328E+03  0.15267192328E+03  0.00000000000E+00 0. -1.
         21    1    1    2  503  502 -0.28608373326E+02 -0.98995523155E+02 -0.11908162851E+03  0.15747694078E+03  0.00000000000E+00 0. -1.
          4    1    1    2  501    0  0.28608373326E+02  0.98995523155E+02  0.17005152244E+03  0.19883679969E+03  0.00000000000E+00 0. -1.
<mgrwt>
<rscale>  2 0.10304636E+03</rscale>
<asrwt>0</asrwt>
<pdfrwt beam="2">  1       21 0.23487988E-01 0.10304636E+03</pdfrwt>
<pdfrwt beam="1">  1        4 0.31329510E-01 0.10304636E+03</pdfrwt>
<totfact> 0.67184611E+03</totfact>
</mgrwt>
</event>
<event>
 4    1  0.4926234E+003  0.1072666E+03  0.7546771E-02  0.1265717E+00
         -3   -1    0    0    0  501 -0.00000000000E+00  0.00000000000E+00  0.59421239981E+02  0.59421239981E+02  0.00000000000E+00 0. -1.
         21   -1    0    0  501  502  0.00000000000E+00 -0.00000000000E+00 -0.19301325228E+04  0.19301325228E+04  0.00000000000E+00 0. -1.
         21    1    1    2  503  502 -0.43558366577E+02  0.98024470899E+02 -0.18789145092E+04  0.18819739268E+04  0.00000000000E+00 0. -1.
         -3    1    1    2    0  503  0.43558366577E+02 -0.98024470899E+02  0.82032263688E+01  0.10757983601E+03  0.00000000000E+00 0. -1.
<mgrwt>
<rscale>  2 0.10726662E+03</rscale>
<asrwt>0</asrwt>
<pdfrwt beam="2">  1       21 0.29694347E+00 0.10726662E+03</pdfrwt>
<pdfrwt beam="1">  1       -3 0.91417292E-02 0.10726662E+03</pdfrwt>
<totfact> 0.16284980E+02</totfact>
</mgrwt>
</event>
<event>
 4    1  0.4926234E+003  0.1245058E+03  0.7546771E-02  0.1235844E+00
         21   -1    0    0  501  502  0.00000000000E+00  0.00000000000E+00  0.67360249981E+03  0.67360249981E+03  0.00000000000E+00 0.  1.
         -4   -1    0    0    0  501 -0.00000000000E+00 -0.00000000000E+00 -0.61988472133E+02  0.61988472133E+02  0.00000000000E+00 0. -1.
         21    1    1    2  503  502  0.11182355487E+03 -0.54746644177E+02  0.59744620965E+03  0.61028163654E+03  0.00000000000E+00 0.  1.
         -4    1    1    2    0  503 -0.11182355487E+03  0.54746644177E+02  0.14167818027E+02  0.12530933540E+03  0.00000000000E+00 0. -1.
<mgrwt>
<rscale>  2 0.12450583E+03</rscale>
<asrwt>0</asrwt>
<pdfrwt beam="1">  1       21 0.10363115E+00 0.12450583E+03</pdfrwt>
<pdfrwt beam="2">  1       -4 0.95366885E-02 0.12450583E+03</pdfrwt>
<totfact> 0.25819114E+03</totfact>
</mgrwt>
</event>
<event>
 4    1  0.4926234E+003  0.1865701E+03  0.7546771E-02  0.1161592E+00
         21   -1    0    0  501  502  0.00000000000E+00  0.00000000000E+00  0.17483543557E+03  0.17483543557E+03  0.00000000000E+00 0. -1.
          1   -1    0    0  503    0 -0.00000000000E+00 -0.00000000000E+00 -0.20824161881E+03  0.20824161881E+03  0.00000000000E+00 0.  1.
         21    1    1    2  503  502  0.11498968739E+03  0.14692101232E+03  0.23444881622E+02  0.18803742856E+03  0.00000000000E+00 0. -1.
          1    1    1    2  501    0 -0.11498968739E+03 -0.14692101232E+03 -0.56851064863E+02  0.19503962582E+03  0.00000000000E+00 0.  1.
<mgrwt>
<rscale>  2 0.18657013E+03</rscale>
<asrwt>0</asrwt>
<pdfrwt beam="1">  1       21 0.26897759E-01 0.18657013E+03</pdfrwt>
<pdfrwt beam="2">  1        1 0.32037172E-01 0.18657013E+03</pdfrwt>
<totfact> 0.19918108E+04</totfact>
</mgrwt>
</event>
<event>
 4    1  0.4926234E+003  0.1017828E+03  0.7546771E-02  0.1276591E+00
         21   -1    0    0  503  502  0.00000000000E+00  0.00000000000E+00  0.12179331541E+03  0.12179331541E+03  0.00000000000E+00 0. -1.
         -3   -1    0    0    0  501 -0.00000000000E+00 -0.00000000000E+00 -0.95137837682E+02  0.95137837682E+02  0.00000000000E+00 0.  1.
         21    1    1    2  503  501 -0.74217427368E+02  0.69652752341E+02  0.48629811513E+02  0.11280332886E+03  0.00000000000E+00 0. -1.
         -3    1    1    2    0  502  0.74217427368E+02 -0.69652752341E+02 -0.21974333787E+02  0.10412782423E+03  0.00000000000E+00 0.  1.
<mgrwt>
<rscale>  2 0.10178277E+03</rscale>
<asrwt>0</asrwt>
<pdfrwt beam="1">  1       21 0.18737433E-01 0.10178277E+03</pdfrwt>
<pdfrwt beam="2">  1       -3 0.14636590E-01 0.10178277E+03</pdfrwt>
<totfact> 0.46979452E+04</totfact>
</mgrwt>
</event>
<event>
 4    1  0.4926234E+003  0.1672524E+03  0.7546771E-02  0.1180744E+00
         -1   -1    0    0    0  501 -0.00000000000E+00  0.00000000000E+00  0.40501738568E+03  0.40501738568E+03  0.00000000000E+00 0.  1.
         21   -1    0    0  503  502  0.00000000000E+00 -0.00000000000E+00 -0.11640771532E+03  0.11640771532E+03  0.00000000000E+00 0. -1.
         21    1    1    2  503  501 -0.15318243954E+03  0.67145388950E+02 -0.21955309698E+02  0.16868728068E+03  0.00000000000E+00 0. -1.
         -1    1    1    2    0  502  0.15318243954E+03 -0.67145388950E+02  0.31056498006E+03  0.35273782032E+03  0.00000000000E+00 0.  1.
<mgrwt>
<rscale>  2 0.16725239E+03</rscale>
<asrwt>0</asrwt>
<pdfrwt beam="2">  1       21 0.17908879E-01 0.16725239E+03</pdfrwt>
<pdfrwt beam="1">  1       -1 0.62310366E-01 0.16725239E+03</pdfrwt>
<totfact> 0.71386853E+03</totfact>
</mgrwt>
</event>
<event>
 4    1  0.4926234E+003  0.1055835E+03  0.7546771E-02  0.1268974E+00
          2   -1    0    0  503    0 -0.00000000000E+00  0.00000000000E+00  0.95647823172E+03  0.95647823172E+03  0.00000000000E+00 0. -1.
         21   -1    0    0  501  502  0.00000000000E+00 -0.00000000000E+00 -0.13193234122E+03  0.13193234122E+03  0.00000000000E+00 0.  1.
         21    1    1    2  503  502 -0.46540770174E+02  0.94772515836E+02 -0.10733861678E+03  0.15056377951E+03  0.00000000000E+00 0.  1.
          2    1    1    2  501    0  0.46540770174E+02 -0.94772515836E+02  0.93188450728E+03  0.93784679343E+03  0.00000000000E+00 0. -1.
<mgrwt>
<rscale>  2 0.10558349E+03</rscale>
<asrwt>0</asrwt>
<pdfrwt beam="2">  1       21 0.20297284E-01 0.10558349E+03</pdfrwt>
<pdfrwt beam="1">  1        2 0.14715049E+00 0.10558349E+03</pdfrwt>
<totfact> 0.82384760E+03</totfact>
</mgrwt>
</event>
<event>
 4    1  0.4926234E+003  0.1709683E+03  0.7546771E-02  0.1176842E+00
         21   -1    0    0  501  502  0.00000000000E+00  0.00000000000E+00  0.14002720801E+03  0.14002720801E+03  0.00000000000E+00 0. -1.
          4   -1    0    0  503    0 -0.00000000000E+00 -0.00000000000E+00 -0.23416587511E+03  0.23416587511E+03  0.00000000000E+00 0.  1.
         21    1    1    2  503  502  0.80412723953E+02  0.15087722328E+03  0.14574445178E+02  0.17158833623E+03  0.00000000000E+00 0. -1.
          4    1    1    2  501    0 -0.80412723953E+02 -0.15087722328E+03 -0.10871311228E+03  0.20260474689E+03  0.00000000000E+00 0.  1.
<mgrwt>
<rscale>  2 0.17096825E+03</rscale>
<asrwt>0</asrwt>
<pdfrwt beam="1">  1       21 0.21542647E-01 0.17096825E+03</pdfrwt>
<pdfrwt beam="2">  1        4 0.36025519E-01 0.17096825E+03</pdfrwt>
<totfact> 0.62690948E+03</totfact>
</mgrwt>
</event>
<event>
 4    1  0.4926234E+003  0.1058010E+03  0.7546771E-02  0.1268549E+00
         21   -1    0    0  503  502  0.00000000000E+00  0.00000000000E+00  0.11861105339E+02  0.11861105339E+02  0.00000000000E+00 0.  1.
          1   -1    0    0  502    0 -0.00000000000E+00 -0.00000000000E+00 -0.97037798319E+03  0.97037798319E+03  0.00000000000E+00 0.  1.
         21    1    1    2  503  501  0.10313318502E+03 -0.23609493899E+02 -0.39789590583E+03  0.41172201050E+03  0.00000000000E+00 0.  1.
          1    1    1    2  501    0 -0.10313318502E+03  0.23609493899E+02 -0.56062097202E+03  0.57051707803E+03  0.00000000000E+00 0.  1.
<mgrwt>
<rscale>  2 0.10580105E+03</rscale>
<asrwt>0</asrwt>
<pdfrwt beam="1">  1       21 0.18247852E-02 0.10580105E+03</pdfrwt>
<pdfrwt beam="2">  1        1 0.14928894E+00 0.10580105E+03</pdfrwt>
<totfact> 0.26497698E+05</totfact>
</mgrwt>
</event>
<event>
 4    1  0.4926234E+003  0.1680098E+03  0.7546771E-02  0.1179939E+00
         21   -1    0    0  503  502  0.00000000000E+00  0.00000000000E+00  0.16070365693E+02  0.16070365693E+02  0.00000000000E+00 0.  1.
         -1   -1    0    0    0  501 -0.00000000000E+00 -0.00000000000E+00 -0.25652831490E+04  0.25652831490E+04  0.00000000000E+00 0.  1.
         21    1    1    2  503  501 -0.15414485536E+03  0.66833158743E+02 -0.54988559545E+03  0.57497954366E+03  0.00000000000E+00 0.  1.
         -1    1    1    2    0  502  0.15414485536E+03 -0.66833158743E+02 -0.19993271878E+04  0.20063739710E+04  0.00000000000E+00 0.  1.
<mgrwt>
<rscale>  2 0.16800984E+03</rscale>
<asrwt>0</asrwt>
<pdfrwt beam="1">  1       21 0.24723665E-02 0.16800984E+03</pdfrwt>
<pdfrwt beam="2">  1       -1 0.39465854E+00 0.16800984E+03</pdfrwt>
<totfact> 0.81780057E+02</totfact>
</mgrwt>
</event>
<event>
 4    1  0.4926234E+003  0.1508316E+03  0.7546771E-02  0.1199455E+00
         21   -1    0    0  501  502  0.00000000000E+00  0.00000000000E+00  0.46193799012E+02  0.46193799012E+02  0.00000000000E+00 0. -1.
          2   -1    0    0  503    0 -0.00000000000E+00 -0.00000000000E+00 -0.88175546230E+03  0.88175546230E+03  0.00000000000E+00 0. -1.
         21    1    1    2  503  502 -0.11306779926E+03  0.99829014090E+02 -0.10950393685E+03  0.18639010561E+03  0.00000000000E+00 0. -1.
          2    1    1    2  501    0  0.11306779926E+03 -0.99829014090E+02 -0.72605772644E+03  0.74155915570E+03  0.00000000000E+00 0. -1.
<mgrwt>
<rscale>  2 0.15083156E+03</rscale>
<asrwt>0</asrwt>
<pdfrwt beam="1">  1       21 0.71067384E-02 0.15083156E+03</pdfrwt>
<pdfrwt beam="2">  1        2 0.13565468E+00 0.15083156E+03</pdfrwt>
<totfact> 0.58467730E+04</totfact>
</mgrwt>
</event>
<event>
 4    1  0.4926234E+003  0.1052819E+03  0.7546771E-02  0.1269565E+00
          1   -1    0    0  503    0 -0.00000000000E+00  0.00000000000E+00  0.37005722321E+03  0.37005722321E+03  0.00000000000E+00 0. -1.
         21   -1    0    0  501  502  0.00000000000E+00 -0.00000000000E+00 -0.33353099891E+03  0.33353099891E+03  0.00000000000E+00 0. -1.
         21    1    1    2  503  502 -0.97480762669E+02 -0.39771466059E+02 -0.31736298070E+03  0.33437034875E+03  0.00000000000E+00 0. -1.
          1    1    1    2  501    0  0.97480762669E+02  0.39771466059E+02  0.35388920500E+03  0.36921787337E+03  0.00000000000E+00 0. -1.
<mgrwt>
<rscale>  2 0.10528185E+03</rscale>
<asrwt>0</asrwt>
<pdfrwt beam="2">  1       21 0.51312461E-01 0.10528185E+03</pdfrwt>
<pdfrwt beam="1">  1        1 0.56931881E-01 0.10528185E+03</pdfrwt>
<totfact> 0.27631681E+03</totfact>
</mgrwt>
</event>
<event>
 4    1  0.4926234E+003  0.1250289E+03  0.7546771E-02  0.1235024E+00
         21   -1    0    0  503  502  0.00000000000E+00  0.00000000000E+00  0.85477736482E+02  0.85477736482E+02  0.00000000000E+00 0.  1.
          2   -1    0    0  502    0 -0.00000000000E+00 -0.00000000000E+00 -0.15048545225E+04  0.15048545225E+04  0.00000000000E+00 0. -1.
         21    1    1    2  503  501  0.54579164316E+02 -0.11248702606E+03  0.35596065263E+02  0.12999729255E+03  0.00000000000E+00 0.  1.
          2    1    1    2  501    0 -0.54579164316E+02  0.11248702606E+03 -0.14549728513E+04  0.14603349665E+04  0.00000000000E+00 0. -1.
<mgrwt>
<rscale>  2 0.12502886E+03</rscale>
<asrwt>0</asrwt>
<pdfrwt beam="1">  1       21 0.13150420E-01 0.12502886E+03</pdfrwt>
<pdfrwt beam="2">  1        2 0.23151609E+00 0.12502886E+03</pdfrwt>
<totfact> 0.89428011E+03</totfact>
</mgrwt>
</event>
<event>
 4    1  0.4926234E+003  0.1061672E+03  0.7546771E-02  0.1267837E+00
         21   -1    0    0  501  502  0.00000000000E+00  0.00000000000E+00  0.66814323829E+01  0.66814323829E+01  0.00000000000E+00 0. -1.
          1   -1    0    0  503    0 -0.00000000000E+00 -0.00000000000E+00 -0.16936048338E+04  0.16936048338E+04  0.00000000000E+00 0. -1.
         21    1    1    2  503  502  0.27070465434E+02 -0.10265801412E+03 -0.79031198541E+03  0.79741113125E+03  0.00000000000E+00 0. -1.
          1    1    1    2  501    0 -0.27070465434E+02  0.10265801412E+03 -0.89661141596E+03  0.90287513489E+03  0.00000000000E+00 0. -1.
<mgrwt>
<rscale>  2 0.10616722E+03</rscale>
<asrwt>0</asrwt>
<pdfrwt beam="1">  1       21 0.10279118E-02 0.10616722E+03</pdfrwt>
<pdfrwt beam="2">  1        1 0.26055481E+00 0.10616722E+03</pdfrwt>
<totfact> 0.21705518E+05</totfact>
</mgrwt>
</event>
<event>
 4    1  0.4926234E+003  0.1125207E+03  0.7546771E-02  0.1255972E+00
         21   -1    0    0  501  502  0.00000000000E+00  0.00000000000E+00  0.31219015040E+02  0.31219015040E+02  0.00000000000E+00 0.  1.
          1   -1    0    0  503    0 -0.00000000000E+00 -0.00000000000E+00 -0.40816876324E+03  0.40816876324E+03  0.00000000000E+00 0.  1.
         21    1    1    2  503  502  0.73406790857E+01 -0.11228094731E+03 -0.17088027369E+03  0.20459952256E+03  0.00000000000E+00 0.  1.
          1    1    1    2  501    0 -0.73406790857E+01  0.11228094731E+03 -0.20606947451E+03  0.23478825572E+03  0.00000000000E+00 0.  1.
<mgrwt>
<rscale>  2 0.11252065E+03</rscale>
<asrwt>0</asrwt>
<pdfrwt beam="1">  1       21 0.48029254E-02 0.11252065E+03</pdfrwt>
<pdfrwt beam="2">  1        1 0.62795194E-01 0.11252065E+03</pdfrwt>
<totfact> 0.18301321E+05</totfact>
</mgrwt>
</event>
<event>
 4    1  0.4926234E+003  0.1237930E+03  0.7546771E-02  0.1236968E+00
          2   -1    0    0  502    0 -0.00000000000E+00  0.00000000000E+00  0.86893897371E+02  0.86893897371E+02  0.00000000000E+00 0. -1.
         21   -1    0    0  503  502  0.00000000000E+00 -0.00000000000E+00 -0.43284777676E+03  0.43284777676E+03  0.00000000000E+00 0.  1.
         21    1    1    2  503  501  0.10670281376E+03 -0.62763233879E+02 -0.37301942938E+03  0.39302443778E+03  0.00000000000E+00 0.  1.
          2    1    1    2  501    0 -0.10670281376E+03  0.62763233879E+02  0.27065550000E+02  0.12671723635E+03  0.00000000000E+00 0. -1.
<mgrwt>
<rscale>  2 0.12379303E+03</rscale>
<asrwt>0</asrwt>
<pdfrwt beam="2">  1       21 0.66591966E-01 0.12379303E+03</pdfrwt>
<pdfrwt beam="1">  1        2 0.13368292E-01 0.12379303E+03</pdfrwt>
<totfact> 0.11384537E+04</totfact>
</mgrwt>
</event>
<event>
 4    1  0.4926234E+003  0.1252210E+03  0.7546771E-02  0.1234724E+00
         -3   -1    0    0    0  501 -0.00000000000E+00  0.00000000000E+00  0.58524851017E+02  0.58524851017E+02  0.00000000000E+00 0.  1.
         21   -1    0    0  503  502  0.00000000000E+00 -0.00000000000E+00 -0.12322095760E+04  0.12322095760E+04  0.00000000000E+00 0.  1.
         21    1    1    2  503  501  0.10523080285E+03  0.67873236086E+02 -0.11577516568E+04  0.11645038415E+04  0.00000000000E+00 0.  1.
         -3    1    1    2    0  502 -0.10523080285E+03 -0.67873236086E+02 -0.15933068128E+02  0.12623058546E+03  0.00000000000E+00 0.  1.
<mgrwt>
<rscale>  2 0.12522100E+03</rscale>
<asrwt>0</asrwt>
<pdfrwt beam="2">  1       21 0.18957066E+00 0.12522100E+03</pdfrwt>
<pdfrwt beam="1">  1       -3 0.90038251E-02 0.12522100E+03</pdfrwt>
<totfact> 0.69557575E+02</totfact>
</mgrwt>
</event>
<event>
 4    1  0.4926234E+003  0.1083470E+03  0.7546771E-02  0.1263662E+00
          1   -1    0    0  503    0 -0.00000000000E+00  0.00000000000E+00  0.17912978072E+04  0.17912978072E+04  0.00000000000E+00 0. -1.
         21   -1    0    0  501  502  0.00000000000E+00 -0.00000000000E+00 -0.16030979956E+02  0.16030979956E+02  0.00000000000E+00 0. -1.
         21    1    1    2  503  502 -0.56158729915E+02  0.92656780482E+02  0.19280754310E+03  0.22116471371E+03  0.00000000000E+00 0. -1.
          1    1    1    2  501    0  0.56158729915E+02 -0.92656780482E+02  0.15824592842E+04  0.15861640735E+04  0.00000000000E+00 0. -1.
<mgrwt>
<rscale>  2 0.10834704E+03</rscale>
<asrwt>0</asrwt>
<pdfrwt beam="2">  1       21 0.24663060E-02 0.10834704E+03</pdfrwt>
<pdfrwt beam="1">  1        1 0.27558412E+00 0.10834704E+03</pdfrwt>
<totfact> 0.46667566E+04</totfact>
</mgrwt>
</event>
<event>
 4    1  0.4926234E+003  0.1510544E+03  0.7546771E-02  0.1199183E+00
         21   -1    0    0  501  502  0.00000000000E+00  0.00000000000E+00  0.19768759187E+03  0.19768759187E+03  0.00000000000E+00 0.  1.
          2   -1    0    0  503    0 -0.00000000000E+00 -0.00000000000E+00 -0.11622833017E+03  0.11622833017E+03  0.00000000000E+00 0.  1.
         21    1    1    2  503  502  0.11470281544E+03 -0.98288767614E+02  0.27653113155E+02  0.15356468466E+03  0.00000000000E+00 0.  1.
          2    1    1    2  501    0 -0.11470281544E+03  0.98288767614E+02  0.53806148545E+02  0.16035123738E+03  0.00000000000E+00 0.  1.
<mgrwt>
<rscale>  2 0.15105435E+03</rscale>
<asrwt>0</asrwt>
<pdfrwt beam="1">  1       21 0.30413476E-01 0.15105435E+03</pdfrwt>
<pdfrwt beam="2">  1        2 0.17881282E-01 0.15105435E+03</pdfrwt>
<totfact> 0.40058371E+04</totfact>
</mgrwt>
</event>
<event>
 4    1  0.4926234E+003  0.1290502E+03  0.7546771E-02  0.1228872E+00
         21   -1    0    0  503  502  0.00000000000E+00  0.00000000000E+00  0.21659501507E+03  0.21659501507E+03  0.00000000000E+00 0. -1.
         -1   -1    0    0    0  501 -0.00000000000E+00 -0.00000000000E+00 -0.26059620856E+03  0.26059620856E+03  0.00000000000E+00 0. -1.
         21    1    1    2  503  501  0.12136462561E+03  0.43870109627E+02  0.17832686870E+03  0.22012367199E+03  0.00000000000E+00 0. -1.
         -1    1    1    2    0  502 -0.12136462561E+03 -0.43870109627E+02 -0.22232806219E+03  0.25706755164E+03  0.00000000000E+00 0. -1.
<mgrwt>
<rscale>  2 0.12905022E+03</rscale>
<asrwt>0</asrwt>
<pdfrwt beam="1">  1       21 0.33322310E-01 0.12905022E+03</pdfrwt>
<pdfrwt beam="2">  1       -1 0.40091724E-01 0.12905022E+03</pdfrwt>
<totfact> 0.49720477E+03</totfact>
</mgrwt>
</event>
<event>
 4    1  0.4926234E+003  0.1156100E+03  0.7546771E-02  0.1250520E+00
          2   -1    0    0  503    0 -0.00000000000E+00  0.00000000000E+00  0.30447416747E+03  0.30447416747E+03  0.00000000000E+00 0. -1.
         21   -1    0    0  501  502  0.00000000000E+00 -0.00000000000E+00 -0.74870001877E+02  0.74870001877E+02  0.00000000000E+00 0. -1.
         21    1    1    2  503  502 -0.11268564394E+03  0.25838172657E+02 -0.71916139859E+01  0.11583343571E+03  0.00000000000E+00 0. -1.
          2    1    1    2  501    0  0.11268564394E+03 -0.25838172657E+02  0.23679577958E+03  0.26351073364E+03  0.00000000000E+00 0. -1.
<mgrwt>
<rscale>  2 0.11560997E+03</rscale>
<asrwt>0</asrwt>
<pdfrwt beam="2">  1       21 0.11518462E-01 0.11560997E+03</pdfrwt>
<pdfrwt beam="1">  1        2 0.46842179E-01 0.11560997E+03</pdfrwt>
<totfact> 0.83364498E+04</totfact>
</mgrwt>
</event>
<event>
 4    1  0.4926234E+003  0.1261818E+03  0.7546771E-02  0.1233234E+00
         21   -1    0    0  501  502  0.00000000000E+00  0.00000000000E+00  0.12635991869E+02  0.12635991869E+02  0.00000000000E+00 0. -1.
          2   -1    0    0  503    0 -0.00000000000E+00 -0.00000000000E+00 -0.15210164617E+04  0.15210164617E+04  0.00000000000E+00 0. -1.
         21    1    1    2  503  502  0.77957423189E+02 -0.99219375186E+02 -0.43655301120E+03  0.45442312423E+03  0.00000000000E+00 0. -1.
          2    1    1    2  501    0 -0.77957423189E+02  0.99219375186E+02 -0.10718274587E+04  0.10792293294E+04  0.00000000000E+00 0. -1.
<mgrwt>
<rscale>  2 0.12618179E+03</rscale>
<asrwt>0</asrwt>
<pdfrwt beam="1">  1       21 0.19439984E-02 0.12618179E+03</pdfrwt>
<pdfrwt beam="2">  1        2 0.23400257E+00 0.12618179E+03</pdfrwt>
<totfact> 0.21978950E+05</totfact>
</mgrwt>
</event>
<event>
 4    1  0.4926234E+003  0.1039202E+03  0.7546771E-02  0.1272262E+00
          2   -1    0    0  502    0 -0.00000000000E+00  0.00000000000E+00  0.33087242169E+04  0.33087242169E+04  0.00000000000E+00 0. -1.
         21   -1    0    0  503  502  0.00000000000E+00 -0.00000000000E+00 -0.12105314518E+03  0.12105314518E+03  0.00000000000E+00 0. -1.
         21    1    1    2  503  501 -0.10277497472E+02 -0.10341073626E+03 -0.97776161591E+02  0.14268701799E+03  0.00000000000E+00 0. -1.
          2    1    1    2  501    0  0.10277497472E+02  0.10341073626E+03  0.32854472333E+04  0.32870903441E+04  0.00000000000E+00 0. -1.
<mgrwt>
<rscale>  2 0.10392020E+03</rscale>
<asrwt>0</asrwt>
<pdfrwt beam="2">  1       21 0.18623563E-01 0.10392020E+03</pdfrwt>
<pdfrwt beam="1">  1        2 0.50903443E+00 0.10392020E+03</pdfrwt>
<totfact> 0.52429424E+02</totfact>
</mgrwt>
</event>
<event>
 4    1  0.4926234E+003  0.1794727E+03  0.7546771E-02  0.1168314E+00
          4   -1    0    0  503    0 -0.00000000000E+00  0.00000000000E+00  0.31825892811E+02  0.31825892811E+02  0.00000000000E+00 0.  1.
         21   -1    0    0  501  502  0.00000000000E+00 -0.00000000000E+00 -0.10836859036E+04  0.10836859036E+04  0.00000000000E+00 0.  1.
         21    1    1    2  503  502 -0.17605814871E+03 -0.34842038728E+02 -0.66930001615E+03  0.69294512843E+03  0.00000000000E+00 0.  1.
          4    1    1    2  501    0  0.17605814871E+03  0.34842038728E+02 -0.38255999462E+03  0.42256666796E+03  0.00000000000E+00 0.  1.
<mgrwt>
<rscale>  2 0.17947267E+03</rscale>
<asrwt>0</asrwt>
<pdfrwt beam="2">  1       21 0.16672089E+00 0.17947267E+03</pdfrwt>
<pdfrwt beam="1">  1        4 0.48962916E-02 0.17947267E+03</pdfrwt>
<totfact> 0.23435783E+03</totfact>
</mgrwt>
</event>
<event>
 4    1  0.4926234E+003  0.1880321E+03  0.7546771E-02  0.1160248E+00
          1   -1    0    0  502    0 -0.00000000000E+00  0.00000000000E+00  0.23182478407E+03  0.23182478407E+03  0.00000000000E+00 0.  1.
         21   -1    0    0  503  502  0.00000000000E+00 -0.00000000000E+00 -0.10204068388E+04  0.10204068388E+04  0.00000000000E+00 0.  1.
         21    1    1    2  503  501 -0.12641939624E+03 -0.13919123624E+03 -0.97172394906E+03  0.98974920923E+03  0.00000000000E+00 0.  1.
          1    1    1    2  501    0  0.12641939624E+03  0.13919123624E+03  0.18314189435E+03  0.26248241361E+03  0.00000000000E+00 0.  1.
<mgrwt>
<rscale>  2 0.18803208E+03</rscale>
<asrwt>0</asrwt>
<pdfrwt beam="2">  1       21 0.15698567E+00 0.18803208E+03</pdfrwt>
<pdfrwt beam="1">  1        1 0.35665352E-01 0.18803208E+03</pdfrwt>
<totfact> 0.35136714E+02</totfact>
</mgrwt>
</event>
<event>
 4    1  0.4926234E+003  0.1060856E+03  0.7546771E-02  0.1267995E+00
         -1   -1    0    0    0  501 -0.00000000000E+00  0.00000000000E+00  0.73547910703E+03  0.73547910703E+03  0.00000000000E+00 0. -1.
         21   -1    0    0  503  502  0.00000000000E+00 -0.00000000000E+00 -0.18668520451E+02  0.18668520451E+02  0.00000000000E+00 0. -1.
         21    1    1    2  503  501 -0.10320546739E+03  0.24551784001E+02  0.19827460647E+03  0.22487102563E+03  0.00000000000E+00 0. -1.
         -1    1    1    2    0  502  0.10320546739E+03 -0.24551784001E+02  0.51853598011E+03  0.52927660185E+03  0.00000000000E+00 0. -1.
<mgrwt>
<rscale>  2 0.10608562E+03</rscale>
<asrwt>0</asrwt>
<pdfrwt beam="2">  1       21 0.28720806E-02 0.10608562E+03</pdfrwt>
<pdfrwt beam="1">  1       -1 0.11315061E+00 0.10608562E+03</pdfrwt>
<totfact> 0.47833337E+04</totfact>
</mgrwt>
</event>
<event>
 4    1  0.4926234E+003  0.1473244E+03  0.7546771E-02  0.1203800E+00
         21   -1    0    0  503  502  0.00000000000E+00  0.00000000000E+00  0.15180898010E+03  0.15180898010E+03  0.00000000000E+00 0. -1.
          1   -1    0    0  502    0 -0.00000000000E+00 -0.00000000000E+00 -0.11902007972E+04  0.11902007972E+04  0.00000000000E+00 0.  1.
         21    1    1    2  503  501 -0.58990241128E+02 -0.13499867041E+03  0.11021791564E+03  0.18399043043E+03  0.00000000000E+00 0. -1.
          1    1    1    2  501    0  0.58990241128E+02  0.13499867041E+03 -0.11486097327E+04  0.11580193468E+04  0.00000000000E+00 0.  1.
<mgrwt>
<rscale>  2 0.14732444E+03</rscale>
<asrwt>0</asrwt>
<pdfrwt beam="1">  1       21 0.23355227E-01 0.14732444E+03</pdfrwt>
<pdfrwt beam="2">  1        1 0.18310782E+00 0.14732444E+03</pdfrwt>
<totfact> 0.23206551E+03</totfact>
</mgrwt>
</event>
<event>
 4    1  0.4926234E+003  0.1175955E+03  0.7546771E-02  0.1247117E+00
         21   -1    0    0  501  502  0.00000000000E+00  0.00000000000E+00  0.52001554348E+03  0.52001554348E+03  0.00000000000E+00 0.  1.
          1   -1    0    0  503    0 -0.00000000000E+00 -0.00000000000E+00 -0.50234809579E+02  0.50234809579E+02  0.00000000000E+00 0.  1.
         21    1    1    2  503  502 -0.61555445453E+02  0.10019791955E+03  0.43049309682E+03  0.44626561862E+03  0.00000000000E+00 0.  1.
          1    1    1    2  501    0  0.61555445453E+02 -0.10019791955E+03  0.39287637077E+02  0.12398473444E+03  0.00000000000E+00 0.  1.
<mgrwt>
<rscale>  2 0.11759548E+03</rscale>
<asrwt>0</asrwt>
<pdfrwt beam="1">  1       21 0.80002388E-01 0.11759548E+03</pdfrwt>
<pdfrwt beam="2">  1        1 0.77284326E-02 0.11759548E+03</pdfrwt>
<totfact> 0.13392872E+04</totfact>
</mgrwt>
</event>
<event>
 4    1  0.4926234E+003  0.1131156E+03  0.7546771E-02  0.1254907E+00
         -3   -1    0    0    0  501 -0.00000000000E+00  0.00000000000E+00  0.15179743025E+02  0.15179743025E+02  0.00000000000E+00 0.  1.
         21   -1    0    0  503  502  0.00000000000E+00 -0.00000000000E+00 -0.86468796440E+03  0.86468796440E+03  0.00000000000E+00 0.  1.
         21    1    1    2  503  501  0.13271540799E+02 -0.11233433469E+03 -0.49457411644E+03  0.50734474788E+03  0.00000000000E+00 0.  1.
         -3    1    1    2    0  502 -0.13271540799E+02  0.11233433469E+03 -0.35493410493E+03  0.37252295955E+03  0.00000000000E+00 0.  1.
<mgrwt>
<rscale>  2 0.11311559E+03</rscale>
<asrwt>0</asrwt>
<pdfrwt beam="2">  1       21 0.13302889E+00 0.11311559E+03</pdfrwt>
<pdfrwt beam="1">  1       -3 0.23353455E-02 0.11311559E+03</pdfrwt>
<totfact> 0.14817393E+04</totfact>
</mgrwt>
</event>
<event>
 4    1  0.4926234E+003  0.1157278E+03  0.7546771E-02  0.1250316E+00
         21   -1    0    0  501  502  0.00000000000E+00  0.00000000000E+00  0.25231601388E+03  0.25231601388E+03  0.00000000000E+00 0. -1.
          4   -1    0    0  503    0 -0.00000000000E+00 -0.00000000000E+00 -0.44167506662E+03  0.44167506662E+03  0.00000000000E+00 0.  1.
         21    1    1    2  503  502  0.74133357576E+01 -0.11549007246E+03  0.23079809714E+03  0.25818728867E+03  0.00000000000E+00 0. -1.
          4    1    1    2  501    0 -0.74133357576E+01  0.11549007246E+03 -0.42015714988E+03  0.43580379183E+03  0.00000000000E+00 0.  1.
<mgrwt>
<rscale>  2 0.11572776E+03</rscale>
<asrwt>0</asrwt>
<pdfrwt beam="1">  1       21 0.38817849E-01 0.11572776E+03</pdfrwt>
<pdfrwt beam="2">  1        4 0.67950009E-01 0.11572776E+03</pdfrwt>
<totfact> 0.54460129E+02</totfact>
</mgrwt>
</event>
<event>
 4    1  0.4926234E+003  0.1513427E+03  0.7546771E-02  0.1198833E+00
          2   -1    0    0  503    0 -0.00000000000E+00  0.00000000000E+00  0.12629894990E+04  0.12629894990E+04  0.00000000000E+00 0.  1.
         21   -1    0    0  501  502  0.00000000000E+00 -0.00000000000E+00 -0.18151305341E+02  0.18151305341E+02  0.00000000000E+00 0.  1.
         21    1    1    2  503  502  0.13689583527E+03  0.64530089559E+02  0.60335466672E+03  0.62204618480E+03  0.00000000000E+00 0.  1.
          2    1    1    2  501    0 -0.13689583527E+03 -0.64530089559E+02  0.64148352694E+03  0.65909461954E+03  0.00000000000E+00 0.  1.
<mgrwt>
<rscale>  2 0.15134266E+03</rscale>
<asrwt>0</asrwt>
<pdfrwt beam="2">  1       21 0.27925095E-02 0.15134266E+03</pdfrwt>
<pdfrwt beam="1">  1        2 0.19430601E+00 0.15134266E+03</pdfrwt>
<totfact> 0.16758877E+05</totfact>
</mgrwt>
</event>
<event>
 4    1  0.4926234E+003  0.1125537E+03  0.7546771E-02  0.1255913E+00
         21   -1    0    0  503  502  0.00000000000E+00  0.00000000000E+00  0.32201936390E+03  0.32201936390E+03  0.00000000000E+00 0.  1.
          2   -1    0    0  502    0 -0.00000000000E+00 -0.00000000000E+00 -0.22801452219E+03  0.22801452219E+03  0.00000000000E+00 0.  1.
         21    1    1    2  503  501 -0.26183979536E+02 -0.10946569724E+03  0.29717198733E+03  0.31777276427E+03  0.00000000000E+00 0.  1.
          2    1    1    2  501    0  0.26183979536E+02  0.10946569724E+03 -0.20316714562E+03  0.23226112183E+03  0.00000000000E+00 0.  1.
<mgrwt>
<rscale>  2 0.11255372E+03</rscale>
<asrwt>0</asrwt>
<pdfrwt beam="1">  1       21 0.49541441E-01 0.11255372E+03</pdfrwt>
<pdfrwt beam="2">  1        2 0.35079157E-01 0.11255372E+03</pdfrwt>
<totfact> 0.72303729E+03</totfact>
</mgrwt>
</event>
<event>
 4    1  0.4926234E+003  0.1132399E+03  0.7546771E-02  0.1254685E+00
          2   -1    0    0  502    0 -0.00000000000E+00  0.00000000000E+00  0.10721614903E+04  0.10721614903E+04  0.00000000000E+00 0. -1.
         21   -1    0    0  503  502  0.00000000000E+00 -0.00000000000E+00 -0.31729486577E+02  0.31729486577E+02  0.00000000000E+00 0.  1.
         21    1    1    2  503  501  0.90060740613E+02 -0.68646411339E+02  0.84543495232E+02  0.14131832640E+03  0.00000000000E+00 0.  1.
          2    1    1    2  501    0 -0.90060740613E+02  0.68646411339E+02  0.95588850846E+03  0.96257265045E+03  0.00000000000E+00 0. -1.
<mgrwt>
<rscale>  2 0.11323986E+03</rscale>
<asrwt>0</asrwt>
<pdfrwt beam="2">  1       21 0.48814603E-02 0.11323986E+03</pdfrwt>
<pdfrwt beam="1">  1        2 0.16494789E+00 0.11323986E+03</pdfrwt>
<totfact> 0.84713228E+04</totfact>
</mgrwt>
</event>
<event>
 4    1  0.4926234E+003  0.2061502E+03  0.7546771E-02  0.1144651E+00
         21   -1    0    0  501  502  0.00000000000E+00  0.00000000000E+00  0.29082492133E+02  0.29082492133E+02  0.00000000000E+00 0. -1.
          2   -1    0    0  503    0 -0.00000000000E+00 -0.00000000000E+00 -0.18602886177E+04  0.18602886177E+04  0.00000000000E+00 0. -1.
         21    1    1    2  503  502 -0.94831441073E+02  0.18304341977E+03 -0.47809716340E+03  0.52064843550E+03  0.00000000000E+00 0. -1.
          2    1    1    2  501    0  0.94831441073E+02 -0.18304341977E+03 -0.13531089621E+04  0.13687226743E+04  0.00000000000E+00 0. -1.
<mgrwt>
<rscale>  2 0.20615018E+03</rscale>
<asrwt>0</asrwt>
<pdfrwt beam="1">  1       21 0.44742295E-02 0.20615018E+03</pdfrwt>
<pdfrwt beam="2">  1        2 0.28619825E+00 0.20615018E+03</pdfrwt>
<totfact> 0.36823266E+04</totfact>
</mgrwt>
</event>
<event>
 4    1  0.4926234E+003  0.1178957E+03  0.7546771E-02  0.1246609E+00
          2   -1    0    0  503    0 -0.00000000000E+00  0.00000000000E+00  0.17853916678E+04  0.17853916678E+04  0.00000000000E+00 0. -1.
         21   -1    0    0  501  502  0.00000000000E+00 -0.00000000000E+00 -0.98854455825E+01  0.98854455825E+01  0.00000000000E+00 0. -1.
         21    1    1    2  503  502 -0.99281094559E+02  0.63581981110E+02  0.47399019136E+03  0.48843229374E+03  0.00000000000E+00 0. -1.
          2    1    1    2  501    0  0.99281094559E+02 -0.63581981110E+02  0.13015160309E+04  0.13068448197E+04  0.00000000000E+00 0. -1.
<mgrwt>
<rscale>  2 0.11789573E+03</rscale>
<asrwt>0</asrwt>
<pdfrwt beam="2">  1       21 0.15208392E-02 0.11789573E+03</pdfrwt>
<pdfrwt beam="1">  1        2 0.27467539E+00 0.11789573E+03</pdfrwt>
<totfact> 0.23833781E+05</totfact>
</mgrwt>
</event>
<event>
 4    1  0.4926234E+003  0.1473291E+03  0.7546771E-02  0.1203794E+00
         21   -1    0    0  503  502  0.00000000000E+00  0.00000000000E+00  0.30427978805E+02  0.30427978805E+02  0.00000000000E+00 0. -1.
          2   -1    0    0  502    0 -0.00000000000E+00 -0.00000000000E+00 -0.19867086462E+04  0.19867086462E+04  0.00000000000E+00 0.  1.
         21    1    1    2  503  501  0.46981795545E+02  0.13963731232E+03 -0.17069484947E+03  0.22548303647E+03  0.00000000000E+00 0. -1.
          2    1    1    2  501    0 -0.46981795545E+02 -0.13963731232E+03 -0.17855858180E+04  0.17916535886E+04  0.00000000000E+00 0.  1.
<mgrwt>
<rscale>  2 0.14732911E+03</rscale>
<asrwt>0</asrwt>
<pdfrwt beam="1">  1       21 0.46812274E-02 0.14732911E+03</pdfrwt>
<pdfrwt beam="2">  1        2 0.30564749E+00 0.14732911E+03</pdfrwt>
<totfact> 0.29852202E+04</totfact>
</mgrwt>
</event>
<event>
 4    1  0.4926234E+003  0.1189329E+03  0.7546771E-02  0.1244868E+00
         21   -1    0    0  503  502  0.00000000000E+00  0.00000000000E+00  0.25276983978E+02  0.25276983978E+02  0.00000000000E+00 0.  1.
          1   -1    0    0  502    0 -0.00000000000E+00 -0.00000000000E+00 -0.67573649543E+03  0.67573649543E+03  0.00000000000E+00 0.  1.
         21    1    1    2  503  501 -0.21783775859E+02  0.11692094588E+03 -0.17992190900E+03  0.21567784729E+03  0.00000000000E+00 0.  1.
          1    1    1    2  501    0  0.21783775859E+02 -0.11692094588E+03 -0.47053760245E+03  0.48533563211E+03  0.00000000000E+00 0.  1.
<mgrwt>
<rscale>  2 0.11893292E+03</rscale>
<asrwt>0</asrwt>
<pdfrwt beam="1">  1       21 0.38887670E-02 0.11893292E+03</pdfrwt>
<pdfrwt beam="2">  1        1 0.10395946E+00 0.11893292E+03</pdfrwt>
<totfact> 0.13419693E+05</totfact>
</mgrwt>
</event>
<event>
 4    1  0.4926234E+003  0.1266292E+03  0.7546771E-02  0.1232545E+00
          2   -1    0    0  503    0 -0.00000000000E+00  0.00000000000E+00  0.13803009645E+04  0.13803009645E+04  0.00000000000E+00 0.  1.
         21   -1    0    0  501  502  0.00000000000E+00 -0.00000000000E+00 -0.35059196585E+03  0.35059196585E+03  0.00000000000E+00 0. -1.
         21    1    1    2  503  502  0.94645401799E+02 -0.84126184097E+02 -0.33613271787E+03  0.35919377911E+03  0.00000000000E+00 0. -1.
          2    1    1    2  501    0 -0.94645401799E+02  0.84126184097E+02  0.13658417165E+04  0.13716991513E+04  0.00000000000E+00 0.  1.
<mgrwt>
<rscale>  2 0.12662925E+03</rscale>
<asrwt>0</asrwt>
<pdfrwt beam="2">  1       21 0.53937226E-01 0.12662925E+03</pdfrwt>
<pdfrwt beam="1">  1        2 0.21235399E+00 0.12662925E+03</pdfrwt>
<totfact> 0.69801785E+02</totfact>
</mgrwt>
</event>
<event>
 4    1  0.4926234E+003  0.1231891E+03  0.7546771E-02  0.1237927E+00
         21   -1    0    0  501  502  0.00000000000E+00  0.00000000000E+00  0.31642017327E+02  0.31642017327E+02  0.00000000000E+00 0. -1.
          3   -1    0    0  503    0 -0.00000000000E+00 -0.00000000000E+00 -0.16543465204E+04  0.16543465204E+04  0.00000000000E+00 0.  1.
         21    1    1    2  503  502 -0.25426356115E+02 -0.12053651801E+03 -0.10098451338E+03  0.15929037542E+03  0.00000000000E+00 0. -1.
          3    1    1    2  501    0  0.25426356115E+02  0.12053651801E+03 -0.15217199897E+04  0.15266981623E+04  0.00000000000E+00 0.  1.
<mgrwt>
<rscale>  2 0.12318909E+03</rscale>
<asrwt>0</asrwt>
<pdfrwt beam="1">  1       21 0.48680019E-02 0.12318909E+03</pdfrwt>
<pdfrwt beam="2">  1        3 0.25451489E+00 0.12318909E+03</pdfrwt>
<totfact> 0.11058788E+03</totfact>
</mgrwt>
</event>
<event>
 4    1  0.4926234E+003  0.1094640E+03  0.7546771E-02  0.1261566E+00
          3   -1    0    0  503    0 -0.00000000000E+00  0.00000000000E+00  0.13477003892E+04  0.13477003892E+04  0.00000000000E+00 0.  1.
         21   -1    0    0  501  502  0.00000000000E+00 -0.00000000000E+00 -0.25482167096E+02  0.25482167096E+02  0.00000000000E+00 0. -1.
         21    1    1    2  503  502  0.98697058849E+02 -0.47341941033E+02  0.10709743905E+03  0.15314121019E+03  0.00000000000E+00 0. -1.
          3    1    1    2  501    0 -0.98697058849E+02  0.47341941033E+02  0.12151207830E+04  0.12200413461E+04  0.00000000000E+00 0.  1.
<mgrwt>
<rscale>  2 0.10946401E+03</rscale>
<asrwt>0</asrwt>
<pdfrwt beam="2">  1       21 0.39203344E-02 0.10946401E+03</pdfrwt>
<pdfrwt beam="1">  1        3 0.20733847E+00 0.10946401E+03</pdfrwt>
<totfact> 0.28877753E+03</totfact>
</mgrwt>
</event>
<event>
 4    1  0.4926234E+003  0.2400803E+03  0.7546771E-02  0.1119739E+00
         21   -1    0    0  501  502  0.00000000000E+00  0.00000000000E+00  0.24539123294E+03  0.24539123294E+03  0.00000000000E+00 0. -1.
          1   -1    0    0  503    0 -0.00000000000E+00 -0.00000000000E+00 -0.11407053163E+04  0.11407053163E+04  0.00000000000E+00 0.  1.
         21    1    1    2  503  502  0.23531881506E+02  0.23892426723E+03  0.16992967072E+03  0.29413372453E+03  0.00000000000E+00 0. -1.
          1    1    1    2  501    0 -0.23531881506E+02 -0.23892426723E+03 -0.10652437541E+04  0.10919628247E+04  0.00000000000E+00 0.  1.
<mgrwt>
<rscale>  2 0.24008031E+03</rscale>
<asrwt>0</asrwt>
<pdfrwt beam="1">  1       21 0.37752498E-01 0.24008031E+03</pdfrwt>
<pdfrwt beam="2">  1        1 0.17549312E+00 0.24008031E+03</pdfrwt>
<totfact> 0.93780586E+02</totfact>
</mgrwt>
</event>
<event>
 4    1  0.4926234E+003  0.1815718E+03  0.7546771E-02  0.1166290E+00
          1   -1    0    0  502    0 -0.00000000000E+00  0.00000000000E+00  0.13240950800E+04  0.13240950800E+04  0.00000000000E+00 0.  1.
         21   -1    0    0  503  502  0.00000000000E+00 -0.00000000000E+00 -0.32688284751E+02  0.32688284751E+02  0.00000000000E+00 0. -1.
         21    1    1    2  503  501 -0.12700840372E+03  0.12975816659E+03  0.31454168282E+03  0.36318698579E+03  0.00000000000E+00 0. -1.
          1    1    1    2  501    0  0.12700840372E+03 -0.12975816659E+03  0.97686511246E+03  0.99359637900E+03  0.00000000000E+00 0.  1.
<mgrwt>
<rscale>  2 0.18157179E+03</rscale>
<asrwt>0</asrwt>
<pdfrwt beam="2">  1       21 0.50289679E-02 0.18157179E+03</pdfrwt>
<pdfrwt beam="1">  1        1 0.20370689E+00 0.18157179E+03</pdfrwt>
<totfact> 0.28399246E+04</totfact>
</mgrwt>
</event>
<event>
 4    1  0.4926234E+003  0.1179388E+03  0.7546771E-02  0.1246537E+00
         -3   -1    0    0    0  501 -0.00000000000E+00  0.00000000000E+00  0.10381923771E+03  0.10381923771E+03  0.00000000000E+00 0. -1.
         21   -1    0    0  503  502  0.00000000000E+00 -0.00000000000E+00 -0.24419566867E+03  0.24419566867E+03  0.00000000000E+00 0. -1.
         21    1    1    2  503  501  0.16724152905E+02  0.11674699969E+03 -0.18709056550E+03  0.22116156747E+03  0.00000000000E+00 0. -1.
         -3    1    1    2    0  502 -0.16724152905E+02 -0.11674699969E+03  0.46714134546E+02  0.12685333891E+03  0.00000000000E+00 0. -1.
<mgrwt>
<rscale>  2 0.11793879E+03</rscale>
<asrwt>0</asrwt>
<pdfrwt beam="2">  1       21 0.37568564E-01 0.11793879E+03</pdfrwt>
<pdfrwt beam="1">  1       -3 0.15972191E-01 0.11793879E+03</pdfrwt>
<totfact> 0.10953538E+04</totfact>
</mgrwt>
</event>
<event>
 4    1  0.4926234E+003  0.1092687E+03  0.7546771E-02  0.1261930E+00
         21   -1    0    0  501  502  0.00000000000E+00  0.00000000000E+00  0.23583933976E+02  0.23583933976E+02  0.00000000000E+00 0.  1.
          2   -1    0    0  503    0 -0.00000000000E+00 -0.00000000000E+00 -0.82960915836E+03  0.82960915836E+03  0.00000000000E+00 0. -1.
         21    1    1    2  503  502 -0.89943728074E+02  0.62046489164E+02 -0.13668552838E+03  0.17499307045E+03  0.00000000000E+00 0.  1.
          2    1    1    2  501    0  0.89943728074E+02 -0.62046489164E+02 -0.66933969601E+03  0.67820002189E+03  0.00000000000E+00 0. -1.
<mgrwt>
<rscale>  2 0.10926866E+03</rscale>
<asrwt>0</asrwt>
<pdfrwt beam="1">  1       21 0.36282972E-02 0.10926866E+03</pdfrwt>
<pdfrwt beam="2">  1        2 0.12763219E+00 0.10926866E+03</pdfrwt>
<totfact> 0.19462711E+05</totfact>
</mgrwt>
</event>
<event>
 4    1  0.4926234E+003  0.1367966E+03  0.7546771E-02  0.1217706E+00
         -1   -1    0    0    0  501 -0.00000000000E+00  0.00000000000E+00  0.57503419392E+03  0.57503419392E+03  0.00000000000E+00 0.  1.
         21   -1    0    0  503  502  0.00000000000E+00 -0.00000000000E+00 -0.33947649146E+02  0.33947649146E+02  0.00000000000E+00 0. -1.
         21    1    1    2  503  501  0.12605273439E+03  0.53141402149E+02  0.20860437721E+03  0.24945758489E+03  0.00000000000E+00 0. -1.
         -1    1    1    2    0  502 -0.12605273439E+03 -0.53141402149E+02  0.33248216756E+03  0.35952425818E+03  0.00000000000E+00 0.  1.
<mgrwt>
<rscale>  2 0.13679657E+03</rscale>
<asrwt>0</asrwt>
<pdfrwt beam="2">  1       21 0.52227157E-02 0.13679657E+03</pdfrwt>
<pdfrwt beam="1">  1       -1 0.88466792E-01 0.13679657E+03</pdfrwt>
<totfact> 0.30704863E+04</totfact>
</mgrwt>
</event>
<event>
 4    1  0.4926234E+003  0.1146397E+03  0.7546771E-02  0.1252211E+00
          2   -1    0    0  503    0 -0.00000000000E+00  0.00000000000E+00  0.11346488467E+04  0.11346488467E+04  0.00000000000E+00 0. -1.
         21   -1    0    0  501  502  0.00000000000E+00 -0.00000000000E+00 -0.85994254027E+02  0.85994254027E+02  0.00000000000E+00 0.  1.
         21    1    1    2  503  502 -0.53057397329E+02  0.10162269243E+03 -0.43405880237E+02  0.12258192961E+03  0.00000000000E+00 0.  1.
          2    1    1    2  501    0  0.53057397329E+02 -0.10162269243E+03  0.10920604729E+04  0.10980611712E+04  0.00000000000E+00 0. -1.
<mgrwt>
<rscale>  2 0.11463969E+03</rscale>
<asrwt>0</asrwt>
<pdfrwt beam="2">  1       21 0.13229886E-01 0.11463969E+03</pdfrwt>
<pdfrwt beam="1">  1        2 0.17456135E+00 0.11463969E+03</pdfrwt>
<totfact> 0.14030418E+04</totfact>
</mgrwt>
</event>
<event>
 4    1  0.4926234E+003  0.1174514E+03  0.7546771E-02  0.1247362E+00
          1   -1    0    0  503    0 -0.00000000000E+00  0.00000000000E+00  0.38696843600E+03  0.38696843600E+03  0.00000000000E+00 0. -1.
         21   -1    0    0  501  502  0.00000000000E+00 -0.00000000000E+00 -0.36109291861E+02  0.36109291861E+02  0.00000000000E+00 0. -1.
         21    1    1    2  503  502  0.10425495834E+03  0.54089972539E+02  0.15153160962E+03  0.19172023936E+03  0.00000000000E+00 0. -1.
          1    1    1    2  501    0 -0.10425495834E+03 -0.54089972539E+02  0.19932753452E+03  0.23135748850E+03  0.00000000000E+00 0. -1.
<mgrwt>
<rscale>  2 0.11745136E+03</rscale>
<asrwt>0</asrwt>
<pdfrwt beam="2">  1       21 0.55552759E-02 0.11745136E+03</pdfrwt>
<pdfrwt beam="1">  1        1 0.59533603E-01 0.11745136E+03</pdfrwt>
<totfact> 0.15357815E+05</totfact>
</mgrwt>
</event>
<event>
 4    1  0.4926234E+003  0.2145643E+03  0.7546771E-02  0.1138002E+00
          2   -1    0    0  502    0 -0.00000000000E+00  0.00000000000E+00  0.78972455841E+03  0.78972455841E+03  0.00000000000E+00 0. -1.
         21   -1    0    0  503  502  0.00000000000E+00 -0.00000000000E+00 -0.22931389631E+03  0.22931389631E+03  0.00000000000E+00 0. -1.
         21    1    1    2  503  501  0.90164251118E+02 -0.19470040234E+03 -0.15980824920E+03  0.26753787650E+03  0.00000000000E+00 0. -1.
          2    1    1    2  501    0 -0.90164251118E+02  0.19470040234E+03  0.72021891131E+03  0.75150057822E+03  0.00000000000E+00 0. -1.
<mgrwt>
<rscale>  2 0.21456430E+03</rscale>
<asrwt>0</asrwt>
<pdfrwt beam="2">  1       21 0.35279061E-01 0.21456430E+03</pdfrwt>
<pdfrwt beam="1">  1        2 0.12149608E+00 0.21456430E+03</pdfrwt>
<totfact> 0.35019341E+03</totfact>
</mgrwt>
</event>
<event>
 4    1  0.4926234E+003  0.1211423E+03  0.7546771E-02  0.1241224E+00
         21   -1    0    0  503  502  0.00000000000E+00  0.00000000000E+00  0.37950294272E+02  0.37950294272E+02  0.00000000000E+00 0. -1.
          2   -1    0    0  502    0 -0.00000000000E+00 -0.00000000000E+00 -0.80229048101E+03  0.80229048101E+03  0.00000000000E+00 0. -1.
         21    1    1    2  503  501 -0.12101724224E+03 -0.55030652773E+01 -0.79799423726E+02  0.14506345051E+03  0.00000000000E+00 0. -1.
          2    1    1    2  501    0  0.12101724224E+03  0.55030652773E+01 -0.68454076301E+03  0.69517732477E+03  0.00000000000E+00 0. -1.
<mgrwt>
<rscale>  2 0.12114230E+03</rscale>
<asrwt>0</asrwt>
<pdfrwt beam="1">  1       21 0.58385068E-02 0.12114230E+03</pdfrwt>
<pdfrwt beam="2">  1        2 0.12342930E+00 0.12114230E+03</pdfrwt>
<totfact> 0.92005089E+04</totfact>
</mgrwt>
</event>
<event>
 4    1  0.4926234E+003  0.1509868E+03  0.7546771E-02  0.1199266E+00
         21   -1    0    0  503  502  0.00000000000E+00  0.00000000000E+00  0.13974038497E+02  0.13974038497E+02  0.00000000000E+00 0. -1.
          2   -1    0    0  502    0 -0.00000000000E+00 -0.00000000000E+00 -0.17021847227E+04  0.17021847227E+04  0.00000000000E+00 0.  1.
         21    1    1    2  503  501 -0.14734248100E+03  0.32972680343E+02 -0.66910172716E+03  0.68592574353E+03  0.00000000000E+00 0. -1.
          2    1    1    2  501    0  0.14734248100E+03 -0.32972680343E+02 -0.10191089571E+04  0.10302330177E+04  0.00000000000E+00 0.  1.
<mgrwt>
<rscale>  2 0.15098677E+03</rscale>
<asrwt>0</asrwt>
<pdfrwt beam="1">  1       21 0.21498511E-02 0.15098677E+03</pdfrwt>
<pdfrwt beam="2">  1        2 0.26187469E+00 0.15098677E+03</pdfrwt>
<totfact> 0.15080010E+05</totfact>
</mgrwt>
</event>
<event>
 4    1  0.4926234E+003  0.1158114E+03  0.7546771E-02  0.1250171E+00
         -3   -1    0    0    0  501 -0.00000000000E+00  0.00000000000E+00  0.30001535583E+03  0.30001535583E+03  0.00000000000E+00 0. -1.
         21   -1    0    0  503  502  0.00000000000E+00 -0.00000000000E+00 -0.57382054318E+02  0.57382054318E+02  0.00000000000E+00 0. -1.
         21    1    1    2  503  501  0.10849154422E+03 -0.40520000666E+02  0.37324853472E+02  0.12167756699E+03  0.00000000000E+00 0. -1.
         -3    1    1    2    0  502 -0.10849154422E+03  0.40520000666E+02  0.20530844804E+03  0.23571984316E+03  0.00000000000E+00 0. -1.
<mgrwt>
<rscale>  2 0.11581142E+03</rscale>
<asrwt>0</asrwt>
<pdfrwt beam="2">  1       21 0.88280085E-02 0.11581142E+03</pdfrwt>
<pdfrwt beam="1">  1       -3 0.46156208E-01 0.11581142E+03</pdfrwt>
<totfact> 0.22523103E+04</totfact>
</mgrwt>
</event>
<event>
 4    1  0.4926234E+003  0.1083544E+03  0.7546771E-02  0.1263648E+00
         -3   -1    0    0    0  501 -0.00000000000E+00  0.00000000000E+00  0.31123190420E+03  0.31123190420E+03  0.00000000000E+00 0. -1.
         21   -1    0    0  503  502  0.00000000000E+00 -0.00000000000E+00 -0.55492870534E+02  0.55492870534E+02  0.00000000000E+00 0. -1.
         21    1    1    2  503  501 -0.10771557974E+03  0.11748664942E+02  0.24109316286E+02  0.11100421784E+03  0.00000000000E+00 0. -1.
         -3    1    1    2    0  502  0.10771557974E+03 -0.11748664942E+02  0.23162971738E+03  0.25572055690E+03  0.00000000000E+00 0. -1.
<mgrwt>
<rscale>  2 0.10835441E+03</rscale>
<asrwt>0</asrwt>
<pdfrwt beam="2">  1       21 0.85373649E-02 0.10835441E+03</pdfrwt>
<pdfrwt beam="1">  1       -3 0.47881830E-01 0.10835441E+03</pdfrwt>
<totfact> 0.22073778E+04</totfact>
</mgrwt>
</event>
<event>
 4    1  0.4926234E+003  0.1211114E+03  0.7546771E-02  0.1241275E+00
         -4   -1    0    0    0  501 -0.00000000000E+00  0.00000000000E+00  0.26661541826E+03  0.26661541826E+03  0.00000000000E+00 0.  1.
         21   -1    0    0  503  502  0.00000000000E+00 -0.00000000000E+00 -0.11262435280E+03  0.11262435280E+03  0.00000000000E+00 0.  1.
         21    1    1    2  503  501 -0.12039624712E+03  0.13142359094E+02 -0.58620918737E+02  0.13455255492E+03  0.00000000000E+00 0.  1.
         -4    1    1    2    0  502  0.12039624712E+03 -0.13142359094E+02  0.21261198420E+03  0.24468721615E+03  0.00000000000E+00 0.  1.
<mgrwt>
<rscale>  2 0.12111143E+03</rscale>
<asrwt>0</asrwt>
<pdfrwt beam="2">  1       21 0.17326824E-01 0.12111143E+03</pdfrwt>
<pdfrwt beam="1">  1       -4 0.41017756E-01 0.12111143E+03</pdfrwt>
<totfact> 0.70962381E+03</totfact>
</mgrwt>
</event>
<event>
 4    1  0.4926234E+003  0.1445523E+03  0.7546771E-02  0.1207331E+00
          1   -1    0    0  503    0 -0.00000000000E+00  0.00000000000E+00  0.10609624561E+04  0.10609624561E+04  0.00000000000E+00 0.  1.
         21   -1    0    0  501  502  0.00000000000E+00 -0.00000000000E+00 -0.23968804820E+02  0.23968804820E+02  0.00000000000E+00 0.  1.
         21    1    1    2  503  502 -0.13651962401E+03  0.47515973346E+02  0.28942599322E+03  0.32351627628E+03  0.00000000000E+00 0.  1.
          1    1    1    2  501    0  0.13651962401E+03 -0.47515973346E+02  0.74756765809E+03  0.76141498468E+03  0.00000000000E+00 0.  1.
<mgrwt>
<rscale>  2 0.14455233E+03</rscale>
<asrwt>0</asrwt>
<pdfrwt beam="2">  1       21 0.36875093E-02 0.14455233E+03</pdfrwt>
<pdfrwt beam="1">  1        1 0.16322496E+00 0.14455233E+03</pdfrwt>
<totfact> 0.72920687E+04</totfact>
</mgrwt>
</event>
<event>
 4    1  0.4926234E+003  0.1993648E+03  0.7546771E-02  0.1150276E+00
          1   -1    0    0  502    0 -0.00000000000E+00  0.00000000000E+00  0.26767113597E+03  0.26767113597E+03  0.00000000000E+00 0.  1.
         21   -1    0    0  503  502  0.00000000000E+00 -0.00000000000E+00 -0.90117348727E+03  0.90117348727E+03  0.00000000000E+00 0.  1.
         21    1    1    2  503  501  0.19186148473E+03 -0.54180275991E+02 -0.85085900750E+03  0.87390353145E+03  0.00000000000E+00 0.  1.
          1    1    1    2  501    0 -0.19186148473E+03  0.54180275991E+02  0.21735665621E+03  0.29494109179E+03  0.00000000000E+00 0.  1.
<mgrwt>
<rscale>  2 0.19936482E+03</rscale>
<asrwt>0</asrwt>
<pdfrwt beam="2">  1       21 0.13864208E+00 0.19936482E+03</pdfrwt>
<pdfrwt beam="1">  1        1 0.41180175E-01 0.19936482E+03</pdfrwt>
<totfact> 0.40352458E+02</totfact>
</mgrwt>
</event>
<event>
 4    1  0.4926234E+003  0.1196786E+03  0.7546771E-02  0.1243628E+00
         -1   -1    0    0    0  501 -0.00000000000E+00  0.00000000000E+00  0.20823902298E+03  0.20823902298E+03  0.00000000000E+00 0. -1.
         21   -1    0    0  503  502  0.00000000000E+00 -0.00000000000E+00 -0.17923404555E+03  0.17923404555E+03  0.00000000000E+00 0. -1.
         21    1    1    2  503  501  0.10739962160E+03  0.52804242654E+02 -0.13758356076E+03  0.18235186578E+03  0.00000000000E+00 0. -1.
         -1    1    1    2    0  502 -0.10739962160E+03 -0.52804242654E+02  0.16658853820E+03  0.20512120275E+03  0.00000000000E+00 0. -1.
<mgrwt>
<rscale>  2 0.11967860E+03</rscale>
<asrwt>0</asrwt>
<pdfrwt beam="2">  1       21 0.27574469E-01 0.11967860E+03</pdfrwt>
<pdfrwt beam="1">  1       -1 0.32036773E-01 0.11967860E+03</pdfrwt>
<totfact> 0.10547111E+04</totfact>
</mgrwt>
</event>
<event>
 4    1  0.4926234E+003  0.1511654E+03  0.7546771E-02  0.1199048E+00
         21   -1    0    0  501  502  0.00000000000E+00  0.00000000000E+00  0.31534600162E+03  0.31534600162E+03  0.00000000000E+00 0. -1.
          1   -1    0    0  503    0 -0.00000000000E+00 -0.00000000000E+00 -0.42601623893E+03  0.42601623893E+03  0.00000000000E+00 0.  1.
         21    1    1    2  503  502  0.14077332739E+03  0.55080261834E+02  0.28235216548E+03  0.32027130733E+03  0.00000000000E+00 0. -1.
          1    1    1    2  501    0 -0.14077332739E+03 -0.55080261834E+02 -0.39302240279E+03  0.42109093322E+03  0.00000000000E+00 0.  1.
<mgrwt>
<rscale>  2 0.15116536E+03</rscale>
<asrwt>0</asrwt>
<pdfrwt beam="1">  1       21 0.48514770E-01 0.15116536E+03</pdfrwt>
<pdfrwt beam="2">  1        1 0.65540960E-01 0.15116536E+03</pdfrwt>
<totfact> 0.25382682E+03</totfact>
</mgrwt>
</event>
<event>
 4    1  0.4926234E+003  0.1178443E+03  0.7546771E-02  0.1246696E+00
         21   -1    0    0  503  502  0.00000000000E+00  0.00000000000E+00  0.27522171755E+03  0.27522171755E+03  0.00000000000E+00 0. -1.
         -1   -1    0    0    0  501 -0.00000000000E+00 -0.00000000000E+00 -0.71404924426E+02  0.71404924426E+02  0.00000000000E+00 0. -1.
         21    1    1    2  503  501  0.76248771108E+01  0.11759736829E+03  0.19577749205E+03  0.22850843786E+03  0.00000000000E+00 0. -1.
         -1    1    1    2    0  502 -0.76248771108E+01 -0.11759736829E+03  0.80393010701E+01  0.11811820411E+03  0.00000000000E+00 0. -1.
<mgrwt>
<rscale>  2 0.11784430E+03</rscale>
<asrwt>0</asrwt>
<pdfrwt beam="1">  1       21 0.42341802E-01 0.11784430E+03</pdfrwt>
<pdfrwt beam="2">  1       -1 0.10985373E-01 0.11784430E+03</pdfrwt>
<totfact> 0.25177012E+04</totfact>
</mgrwt>
</event>
<event>
 4    1  0.4926234E+003  0.1067621E+03  0.7546771E-02  0.1266686E+00
          1   -1    0    0  502    0 -0.00000000000E+00  0.00000000000E+00  0.17043558246E+03  0.17043558246E+03  0.00000000000E+00 0. -1.
         21   -1    0    0  503  502  0.00000000000E+00 -0.00000000000E+00 -0.22500321832E+03  0.22500321832E+03  0.00000000000E+00 0. -1.
         21    1    1    2  503  501  0.94140215800E+02  0.50356437160E+02 -0.19303530049E+03  0.22059188161E+03  0.00000000000E+00 0. -1.
          1    1    1    2  501    0 -0.94140215800E+02 -0.50356437160E+02  0.13846766464E+03  0.17484691917E+03  0.00000000000E+00 0. -1.
<mgrwt>
<rscale>  2 0.10676212E+03</rscale>
<asrwt>0</asrwt>
<pdfrwt beam="2">  1       21 0.34615880E-01 0.10676212E+03</pdfrwt>
<pdfrwt beam="1">  1        1 0.26220859E-01 0.10676212E+03</pdfrwt>
<totfact> 0.15786388E+04</totfact>
</mgrwt>
</event>
<event>
 4    1  0.4926234E+003  0.1359531E+03  0.7546771E-02  0.1218880E+00
          1   -1    0    0  502    0 -0.00000000000E+00  0.00000000000E+00  0.23114287588E+03  0.23114287588E+03  0.00000000000E+00 0. -1.
         21   -1    0    0  503  502  0.00000000000E+00 -0.00000000000E+00 -0.94238173777E+02  0.94238173777E+02  0.00000000000E+00 0.  1.
         21    1    1    2  503  501 -0.94624769164E+02  0.97618664954E+02  0.51361296269E+01  0.13605010296E+03  0.00000000000E+00 0.  1.
          1    1    1    2  501    0  0.94624769164E+02 -0.97618664954E+02  0.13176857248E+03  0.18933094670E+03  0.00000000000E+00 0. -1.
<mgrwt>
<rscale>  2 0.13595312E+03</rscale>
<asrwt>0</asrwt>
<pdfrwt beam="2">  1       21 0.14498181E-01 0.13595312E+03</pdfrwt>
<pdfrwt beam="1">  1        1 0.35560442E-01 0.13595312E+03</pdfrwt>
<totfact> 0.55133341E+04</totfact>
</mgrwt>
</event>
<event>
 4    1  0.4926234E+003  0.1985177E+03  0.7546771E-02  0.1150996E+00
         21   -1    0    0  503  502  0.00000000000E+00  0.00000000000E+00  0.35042769092E+02  0.35042769092E+02  0.00000000000E+00 0.  1.
         -3   -1    0    0    0  501 -0.00000000000E+00 -0.00000000000E+00 -0.13926323702E+04  0.13926323702E+04  0.00000000000E+00 0.  1.
         21    1    1    2  503  501  0.18972684216E+03  0.58420900198E+02 -0.36563164213E+03  0.41604780248E+03  0.00000000000E+00 0.  1.
         -3    1    1    2    0  502 -0.18972684216E+03 -0.58420900198E+02 -0.99195795894E+03  0.10116273368E+04  0.00000000000E+00 0.  1.
<mgrwt>
<rscale>  2 0.19851770E+03</rscale>
<asrwt>0</asrwt>
<pdfrwt beam="1">  1       21 0.53911958E-02 0.19851770E+03</pdfrwt>
<pdfrwt beam="2">  1       -3 0.21425111E+00 0.19851770E+03</pdfrwt>
<totfact> 0.15427764E+03</totfact>
</mgrwt>
</event>
<event>
 4    1  0.4926234E+003  0.1038789E+03  0.7546771E-02  0.1272344E+00
         -3   -1    0    0    0  501 -0.00000000000E+00  0.00000000000E+00  0.18495053014E+02  0.18495053014E+02  0.00000000000E+00 0.  1.
         21   -1    0    0  503  502  0.00000000000E+00 -0.00000000000E+00 -0.13878629424E+04  0.13878629424E+04  0.00000000000E+00 0.  1.
         21    1    1    2  503  501  0.10321967478E+03 -0.11684578508E+02 -0.12200288854E+04  0.12244432661E+04  0.00000000000E+00 0.  1.
         -3    1    1    2    0  502 -0.10321967478E+03  0.11684578508E+02 -0.14933900398E+03  0.18191472933E+03  0.00000000000E+00 0.  1.
<mgrwt>
<rscale>  2 0.10387892E+03</rscale>
<asrwt>0</asrwt>
<pdfrwt beam="2">  1       21 0.21351748E+00 0.10387892E+03</pdfrwt>
<pdfrwt beam="1">  1       -3 0.28453914E-02 0.10387892E+03</pdfrwt>
<totfact> 0.30650002E+03</totfact>
</mgrwt>
</event>
<event>
 4    1  0.4926234E+003  0.1005121E+03  0.7546771E-02  0.1279223E+00
          1   -1    0    0  503    0 -0.00000000000E+00  0.00000000000E+00  0.10923244159E+03  0.10923244159E+03  0.00000000000E+00 0. -1.
         21   -1    0    0  501  502  0.00000000000E+00 -0.00000000000E+00 -0.13583233356E+03  0.13583233356E+03  0.00000000000E+00 0.  1.
         21    1    1    2  503  502 -0.27969495155E+02  0.96542151580E+02 -0.82517453325E+02  0.13004541435E+03  0.00000000000E+00 0.  1.
          1    1    1    2  501    0  0.27969495155E+02 -0.96542151580E+02  0.55917561352E+02  0.11501936080E+03  0.00000000000E+00 0. -1.
<mgrwt>
<rscale>  2 0.10051209E+03</rscale>
<asrwt>0</asrwt>
<pdfrwt beam="2">  1       21 0.20897282E-01 0.10051209E+03</pdfrwt>
<pdfrwt beam="1">  1        1 0.16804991E-01 0.10051209E+03</pdfrwt>
<totfact> 0.71808137E+04</totfact>
</mgrwt>
</event>
<event>
 4    1  0.4926234E+003  0.1034731E+03  0.7546771E-02  0.1273158E+00
         21   -1    0    0  503  502  0.00000000000E+00  0.00000000000E+00  0.70851630971E+02  0.70851630971E+02  0.00000000000E+00 0. -1.
          1   -1    0    0  502    0 -0.00000000000E+00 -0.00000000000E+00 -0.64707897952E+03  0.64707897952E+03  0.00000000000E+00 0. -1.
         21    1    1    2  503  501 -0.73509775403E+02  0.72821658994E+02  0.26153692922E+02  0.10672720718E+03  0.00000000000E+00 0. -1.
          1    1    1    2  501    0  0.73509775403E+02 -0.72821658994E+02 -0.60238104147E+03  0.61120340331E+03  0.00000000000E+00 0. -1.
<mgrwt>
<rscale>  2 0.10347309E+03</rscale>
<asrwt>0</asrwt>
<pdfrwt beam="1">  1       21 0.10900251E-01 0.10347309E+03</pdfrwt>
<pdfrwt beam="2">  1        1 0.99550615E-01 0.10347309E+03</pdfrwt>
<totfact> 0.24702280E+04</totfact>
</mgrwt>
</event>
<event>
 4    1  0.4926234E+003  0.1472669E+03  0.7546771E-02  0.1203872E+00
          2   -1    0    0  502    0 -0.00000000000E+00  0.00000000000E+00  0.27812340486E+04  0.27812340486E+04  0.00000000000E+00 0. -1.
         21   -1    0    0  503  502  0.00000000000E+00 -0.00000000000E+00 -0.79273533765E+01  0.79273533765E+01  0.00000000000E+00 0. -1.
         21    1    1    2  503  501 -0.12471360363E+03  0.78320260258E+02  0.12083825268E+04  0.12173232427E+04  0.00000000000E+00 0. -1.
          2    1    1    2  501    0  0.12471360363E+03 -0.78320260258E+02  0.15649241684E+04  0.15718381593E+04  0.00000000000E+00 0. -1.
<mgrwt>
<rscale>  2 0.14726692E+03</rscale>
<asrwt>0</asrwt>
<pdfrwt beam="2">  1       21 0.12195950E-02 0.14726692E+03</pdfrwt>
<pdfrwt beam="1">  1        2 0.42788138E+00 0.14726692E+03</pdfrwt>
<totfact> 0.10143081E+05</totfact>
</mgrwt>
</event>
<event>
 4    1  0.4926234E+003  0.1325357E+03  0.7546771E-02  0.1223741E+00
          1   -1    0    0  503    0 -0.00000000000E+00  0.00000000000E+00  0.52341761930E+03  0.52341761930E+03  0.00000000000E+00 0.  1.
         21   -1    0    0  501  502  0.00000000000E+00 -0.00000000000E+00 -0.59670695964E+03  0.59670695964E+03  0.00000000000E+00 0. -1.
         21    1    1    2  503  502  0.11612943398E+02  0.13202592875E+03 -0.58072971776E+03  0.59566157456E+03  0.00000000000E+00 0. -1.
          1    1    1    2  501    0 -0.11612943398E+02 -0.13202592875E+03  0.50744037742E+03  0.52446300437E+03  0.00000000000E+00 0.  1.
<mgrwt>
<rscale>  2 0.13253568E+03</rscale>
<asrwt>0</asrwt>
<pdfrwt beam="2">  1       21 0.91801070E-01 0.13253568E+03</pdfrwt>
<pdfrwt beam="1">  1        1 0.80525788E-01 0.13253568E+03</pdfrwt>
<totfact> 0.49262268E+02</totfact>
</mgrwt>
</event>
<event>
 4    1  0.4926234E+003  0.1079976E+03  0.7546771E-02  0.1264324E+00
         21   -1    0    0  501  502  0.00000000000E+00  0.00000000000E+00  0.15970878661E+03  0.15970878661E+03  0.00000000000E+00 0. -1.
         -3   -1    0    0    0  501 -0.00000000000E+00 -0.00000000000E+00 -0.52631970106E+03  0.52631970106E+03  0.00000000000E+00 0. -1.
         21    1    1    2  503  502  0.69240327013E+02  0.82880993841E+02  0.13502296684E+03  0.17290079120E+03  0.00000000000E+00 0. -1.
         -3    1    1    2    0  503 -0.69240327013E+02 -0.82880993841E+02 -0.50163388129E+03  0.51312769647E+03  0.00000000000E+00 0. -1.
<mgrwt>
<rscale>  2 0.10799760E+03</rscale>
<asrwt>0</asrwt>
<pdfrwt beam="1">  1       21 0.24570583E-01 0.10799760E+03</pdfrwt>
<pdfrwt beam="2">  1       -3 0.80972261E-01 0.10799760E+03</pdfrwt>
<totfact> 0.11212025E+03</totfact>
</mgrwt>
</event>
<event>
 4    1  0.4926234E+003  0.1514710E+03  0.7546771E-02  0.1198677E+00
         21   -1    0    0  503  502  0.00000000000E+00  0.00000000000E+00  0.72568345068E+02  0.72568345068E+02  0.00000000000E+00 0. -1.
         -1   -1    0    0    0  501 -0.00000000000E+00 -0.00000000000E+00 -0.11203390181E+04  0.11203390181E+04  0.00000000000E+00 0. -1.
         21    1    1    2  503  501  0.12168940762E+03  0.90195114350E+02 -0.18552657096E+02  0.15260298708E+03  0.00000000000E+00 0. -1.
         -1    1    1    2    0  502 -0.12168940762E+03 -0.90195114350E+02 -0.10292180160E+04  0.10403043761E+04  0.00000000000E+00 0. -1.
<mgrwt>
<rscale>  2 0.15147102E+03</rscale>
<asrwt>0</asrwt>
<pdfrwt beam="1">  1       21 0.11164361E-01 0.15147102E+03</pdfrwt>
<pdfrwt beam="2">  1       -1 0.17235984E+00 0.15147102E+03</pdfrwt>
<totfact> 0.16644589E+03</totfact>
</mgrwt>
</event>
<event>
 4    1  0.4926234E+003  0.1242898E+03  0.7546771E-02  0.1236183E+00
          2   -1    0    0  502    0 -0.00000000000E+00  0.00000000000E+00  0.13856134135E+04  0.13856134135E+04  0.00000000000E+00 0. -1.
         21   -1    0    0  503  502  0.00000000000E+00 -0.00000000000E+00 -0.23131122455E+02  0.23131122455E+02  0.00000000000E+00 0.  1.
         21    1    1    2  503  501  0.75357280643E+02  0.98839416328E+02  0.17428067907E+03  0.21406005014E+03  0.00000000000E+00 0.  1.
          2    1    1    2  501    0 -0.75357280643E+02 -0.98839416328E+02  0.11882016120E+04  0.11946844858E+04  0.00000000000E+00 0. -1.
<mgrwt>
<rscale>  2 0.12428978E+03</rscale>
<asrwt>0</asrwt>
<pdfrwt beam="2">  1       21 0.35586353E-02 0.12428978E+03</pdfrwt>
<pdfrwt beam="1">  1        2 0.21317123E+00 0.12428978E+03</pdfrwt>
<totfact> 0.96515963E+04</totfact>
</mgrwt>
</event>
<event>
 4    1  0.4926234E+003  0.1250675E+03  0.7546771E-02  0.1234964E+00
          2   -1    0    0  502    0 -0.00000000000E+00  0.00000000000E+00  0.32141063651E+04  0.32141063651E+04  0.00000000000E+00 0.  1.
         21   -1    0    0  503  502  0.00000000000E+00 -0.00000000000E+00 -0.45407940565E+02  0.45407940565E+02  0.00000000000E+00 0. -1.
         21    1    1    2  503  501 -0.79366589102E+02 -0.96658308252E+02  0.44401922505E+02  0.13271554069E+03  0.00000000000E+00 0. -1.
          2    1    1    2  501    0  0.79366589102E+02  0.96658308252E+02  0.31242965020E+04  0.31267987650E+04  0.00000000000E+00 0.  1.
<mgrwt>
<rscale>  2 0.12506752E+03</rscale>
<asrwt>0</asrwt>
<pdfrwt beam="2">  1       21 0.69858396E-02 0.12506752E+03</pdfrwt>
<pdfrwt beam="1">  1        2 0.49447772E+00 0.12506752E+03</pdfrwt>
<totfact> 0.32773387E+03</totfact>
</mgrwt>
</event>
<event>
 4    1  0.4926234E+003  0.1034918E+03  0.7546771E-02  0.1273120E+00
          4   -1    0    0  503    0 -0.00000000000E+00  0.00000000000E+00  0.31527583402E+02  0.31527583402E+02  0.00000000000E+00 0.  1.
         21   -1    0    0  501  502  0.00000000000E+00 -0.00000000000E+00 -0.49395553226E+03  0.49395553226E+03  0.00000000000E+00 0. -1.
         21    1    1    2  503  502  0.29447682037E+02 -0.99213837907E+02 -0.37803120184E+03  0.39194150223E+03  0.00000000000E+00 0. -1.
          4    1    1    2  501    0 -0.29447682037E+02  0.99213837907E+02 -0.84396747019E+02  0.13354161343E+03  0.00000000000E+00 0.  1.
<mgrwt>
<rscale>  2 0.10349179E+03</rscale>
<asrwt>0</asrwt>
<pdfrwt beam="2">  1       21 0.75993155E-01 0.10349179E+03</pdfrwt>
<pdfrwt beam="1">  1        4 0.48503977E-02 0.10349179E+03</pdfrwt>
<totfact> 0.15587888E+04</totfact>
</mgrwt>
</event>
<event>
 4    1  0.4926234E+003  0.1025691E+03  0.7546771E-02  0.1274984E+00
          1   -1    0    0  503    0 -0.00000000000E+00  0.00000000000E+00  0.15517250142E+04  0.15517250142E+04  0.00000000000E+00 0. -1.
         21   -1    0    0  501  502  0.00000000000E+00 -0.00000000000E+00 -0.11399276305E+02  0.11399276305E+02  0.00000000000E+00 0.  1.
         21    1    1    2  503  502 -0.72241578872E+02  0.72811931525E+02  0.27263191957E+03  0.29128780726E+03  0.00000000000E+00 0.  1.
          1    1    1    2  501    0  0.72241578872E+02 -0.72811931525E+02  0.12676938184E+04  0.12718364833E+04  0.00000000000E+00 0. -1.
<mgrwt>
<rscale>  2 0.10256911E+03</rscale>
<asrwt>0</asrwt>
<pdfrwt beam="2">  1       21 0.17537360E-02 0.10256911E+03</pdfrwt>
<pdfrwt beam="1">  1        1 0.23872676E+00 0.10256911E+03</pdfrwt>
<totfact> 0.11458116E+05</totfact>
</mgrwt>
</event>
<event>
 4    1  0.4926234E+003  0.3848799E+03  0.7546771E-02  0.1049145E+00
          1   -1    0    0  503    0 -0.00000000000E+00  0.00000000000E+00  0.31533248128E+04  0.31533248128E+04  0.00000000000E+00 0. -1.
         21   -1    0    0  501  502  0.00000000000E+00 -0.00000000000E+00 -0.72282486230E+02  0.72282486230E+02  0.00000000000E+00 0. -1.
         21    1    1    2  503  502 -0.30701121801E+03  0.23211347241E+03  0.58624180113E+03  0.70129309240E+03  0.00000000000E+00 0. -1.
          1    1    1    2  501    0  0.30701121801E+03 -0.23211347241E+03  0.24948005254E+04  0.25243142066E+04  0.00000000000E+00 0. -1.
<mgrwt>
<rscale>  2 0.38487992E+03</rscale>
<asrwt>0</asrwt>
<pdfrwt beam="2">  1       21 0.11120385E-01 0.38487992E+03</pdfrwt>
<pdfrwt beam="1">  1        1 0.48512679E+00 0.38487992E+03</pdfrwt>
<totfact> 0.39609757E+02</totfact>
</mgrwt>
</event>
<event>
 4    1  0.4926234E+003  0.1049635E+03  0.7546771E-02  0.1270192E+00
         21   -1    0    0  501  502  0.00000000000E+00  0.00000000000E+00  0.67802623380E+01  0.67802623380E+01  0.00000000000E+00 0. -1.
          1   -1    0    0  503    0 -0.00000000000E+00 -0.00000000000E+00 -0.31647917536E+04  0.31647917536E+04  0.00000000000E+00 0.  1.
         21    1    1    2  503  502 -0.18932448501E+02  0.10324194827E+03 -0.47285261311E+03  0.48436239657E+03  0.00000000000E+00 0. -1.
          1    1    1    2  501    0  0.18932448501E+02 -0.10324194827E+03 -0.26851588781E+04  0.26872096193E+04  0.00000000000E+00 0.  1.
<mgrwt>
<rscale>  2 0.10496351E+03</rscale>
<asrwt>0</asrwt>
<pdfrwt beam="1">  1       21 0.10431183E-02 0.10496351E+03</pdfrwt>
<pdfrwt beam="2">  1        1 0.48689056E+00 0.10496351E+03</pdfrwt>
<totfact> 0.23429686E+04</totfact>
</mgrwt>
</event>
<event>
 4    1  0.4926234E+003  0.1288796E+03  0.7546771E-02  0.1229128E+00
         21   -1    0    0  501  502  0.00000000000E+00  0.00000000000E+00  0.40949844225E+02  0.40949844225E+02  0.00000000000E+00 0. -1.
          2   -1    0    0  503    0 -0.00000000000E+00 -0.00000000000E+00 -0.43957385183E+03  0.43957385183E+03  0.00000000000E+00 0. -1.
         21    1    1    2  503  502  0.68431599803E+02  0.10921110208E+03 -0.13253402521E+03  0.18486540105E+03  0.00000000000E+00 0. -1.
          2    1    1    2  501    0 -0.68431599803E+02 -0.10921110208E+03 -0.26608998240E+03  0.29565829500E+03  0.00000000000E+00 0. -1.
<mgrwt>
<rscale>  2 0.12887959E+03</rscale>
<asrwt>0</asrwt>
<pdfrwt beam="1">  1       21 0.62999762E-02 0.12887959E+03</pdfrwt>
<pdfrwt beam="2">  1        2 0.67626745E-01 0.12887959E+03</pdfrwt>
<totfact> 0.16088706E+05</totfact>
</mgrwt>
</event>
<event>
 4    1  0.4926234E+003  0.1682724E+03  0.7546771E-02  0.1179662E+00
         21   -1    0    0  501  502  0.00000000000E+00  0.00000000000E+00  0.14209245267E+03  0.14209245267E+03  0.00000000000E+00 0.  1.
          2   -1    0    0  503    0 -0.00000000000E+00 -0.00000000000E+00 -0.43763012062E+03  0.43763012062E+03  0.00000000000E+00 0.  1.
         21    1    1    2  503  502 -0.16583217546E+03 -0.28553324654E+02  0.66149509750E+02  0.18080752309E+03  0.00000000000E+00 0.  1.
          2    1    1    2  501    0  0.16583217546E+03  0.28553324654E+02 -0.36168717769E+03  0.39891505020E+03  0.00000000000E+00 0.  1.
<mgrwt>
<rscale>  2 0.16827241E+03</rscale>
<asrwt>0</asrwt>
<pdfrwt beam="1">  1       21 0.21860378E-01 0.16827241E+03</pdfrwt>
<pdfrwt beam="2">  1        2 0.67327709E-01 0.16827241E+03</pdfrwt>
<totfact> 0.17703359E+04</totfact>
</mgrwt>
</event>
<event>
 4    1  0.4926234E+003  0.1078565E+03  0.7546771E-02  0.1264592E+00
         21   -1    0    0  503  502  0.00000000000E+00  0.00000000000E+00  0.93488334455E+02  0.93488334455E+02  0.00000000000E+00 0.  1.
          2   -1    0    0  502    0 -0.00000000000E+00 -0.00000000000E+00 -0.16340389633E+03  0.16340389633E+03  0.00000000000E+00 0.  1.
         21    1    1    2  503  501 -0.10334812962E+03  0.30857473126E+02  0.27770130063E+02  0.11137414272E+03  0.00000000000E+00 0.  1.
          2    1    1    2  501    0  0.10334812962E+03 -0.30857473126E+02 -0.97685691935E+02  0.14551808806E+03  0.00000000000E+00 0.  1.
<mgrwt>
<rscale>  2 0.10785648E+03</rscale>
<asrwt>0</asrwt>
<pdfrwt beam="1">  1       21 0.14382821E-01 0.10785648E+03</pdfrwt>
<pdfrwt beam="2">  1        2 0.25139061E-01 0.10785648E+03</pdfrwt>
<totfact> 0.10902058E+05</totfact>
</mgrwt>
</event>
<event>
 4    1  0.4926234E+003  0.1076118E+03  0.7546771E-02  0.1265057E+00
         -3   -1    0    0    0  501 -0.00000000000E+00  0.00000000000E+00  0.96042018187E+03  0.96042018187E+03  0.00000000000E+00 0.  1.
         21   -1    0    0  503  502  0.00000000000E+00 -0.00000000000E+00 -0.73368118166E+02  0.73368118166E+02  0.00000000000E+00 0. -1.
         21    1    1    2  503  501 -0.22458440084E+02  0.10524223822E+03 -0.28988982220E+02  0.11144806560E+03  0.00000000000E+00 0. -1.
         -3    1    1    2    0  502  0.22458440084E+02 -0.10524223822E+03  0.91604104592E+03  0.92234023443E+03  0.00000000000E+00 0.  1.
<mgrwt>
<rscale>  2 0.10761185E+03</rscale>
<asrwt>0</asrwt>
<pdfrwt beam="2">  1       21 0.11287404E-01 0.10761185E+03</pdfrwt>
<pdfrwt beam="1">  1       -3 0.14775694E+00 0.10761185E+03</pdfrwt>
<totfact> 0.11482865E+03</totfact>
</mgrwt>
</event>
<event>
 4    1  0.4926234E+003  0.1110410E+03  0.7546771E-02  0.1258654E+00
          2   -1    0    0  503    0 -0.00000000000E+00  0.00000000000E+00  0.34292358217E+03  0.34292358217E+03  0.00000000000E+00 0.  1.
         21   -1    0    0  501  502  0.00000000000E+00 -0.00000000000E+00 -0.13590252574E+03  0.13590252574E+03  0.00000000000E+00 0.  1.
         21    1    1    2  503  502 -0.10036786201E+03  0.47501483546E+02 -0.10180334888E+03  0.15064534678E+03  0.00000000000E+00 0.  1.
          2    1    1    2  501    0  0.10036786201E+03 -0.47501483546E+02  0.30882440531E+03  0.32818076113E+03  0.00000000000E+00 0.  1.
<mgrwt>
<rscale>  2 0.11104098E+03</rscale>
<asrwt>0</asrwt>
<pdfrwt beam="2">  1       21 0.20908081E-01 0.11104098E+03</pdfrwt>
<pdfrwt beam="1">  1        2 0.52757474E-01 0.11104098E+03</pdfrwt>
<totfact> 0.25095959E+04</totfact>
</mgrwt>
</event>
<event>
 4    1  0.4926234E+003  0.1140934E+03  0.7546771E-02  0.1253172E+00
         21   -1    0    0  503  502  0.00000000000E+00  0.00000000000E+00  0.66310559338E+02  0.66310559338E+02  0.00000000000E+00 0.  1.
          1   -1    0    0  502    0 -0.00000000000E+00 -0.00000000000E+00 -0.20550419153E+03  0.20550419153E+03  0.00000000000E+00 0.  1.
         21    1    1    2  503  501 -0.10939692915E+03 -0.32397764626E+02 -0.40847128198E+02  0.12118494602E+03  0.00000000000E+00 0.  1.
          1    1    1    2  501    0  0.10939692915E+03  0.32397764626E+02 -0.98346503993E+02  0.15062980485E+03  0.00000000000E+00 0.  1.
<mgrwt>
<rscale>  2 0.11409340E+03</rscale>
<asrwt>0</asrwt>
<pdfrwt beam="1">  1       21 0.10201625E-01 0.11409340E+03</pdfrwt>
<pdfrwt beam="2">  1        1 0.31616029E-01 0.11409340E+03</pdfrwt>
<totfact> 0.11820647E+05</totfact>
</mgrwt>
</event>
<event>
 4    1  0.4926234E+003  0.2439657E+03  0.7546771E-02  0.1117179E+00
          2   -1    0    0  503    0 -0.00000000000E+00  0.00000000000E+00  0.14195954807E+04  0.14195954807E+04  0.00000000000E+00 0.  1.
         21   -1    0    0  501  502  0.00000000000E+00 -0.00000000000E+00 -0.94756012094E+02  0.94756012094E+02  0.00000000000E+00 0.  1.
         21    1    1    2  503  502  0.24354630626E+03  0.14299715543E+02  0.97053554416E+02  0.26256175955E+03  0.00000000000E+00 0.  1.
          2    1    1    2  501    0 -0.24354630626E+03 -0.14299715543E+02  0.12277859142E+04  0.12517897332E+04  0.00000000000E+00 0.  1.
<mgrwt>
<rscale>  2 0.24396575E+03</rscale>
<asrwt>0</asrwt>
<pdfrwt beam="2">  1       21 0.14577849E-01 0.24396575E+03</pdfrwt>
<pdfrwt beam="1">  1        2 0.21839929E+00 0.24396575E+03</pdfrwt>
<totfact> 0.78556315E+03</totfact>
</mgrwt>
</event>
<event>
 4    1  0.4926234E+003  0.1147738E+03  0.7546771E-02  0.1251976E+00
          2   -1    0    0  503    0 -0.00000000000E+00  0.00000000000E+00  0.28274928896E+04  0.28274928896E+04  0.00000000000E+00 0. -1.
         21   -1    0    0  501  502  0.00000000000E+00 -0.00000000000E+00 -0.70497415675E+01  0.70497415675E+01  0.00000000000E+00 0.  1.
         21    1    1    2  503  502 -0.11341294698E+03  0.17622028956E+02  0.58486622821E+03  0.59602142357E+03  0.00000000000E+00 0.  1.
          2    1    1    2  501    0  0.11341294698E+03 -0.17622028956E+02  0.22355769199E+04  0.22385212076E+04  0.00000000000E+00 0. -1.
<mgrwt>
<rscale>  2 0.11477383E+03</rscale>
<asrwt>0</asrwt>
<pdfrwt beam="2">  1       21 0.10845779E-02 0.11477383E+03</pdfrwt>
<pdfrwt beam="1">  1        2 0.43499800E+00 0.11477383E+03</pdfrwt>
<totfact> 0.11601527E+05</totfact>
</mgrwt>
</event>
<event>
 4    1  0.4926234E+003  0.1032687E+03  0.7546771E-02  0.1273569E+00
         -3   -1    0    0    0  501 -0.00000000000E+00  0.00000000000E+00  0.33119015668E+02  0.33119015668E+02  0.00000000000E+00 0. -1.
         21   -1    0    0  503  502  0.00000000000E+00 -0.00000000000E+00 -0.40233218575E+03  0.40233218575E+03  0.00000000000E+00 0. -1.
         21    1    1    2  503  501 -0.99827320887E+02  0.26437197537E+02 -0.28189341129E+03  0.30021378173E+03  0.00000000000E+00 0. -1.
         -3    1    1    2    0  502  0.99827320887E+02 -0.26437197537E+02 -0.87319758788E+02  0.13523741969E+03  0.00000000000E+00 0. -1.
<mgrwt>
<rscale>  2 0.10326868E+03</rscale>
<asrwt>0</asrwt>
<pdfrwt beam="2">  1       21 0.61897263E-01 0.10326868E+03</pdfrwt>
<pdfrwt beam="1">  1       -3 0.50952329E-02 0.10326868E+03</pdfrwt>
<totfact> 0.25353094E+04</totfact>
</mgrwt>
</event>
<event>
 4    1  0.4926234E+003  0.1130306E+03  0.7546771E-02  0.1255058E+00
          1   -1    0    0  503    0 -0.00000000000E+00  0.00000000000E+00  0.83064374300E+03  0.83064374300E+03  0.00000000000E+00 0.  1.
         21   -1    0    0  501  502  0.00000000000E+00 -0.00000000000E+00 -0.22270520426E+02  0.22270520426E+02  0.00000000000E+00 0.  1.
         21    1    1    2  503  502  0.40013505149E+02  0.10571109916E+03  0.16698762577E+03  0.20164519395E+03  0.00000000000E+00 0.  1.
          1    1    1    2  501    0 -0.40013505149E+02 -0.10571109916E+03  0.64138559680E+03  0.65126906948E+03  0.00000000000E+00 0.  1.
<mgrwt>
<rscale>  2 0.11303060E+03</rscale>
<asrwt>0</asrwt>
<pdfrwt beam="2">  1       21 0.34262346E-02 0.11303060E+03</pdfrwt>
<pdfrwt beam="1">  1        1 0.12779132E+00 0.11303060E+03</pdfrwt>
<totfact> 0.12220210E+05</totfact>
</mgrwt>
</event>
<event>
 4    1  0.4926234E+003  0.1084755E+03  0.7546771E-02  0.1263419E+00
         21   -1    0    0  501  502  0.00000000000E+00  0.00000000000E+00  0.11944778150E+03  0.11944778150E+03  0.00000000000E+00 0. -1.
         -2   -1    0    0    0  501 -0.00000000000E+00 -0.00000000000E+00 -0.20000545793E+03  0.20000545793E+03  0.00000000000E+00 0.  1.
         21    1    1    2  503  502  0.84681076403E+02  0.67794199271E+02  0.73504120716E+02  0.13103356027E+03  0.00000000000E+00 0. -1.
         -2    1    1    2    0  503 -0.84681076403E+02 -0.67794199271E+02 -0.15406179715E+03  0.18841967916E+03  0.00000000000E+00 0.  1.
<mgrwt>
<rscale>  2 0.10847552E+03</rscale>
<asrwt>0</asrwt>
<pdfrwt beam="1">  1       21 0.18376582E-01 0.10847552E+03</pdfrwt>
<pdfrwt beam="2">  1       -2 0.30770070E-01 0.10847552E+03</pdfrwt>
<totfact> 0.21012028E+04</totfact>
</mgrwt>
</event>
<event>
 4    1  0.4926234E+003  0.1173928E+03  0.7546771E-02  0.1247461E+00
         21   -1    0    0  503  502  0.00000000000E+00  0.00000000000E+00  0.41389196267E+02  0.41389196267E+02  0.00000000000E+00 0. -1.
          1   -1    0    0  502    0 -0.00000000000E+00 -0.00000000000E+00 -0.39351738060E+03  0.39351738060E+03  0.00000000000E+00 0. -1.
         21    1    1    2  503  501 -0.51078648965E+01  0.11728160312E+03 -0.90762459372E+02  0.14838763003E+03  0.00000000000E+00 0. -1.
          1    1    1    2  501    0  0.51078648965E+01 -0.11728160312E+03 -0.26136572496E+03  0.28651894684E+03  0.00000000000E+00 0. -1.
<mgrwt>
<rscale>  2 0.11739278E+03</rscale>
<asrwt>0</asrwt>
<pdfrwt beam="1">  1       21 0.63675688E-02 0.11739278E+03</pdfrwt>
<pdfrwt beam="2">  1        1 0.60541134E-01 0.11739278E+03</pdfrwt>
<totfact> 0.11939562E+05</totfact>
</mgrwt>
</event>
<event>
 4    1  0.4926234E+003  0.1106264E+03  0.7546771E-02  0.1259414E+00
         21   -1    0    0  501  502  0.00000000000E+00  0.00000000000E+00  0.18821613883E+03  0.18821613883E+03  0.00000000000E+00 0.  1.
          2   -1    0    0  503    0 -0.00000000000E+00 -0.00000000000E+00 -0.81709649604E+03  0.81709649604E+03  0.00000000000E+00 0.  1.
         21    1    1    2  503  502 -0.10772516666E+03 -0.25169072145E+02  0.16780167034E+03  0.20098655252E+03  0.00000000000E+00 0.  1.
          2    1    1    2  501    0  0.10772516666E+03  0.25169072145E+02 -0.79668202755E+03  0.80432608235E+03  0.00000000000E+00 0.  1.
<mgrwt>
<rscale>  2 0.11062637E+03</rscale>
<asrwt>0</asrwt>
<pdfrwt beam="1">  1       21 0.28956328E-01 0.11062637E+03</pdfrwt>
<pdfrwt beam="2">  1        2 0.12570716E+00 0.11062637E+03</pdfrwt>
<totfact> 0.51660699E+03</totfact>
</mgrwt>
</event>
<event>
 4    1  0.4926234E+003  0.1493231E+03  0.7546771E-02  0.1201307E+00
         21   -1    0    0  501  502  0.00000000000E+00  0.00000000000E+00  0.96048219595E+03  0.96048219595E+03  0.00000000000E+00 0. -1.
          3   -1    0    0  503    0 -0.00000000000E+00 -0.00000000000E+00 -0.28189132678E+02  0.28189132678E+02  0.00000000000E+00 0. -1.
         21    1    1    2  503  502  0.70195737837E+02  0.13179506864E+03  0.67380489454E+03  0.69015245971E+03  0.00000000000E+00 0. -1.
          3    1    1    2  501    0 -0.70195737837E+02 -0.13179506864E+03  0.25848816873E+03  0.29851886892E+03  0.00000000000E+00 0. -1.
<mgrwt>
<rscale>  2 0.14932308E+03</rscale>
<asrwt>0</asrwt>
<pdfrwt beam="1">  1       21 0.14776647E+00 0.14932308E+03</pdfrwt>
<pdfrwt beam="2">  1        3 0.43367904E-02 0.14932308E+03</pdfrwt>
<totfact> 0.43784648E+03</totfact>
</mgrwt>
</event>
<event>
 4    1  0.4926234E+003  0.2203459E+03  0.7546771E-02  0.1133625E+00
          2   -1    0    0  503    0 -0.00000000000E+00  0.00000000000E+00  0.13263400301E+04  0.13263400301E+04  0.00000000000E+00 0.  1.
         21   -1    0    0  501  502  0.00000000000E+00 -0.00000000000E+00 -0.23102025777E+03  0.23102025777E+03  0.00000000000E+00 0.  1.
         21    1    1    2  503  502 -0.11373065651E+03  0.18872642605E+03 -0.16666840739E+03  0.27628008278E+03  0.00000000000E+00 0.  1.
          2    1    1    2  501    0  0.11373065651E+03 -0.18872642605E+03  0.12619881797E+04  0.12810802051E+04  0.00000000000E+00 0.  1.
<mgrwt>
<rscale>  2 0.22034592E+03</rscale>
<asrwt>0</asrwt>
<pdfrwt beam="2">  1       21 0.35541579E-01 0.22034592E+03</pdfrwt>
<pdfrwt beam="1">  1        2 0.20405231E+00 0.22034592E+03</pdfrwt>
<totfact> 0.16346898E+03</totfact>
</mgrwt>
</event>
<event>
 4    1  0.4926234E+003  0.1414922E+03  0.7546771E-02  0.1211335E+00
         21   -1    0    0  501  502  0.00000000000E+00  0.00000000000E+00  0.27029023029E+04  0.27029023029E+04  0.00000000000E+00 0.  1.
         -2   -1    0    0    0  501 -0.00000000000E+00 -0.00000000000E+00 -0.39668597615E+02  0.39668597615E+02  0.00000000000E+00 0.  1.
         21    1    1    2  503  502  0.57949829085E+02 -0.12908078835E+03  0.25682710837E+04  0.25721657007E+04  0.00000000000E+00 0.  1.
         -2    1    1    2    0  503 -0.57949829085E+02  0.12908078835E+03  0.94962621551E+02  0.17040519976E+03  0.00000000000E+00 0.  1.
<mgrwt>
<rscale>  2 0.14149216E+03</rscale>
<asrwt>0</asrwt>
<pdfrwt beam="1">  1       21 0.41583098E+00 0.14149216E+03</pdfrwt>
<pdfrwt beam="2">  1       -2 0.61028633E-02 0.14149216E+03</pdfrwt>
<totfact> 0.84268419E+01</totfact>
</mgrwt>
</event>
<event>
 4    1  0.4926234E+003  0.1522841E+03  0.7546771E-02  0.1197694E+00
         21   -1    0    0  501  502  0.00000000000E+00  0.00000000000E+00  0.38862919405E+02  0.38862919405E+02  0.00000000000E+00 0. -1.
          2   -1    0    0  503    0 -0.00000000000E+00 -0.00000000000E+00 -0.61774205520E+03  0.61774205520E+03  0.00000000000E+00 0.  1.
         21    1    1    2  503  502 -0.10322707819E+03  0.11195807855E+03 -0.22888237878E+03  0.27491377619E+03  0.00000000000E+00 0. -1.
          2    1    1    2  501    0  0.10322707819E+03 -0.11195807855E+03 -0.34999675702E+03  0.38169119841E+03  0.00000000000E+00 0.  1.
<mgrwt>
<rscale>  2 0.15228408E+03</rscale>
<asrwt>0</asrwt>
<pdfrwt beam="1">  1       21 0.59789111E-02 0.15228408E+03</pdfrwt>
<pdfrwt beam="2">  1        2 0.95037232E-01 0.15228408E+03</pdfrwt>
<totfact> 0.12120013E+05</totfact>
</mgrwt>
</event>
<event>
 4    1  0.4926234E+003  0.1139177E+03  0.7546771E-02  0.1253482E+00
          2   -1    0    0  503    0 -0.00000000000E+00  0.00000000000E+00  0.78353442342E+03  0.78353442342E+03  0.00000000000E+00 0.  1.
         21   -1    0    0  501  502  0.00000000000E+00 -0.00000000000E+00 -0.20996487748E+02  0.20996487748E+02  0.00000000000E+00 0.  1.
         21    1    1    2  503  502  0.36020346815E+02  0.10807298393E+03  0.19641021858E+03  0.22705552009E+03  0.00000000000E+00 0.  1.
          2    1    1    2  501    0 -0.36020346815E+02 -0.10807298393E+03  0.56612771709E+03  0.57747539107E+03  0.00000000000E+00 0.  1.
<mgrwt>
<rscale>  2 0.11391767E+03</rscale>
<asrwt>0</asrwt>
<pdfrwt beam="2">  1       21 0.32302295E-02 0.11391767E+03</pdfrwt>
<pdfrwt beam="1">  1        2 0.12054374E+00 0.11391767E+03</pdfrwt>
<totfact> 0.25325433E+05</totfact>
</mgrwt>
</event>
<event>
 4    1  0.4926234E+003  0.1261212E+03  0.7546771E-02  0.1233327E+00
         21   -1    0    0  503  502  0.00000000000E+00  0.00000000000E+00  0.13427784128E+03  0.13427784128E+03  0.00000000000E+00 0.  1.
          3   -1    0    0  502    0 -0.00000000000E+00 -0.00000000000E+00 -0.14194252560E+03  0.14194252560E+03  0.00000000000E+00 0. -1.
         21    1    1    2  503  501  0.12540926838E+03 -0.13381961806E+02  0.52342422313E+02  0.13655142135E+03  0.00000000000E+00 0.  1.
          3    1    1    2  501    0 -0.12540926838E+03  0.13381961806E+02 -0.60007106634E+02  0.13966894553E+03  0.00000000000E+00 0. -1.
<mgrwt>
<rscale>  2 0.12612122E+03</rscale>
<asrwt>0</asrwt>
<pdfrwt beam="1">  1       21 0.20658129E-01 0.12612122E+03</pdfrwt>
<pdfrwt beam="2">  1        3 0.21837312E-01 0.12612122E+03</pdfrwt>
<totfact> 0.19999040E+04</totfact>
</mgrwt>
</event>
<event>
 4    1  0.4926234E+003  0.1018415E+03  0.7546771E-02  0.1276471E+00
         21   -1    0    0  503  502  0.00000000000E+00  0.00000000000E+00  0.13289097812E+03  0.13289097812E+03  0.00000000000E+00 0. -1.
          1   -1    0    0  502    0 -0.00000000000E+00 -0.00000000000E+00 -0.12581660220E+03  0.12581660220E+03  0.00000000000E+00 0.  1.
         21    1    1    2  503  501  0.95763498630E+02  0.34655978509E+02  0.83242628523E+02  0.13153334072E+03  0.00000000000E+00 0. -1.
          1    1    1    2  501    0 -0.95763498630E+02 -0.34655978509E+02 -0.76168252598E+02  0.12717423961E+03  0.00000000000E+00 0.  1.
<mgrwt>
<rscale>  2 0.10184147E+03</rscale>
<asrwt>0</asrwt>
<pdfrwt beam="1">  1       21 0.20444766E-01 0.10184147E+03</pdfrwt>
<pdfrwt beam="2">  1        1 0.19356400E-01 0.10184147E+03</pdfrwt>
<totfact> 0.62523770E+04</totfact>
</mgrwt>
</event>
<event>
 4    1  0.4926234E+003  0.1037176E+03  0.7546771E-02  0.1272667E+00
         21   -1    0    0  501  502  0.00000000000E+00  0.00000000000E+00  0.28599489384E+02  0.28599489384E+02  0.00000000000E+00 0. -1.
          2   -1    0    0  503    0 -0.00000000000E+00 -0.00000000000E+00 -0.38495662846E+03  0.38495662846E+03  0.00000000000E+00 0.  1.
         21    1    1    2  503  502 -0.96628076497E+02  0.37687516517E+02 -0.14688054901E+03  0.17980887005E+03  0.00000000000E+00 0. -1.
          2    1    1    2  501    0  0.96628076497E+02 -0.37687516517E+02 -0.20947659006E+03  0.23374724780E+03  0.00000000000E+00 0.  1.
<mgrwt>
<rscale>  2 0.10371757E+03</rscale>
<asrwt>0</asrwt>
<pdfrwt beam="1">  1       21 0.43999219E-02 0.10371757E+03</pdfrwt>
<pdfrwt beam="2">  1        2 0.59224090E-01 0.10371757E+03</pdfrwt>
<totfact> 0.33479244E+05</totfact>
</mgrwt>
</event>
<event>
 4    1  0.4926234E+003  0.1264439E+03  0.7546771E-02  0.1232830E+00
         21   -1    0    0  501  502  0.00000000000E+00  0.00000000000E+00  0.75757330939E+01  0.75757330939E+01  0.00000000000E+00 0. -1.
          2   -1    0    0  503    0 -0.00000000000E+00 -0.00000000000E+00 -0.30674476075E+04  0.30674476075E+04  0.00000000000E+00 0.  1.
         21    1    1    2  503  502  0.10404596005E+03 -0.71850558444E+02 -0.67114094377E+03  0.68294819054E+03  0.00000000000E+00 0. -1.
          2    1    1    2  501    0 -0.10404596005E+03  0.71850558444E+02 -0.23887309306E+04  0.23920751500E+04  0.00000000000E+00 0.  1.
<mgrwt>
<rscale>  2 0.12644392E+03</rscale>
<asrwt>0</asrwt>
<pdfrwt beam="1">  1       21 0.11654960E-02 0.12644392E+03</pdfrwt>
<pdfrwt beam="2">  1        2 0.47191558E+00 0.12644392E+03</pdfrwt>
<totfact> 0.75293089E+04</totfact>
</mgrwt>
</event>
<event>
 4    1  0.4926234E+003  0.1012622E+03  0.7546771E-02  0.1277664E+00
         21   -1    0    0  501  502  0.00000000000E+00  0.00000000000E+00  0.63345181865E+01  0.63345181865E+01  0.00000000000E+00 0. -1.
          1   -1    0    0  503    0 -0.00000000000E+00 -0.00000000000E+00 -0.21408366773E+04  0.21408366773E+04  0.00000000000E+00 0. -1.
         21    1    1    2  503  502 -0.10122135114E+03  0.28763494523E+01 -0.53708250497E+03  0.54654519708E+03  0.00000000000E+00 0. -1.
          1    1    1    2  501    0  0.10122135114E+03 -0.28763494523E+01 -0.15974196541E+04  0.16006259984E+04  0.00000000000E+00 0. -1.
<mgrwt>
<rscale>  2 0.10126221E+03</rscale>
<asrwt>0</asrwt>
<pdfrwt beam="1">  1       21 0.97454112E-03 0.10126221E+03</pdfrwt>
<pdfrwt beam="2">  1        1 0.32935954E+00 0.10126221E+03</pdfrwt>
<totfact> 0.12326478E+05</totfact>
</mgrwt>
</event>
<event>
 4    1  0.4926234E+003  0.1520426E+03  0.7546771E-02  0.1197985E+00
         21   -1    0    0  503  502  0.00000000000E+00  0.00000000000E+00  0.57976885669E+02  0.57976885669E+02  0.00000000000E+00 0. -1.
          2   -1    0    0  502    0 -0.00000000000E+00 -0.00000000000E+00 -0.15005633816E+04  0.15005633816E+04  0.00000000000E+00 0. -1.
         21    1    1    2  503  501  0.36379336308E+02 -0.14762622932E+03 -0.53534817297E+02  0.16119223417E+03  0.00000000000E+00 0. -1.
          2    1    1    2  501    0 -0.36379336308E+02  0.14762622932E+03 -0.13890516786E+04  0.13973480331E+04  0.00000000000E+00 0. -1.
<mgrwt>
<rscale>  2 0.15204262E+03</rscale>
<asrwt>0</asrwt>
<pdfrwt beam="1">  1       21 0.89195204E-02 0.15204262E+03</pdfrwt>
<pdfrwt beam="2">  1        2 0.23085592E+00 0.15204262E+03</pdfrwt>
<totfact> 0.17625626E+04</totfact>
</mgrwt>
</event>
<event>
 4    1  0.4926234E+003  0.2045236E+03  0.7546771E-02  0.1145978E+00
         21   -1    0    0  501  502  0.00000000000E+00  0.00000000000E+00  0.14830646962E+03  0.14830646962E+03  0.00000000000E+00 0.  1.
          2   -1    0    0  503    0 -0.00000000000E+00 -0.00000000000E+00 -0.28416718829E+03  0.28416718829E+03  0.00000000000E+00 0.  1.
         21    1    1    2  503  502  0.13704271277E+02 -0.20406397597E+03 -0.49267785191E+02  0.21037401930E+03  0.00000000000E+00 0.  1.
          2    1    1    2  501    0 -0.13704271277E+02  0.20406397597E+03 -0.86592933479E+02  0.22209963861E+03  0.00000000000E+00 0.  1.
<mgrwt>
<rscale>  2 0.20452363E+03</rscale>
<asrwt>0</asrwt>
<pdfrwt beam="1">  1       21 0.22816380E-01 0.20452363E+03</pdfrwt>
<pdfrwt beam="2">  1        2 0.43718028E-01 0.20452363E+03</pdfrwt>
<totfact> 0.25865456E+04</totfact>
</mgrwt>
</event>
<event>
 4    1  0.4926234E+003  0.1093448E+03  0.7546771E-02  0.1261788E+00
         21   -1    0    0  503  502  0.00000000000E+00  0.00000000000E+00  0.18264789722E+03  0.18264789722E+03  0.00000000000E+00 0.  1.
          4   -1    0    0  502    0 -0.00000000000E+00 -0.00000000000E+00 -0.26195266126E+03  0.26195266126E+03  0.00000000000E+00 0. -1.
         21    1    1    2  503  501 -0.93343496864E+02  0.56949772396E+02  0.15287869424E+03  0.18795792118E+03  0.00000000000E+00 0.  1.
          4    1    1    2  501    0  0.93343496864E+02 -0.56949772396E+02 -0.23218345828E+03  0.25664263730E+03  0.00000000000E+00 0. -1.
<mgrwt>
<rscale>  2 0.10934480E+03</rscale>
<asrwt>0</asrwt>
<pdfrwt beam="1">  1       21 0.28099677E-01 0.10934480E+03</pdfrwt>
<pdfrwt beam="2">  1        4 0.40300409E-01 0.10934480E+03</pdfrwt>
<totfact> 0.29651164E+03</totfact>
</mgrwt>
</event>
<event>
 4    1  0.4926234E+003  0.1190027E+03  0.7546771E-02  0.1244751E+00
         21   -1    0    0  503  502  0.00000000000E+00  0.00000000000E+00  0.16259002627E+02  0.16259002627E+02  0.00000000000E+00 0. -1.
          2   -1    0    0  502    0 -0.00000000000E+00 -0.00000000000E+00 -0.13083645269E+04  0.13083645269E+04  0.00000000000E+00 0.  1.
         21    1    1    2  503  501  0.11689314700E+03 -0.22307735767E+02 -0.26312373233E+03  0.28878320832E+03  0.00000000000E+00 0. -1.
          2    1    1    2  501    0 -0.11689314700E+03  0.22307735767E+02 -0.10289817919E+04  0.10358403212E+04  0.00000000000E+00 0.  1.
<mgrwt>
<rscale>  2 0.11900270E+03</rscale>
<asrwt>0</asrwt>
<pdfrwt beam="1">  1       21 0.25013848E-02 0.11900270E+03</pdfrwt>
<pdfrwt beam="2">  1        2 0.20128687E+00 0.11900270E+03</pdfrwt>
<totfact> 0.18885624E+05</totfact>
</mgrwt>
</event>
<event>
 4    1  0.4926234E+003  0.1066569E+03  0.7546771E-02  0.1266889E+00
         21   -1    0    0  501  502  0.00000000000E+00  0.00000000000E+00  0.18404385790E+03  0.18404385790E+03  0.00000000000E+00 0. -1.
          1   -1    0    0  503    0 -0.00000000000E+00 -0.00000000000E+00 -0.82687373867E+02  0.82687373867E+02  0.00000000000E+00 0. -1.
         21    1    1    2  503  502 -0.97979854756E+02 -0.42138470766E+02  0.11769214824E+03  0.15883055252E+03  0.00000000000E+00 0. -1.
          1    1    1    2  501    0  0.97979854756E+02  0.42138470766E+02 -0.16335664209E+02  0.10790067925E+03  0.00000000000E+00 0. -1.
<mgrwt>
<rscale>  2 0.10665694E+03</rscale>
<asrwt>0</asrwt>
<pdfrwt beam="1">  1       21 0.28314440E-01 0.10665694E+03</pdfrwt>
<pdfrwt beam="2">  1        1 0.12721134E-01 0.10665694E+03</pdfrwt>
<totfact> 0.58260725E+04</totfact>
</mgrwt>
</event>
<event>
 4    1  0.4926234E+003  0.1151858E+03  0.7546771E-02  0.1251257E+00
         21   -1    0    0  501  502  0.00000000000E+00  0.00000000000E+00  0.17995649875E+03  0.17995649875E+03  0.00000000000E+00 0.  1.
          2   -1    0    0  503    0 -0.00000000000E+00 -0.00000000000E+00 -0.46696512945E+03  0.46696512945E+03  0.00000000000E+00 0.  1.
         21    1    1    2  503  502  0.82581719015E+02 -0.80299638119E+02  0.15332507096E+03  0.19177160786E+03  0.00000000000E+00 0.  1.
          2    1    1    2  501    0 -0.82581719015E+02  0.80299638119E+02 -0.44033370166E+03  0.45515002034E+03  0.00000000000E+00 0.  1.
<mgrwt>
<rscale>  2 0.11518582E+03</rscale>
<asrwt>0</asrwt>
<pdfrwt beam="1">  1       21 0.27685615E-01 0.11518582E+03</pdfrwt>
<pdfrwt beam="2">  1        2 0.71840789E-01 0.11518582E+03</pdfrwt>
<totfact> 0.10663691E+04</totfact>
</mgrwt>
</event>
<event>
 4    1  0.4926234E+003  0.1454742E+03  0.7546771E-02  0.1206147E+00
          3   -1    0    0  502    0 -0.00000000000E+00  0.00000000000E+00  0.25806173983E+03  0.25806173983E+03  0.00000000000E+00 0.  1.
         21   -1    0    0  503  502  0.00000000000E+00 -0.00000000000E+00 -0.48403516563E+03  0.48403516563E+03  0.00000000000E+00 0.  1.
         21    1    1    2  503  501 -0.69454448108E+02 -0.12782341137E+03 -0.45114549272E+03  0.47402004226E+03  0.00000000000E+00 0.  1.
          3    1    1    2  501    0  0.69454448108E+02  0.12782341137E+03  0.22517206693E+03  0.26807686320E+03  0.00000000000E+00 0.  1.
<mgrwt>
<rscale>  2 0.14547421E+03</rscale>
<asrwt>0</asrwt>
<pdfrwt beam="2">  1       21 0.74466948E-01 0.14547421E+03</pdfrwt>
<pdfrwt beam="1">  1        3 0.39701806E-01 0.14547421E+03</pdfrwt>
<totfact> 0.50686636E+02</totfact>
</mgrwt>
</event>
<event>
 4    1  0.4926234E+003  0.1662442E+03  0.7546771E-02  0.1181822E+00
          1   -1    0    0  502    0 -0.00000000000E+00  0.00000000000E+00  0.89945089851E+03  0.89945089851E+03  0.00000000000E+00 0.  1.
         21   -1    0    0  503  502  0.00000000000E+00 -0.00000000000E+00 -0.34833070168E+03  0.34833070168E+03  0.00000000000E+00 0.  1.
         21    1    1    2  503  501  0.16288498167E+03 -0.33250768835E+02 -0.32017845657E+03  0.36076498574E+03  0.00000000000E+00 0.  1.
          1    1    1    2  501    0 -0.16288498167E+03  0.33250768835E+02  0.87129865341E+03  0.88701661445E+03  0.00000000000E+00 0.  1.
<mgrwt>
<rscale>  2 0.16624419E+03</rscale>
<asrwt>0</asrwt>
<pdfrwt beam="2">  1       21 0.53589339E-01 0.16624419E+03</pdfrwt>
<pdfrwt beam="1">  1        1 0.13837706E+00 0.16624419E+03</pdfrwt>
<totfact> 0.71840288E+02</totfact>
</mgrwt>
</event>
<event>
 4    1  0.4926234E+003  0.1509031E+03  0.7546771E-02  0.1199368E+00
          1   -1    0    0  502    0 -0.00000000000E+00  0.00000000000E+00  0.13035628346E+04  0.13035628346E+04  0.00000000000E+00 0. -1.
         21   -1    0    0  503  502  0.00000000000E+00 -0.00000000000E+00 -0.32187047588E+03  0.32187047588E+03  0.00000000000E+00 0.  1.
         21    1    1    2  503  501  0.13400715537E+03  0.69381759551E+02 -0.29950857726E+03  0.33537610842E+03  0.00000000000E+00 0.  1.
          1    1    1    2  501    0 -0.13400715537E+03 -0.69381759551E+02  0.12812009360E+04  0.12900572020E+04  0.00000000000E+00 0. -1.
<mgrwt>
<rscale>  2 0.15090310E+03</rscale>
<asrwt>0</asrwt>
<pdfrwt beam="2">  1       21 0.49518535E-01 0.15090310E+03</pdfrwt>
<pdfrwt beam="1">  1        1 0.20054813E+00 0.15090310E+03</pdfrwt>
<totfact> 0.44150713E+02</totfact>
</mgrwt>
</event>
<event>
 4    1  0.4926234E+003  0.1282801E+03  0.7546771E-02  0.1230030E+00
         21   -1    0    0  501  502  0.00000000000E+00  0.00000000000E+00  0.58336955333E+02  0.58336955333E+02  0.00000000000E+00 0.  1.
          2   -1    0    0  503    0 -0.00000000000E+00 -0.00000000000E+00 -0.51218853812E+03  0.51218853812E+03  0.00000000000E+00 0.  1.
         21    1    1    2  503  502 -0.73794832740E+02 -0.10492905748E+03 -0.35722684782E+02  0.13316116044E+03  0.00000000000E+00 0.  1.
          2    1    1    2  501    0  0.73794832740E+02  0.10492905748E+03 -0.41812889800E+03  0.43736433301E+03  0.00000000000E+00 0.  1.
<mgrwt>
<rscale>  2 0.12828010E+03</rscale>
<asrwt>0</asrwt>
<pdfrwt beam="1">  1       21 0.89749160E-02 0.12828010E+03</pdfrwt>
<pdfrwt beam="2">  1        2 0.78798239E-01 0.12828010E+03</pdfrwt>
<totfact> 0.74169906E+04</totfact>
</mgrwt>
</event>
<event>
 4    1  0.4926234E+003  0.2136965E+03  0.7546771E-02  0.1138672E+00
          3   -1    0    0  502    0 -0.00000000000E+00  0.00000000000E+00  0.11102151944E+04  0.11102151944E+04  0.00000000000E+00 0.  1.
         21   -1    0    0  503  502  0.00000000000E+00 -0.00000000000E+00 -0.54768236951E+02  0.54768236951E+02  0.00000000000E+00 0.  1.
         21    1    1    2  503  501  0.11248063943E+03 -0.18169838691E+03  0.23707986504E+03  0.31917559503E+03  0.00000000000E+00 0.  1.
          3    1    1    2  501    0 -0.11248063943E+03  0.18169838691E+03  0.81836709242E+03  0.84580783634E+03  0.00000000000E+00 0.  1.
<mgrwt>
<rscale>  2 0.21369651E+03</rscale>
<asrwt>0</asrwt>
<pdfrwt beam="2">  1       21 0.84258835E-02 0.21369651E+03</pdfrwt>
<pdfrwt beam="1">  1        3 0.17080232E+00 0.21369651E+03</pdfrwt>
<totfact> 0.13357411E+03</totfact>
</mgrwt>
</event>
<event>
 4    1  0.4926234E+003  0.1434814E+03  0.7546771E-02  0.1208720E+00
          2   -1    0    0  503    0 -0.00000000000E+00  0.00000000000E+00  0.17451547073E+04  0.17451547073E+04  0.00000000000E+00 0.  1.
         21   -1    0    0  501  502  0.00000000000E+00 -0.00000000000E+00 -0.12054616904E+02  0.12054616904E+02  0.00000000000E+00 0.  1.
         21    1    1    2  503  502  0.29695364994E+02  0.14037481941E+03  0.73801108070E+03  0.75182927574E+03  0.00000000000E+00 0.  1.
          2    1    1    2  501    0 -0.29695364994E+02 -0.14037481941E+03  0.99508900968E+03  0.10053800484E+04  0.00000000000E+00 0.  1.
<mgrwt>
<rscale>  2 0.14348137E+03</rscale>
<asrwt>0</asrwt>
<pdfrwt beam="2">  1       21 0.18545578E-02 0.14348137E+03</pdfrwt>
<pdfrwt beam="1">  1        2 0.26848514E+00 0.14348137E+03</pdfrwt>
<totfact> 0.18204091E+05</totfact>
</mgrwt>
</event>
<event>
 4    1  0.4926234E+003  0.1001532E+03  0.7546771E-02  0.1279974E+00
         21   -1    0    0  503  502  0.00000000000E+00  0.00000000000E+00  0.22806027238E+03  0.22806027238E+03  0.00000000000E+00 0.  1.
         -2   -1    0    0    0  501 -0.00000000000E+00 -0.00000000000E+00 -0.32800082240E+03  0.32800082240E+03  0.00000000000E+00 0.  1.
         21    1    1    2  503  501 -0.99935629775E+02  0.65981500219E+01  0.20874865797E+03  0.23153113805E+03  0.00000000000E+00 0.  1.
         -2    1    1    2    0  502  0.99935629775E+02 -0.65981500219E+01 -0.30868920799E+03  0.32452995673E+03  0.00000000000E+00 0.  1.
<mgrwt>
<rscale>  2 0.10015321E+03</rscale>
<asrwt>0</asrwt>
<pdfrwt beam="1">  1       21 0.35086196E-01 0.10015321E+03</pdfrwt>
<pdfrwt beam="2">  1       -2 0.50461665E-01 0.10015321E+03</pdfrwt>
<totfact> 0.24527756E+03</totfact>
</mgrwt>
</event>
<event>
 4    1  0.4926234E+003  0.2178799E+03  0.7546771E-02  0.1135474E+00
         21   -1    0    0  501  502  0.00000000000E+00  0.00000000000E+00  0.10321282417E+04  0.10321282417E+04  0.00000000000E+00 0.  1.
          1   -1    0    0  503    0 -0.00000000000E+00 -0.00000000000E+00 -0.19240702540E+03  0.19240702540E+03  0.00000000000E+00 0. -1.
         21    1    1    2  503  502  0.52320056554E+02  0.21150473587E+03  0.95395840867E+03  0.97852352403E+03  0.00000000000E+00 0.  1.
          1    1    1    2  501    0 -0.52320056554E+02 -0.21150473587E+03 -0.11423719236E+03  0.24601174307E+03  0.00000000000E+00 0. -1.
<mgrwt>
<rscale>  2 0.21787988E+03</rscale>
<asrwt>0</asrwt>
<pdfrwt beam="1">  1       21 0.15878896E+00 0.21787988E+03</pdfrwt>
<pdfrwt beam="2">  1        1 0.29601082E-01 0.21787988E+03</pdfrwt>
<totfact> 0.42204597E+02</totfact>
</mgrwt>
</event>
<event>
 4    1  0.4926234E+003  0.1336178E+03  0.7546771E-02  0.1222184E+00
         21   -1    0    0  501  502  0.00000000000E+00  0.00000000000E+00  0.11221855360E+03  0.11221855360E+03  0.00000000000E+00 0. -1.
          1   -1    0    0  503    0 -0.00000000000E+00 -0.00000000000E+00 -0.16579494809E+03  0.16579494809E+03  0.00000000000E+00 0. -1.
         21    1    1    2  503  502  0.12722302670E+03 -0.40841310051E+02  0.11500530333E+01  0.13362272917E+03  0.00000000000E+00 0. -1.
          1    1    1    2  501    0 -0.12722302670E+03  0.40841310051E+02 -0.54726447529E+02  0.14439077252E+03  0.00000000000E+00 0. -1.
<mgrwt>
<rscale>  2 0.13361778E+03</rscale>
<asrwt>0</asrwt>
<pdfrwt beam="1">  1       21 0.17264393E-01 0.13361778E+03</pdfrwt>
<pdfrwt beam="2">  1        1 0.25506915E-01 0.13361778E+03</pdfrwt>
<totfact> 0.60720219E+04</totfact>
</mgrwt>
</event>
<event>
 4    1  0.4926234E+003  0.1033168E+03  0.7546771E-02  0.1273472E+00
         21   -1    0    0  501  502  0.00000000000E+00  0.00000000000E+00  0.78270290824E+02  0.78270290824E+02  0.00000000000E+00 0. -1.
          1   -1    0    0  503    0 -0.00000000000E+00 -0.00000000000E+00 -0.22236550866E+03  0.22236550866E+03  0.00000000000E+00 0.  1.
         21    1    1    2  503  502  0.49788827130E+02  0.90528636678E+02  0.21427109454E+02  0.10551531825E+03  0.00000000000E+00 0. -1.
          1    1    1    2  501    0 -0.49788827130E+02 -0.90528636678E+02 -0.16552232729E+03  0.19512048124E+03  0.00000000000E+00 0.  1.
<mgrwt>
<rscale>  2 0.10331680E+03</rscale>
<asrwt>0</asrwt>
<pdfrwt beam="1">  1       21 0.12041584E-01 0.10331680E+03</pdfrwt>
<pdfrwt beam="2">  1        1 0.34210077E-01 0.10331680E+03</pdfrwt>
<totfact> 0.79877740E+04</totfact>
</mgrwt>
</event>
<event>
 4    1  0.4926234E+003  0.1563932E+03  0.7546771E-02  0.1192830E+00
         21   -1    0    0  503  502  0.00000000000E+00  0.00000000000E+00  0.26935664875E+03  0.26935664875E+03  0.00000000000E+00 0.  1.
         -3   -1    0    0    0  501 -0.00000000000E+00 -0.00000000000E+00 -0.45626491777E+03  0.45626491777E+03  0.00000000000E+00 0.  1.
         21    1    1    2  503  501  0.21828124831E+02  0.15486239410E+03  0.23125293915E+03  0.27917154226E+03  0.00000000000E+00 0.  1.
         -3    1    1    2    0  502 -0.21828124831E+02 -0.15486239410E+03 -0.41816120817E+03  0.44645002426E+03  0.00000000000E+00 0.  1.
<mgrwt>
<rscale>  2 0.15639318E+03</rscale>
<asrwt>0</asrwt>
<pdfrwt beam="1">  1       21 0.41439485E-01 0.15639318E+03</pdfrwt>
<pdfrwt beam="2">  1       -3 0.70194603E-01 0.15639318E+03</pdfrwt>
<totfact> 0.55071054E+02</totfact>
</mgrwt>
</event>
<event>
 4    1  0.4926234E+003  0.1004198E+03  0.7546771E-02  0.1279416E+00
         21   -1    0    0  501  502  0.00000000000E+00  0.00000000000E+00  0.11948819917E+02  0.11948819917E+02  0.00000000000E+00 0. -1.
          2   -1    0    0  503    0 -0.00000000000E+00 -0.00000000000E+00 -0.23793065785E+04  0.23793065785E+04  0.00000000000E+00 0. -1.
         21    1    1    2  503  502 -0.23583795034E+02 -0.97611204972E+02 -0.22322581189E+03  0.24477317218E+03  0.00000000000E+00 0. -1.
          2    1    1    2  501    0  0.23583795034E+02  0.97611204972E+02 -0.21441319467E+04  0.21464822262E+04  0.00000000000E+00 0. -1.
<mgrwt>
<rscale>  2 0.10041983E+03</rscale>
<asrwt>0</asrwt>
<pdfrwt beam="1">  1       21 0.18382785E-02 0.10041983E+03</pdfrwt>
<pdfrwt beam="2">  1        2 0.36604747E+00 0.10041983E+03</pdfrwt>
<totfact> 0.87692359E+04</totfact>
</mgrwt>
</event>
<event>
 4    1  0.4926234E+003  0.1841406E+03  0.7546771E-02  0.1163855E+00
          2   -1    0    0  503    0 -0.00000000000E+00  0.00000000000E+00  0.14081424752E+04  0.14081424752E+04  0.00000000000E+00 0. -1.
         21   -1    0    0  501  502  0.00000000000E+00 -0.00000000000E+00 -0.19252667267E+03  0.19252667267E+03  0.00000000000E+00 0.  1.
         21    1    1    2  503  502  0.18393505784E+03  0.86978358660E+01 -0.14080555769E+03  0.23180587337E+03  0.00000000000E+00 0.  1.
          2    1    1    2  501    0 -0.18393505784E+03 -0.86978358660E+01  0.13564213602E+04  0.13688632745E+04  0.00000000000E+00 0. -1.
<mgrwt>
<rscale>  2 0.18414059E+03</rscale>
<asrwt>0</asrwt>
<pdfrwt beam="2">  1       21 0.29619489E-01 0.18414059E+03</pdfrwt>
<pdfrwt beam="1">  1        2 0.21663730E+00 0.18414059E+03</pdfrwt>
<totfact> 0.21559510E+03</totfact>
</mgrwt>
</event>
<event>
 4    1  0.4926234E+003  0.1170624E+03  0.7546771E-02  0.1248023E+00
          1   -1    0    0  503    0 -0.00000000000E+00  0.00000000000E+00  0.47644605863E+02  0.47644605863E+02  0.00000000000E+00 0.  1.
         21   -1    0    0  501  502  0.00000000000E+00 -0.00000000000E+00 -0.32654075291E+03  0.32654075291E+03  0.00000000000E+00 0.  1.
         21    1    1    2  503  502  0.10891815322E+03 -0.42900397756E+02 -0.20403890967E+03  0.23523495677E+03  0.00000000000E+00 0.  1.
          1    1    1    2  501    0 -0.10891815322E+03  0.42900397756E+02 -0.74857237379E+02  0.13895040200E+03  0.00000000000E+00 0.  1.
<mgrwt>
<rscale>  2 0.11706241E+03</rscale>
<asrwt>0</asrwt>
<pdfrwt beam="2">  1       21 0.50237042E-01 0.11706241E+03</pdfrwt>
<pdfrwt beam="1">  1        1 0.73299390E-02 0.11706241E+03</pdfrwt>
<totfact> 0.38900249E+04</totfact>
</mgrwt>
</event>
<event>
 4    1  0.4926234E+003  0.1259185E+03  0.7546771E-02  0.1233641E+00
         21   -1    0    0  501  502  0.00000000000E+00  0.00000000000E+00  0.66043320758E+02  0.66043320758E+02  0.00000000000E+00 0.  1.
          2   -1    0    0  503    0 -0.00000000000E+00 -0.00000000000E+00 -0.36436190367E+03  0.36436190367E+03  0.00000000000E+00 0. -1.
         21    1    1    2  503  502  0.11126401273E+03 -0.58955896098E+02 -0.23472292679E+02  0.12808757448E+03  0.00000000000E+00 0.  1.
          2    1    1    2  501    0 -0.11126401273E+03  0.58955896098E+02 -0.27484629023E+03  0.30231764994E+03  0.00000000000E+00 0. -1.
<mgrwt>
<rscale>  2 0.12591854E+03</rscale>
<asrwt>0</asrwt>
<pdfrwt beam="1">  1       21 0.10160511E-01 0.12591854E+03</pdfrwt>
<pdfrwt beam="2">  1        2 0.56055678E-01 0.12591854E+03</pdfrwt>
<totfact> 0.86147129E+04</totfact>
</mgrwt>
</event>
<event>
 4    1  0.4926234E+003  0.1102614E+03  0.7546771E-02  0.1260087E+00
         21   -1    0    0  503  502  0.00000000000E+00  0.00000000000E+00  0.10089096465E+03  0.10089096465E+03  0.00000000000E+00 0. -1.
          1   -1    0    0  502    0 -0.00000000000E+00 -0.00000000000E+00 -0.48999335627E+03  0.48999335627E+03  0.00000000000E+00 0.  1.
         21    1    1    2  503  501 -0.25739535710E+02 -0.10721502522E+03  0.62003156325E+02  0.12649891986E+03  0.00000000000E+00 0. -1.
          1    1    1    2  501    0  0.25739535710E+02  0.10721502522E+03 -0.45110554794E+03  0.46438540106E+03  0.00000000000E+00 0.  1.
<mgrwt>
<rscale>  2 0.11026144E+03</rscale>
<asrwt>0</asrwt>
<pdfrwt beam="1">  1       21 0.15521687E-01 0.11026144E+03</pdfrwt>
<pdfrwt beam="2">  1        1 0.75383593E-01 0.11026144E+03</pdfrwt>
<totfact> 0.19083451E+04</totfact>
</mgrwt>
</event>
<event>
 4    1  0.4926234E+003  0.1369875E+03  0.7546771E-02  0.1217441E+00
         21   -1    0    0  503  502  0.00000000000E+00  0.00000000000E+00  0.12905775436E+03  0.12905775436E+03  0.00000000000E+00 0. -1.
          2   -1    0    0  502    0 -0.00000000000E+00 -0.00000000000E+00 -0.14106707157E+04  0.14106707157E+04  0.00000000000E+00 0. -1.
         21    1    1    2  503  501 -0.52011062954E+02  0.12672975871E+03  0.88302200849E+02  0.16298116789E+03  0.00000000000E+00 0. -1.
          2    1    1    2  501    0  0.52011062954E+02 -0.12672975871E+03 -0.13699151622E+04  0.13767473022E+04  0.00000000000E+00 0. -1.
<mgrwt>
<rscale>  2 0.13698753E+03</rscale>
<asrwt>0</asrwt>
<pdfrwt beam="1">  1       21 0.19855038E-01 0.13698753E+03</pdfrwt>
<pdfrwt beam="2">  1        2 0.21702628E+00 0.13698753E+03</pdfrwt>
<totfact> 0.47114923E+03</totfact>
</mgrwt>
</event>
<event>
 4    1  0.4926234E+003  0.1317840E+03  0.7546771E-02  0.1224832E+00
         21   -1    0    0  503  502  0.00000000000E+00  0.00000000000E+00  0.53492923498E+02  0.53492923498E+02  0.00000000000E+00 0. -1.
          1   -1    0    0  502    0 -0.00000000000E+00 -0.00000000000E+00 -0.11601578021E+04  0.11601578021E+04  0.00000000000E+00 0.  1.
         21    1    1    2  503  501 -0.98531706516E+02  0.87512955086E+02 -0.38367290837E+02  0.13725546803E+03  0.00000000000E+00 0. -1.
          1    1    1    2  501    0  0.98531706516E+02 -0.87512955086E+02 -0.10682975878E+04  0.10763952576E+04  0.00000000000E+00 0.  1.
<mgrwt>
<rscale>  2 0.13178397E+03</rscale>
<asrwt>0</asrwt>
<pdfrwt beam="1">  1       21 0.82296805E-02 0.13178397E+03</pdfrwt>
<pdfrwt beam="2">  1        1 0.17848582E+00 0.13178397E+03</pdfrwt>
<totfact> 0.15995025E+04</totfact>
</mgrwt>
</event>
<event>
 4    1  0.4926234E+003  0.1040296E+03  0.7546771E-02  0.1272043E+00
         21   -1    0    0  501  502  0.00000000000E+00  0.00000000000E+00  0.61053939948E+03  0.61053939948E+03  0.00000000000E+00 0. -1.
         -2   -1    0    0    0  501 -0.00000000000E+00 -0.00000000000E+00 -0.49292929398E+02  0.49292929398E+02  0.00000000000E+00 0.  1.
         21    1    1    2  503  502  0.22368361929E+02 -0.10159631793E+03  0.54463935633E+03  0.55448551279E+03  0.00000000000E+00 0. -1.
         -2    1    1    2    0  503 -0.22368361929E+02  0.10159631793E+03  0.16607113752E+02  0.10534681609E+03  0.00000000000E+00 0.  1.
<mgrwt>
<rscale>  2 0.10402959E+03</rscale>
<asrwt>0</asrwt>
<pdfrwt beam="1">  1       21 0.93929133E-01 0.10402959E+03</pdfrwt>
<pdfrwt beam="2">  1       -2 0.75835280E-02 0.10402959E+03</pdfrwt>
<totfact> 0.77527160E+03</totfact>
</mgrwt>
</event>
<event>
 4    1  0.4926234E+003  0.1069076E+03  0.7546771E-02  0.1266406E+00
         -1   -1    0    0    0  501 -0.00000000000E+00  0.00000000000E+00  0.52463972520E+02  0.52463972520E+02  0.00000000000E+00 0.  1.
         21   -1    0    0  503  502  0.00000000000E+00 -0.00000000000E+00 -0.31502315412E+03  0.31502315412E+03  0.00000000000E+00 0. -1.
         21    1    1    2  503  501 -0.10089126629E+02 -0.10643045553E+03 -0.23333027566E+03  0.25665589781E+03  0.00000000000E+00 0. -1.
         -1    1    1    2    0  502  0.10089126629E+02  0.10643045553E+03 -0.29228905931E+02  0.11083122882E+03  0.00000000000E+00 0.  1.
<mgrwt>
<rscale>  2 0.10690759E+03</rscale>
<asrwt>0</asrwt>
<pdfrwt beam="2">  1       21 0.48465101E-01 0.10690759E+03</pdfrwt>
<pdfrwt beam="1">  1       -1 0.80713803E-02 0.10690759E+03</pdfrwt>
<totfact> 0.30478125E+04</totfact>
</mgrwt>
</event>
<event>
 4    1  0.4926234E+003  0.1594211E+03  0.7546771E-02  0.1189352E+00
          1   -1    0    0  503    0 -0.00000000000E+00  0.00000000000E+00  0.59358824780E+03  0.59358824780E+03  0.00000000000E+00 0. -1.
         21   -1    0    0  501  502  0.00000000000E+00 -0.00000000000E+00 -0.52810893513E+02  0.52810893513E+02  0.00000000000E+00 0. -1.
         21    1    1    2  503  502 -0.73398331036E+02  0.14151954627E+03  0.12978480613E+03  0.20557040857E+03  0.00000000000E+00 0. -1.
          1    1    1    2  501    0  0.73398331036E+02 -0.14151954627E+03  0.41099254815E+03  0.44082873274E+03  0.00000000000E+00 0. -1.
<mgrwt>
<rscale>  2 0.15942113E+03</rscale>
<asrwt>0</asrwt>
<pdfrwt beam="2">  1       21 0.81247533E-02 0.15942113E+03</pdfrwt>
<pdfrwt beam="1">  1        1 0.91321264E-01 0.15942113E+03</pdfrwt>
<totfact> 0.46333099E+04</totfact>
</mgrwt>
</event>
<event>
 4    1  0.4926234E+003  0.1100012E+03  0.7546771E-02  0.1260568E+00
          1   -1    0    0  502    0 -0.00000000000E+00  0.00000000000E+00  0.98582616780E+03  0.98582616780E+03  0.00000000000E+00 0. -1.
         21   -1    0    0  503  502  0.00000000000E+00 -0.00000000000E+00 -0.18343774320E+02  0.18343774320E+02  0.00000000000E+00 0. -1.
         21    1    1    2  503  501  0.59370332396E+02 -0.92603619316E+02  0.19493229890E+03  0.22382776377E+03  0.00000000000E+00 0. -1.
          1    1    1    2  501    0 -0.59370332396E+02  0.92603619316E+02  0.77255009458E+03  0.78034217835E+03  0.00000000000E+00 0. -1.
<mgrwt>
<rscale>  2 0.11000121E+03</rscale>
<asrwt>0</asrwt>
<pdfrwt beam="2">  1       21 0.28221199E-02 0.11000121E+03</pdfrwt>
<pdfrwt beam="1">  1        1 0.15166552E+00 0.11000121E+03</pdfrwt>
<totfact> 0.12785581E+05</totfact>
</mgrwt>
</event>
<event>
 4    1  0.4926234E+003  0.1026853E+03  0.7546771E-02  0.1274748E+00
         21   -1    0    0  501  502  0.00000000000E+00  0.00000000000E+00  0.12334520555E+03  0.12334520555E+03  0.00000000000E+00 0.  1.
          2   -1    0    0  503    0 -0.00000000000E+00 -0.00000000000E+00 -0.96845535619E+02  0.96845535619E+02  0.00000000000E+00 0.  1.
         21    1    1    2  503  502  0.23879583062E+02 -0.99870055158E+02  0.50956102788E+02  0.11463327098E+03  0.00000000000E+00 0.  1.
          2    1    1    2  501    0 -0.23879583062E+02  0.99870055158E+02 -0.24456432858E+02  0.10555747019E+03  0.00000000000E+00 0.  1.
<mgrwt>
<rscale>  2 0.10268526E+03</rscale>
<asrwt>0</asrwt>
<pdfrwt beam="1">  1       21 0.18976186E-01 0.10268526E+03</pdfrwt>
<pdfrwt beam="2">  1        2 0.14899313E-01 0.10268526E+03</pdfrwt>
<totfact> 0.11885473E+05</totfact>
</mgrwt>
</event>
<event>
 4    1  0.4926234E+003  0.1340420E+03  0.7546771E-02  0.1221578E+00
         21   -1    0    0  501  502  0.00000000000E+00  0.00000000000E+00  0.16611998620E+03  0.16611998620E+03  0.00000000000E+00 0.  1.
          1   -1    0    0  503    0 -0.00000000000E+00 -0.00000000000E+00 -0.12797604215E+03  0.12797604215E+03  0.00000000000E+00 0. -1.
         21    1    1    2  503  502 -0.11026114581E+03  0.76221595077E+02  0.76937796098E+02  0.15455315040E+03  0.00000000000E+00 0.  1.
          1    1    1    2  501    0  0.11026114581E+03 -0.76221595077E+02 -0.38793852051E+02  0.13954287795E+03  0.00000000000E+00 0. -1.
<mgrwt>
<rscale>  2 0.13404198E+03</rscale>
<asrwt>0</asrwt>
<pdfrwt beam="1">  1       21 0.25556921E-01 0.13404198E+03</pdfrwt>
<pdfrwt beam="2">  1        1 0.19688622E-01 0.13404198E+03</pdfrwt>
<totfact> 0.40594272E+04</totfact>
</mgrwt>
</event>
<event>
 4    1  0.4926234E+003  0.1180954E+03  0.7546771E-02  0.1246272E+00
         21   -1    0    0  501  502  0.00000000000E+00  0.00000000000E+00  0.19212499320E+03  0.19212499320E+03  0.00000000000E+00 0. -1.
          2   -1    0    0  503    0 -0.00000000000E+00 -0.00000000000E+00 -0.65627538390E+03  0.65627538390E+03  0.00000000000E+00 0. -1.
         21    1    1    2  503  502 -0.10433182901E+03 -0.55329894648E+02  0.16797719623E+03  0.20533598379E+03  0.00000000000E+00 0. -1.
          2    1    1    2  501    0  0.10433182901E+03  0.55329894648E+02 -0.63212758693E+03  0.64306439331E+03  0.00000000000E+00 0. -1.
<mgrwt>
<rscale>  2 0.11809542E+03</rscale>
<asrwt>0</asrwt>
<pdfrwt beam="1">  1       21 0.29557692E-01 0.11809542E+03</pdfrwt>
<pdfrwt beam="2">  1        2 0.10096544E+00 0.11809542E+03</pdfrwt>
<totfact> 0.64337094E+03</totfact>
</mgrwt>
</event>
<event>
 4    1  0.4926234E+003  0.1059363E+03  0.7546771E-02  0.1268286E+00
         -1   -1    0    0    0  501 -0.00000000000E+00  0.00000000000E+00  0.43712351679E+03  0.43712351679E+03  0.00000000000E+00 0.  1.
         21   -1    0    0  503  502  0.00000000000E+00 -0.00000000000E+00 -0.31512465607E+02  0.31512465607E+02  0.00000000000E+00 0.  1.
         21    1    1    2  503  501 -0.88229957445E+02  0.58634293911E+02  0.10194270518E+03  0.14701979782E+03  0.00000000000E+00 0.  1.
         -1    1    1    2    0  502  0.88229957445E+02 -0.58634293911E+02  0.30366834601E+03  0.32161618457E+03  0.00000000000E+00 0.  1.
<mgrwt>
<rscale>  2 0.10593633E+03</rscale>
<asrwt>0</asrwt>
<pdfrwt beam="2">  1       21 0.48480720E-02 0.10593633E+03</pdfrwt>
<pdfrwt beam="1">  1       -1 0.67249767E-01 0.10593633E+03</pdfrwt>
<totfact> 0.60068352E+04</totfact>
</mgrwt>
</event>
<event>
 4    1  0.4926234E+003  0.1967727E+03  0.7546771E-02  0.1152491E+00
          1   -1    0    0  503    0 -0.00000000000E+00  0.00000000000E+00  0.17355791772E+04  0.17355791772E+04  0.00000000000E+00 0. -1.
         21   -1    0    0  501  502  0.00000000000E+00 -0.00000000000E+00 -0.22462486539E+02  0.22462486539E+02  0.00000000000E+00 0.  1.
         21    1    1    2  503  502 -0.15568591401E+03 -0.12033859526E+03  0.78395745096E+03  0.80827517978E+03  0.00000000000E+00 0.  1.
          1    1    1    2  501    0  0.15568591401E+03  0.12033859526E+03  0.92915923968E+03  0.94976648394E+03  0.00000000000E+00 0. -1.
<mgrwt>
<rscale>  2 0.19677266E+03</rscale>
<asrwt>0</asrwt>
<pdfrwt beam="2">  1       21 0.34557685E-02 0.19677266E+03</pdfrwt>
<pdfrwt beam="1">  1        1 0.26701208E+00 0.19677266E+03</pdfrwt>
<totfact> 0.28558996E+04</totfact>
</mgrwt>
</event>
<event>
 4    1  0.4926234E+003  0.1067304E+03  0.7546771E-02  0.1266747E+00
         21   -1    0    0  503  502  0.00000000000E+00  0.00000000000E+00  0.34368864091E+03  0.34368864091E+03  0.00000000000E+00 0.  1.
         -1   -1    0    0    0  501 -0.00000000000E+00 -0.00000000000E+00 -0.75316111271E+02  0.75316111271E+02  0.00000000000E+00 0. -1.
         21    1    1    2  503  501  0.11724684374E+02 -0.10608442316E+03  0.29095351200E+03  0.30991179262E+03  0.00000000000E+00 0.  1.
         -1    1    1    2    0  502 -0.11724684374E+02  0.10608442316E+03 -0.22580982361E+02  0.10909295956E+03  0.00000000000E+00 0. -1.
<mgrwt>
<rscale>  2 0.10673038E+03</rscale>
<asrwt>0</asrwt>
<pdfrwt beam="1">  1       21 0.52875175E-01 0.10673038E+03</pdfrwt>
<pdfrwt beam="2">  1       -1 0.11587094E-01 0.10673038E+03</pdfrwt>
<totfact> 0.14739193E+04</totfact>
</mgrwt>
</event>
<event>
 4    1  0.4926234E+003  0.2565443E+03  0.7546771E-02  0.1109237E+00
          2   -1    0    0  502    0 -0.00000000000E+00  0.00000000000E+00  0.28531197951E+04  0.28531197951E+04  0.00000000000E+00 0.  1.
         21   -1    0    0  503  502  0.00000000000E+00 -0.00000000000E+00 -0.34982301685E+02  0.34982301685E+02  0.00000000000E+00 0. -1.
         21    1    1    2  503  501  0.17699165789E+03 -0.18571192699E+03  0.56632067666E+03  0.62171864666E+03  0.00000000000E+00 0. -1.
          2    1    1    2  501    0 -0.17699165789E+03  0.18571192699E+03  0.22518168167E+04  0.22663834501E+04  0.00000000000E+00 0.  1.
<mgrwt>
<rscale>  2 0.25654428E+03</rscale>
<asrwt>0</asrwt>
<pdfrwt beam="2">  1       21 0.53818948E-02 0.25654428E+03</pdfrwt>
<pdfrwt beam="1">  1        2 0.43894132E+00 0.25654428E+03</pdfrwt>
<totfact> 0.76887365E+03</totfact>
</mgrwt>
</event>
<event>
 4    1  0.4926234E+003  0.1221589E+03  0.7546771E-02  0.1239577E+00
          2   -1    0    0  503    0 -0.00000000000E+00  0.00000000000E+00  0.24840382252E+03  0.24840382252E+03  0.00000000000E+00 0.  1.
         21   -1    0    0  501  502  0.00000000000E+00 -0.00000000000E+00 -0.60321604481E+02  0.60321604481E+02  0.00000000000E+00 0. -1.
         21    1    1    2  503  502  0.16306903514E+02  0.12106564956E+03  0.84167081003E+02  0.14834724173E+03  0.00000000000E+00 0. -1.
          2    1    1    2  501    0 -0.16306903514E+02 -0.12106564956E+03  0.10391513704E+03  0.16037818527E+03  0.00000000000E+00 0.  1.
<mgrwt>
<rscale>  2 0.12215894E+03</rscale>
<asrwt>0</asrwt>
<pdfrwt beam="2">  1       21 0.92802470E-02 0.12215894E+03</pdfrwt>
<pdfrwt beam="1">  1        2 0.38215972E-01 0.12215894E+03</pdfrwt>
<totfact> 0.15115568E+05</totfact>
</mgrwt>
</event>
<event>
 4    1  0.4926234E+003  0.1029289E+03  0.7546771E-02  0.1274255E+00
         21   -1    0    0  503  502  0.00000000000E+00  0.00000000000E+00  0.12912044709E+03  0.12912044709E+03  0.00000000000E+00 0. -1.
         -1   -1    0    0    0  501 -0.00000000000E+00 -0.00000000000E+00 -0.82112105321E+02  0.82112105321E+02  0.00000000000E+00 0. -1.
         21    1    1    2  503  501 -0.10278010012E+03 -0.55321087764E+01  0.26405087081E+02  0.10626185502E+03  0.00000000000E+00 0. -1.
         -1    1    1    2    0  502  0.10278010012E+03  0.55321087764E+01  0.20603254690E+02  0.10497069740E+03  0.00000000000E+00 0. -1.
<mgrwt>
<rscale>  2 0.10292887E+03</rscale>
<asrwt>0</asrwt>
<pdfrwt beam="1">  1       21 0.19864684E-01 0.10292887E+03</pdfrwt>
<pdfrwt beam="2">  1       -1 0.12632632E-01 0.10292887E+03</pdfrwt>
<totfact> 0.86241816E+04</totfact>
</mgrwt>
</event>
<event>
 4    1  0.4926234E+003  0.1709411E+03  0.7546771E-02  0.1176870E+00
         -2   -1    0    0    0  501 -0.00000000000E+00  0.00000000000E+00  0.67953399082E+03  0.67953399082E+03  0.00000000000E+00 0.  1.
         21   -1    0    0  503  502  0.00000000000E+00 -0.00000000000E+00 -0.48928913931E+02  0.48928913931E+02  0.00000000000E+00 0.  1.
         21    1    1    2  503  501  0.16595219473E+03 -0.40996511531E+02  0.18852724678E+03  0.25448647836E+03  0.00000000000E+00 0.  1.
         -2    1    1    2    0  502 -0.16595219473E+03  0.40996511531E+02  0.44207783011E+03  0.47397642639E+03  0.00000000000E+00 0.  1.
<mgrwt>
<rscale>  2 0.17094106E+03</rscale>
<asrwt>0</asrwt>
<pdfrwt beam="2">  1       21 0.75275257E-02 0.17094106E+03</pdfrwt>
<pdfrwt beam="1">  1       -2 0.10454368E+00 0.17094106E+03</pdfrwt>
<totfact> 0.84717689E+03</totfact>
</mgrwt>
</event>
<event>
 4    1  0.4926234E+003  0.1522234E+03  0.7546771E-02  0.1197767E+00
         21   -1    0    0  501  502  0.00000000000E+00  0.00000000000E+00  0.86170666761E+02  0.86170666761E+02  0.00000000000E+00 0. -1.
          1   -1    0    0  503    0 -0.00000000000E+00 -0.00000000000E+00 -0.15817956209E+04  0.15817956209E+04  0.00000000000E+00 0.  1.
         21    1    1    2  503  502  0.15165377553E+03 -0.13156635517E+02  0.11981589571E+02  0.15269421462E+03  0.00000000000E+00 0. -1.
          1    1    1    2  501    0 -0.15165377553E+03  0.13156635517E+02 -0.15076065437E+04  0.15152720730E+04  0.00000000000E+00 0.  1.
<mgrwt>
<rscale>  2 0.15222340E+03</rscale>
<asrwt>0</asrwt>
<pdfrwt beam="1">  1       21 0.13257027E-01 0.15222340E+03</pdfrwt>
<pdfrwt beam="2">  1        1 0.24335314E+00 0.15222340E+03</pdfrwt>
<totfact> 0.36004483E+03</totfact>
</mgrwt>
</event>
<event>
 4    1  0.4926234E+003  0.1500355E+03  0.7546771E-02  0.1200429E+00
          2   -1    0    0  503    0 -0.00000000000E+00  0.00000000000E+00  0.20511787089E+04  0.20511787089E+04  0.00000000000E+00 0. -1.
         21   -1    0    0  501  502  0.00000000000E+00 -0.00000000000E+00 -0.97669625637E+02  0.97669625637E+02  0.00000000000E+00 0. -1.
         21    1    1    2  503  502  0.14793713107E+03 -0.25005144366E+02 -0.35508446329E+02  0.15418009520E+03  0.00000000000E+00 0. -1.
          2    1    1    2  501    0 -0.14793713107E+03  0.25005144366E+02  0.19890175296E+04  0.19946682393E+04  0.00000000000E+00 0. -1.
<mgrwt>
<rscale>  2 0.15003550E+03</rscale>
<asrwt>0</asrwt>
<pdfrwt beam="2">  1       21 0.15026098E-01 0.15003550E+03</pdfrwt>
<pdfrwt beam="1">  1        2 0.31556592E+00 0.15003550E+03</pdfrwt>
<totfact> 0.36371530E+03</totfact>
</mgrwt>
</event>
<event>
 4    1  0.4926234E+003  0.1349622E+03  0.7546771E-02  0.1220273E+00
         21   -1    0    0  503  502  0.00000000000E+00  0.00000000000E+00  0.50872627691E+03  0.50872627691E+03  0.00000000000E+00 0.  1.
         -3   -1    0    0    0  501 -0.00000000000E+00 -0.00000000000E+00 -0.63576922641E+02  0.63576922641E+02  0.00000000000E+00 0. -1.
         21    1    1    2  503  501  0.66892042123E+02  0.11721883765E+03  0.41170083525E+03  0.43325786657E+03  0.00000000000E+00 0.  1.
         -3    1    1    2    0  502 -0.66892042123E+02 -0.11721883765E+03  0.33448519014E+02  0.13904533298E+03  0.00000000000E+00 0. -1.
<mgrwt>
<rscale>  2 0.13496222E+03</rscale>
<asrwt>0</asrwt>
<pdfrwt beam="1">  1       21 0.78265579E-01 0.13496222E+03</pdfrwt>
<pdfrwt beam="2">  1       -3 0.97810653E-02 0.13496222E+03</pdfrwt>
<totfact> 0.54075186E+03</totfact>
</mgrwt>
</event>
<event>
 4    1  0.4926234E+003  0.1158745E+03  0.7546771E-02  0.1250062E+00
          2   -1    0    0  502    0 -0.00000000000E+00  0.00000000000E+00  0.10460830583E+04  0.10460830583E+04  0.00000000000E+00 0. -1.
         21   -1    0    0  503  502  0.00000000000E+00 -0.00000000000E+00 -0.20262229862E+02  0.20262229862E+02  0.00000000000E+00 0. -1.
         21    1    1    2  503  501 -0.28220604961E+02 -0.11238552184E+03  0.19011630709E+03  0.22264572371E+03  0.00000000000E+00 0. -1.
          2    1    1    2  501    0  0.28220604961E+02  0.11238552184E+03  0.83570452135E+03  0.84369956446E+03  0.00000000000E+00 0. -1.
<mgrwt>
<rscale>  2 0.11587454E+03</rscale>
<asrwt>0</asrwt>
<pdfrwt beam="2">  1       21 0.31172670E-02 0.11587454E+03</pdfrwt>
<pdfrwt beam="1">  1        2 0.16093581E+00 0.11587454E+03</pdfrwt>
<totfact> 0.18427928E+05</totfact>
</mgrwt>
</event>
<event>
 4    1  0.4926234E+003  0.1456929E+03  0.7546771E-02  0.1205868E+00
         21   -1    0    0  503  502  0.00000000000E+00  0.00000000000E+00  0.15569420786E+02  0.15569420786E+02  0.00000000000E+00 0.  1.
          2   -1    0    0  502    0 -0.00000000000E+00 -0.00000000000E+00 -0.27662911885E+04  0.27662911885E+04  0.00000000000E+00 0.  1.
         21    1    1    2  503  501 -0.55285813898E+02  0.13479580720E+03 -0.38480829569E+03  0.41146549708E+03  0.00000000000E+00 0.  1.
          2    1    1    2  501    0  0.55285813898E+02 -0.13479580720E+03 -0.23659134720E+04  0.23703951122E+04  0.00000000000E+00 0.  1.
<mgrwt>
<rscale>  2 0.14569293E+03</rscale>
<asrwt>0</asrwt>
<pdfrwt beam="1">  1       21 0.23952939E-02 0.14569293E+03</pdfrwt>
<pdfrwt beam="2">  1        2 0.42558354E+00 0.14569293E+03</pdfrwt>
<totfact> 0.34911998E+04</totfact>
</mgrwt>
</event>
<event>
 4    1  0.4926234E+003  0.1108252E+03  0.7546771E-02  0.1259049E+00
         21   -1    0    0  501  502  0.00000000000E+00  0.00000000000E+00  0.21117559158E+02  0.21117559158E+02  0.00000000000E+00 0. -1.
          2   -1    0    0  503    0 -0.00000000000E+00 -0.00000000000E+00 -0.12828597622E+04  0.12828597622E+04  0.00000000000E+00 0. -1.
         21    1    1    2  503  502 -0.90460019426E+02 -0.64025130548E+02 -0.14882774956E+03  0.18555843149E+03  0.00000000000E+00 0. -1.
          2    1    1    2  501    0  0.90460019426E+02  0.64025130548E+02 -0.11129144534E+04  0.11184188898E+04  0.00000000000E+00 0. -1.
<mgrwt>
<rscale>  2 0.11082523E+03</rscale>
<asrwt>0</asrwt>
<pdfrwt beam="1">  1       21 0.32488544E-02 0.11082523E+03</pdfrwt>
<pdfrwt beam="2">  1        2 0.19736309E+00 0.11082523E+03</pdfrwt>
<totfact> 0.12706126E+05</totfact>
</mgrwt>
</event>
<event>
 4    1  0.4926234E+003  0.1107410E+03  0.7546771E-02  0.1259204E+00
         21   -1    0    0  501  502  0.00000000000E+00  0.00000000000E+00  0.90064157940E+01  0.90064157940E+01  0.00000000000E+00 0. -1.
          1   -1    0    0  503    0 -0.00000000000E+00 -0.00000000000E+00 -0.27917289391E+04  0.27917289391E+04  0.00000000000E+00 0. -1.
         21    1    1    2  503  502 -0.10136026510E+03 -0.44605688351E+02 -0.38908898661E+03  0.40454148153E+03  0.00000000000E+00 0. -1.
          1    1    1    2  501    0  0.10136026510E+03  0.44605688351E+02 -0.23936335367E+04  0.23961938734E+04  0.00000000000E+00 0. -1.
<mgrwt>
<rscale>  2 0.11074101E+03</rscale>
<asrwt>0</asrwt>
<pdfrwt beam="1">  1       21 0.13855998E-02 0.11074101E+03</pdfrwt>
<pdfrwt beam="2">  1        1 0.42949758E+00 0.11074101E+03</pdfrwt>
<totfact> 0.26797861E+04</totfact>
</mgrwt>
</event>
<event>
 4    1  0.4926234E+003  0.1485714E+03  0.7546771E-02  0.1202239E+00
          2   -1    0    0  503    0 -0.00000000000E+00  0.00000000000E+00  0.12244961243E+04  0.12244961243E+04  0.00000000000E+00 0.  1.
         21   -1    0    0  501  502  0.00000000000E+00 -0.00000000000E+00 -0.57789929287E+02  0.57789929287E+02  0.00000000000E+00 0. -1.
         21    1    1    2  503  502 -0.97122480721E+01 -0.14825363122E+03  0.51526115723E+02  0.15725268689E+03  0.00000000000E+00 0. -1.
          2    1    1    2  501    0  0.97122480721E+01  0.14825363122E+03  0.11151800793E+04  0.11250333667E+04  0.00000000000E+00 0.  1.
<mgrwt>
<rscale>  2 0.14857142E+03</rscale>
<asrwt>0</asrwt>
<pdfrwt beam="2">  1       21 0.88907592E-02 0.14857142E+03</pdfrwt>
<pdfrwt beam="1">  1        2 0.18838400E+00 0.14857142E+03</pdfrwt>
<totfact> 0.24936284E+04</totfact>
</mgrwt>
</event>
<event>
 4    1  0.4926234E+003  0.1491068E+03  0.7546771E-02  0.1201575E+00
         21   -1    0    0  501  502  0.00000000000E+00  0.00000000000E+00  0.35153352080E+02  0.35153352080E+02  0.00000000000E+00 0. -1.
          2   -1    0    0  503    0 -0.00000000000E+00 -0.00000000000E+00 -0.28705196993E+04  0.28705196993E+04  0.00000000000E+00 0. -1.
         21    1    1    2  503  502 -0.26692686427E+02 -0.14669815624E+03 -0.13484173141E+03  0.20103517375E+03  0.00000000000E+00 0. -1.
          2    1    1    2  501    0  0.26692686427E+02  0.14669815624E+03 -0.27005246158E+04  0.27046378776E+04  0.00000000000E+00 0. -1.
<mgrwt>
<rscale>  2 0.14910684E+03</rscale>
<asrwt>0</asrwt>
<pdfrwt beam="1">  1       21 0.54082077E-02 0.14910684E+03</pdfrwt>
<pdfrwt beam="2">  1        2 0.44161844E+00 0.14910684E+03</pdfrwt>
<totfact> 0.78856112E+03</totfact>
</mgrwt>
</event>
<event>
 4    1  0.4926234E+003  0.1036192E+03  0.7546771E-02  0.1272864E+00
         21   -1    0    0  501  502  0.00000000000E+00  0.00000000000E+00  0.10920374197E+02  0.10920374197E+02  0.00000000000E+00 0.  1.
          1   -1    0    0  503    0 -0.00000000000E+00 -0.00000000000E+00 -0.10787663473E+04  0.10787663473E+04  0.00000000000E+00 0.  1.
         21    1    1    2  503  502  0.41414510593E+02 -0.94983059242E+02 -0.37175917459E+03  0.38592982150E+03  0.00000000000E+00 0.  1.
          1    1    1    2  501    0 -0.41414510593E+02  0.94983059242E+02 -0.69608679849E+03  0.70375689997E+03  0.00000000000E+00 0.  1.
<mgrwt>
<rscale>  2 0.10361922E+03</rscale>
<asrwt>0</asrwt>
<pdfrwt beam="1">  1       21 0.16800579E-02 0.10361922E+03</pdfrwt>
<pdfrwt beam="2">  1        1 0.16596402E+00 0.10361922E+03</pdfrwt>
<totfact> 0.25259336E+05</totfact>
</mgrwt>
</event>
<event>
 4    1  0.4926234E+003  0.1004325E+03  0.7546771E-02  0.1279389E+00
         21   -1    0    0  501  502  0.00000000000E+00  0.00000000000E+00  0.41824231469E+02  0.41824231469E+02  0.00000000000E+00 0.  1.
          1   -1    0    0  503    0 -0.00000000000E+00 -0.00000000000E+00 -0.16677252760E+04  0.16677252760E+04  0.00000000000E+00 0.  1.
         21    1    1    2  503  502 -0.69006493101E+02 -0.72971161097E+02 -0.22392110254E+02  0.10289845987E+03  0.00000000000E+00 0.  1.
          1    1    1    2  501    0  0.69006493101E+02  0.72971161097E+02 -0.16035089343E+04  0.16066510476E+04  0.00000000000E+00 0.  1.
<mgrwt>
<rscale>  2 0.10043250E+03</rscale>
<asrwt>0</asrwt>
<pdfrwt beam="1">  1       21 0.64344965E-02 0.10043250E+03</pdfrwt>
<pdfrwt beam="2">  1        1 0.25657315E+00 0.10043250E+03</pdfrwt>
<totfact> 0.11471479E+04</totfact>
</mgrwt>
</event>
<event>
 4    1  0.4926234E+003  0.1026058E+03  0.7546771E-02  0.1274910E+00
          1   -1    0    0  503    0 -0.00000000000E+00  0.00000000000E+00  0.14705501434E+04  0.14705501434E+04  0.00000000000E+00 0.  1.
         21   -1    0    0  501  502  0.00000000000E+00 -0.00000000000E+00 -0.25022714933E+02  0.25022714933E+02  0.00000000000E+00 0. -1.
         21    1    1    2  503  502  0.72888500374E+02  0.72216412309E+02  0.90942825617E+02  0.13710777230E+03  0.00000000000E+00 0. -1.
          1    1    1    2  501    0 -0.72888500374E+02 -0.72216412309E+02  0.13545846028E+04  0.13584650860E+04  0.00000000000E+00 0.  1.
<mgrwt>
<rscale>  2 0.10260577E+03</rscale>
<asrwt>0</asrwt>
<pdfrwt beam="2">  1       21 0.38496496E-02 0.10260577E+03</pdfrwt>
<pdfrwt beam="1">  1        1 0.22623842E+00 0.10260577E+03</pdfrwt>
<totfact> 0.36086532E+04</totfact>
</mgrwt>
</event>
<event>
 4    1  0.4926234E+003  0.1137293E+03  0.7546771E-02  0.1253816E+00
          2   -1    0    0  503    0 -0.00000000000E+00  0.00000000000E+00  0.96569767314E+03  0.96569767314E+03  0.00000000000E+00 0.  1.
         21   -1    0    0  501  502  0.00000000000E+00 -0.00000000000E+00 -0.22992216568E+02  0.22992216568E+02  0.00000000000E+00 0. -1.
         21    1    1    2  503  502 -0.10944143731E+03  0.30934303213E+02  0.15194933562E+03  0.18979715464E+03  0.00000000000E+00 0. -1.
          2    1    1    2  501    0  0.10944143731E+03 -0.30934303213E+02  0.79075612096E+03  0.79889273507E+03  0.00000000000E+00 0.  1.
<mgrwt>
<rscale>  2 0.11372932E+03</rscale>
<asrwt>0</asrwt>
<pdfrwt beam="2">  1       21 0.35372648E-02 0.11372932E+03</pdfrwt>
<pdfrwt beam="1">  1        2 0.14856884E+00 0.11372932E+03</pdfrwt>
<totfact> 0.16696456E+05</totfact>
</mgrwt>
</event>
<event>
 4    1  0.4926234E+003  0.1018889E+03  0.7546771E-02  0.1276373E+00
          2   -1    0    0  502    0 -0.00000000000E+00  0.00000000000E+00  0.27017843451E+04  0.27017843451E+04  0.00000000000E+00 0. -1.
         21   -1    0    0  503  502  0.00000000000E+00 -0.00000000000E+00 -0.96962018940E+01  0.96962018940E+01  0.00000000000E+00 0.  1.
         21    1    1    2  503  501  0.95791286067E+02  0.34718496027E+02  0.29264102729E+03  0.30987112693E+03  0.00000000000E+00 0.  1.
          2    1    1    2  501    0 -0.95791286067E+02 -0.34718496027E+02  0.23994471159E+04  0.24016094200E+04  0.00000000000E+00 0. -1.
<mgrwt>
<rscale>  2 0.10188888E+03</rscale>
<asrwt>0</asrwt>
<pdfrwt beam="2">  1       21 0.14917255E-02 0.10188888E+03</pdfrwt>
<pdfrwt beam="1">  1        2 0.41565853E+00 0.10188888E+03</pdfrwt>
<totfact> 0.82462325E+04</totfact>
</mgrwt>
</event>
<event>
 4    1  0.4926234E+003  0.1124650E+03  0.7546771E-02  0.1256072E+00
         21   -1    0    0  501  502  0.00000000000E+00  0.00000000000E+00  0.31401671754E+02  0.31401671754E+02  0.00000000000E+00 0.  1.
         -1   -1    0    0    0  501 -0.00000000000E+00 -0.00000000000E+00 -0.14471998777E+04  0.14471998777E+04  0.00000000000E+00 0.  1.
         21    1    1    2  503  502 -0.11057038267E+03 -0.20556508052E+02 -0.79852711413E+02  0.13793054436E+03  0.00000000000E+00 0.  1.
         -1    1    1    2    0  503  0.11057038267E+03  0.20556508052E+02 -0.13359454945E+04  0.13406710051E+04  0.00000000000E+00 0.  1.
<mgrwt>
<rscale>  2 0.11246501E+03</rscale>
<asrwt>0</asrwt>
<pdfrwt beam="1">  1       21 0.48310271E-02 0.11246501E+03</pdfrwt>
<pdfrwt beam="2">  1       -1 0.22264610E+00 0.11246501E+03</pdfrwt>
<totfact> 0.32979506E+03</totfact>
</mgrwt>
</event>
<event>
 4    1  0.4926234E+003  0.1104903E+03  0.7546771E-02  0.1259665E+00
         21   -1    0    0  503  502  0.00000000000E+00  0.00000000000E+00  0.12073523806E+02  0.12073523806E+02  0.00000000000E+00 0.  1.
          2   -1    0    0  502    0 -0.00000000000E+00 -0.00000000000E+00 -0.18332630260E+04  0.18332630260E+04  0.00000000000E+00 0.  1.
         21    1    1    2  503  501 -0.86332841085E+02  0.68954743102E+02 -0.29272125592E+03  0.31287992859E+03  0.00000000000E+00 0.  1.
          2    1    1    2  501    0  0.86332841085E+02 -0.68954743102E+02 -0.15284682462E+04  0.15324566212E+04  0.00000000000E+00 0.  1.
<mgrwt>
<rscale>  2 0.11049034E+03</rscale>
<asrwt>0</asrwt>
<pdfrwt beam="1">  1       21 0.18574661E-02 0.11049034E+03</pdfrwt>
<pdfrwt beam="2">  1        2 0.28204032E+00 0.11049034E+03</pdfrwt>
<totfact> 0.16363870E+05</totfact>
</mgrwt>
</event>
<event>
 4    1  0.4926234E+003  0.1362000E+03  0.7546771E-02  0.1218536E+00
          2   -1    0    0  502    0 -0.00000000000E+00  0.00000000000E+00  0.11516675076E+04  0.11516675076E+04  0.00000000000E+00 0.  1.
         21   -1    0    0  503  502  0.00000000000E+00 -0.00000000000E+00 -0.37828883929E+03  0.37828883929E+03  0.00000000000E+00 0. -1.
         21    1    1    2  503  501  0.10401493577E+03  0.87928043005E+02 -0.36182536620E+03  0.38661097143E+03  0.00000000000E+00 0. -1.
          2    1    1    2  501    0 -0.10401493577E+03 -0.87928043005E+02  0.11352040346E+04  0.11433453755E+04  0.00000000000E+00 0.  1.
<mgrwt>
<rscale>  2 0.13620003E+03</rscale>
<asrwt>0</asrwt>
<pdfrwt beam="2">  1       21 0.58198283E-01 0.13620003E+03</pdfrwt>
<pdfrwt beam="1">  1        2 0.17717962E+00 0.13620003E+03</pdfrwt>
<totfact> 0.78495956E+02</totfact>
</mgrwt>
</event>
<event>
 4    1  0.4926234E+003  0.1163388E+03  0.7546771E-02  0.1249262E+00
         21   -1    0    0  503  502  0.00000000000E+00  0.00000000000E+00  0.35167251800E+02  0.35167251800E+02  0.00000000000E+00 0. -1.
         -4   -1    0    0    0  501 -0.00000000000E+00 -0.00000000000E+00 -0.39332211274E+03  0.39332211274E+03  0.00000000000E+00 0. -1.
         21    1    1    2  503  501 -0.90833900355E+02 -0.72690638826E+02 -0.14766605125E+03  0.18798933246E+03  0.00000000000E+00 0. -1.
         -4    1    1    2    0  502  0.90833900355E+02  0.72690638826E+02 -0.21048880968E+03  0.24050003208E+03  0.00000000000E+00 0. -1.
<mgrwt>
<rscale>  2 0.11633884E+03</rscale>
<asrwt>0</asrwt>
<pdfrwt beam="1">  1       21 0.54103469E-02 0.11633884E+03</pdfrwt>
<pdfrwt beam="2">  1       -4 0.60511089E-01 0.11633884E+03</pdfrwt>
<totfact> 0.24456500E+04</totfact>
</mgrwt>
</event>
<event>
 4    1  0.4926234E+003  0.1643156E+03  0.7546771E-02  0.1183909E+00
          3   -1    0    0  503    0 -0.00000000000E+00  0.00000000000E+00  0.16643039689E+03  0.16643039689E+03  0.00000000000E+00 0. -1.
         21   -1    0    0  501  502  0.00000000000E+00 -0.00000000000E+00 -0.24063762101E+03  0.24063762101E+03  0.00000000000E+00 0. -1.
         21    1    1    2  503  502  0.12723482300E+03  0.10397550057E+03 -0.15328618549E+03  0.22471372803E+03  0.00000000000E+00 0. -1.
          3    1    1    2  501    0 -0.12723482300E+03 -0.10397550057E+03  0.79078961377E+02  0.18235428987E+03  0.00000000000E+00 0. -1.
<mgrwt>
<rscale>  2 0.16431557E+03</rscale>
<asrwt>0</asrwt>
<pdfrwt beam="2">  1       21 0.37021173E-01 0.16431557E+03</pdfrwt>
<pdfrwt beam="1">  1        3 0.25604676E-01 0.16431557E+03</pdfrwt>
<totfact> 0.49733034E+03</totfact>
</mgrwt>
</event>
<event>
 4    1  0.4926234E+003  0.1007819E+03  0.7546771E-02  0.1278660E+00
          4   -1    0    0  503    0 -0.00000000000E+00  0.00000000000E+00  0.13652059443E+04  0.13652059443E+04  0.00000000000E+00 0.  1.
         21   -1    0    0  501  502  0.00000000000E+00 -0.00000000000E+00 -0.78833100139E+01  0.78833100139E+01  0.00000000000E+00 0.  1.
         21    1    1    2  503  502  0.66694027228E+02 -0.75557269988E+02  0.51583758069E+03  0.52559052881E+03  0.00000000000E+00 0.  1.
          4    1    1    2  501    0 -0.66694027228E+02  0.75557269988E+02  0.84148505357E+03  0.84749872548E+03  0.00000000000E+00 0.  1.
<mgrwt>
<rscale>  2 0.10078191E+03</rscale>
<asrwt>0</asrwt>
<pdfrwt beam="2">  1       21 0.12128180E-02 0.10078191E+03</pdfrwt>
<pdfrwt beam="1">  1        4 0.21003150E+00 0.10078191E+03</pdfrwt>
<totfact> 0.13846462E+04</totfact>
</mgrwt>
</event>
<event>
 4    1  0.4926234E+003  0.1241659E+03  0.7546771E-02  0.1236379E+00
         21   -1    0    0  501  502  0.00000000000E+00  0.00000000000E+00  0.51385325839E+02  0.51385325839E+02  0.00000000000E+00 0.  1.
          2   -1    0    0  503    0 -0.00000000000E+00 -0.00000000000E+00 -0.66139076068E+03  0.66139076068E+03  0.00000000000E+00 0.  1.
         21    1    1    2  503  502 -0.54167160549E+02  0.11172774839E+03 -0.41573350553E+02  0.13094088177E+03  0.00000000000E+00 0.  1.
          2    1    1    2  501    0  0.54167160549E+02 -0.11172774839E+03 -0.56843208429E+03  0.58183520476E+03  0.00000000000E+00 0.  1.
<mgrwt>
<rscale>  2 0.12416590E+03</rscale>
<asrwt>0</asrwt>
<pdfrwt beam="1">  1       21 0.79054349E-02 0.12416590E+03</pdfrwt>
<pdfrwt beam="2">  1        2 0.10175242E+00 0.12416590E+03</pdfrwt>
<totfact> 0.69181305E+04</totfact>
</mgrwt>
</event>
<event>
 4    1  0.4926234E+003  0.1120330E+03  0.7546771E-02  0.1256851E+00
          2   -1    0    0  502    0 -0.00000000000E+00  0.00000000000E+00  0.22102226753E+04  0.22102226753E+04  0.00000000000E+00 0.  1.
         21   -1    0    0  503  502  0.00000000000E+00 -0.00000000000E+00 -0.15790075899E+03  0.15790075899E+03  0.00000000000E+00 0.  1.
         21    1    1    2  503  501 -0.10768390185E+03  0.30912479599E+02 -0.13641380136E+03  0.17652231959E+03  0.00000000000E+00 0.  1.
          2    1    1    2  501    0  0.10768390185E+03 -0.30912479599E+02  0.21887357176E+04  0.21916011147E+04  0.00000000000E+00 0.  1.
<mgrwt>
<rscale>  2 0.11203305E+03</rscale>
<asrwt>0</asrwt>
<pdfrwt beam="2">  1       21 0.24292426E-01 0.11203305E+03</pdfrwt>
<pdfrwt beam="1">  1        2 0.34003424E+00 0.11203305E+03</pdfrwt>
<totfact> 0.12857167E+03</totfact>
</mgrwt>
</event>
<event>
 4    1  0.4926234E+003  0.1217249E+03  0.7546771E-02  0.1240278E+00
         21   -1    0    0  501  502  0.00000000000E+00  0.00000000000E+00  0.15025336290E+02  0.15025336290E+02  0.00000000000E+00 0.  1.
         -1   -1    0    0    0  501 -0.00000000000E+00 -0.00000000000E+00 -0.11675957865E+04  0.11675957865E+04  0.00000000000E+00 0.  1.
         21    1    1    2  503  502 -0.94634247119E+02 -0.76559204994E+02 -0.34317284277E+03  0.36412161789E+03  0.00000000000E+00 0.  1.
         -1    1    1    2    0  503  0.94634247119E+02  0.76559204994E+02 -0.80939760741E+03  0.81849950487E+03  0.00000000000E+00 0.  1.
<mgrwt>
<rscale>  2 0.12172491E+03</rscale>
<asrwt>0</asrwt>
<pdfrwt beam="1">  1       21 0.23115904E-02 0.12172491E+03</pdfrwt>
<pdfrwt beam="2">  1       -1 0.17963010E+00 0.12172491E+03</pdfrwt>
<totfact> 0.21202525E+04</totfact>
</mgrwt>
</event>
<event>
 4    1  0.4926234E+003  0.1306729E+03  0.7546771E-02  0.1226461E+00
         21   -1    0    0  503  502  0.00000000000E+00  0.00000000000E+00  0.87877970265E+02  0.87877970265E+02  0.00000000000E+00 0.  1.
          1   -1    0    0  502    0 -0.00000000000E+00 -0.00000000000E+00 -0.26067506124E+03  0.26067506124E+03  0.00000000000E+00 0.  1.
         21    1    1    2  503  501  0.20998041256E+02 -0.12897472260E+03  0.15371626618E+01  0.13068190263E+03  0.00000000000E+00 0.  1.
          1    1    1    2  501    0 -0.20998041256E+02  0.12897472260E+03 -0.17433425364E+03  0.21787112887E+03  0.00000000000E+00 0.  1.
<mgrwt>
<rscale>  2 0.13067286E+03</rscale>
<asrwt>0</asrwt>
<pdfrwt beam="1">  1       21 0.13519688E-01 0.13067286E+03</pdfrwt>
<pdfrwt beam="2">  1        1 0.40103855E-01 0.13067286E+03</pdfrwt>
<totfact> 0.53826549E+04</totfact>
</mgrwt>
</event>
<event>
 4    1  0.4926234E+003  0.1271777E+03  0.7546771E-02  0.1231705E+00
         21   -1    0    0  501  502  0.00000000000E+00  0.00000000000E+00  0.22097344320E+04  0.22097344320E+04  0.00000000000E+00 0. -1.
         -3   -1    0    0    0  501 -0.00000000000E+00 -0.00000000000E+00 -0.27691283419E+02  0.27691283419E+02  0.00000000000E+00 0.  1.
         21    1    1    2  503  502  0.19098105265E+02  0.12573556343E+03  0.20505581279E+04  0.20544981882E+04  0.00000000000E+00 0. -1.
         -3    1    1    2    0  503 -0.19098105265E+02 -0.12573556343E+03  0.13148502064E+03  0.18292752715E+03  0.00000000000E+00 0.  1.
<mgrwt>
<rscale>  2 0.12717771E+03</rscale>
<asrwt>0</asrwt>
<pdfrwt beam="1">  1       21 0.33995901E+00 0.12717771E+03</pdfrwt>
<pdfrwt beam="2">  1       -3 0.42601992E-02 0.12717771E+03</pdfrwt>
<totfact> 0.30849557E+02</totfact>
</mgrwt>
</event>
<event>
 4    1  0.4926234E+003  0.1225440E+03  0.7546771E-02  0.1238958E+00
          2   -1    0    0  502    0 -0.00000000000E+00  0.00000000000E+00  0.15435113018E+04  0.15435113018E+04  0.00000000000E+00 0.  1.
         21   -1    0    0  503  502  0.00000000000E+00 -0.00000000000E+00 -0.21428640221E+02  0.21428640221E+02  0.00000000000E+00 0.  1.
         21    1    1    2  503  501 -0.12211659148E+03  0.10225419577E+02  0.18287309860E+03  0.22013539314E+03  0.00000000000E+00 0.  1.
          2    1    1    2  501    0  0.12211659148E+03 -0.10225419577E+02  0.13392095629E+04  0.13448045488E+04  0.00000000000E+00 0.  1.
<mgrwt>
<rscale>  2 0.12254396E+03</rscale>
<asrwt>0</asrwt>
<pdfrwt beam="2">  1       21 0.32967151E-02 0.12254396E+03</pdfrwt>
<pdfrwt beam="1">  1        2 0.23746319E+00 0.12254396E+03</pdfrwt>
<totfact> 0.90579030E+04</totfact>
</mgrwt>
</event>
<event>
 4    1  0.4926234E+003  0.1018365E+03  0.7546771E-02  0.1276481E+00
          3   -1    0    0  502    0 -0.00000000000E+00  0.00000000000E+00  0.11991650031E+04  0.11991650031E+04  0.00000000000E+00 0.  1.
         21   -1    0    0  503  502  0.00000000000E+00 -0.00000000000E+00 -0.11988031814E+02  0.11988031814E+02  0.00000000000E+00 0. -1.
         21    1    1    2  503  501  0.10179725833E+03  0.28263679488E+01  0.27395328903E+03  0.29226883982E+03  0.00000000000E+00 0. -1.
          3    1    1    2  501    0 -0.10179725833E+03 -0.28263679488E+01  0.91322368224E+03  0.91888419508E+03  0.00000000000E+00 0.  1.
<mgrwt>
<rscale>  2 0.10183649E+03</rscale>
<asrwt>0</asrwt>
<pdfrwt beam="2">  1       21 0.18443135E-02 0.10183649E+03</pdfrwt>
<pdfrwt beam="1">  1        3 0.18448683E+00 0.10183649E+03</pdfrwt>
<totfact> 0.13421219E+04</totfact>
</mgrwt>
</event>
<event>
 4    1  0.4926234E+003  0.1131054E+03  0.7546771E-02  0.1254925E+00
          2   -1    0    0  502    0 -0.00000000000E+00  0.00000000000E+00  0.15739085188E+03  0.15739085188E+03  0.00000000000E+00 0.  1.
         21   -1    0    0  503  502  0.00000000000E+00 -0.00000000000E+00 -0.10678812881E+03  0.10678812881E+03  0.00000000000E+00 0.  1.
         21    1    1    2  503  501  0.98536736036E+02  0.55527938455E+02 -0.39255145909E+02  0.11972387723E+03  0.00000000000E+00 0.  1.
          2    1    1    2  501    0 -0.98536736036E+02 -0.55527938455E+02  0.89857868986E+02  0.14445510346E+03  0.00000000000E+00 0.  1.
<mgrwt>
<rscale>  2 0.11310544E+03</rscale>
<asrwt>0</asrwt>
<pdfrwt beam="2">  1       21 0.16428943E-01 0.11310544E+03</pdfrwt>
<pdfrwt beam="1">  1        2 0.24213977E-01 0.11310544E+03</pdfrwt>
<totfact> 0.89590664E+04</totfact>
</mgrwt>
</event>
<event>
 4    1  0.4926234E+003  0.1120081E+03  0.7546771E-02  0.1256896E+00
          2   -1    0    0  503    0 -0.00000000000E+00  0.00000000000E+00  0.13664498718E+04  0.13664498718E+04  0.00000000000E+00 0. -1.
         21   -1    0    0  501  502  0.00000000000E+00 -0.00000000000E+00 -0.25093593695E+03  0.25093593695E+03  0.00000000000E+00 0.  1.
         21    1    1    2  503  502  0.10956440043E+03  0.23269337927E+02 -0.23600372011E+03  0.26123471407E+03  0.00000000000E+00 0.  1.
          2    1    1    2  501    0 -0.10956440043E+03 -0.23269337927E+02  0.13515176550E+04  0.13561510947E+04  0.00000000000E+00 0. -1.
<mgrwt>
<rscale>  2 0.11200812E+03</rscale>
<asrwt>0</asrwt>
<pdfrwt beam="2">  1       21 0.38605529E-01 0.11200812E+03</pdfrwt>
<pdfrwt beam="1">  1        2 0.21022305E+00 0.11200812E+03</pdfrwt>
<totfact> 0.14212277E+03</totfact>
</mgrwt>
</event>
<event>
 4    1  0.4926234E+003  0.1296153E+03  0.7546771E-02  0.1228028E+00
         21   -1    0    0  501  502  0.00000000000E+00  0.00000000000E+00  0.85783767803E+02  0.85783767803E+02  0.00000000000E+00 0. -1.
         -1   -1    0    0    0  501 -0.00000000000E+00 -0.00000000000E+00 -0.12516831987E+04  0.12516831987E+04  0.00000000000E+00 0. -1.
         21    1    1    2  503  502  0.11727064601E+03  0.55206228564E+02  0.31243475839E+02  0.13332774231E+03  0.00000000000E+00 0. -1.
         -1    1    1    2    0  503 -0.11727064601E+03 -0.55206228564E+02 -0.11971429068E+04  0.12041392242E+04  0.00000000000E+00 0. -1.
<mgrwt>
<rscale>  2 0.12961532E+03</rscale>
<asrwt>0</asrwt>
<pdfrwt beam="1">  1       21 0.13197502E-01 0.12961532E+03</pdfrwt>
<pdfrwt beam="2">  1       -1 0.19256666E+00 0.12961532E+03</pdfrwt>
<totfact> 0.90794361E+02</totfact>
</mgrwt>
</event>
<event>
 4    1  0.4926234E+003  0.1075680E+03  0.7546771E-02  0.1265141E+00
          2   -1    0    0  503    0 -0.00000000000E+00  0.00000000000E+00  0.89359332464E+03  0.89359332464E+03  0.00000000000E+00 0. -1.
         21   -1    0    0  501  502  0.00000000000E+00 -0.00000000000E+00 -0.13333515811E+02  0.13333515811E+02  0.00000000000E+00 0. -1.
         21    1    1    2  503  502  0.55542525894E+02 -0.92118983011E+02  0.36309425580E+03  0.37869290700E+03  0.00000000000E+00 0. -1.
          2    1    1    2  501    0 -0.55542525894E+02  0.92118983011E+02  0.51716555303E+03  0.52823393346E+03  0.00000000000E+00 0. -1.
<mgrwt>
<rscale>  2 0.10756802E+03</rscale>
<asrwt>0</asrwt>
<pdfrwt beam="2">  1       21 0.20513108E-02 0.10756802E+03</pdfrwt>
<pdfrwt beam="1">  1        2 0.13747585E+00 0.10756802E+03</pdfrwt>
<totfact> 0.44760353E+05</totfact>
</mgrwt>
</event>
<event>
 4    1  0.4926234E+003  0.1128268E+03  0.7546771E-02  0.1255423E+00
          1   -1    0    0  502    0 -0.00000000000E+00  0.00000000000E+00  0.26391259965E+04  0.26391259965E+04  0.00000000000E+00 0.  1.
         21   -1    0    0  503  502  0.00000000000E+00 -0.00000000000E+00 -0.85491366369E+01  0.85491366369E+01  0.00000000000E+00 0.  1.
         21    1    1    2  503  501 -0.10176643187E+03 -0.48718441073E+02  0.44136718389E+03  0.45555996770E+03  0.00000000000E+00 0.  1.
          1    1    1    2  501    0  0.10176643187E+03  0.48718441073E+02  0.21892096760E+04  0.21921151654E+04  0.00000000000E+00 0.  1.
<mgrwt>
<rscale>  2 0.11282683E+03</rscale>
<asrwt>0</asrwt>
<pdfrwt beam="2">  1       21 0.13152539E-02 0.11282683E+03</pdfrwt>
<pdfrwt beam="1">  1        1 0.40601874E+00 0.11282683E+03</pdfrwt>
<totfact> 0.36692963E+04</totfact>
</mgrwt>
</event>
<event>
 4    1  0.4926234E+003  0.1335717E+03  0.7546771E-02  0.1222250E+00
         -1   -1    0    0    0  501 -0.00000000000E+00  0.00000000000E+00  0.47542135001E+03  0.47542135001E+03  0.00000000000E+00 0.  1.
         21   -1    0    0  503  502  0.00000000000E+00 -0.00000000000E+00 -0.39426755536E+02  0.39426755536E+02  0.00000000000E+00 0.  1.
         21    1    1    2  503  501  0.10386473357E+03 -0.83985148945E+02  0.16149812580E+03  0.20957822587E+03  0.00000000000E+00 0.  1.
         -1    1    1    2    0  502 -0.10386473357E+03  0.83985148945E+02  0.27449646868E+03  0.30526987968E+03  0.00000000000E+00 0.  1.
<mgrwt>
<rscale>  2 0.13357166E+03</rscale>
<asrwt>0</asrwt>
<pdfrwt beam="2">  1       21 0.60656550E-02 0.13357166E+03</pdfrwt>
<pdfrwt beam="1">  1       -1 0.73141742E-01 0.13357166E+03</pdfrwt>
<totfact> 0.35195903E+04</totfact>
</mgrwt>
</event>
<event>
 4    1  0.4926234E+003  0.2405402E+03  0.7546771E-02  0.1119433E+00
         21   -1    0    0  501  502  0.00000000000E+00  0.00000000000E+00  0.16651327893E+04  0.16651327893E+04  0.00000000000E+00 0. -1.
          4   -1    0    0  503    0 -0.00000000000E+00 -0.00000000000E+00 -0.44828191601E+02  0.44828191601E+02  0.00000000000E+00 0. -1.
         21    1    1    2  503  502 -0.21099768822E+03  0.11549699572E+03  0.12155869449E+04  0.12391574562E+04  0.00000000000E+00 0. -1.
          4    1    1    2  501    0  0.21099768822E+03 -0.11549699572E+03  0.40471765279E+03  0.47080352477E+03  0.00000000000E+00 0. -1.
<mgrwt>
<rscale>  2 0.24054018E+03</rscale>
<asrwt>0</asrwt>
<pdfrwt beam="1">  1       21 0.25617423E+00 0.24054018E+03</pdfrwt>
<pdfrwt beam="2">  1        4 0.68966461E-02 0.24054018E+03</pdfrwt>
<totfact> 0.35617186E+02</totfact>
</mgrwt>
</event>
<event>
 4    1  0.4926234E+003  0.1067122E+03  0.7546771E-02  0.1266782E+00
         21   -1    0    0  501  502  0.00000000000E+00  0.00000000000E+00  0.18793124140E+02  0.18793124140E+02  0.00000000000E+00 0.  1.
          2   -1    0    0  503    0 -0.00000000000E+00 -0.00000000000E+00 -0.72676660194E+03  0.72676660194E+03  0.00000000000E+00 0.  1.
         21    1    1    2  503  502 -0.76951811401E+02  0.73931837642E+02 -0.20198904971E+03  0.22844490385E+03  0.00000000000E+00 0.  1.
          2    1    1    2  501    0  0.76951811401E+02 -0.73931837642E+02 -0.50598442809E+03  0.51711482222E+03  0.00000000000E+00 0.  1.
<mgrwt>
<rscale>  2 0.10671222E+03</rscale>
<asrwt>0</asrwt>
<pdfrwt beam="1">  1       21 0.28912500E-02 0.10671222E+03</pdfrwt>
<pdfrwt beam="2">  1        2 0.11181024E+00 0.10671222E+03</pdfrwt>
<totfact> 0.33137508E+05</totfact>
</mgrwt>
</event>
<event>
 4    1  0.4926234E+003  0.1004976E+03  0.7546771E-02  0.1279253E+00
         21   -1    0    0  503  502  0.00000000000E+00  0.00000000000E+00  0.29922922049E+02  0.29922922049E+02  0.00000000000E+00 0. -1.
          1   -1    0    0  502    0 -0.00000000000E+00 -0.00000000000E+00 -0.39785692250E+03  0.39785692250E+03  0.00000000000E+00 0.  1.
         21    1    1    2  503  501 -0.45730083269E+02  0.89490419064E+02 -0.10067649987E+03  0.14225165463E+03  0.00000000000E+00 0. -1.
          1    1    1    2  501    0  0.45730083269E+02 -0.89490419064E+02 -0.26725750058E+03  0.28552818991E+03  0.00000000000E+00 0.  1.
<mgrwt>
<rscale>  2 0.10049764E+03</rscale>
<asrwt>0</asrwt>
<pdfrwt beam="1">  1       21 0.46035266E-02 0.10049764E+03</pdfrwt>
<pdfrwt beam="2">  1        1 0.61208755E-01 0.10049764E+03</pdfrwt>
<totfact> 0.20158570E+05</totfact>
</mgrwt>
</event>
<event>
 4    1  0.4926234E+003  0.1002006E+03  0.7546771E-02  0.1279875E+00
          2   -1    0    0  502    0 -0.00000000000E+00  0.00000000000E+00  0.54249529797E+02  0.54249529797E+02  0.00000000000E+00 0.  1.
         21   -1    0    0  503  502  0.00000000000E+00 -0.00000000000E+00 -0.11262398806E+04  0.11262398806E+04  0.00000000000E+00 0.  1.
         21    1    1    2  503  501  0.40551497146E+02  0.91628256262E+02 -0.10755676730E+04  0.10802249675E+04  0.00000000000E+00 0.  1.
          2    1    1    2  501    0 -0.40551497146E+02 -0.91628256262E+02  0.35773222134E+01  0.10026444285E+03  0.00000000000E+00 0.  1.
<mgrwt>
<rscale>  2 0.10020061E+03</rscale>
<asrwt>0</asrwt>
<pdfrwt beam="2">  1       21 0.17326769E+00 0.10020061E+03</pdfrwt>
<pdfrwt beam="1">  1        2 0.83460809E-02 0.10020061E+03</pdfrwt>
<totfact> 0.20856900E+03</totfact>
</mgrwt>
</event>
<event>
 4    1  0.4926234E+003  0.1959862E+03  0.7546771E-02  0.1153170E+00
          2   -1    0    0  502    0 -0.00000000000E+00  0.00000000000E+00  0.18847330538E+04  0.18847330538E+04  0.00000000000E+00 0.  1.
         21   -1    0    0  503  502  0.00000000000E+00 -0.00000000000E+00 -0.35694925198E+03  0.35694925198E+03  0.00000000000E+00 0. -1.
         21    1    1    2  503  501  0.17715958391E+03  0.83815604833E+02 -0.32448206963E+03  0.37907675647E+03  0.00000000000E+00 0. -1.
          2    1    1    2  501    0 -0.17715958391E+03 -0.83815604833E+02  0.18522658714E+04  0.18626055493E+04  0.00000000000E+00 0.  1.
<mgrwt>
<rscale>  2 0.19598616E+03</rscale>
<asrwt>0</asrwt>
<pdfrwt beam="2">  1       21 0.54915271E-01 0.19598616E+03</pdfrwt>
<pdfrwt beam="1">  1        2 0.28995893E+00 0.19598616E+03</pdfrwt>
<totfact> 0.34509682E+02</totfact>
</mgrwt>
</event>
<event>
 4    1  0.4926234E+003  0.3525343E+03  0.7546771E-02  0.1061580E+00
         -1   -1    0    0    0  501 -0.00000000000E+00  0.00000000000E+00  0.37788876153E+03  0.37788876153E+03  0.00000000000E+00 0. -1.
         21   -1    0    0  501  502  0.00000000000E+00 -0.00000000000E+00 -0.20579554450E+04  0.20579554450E+04  0.00000000000E+00 0. -1.
         21    1    1    2  503  502  0.13241813431E+03  0.32671989634E+03 -0.19564038833E+04  0.19879126258E+04  0.00000000000E+00 0. -1.
         -1    1    1    2    0  503 -0.13241813431E+03 -0.32671989634E+03  0.27633719990E+03  0.44793158073E+03  0.00000000000E+00 0. -1.
<mgrwt>
<rscale>  2 0.35253433E+03</rscale>
<asrwt>0</asrwt>
<pdfrwt beam="2">  1       21 0.31660854E+00 0.35253433E+03</pdfrwt>
<pdfrwt beam="1">  1       -1 0.58136731E-01 0.35253433E+03</pdfrwt>
<totfact> 0.66568902E+00</totfact>
</mgrwt>
</event>
<event>
 4    1  0.4926234E+003  0.1856533E+03  0.7546771E-02  0.1162441E+00
         21   -1    0    0  501  502  0.00000000000E+00  0.00000000000E+00  0.23492901812E+03  0.23492901812E+03  0.00000000000E+00 0.  1.
          1   -1    0    0  503    0 -0.00000000000E+00 -0.00000000000E+00 -0.41374287300E+03  0.41374287300E+03  0.00000000000E+00 0.  1.
         21    1    1    2  503  502 -0.12848901821E+03  0.13400639736E+03  0.17115426951E+03  0.25250925984E+03  0.00000000000E+00 0.  1.
          1    1    1    2  501    0  0.12848901821E+03 -0.13400639736E+03 -0.34996812439E+03  0.39616263128E+03  0.00000000000E+00 0.  1.
<mgrwt>
<rscale>  2 0.18565329E+03</rscale>
<asrwt>0</asrwt>
<pdfrwt beam="1">  1       21 0.36142926E-01 0.18565329E+03</pdfrwt>
<pdfrwt beam="2">  1        1 0.63652749E-01 0.18565329E+03</pdfrwt>
<totfact> 0.47215621E+03</totfact>
</mgrwt>
</event>
<event>
 4    1  0.4926234E+003  0.1321126E+03  0.7546771E-02  0.1224354E+00
         21   -1    0    0  501  502  0.00000000000E+00  0.00000000000E+00  0.43209008626E+02  0.43209008626E+02  0.00000000000E+00 0. -1.
          2   -1    0    0  503    0 -0.00000000000E+00 -0.00000000000E+00 -0.16191932995E+04  0.16191932995E+04  0.00000000000E+00 0. -1.
         21    1    1    2  503  502  0.58932422228E+02  0.11824008282E+03 -0.67895804839E+02  0.14853816981E+03  0.00000000000E+00 0. -1.
          2    1    1    2  501    0 -0.58932422228E+02 -0.11824008282E+03 -0.15080884860E+04  0.15138641383E+04  0.00000000000E+00 0. -1.
<mgrwt>
<rscale>  2 0.13211263E+03</rscale>
<asrwt>0</asrwt>
<pdfrwt beam="1">  1       21 0.66475408E-02 0.13211263E+03</pdfrwt>
<pdfrwt beam="2">  1        2 0.24910662E+00 0.13211263E+03</pdfrwt>
<totfact> 0.25553288E+04</totfact>
</mgrwt>
</event>
<event>
 4    1  0.4926234E+003  0.1434945E+03  0.7546771E-02  0.1208703E+00
          2   -1    0    0  503    0 -0.00000000000E+00  0.00000000000E+00  0.30523631961E+04  0.30523631961E+04  0.00000000000E+00 0.  1.
         21   -1    0    0  501  502  0.00000000000E+00 -0.00000000000E+00 -0.12583456080E+02  0.12583456080E+02  0.00000000000E+00 0.  1.
         21    1    1    2  503  502 -0.11458349792E+03  0.86378764965E+02  0.47610318555E+03  0.49725739042E+03  0.00000000000E+00 0.  1.
          2    1    1    2  501    0  0.11458349792E+03 -0.86378764965E+02  0.25636765544E+04  0.25676892617E+04  0.00000000000E+00 0.  1.
<mgrwt>
<rscale>  2 0.14349449E+03</rscale>
<asrwt>0</asrwt>
<pdfrwt beam="2">  1       21 0.19359188E-02 0.14349449E+03</pdfrwt>
<pdfrwt beam="1">  1        2 0.46959375E+00 0.14349449E+03</pdfrwt>
<totfact> 0.33903987E+04</totfact>
</mgrwt>
</event>
<event>
 4    1  0.4926234E+003  0.2087578E+03  0.7546771E-02  0.1142553E+00
         21   -1    0    0  503  502  0.00000000000E+00  0.00000000000E+00  0.23719070479E+02  0.23719070479E+02  0.00000000000E+00 0.  1.
          2   -1    0    0  502    0 -0.00000000000E+00 -0.00000000000E+00 -0.19834595212E+04  0.19834595212E+04  0.00000000000E+00 0.  1.
         21    1    1    2  503  501 -0.75385878095E+02  0.19467094797E+03 -0.70746823870E+03  0.73762532316E+03  0.00000000000E+00 0.  1.
          2    1    1    2  501    0  0.75385878095E+02 -0.19467094797E+03 -0.12522722120E+04  0.12695532685E+04  0.00000000000E+00 0.  1.
<mgrwt>
<rscale>  2 0.20875777E+03</rscale>
<asrwt>0</asrwt>
<pdfrwt beam="1">  1       21 0.36490879E-02 0.20875777E+03</pdfrwt>
<pdfrwt beam="2">  1        2 0.30514761E+00 0.20875777E+03</pdfrwt>
<totfact> 0.44722646E+04</totfact>
</mgrwt>
</event>
<event>
 4    1  0.4926234E+003  0.1140978E+03  0.7546771E-02  0.1253164E+00
         21   -1    0    0  503  502  0.00000000000E+00  0.00000000000E+00  0.18321067604E+02  0.18321067604E+02  0.00000000000E+00 0. -1.
          2   -1    0    0  502    0 -0.00000000000E+00 -0.00000000000E+00 -0.97228360311E+03  0.97228360311E+03  0.00000000000E+00 0. -1.
         21    1    1    2  503  501  0.10873361213E+03 -0.34573317097E+02 -0.22000616758E+03  0.24783265813E+03  0.00000000000E+00 0. -1.
          2    1    1    2  501    0 -0.10873361213E+03  0.34573317097E+02 -0.73395636793E+03  0.74277201259E+03  0.00000000000E+00 0. -1.
<mgrwt>
<rscale>  2 0.11409782E+03</rscale>
<asrwt>0</asrwt>
<pdfrwt beam="1">  1       21 0.28186250E-02 0.11409782E+03</pdfrwt>
<pdfrwt beam="2">  1        2 0.14958213E+00 0.11409782E+03</pdfrwt>
<totfact> 0.24007005E+05</totfact>
</mgrwt>
</event>
<event>
 4    1  0.4926234E+003  0.1240627E+03  0.7546771E-02  0.1236541E+00
          2   -1    0    0  502    0 -0.00000000000E+00  0.00000000000E+00  0.57285523244E+03  0.57285523244E+03  0.00000000000E+00 0. -1.
         21   -1    0    0  503  502  0.00000000000E+00 -0.00000000000E+00 -0.11894187030E+03  0.11894187030E+03  0.00000000000E+00 0. -1.
         21    1    1    2  503  501  0.97011674172E+02 -0.77332348189E+02 -0.77376440700E+02  0.14621446774E+03  0.00000000000E+00 0. -1.
          2    1    1    2  501    0 -0.97011674172E+02  0.77332348189E+02  0.53128980284E+03  0.54558263499E+03  0.00000000000E+00 0. -1.
<mgrwt>
<rscale>  2 0.12406271E+03</rscale>
<asrwt>0</asrwt>
<pdfrwt beam="2">  1       21 0.18298750E-01 0.12406271E+03</pdfrwt>
<pdfrwt beam="1">  1        2 0.88131573E-01 0.12406271E+03</pdfrwt>
<totfact> 0.18417382E+04</totfact>
</mgrwt>
</event>
<event>
 4    1  0.4926234E+003  0.1175687E+03  0.7546771E-02  0.1247163E+00
         21   -1    0    0  501  502  0.00000000000E+00  0.00000000000E+00  0.80115077810E+02  0.80115077810E+02  0.00000000000E+00 0. -1.
          2   -1    0    0  503    0 -0.00000000000E+00 -0.00000000000E+00 -0.15310783178E+04  0.15310783178E+04  0.00000000000E+00 0.  1.
         21    1    1    2  503  502  0.90177380120E+02 -0.75435058759E+02  0.33368858409E+02  0.12221247353E+03  0.00000000000E+00 0. -1.
          2    1    1    2  501    0 -0.90177380120E+02  0.75435058759E+02 -0.14843320984E+04  0.14889809221E+04  0.00000000000E+00 0.  1.
<mgrwt>
<rscale>  2 0.11756874E+03</rscale>
<asrwt>0</asrwt>
<pdfrwt beam="1">  1       21 0.12325397E-01 0.11756874E+03</pdfrwt>
<pdfrwt beam="2">  1        2 0.23555050E+00 0.11756874E+03</pdfrwt>
<totfact> 0.97623895E+03</totfact>
</mgrwt>
</event>
<event>
 4    1  0.4926234E+003  0.1460430E+03  0.7546771E-02  0.1205421E+00
          2   -1    0    0  503    0 -0.00000000000E+00  0.00000000000E+00  0.32787665461E+04  0.32787665461E+04  0.00000000000E+00 0.  1.
         21   -1    0    0  501  502  0.00000000000E+00 -0.00000000000E+00 -0.26412191507E+03  0.26412191507E+03  0.00000000000E+00 0. -1.
         21    1    1    2  503  502 -0.18877837102E+02 -0.14481773413E+03 -0.24217148864E+03  0.28279953812E+03  0.00000000000E+00 0. -1.
          2    1    1    2  501    0  0.18877837102E+02  0.14481773413E+03  0.32568161196E+04  0.32600889230E+04  0.00000000000E+00 0.  1.
<mgrwt>
<rscale>  2 0.14604297E+03</rscale>
<asrwt>0</asrwt>
<pdfrwt beam="2">  1       21 0.40634143E-01 0.14604297E+03</pdfrwt>
<pdfrwt beam="1">  1        2 0.50442559E+00 0.14604297E+03</pdfrwt>
<totfact> 0.11540829E+02</totfact>
</mgrwt>
</event>
<event>
 4    1  0.4926234E+003  0.1841728E+03  0.7546771E-02  0.1163825E+00
         21   -1    0    0  501  502  0.00000000000E+00  0.00000000000E+00  0.45893646367E+02  0.45893646367E+02  0.00000000000E+00 0.  1.
          2   -1    0    0  503    0 -0.00000000000E+00 -0.00000000000E+00 -0.22327222006E+04  0.22327222006E+04  0.00000000000E+00 0. -1.
         21    1    1    2  503  502  0.61266032074E+02  0.17368388708E+03 -0.16156571481E+03  0.24499612144E+03  0.00000000000E+00 0.  1.
          2    1    1    2  501    0 -0.61266032074E+02 -0.17368388708E+03 -0.20252628394E+04  0.20336197255E+04  0.00000000000E+00 0. -1.
<mgrwt>
<rscale>  2 0.18417280E+03</rscale>
<asrwt>0</asrwt>
<pdfrwt beam="1">  1       21 0.70605593E-02 0.18417280E+03</pdfrwt>
<pdfrwt beam="2">  1        2 0.34349581E+00 0.18417280E+03</pdfrwt>
<totfact> 0.10894007E+04</totfact>
</mgrwt>
</event>
<event>
 4    1  0.4926234E+003  0.1058347E+03  0.7546771E-02  0.1268484E+00
         21   -1    0    0  503  502  0.00000000000E+00  0.00000000000E+00  0.42503018045E+02  0.42503018045E+02  0.00000000000E+00 0.  1.
          1   -1    0    0  502    0 -0.00000000000E+00 -0.00000000000E+00 -0.22828311377E+04  0.22828311377E+04  0.00000000000E+00 0.  1.
         21    1    1    2  503  501  0.22104672745E+01 -0.10581160273E+03 -0.26664484498E+02  0.10914200003E+03  0.00000000000E+00 0.  1.
          1    1    1    2  501    0 -0.22104672745E+01  0.10581160273E+03 -0.22136636352E+04  0.22161921557E+04  0.00000000000E+00 0.  1.
<mgrwt>
<rscale>  2 0.10583469E+03</rscale>
<asrwt>0</asrwt>
<pdfrwt beam="1">  1       21 0.65389269E-02 0.10583469E+03</pdfrwt>
<pdfrwt beam="2">  1        1 0.35120473E+00 0.10583469E+03</pdfrwt>
<totfact> 0.45499223E+03</totfact>
</mgrwt>
</event>
<event>
 4    1  0.4926234E+003  0.1251917E+03  0.7546771E-02  0.1234770E+00
          1   -1    0    0  503    0 -0.00000000000E+00  0.00000000000E+00  0.69183939573E+03  0.69183939573E+03  0.00000000000E+00 0.  1.
         21   -1    0    0  501  502  0.00000000000E+00 -0.00000000000E+00 -0.12551272151E+03  0.12551272151E+03  0.00000000000E+00 0.  1.
         21    1    1    2  503  502  0.63591179789E+02 -0.10783844291E+03 -0.86797511764E+02  0.15233770369E+03  0.00000000000E+00 0.  1.
          1    1    1    2  501    0 -0.63591179789E+02  0.10783844291E+03  0.65312418598E+03  0.66501441355E+03  0.00000000000E+00 0.  1.
<mgrwt>
<rscale>  2 0.12519172E+03</rscale>
<asrwt>0</asrwt>
<pdfrwt beam="2">  1       21 0.19309650E-01 0.12519172E+03</pdfrwt>
<pdfrwt beam="1">  1        1 0.10643683E+00 0.12519172E+03</pdfrwt>
<totfact> 0.80317640E+03</totfact>
</mgrwt>
</event>
<event>
 4    1  0.4926234E+003  0.1011358E+03  0.7546771E-02  0.1277926E+00
         21   -1    0    0  501  502  0.00000000000E+00  0.00000000000E+00  0.21493330483E+03  0.21493330483E+03  0.00000000000E+00 0.  1.
          2   -1    0    0  503    0 -0.00000000000E+00 -0.00000000000E+00 -0.45094857535E+03  0.45094857535E+03  0.00000000000E+00 0.  1.
         21    1    1    2  503  502 -0.31737227034E+02  0.96027038928E+02  0.19687587677E+03  0.22133358227E+03  0.00000000000E+00 0.  1.
          2    1    1    2  501    0  0.31737227034E+02 -0.96027038928E+02 -0.43289114729E+03  0.44454829792E+03  0.00000000000E+00 0.  1.
<mgrwt>
<rscale>  2 0.10113577E+03</rscale>
<asrwt>0</asrwt>
<pdfrwt beam="1">  1       21 0.33066663E-01 0.10113577E+03</pdfrwt>
<pdfrwt beam="2">  1        2 0.69376703E-01 0.10113577E+03</pdfrwt>
<totfact> 0.79048689E+03</totfact>
</mgrwt>
</event>
<event>
 4    1  0.4926234E+003  0.1161120E+03  0.7546771E-02  0.1249652E+00
         21   -1    0    0  501  502  0.00000000000E+00  0.00000000000E+00  0.20363333131E+03  0.20363333131E+03  0.00000000000E+00 0. -1.
         -2   -1    0    0    0  501 -0.00000000000E+00 -0.00000000000E+00 -0.62643579802E+03  0.62643579802E+03  0.00000000000E+00 0.  1.
         21    1    1    2  503  502 -0.29430384389E+02 -0.11232032810E+03  0.18108876964E+03  0.21511658728E+03  0.00000000000E+00 0. -1.
         -2    1    1    2    0  503  0.29430384389E+02  0.11232032810E+03 -0.60389123635E+03  0.61495254205E+03  0.00000000000E+00 0.  1.
<mgrwt>
<rscale>  2 0.11611203E+03</rscale>
<asrwt>0</asrwt>
<pdfrwt beam="1">  1       21 0.31328206E-01 0.11611203E+03</pdfrwt>
<pdfrwt beam="2">  1       -2 0.96374736E-01 0.11611203E+03</pdfrwt>
<totfact> 0.77275926E+02</totfact>
</mgrwt>
</event>
<event>
 4    1  0.4926234E+003  0.1106772E+03  0.7546771E-02  0.1259321E+00
         21   -1    0    0  501  502  0.00000000000E+00  0.00000000000E+00  0.47872916107E+02  0.47872916107E+02  0.00000000000E+00 0. -1.
         -1   -1    0    0    0  501 -0.00000000000E+00 -0.00000000000E+00 -0.35438277444E+03  0.35438277444E+03  0.00000000000E+00 0.  1.
         21    1    1    2  503  502 -0.10718770877E+03 -0.27572297160E+02 -0.47214062772E+02  0.12032707179E+03  0.00000000000E+00 0. -1.
         -1    1    1    2    0  503  0.10718770877E+03  0.27572297160E+02 -0.25929579556E+03  0.28192861876E+03  0.00000000000E+00 0.  1.
<mgrwt>
<rscale>  2 0.11067717E+03</rscale>
<asrwt>0</asrwt>
<pdfrwt beam="1">  1       21 0.73650638E-02 0.11067717E+03</pdfrwt>
<pdfrwt beam="2">  1       -1 0.54520428E-01 0.11067717E+03</pdfrwt>
<totfact> 0.44193991E+04</totfact>
</mgrwt>
</event>
<event>
 4    1  0.4926234E+003  0.1043526E+03  0.7546771E-02  0.1271400E+00
          2   -1    0    0  503    0 -0.00000000000E+00  0.00000000000E+00  0.21480914935E+04  0.21480914935E+04  0.00000000000E+00 0. -1.
         21   -1    0    0  501  502  0.00000000000E+00 -0.00000000000E+00 -0.72282553977E+01  0.72282553977E+01  0.00000000000E+00 0. -1.
         21    1    1    2  503  502 -0.29997071402E+01 -0.10430948694E+03  0.48147959947E+03  0.49265816954E+03  0.00000000000E+00 0. -1.
          2    1    1    2  501    0  0.29997071402E+01  0.10430948694E+03  0.16593836387E+04  0.16626615794E+04  0.00000000000E+00 0. -1.
<mgrwt>
<rscale>  2 0.10435261E+03</rscale>
<asrwt>0</asrwt>
<pdfrwt beam="2">  1       21 0.11120410E-02 0.10435261E+03</pdfrwt>
<pdfrwt beam="1">  1        2 0.33047511E+00 0.10435261E+03</pdfrwt>
<totfact> 0.25583501E+05</totfact>
</mgrwt>
</event>
<event>
 4    1  0.4926234E+003  0.1120982E+03  0.7546771E-02  0.1256733E+00
          1   -1    0    0  503    0 -0.00000000000E+00  0.00000000000E+00  0.27139487526E+03  0.27139487526E+03  0.00000000000E+00 0.  1.
         21   -1    0    0  501  502  0.00000000000E+00 -0.00000000000E+00 -0.37243946273E+03  0.37243946273E+03  0.00000000000E+00 0.  1.
         21    1    1    2  503  502 -0.28555445250E+02  0.10840012651E+03 -0.35176527981E+03  0.36919481708E+03  0.00000000000E+00 0.  1.
          1    1    1    2  501    0  0.28555445250E+02 -0.10840012651E+03  0.25072069234E+03  0.27463952092E+03  0.00000000000E+00 0.  1.
<mgrwt>
<rscale>  2 0.11209818E+03</rscale>
<asrwt>0</asrwt>
<pdfrwt beam="2">  1       21 0.57298379E-01 0.11209818E+03</pdfrwt>
<pdfrwt beam="1">  1        1 0.41753058E-01 0.11209818E+03</pdfrwt>
<totfact> 0.32074525E+03</totfact>
</mgrwt>
</event>
<event>
 4    1  0.4926234E+003  0.1024747E+03  0.7546771E-02  0.1275176E+00
          2   -1    0    0  502    0 -0.00000000000E+00  0.00000000000E+00  0.10242285233E+04  0.10242285233E+04  0.00000000000E+00 0.  1.
         21   -1    0    0  503  502  0.00000000000E+00 -0.00000000000E+00 -0.30903602841E+02  0.30903602841E+02  0.00000000000E+00 0. -1.
         21    1    1    2  503  501 -0.65314860260E+02  0.78962231403E+02  0.65399405094E+02  0.12156540275E+03  0.00000000000E+00 0. -1.
          2    1    1    2  501    0  0.65314860260E+02 -0.78962231403E+02  0.92792551533E+03  0.93356672336E+03  0.00000000000E+00 0.  1.
<mgrwt>
<rscale>  2 0.10247470E+03</rscale>
<asrwt>0</asrwt>
<pdfrwt beam="2">  1       21 0.47544012E-02 0.10247470E+03</pdfrwt>
<pdfrwt beam="1">  1        2 0.15757359E+00 0.10247470E+03</pdfrwt>
<totfact> 0.94254138E+04</totfact>
</mgrwt>
</event>
<event>
 4    1  0.4926234E+003  0.1746297E+03  0.7546771E-02  0.1173104E+00
         21   -1    0    0  501  502  0.00000000000E+00  0.00000000000E+00  0.11336903534E+03  0.11336903534E+03  0.00000000000E+00 0. -1.
          2   -1    0    0  503    0 -0.00000000000E+00 -0.00000000000E+00 -0.27533569348E+03  0.27533569348E+03  0.00000000000E+00 0. -1.
         21    1    1    2  503  502 -0.17462787719E+03  0.80279316643E+00 -0.11048023023E+03  0.20664322210E+03  0.00000000000E+00 0. -1.
          2    1    1    2  501    0  0.17462787719E+03 -0.80279316643E+00 -0.51486427918E+02  0.18206150672E+03  0.00000000000E+00 0. -1.
<mgrwt>
<rscale>  2 0.17462972E+03</rscale>
<asrwt>0</asrwt>
<pdfrwt beam="1">  1       21 0.17441390E-01 0.17462972E+03</pdfrwt>
<pdfrwt beam="2">  1        2 0.42359338E-01 0.17462972E+03</pdfrwt>
<totfact> 0.44248710E+04</totfact>
</mgrwt>
</event>
<event>
 4    1  0.4926234E+003  0.1033032E+03  0.7546771E-02  0.1273499E+00
         21   -1    0    0  501  502  0.00000000000E+00  0.00000000000E+00  0.83927147169E+01  0.83927147169E+01  0.00000000000E+00 0.  1.
          2   -1    0    0  503    0 -0.00000000000E+00 -0.00000000000E+00 -0.26005718730E+04  0.26005718730E+04  0.00000000000E+00 0.  1.
         21    1    1    2  503  502  0.27280055048E+02  0.99636046164E+02 -0.36353560992E+03  0.37792814500E+03  0.00000000000E+00 0.  1.
          2    1    1    2  501    0 -0.27280055048E+02 -0.99636046164E+02 -0.22286435483E+04  0.22310364427E+04  0.00000000000E+00 0.  1.
<mgrwt>
<rscale>  2 0.10330316E+03</rscale>
<asrwt>0</asrwt>
<pdfrwt beam="1">  1       21 0.12911867E-02 0.10330316E+03</pdfrwt>
<pdfrwt beam="2">  1        2 0.40008803E+00 0.10330316E+03</pdfrwt>
<totfact> 0.11748070E+05</totfact>
</mgrwt>
</event>
<event>
 4    1  0.4926234E+003  0.1085806E+03  0.7546771E-02  0.1263221E+00
          1   -1    0    0  503    0 -0.00000000000E+00  0.00000000000E+00  0.54837364386E+03  0.54837364386E+03  0.00000000000E+00 0.  1.
         21   -1    0    0  501  502  0.00000000000E+00 -0.00000000000E+00 -0.26720116634E+02  0.26720116634E+02  0.00000000000E+00 0. -1.
         21    1    1    2  503  502  0.69252405004E+02  0.83629302418E+02  0.13372527425E+03  0.17225621845E+03  0.00000000000E+00 0. -1.
          1    1    1    2  501    0 -0.69252405004E+02 -0.83629302418E+02  0.38792825298E+03  0.40283754205E+03  0.00000000000E+00 0.  1.
<mgrwt>
<rscale>  2 0.10858064E+03</rscale>
<asrwt>0</asrwt>
<pdfrwt beam="2">  1       21 0.41107876E-02 0.10858064E+03</pdfrwt>
<pdfrwt beam="1">  1        1 0.84365168E-01 0.10858064E+03</pdfrwt>
<totfact> 0.16204383E+05</totfact>
</mgrwt>
</event>
<event>
 4    1  0.4926234E+003  0.1120605E+03  0.7546771E-02  0.1256801E+00
         21   -1    0    0  501  502  0.00000000000E+00  0.00000000000E+00  0.16722385575E+03  0.16722385575E+03  0.00000000000E+00 0. -1.
          3   -1    0    0  503    0 -0.00000000000E+00 -0.00000000000E+00 -0.13398573905E+03  0.13398573905E+03  0.00000000000E+00 0.  1.
         21    1    1    2  503  502  0.53039930890E+02 -0.98713363171E+02  0.11646617189E+03  0.16162280635E+03  0.00000000000E+00 0. -1.
          3    1    1    2  501    0 -0.53039930890E+02  0.98713363171E+02 -0.83228055190E+02  0.13958678844E+03  0.00000000000E+00 0.  1.
<mgrwt>
<rscale>  2 0.11206053E+03</rscale>
<asrwt>0</asrwt>
<pdfrwt beam="1">  1       21 0.25726747E-01 0.11206053E+03</pdfrwt>
<pdfrwt beam="2">  1        3 0.20613191E-01 0.11206053E+03</pdfrwt>
<totfact> 0.14566794E+04</totfact>
</mgrwt>
</event>
<event>
 4    1  0.4926234E+003  0.1757139E+03  0.7546771E-02  0.1172017E+00
          1   -1    0    0  502    0 -0.00000000000E+00  0.00000000000E+00  0.32706321168E+03  0.32706321168E+03  0.00000000000E+00 0. -1.
         21   -1    0    0  503  502  0.00000000000E+00 -0.00000000000E+00 -0.91092865951E+03  0.91092865951E+03  0.00000000000E+00 0.  1.
         21    1    1    2  503  501  0.13627253505E+03 -0.11092868414E+03 -0.87797754862E+03  0.89538815754E+03  0.00000000000E+00 0.  1.
          1    1    1    2  501    0 -0.13627253505E+03  0.11092868414E+03  0.29411210079E+03  0.34260371365E+03  0.00000000000E+00 0. -1.
<mgrwt>
<rscale>  2 0.17571391E+03</rscale>
<asrwt>0</asrwt>
<pdfrwt beam="2">  1       21 0.14014287E+00 0.17571391E+03</pdfrwt>
<pdfrwt beam="1">  1        1 0.50317417E-01 0.17571391E+03</pdfrwt>
<totfact> 0.31065636E+02</totfact>
</mgrwt>
</event>
<event>
 4    1  0.4926234E+003  0.1268962E+03  0.7546771E-02  0.1232135E+00
          2   -1    0    0  503    0 -0.00000000000E+00  0.00000000000E+00  0.47833129505E+02  0.47833129505E+02  0.00000000000E+00 0. -1.
         21   -1    0    0  501  502  0.00000000000E+00 -0.00000000000E+00 -0.34180316699E+03  0.34180316699E+03  0.00000000000E+00 0.  1.
         21    1    1    2  503  502 -0.58148468636E+02 -0.11278915186E+03 -0.17092468772E+03  0.21287998040E+03  0.00000000000E+00 0.  1.
          2    1    1    2  501    0  0.58148468636E+02  0.11278915186E+03 -0.12304534977E+03  0.17675631610E+03  0.00000000000E+00 0. -1.
<mgrwt>
<rscale>  2 0.12689617E+03</rscale>
<asrwt>0</asrwt>
<pdfrwt beam="2">  1       21 0.52585104E-01 0.12689617E+03</pdfrwt>
<pdfrwt beam="1">  1        2 0.73589428E-02 0.12689617E+03</pdfrwt>
<totfact> 0.38983020E+04</totfact>
</mgrwt>
</event>
<event>
 4    1  0.4926234E+003  0.1023757E+03  0.7546771E-02  0.1275378E+00
         21   -1    0    0  501  502  0.00000000000E+00  0.00000000000E+00  0.11517760163E+04  0.11517760163E+04  0.00000000000E+00 0.  1.
          2   -1    0    0  503    0 -0.00000000000E+00 -0.00000000000E+00 -0.25890460356E+03  0.25890460356E+03  0.00000000000E+00 0. -1.
         21    1    1    2  503  502  0.47381830253E+01  0.10226597717E+03  0.11392699178E+04  0.11438604487E+04  0.00000000000E+00 0.  1.
          2    1    1    2  501    0 -0.47381830253E+01 -0.10226597717E+03 -0.24639850504E+03  0.26682017118E+03  0.00000000000E+00 0. -1.
<mgrwt>
<rscale>  2 0.10237568E+03</rscale>
<asrwt>0</asrwt>
<pdfrwt beam="1">  1       21 0.17719631E+00 0.10237568E+03</pdfrwt>
<pdfrwt beam="2">  1        2 0.39831478E-01 0.10237568E+03</pdfrwt>
<totfact> 0.33106522E+02</totfact>
</mgrwt>
</event>
<event>
 4    1  0.4926234E+003  0.1265312E+03  0.7546771E-02  0.1232695E+00
         21   -1    0    0  503  502  0.00000000000E+00  0.00000000000E+00  0.31259495162E+02  0.31259495162E+02  0.00000000000E+00 0. -1.
          1   -1    0    0  502    0 -0.00000000000E+00 -0.00000000000E+00 -0.37653710113E+04  0.37653710113E+04  0.00000000000E+00 0. -1.
         21    1    1    2  503  501  0.10968763762E+03 -0.63077469187E+02 -0.10256265645E+03  0.16287800178E+03  0.00000000000E+00 0. -1.
          1    1    1    2  501    0 -0.10968763762E+03  0.63077469187E+02 -0.36315488597E+04  0.36337525047E+04  0.00000000000E+00 0. -1.
<mgrwt>
<rscale>  2 0.12653120E+03</rscale>
<asrwt>0</asrwt>
<pdfrwt beam="1">  1       21 0.48091539E-02 0.12653120E+03</pdfrwt>
<pdfrwt beam="2">  1        1 0.57928775E+00 0.12653120E+03</pdfrwt>
<totfact> 0.70037761E+02</totfact>
</mgrwt>
</event>
<event>
 4    1  0.4926234E+003  0.1558639E+03  0.7546771E-02  0.1193447E+00
          1   -1    0    0  502    0 -0.00000000000E+00  0.00000000000E+00  0.60780856792E+03  0.60780856792E+03  0.00000000000E+00 0. -1.
         21   -1    0    0  503  502  0.00000000000E+00 -0.00000000000E+00 -0.16853909338E+03  0.16853909338E+03  0.00000000000E+00 0. -1.
         21    1    1    2  503  501 -0.64120189297E+02  0.14206396779E+03 -0.11940118404E+03  0.19634207998E+03  0.00000000000E+00 0. -1.
          1    1    1    2  501    0  0.64120189297E+02 -0.14206396779E+03  0.55867065857E+03  0.58000558133E+03  0.00000000000E+00 0. -1.
<mgrwt>
<rscale>  2 0.15586395E+03</rscale>
<asrwt>0</asrwt>
<pdfrwt beam="2">  1       21 0.25929092E-01 0.15586395E+03</pdfrwt>
<pdfrwt beam="1">  1        1 0.93509009E-01 0.15586395E+03</pdfrwt>
<totfact> 0.54832687E+03</totfact>
</mgrwt>
</event>
<event>
 4    1  0.4926234E+003  0.1028567E+03  0.7546771E-02  0.1274401E+00
          1   -1    0    0  503    0 -0.00000000000E+00  0.00000000000E+00  0.41803506189E+03  0.41803506189E+03  0.00000000000E+00 0.  1.
         21   -1    0    0  501  502  0.00000000000E+00 -0.00000000000E+00 -0.27615438769E+02  0.27615438769E+02  0.00000000000E+00 0. -1.
         21    1    1    2  503  502  0.85910197342E+02  0.56559174054E+02  0.13079546608E+03  0.16639397863E+03  0.00000000000E+00 0. -1.
          1    1    1    2  501    0 -0.85910197342E+02 -0.56559174054E+02  0.25962415704E+03  0.27925652203E+03  0.00000000000E+00 0.  1.
<mgrwt>
<rscale>  2 0.10285671E+03</rscale>
<asrwt>0</asrwt>
<pdfrwt beam="2">  1       21 0.42485293E-02 0.10285671E+03</pdfrwt>
<pdfrwt beam="1">  1        1 0.64313082E-01 0.10285671E+03</pdfrwt>
<totfact> 0.21677026E+05</totfact>
</mgrwt>
</event>
<event>
 4    1  0.4926234E+003  0.1336076E+03  0.7546771E-02  0.1222199E+00
         21   -1    0    0  503  502  0.00000000000E+00  0.00000000000E+00  0.14431040955E+03  0.14431040955E+03  0.00000000000E+00 0. -1.
          1   -1    0    0  502    0 -0.00000000000E+00 -0.00000000000E+00 -0.42831116707E+03  0.42831116707E+03  0.00000000000E+00 0. -1.
         21    1    1    2  503  501  0.62509657406E+02 -0.11808273534E+03  0.99452257599E+02  0.16655852184E+03  0.00000000000E+00 0. -1.
          1    1    1    2  501    0 -0.62509657406E+02  0.11808273534E+03 -0.38345301512E+03  0.40606305478E+03  0.00000000000E+00 0. -1.
<mgrwt>
<rscale>  2 0.13360760E+03</rscale>
<asrwt>0</asrwt>
<pdfrwt beam="1">  1       21 0.22201602E-01 0.13360760E+03</pdfrwt>
<pdfrwt beam="2">  1        1 0.65894025E-01 0.13360760E+03</pdfrwt>
<totfact> 0.11716839E+04</totfact>
</mgrwt>
</event>
<event>
 4    1  0.4926234E+003  0.1484167E+03  0.7546771E-02  0.1202432E+00
          1   -1    0    0  503    0 -0.00000000000E+00  0.00000000000E+00  0.74528892141E+03  0.74528892141E+03  0.00000000000E+00 0. -1.
         21   -1    0    0  501  502  0.00000000000E+00 -0.00000000000E+00 -0.75444460129E+02  0.75444460129E+02  0.00000000000E+00 0.  1.
         21    1    1    2  503  502  0.13590573263E+03 -0.59641791177E+02  0.14876718974E+02  0.14916041091E+03  0.00000000000E+00 0.  1.
          1    1    1    2  501    0 -0.13590573263E+03  0.59641791177E+02  0.65496774231E+03  0.67157297063E+03  0.00000000000E+00 0. -1.
<mgrwt>
<rscale>  2 0.14841668E+03</rscale>
<asrwt>0</asrwt>
<pdfrwt beam="2">  1       21 0.11606841E-01 0.14841668E+03</pdfrwt>
<pdfrwt beam="1">  1        1 0.11465983E+00 0.14841668E+03</pdfrwt>
<totfact> 0.17984752E+04</totfact>
</mgrwt>
</event>
<event>
 4    1  0.4926234E+003  0.1120066E+03  0.7546771E-02  0.1256899E+00
          2   -1    0    0  503    0 -0.00000000000E+00  0.00000000000E+00  0.43801466842E+03  0.43801466842E+03  0.00000000000E+00 0.  1.
         21   -1    0    0  501  502  0.00000000000E+00 -0.00000000000E+00 -0.43972376094E+02  0.43972376094E+02  0.00000000000E+00 0.  1.
         21    1    1    2  503  502  0.10831795060E+03  0.28507770080E+02  0.54723902411E+02  0.12466024575E+03  0.00000000000E+00 0.  1.
          2    1    1    2  501    0 -0.10831795060E+03 -0.28507770080E+02  0.33931838992E+03  0.35732679876E+03  0.00000000000E+00 0.  1.
<mgrwt>
<rscale>  2 0.11200657E+03</rscale>
<asrwt>0</asrwt>
<pdfrwt beam="2">  1       21 0.67649813E-02 0.11200657E+03</pdfrwt>
<pdfrwt beam="1">  1        2 0.67386869E-01 0.11200657E+03</pdfrwt>
<totfact> 0.14228778E+05</totfact>
</mgrwt>
</event>
<event>
 4    1  0.4926234E+003  0.1626063E+03  0.7546771E-02  0.1185785E+00
          2   -1    0    0  502    0 -0.00000000000E+00  0.00000000000E+00  0.59037623756E+03  0.59037623756E+03  0.00000000000E+00 0. -1.
         21   -1    0    0  503  502  0.00000000000E+00 -0.00000000000E+00 -0.30195206428E+03  0.30195206428E+03  0.00000000000E+00 0.  1.
         21    1    1    2  503  501 -0.10169425865E+03  0.12688222178E+03 -0.26753655049E+03  0.31307607110E+03  0.00000000000E+00 0.  1.
          2    1    1    2  501    0  0.10169425865E+03 -0.12688222178E+03  0.55596072377E+03  0.57925223074E+03  0.00000000000E+00 0. -1.
<mgrwt>
<rscale>  2 0.16260634E+03</rscale>
<asrwt>0</asrwt>
<pdfrwt beam="2">  1       21 0.46454164E-01 0.16260634E+03</pdfrwt>
<pdfrwt beam="1">  1        2 0.90827113E-01 0.16260634E+03</pdfrwt>
<totfact> 0.29058505E+03</totfact>
</mgrwt>
</event>
<event>
 4    1  0.4926234E+003  0.1273049E+03  0.7546771E-02  0.1231511E+00
         -4   -1    0    0    0  501 -0.00000000000E+00  0.00000000000E+00  0.58716302466E+02  0.58716302466E+02  0.00000000000E+00 0. -1.
         21   -1    0    0  503  502  0.00000000000E+00 -0.00000000000E+00 -0.44806472129E+03  0.44806472129E+03  0.00000000000E+00 0.  1.
         21    1    1    2  503  501  0.78861418409E+02  0.99937002492E+02 -0.35169171996E+03  0.37402352020E+03  0.00000000000E+00 0.  1.
         -4    1    1    2    0  502 -0.78861418409E+02 -0.99937002492E+02 -0.37656698873E+02  0.13275750356E+03  0.00000000000E+00 0. -1.
<mgrwt>
<rscale>  2 0.12730486E+03</rscale>
<asrwt>0</asrwt>
<pdfrwt beam="2">  1       21 0.68933034E-01 0.12730486E+03</pdfrwt>
<pdfrwt beam="1">  1       -4 0.90332773E-02 0.12730486E+03</pdfrwt>
<totfact> 0.71104593E+03</totfact>
</mgrwt>
</event>
<event>
 4    1  0.4926234E+003  0.1211061E+03  0.7546771E-02  0.1241283E+00
         21   -1    0    0  501  502  0.00000000000E+00  0.00000000000E+00  0.31524469824E+02  0.31524469824E+02  0.00000000000E+00 0. -1.
          1   -1    0    0  503    0 -0.00000000000E+00 -0.00000000000E+00 -0.76160150100E+03  0.76160150100E+03  0.00000000000E+00 0. -1.
         21    1    1    2  503  502  0.95015217350E+02  0.75091988087E+02 -0.11766495960E+03  0.16885420019E+03  0.00000000000E+00 0. -1.
          1    1    1    2  501    0 -0.95015217350E+02 -0.75091988087E+02 -0.61241207158E+03  0.62427177064E+03  0.00000000000E+00 0. -1.
<mgrwt>
<rscale>  2 0.12110614E+03</rscale>
<asrwt>0</asrwt>
<pdfrwt beam="1">  1       21 0.48499187E-02 0.12110614E+03</pdfrwt>
<pdfrwt beam="2">  1        1 0.11716946E+00 0.12110614E+03</pdfrwt>
<totfact> 0.78279552E+04</totfact>
</mgrwt>
</event>
<event>
 4    1  0.4926234E+003  0.1044482E+03  0.7546771E-02  0.1271211E+00
         21   -1    0    0  503  502  0.00000000000E+00  0.00000000000E+00  0.12978776526E+02  0.12978776526E+02  0.00000000000E+00 0. -1.
          2   -1    0    0  502    0 -0.00000000000E+00 -0.00000000000E+00 -0.15147080804E+04  0.15147080804E+04  0.00000000000E+00 0. -1.
         21    1    1    2  503  501 -0.81988690274E+02  0.64709162986E+02 -0.24127804488E+03  0.26291541614E+03  0.00000000000E+00 0. -1.
          2    1    1    2  501    0  0.81988690274E+02 -0.64709162986E+02 -0.12604512590E+04  0.12647714407E+04  0.00000000000E+00 0. -1.
<mgrwt>
<rscale>  2 0.10444817E+03</rscale>
<asrwt>0</asrwt>
<pdfrwt beam="1">  1       21 0.19967355E-02 0.10444817E+03</pdfrwt>
<pdfrwt beam="2">  1        2 0.23303194E+00 0.10444817E+03</pdfrwt>
<totfact> 0.21140474E+05</totfact>
</mgrwt>
</event>
<event>
 4    1  0.4926234E+003  0.1147430E+03  0.7546771E-02  0.1252030E+00
         21   -1    0    0  503  502  0.00000000000E+00  0.00000000000E+00  0.39409239755E+02  0.39409239755E+02  0.00000000000E+00 0. -1.
          2   -1    0    0  502    0 -0.00000000000E+00 -0.00000000000E+00 -0.17554309611E+04  0.17554309611E+04  0.00000000000E+00 0. -1.
         21    1    1    2  503  501  0.92112485399E+02 -0.68419596784E+02 -0.50489268234E+02  0.12535995133E+03  0.00000000000E+00 0. -1.
          2    1    1    2  501    0 -0.92112485399E+02  0.68419596784E+02 -0.16655324531E+04  0.16694802495E+04  0.00000000000E+00 0. -1.
<mgrwt>
<rscale>  2 0.11474298E+03</rscale>
<asrwt>0</asrwt>
<pdfrwt beam="1">  1       21 0.60629603E-02 0.11474298E+03</pdfrwt>
<pdfrwt beam="2">  1        2 0.27006628E+00 0.11474298E+03</pdfrwt>
<totfact> 0.25602788E+04</totfact>
</mgrwt>
</event>
<event>
 4    1  0.4926234E+003  0.1067301E+03  0.7546771E-02  0.1266748E+00
         21   -1    0    0  501  502  0.00000000000E+00  0.00000000000E+00  0.24530622886E+02  0.24530622886E+02  0.00000000000E+00 0.  1.
         -1   -1    0    0    0  501 -0.00000000000E+00 -0.00000000000E+00 -0.50813543979E+03  0.50813543979E+03  0.00000000000E+00 0.  1.
         21    1    1    2  503  502  0.10672797273E+03 -0.67318215861E+00 -0.16364047803E+03  0.19537021111E+03  0.00000000000E+00 0.  1.
         -1    1    1    2    0  503 -0.10672797273E+03  0.67318215861E+00 -0.31996433887E+03  0.33729585157E+03  0.00000000000E+00 0.  1.
<mgrwt>
<rscale>  2 0.10673010E+03</rscale>
<asrwt>0</asrwt>
<pdfrwt beam="1">  1       21 0.37739419E-02 0.10673010E+03</pdfrwt>
<pdfrwt beam="2">  1       -1 0.78174685E-01 0.10673010E+03</pdfrwt>
<totfact> 0.67577334E+04</totfact>
</mgrwt>
</event>
<event>
 4    1  0.4926234E+003  0.1236495E+03  0.7546771E-02  0.1237195E+00
         21   -1    0    0  503  502  0.00000000000E+00  0.00000000000E+00  0.12601610778E+03  0.12601610778E+03  0.00000000000E+00 0. -1.
          2   -1    0    0  502    0 -0.00000000000E+00 -0.00000000000E+00 -0.16983025028E+03  0.16983025028E+03  0.00000000000E+00 0. -1.
         21    1    1    2  503  501  0.86156017778E+02 -0.88692443934E+02  0.57144818407E+02  0.13621578206E+03  0.00000000000E+00 0. -1.
          2    1    1    2  501    0 -0.86156017778E+02  0.88692443934E+02 -0.10095896091E+03  0.15963057601E+03  0.00000000000E+00 0. -1.
<mgrwt>
<rscale>  2 0.12364954E+03</rscale>
<asrwt>0</asrwt>
<pdfrwt beam="1">  1       21 0.19387094E-01 0.12364954E+03</pdfrwt>
<pdfrwt beam="2">  1        2 0.26127731E-01 0.12364954E+03</pdfrwt>
<totfact> 0.61076981E+04</totfact>
</mgrwt>
</event>
<event>
 4    1  0.4926234E+003  0.1278014E+03  0.7546771E-02  0.1230755E+00
          2   -1    0    0  502    0 -0.00000000000E+00  0.00000000000E+00  0.30281123319E+04  0.30281123319E+04  0.00000000000E+00 0.  1.
         21   -1    0    0  503  502  0.00000000000E+00 -0.00000000000E+00 -0.50901692345E+02  0.50901692345E+02  0.00000000000E+00 0. -1.
         21    1    1    2  503  501 -0.10353454484E+03 -0.74925226186E+02  0.32949601842E+02  0.13198055825E+03  0.00000000000E+00 0. -1.
          2    1    1    2  501    0  0.10353454484E+03  0.74925226186E+02  0.29442610377E+04  0.29470334660E+04  0.00000000000E+00 0.  1.
<mgrwt>
<rscale>  2 0.12780138E+03</rscale>
<asrwt>0</asrwt>
<pdfrwt beam="2">  1       21 0.78310320E-02 0.12780138E+03</pdfrwt>
<pdfrwt beam="1">  1        2 0.46586329E+00 0.12780138E+03</pdfrwt>
<totfact> 0.34614531E+03</totfact>
</mgrwt>
</event>
<event>
 4    1  0.4926234E+003  0.1045317E+03  0.7546771E-02  0.1271045E+00
         21   -1    0    0  501  502  0.00000000000E+00  0.00000000000E+00  0.10017367109E+03  0.10017367109E+03  0.00000000000E+00 0.  1.
          2   -1    0    0  503    0 -0.00000000000E+00 -0.00000000000E+00 -0.16388762871E+03  0.16388762871E+03  0.00000000000E+00 0.  1.
         21    1    1    2  503  502 -0.11149075277E+02 -0.10393541021E+03  0.44495836567E+02  0.11360788198E+03  0.00000000000E+00 0.  1.
          2    1    1    2  501    0  0.11149075277E+02  0.10393541021E+03 -0.10820979419E+03  0.15045341782E+03  0.00000000000E+00 0.  1.
<mgrwt>
<rscale>  2 0.10453168E+03</rscale>
<asrwt>0</asrwt>
<pdfrwt beam="1">  1       21 0.15411334E-01 0.10453168E+03</pdfrwt>
<pdfrwt beam="2">  1        2 0.25213481E-01 0.10453168E+03</pdfrwt>
<totfact> 0.95888057E+04</totfact>
</mgrwt>
</event>
<event>
 4    1  0.4926234E+003  0.1599519E+03  0.7546771E-02  0.1188751E+00
         21   -1    0    0  501  502  0.00000000000E+00  0.00000000000E+00  0.10068207711E+02  0.10068207711E+02  0.00000000000E+00 0.  1.
          2   -1    0    0  503    0 -0.00000000000E+00 -0.00000000000E+00 -0.34200932804E+04  0.34200932804E+04  0.00000000000E+00 0. -1.
         21    1    1    2  503  502  0.80616486366E+02  0.13815060306E+03 -0.83554895670E+03  0.85072126224E+03  0.00000000000E+00 0.  1.
          2    1    1    2  501    0 -0.80616486366E+02 -0.13815060306E+03 -0.25744761160E+04  0.25794402259E+04  0.00000000000E+00 0. -1.
<mgrwt>
<rscale>  2 0.15995189E+03</rscale>
<asrwt>0</asrwt>
<pdfrwt beam="1">  1       21 0.15489552E-02 0.15995189E+03</pdfrwt>
<pdfrwt beam="2">  1        2 0.52616814E+00 0.15995189E+03</pdfrwt>
<totfact> 0.28732057E+04</totfact>
</mgrwt>
</event>
<event>
 4    1  0.4926234E+003  0.1443078E+03  0.7546771E-02  0.1207647E+00
         -4   -1    0    0    0  501 -0.00000000000E+00  0.00000000000E+00  0.27519208509E+03  0.27519208509E+03  0.00000000000E+00 0. -1.
         21   -1    0    0  503  502  0.00000000000E+00 -0.00000000000E+00 -0.90799099367E+02  0.90799099367E+02  0.00000000000E+00 0. -1.
         21    1    1    2  503  501  0.14415227199E+03  0.66974422218E+01  0.17507442477E+02  0.14536589625E+03  0.00000000000E+00 0. -1.
         -4    1    1    2    0  502 -0.14415227199E+03 -0.66974422218E+01  0.16688554325E+03  0.22062528821E+03  0.00000000000E+00 0. -1.
<mgrwt>
<rscale>  2 0.14430777E+03</rscale>
<asrwt>0</asrwt>
<pdfrwt beam="2">  1       21 0.13969092E-01 0.14430777E+03</pdfrwt>
<pdfrwt beam="1">  1       -4 0.42337244E-01 0.14430777E+03</pdfrwt>
<totfact> 0.99853637E+03</totfact>
</mgrwt>
</event>
<event>
 4    1  0.4926234E+003  0.1068991E+03  0.7546771E-02  0.1266422E+00
         21   -1    0    0  501  502  0.00000000000E+00  0.00000000000E+00  0.56938255231E+01  0.56938255231E+01  0.00000000000E+00 0. -1.
          2   -1    0    0  503    0 -0.00000000000E+00 -0.00000000000E+00 -0.39598399194E+04  0.39598399194E+04  0.00000000000E+00 0.  1.
         21    1    1    2  503  502 -0.43835111002E+02 -0.97498201560E+02 -0.58466043056E+03  0.59435278692E+03  0.00000000000E+00 0. -1.
          2    1    1    2  501    0  0.43835111002E+02  0.97498201560E+02 -0.33694856633E+04  0.33711809580E+04  0.00000000000E+00 0.  1.
<mgrwt>
<rscale>  2 0.10689909E+03</rscale>
<asrwt>0</asrwt>
<pdfrwt beam="1">  1       21 0.87597194E-03 0.10689909E+03</pdfrwt>
<pdfrwt beam="2">  1        2 0.60920699E+00 0.10689909E+03</pdfrwt>
<totfact> 0.31332187E+04</totfact>
</mgrwt>
</event>
<event>
 4    1  0.4926234E+003  0.1164481E+03  0.7546771E-02  0.1249074E+00
         21   -1    0    0  501  502  0.00000000000E+00  0.00000000000E+00  0.31106064920E+02  0.31106064920E+02  0.00000000000E+00 0.  1.
          2   -1    0    0  503    0 -0.00000000000E+00 -0.00000000000E+00 -0.45637869696E+03  0.45637869696E+03  0.00000000000E+00 0. -1.
         21    1    1    2  503  502 -0.10287850203E+03 -0.54554304405E+02 -0.16104578810E+03  0.19873576470E+03  0.00000000000E+00 0.  1.
          2    1    1    2  501    0  0.10287850203E+03  0.54554304405E+02 -0.26422684394E+03  0.28874899717E+03  0.00000000000E+00 0. -1.
<mgrwt>
<rscale>  2 0.11644809E+03</rscale>
<asrwt>0</asrwt>
<pdfrwt beam="1">  1       21 0.47855482E-02 0.11644809E+03</pdfrwt>
<pdfrwt beam="2">  1        2 0.70212111E-01 0.11644809E+03</pdfrwt>
<totfact> 0.24446639E+05</totfact>
</mgrwt>
</event>
<event>
 4    1  0.4926234E+003  0.1168473E+03  0.7546771E-02  0.1248390E+00
          1   -1    0    0  503    0 -0.00000000000E+00  0.00000000000E+00  0.17093518325E+04  0.17093518325E+04  0.00000000000E+00 0.  1.
         21   -1    0    0  501  502  0.00000000000E+00 -0.00000000000E+00 -0.38426872316E+02  0.38426872316E+02  0.00000000000E+00 0. -1.
         21    1    1    2  503  502  0.11393068351E+03  0.25944217108E+02  0.57681391033E+02  0.13030904004E+03  0.00000000000E+00 0. -1.
          1    1    1    2  501    0 -0.11393068351E+03 -0.25944217108E+02  0.16132435691E+04  0.16174696648E+04  0.00000000000E+00 0.  1.
<mgrwt>
<rscale>  2 0.11684735E+03</rscale>
<asrwt>0</asrwt>
<pdfrwt beam="2">  1       21 0.59118278E-02 0.11684735E+03</pdfrwt>
<pdfrwt beam="1">  1        1 0.26297715E+00 0.11684735E+03</pdfrwt>
<totfact> 0.12361641E+04</totfact>
</mgrwt>
</event>
<event>
 4    1  0.4926234E+003  0.1185106E+03  0.7546771E-02  0.1245575E+00
         -2   -1    0    0    0  501 -0.00000000000E+00  0.00000000000E+00  0.37921953218E+03  0.37921953218E+03  0.00000000000E+00 0. -1.
         21   -1    0    0  503  502  0.00000000000E+00 -0.00000000000E+00 -0.14897651113E+03  0.14897651113E+03  0.00000000000E+00 0.  1.
         21    1    1    2  503  501  0.63644106285E+02  0.99970911213E+02 -0.11380705632E+03  0.16430703400E+03  0.00000000000E+00 0.  1.
         -2    1    1    2    0  502 -0.63644106285E+02 -0.99970911213E+02  0.34405007737E+03  0.36388900930E+03  0.00000000000E+00 0. -1.
<mgrwt>
<rscale>  2 0.11851057E+03</rscale>
<asrwt>0</asrwt>
<pdfrwt beam="2">  1       21 0.22919463E-01 0.11851057E+03</pdfrwt>
<pdfrwt beam="1">  1       -2 0.58341466E-01 0.11851057E+03</pdfrwt>
<totfact> 0.41179133E+03</totfact>
</mgrwt>
</event>
<event>
 4    1  0.4926234E+003  0.1527457E+03  0.7546771E-02  0.1197139E+00
          2   -1    0    0  503    0 -0.00000000000E+00  0.00000000000E+00  0.69993267598E+02  0.69993267598E+02  0.00000000000E+00 0. -1.
         21   -1    0    0  501  502  0.00000000000E+00 -0.00000000000E+00 -0.34437652002E+03  0.34437652002E+03  0.00000000000E+00 0. -1.
         21    1    1    2  503  502  0.36542293238E+02  0.14831013161E+03 -0.10009386079E+03  0.18261986557E+03  0.00000000000E+00 0. -1.
          2    1    1    2  501    0 -0.36542293238E+02 -0.14831013161E+03 -0.17428939163E+03  0.23174992204E+03  0.00000000000E+00 0. -1.
<mgrwt>
<rscale>  2 0.15274565E+03</rscale>
<asrwt>0</asrwt>
<pdfrwt beam="2">  1       21 0.52981004E-01 0.15274565E+03</pdfrwt>
<pdfrwt beam="1">  1        2 0.10768195E-01 0.15274565E+03</pdfrwt>
<totfact> 0.23938264E+04</totfact>
</mgrwt>
</event>
<event>
 4    1  0.4926234E+003  0.1660090E+03  0.7546771E-02  0.1182075E+00
         -4   -1    0    0    0  501 -0.00000000000E+00  0.00000000000E+00  0.10762339229E+04  0.10762339229E+04  0.00000000000E+00 0. -1.
         21   -1    0    0  501  502  0.00000000000E+00 -0.00000000000E+00 -0.33624571257E+02  0.33624571257E+02  0.00000000000E+00 0. -1.
         21    1    1    2  503  502 -0.57740266374E+02 -0.15564398140E+03  0.25032667010E+03  0.30037048635E+03  0.00000000000E+00 0. -1.
         -4    1    1    2    0  503  0.57740266374E+02  0.15564398140E+03  0.79228268153E+03  0.80948800779E+03  0.00000000000E+00 0. -1.
<mgrwt>
<rscale>  2 0.16600900E+03</rscale>
<asrwt>0</asrwt>
<pdfrwt beam="2">  1       21 0.51730118E-02 0.16600900E+03</pdfrwt>
<pdfrwt beam="1">  1       -4 0.16557442E+00 0.16600900E+03</pdfrwt>
<totfact> 0.26041522E+03</totfact>
</mgrwt>
</event>
<event>
 4    1  0.4926234E+003  0.1058902E+03  0.7546771E-02  0.1268375E+00
         21   -1    0    0  503  502  0.00000000000E+00  0.00000000000E+00  0.10474077428E+03  0.10474077428E+03  0.00000000000E+00 0. -1.
          1   -1    0    0  502    0 -0.00000000000E+00 -0.00000000000E+00 -0.67524382083E+03  0.67524382083E+03  0.00000000000E+00 0. -1.
         21    1    1    2  503  501 -0.10561006165E+03 -0.76979278726E+01  0.72493075683E+02  0.12832766357E+03  0.00000000000E+00 0. -1.
          1    1    1    2  501    0  0.10561006165E+03  0.76979278726E+01 -0.64299612223E+03  0.65165693154E+03  0.00000000000E+00 0. -1.
<mgrwt>
<rscale>  2 0.10589024E+03</rscale>
<asrwt>0</asrwt>
<pdfrwt beam="1">  1       21 0.16113965E-01 0.10589024E+03</pdfrwt>
<pdfrwt beam="2">  1        1 0.10388367E+00 0.10589024E+03</pdfrwt>
<totfact> 0.11626071E+04</totfact>
</mgrwt>
</event>
<event>
 4    1  0.4926234E+003  0.1238530E+03  0.7546771E-02  0.1236873E+00
         21   -1    0    0  503  502  0.00000000000E+00  0.00000000000E+00  0.23579856341E+02  0.23579856341E+02  0.00000000000E+00 0. -1.
         -3   -1    0    0    0  501 -0.00000000000E+00 -0.00000000000E+00 -0.23942059707E+04  0.23942059707E+04  0.00000000000E+00 0. -1.
         21    1    1    2  503  501  0.11574744614E+03 -0.44069109968E+02 -0.15364696670E+03  0.19734981155E+03  0.00000000000E+00 0. -1.
         -3    1    1    2    0  502 -0.11574744614E+03  0.44069109968E+02 -0.22169791476E+04  0.22204360155E+04  0.00000000000E+00 0. -1.
<mgrwt>
<rscale>  2 0.12385297E+03</rscale>
<asrwt>0</asrwt>
<pdfrwt beam="1">  1       21 0.36276703E-02 0.12385297E+03</pdfrwt>
<pdfrwt beam="2">  1       -3 0.36833937E+00 0.12385297E+03</pdfrwt>
<totfact> 0.45328679E+02</totfact>
</mgrwt>
</event>
<event>
 4    1  0.4926234E+003  0.1124392E+03  0.7546771E-02  0.1256118E+00
         -1   -1    0    0    0  501 -0.00000000000E+00  0.00000000000E+00  0.61678190078E+03  0.61678190078E+03  0.00000000000E+00 0.  1.
         21   -1    0    0  501  502  0.00000000000E+00 -0.00000000000E+00 -0.52444629079E+03  0.52444629079E+03  0.00000000000E+00 0.  1.
         21    1    1    2  503  502  0.82527425048E+02 -0.76366178191E+02 -0.51318411492E+03  0.52535750196E+03  0.00000000000E+00 0.  1.
         -1    1    1    2    0  503 -0.82527425048E+02  0.76366178191E+02  0.60551972492E+03  0.61587068961E+03  0.00000000000E+00 0.  1.
<mgrwt>
<rscale>  2 0.11243918E+03</rscale>
<asrwt>0</asrwt>
<pdfrwt beam="2">  1       21 0.80684045E-01 0.11243918E+03</pdfrwt>
<pdfrwt beam="1">  1       -1 0.94889523E-01 0.11243918E+03</pdfrwt>
<totfact> 0.15295296E+02</totfact>
</mgrwt>
</event>
<event>
 4    1  0.4926234E+003  0.1657522E+03  0.7546771E-02  0.1182351E+00
         21   -1    0    0  503  502  0.00000000000E+00  0.00000000000E+00  0.14037179711E+03  0.14037179711E+03  0.00000000000E+00 0. -1.
          2   -1    0    0  502    0 -0.00000000000E+00 -0.00000000000E+00 -0.93139257553E+03  0.93139257553E+03  0.00000000000E+00 0. -1.
         21    1    1    2  503  501 -0.41492848275E+02  0.16047472771E+03  0.80750306073E+02  0.18437572135E+03  0.00000000000E+00 0. -1.
          2    1    1    2  501    0  0.41492848275E+02 -0.16047472771E+03 -0.87177108449E+03  0.88738865129E+03  0.00000000000E+00 0. -1.
<mgrwt>
<rscale>  2 0.16575221E+03</rscale>
<asrwt>0</asrwt>
<pdfrwt beam="1">  1       21 0.21595662E-01 0.16575221E+03</pdfrwt>
<pdfrwt beam="2">  1        2 0.14329116E+00 0.16575221E+03</pdfrwt>
<totfact> 0.74269695E+03</totfact>
</mgrwt>
</event>
<event>
 4    1  0.4926234E+003  0.2095784E+03  0.7546771E-02  0.1141900E+00
          2   -1    0    0  502    0 -0.00000000000E+00  0.00000000000E+00  0.18540377516E+04  0.18540377516E+04  0.00000000000E+00 0.  1.
         21   -1    0    0  503  502  0.00000000000E+00 -0.00000000000E+00 -0.14262282397E+03  0.14262282397E+03  0.00000000000E+00 0. -1.
         21    1    1    2  503  501 -0.12807304464E+03 -0.16589279002E+03 -0.55945700003E+02  0.21691713600E+03  0.00000000000E+00 0. -1.
          2    1    1    2  501    0  0.12807304464E+03  0.16589279002E+03  0.17673606277E+04  0.17797434396E+04  0.00000000000E+00 0.  1.
<mgrwt>
<rscale>  2 0.20957844E+03</rscale>
<asrwt>0</asrwt>
<pdfrwt beam="2">  1       21 0.21941974E-01 0.20957844E+03</pdfrwt>
<pdfrwt beam="1">  1        2 0.28523656E+00 0.20957844E+03</pdfrwt>
<totfact> 0.22034378E+03</totfact>
</mgrwt>
</event>
<event>
 4    1  0.4926234E+003  0.2475189E+03  0.7546771E-02  0.1114883E+00
         21   -1    0    0  503  502  0.00000000000E+00  0.00000000000E+00  0.86542820058E+02  0.86542820058E+02  0.00000000000E+00 0. -1.
          2   -1    0    0  502    0 -0.00000000000E+00 -0.00000000000E+00 -0.10380651923E+04  0.10380651923E+04  0.00000000000E+00 0. -1.
         21    1    1    2  503  501 -0.23855219418E+03  0.66018701540E+02 -0.15865140274E+03  0.29399980594E+03  0.00000000000E+00 0. -1.
          2    1    1    2  501    0  0.23855219418E+03 -0.66018701540E+02 -0.79287096952E+03  0.83060820645E+03  0.00000000000E+00 0. -1.
<mgrwt>
<rscale>  2 0.24751893E+03</rscale>
<asrwt>0</asrwt>
<pdfrwt beam="1">  1       21 0.13314280E-01 0.24751893E+03</pdfrwt>
<pdfrwt beam="2">  1        2 0.15970234E+00 0.24751893E+03</pdfrwt>
<totfact> 0.15216107E+04</totfact>
</mgrwt>
</event>
<event>
 4    1  0.4926234E+003  0.1251417E+03  0.7546771E-02  0.1234848E+00
          2   -1    0    0  502    0 -0.00000000000E+00  0.00000000000E+00  0.11751156204E+04  0.11751156204E+04  0.00000000000E+00 0. -1.
         21   -1    0    0  503  502  0.00000000000E+00 -0.00000000000E+00 -0.28265965687E+03  0.28265965687E+03  0.00000000000E+00 0.  1.
         21    1    1    2  503  501  0.11967319297E+03 -0.36589106304E+02 -0.26526956237E+03  0.29330594357E+03  0.00000000000E+00 0.  1.
          2    1    1    2  501    0 -0.11967319297E+03  0.36589106304E+02  0.11577255259E+04  0.11644693337E+04  0.00000000000E+00 0. -1.
<mgrwt>
<rscale>  2 0.12514166E+03</rscale>
<asrwt>0</asrwt>
<pdfrwt beam="2">  1       21 0.43486102E-01 0.12514166E+03</pdfrwt>
<pdfrwt beam="1">  1        2 0.18078702E+00 0.12514166E+03</pdfrwt>
<totfact> 0.14040943E+03</totfact>
</mgrwt>
</event>
<event>
 4    1  0.4926234E+003  0.1522727E+03  0.7546771E-02  0.1197708E+00
          3   -1    0    0  503    0 -0.00000000000E+00  0.00000000000E+00  0.56391946120E+03  0.56391946120E+03  0.00000000000E+00 0.  1.
         21   -1    0    0  501  502  0.00000000000E+00 -0.00000000000E+00 -0.97723146347E+02  0.97723146347E+02  0.00000000000E+00 0. -1.
         21    1    1    2  503  502  0.11254981765E+03  0.10256464616E+03 -0.18683773267E+02  0.15341463906E+03  0.00000000000E+00 0. -1.
          3    1    1    2  501    0 -0.11254981765E+03 -0.10256464616E+03  0.48488008812E+03  0.50822796848E+03  0.00000000000E+00 0.  1.
<mgrwt>
<rscale>  2 0.15227268E+03</rscale>
<asrwt>0</asrwt>
<pdfrwt beam="2">  1       21 0.15034331E-01 0.15227268E+03</pdfrwt>
<pdfrwt beam="1">  1        3 0.86756838E-01 0.15227268E+03</pdfrwt>
<totfact> 0.24018080E+03</totfact>
</mgrwt>
</event>
<event>
 4    1  0.4926234E+003  0.1679434E+03  0.7546771E-02  0.1180010E+00
         21   -1    0    0  501  502  0.00000000000E+00  0.00000000000E+00  0.33122960794E+03  0.33122960794E+03  0.00000000000E+00 0.  1.
          1   -1    0    0  503    0 -0.00000000000E+00 -0.00000000000E+00 -0.24685889975E+04  0.24685889975E+04  0.00000000000E+00 0. -1.
         21    1    1    2  503  502  0.16380905165E+03  0.37034980925E+02  0.30687323768E+03  0.34982306845E+03  0.00000000000E+00 0.  1.
          1    1    1    2  501    0 -0.16380905165E+03 -0.37034980925E+02 -0.24442326272E+04  0.24499955370E+04  0.00000000000E+00 0. -1.
<mgrwt>
<rscale>  2 0.16794343E+03</rscale>
<asrwt>0</asrwt>
<pdfrwt beam="1">  1       21 0.50958400E-01 0.16794343E+03</pdfrwt>
<pdfrwt beam="2">  1        1 0.37978293E+00 0.16794343E+03</pdfrwt>
<totfact> 0.72173790E+01</totfact>
</mgrwt>
</event>
<event>
 4    1  0.4926234E+003  0.1491630E+03  0.7546771E-02  0.1201505E+00
         21   -1    0    0  501  502  0.00000000000E+00  0.00000000000E+00  0.65495847533E+02  0.65495847533E+02  0.00000000000E+00 0.  1.
          1   -1    0    0  503    0 -0.00000000000E+00 -0.00000000000E+00 -0.46366989079E+03  0.46366989079E+03  0.00000000000E+00 0.  1.
         21    1    1    2  503  502 -0.34287083885E+01  0.14912355224E+03 -0.62283276519E+02  0.16164404229E+03  0.00000000000E+00 0.  1.
          1    1    1    2  501    0  0.34287083885E+01 -0.14912355224E+03 -0.33589076674E+03  0.36752169603E+03  0.00000000000E+00 0.  1.
<mgrwt>
<rscale>  2 0.14916296E+03</rscale>
<asrwt>0</asrwt>
<pdfrwt beam="1">  1       21 0.10076284E-01 0.14916296E+03</pdfrwt>
<pdfrwt beam="2">  1        1 0.71333828E-01 0.14916296E+03</pdfrwt>
<totfact> 0.44124955E+04</totfact>
</mgrwt>
</event>
<event>
 4    1  0.4926234E+003  0.1141826E+03  0.7546771E-02  0.1253015E+00
         -1   -1    0    0    0  501 -0.00000000000E+00  0.00000000000E+00  0.14744067770E+02  0.14744067770E+02  0.00000000000E+00 0.  1.
         21   -1    0    0  503  502  0.00000000000E+00 -0.00000000000E+00 -0.15519659661E+04  0.15519659661E+04  0.00000000000E+00 0.  1.
         21    1    1    2  503  501 -0.10684671425E+03  0.40267140753E+02 -0.12824280301E+04  0.12875011904E+04  0.00000000000E+00 0.  1.
         -1    1    1    2    0  502  0.10684671425E+03 -0.40267140753E+02 -0.25479386832E+03  0.27920884353E+03  0.00000000000E+00 0.  1.
<mgrwt>
<rscale>  2 0.11418259E+03</rscale>
<asrwt>0</asrwt>
<pdfrwt beam="2">  1       21 0.23876402E+00 0.11418259E+03</pdfrwt>
<pdfrwt beam="1">  1       -1 0.22683179E-02 0.11418259E+03</pdfrwt>
<totfact> 0.40477745E+03</totfact>
</mgrwt>
</event>
<event>
 4    1  0.4926234E+003  0.1372600E+03  0.7546771E-02  0.1217064E+00
         21   -1    0    0  501  502  0.00000000000E+00  0.00000000000E+00  0.34872979859E+03  0.34872979859E+03  0.00000000000E+00 0. -1.
          2   -1    0    0  503    0 -0.00000000000E+00 -0.00000000000E+00 -0.10088016798E+03  0.10088016798E+03  0.00000000000E+00 0.  1.
         21    1    1    2  503  502  0.13652569835E+03  0.14178421402E+02  0.27713215503E+03  0.30926125735E+03  0.00000000000E+00 0. -1.
          2    1    1    2  501    0 -0.13652569835E+03 -0.14178421402E+02 -0.29282524420E+02  0.14034870922E+03  0.00000000000E+00 0.  1.
<mgrwt>
<rscale>  2 0.13725995E+03</rscale>
<asrwt>0</asrwt>
<pdfrwt beam="1">  1       21 0.53650738E-01 0.13725995E+03</pdfrwt>
<pdfrwt beam="2">  1        2 0.15520026E-01 0.13725995E+03</pdfrwt>
<totfact> 0.15087138E+04</totfact>
</mgrwt>
</event>
<event>
 4    1  0.4926234E+003  0.1042612E+03  0.7546771E-02  0.1271582E+00
          2   -1    0    0  503    0 -0.00000000000E+00  0.00000000000E+00  0.85871402641E+02  0.85871402641E+02  0.00000000000E+00 0.  1.
         21   -1    0    0  501  502  0.00000000000E+00 -0.00000000000E+00 -0.33337558153E+03  0.33337558153E+03  0.00000000000E+00 0. -1.
         21    1    1    2  503  502 -0.84884179061E+02  0.60539875300E+02 -0.28884709116E+03  0.30708800437E+03  0.00000000000E+00 0. -1.
          2    1    1    2  501    0  0.84884179061E+02 -0.60539875300E+02  0.41342912267E+02  0.11215897980E+03  0.00000000000E+00 0.  1.
<mgrwt>
<rscale>  2 0.10426121E+03</rscale>
<asrwt>0</asrwt>
<pdfrwt beam="2">  1       21 0.51288550E-01 0.10426121E+03</pdfrwt>
<pdfrwt beam="1">  1        2 0.13210985E-01 0.10426121E+03</pdfrwt>
<totfact> 0.20055853E+04</totfact>
</mgrwt>
</event>
<event>
 4    1  0.4926234E+003  0.1354518E+03  0.7546771E-02  0.1219583E+00
          2   -1    0    0  502    0 -0.00000000000E+00  0.00000000000E+00  0.10304803709E+04  0.10304803709E+04  0.00000000000E+00 0. -1.
         21   -1    0    0  503  502  0.00000000000E+00 -0.00000000000E+00 -0.48046581162E+02  0.48046581162E+02  0.00000000000E+00 0. -1.
         21    1    1    2  503  501  0.11548873158E+03  0.70778179796E+02  0.63382664667E+02  0.14954785200E+03  0.00000000000E+00 0. -1.
          2    1    1    2  501    0 -0.11548873158E+03 -0.70778179796E+02  0.91905112510E+03  0.92897910009E+03  0.00000000000E+00 0. -1.
<mgrwt>
<rscale>  2 0.13545183E+03</rscale>
<asrwt>0</asrwt>
<pdfrwt beam="2">  1       21 0.73917825E-02 0.13545183E+03</pdfrwt>
<pdfrwt beam="1">  1        2 0.15853542E+00 0.13545183E+03</pdfrwt>
<totfact> 0.44331419E+04</totfact>
</mgrwt>
</event>
<event>
 4    1  0.4926234E+003  0.1342778E+03  0.7546771E-02  0.1221243E+00
         21   -1    0    0  501  502  0.00000000000E+00  0.00000000000E+00  0.37983400226E+02  0.37983400226E+02  0.00000000000E+00 0.  1.
          1   -1    0    0  503    0 -0.00000000000E+00 -0.00000000000E+00 -0.59610036516E+03  0.59610036516E+03  0.00000000000E+00 0.  1.
         21    1    1    2  503  502  0.12486870267E+03 -0.49379366733E+02 -0.13597924744E+03  0.19110434454E+03  0.00000000000E+00 0.  1.
          1    1    1    2  501    0 -0.12486870267E+03  0.49379366733E+02 -0.42213771749E+03  0.44297942085E+03  0.00000000000E+00 0.  1.
<mgrwt>
<rscale>  2 0.13427775E+03</rscale>
<asrwt>0</asrwt>
<pdfrwt beam="1">  1       21 0.58436003E-02 0.13427775E+03</pdfrwt>
<pdfrwt beam="2">  1        1 0.91707744E-01 0.13427775E+03</pdfrwt>
<totfact> 0.80917602E+04</totfact>
</mgrwt>
</event>
<event>
 4    1  0.4926234E+003  0.1094658E+03  0.7546771E-02  0.1261562E+00
         -3   -1    0    0    0  501 -0.00000000000E+00  0.00000000000E+00  0.22722822269E+02  0.22722822269E+02  0.00000000000E+00 0.  1.
         21   -1    0    0  503  502  0.00000000000E+00 -0.00000000000E+00 -0.55509691136E+03  0.55509691136E+03  0.00000000000E+00 0.  1.
         21    1    1    2  503  501  0.88765384651E+02 -0.64058396186E+02 -0.33078558754E+03  0.34842772071E+03  0.00000000000E+00 0.  1.
         -3    1    1    2    0  502 -0.88765384651E+02  0.64058396186E+02 -0.20158850155E+03  0.22939201292E+03  0.00000000000E+00 0.  1.
<mgrwt>
<rscale>  2 0.10946585E+03</rscale>
<asrwt>0</asrwt>
<pdfrwt beam="2">  1       21 0.85399516E-01 0.10946585E+03</pdfrwt>
<pdfrwt beam="1">  1       -3 0.34958192E-02 0.10946585E+03</pdfrwt>
<totfact> 0.22695846E+04</totfact>
</mgrwt>
</event>
<event>
 4    1  0.4926234E+003  0.1139153E+03  0.7546771E-02  0.1253486E+00
         21   -1    0    0  503  502  0.00000000000E+00  0.00000000000E+00  0.37890424448E+03  0.37890424448E+03  0.00000000000E+00 0.  1.
          2   -1    0    0  502    0 -0.00000000000E+00 -0.00000000000E+00 -0.26375760661E+03  0.26375760661E+03  0.00000000000E+00 0.  1.
         21    1    1    2  503  501  0.11215792020E+03 -0.19932264961E+02  0.35731732568E+03  0.37503648554E+03  0.00000000000E+00 0.  1.
          2    1    1    2  501    0 -0.11215792020E+03  0.19932264961E+02 -0.24217068781E+03  0.26762536555E+03  0.00000000000E+00 0.  1.
<mgrwt>
<rscale>  2 0.11391529E+03</rscale>
<asrwt>0</asrwt>
<pdfrwt beam="1">  1       21 0.58292961E-01 0.11391529E+03</pdfrwt>
<pdfrwt beam="2">  1        2 0.40578093E-01 0.11391529E+03</pdfrwt>
<totfact> 0.44162157E+03</totfact>
</mgrwt>
</event>
<event>
 4    1  0.4926234E+003  0.1142165E+03  0.7546771E-02  0.1252955E+00
          2   -1    0    0  503    0 -0.00000000000E+00  0.00000000000E+00  0.14004682285E+04  0.14004682285E+04  0.00000000000E+00 0. -1.
         21   -1    0    0  501  502  0.00000000000E+00 -0.00000000000E+00 -0.14422161306E+02  0.14422161306E+02  0.00000000000E+00 0. -1.
         21    1    1    2  503  502 -0.10659655394E+03 -0.41019411674E+02  0.27203891053E+03  0.29504336341E+03  0.00000000000E+00 0. -1.
          2    1    1    2  501    0  0.10659655394E+03  0.41019411674E+02  0.11140071567E+04  0.11198470264E+04  0.00000000000E+00 0. -1.
<mgrwt>
<rscale>  2 0.11421654E+03</rscale>
<asrwt>0</asrwt>
<pdfrwt beam="2">  1       21 0.22187952E-02 0.11421654E+03</pdfrwt>
<pdfrwt beam="1">  1        2 0.21545654E+00 0.11421654E+03</pdfrwt>
<totfact> 0.20482308E+05</totfact>
</mgrwt>
</event>
<event>
 4    1  0.4926234E+003  0.1238507E+03  0.7546771E-02  0.1236876E+00
         21   -1    0    0  503  502  0.00000000000E+00  0.00000000000E+00  0.16201085538E+02  0.16201085538E+02  0.00000000000E+00 0. -1.
          2   -1    0    0  502    0 -0.00000000000E+00 -0.00000000000E+00 -0.11080860004E+04  0.11080860004E+04  0.00000000000E+00 0. -1.
         21    1    1    2  503  501 -0.80583681442E+02 -0.94049327091E+02 -0.33146879651E+03  0.35385105440E+03  0.00000000000E+00 0. -1.
          2    1    1    2  501    0  0.80583681442E+02  0.94049327091E+02 -0.76041611840E+03  0.77043603158E+03  0.00000000000E+00 0. -1.
<mgrwt>
<rscale>  2 0.12385074E+03</rscale>
<asrwt>0</asrwt>
<pdfrwt beam="1">  1       21 0.24924743E-02 0.12385074E+03</pdfrwt>
<pdfrwt beam="2">  1        2 0.17047480E+00 0.12385074E+03</pdfrwt>
<totfact> 0.24503862E+05</totfact>
</mgrwt>
</event>
<event>
 4    1  0.4926234E+003  0.1080419E+03  0.7546771E-02  0.1264240E+00
         21   -1    0    0  503  502  0.00000000000E+00  0.00000000000E+00  0.49305380615E+03  0.49305380615E+03  0.00000000000E+00 0. -1.
          2   -1    0    0  502    0 -0.00000000000E+00 -0.00000000000E+00 -0.81846083546E+02  0.81846083546E+02  0.00000000000E+00 0.  1.
         21    1    1    2  503  501 -0.10546507347E+03 -0.23455499961E+02  0.44793928675E+03  0.46078481617E+03  0.00000000000E+00 0. -1.
          2    1    1    2  501    0  0.10546507347E+03  0.23455499961E+02 -0.36731564152E+02  0.11411507352E+03  0.00000000000E+00 0.  1.
<mgrwt>
<rscale>  2 0.10804185E+03</rscale>
<asrwt>0</asrwt>
<pdfrwt beam="1">  1       21 0.75854430E-01 0.10804185E+03</pdfrwt>
<pdfrwt beam="2">  1        2 0.12591705E-01 0.10804185E+03</pdfrwt>
<totfact> 0.92314515E+03</totfact>
</mgrwt>
</event>
<event>
 4    1  0.4926234E+003  0.1305690E+03  0.7546771E-02  0.1226614E+00
          4   -1    0    0  502    0 -0.00000000000E+00  0.00000000000E+00  0.87754823408E+02  0.87754823408E+02  0.00000000000E+00 0.  1.
         21   -1    0    0  503  502  0.00000000000E+00 -0.00000000000E+00 -0.19496819115E+03  0.19496819115E+03  0.00000000000E+00 0. -1.
         21    1    1    2  503  501 -0.12569416991E+03  0.35344585673E+02 -0.62056730257E+02  0.14456590835E+03  0.00000000000E+00 0. -1.
          4    1    1    2  501    0  0.12569416991E+03 -0.35344585673E+02 -0.45156637485E+02  0.13815710621E+03  0.00000000000E+00 0.  1.
<mgrwt>
<rscale>  2 0.13056900E+03</rscale>
<asrwt>0</asrwt>
<pdfrwt beam="2">  1       21 0.29995106E-01 0.13056900E+03</pdfrwt>
<pdfrwt beam="1">  1        4 0.13500742E-01 0.13056900E+03</pdfrwt>
<totfact> 0.19674411E+04</totfact>
</mgrwt>
</event>
<event>
 4    1  0.4926234E+003  0.1101989E+03  0.7546771E-02  0.1260202E+00
          1   -1    0    0  503    0 -0.00000000000E+00  0.00000000000E+00  0.20858934095E+04  0.20858934095E+04  0.00000000000E+00 0. -1.
         21   -1    0    0  501  502  0.00000000000E+00 -0.00000000000E+00 -0.10374133860E+02  0.10374133860E+02  0.00000000000E+00 0.  1.
         21    1    1    2  503  502 -0.92197542521E+02  0.60360634056E+02  0.34344763918E+03  0.36069387831E+03  0.00000000000E+00 0.  1.
          1    1    1    2  501    0  0.92197542521E+02 -0.60360634056E+02  0.17320716365E+04  0.17355736651E+04  0.00000000000E+00 0. -1.
<mgrwt>
<rscale>  2 0.11019888E+03</rscale>
<asrwt>0</asrwt>
<pdfrwt beam="2">  1       21 0.15960223E-02 0.11019888E+03</pdfrwt>
<pdfrwt beam="1">  1        1 0.32090634E+00 0.11019888E+03</pdfrwt>
<totfact> 0.61198608E+04</totfact>
</mgrwt>
</event>
<event>
 4    1  0.4926234E+003  0.1250879E+03  0.7546771E-02  0.1234932E+00
         21   -1    0    0  503  502  0.00000000000E+00  0.00000000000E+00  0.64355184672E+02  0.64355184672E+02  0.00000000000E+00 0.  1.
          2   -1    0    0  502    0 -0.00000000000E+00 -0.00000000000E+00 -0.94404960053E+03  0.94404960053E+03  0.00000000000E+00 0.  1.
         21    1    1    2  503  501 -0.11353596772E+03  0.52502983072E+02 -0.53968705204E+01  0.12520425476E+03  0.00000000000E+00 0.  1.
          2    1    1    2  501    0  0.11353596772E+03 -0.52502983072E+02 -0.87429754534E+03  0.88320053045E+03  0.00000000000E+00 0.  1.
<mgrwt>
<rscale>  2 0.12508789E+03</rscale>
<asrwt>0</asrwt>
<pdfrwt beam="1">  1       21 0.99007978E-02 0.12508789E+03</pdfrwt>
<pdfrwt beam="2">  1        2 0.14523840E+00 0.12508789E+03</pdfrwt>
<totfact> 0.30145853E+04</totfact>
</mgrwt>
</event>
<event>
 4    1  0.4926234E+003  0.1016298E+03  0.7546771E-02  0.1276906E+00
         21   -1    0    0  503  502  0.00000000000E+00  0.00000000000E+00  0.84764502803E+02  0.84764502803E+02  0.00000000000E+00 0.  1.
          3   -1    0    0  502    0 -0.00000000000E+00 -0.00000000000E+00 -0.58970117895E+03  0.58970117895E+03  0.00000000000E+00 0. -1.
         21    1    1    2  503  501 -0.13630396481E+02 -0.10071158546E+03  0.47909175384E+02  0.11235613130E+03  0.00000000000E+00 0.  1.
          3    1    1    2  501    0  0.13630396481E+02  0.10071158546E+03 -0.55284585154E+03  0.56210955046E+03  0.00000000000E+00 0. -1.
<mgrwt>
<rscale>  2 0.10162977E+03</rscale>
<asrwt>0</asrwt>
<pdfrwt beam="1">  1       21 0.13040693E-01 0.10162977E+03</pdfrwt>
<pdfrwt beam="2">  1        3 0.90723258E-01 0.10162977E+03</pdfrwt>
<totfact> 0.27718111E+03</totfact>
</mgrwt>
</event>
<event>
 4    1  0.4926234E+003  0.1175722E+03  0.7546771E-02  0.1247157E+00
          1   -1    0    0  503    0 -0.00000000000E+00  0.00000000000E+00  0.43281459665E+03  0.43281459665E+03  0.00000000000E+00 0.  1.
         21   -1    0    0  501  502  0.00000000000E+00 -0.00000000000E+00 -0.32112084077E+02  0.32112084077E+02  0.00000000000E+00 0.  1.
         21    1    1    2  503  502  0.11422482915E+03 -0.27855011377E+02  0.21746935280E+03  0.24721677261E+03  0.00000000000E+00 0.  1.
          1    1    1    2  501    0 -0.11422482915E+03  0.27855011377E+02  0.18323315977E+03  0.21770990812E+03  0.00000000000E+00 0.  1.
<mgrwt>
<rscale>  2 0.11757216E+03</rscale>
<asrwt>0</asrwt>
<pdfrwt beam="2">  1       21 0.49403209E-02 0.11757216E+03</pdfrwt>
<pdfrwt beam="1">  1        1 0.66586857E-01 0.11757216E+03</pdfrwt>
<totfact> 0.16246593E+05</totfact>
</mgrwt>
</event>
<event>
 4    1  0.4926234E+003  0.1297662E+03  0.7546771E-02  0.1227803E+00
          1   -1    0    0  502    0 -0.00000000000E+00  0.00000000000E+00  0.94099926450E+03  0.94099926450E+03  0.00000000000E+00 0. -1.
         21   -1    0    0  503  502  0.00000000000E+00 -0.00000000000E+00 -0.27377603201E+02  0.27377603201E+02  0.00000000000E+00 0.  1.
         21    1    1    2  503  501  0.46915900229E+02  0.12098826363E+03  0.17185434521E+03  0.21534432335E+03  0.00000000000E+00 0.  1.
          1    1    1    2  501    0 -0.46915900229E+02 -0.12098826363E+03  0.74176731609E+03  0.75303254435E+03  0.00000000000E+00 0. -1.
<mgrwt>
<rscale>  2 0.12976618E+03</rscale>
<asrwt>0</asrwt>
<pdfrwt beam="2">  1       21 0.42119397E-02 0.12976618E+03</pdfrwt>
<pdfrwt beam="1">  1        1 0.14476909E+00 0.12976618E+03</pdfrwt>
<totfact> 0.71537175E+04</totfact>
</mgrwt>
</event>
<event>
 4    1  0.4926234E+003  0.1138043E+03  0.7546771E-02  0.1253683E+00
         -1   -1    0    0    0  501 -0.00000000000E+00  0.00000000000E+00  0.60786553493E+03  0.60786553493E+03  0.00000000000E+00 0.  1.
         21   -1    0    0  503  502  0.00000000000E+00 -0.00000000000E+00 -0.79970211523E+02  0.79970211523E+02  0.00000000000E+00 0.  1.
         21    1    1    2  503  501  0.85921031051E+02 -0.74625680345E+02 -0.30613732199E+02  0.11784997388E+03  0.00000000000E+00 0.  1.
         -1    1    1    2    0  502 -0.85921031051E+02  0.74625680345E+02  0.55850905561E+03  0.56998577258E+03  0.00000000000E+00 0.  1.
<mgrwt>
<rscale>  2 0.11380429E+03</rscale>
<asrwt>0</asrwt>
<pdfrwt beam="2">  1       21 0.12303110E-01 0.11380429E+03</pdfrwt>
<pdfrwt beam="1">  1       -1 0.93517772E-01 0.11380429E+03</pdfrwt>
<totfact> 0.62247262E+03</totfact>
</mgrwt>
</event>
<event>
 4    1  0.4926234E+003  0.1192047E+03  0.7546771E-02  0.1244415E+00
          2   -1    0    0  502    0 -0.00000000000E+00  0.00000000000E+00  0.55232004862E+03  0.55232004862E+03  0.00000000000E+00 0.  1.
         21   -1    0    0  503  502  0.00000000000E+00 -0.00000000000E+00 -0.95794824411E+02  0.95794824411E+02  0.00000000000E+00 0. -1.
         21    1    1    2  503  501  0.11273787617E+03  0.38729011990E+02 -0.48883640634E+02  0.12883856339E+03  0.00000000000E+00 0. -1.
          2    1    1    2  501    0 -0.11273787617E+03 -0.38729011990E+02  0.50540886485E+03  0.51927630964E+03  0.00000000000E+00 0.  1.
<mgrwt>
<rscale>  2 0.11920472E+03</rscale>
<asrwt>0</asrwt>
<pdfrwt beam="2">  1       21 0.14737666E-01 0.11920472E+03</pdfrwt>
<pdfrwt beam="1">  1        2 0.84972313E-01 0.11920472E+03</pdfrwt>
<totfact> 0.28418839E+04</totfact>
</mgrwt>
</event>
<event>
 4    1  0.4926234E+003  0.1078126E+03  0.7546771E-02  0.1264675E+00
         21   -1    0    0  503  502  0.00000000000E+00  0.00000000000E+00  0.54412737778E+02  0.54412737778E+02  0.00000000000E+00 0. -1.
         -1   -1    0    0    0  501 -0.00000000000E+00 -0.00000000000E+00 -0.50174758038E+03  0.50174758038E+03  0.00000000000E+00 0. -1.
         21    1    1    2  503  501  0.10589347976E+03 -0.20251615616E+02 -0.12940000876E+02  0.10858637398E+03  0.00000000000E+00 0. -1.
         -1    1    1    2    0  502 -0.10589347976E+03  0.20251615616E+02 -0.43439484172E+03  0.44757394418E+03  0.00000000000E+00 0. -1.
<mgrwt>
<rscale>  2 0.10781260E+03</rscale>
<asrwt>0</asrwt>
<pdfrwt beam="1">  1       21 0.83711901E-02 0.10781260E+03</pdfrwt>
<pdfrwt beam="2">  1       -1 0.77191938E-01 0.10781260E+03</pdfrwt>
<totfact> 0.18143764E+04</totfact>
</mgrwt>
</event>
<event>
 4    1  0.4926234E+003  0.1215395E+03  0.7546771E-02  0.1240579E+00
         21   -1    0    0  501  502  0.00000000000E+00  0.00000000000E+00  0.68747987902E+02  0.68747987902E+02  0.00000000000E+00 0. -1.
          2   -1    0    0  503    0 -0.00000000000E+00 -0.00000000000E+00 -0.13429721740E+04  0.13429721740E+04  0.00000000000E+00 0.  1.
         21    1    1    2  503  502 -0.89172229376E+02 -0.82584241610E+02  0.98211010102E+01  0.12193562842E+03  0.00000000000E+00 0. -1.
          2    1    1    2  501    0  0.89172229376E+02  0.82584241610E+02 -0.12840452871E+04  0.12897845335E+04  0.00000000000E+00 0.  1.
<mgrwt>
<rscale>  2 0.12153947E+03</rscale>
<asrwt>0</asrwt>
<pdfrwt beam="1">  1       21 0.10576615E-01 0.12153947E+03</pdfrwt>
<pdfrwt beam="2">  1        2 0.20661108E+00 0.12153947E+03</pdfrwt>
<totfact> 0.16002839E+04</totfact>
</mgrwt>
</event>
<event>
 4    1  0.4926234E+003  0.1076620E+03  0.7546771E-02  0.1264962E+00
         21   -1    0    0  503  502  0.00000000000E+00  0.00000000000E+00  0.78946963471E+03  0.78946963471E+03  0.00000000000E+00 0. -1.
          2   -1    0    0  502    0 -0.00000000000E+00 -0.00000000000E+00 -0.14261897752E+03  0.14261897752E+03  0.00000000000E+00 0.  1.
         21    1    1    2  503  501  0.78242100499E+02  0.73954526017E+02  0.76482943030E+03  0.77236983088E+03  0.00000000000E+00 0. -1.
          2    1    1    2  501    0 -0.78242100499E+02 -0.73954526017E+02 -0.11797877312E+03  0.15971878135E+03  0.00000000000E+00 0.  1.
<mgrwt>
<rscale>  2 0.10766196E+03</rscale>
<asrwt>0</asrwt>
<pdfrwt beam="1">  1       21 0.12145686E+00 0.10766196E+03</pdfrwt>
<pdfrwt beam="2">  1        2 0.21941382E-01 0.10766196E+03</pdfrwt>
<totfact> 0.16461095E+03</totfact>
</mgrwt>
</event>
<event>
 4    1  0.4926234E+003  0.1220415E+03  0.7546771E-02  0.1239767E+00
         21   -1    0    0  501  502  0.00000000000E+00  0.00000000000E+00  0.10212565265E+03  0.10212565265E+03  0.00000000000E+00 0. -1.
          2   -1    0    0  503    0 -0.00000000000E+00 -0.00000000000E+00 -0.25191004456E+04  0.25191004456E+04  0.00000000000E+00 0. -1.
         21    1    1    2  503  502 -0.94334911333E+02  0.77427702037E+02  0.63621643693E+02  0.13762935038E+03  0.00000000000E+00 0. -1.
          2    1    1    2  501    0  0.94334911333E+02 -0.77427702037E+02 -0.24805964367E+04  0.24835967479E+04  0.00000000000E+00 0. -1.
<mgrwt>
<rscale>  2 0.12204149E+03</rscale>
<asrwt>0</asrwt>
<pdfrwt beam="1">  1       21 0.15711640E-01 0.12204149E+03</pdfrwt>
<pdfrwt beam="2">  1        2 0.38755388E+00 0.12204149E+03</pdfrwt>
<totfact> 0.19557289E+03</totfact>
</mgrwt>
</event>
<event>
 4    1  0.4926234E+003  0.1185315E+03  0.7546771E-02  0.1245539E+00
         21   -1    0    0  501  502  0.00000000000E+00  0.00000000000E+00  0.36024524550E+03  0.36024524550E+03  0.00000000000E+00 0.  1.
         -2   -1    0    0    0  501 -0.00000000000E+00 -0.00000000000E+00 -0.11900304058E+03  0.11900304058E+03  0.00000000000E+00 0. -1.
         21    1    1    2  503  502  0.70010042451E+02 -0.95646768740E+02  0.31709447112E+03  0.33852417052E+03  0.00000000000E+00 0.  1.
         -2    1    1    2    0  503 -0.70010042451E+02  0.95646768740E+02 -0.75852266190E+02  0.14072411556E+03  0.00000000000E+00 0. -1.
<mgrwt>
<rscale>  2 0.11853147E+03</rscale>
<asrwt>0</asrwt>
<pdfrwt beam="1">  1       21 0.55422345E-01 0.11853147E+03</pdfrwt>
<pdfrwt beam="2">  1       -2 0.18308160E-01 0.11853147E+03</pdfrwt>
<totfact> 0.60331294E+03</totfact>
</mgrwt>
</event>
<event>
 4    1  0.4926234E+003  0.1701063E+03  0.7546771E-02  0.1177737E+00
          2   -1    0    0  503    0 -0.00000000000E+00  0.00000000000E+00  0.11249865091E+04  0.11249865091E+04  0.00000000000E+00 0.  1.
         21   -1    0    0  501  502  0.00000000000E+00 -0.00000000000E+00 -0.31342474216E+02  0.31342474216E+02  0.00000000000E+00 0.  1.
         21    1    1    2  503  502  0.13125324900E+03  0.10820685513E+03  0.30197348956E+03  0.34658927748E+03  0.00000000000E+00 0.  1.
          2    1    1    2  501    0 -0.13125324900E+03 -0.10820685513E+03  0.79167054536E+03  0.80973970587E+03  0.00000000000E+00 0.  1.
<mgrwt>
<rscale>  2 0.17010626E+03</rscale>
<asrwt>0</asrwt>
<pdfrwt beam="2">  1       21 0.48219200E-02 0.17010626E+03</pdfrwt>
<pdfrwt beam="1">  1        2 0.17307482E+00 0.17010626E+03</pdfrwt>
<totfact> 0.80688932E+04</totfact>
</mgrwt>
</event>
<event>
 4    1  0.4926234E+003  0.3430182E+03  0.7546771E-02  0.1065518E+00
         21   -1    0    0  501  502  0.00000000000E+00  0.00000000000E+00  0.18781318099E+03  0.18781318099E+03  0.00000000000E+00 0. -1.
          2   -1    0    0  503    0 -0.00000000000E+00 -0.00000000000E+00 -0.18168389017E+04  0.18168389017E+04  0.00000000000E+00 0. -1.
         21    1    1    2  503  502 -0.17928006733E+03  0.29243831266E+03 -0.31979324309E+01  0.34303314129E+03  0.00000000000E+00 0. -1.
          2    1    1    2  501    0  0.17928006733E+03 -0.29243831266E+03 -0.16258277882E+04  0.16616189414E+04  0.00000000000E+00 0. -1.
<mgrwt>
<rscale>  2 0.34301823E+03</rscale>
<asrwt>0</asrwt>
<pdfrwt beam="1">  1       21 0.28894337E-01 0.34301823E+03</pdfrwt>
<pdfrwt beam="2">  1        2 0.27951367E+00 0.34301823E+03</pdfrwt>
<totfact> 0.12770765E+03</totfact>
</mgrwt>
</event>
<event>
 4    1  0.4926234E+003  0.1088894E+03  0.7546771E-02  0.1262640E+00
          1   -1    0    0  502    0 -0.00000000000E+00  0.00000000000E+00  0.44005630816E+02  0.44005630816E+02  0.00000000000E+00 0.  1.
         21   -1    0    0  503  502  0.00000000000E+00 -0.00000000000E+00 -0.69531242754E+03  0.69531242754E+03  0.00000000000E+00 0. -1.
         21    1    1    2  503  501  0.24909639743E+02  0.10600193677E+03 -0.61495498208E+03  0.62452104106E+03  0.00000000000E+00 0. -1.
          1    1    1    2  501    0 -0.24909639743E+02 -0.10600193677E+03 -0.36351814646E+02  0.11479701729E+03  0.00000000000E+00 0.  1.
<mgrwt>
<rscale>  2 0.10888940E+03</rscale>
<asrwt>0</asrwt>
<pdfrwt beam="2">  1       21 0.10697115E+00 0.10888940E+03</pdfrwt>
<pdfrwt beam="1">  1        1 0.67700965E-02 0.10888940E+03</pdfrwt>
<totfact> 0.82277597E+03</totfact>
</mgrwt>
</event>
<event>
 4    1  0.4926234E+003  0.1498382E+03  0.7546771E-02  0.1200672E+00
          4   -1    0    0  502    0 -0.00000000000E+00  0.00000000000E+00  0.32574876211E+03  0.32574876211E+03  0.00000000000E+00 0. -1.
         21   -1    0    0  503  502  0.00000000000E+00 -0.00000000000E+00 -0.10445858335E+03  0.10445858335E+03  0.00000000000E+00 0.  1.
         21    1    1    2  503  501  0.14947723683E+03 -0.10394664742E+02 -0.14816026362E+02  0.15056894773E+03  0.00000000000E+00 0.  1.
          4    1    1    2  501    0 -0.14947723683E+03  0.10394664742E+02  0.23610620513E+03  0.27963839773E+03  0.00000000000E+00 0. -1.
<mgrwt>
<rscale>  2 0.14983822E+03</rscale>
<asrwt>0</asrwt>
<pdfrwt beam="2">  1       21 0.16070551E-01 0.14983822E+03</pdfrwt>
<pdfrwt beam="1">  1        4 0.50115194E-01 0.14983822E+03</pdfrwt>
<totfact> 0.55332323E+03</totfact>
</mgrwt>
</event>
<event>
 4    1  0.4926234E+003  0.2247488E+03  0.7546771E-02  0.1130391E+00
         21   -1    0    0  501  502  0.00000000000E+00  0.00000000000E+00  0.28665877779E+03  0.28665877779E+03  0.00000000000E+00 0.  1.
          2   -1    0    0  503    0 -0.00000000000E+00 -0.00000000000E+00 -0.26794597622E+03  0.26794597622E+03  0.00000000000E+00 0. -1.
         21    1    1    2  503  502 -0.15577822372E+03  0.16200358751E+03  0.17161243444E+03  0.28277702348E+03  0.00000000000E+00 0.  1.
          2    1    1    2  501    0  0.15577822372E+03 -0.16200358751E+03 -0.15289963287E+03  0.27182773053E+03  0.00000000000E+00 0. -1.
<mgrwt>
<rscale>  2 0.22474879E+03</rscale>
<asrwt>0</asrwt>
<pdfrwt beam="1">  1       21 0.44101350E-01 0.22474879E+03</pdfrwt>
<pdfrwt beam="2">  1        2 0.41222458E-01 0.22474879E+03</pdfrwt>
<totfact> 0.75000941E+03</totfact>
</mgrwt>
</event>
<event>
 4    1  0.4926234E+003  0.1050652E+03  0.7546771E-02  0.1269991E+00
         21   -1    0    0  503  502  0.00000000000E+00  0.00000000000E+00  0.11629392815E+04  0.11629392815E+04  0.00000000000E+00 0. -1.
          2   -1    0    0  502    0 -0.00000000000E+00 -0.00000000000E+00 -0.45486795880E+02  0.45486795880E+02  0.00000000000E+00 0. -1.
         21    1    1    2  503  501 -0.78482199923E+02 -0.69851633212E+02  0.10962118359E+04  0.11012352589E+04  0.00000000000E+00 0. -1.
          2    1    1    2  501    0  0.78482199923E+02  0.69851633212E+02  0.21240649779E+02  0.10719081850E+03  0.00000000000E+00 0. -1.
<mgrwt>
<rscale>  2 0.10506525E+03</rscale>
<asrwt>0</asrwt>
<pdfrwt beam="1">  1       21 0.17891371E+00 0.10506525E+03</pdfrwt>
<pdfrwt beam="2">  1        2 0.69979695E-02 0.10506525E+03</pdfrwt>
<totfact> 0.23732569E+03</totfact>
</mgrwt>
</event>
<event>
 4    1  0.4926234E+003  0.1615513E+03  0.7546771E-02  0.1186956E+00
          2   -1    0    0  502    0 -0.00000000000E+00  0.00000000000E+00  0.79356430974E+03  0.79356430974E+03  0.00000000000E+00 0. -1.
         21   -1    0    0  503  502  0.00000000000E+00 -0.00000000000E+00 -0.92223475659E+02  0.92223475659E+02  0.00000000000E+00 0.  1.
         21    1    1    2  503  501 -0.15376397515E+03  0.49552734973E+02 -0.45809396811E+01  0.16161626962E+03  0.00000000000E+00 0.  1.
          2    1    1    2  501    0  0.15376397515E+03 -0.49552734973E+02  0.70592177376E+03  0.72417151578E+03  0.00000000000E+00 0. -1.
<mgrwt>
<rscale>  2 0.16155133E+03</rscale>
<asrwt>0</asrwt>
<pdfrwt beam="2">  1       21 0.14188228E-01 0.16155133E+03</pdfrwt>
<pdfrwt beam="1">  1        2 0.12208681E+00 0.16155133E+03</pdfrwt>
<totfact> 0.19795154E+04</totfact>
</mgrwt>
</event>
<event>
 4    1  0.4926234E+003  0.1731825E+03  0.7546771E-02  0.1174569E+00
         -1   -1    0    0    0  501 -0.00000000000E+00  0.00000000000E+00  0.14371412335E+03  0.14371412335E+03  0.00000000000E+00 0.  1.
         21   -1    0    0  501  502  0.00000000000E+00 -0.00000000000E+00 -0.48928324205E+03  0.48928324205E+03  0.00000000000E+00 0. -1.
         21    1    1    2  503  502  0.83956379551E+02 -0.15147111271E+03 -0.41246235508E+03  0.44734479545E+03  0.00000000000E+00 0. -1.
         -1    1    1    2    0  503 -0.83956379551E+02  0.15147111271E+03  0.66893236388E+02  0.18565256995E+03  0.00000000000E+00 0.  1.
<mgrwt>
<rscale>  2 0.17318248E+03</rscale>
<asrwt>0</asrwt>
<pdfrwt beam="2">  1       21 0.75274345E-01 0.17318248E+03</pdfrwt>
<pdfrwt beam="1">  1       -1 0.22109865E-01 0.17318248E+03</pdfrwt>
<totfact> 0.24630024E+03</totfact>
</mgrwt>
</event>
<event>
 4    1  0.4926234E+003  0.1592152E+03  0.7546771E-02  0.1189586E+00
          2   -1    0    0  502    0 -0.00000000000E+00  0.00000000000E+00  0.52436199172E+03  0.52436199172E+03  0.00000000000E+00 0. -1.
         21   -1    0    0  503  502  0.00000000000E+00 -0.00000000000E+00 -0.97119117698E+02  0.97119117698E+02  0.00000000000E+00 0. -1.
         21    1    1    2  503  501 -0.13936014882E+03 -0.76994969582E+02 -0.65936708049E+01  0.15935166430E+03  0.00000000000E+00 0. -1.
          2    1    1    2  501    0  0.13936014882E+03  0.76994969582E+02  0.43383654482E+03  0.46212944512E+03  0.00000000000E+00 0. -1.
<mgrwt>
<rscale>  2 0.15921519E+03</rscale>
<asrwt>0</asrwt>
<pdfrwt beam="2">  1       21 0.14941403E-01 0.15921519E+03</pdfrwt>
<pdfrwt beam="1">  1        2 0.80671074E-01 0.15921519E+03</pdfrwt>
<totfact> 0.29303427E+04</totfact>
</mgrwt>
</event>
<event>
 4    1  0.4926234E+003  0.1687351E+03  0.7546771E-02  0.1179173E+00
          4   -1    0    0  503    0 -0.00000000000E+00  0.00000000000E+00  0.32943969905E+03  0.32943969905E+03  0.00000000000E+00 0.  1.
         21   -1    0    0  501  502  0.00000000000E+00 -0.00000000000E+00 -0.48145406939E+03  0.48145406939E+03  0.00000000000E+00 0.  1.
         21    1    1    2  503  502 -0.39744566252E+00  0.16873458513E+03 -0.44326544984E+03  0.47429503182E+03  0.00000000000E+00 0.  1.
          4    1    1    2  501    0  0.39744566252E+00 -0.16873458513E+03  0.29125107950E+03  0.33659873662E+03  0.00000000000E+00 0.  1.
<mgrwt>
<rscale>  2 0.16873505E+03</rscale>
<asrwt>0</asrwt>
<pdfrwt beam="2">  1       21 0.74069857E-01 0.16873505E+03</pdfrwt>
<pdfrwt beam="1">  1        4 0.50683031E-01 0.16873505E+03</pdfrwt>
<totfact> 0.26012620E+02</totfact>
</mgrwt>
</event>
<event>
 4    1  0.4926234E+003  0.1093834E+03  0.7546771E-02  0.1261716E+00
          4   -1    0    0  502    0 -0.00000000000E+00  0.00000000000E+00  0.15754709147E+03  0.15754709147E+03  0.00000000000E+00 0.  1.
         21   -1    0    0  503  502  0.00000000000E+00 -0.00000000000E+00 -0.95117542327E+02  0.95117542327E+02  0.00000000000E+00 0. -1.
         21    1    1    2  503  501  0.10880908552E+03  0.11193800208E+02 -0.25505466120E+02  0.11231761686E+03  0.00000000000E+00 0. -1.
          4    1    1    2  501    0 -0.10880908552E+03 -0.11193800208E+02  0.87935015260E+02  0.14034701694E+03  0.00000000000E+00 0.  1.
<mgrwt>
<rscale>  2 0.10938335E+03</rscale>
<asrwt>0</asrwt>
<pdfrwt beam="2">  1       21 0.14633468E-01 0.10938335E+03</pdfrwt>
<pdfrwt beam="1">  1        4 0.24238014E-01 0.10938335E+03</pdfrwt>
<totfact> 0.25863570E+04</totfact>
</mgrwt>
</event>
<event>
 4    1  0.4926234E+003  0.1263098E+03  0.7546771E-02  0.1233036E+00
          1   -1    0    0  502    0 -0.00000000000E+00  0.00000000000E+00  0.12889962640E+04  0.12889962640E+04  0.00000000000E+00 0. -1.
         21   -1    0    0  503  502  0.00000000000E+00 -0.00000000000E+00 -0.22852027659E+02  0.22852027659E+02  0.00000000000E+00 0. -1.
         21    1    1    2  503  501 -0.73551760549E+02 -0.10268547880E+03  0.18898863674E+03  0.22731228268E+03  0.00000000000E+00 0. -1.
          1    1    1    2  501    0  0.73551760549E+02  0.10268547880E+03  0.10771555996E+04  0.10845360090E+04  0.00000000000E+00 0. -1.
<mgrwt>
<rscale>  2 0.12630981E+03</rscale>
<asrwt>0</asrwt>
<pdfrwt beam="2">  1       21 0.35156976E-02 0.12630981E+03</pdfrwt>
<pdfrwt beam="1">  1        1 0.19830706E+00 0.12630981E+03</pdfrwt>
<totfact> 0.54963032E+04</totfact>
</mgrwt>
</event>
