<event>
 4    1  0.5142205E+003  0.1073844E+03  0.7546771E-02  0.1265492E+00
          2   -1    0    0  502    0 -0.00000000000E+00  0.00000000000E+00  0.17271852204E+04  0.17271852204E+04  0.00000000000E+00 0. -1.
         21   -1    0    0  503  502  0.00000000000E+00 -0.00000000000E+00 -0.67007499275E+01  0.67007499275E+01  0.00000000000E+00 0. -1.
         21    1    1    2  503  501  0.29874317260E+02  0.10314517549E+03  0.91248915274E+03  0.91878607735E+03  0.00000000000E+00 0. -1.
          2    1    1    2  501    0 -0.29874317260E+02 -0.10314517549E+03  0.80799531770E+03  0.81509989294E+03  0.00000000000E+00 0. -1.
<mgrwt>
<rscale>  2 0.10738437E+03</rscale>
<asrwt>0</asrwt>
<pdfrwt beam="2">  1       21 0.10308860E-02 0.10738437E+03</pdfrwt>
<pdfrwt beam="1">  1        2 0.26572045E+00 0.10738437E+03</pdfrwt>
<totfact> 0.47100242E+05</totfact>
</mgrwt>
</event>
<event>
 4    1  0.5142205E+003  0.2077808E+03  0.7546771E-02  0.1143336E+00
          2   -1    0    0  503    0 -0.00000000000E+00  0.00000000000E+00  0.21150947152E+04  0.21150947152E+04  0.00000000000E+00 0. -1.
         21   -1    0    0  501  502  0.00000000000E+00 -0.00000000000E+00 -0.36334798254E+02  0.36334798254E+02  0.00000000000E+00 0.  1.
         21    1    1    2  503  502  0.19846397030E+03  0.61521545245E+02  0.32726772594E+03  0.38765579123E+03  0.00000000000E+00 0.  1.
          2    1    1    2  501    0 -0.19846397030E+03 -0.61521545245E+02  0.17514921910E+04  0.17637737222E+04  0.00000000000E+00 0. -1.
<mgrwt>
<rscale>  2 0.20778077E+03</rscale>
<asrwt>0</asrwt>
<pdfrwt beam="2">  1       21 0.55899706E-02 0.20778077E+03</pdfrwt>
<pdfrwt beam="1">  1        2 0.32539909E+00 0.20778077E+03</pdfrwt>
<totfact> 0.18574932E+04</totfact>
</mgrwt>
</event>
<event>
 4    1  0.5142205E+003  0.2191842E+03  0.7546771E-02  0.1134493E+00
         -1   -1    0    0    0  501 -0.00000000000E+00  0.00000000000E+00  0.32105158182E+03  0.32105158182E+03  0.00000000000E+00 0. -1.
         21   -1    0    0  501  502  0.00000000000E+00 -0.00000000000E+00 -0.96048744289E+03  0.96048744289E+03  0.00000000000E+00 0. -1.
         21    1    1    2  503  502  0.51277395845E+02  0.21310168713E+03 -0.90846119590E+03  0.93452846123E+03  0.00000000000E+00 0. -1.
         -1    1    1    2    0  503 -0.51277395845E+02 -0.21310168713E+03  0.26902533483E+03  0.34701056348E+03  0.00000000000E+00 0. -1.
<mgrwt>
<rscale>  2 0.21918417E+03</rscale>
<asrwt>0</asrwt>
<pdfrwt beam="2">  1       21 0.14776730E+00 0.21918417E+03</pdfrwt>
<pdfrwt beam="1">  1       -1 0.49392551E-01 0.21918417E+03</pdfrwt>
<totfact> 0.11853569E+02</totfact>
</mgrwt>
</event>
<event>
 4    1  0.5142205E+003  0.1290052E+03  0.7546771E-02  0.1228939E+00
         21   -1    0    0  503  502  0.00000000000E+00  0.00000000000E+00  0.30109703970E+03  0.30109703970E+03  0.00000000000E+00 0. -1.
          2   -1    0    0  502    0 -0.00000000000E+00 -0.00000000000E+00 -0.13537428764E+04  0.13537428764E+04  0.00000000000E+00 0.  1.
         21    1    1    2  503  501 -0.48609003202E+02  0.11949691827E+03  0.28402952114E+03  0.31195371059E+03  0.00000000000E+00 0. -1.
          2    1    1    2  501    0  0.48609003202E+02 -0.11949691827E+03 -0.13366753579E+04  0.13428862055E+04  0.00000000000E+00 0.  1.
<mgrwt>
<rscale>  2 0.12900523E+03</rscale>
<asrwt>0</asrwt>
<pdfrwt beam="1">  1       21 0.46322622E-01 0.12900523E+03</pdfrwt>
<pdfrwt beam="2">  1        2 0.20826813E+00 0.12900523E+03</pdfrwt>
<totfact> 0.98462567E+02</totfact>
</mgrwt>
</event>
<event>
 4    1  0.5142205E+003  0.1030789E+03  0.7546771E-02  0.1273952E+00
         21   -1    0    0  501  502  0.00000000000E+00  0.00000000000E+00  0.44493535448E+03  0.44493535448E+03  0.00000000000E+00 0.  1.
         -1   -1    0    0    0  501 -0.00000000000E+00 -0.00000000000E+00 -0.23977126653E+02  0.23977126653E+02  0.00000000000E+00 0.  1.
         21    1    1    2  503  502 -0.28906951781E+02  0.98942619972E+02  0.22536713735E+03  0.24782171113E+03  0.00000000000E+00 0.  1.
         -1    1    1    2    0  503  0.28906951781E+02 -0.98942619972E+02  0.19559109047E+03  0.22109077001E+03  0.00000000000E+00 0.  1.
<mgrwt>
<rscale>  2 0.10307887E+03</rscale>
<asrwt>0</asrwt>
<pdfrwt beam="1">  1       21 0.68451587E-01 0.10307887E+03</pdfrwt>
<pdfrwt beam="2">  1       -1 0.36887890E-02 0.10307887E+03</pdfrwt>
<totfact> 0.46826739E+04</totfact>
</mgrwt>
</event>
<event>
 4    1  0.5142205E+003  0.1364448E+03  0.7546771E-02  0.1218194E+00
          2   -1    0    0  503    0 -0.00000000000E+00  0.00000000000E+00  0.57020661829E+03  0.57020661829E+03  0.00000000000E+00 0. -1.
         21   -1    0    0  501  502  0.00000000000E+00 -0.00000000000E+00 -0.32650245359E+02  0.32650245359E+02  0.00000000000E+00 0. -1.
         21    1    1    2  503  502  0.99860460118E+02 -0.92978893698E+02  0.26976571382E+03  0.30230899180E+03  0.00000000000E+00 0. -1.
          2    1    1    2  501    0 -0.99860460118E+02  0.92978893698E+02  0.26779065911E+03  0.30054787186E+03  0.00000000000E+00 0. -1.
<mgrwt>
<rscale>  2 0.13644481E+03</rscale>
<asrwt>0</asrwt>
<pdfrwt beam="2">  1       21 0.50231151E-02 0.13644481E+03</pdfrwt>
<pdfrwt beam="1">  1        2 0.87724088E-01 0.13644481E+03</pdfrwt>
<totfact> 0.17769262E+05</totfact>
</mgrwt>
</event>
<event>
 4    1  0.5142205E+003  0.1623788E+03  0.7546771E-02  0.1186037E+00
         -2   -1    0    0    0  501 -0.00000000000E+00  0.00000000000E+00  0.28973046694E+03  0.28973046694E+03  0.00000000000E+00 0.  1.
         21   -1    0    0  503  502  0.00000000000E+00 -0.00000000000E+00 -0.10448384138E+03  0.10448384138E+03  0.00000000000E+00 0.  1.
         21    1    1    2  503  501 -0.16220566005E+03 -0.74963569233E+01  0.21827615649E+02  0.16383930031E+03  0.00000000000E+00 0.  1.
         -2    1    1    2    0  502  0.16220566005E+03  0.74963569233E+01  0.16341900991E+03  0.23037500802E+03  0.00000000000E+00 0.  1.
<mgrwt>
<rscale>  2 0.16237879E+03</rscale>
<asrwt>0</asrwt>
<pdfrwt beam="2">  1       21 0.16074437E-01 0.16237879E+03</pdfrwt>
<pdfrwt beam="1">  1       -2 0.44573918E-01 0.16237879E+03</pdfrwt>
<totfact> 0.13507277E+04</totfact>
</mgrwt>
</event>
<event>
 4    1  0.5142205E+003  0.1419092E+03  0.7546771E-02  0.1210783E+00
         21   -1    0    0  503  502  0.00000000000E+00  0.00000000000E+00  0.18839990995E+02  0.18839990995E+02  0.00000000000E+00 0.  1.
          1   -1    0    0  502    0 -0.00000000000E+00 -0.00000000000E+00 -0.13605644339E+04  0.13605644339E+04  0.00000000000E+00 0.  1.
         21    1    1    2  503  501 -0.74649387209E+02  0.12068834846E+03 -0.35153335170E+03  0.37909616962E+03  0.00000000000E+00 0.  1.
          1    1    1    2  501    0  0.74649387209E+02 -0.12068834846E+03 -0.99019109125E+03  0.10003082553E+04  0.00000000000E+00 0.  1.
<mgrwt>
<rscale>  2 0.14190916E+03</rscale>
<asrwt>0</asrwt>
<pdfrwt beam="1">  1       21 0.28984605E-02 0.14190916E+03</pdfrwt>
<pdfrwt beam="2">  1        1 0.20931758E+00 0.14190916E+03</pdfrwt>
<totfact> 0.67627812E+04</totfact>
</mgrwt>
</event>
<event>
 4    1  0.5142205E+003  0.1927673E+03  0.7546771E-02  0.1155989E+00
         21   -1    0    0  501  502  0.00000000000E+00  0.00000000000E+00  0.23870441703E+03  0.23870441703E+03  0.00000000000E+00 0. -1.
          3   -1    0    0  503    0 -0.00000000000E+00 -0.00000000000E+00 -0.45935972904E+03  0.45935972904E+03  0.00000000000E+00 0.  1.
         21    1    1    2  503  502  0.16182606922E+03 -0.10474520648E+03  0.17346658277E+03  0.25932583808E+03  0.00000000000E+00 0. -1.
          3    1    1    2  501    0 -0.16182606922E+03  0.10474520648E+03 -0.39412189478E+03  0.43873830800E+03  0.00000000000E+00 0.  1.
<mgrwt>
<rscale>  2 0.19276731E+03</rscale>
<asrwt>0</asrwt>
<pdfrwt beam="1">  1       21 0.36723756E-01 0.19276731E+03</pdfrwt>
<pdfrwt beam="2">  1        3 0.70670728E-01 0.19276731E+03</pdfrwt>
<totfact> 0.68935826E+02</totfact>
</mgrwt>
</event>
<event>
 4    1  0.5142205E+003  0.1180724E+03  0.7546771E-02  0.1246311E+00
         21   -1    0    0  501  502  0.00000000000E+00  0.00000000000E+00  0.17164494297E+02  0.17164494297E+02  0.00000000000E+00 0.  1.
         -2   -1    0    0    0  501 -0.00000000000E+00 -0.00000000000E+00 -0.14612192311E+04  0.14612192311E+04  0.00000000000E+00 0. -1.
         21    1    1    2  503  502  0.10825287677E+03  0.47142448975E+02 -0.22939102633E+03  0.25799484256E+03  0.00000000000E+00 0.  1.
         -2    1    1    2    0  503 -0.10825287677E+03 -0.47142448975E+02 -0.12146637105E+04  0.12203888829E+04  0.00000000000E+00 0. -1.
<mgrwt>
<rscale>  2 0.11807242E+03</rscale>
<asrwt>0</asrwt>
<pdfrwt beam="1">  1       21 0.26406918E-02 0.11807242E+03</pdfrwt>
<pdfrwt beam="2">  1       -2 0.22480293E+00 0.11807242E+03</pdfrwt>
<totfact> 0.66072535E+03</totfact>
</mgrwt>
</event>
<event>
 4    1  0.5142205E+003  0.1083735E+03  0.7546771E-02  0.1263612E+00
         21   -1    0    0  501  502  0.00000000000E+00  0.00000000000E+00  0.25093642756E+02  0.25093642756E+02  0.00000000000E+00 0. -1.
          2   -1    0    0  503    0 -0.00000000000E+00 -0.00000000000E+00 -0.47601412041E+03  0.47601412041E+03  0.00000000000E+00 0.  1.
         21    1    1    2  503  502 -0.32801557439E+02 -0.10329022700E+03 -0.19303006220E+03  0.22137167406E+03  0.00000000000E+00 0. -1.
          2    1    1    2  501    0  0.32801557439E+02  0.10329022700E+03 -0.25789041546E+03  0.27973608911E+03  0.00000000000E+00 0.  1.
<mgrwt>
<rscale>  2 0.10837349E+03</rscale>
<asrwt>0</asrwt>
<pdfrwt beam="1">  1       21 0.38605604E-02 0.10837349E+03</pdfrwt>
<pdfrwt beam="2">  1        2 0.73232942E-01 0.10837349E+03</pdfrwt>
<totfact> 0.33243995E+05</totfact>
</mgrwt>
</event>
<event>
 4    1  0.5142205E+003  0.1275902E+03  0.7546771E-02  0.1231076E+00
          1   -1    0    0  502    0 -0.00000000000E+00  0.00000000000E+00  0.24303609765E+02  0.24303609765E+02  0.00000000000E+00 0. -1.
         21   -1    0    0  503  502  0.00000000000E+00 -0.00000000000E+00 -0.74299583391E+03  0.74299583391E+03  0.00000000000E+00 0.  1.
         21    1    1    2  503  501 -0.76707207599E+02  0.10195722638E+03 -0.47973813738E+03  0.49641510066E+03  0.00000000000E+00 0.  1.
          1    1    1    2  501    0  0.76707207599E+02 -0.10195722638E+03 -0.23895408677E+03  0.27088434302E+03  0.00000000000E+00 0. -1.
<mgrwt>
<rscale>  2 0.12759025E+03</rscale>
<asrwt>0</asrwt>
<pdfrwt beam="2">  1       21 0.11430704E+00 0.12759025E+03</pdfrwt>
<pdfrwt beam="1">  1        1 0.37390172E-02 0.12759025E+03</pdfrwt>
<totfact> 0.15705754E+04</totfact>
</mgrwt>
</event>
<event>
 4    1  0.5142205E+003  0.1113701E+03  0.7546771E-02  0.1258054E+00
         21   -1    0    0  501  502  0.00000000000E+00  0.00000000000E+00  0.27562223121E+02  0.27562223121E+02  0.00000000000E+00 0.  1.
          2   -1    0    0  503    0 -0.00000000000E+00 -0.00000000000E+00 -0.17735057292E+04  0.17735057292E+04  0.00000000000E+00 0.  1.
         21    1    1    2  503  502 -0.35281424366E+02 -0.10563387898E+03 -0.95033795263E+02  0.14640600239E+03  0.00000000000E+00 0.  1.
          2    1    1    2  501    0  0.35281424366E+02  0.10563387898E+03 -0.16509097108E+04  0.16546619500E+04  0.00000000000E+00 0.  1.
<mgrwt>
<rscale>  2 0.11137008E+03</rscale>
<asrwt>0</asrwt>
<pdfrwt beam="1">  1       21 0.42403416E-02 0.11137008E+03</pdfrwt>
<pdfrwt beam="2">  1        2 0.27284706E+00 0.11137008E+03</pdfrwt>
<totfact> 0.45679785E+04</totfact>
</mgrwt>
</event>
<event>
 4    1  0.5142205E+003  0.1243936E+03  0.7546771E-02  0.1236020E+00
         21   -1    0    0  501  502  0.00000000000E+00  0.00000000000E+00  0.50785161971E+02  0.50785161971E+02  0.00000000000E+00 0. -1.
          2   -1    0    0  503    0 -0.00000000000E+00 -0.00000000000E+00 -0.11429773027E+04  0.11429773027E+04  0.00000000000E+00 0.  1.
         21    1    1    2  503  502 -0.11417127721E+03 -0.49383080985E+02 -0.34926056314E+02  0.12920370984E+03  0.00000000000E+00 0. -1.
          2    1    1    2  501    0  0.11417127721E+03  0.49383080985E+02 -0.10572660844E+04  0.10645587548E+04  0.00000000000E+00 0.  1.
<mgrwt>
<rscale>  2 0.12439361E+03</rscale>
<asrwt>0</asrwt>
<pdfrwt beam="1">  1       21 0.78131021E-02 0.12439361E+03</pdfrwt>
<pdfrwt beam="2">  1        2 0.17584266E+00 0.12439361E+03</pdfrwt>
<totfact> 0.34772564E+04</totfact>
</mgrwt>
</event>
<event>
 4    1  0.5142205E+003  0.1011415E+03  0.7546771E-02  0.1277914E+00
          1   -1    0    0  503    0 -0.00000000000E+00  0.00000000000E+00  0.20413279002E+04  0.20413279002E+04  0.00000000000E+00 0.  1.
         21   -1    0    0  501  502  0.00000000000E+00 -0.00000000000E+00 -0.25281890403E+03  0.25281890403E+03  0.00000000000E+00 0.  1.
         21    1    1    2  503  502 -0.33311097363E+02  0.95498580727E+02 -0.24139364214E+03  0.26172599908E+03  0.00000000000E+00 0.  1.
          1    1    1    2  501    0  0.33311097363E+02 -0.95498580727E+02  0.20299026383E+04  0.20324208051E+04  0.00000000000E+00 0.  1.
<mgrwt>
<rscale>  2 0.10114153E+03</rscale>
<asrwt>0</asrwt>
<pdfrwt beam="2">  1       21 0.38895217E-01 0.10114153E+03</pdfrwt>
<pdfrwt beam="1">  1        1 0.31405044E+00 0.10114153E+03</pdfrwt>
<totfact> 0.25675812E+02</totfact>
</mgrwt>
</event>
<event>
 4    1  0.5142205E+003  0.1052351E+03  0.7546771E-02  0.1269657E+00
          2   -1    0    0  503    0 -0.00000000000E+00  0.00000000000E+00  0.52727428766E+03  0.52727428766E+03  0.00000000000E+00 0.  1.
         21   -1    0    0  501  502  0.00000000000E+00 -0.00000000000E+00 -0.21129910874E+02  0.21129910874E+02  0.00000000000E+00 0.  1.
         21    1    1    2  503  502 -0.62040462830E+02  0.85002444881E+02  0.27430805614E+03  0.29380153902E+03  0.00000000000E+00 0.  1.
          2    1    1    2  501    0  0.62040462830E+02 -0.85002444881E+02  0.23183632065E+03  0.25460265952E+03  0.00000000000E+00 0.  1.
<mgrwt>
<rscale>  2 0.10523514E+03</rscale>
<asrwt>0</asrwt>
<pdfrwt beam="2">  1       21 0.32507559E-02 0.10523514E+03</pdfrwt>
<pdfrwt beam="1">  1        2 0.81119111E-01 0.10523514E+03</pdfrwt>
<totfact> 0.39383880E+05</totfact>
</mgrwt>
</event>
<event>
 4    1  0.5142205E+003  0.1041437E+03  0.7546771E-02  0.1271816E+00
         21   -1    0    0  503  502  0.00000000000E+00  0.00000000000E+00  0.19179268458E+02  0.19179268458E+02  0.00000000000E+00 0. -1.
          1   -1    0    0  502    0 -0.00000000000E+00 -0.00000000000E+00 -0.17018079291E+04  0.17018079291E+04  0.00000000000E+00 0. -1.
         21    1    1    2  503  501 -0.71367447996E+02 -0.75845840352E+02 -0.13817706760E+03  0.17302833914E+03  0.00000000000E+00 0. -1.
          1    1    1    2  501    0  0.71367447996E+02  0.75845840352E+02 -0.15444515930E+04  0.15479588584E+04  0.00000000000E+00 0. -1.
<mgrwt>
<rscale>  2 0.10414367E+03</rscale>
<asrwt>0</asrwt>
<pdfrwt beam="1">  1       21 0.29506577E-02 0.10414367E+03</pdfrwt>
<pdfrwt beam="2">  1        1 0.26181652E+00 0.10414367E+03</pdfrwt>
<totfact> 0.39748670E+04</totfact>
</mgrwt>
</event>
<event>
 4    1  0.5142205E+003  0.1996027E+03  0.7546771E-02  0.1150075E+00
         21   -1    0    0  501  502  0.00000000000E+00  0.00000000000E+00  0.32406644491E+02  0.32406644491E+02  0.00000000000E+00 0. -1.
          2   -1    0    0  503    0 -0.00000000000E+00 -0.00000000000E+00 -0.19825231498E+04  0.19825231498E+04  0.00000000000E+00 0. -1.
         21    1    1    2  503  502  0.18279834137E+03  0.80162351557E+02 -0.35411877370E+03  0.40649888328E+03  0.00000000000E+00 0. -1.
          2    1    1    2  501    0 -0.18279834137E+03 -0.80162351557E+02 -0.15959977316E+04  0.16084309110E+04  0.00000000000E+00 0. -1.
<mgrwt>
<rscale>  2 0.19960270E+03</rscale>
<asrwt>0</asrwt>
<pdfrwt beam="1">  1       21 0.49856364E-02 0.19960270E+03</pdfrwt>
<pdfrwt beam="2">  1        2 0.30500363E+00 0.19960270E+03</pdfrwt>
<totfact> 0.26537924E+04</totfact>
</mgrwt>
</event>
<event>
 4    1  0.5142205E+003  0.1368254E+03  0.7546771E-02  0.1217666E+00
          1   -1    0    0  503    0 -0.00000000000E+00  0.00000000000E+00  0.89208402543E+03  0.89208402543E+03  0.00000000000E+00 0. -1.
         21   -1    0    0  501  502  0.00000000000E+00 -0.00000000000E+00 -0.48239956828E+02  0.48239956828E+02  0.00000000000E+00 0.  1.
         21    1    1    2  503  502 -0.12216381555E+03  0.61621308502E+02  0.68527633686E+02  0.15302686062E+03  0.00000000000E+00 0.  1.
          1    1    1    2  501    0  0.12216381555E+03 -0.61621308502E+02  0.77531643491E+03  0.78729712164E+03  0.00000000000E+00 0. -1.
<mgrwt>
<rscale>  2 0.13682538E+03</rscale>
<asrwt>0</asrwt>
<pdfrwt beam="2">  1       21 0.74215325E-02 0.13682538E+03</pdfrwt>
<pdfrwt beam="1">  1        1 0.13724368E+00 0.13682538E+03</pdfrwt>
<totfact> 0.29895778E+04</totfact>
</mgrwt>
</event>
<event>
 4    1  0.5142205E+003  0.3108430E+03  0.7546771E-02  0.1079943E+00
         -1   -1    0    0    0  501 -0.00000000000E+00  0.00000000000E+00  0.12956953278E+04  0.12956953278E+04  0.00000000000E+00 0.  1.
         21   -1    0    0  503  502  0.00000000000E+00 -0.00000000000E+00 -0.67752285727E+03  0.67752285727E+03  0.00000000000E+00 0.  1.
         21    1    1    2  503  501  0.15933960873E+02 -0.31043435800E+03 -0.62164411665E+03  0.69502862496E+03  0.00000000000E+00 0.  1.
         -1    1    1    2    0  502 -0.15933960873E+02  0.31043435800E+03  0.12398165872E+04  0.12781895601E+04  0.00000000000E+00 0.  1.
<mgrwt>
<rscale>  2 0.31084302E+03</rscale>
<asrwt>0</asrwt>
<pdfrwt beam="2">  1       21 0.10423429E+00 0.31084302E+03</pdfrwt>
<pdfrwt beam="1">  1       -1 0.19933774E+00 0.31084302E+03</pdfrwt>
<totfact> 0.10921675E+01</totfact>
</mgrwt>
</event>
<event>
 4    1  0.5142205E+003  0.1058336E+03  0.7546771E-02  0.1268486E+00
          2   -1    0    0  502    0 -0.00000000000E+00  0.00000000000E+00  0.86346059306E+03  0.86346059306E+03  0.00000000000E+00 0. -1.
         21   -1    0    0  503  502  0.00000000000E+00 -0.00000000000E+00 -0.13629426563E+03  0.13629426563E+03  0.00000000000E+00 0.  1.
         21    1    1    2  503  501  0.44463852638E+02  0.96040220431E+02 -0.11191143786E+03  0.15402898447E+03  0.00000000000E+00 0.  1.
          2    1    1    2  501    0 -0.44463852638E+02 -0.96040220431E+02  0.83907776528E+03  0.84572587422E+03  0.00000000000E+00 0. -1.
<mgrwt>
<rscale>  2 0.10583363E+03</rscale>
<asrwt>0</asrwt>
<pdfrwt beam="2">  1       21 0.20968349E-01 0.10583363E+03</pdfrwt>
<pdfrwt beam="1">  1        2 0.13284009E+00 0.10583363E+03</pdfrwt>
<totfact> 0.88598053E+03</totfact>
</mgrwt>
</event>
<event>
 4    1  0.5142205E+003  0.1371429E+03  0.7546771E-02  0.1217226E+00
         21   -1    0    0  501  502  0.00000000000E+00  0.00000000000E+00  0.41423660602E+03  0.41423660602E+03  0.00000000000E+00 0. -1.
          2   -1    0    0  503    0 -0.00000000000E+00 -0.00000000000E+00 -0.15041510873E+04  0.15041510873E+04  0.00000000000E+00 0.  1.
         21    1    1    2  503  502 -0.12249938901E+03 -0.61660948103E+02  0.39964852373E+03  0.42252469200E+03  0.00000000000E+00 0. -1.
          2    1    1    2  501    0  0.12249938901E+03  0.61660948103E+02 -0.14895630051E+04  0.14958630014E+04  0.00000000000E+00 0.  1.
<mgrwt>
<rscale>  2 0.13714289E+03</rscale>
<asrwt>0</asrwt>
<pdfrwt beam="1">  1       21 0.63728707E-01 0.13714289E+03</pdfrwt>
<pdfrwt beam="2">  1        2 0.23140787E+00 0.13714289E+03</pdfrwt>
<totfact> 0.41765222E+02</totfact>
</mgrwt>
</event>
<event>
 4    1  0.5142205E+003  0.1113916E+03  0.7546771E-02  0.1258014E+00
         21   -1    0    0  501  502  0.00000000000E+00  0.00000000000E+00  0.17910838420E+02  0.17910838420E+02  0.00000000000E+00 0. -1.
          2   -1    0    0  503    0 -0.00000000000E+00 -0.00000000000E+00 -0.23376474316E+04  0.23376474316E+04  0.00000000000E+00 0. -1.
         21    1    1    2  503  502 -0.10560101291E+03 -0.35447197628E+02 -0.17190406061E+03  0.20483916569E+03  0.00000000000E+00 0. -1.
          2    1    1    2  501    0  0.10560101291E+03  0.35447197628E+02 -0.21478325325E+04  0.21507191043E+04  0.00000000000E+00 0. -1.
<mgrwt>
<rscale>  2 0.11139155E+03</rscale>
<asrwt>0</asrwt>
<pdfrwt beam="1">  1       21 0.27555131E-02 0.11139155E+03</pdfrwt>
<pdfrwt beam="2">  1        2 0.35963813E+00 0.11139155E+03</pdfrwt>
<totfact> 0.47820587E+04</totfact>
</mgrwt>
</event>
<event>
 4    1  0.5142205E+003  0.1459161E+03  0.7546771E-02  0.1205583E+00
          3   -1    0    0  502    0 -0.00000000000E+00  0.00000000000E+00  0.42883041552E+03  0.42883041552E+03  0.00000000000E+00 0.  1.
         21   -1    0    0  503  502  0.00000000000E+00 -0.00000000000E+00 -0.69341422898E+02  0.69341422898E+02  0.00000000000E+00 0.  1.
         21    1    1    2  503  501 -0.11650903715E+03  0.87847246377E+02  0.47008198914E+02  0.15330122374E+03  0.00000000000E+00 0.  1.
          3    1    1    2  501    0  0.11650903715E+03 -0.87847246377E+02  0.31248079371E+03  0.34487061468E+03  0.00000000000E+00 0.  1.
<mgrwt>
<rscale>  2 0.14591605E+03</rscale>
<asrwt>0</asrwt>
<pdfrwt beam="2">  1       21 0.10667911E-01 0.14591605E+03</pdfrwt>
<pdfrwt beam="1">  1        3 0.65973909E-01 0.14591605E+03</pdfrwt>
<totfact> 0.79739137E+03</totfact>
</mgrwt>
</event>
<event>
 4    1  0.5142205E+003  0.1776461E+03  0.7546771E-02  0.1170101E+00
         21   -1    0    0  501  502  0.00000000000E+00  0.00000000000E+00  0.20600777436E+03  0.20600777436E+03  0.00000000000E+00 0. -1.
          2   -1    0    0  503    0 -0.00000000000E+00 -0.00000000000E+00 -0.22732395736E+03  0.22732395736E+03  0.00000000000E+00 0.  1.
         21    1    1    2  503  502 -0.16002633292E+03  0.77134434755E+02  0.11307306793E+03  0.21057936020E+03  0.00000000000E+00 0. -1.
          2    1    1    2  501    0  0.16002633292E+03 -0.77134434755E+02 -0.13438925093E+03  0.22275237152E+03  0.00000000000E+00 0.  1.
<mgrwt>
<rscale>  2 0.17764613E+03</rscale>
<asrwt>0</asrwt>
<pdfrwt beam="1">  1       21 0.31693504E-01 0.17764613E+03</pdfrwt>
<pdfrwt beam="2">  1        2 0.34972917E-01 0.17764613E+03</pdfrwt>
<totfact> 0.17524862E+04</totfact>
</mgrwt>
</event>
<event>
 4    1  0.5142205E+003  0.1493346E+03  0.7546771E-02  0.1201293E+00
         -2   -1    0    0    0  501 -0.00000000000E+00  0.00000000000E+00  0.15243092236E+03  0.15243092236E+03  0.00000000000E+00 0. -1.
         21   -1    0    0  503  502  0.00000000000E+00 -0.00000000000E+00 -0.20023525908E+03  0.20023525908E+03  0.00000000000E+00 0. -1.
         21    1    1    2  503  501  0.12871621760E+03 -0.75716392960E+02 -0.11541770538E+03  0.18873813486E+03  0.00000000000E+00 0. -1.
         -2    1    1    2    0  502 -0.12871621760E+03  0.75716392960E+02  0.67613368660E+02  0.16392804658E+03  0.00000000000E+00 0. -1.
<mgrwt>
<rscale>  2 0.14933465E+03</rscale>
<asrwt>0</asrwt>
<pdfrwt beam="2">  1       21 0.30805424E-01 0.14933465E+03</pdfrwt>
<pdfrwt beam="1">  1       -2 0.23450911E-01 0.14933465E+03</pdfrwt>
<totfact> 0.12882523E+04</totfact>
</mgrwt>
</event>
<event>
 4    1  0.5142205E+003  0.1535467E+03  0.7546771E-02  0.1196181E+00
          1   -1    0    0  502    0 -0.00000000000E+00  0.00000000000E+00  0.11845034504E+04  0.11845034504E+04  0.00000000000E+00 0. -1.
         21   -1    0    0  503  502  0.00000000000E+00 -0.00000000000E+00 -0.27962475816E+02  0.27962475816E+02  0.00000000000E+00 0.  1.
         21    1    1    2  503  501  0.93348757674E+02 -0.12191219673E+03  0.25282875765E+03  0.29580222272E+03  0.00000000000E+00 0.  1.
          1    1    1    2  501    0 -0.93348757674E+02  0.12191219673E+03  0.90371221691E+03  0.91666370348E+03  0.00000000000E+00 0. -1.
<mgrwt>
<rscale>  2 0.15354665E+03</rscale>
<asrwt>0</asrwt>
<pdfrwt beam="2">  1       21 0.43019203E-02 0.15354665E+03</pdfrwt>
<pdfrwt beam="1">  1        1 0.18223126E+00 0.15354665E+03</pdfrwt>
<totfact> 0.46175828E+04</totfact>
</mgrwt>
</event>
<event>
 4    1  0.5142205E+003  0.1055284E+03  0.7546771E-02  0.1269082E+00
         -3   -1    0    0    0  501 -0.00000000000E+00  0.00000000000E+00  0.30443337818E+03  0.30443337818E+03  0.00000000000E+00 0.  1.
         21   -1    0    0  503  502  0.00000000000E+00 -0.00000000000E+00 -0.11040482161E+03  0.11040482161E+03  0.00000000000E+00 0. -1.
         21    1    1    2  503  501  0.66492087873E+02  0.81945361633E+02 -0.72597215957E+02  0.12808823446E+03  0.00000000000E+00 0. -1.
         -3    1    1    2    0  502 -0.66492087873E+02 -0.81945361633E+02  0.26662577253E+03  0.28674996533E+03  0.00000000000E+00 0.  1.
<mgrwt>
<rscale>  2 0.10552839E+03</rscale>
<asrwt>0</asrwt>
<pdfrwt beam="2">  1       21 0.16985357E-01 0.10552839E+03</pdfrwt>
<pdfrwt beam="1">  1       -3 0.46835904E-01 0.10552839E+03</pdfrwt>
<totfact> 0.68329241E+03</totfact>
</mgrwt>
</event>
<event>
 4    1  0.5142205E+003  0.1185316E+03  0.7546771E-02  0.1245539E+00
         21   -1    0    0  501  502  0.00000000000E+00  0.00000000000E+00  0.22161447959E+02  0.22161447959E+02  0.00000000000E+00 0. -1.
          2   -1    0    0  503    0 -0.00000000000E+00 -0.00000000000E+00 -0.23244203294E+04  0.23244203294E+04  0.00000000000E+00 0. -1.
         21    1    1    2  503  502  0.23867385562E+02  0.11610379220E+03 -0.15055527403E+03  0.19161584798E+03  0.00000000000E+00 0. -1.
          2    1    1    2  501    0 -0.23867385562E+02 -0.11610379220E+03 -0.21517036074E+04  0.21549659294E+04  0.00000000000E+00 0. -1.
<mgrwt>
<rscale>  2 0.11853161E+03</rscale>
<asrwt>0</asrwt>
<pdfrwt beam="1">  1       21 0.34094509E-02 0.11853161E+03</pdfrwt>
<pdfrwt beam="2">  1        2 0.35760340E+00 0.11853161E+03</pdfrwt>
<totfact> 0.34194177E+04</totfact>
</mgrwt>
</event>
<event>
 4    1  0.5142205E+003  0.1092138E+03  0.7546771E-02  0.1262033E+00
         -2   -1    0    0    0  501 -0.00000000000E+00  0.00000000000E+00  0.37926999846E+03  0.37926999846E+03  0.00000000000E+00 0. -1.
         21   -1    0    0  503  502  0.00000000000E+00 -0.00000000000E+00 -0.73777440779E+02  0.73777440779E+02  0.00000000000E+00 0. -1.
         21    1    1    2  503  501  0.52421703587E+01  0.10908790383E+03 -0.18834318900E+02  0.11082591159E+03  0.00000000000E+00 0. -1.
         -2    1    1    2    0  502 -0.52421703587E+01 -0.10908790383E+03  0.32432687658E+03  0.34222152765E+03  0.00000000000E+00 0. -1.
<mgrwt>
<rscale>  2 0.10921379E+03</rscale>
<asrwt>0</asrwt>
<pdfrwt beam="2">  1       21 0.11350376E-01 0.10921379E+03</pdfrwt>
<pdfrwt beam="1">  1       -2 0.58349229E-01 0.10921379E+03</pdfrwt>
<totfact> 0.14679391E+04</totfact>
</mgrwt>
</event>
<event>
 4    1  0.5142205E+003  0.1087917E+03  0.7546771E-02  0.1262824E+00
         -2   -1    0    0    0  501 -0.00000000000E+00  0.00000000000E+00  0.17315476068E+03  0.17315476068E+03  0.00000000000E+00 0.  1.
         21   -1    0    0  501  502  0.00000000000E+00 -0.00000000000E+00 -0.15779196316E+03  0.15779196316E+03  0.00000000000E+00 0.  1.
         21    1    1    2  503  502 -0.81279486136E+02  0.72313829259E+02 -0.11689881309E+03  0.15969025415E+03  0.00000000000E+00 0.  1.
         -2    1    1    2    0  503  0.81279486136E+02 -0.72313829259E+02  0.13226161061E+03  0.17125646969E+03  0.00000000000E+00 0.  1.
<mgrwt>
<rscale>  2 0.10879175E+03</rscale>
<asrwt>0</asrwt>
<pdfrwt beam="2">  1       21 0.24275687E-01 0.10879175E+03</pdfrwt>
<pdfrwt beam="1">  1       -2 0.26639194E-01 0.10879175E+03</pdfrwt>
<totfact> 0.16217193E+04</totfact>
</mgrwt>
</event>
<event>
 4    1  0.5142205E+003  0.1003984E+03  0.7546771E-02  0.1279460E+00
          1   -1    0    0  503    0 -0.00000000000E+00  0.00000000000E+00  0.16353631868E+03  0.16353631868E+03  0.00000000000E+00 0. -1.
         21   -1    0    0  501  502  0.00000000000E+00 -0.00000000000E+00 -0.11749738827E+03  0.11749738827E+03  0.00000000000E+00 0.  1.
         21    1    1    2  503  502  0.85868769510E+02  0.52022990731E+02 -0.73867978014E+02  0.12464475648E+03  0.00000000000E+00 0.  1.
          1    1    1    2  501    0 -0.85868769510E+02 -0.52022990731E+02  0.11990690842E+03  0.15638895047E+03  0.00000000000E+00 0. -1.
<mgrwt>
<rscale>  2 0.10039839E+03</rscale>
<asrwt>0</asrwt>
<pdfrwt beam="2">  1       21 0.18076521E-01 0.10039839E+03</pdfrwt>
<pdfrwt beam="1">  1        1 0.25159434E-01 0.10039839E+03</pdfrwt>
<totfact> 0.56371543E+04</totfact>
</mgrwt>
</event>
<event>
 4    1  0.5142205E+003  0.1039988E+03  0.7546771E-02  0.1272105E+00
          1   -1    0    0  503    0 -0.00000000000E+00  0.00000000000E+00  0.92518295583E+03  0.92518295583E+03  0.00000000000E+00 0.  1.
         21   -1    0    0  501  502  0.00000000000E+00 -0.00000000000E+00 -0.29261854742E+02  0.29261854742E+02  0.00000000000E+00 0.  1.
         21    1    1    2  503  502  0.96949138548E+02 -0.37637959659E+02  0.78154631910E+02  0.13009188277E+03  0.00000000000E+00 0.  1.
          1    1    1    2  501    0 -0.96949138548E+02  0.37637959659E+02  0.81776646918E+03  0.82435292781E+03  0.00000000000E+00 0.  1.
<mgrwt>
<rscale>  2 0.10399881E+03</rscale>
<asrwt>0</asrwt>
<pdfrwt beam="2">  1       21 0.45018245E-02 0.10399881E+03</pdfrwt>
<pdfrwt beam="1">  1        1 0.14233582E+00 0.10399881E+03</pdfrwt>
<totfact> 0.65690467E+04</totfact>
</mgrwt>
</event>
<event>
 4    1  0.5142205E+003  0.1377796E+03  0.7546771E-02  0.1216348E+00
          1   -1    0    0  502    0 -0.00000000000E+00  0.00000000000E+00  0.85868127281E+02  0.85868127281E+02  0.00000000000E+00 0. -1.
         21   -1    0    0  503  502  0.00000000000E+00 -0.00000000000E+00 -0.26638239103E+03  0.26638239103E+03  0.00000000000E+00 0. -1.
         21    1    1    2  503  501 -0.13522057613E+03  0.26431368639E+02 -0.16289408020E+03  0.21334878209E+03  0.00000000000E+00 0. -1.
          1    1    1    2  501    0  0.13522057613E+03 -0.26431368639E+02 -0.17620183547E+02  0.13890173622E+03  0.00000000000E+00 0. -1.
<mgrwt>
<rscale>  2 0.13777961E+03</rscale>
<asrwt>0</asrwt>
<pdfrwt beam="2">  1       21 0.40981906E-01 0.13777961E+03</pdfrwt>
<pdfrwt beam="1">  1        1 0.13210481E-01 0.13777961E+03</pdfrwt>
<totfact> 0.27037665E+04</totfact>
</mgrwt>
</event>
<event>
 4    1  0.5142205E+003  0.1308171E+03  0.7546771E-02  0.1226248E+00
          1   -1    0    0  503    0 -0.00000000000E+00  0.00000000000E+00  0.68771087200E+03  0.68771087200E+03  0.00000000000E+00 0. -1.
         21   -1    0    0  501  502  0.00000000000E+00 -0.00000000000E+00 -0.24964675766E+02  0.24964675766E+02  0.00000000000E+00 0. -1.
         21    1    1    2  503  502  0.76825201301E+01  0.13059131083E+03  0.35160901404E+03  0.37515598133E+03  0.00000000000E+00 0. -1.
          1    1    1    2  501    0 -0.76825201301E+01 -0.13059131083E+03  0.31113718220E+03  0.33751956643E+03  0.00000000000E+00 0. -1.
<mgrwt>
<rscale>  2 0.13081709E+03</rscale>
<asrwt>0</asrwt>
<pdfrwt beam="2">  1       21 0.38407199E-02 0.13081709E+03</pdfrwt>
<pdfrwt beam="1">  1        1 0.10580166E+00 0.13081709E+03</pdfrwt>
<totfact> 0.13402691E+05</totfact>
</mgrwt>
</event>
<event>
 4    1  0.5142205E+003  0.1843997E+03  0.7546771E-02  0.1163612E+00
         21   -1    0    0  501  502  0.00000000000E+00  0.00000000000E+00  0.13865385205E+03  0.13865385205E+03  0.00000000000E+00 0.  1.
          1   -1    0    0  503    0 -0.00000000000E+00 -0.00000000000E+00 -0.35465930405E+03  0.35465930405E+03  0.00000000000E+00 0.  1.
         21    1    1    2  503  502  0.18103746875E+03  0.35052618641E+02  0.29002501823E+02  0.18666653765E+03  0.00000000000E+00 0.  1.
          1    1    1    2  501    0 -0.18103746875E+03 -0.35052618641E+02 -0.24500795383E+03  0.30664661845E+03  0.00000000000E+00 0.  1.
<mgrwt>
<rscale>  2 0.18439970E+03</rscale>
<asrwt>0</asrwt>
<pdfrwt beam="1">  1       21 0.21331362E-01 0.18439970E+03</pdfrwt>
<pdfrwt beam="2">  1        1 0.54562970E-01 0.18439970E+03</pdfrwt>
<totfact> 0.15898060E+04</totfact>
</mgrwt>
</event>
<event>
 4    1  0.5142205E+003  0.1177220E+03  0.7546771E-02  0.1246903E+00
          2   -1    0    0  503    0 -0.00000000000E+00  0.00000000000E+00  0.15266186601E+03  0.15266186601E+03  0.00000000000E+00 0.  1.
         21   -1    0    0  501  502  0.00000000000E+00 -0.00000000000E+00 -0.12133262945E+03  0.12133262945E+03  0.00000000000E+00 0.  1.
         21    1    1    2  503  502 -0.39207263643E+02 -0.11100119901E+03 -0.53082607630E+02  0.12913651279E+03  0.00000000000E+00 0.  1.
          2    1    1    2  501    0  0.39207263643E+02  0.11100119901E+03  0.84411844190E+02  0.14485798267E+03  0.00000000000E+00 0.  1.
<mgrwt>
<rscale>  2 0.11772203E+03</rscale>
<asrwt>0</asrwt>
<pdfrwt beam="2">  1       21 0.18666558E-01 0.11772203E+03</pdfrwt>
<pdfrwt beam="1">  1        2 0.23486441E-01 0.11772203E+03</pdfrwt>
<totfact> 0.73529551E+04</totfact>
</mgrwt>
</event>
<event>
 4    1  0.5142205E+003  0.1951561E+03  0.7546771E-02  0.1153891E+00
          3   -1    0    0  503    0 -0.00000000000E+00  0.00000000000E+00  0.15819610276E+03  0.15819610276E+03  0.00000000000E+00 0.  1.
         21   -1    0    0  501  502  0.00000000000E+00 -0.00000000000E+00 -0.55753206628E+03  0.55753206628E+03  0.00000000000E+00 0. -1.
         21    1    1    2  503  502 -0.16380723980E+03 -0.10608062007E+03 -0.46941870931E+03  0.50836978117E+03  0.00000000000E+00 0. -1.
          3    1    1    2  501    0  0.16380723980E+03  0.10608062007E+03  0.70082745786E+02  0.20735838787E+03  0.00000000000E+00 0.  1.
<mgrwt>
<rscale>  2 0.19515612E+03</rscale>
<asrwt>0</asrwt>
<pdfrwt beam="2">  1       21 0.85774164E-01 0.19515612E+03</pdfrwt>
<pdfrwt beam="1">  1        3 0.24337862E-01 0.19515612E+03</pdfrwt>
<totfact> 0.91234016E+02</totfact>
</mgrwt>
</event>
<event>
 4    1  0.5142205E+003  0.1582971E+03  0.7546771E-02  0.1190633E+00
         21   -1    0    0  501  502  0.00000000000E+00  0.00000000000E+00  0.14099095600E+03  0.14099095600E+03  0.00000000000E+00 0. -1.
          1   -1    0    0  503    0 -0.00000000000E+00 -0.00000000000E+00 -0.14418169406E+04  0.14418169406E+04  0.00000000000E+00 0.  1.
         21    1    1    2  503  502 -0.15408173998E+03  0.36287567684E+02  0.90610629583E+02  0.18239587813E+03  0.00000000000E+00 0. -1.
          1    1    1    2  501    0  0.15408173998E+03 -0.36287567684E+02 -0.13914366142E+04  0.14004120185E+04  0.00000000000E+00 0.  1.
<mgrwt>
<rscale>  2 0.15829709E+03</rscale>
<asrwt>0</asrwt>
<pdfrwt beam="1">  1       21 0.21690917E-01 0.15829709E+03</pdfrwt>
<pdfrwt beam="2">  1        1 0.22181799E+00 0.15829709E+03</pdfrwt>
<totfact> 0.17963754E+03</totfact>
</mgrwt>
</event>
<event>
 4    1  0.5142205E+003  0.1045089E+03  0.7546771E-02  0.1271090E+00
         21   -1    0    0  501  502  0.00000000000E+00  0.00000000000E+00  0.10735388236E+02  0.10735388236E+02  0.00000000000E+00 0.  1.
          2   -1    0    0  503    0 -0.00000000000E+00 -0.00000000000E+00 -0.10187199142E+04  0.10187199142E+04  0.00000000000E+00 0.  1.
         21    1    1    2  503  502 -0.18050147688E+02 -0.10293830482E+03 -0.48541125589E+03  0.49653417785E+03  0.00000000000E+00 0.  1.
          2    1    1    2  501    0  0.18050147688E+02  0.10293830482E+03 -0.52257327003E+03  0.53292112454E+03  0.00000000000E+00 0.  1.
<mgrwt>
<rscale>  2 0.10450886E+03</rscale>
<asrwt>0</asrwt>
<pdfrwt beam="1">  1       21 0.16515976E-02 0.10450886E+03</pdfrwt>
<pdfrwt beam="2">  1        2 0.15672620E+00 0.10450886E+03</pdfrwt>
<totfact> 0.53118834E+05</totfact>
</mgrwt>
</event>
<event>
 4    1  0.5142205E+003  0.2394377E+03  0.7546771E-02  0.1120168E+00
         21   -1    0    0  503  502  0.00000000000E+00  0.00000000000E+00  0.72950278365E+02  0.72950278365E+02  0.00000000000E+00 0.  1.
         -1   -1    0    0    0  501 -0.00000000000E+00 -0.00000000000E+00 -0.79839112640E+03  0.79839112640E+03  0.00000000000E+00 0.  1.
         21    1    1    2  503  501 -0.34118010367E+02 -0.23699448278E+03 -0.30819021741E+03  0.39027123083E+03  0.00000000000E+00 0.  1.
         -1    1    1    2    0  502  0.34118010367E+02  0.23699448278E+03 -0.41725063062E+03  0.48107017394E+03  0.00000000000E+00 0.  1.
<mgrwt>
<rscale>  2 0.23943772E+03</rscale>
<asrwt>0</asrwt>
<pdfrwt beam="1">  1       21 0.11223121E-01 0.23943772E+03</pdfrwt>
<pdfrwt beam="2">  1       -1 0.12282940E+00 0.23943772E+03</pdfrwt>
<totfact> 0.38571566E+03</totfact>
</mgrwt>
</event>
<event>
 4    1  0.5142205E+003  0.1338257E+03  0.7546771E-02  0.1221887E+00
         21   -1    0    0  503  502  0.00000000000E+00  0.00000000000E+00  0.14398505296E+03  0.14398505296E+03  0.00000000000E+00 0. -1.
          2   -1    0    0  502    0 -0.00000000000E+00 -0.00000000000E+00 -0.13552753539E+03  0.13552753539E+03  0.00000000000E+00 0.  1.
         21    1    1    2  503  501  0.18319716259E+00  0.13382559738E+03  0.44304758361E+02  0.14096891745E+03  0.00000000000E+00 0. -1.
          2    1    1    2  501    0 -0.18319716259E+00 -0.13382559738E+03 -0.35847240788E+02  0.13854367090E+03  0.00000000000E+00 0.  1.
<mgrwt>
<rscale>  2 0.13382572E+03</rscale>
<asrwt>0</asrwt>
<pdfrwt beam="1">  1       21 0.22151547E-01 0.13382572E+03</pdfrwt>
<pdfrwt beam="2">  1        2 0.20850390E-01 0.13382572E+03</pdfrwt>
<totfact> 0.61377619E+04</totfact>
</mgrwt>
</event>
<event>
 4    1  0.5142205E+003  0.1414791E+03  0.7546771E-02  0.1211352E+00
         21   -1    0    0  501  502  0.00000000000E+00  0.00000000000E+00  0.13327607029E+03  0.13327607029E+03  0.00000000000E+00 0. -1.
          2   -1    0    0  503    0 -0.00000000000E+00 -0.00000000000E+00 -0.75243727384E+03  0.75243727384E+03  0.00000000000E+00 0.  1.
         21    1    1    2  503  502  0.13769117851E+03  0.32518943890E+02  0.86621267067E+02  0.16589028380E+03  0.00000000000E+00 0. -1.
          2    1    1    2  501    0 -0.13769117851E+03 -0.32518943890E+02 -0.70578247062E+03  0.71982306033E+03  0.00000000000E+00 0.  1.
<mgrwt>
<rscale>  2 0.14147912E+03</rscale>
<asrwt>0</asrwt>
<pdfrwt beam="1">  1       21 0.20504011E-01 0.14147912E+03</pdfrwt>
<pdfrwt beam="2">  1        2 0.11575958E+00 0.14147912E+03</pdfrwt>
<totfact> 0.10822577E+04</totfact>
</mgrwt>
</event>
<event>
 4    1  0.5142205E+003  0.1658722E+03  0.7546771E-02  0.1182222E+00
          1   -1    0    0  502    0 -0.00000000000E+00  0.00000000000E+00  0.72214085625E+02  0.72214085625E+02  0.00000000000E+00 0.  1.
         21   -1    0    0  503  502  0.00000000000E+00 -0.00000000000E+00 -0.86852756379E+03  0.86852756379E+03  0.00000000000E+00 0.  1.
         21    1    1    2  503  501  0.13697599804E+03 -0.93547618146E+02 -0.75056661675E+03  0.76867667265E+03  0.00000000000E+00 0.  1.
          1    1    1    2  501    0 -0.13697599804E+03  0.93547618146E+02 -0.45746861414E+02  0.17206497676E+03  0.00000000000E+00 0.  1.
<mgrwt>
<rscale>  2 0.16587218E+03</rscale>
<asrwt>0</asrwt>
<pdfrwt beam="2">  1       21 0.13361962E+00 0.16587218E+03</pdfrwt>
<pdfrwt beam="1">  1        1 0.11109859E-01 0.16587218E+03</pdfrwt>
<totfact> 0.24172402E+03</totfact>
</mgrwt>
</event>
<event>
 4    1  0.5142205E+003  0.1381097E+03  0.7546771E-02  0.1215895E+00
          2   -1    0    0  502    0 -0.00000000000E+00  0.00000000000E+00  0.20194277396E+03  0.20194277396E+03  0.00000000000E+00 0. -1.
         21   -1    0    0  503  502  0.00000000000E+00 -0.00000000000E+00 -0.85058783652E+03  0.85058783652E+03  0.00000000000E+00 0. -1.
         21    1    1    2  503  501  0.20820465177E+02 -0.13653130918E+03 -0.82050853530E+03  0.83205080774E+03  0.00000000000E+00 0. -1.
          2    1    1    2  501    0 -0.20820465177E+02  0.13653130918E+03  0.17186347273E+03  0.22047980274E+03  0.00000000000E+00 0. -1.
<mgrwt>
<rscale>  2 0.13810970E+03</rscale>
<asrwt>0</asrwt>
<pdfrwt beam="2">  1       21 0.13085966E+00 0.13810970E+03</pdfrwt>
<pdfrwt beam="1">  1        2 0.31068120E-01 0.13810970E+03</pdfrwt>
<totfact> 0.91481821E+02</totfact>
</mgrwt>
</event>
<event>
 4    1  0.5142205E+003  0.1227528E+03  0.7546771E-02  0.1238624E+00
         21   -1    0    0  503  502  0.00000000000E+00  0.00000000000E+00  0.21648519987E+03  0.21648519987E+03  0.00000000000E+00 0. -1.
          4   -1    0    0  502    0 -0.00000000000E+00 -0.00000000000E+00 -0.97641094958E+02  0.97641094958E+02  0.00000000000E+00 0.  1.
         21    1    1    2  503  501  0.81036215464E+02  0.92202956927E+02  0.14358556476E+03  0.18890491759E+03  0.00000000000E+00 0. -1.
          4    1    1    2  501    0 -0.81036215464E+02 -0.92202956927E+02 -0.24741459844E+02  0.12522137724E+03  0.00000000000E+00 0.  1.
<mgrwt>
<rscale>  2 0.12275281E+03</rscale>
<asrwt>0</asrwt>
<pdfrwt beam="1">  1       21 0.33305415E-01 0.12275281E+03</pdfrwt>
<pdfrwt beam="2">  1        4 0.15021707E-01 0.12275281E+03</pdfrwt>
<totfact> 0.13267243E+04</totfact>
</mgrwt>
</event>
<event>
 4    1  0.5142205E+003  0.1121495E+03  0.7546771E-02  0.1256640E+00
         -1   -1    0    0    0  501 -0.00000000000E+00  0.00000000000E+00  0.86685336406E+03  0.86685336406E+03  0.00000000000E+00 0. -1.
         21   -1    0    0  501  502  0.00000000000E+00 -0.00000000000E+00 -0.15677356187E+03  0.15677356187E+03  0.00000000000E+00 0. -1.
         21    1    1    2  503  502  0.47226595432E+02 -0.10172102815E+03 -0.13251446894E+03  0.17360185299E+03  0.00000000000E+00 0. -1.
         -1    1    1    2    0  503 -0.47226595432E+02  0.10172102815E+03  0.84259427113E+03  0.85002507294E+03  0.00000000000E+00 0. -1.
<mgrwt>
<rscale>  2 0.11214954E+03</rscale>
<asrwt>0</asrwt>
<pdfrwt beam="2">  1       21 0.24119010E-01 0.11214954E+03</pdfrwt>
<pdfrwt beam="1">  1       -1 0.13336205E+00 0.11214954E+03</pdfrwt>
<totfact> 0.81453943E+02</totfact>
</mgrwt>
</event>
<event>
 4    1  0.5142205E+003  0.1287999E+03  0.7546771E-02  0.1229247E+00
          2   -1    0    0  503    0 -0.00000000000E+00  0.00000000000E+00  0.18155285396E+03  0.18155285396E+03  0.00000000000E+00 0. -1.
         21   -1    0    0  501  502  0.00000000000E+00 -0.00000000000E+00 -0.25501170651E+03  0.25501170651E+03  0.00000000000E+00 0. -1.
         21    1    1    2  503  502  0.48844967461E+02  0.11917875964E+03 -0.21158467542E+03  0.24770442561E+03  0.00000000000E+00 0. -1.
          2    1    1    2  501    0 -0.48844967461E+02 -0.11917875964E+03  0.13812582288E+03  0.18886013486E+03  0.00000000000E+00 0. -1.
<mgrwt>
<rscale>  2 0.12879987E+03</rscale>
<asrwt>0</asrwt>
<pdfrwt beam="2">  1       21 0.39232570E-01 0.12879987E+03</pdfrwt>
<pdfrwt beam="1">  1        2 0.27931208E-01 0.12879987E+03</pdfrwt>
<totfact> 0.14758008E+04</totfact>
</mgrwt>
</event>
<event>
 4    1  0.5142205E+003  0.1236967E+03  0.7546771E-02  0.1237120E+00
         21   -1    0    0  503  502  0.00000000000E+00  0.00000000000E+00  0.75723700023E+02  0.75723700023E+02  0.00000000000E+00 0.  1.
         -1   -1    0    0    0  501 -0.00000000000E+00 -0.00000000000E+00 -0.46837186887E+03  0.46837186887E+03  0.00000000000E+00 0.  1.
         21    1    1    2  503  501  0.10601376749E+03 -0.63733517046E+02  0.88126538480E+01  0.12401025345E+03  0.00000000000E+00 0.  1.
         -1    1    1    2    0  502 -0.10601376749E+03  0.63733517046E+02 -0.40146082269E+03  0.42008531544E+03  0.00000000000E+00 0.  1.
<mgrwt>
<rscale>  2 0.12369673E+03</rscale>
<asrwt>0</asrwt>
<pdfrwt beam="1">  1       21 0.11649800E-01 0.12369673E+03</pdfrwt>
<pdfrwt beam="2">  1       -1 0.72057212E-01 0.12369673E+03</pdfrwt>
<totfact> 0.11710042E+04</totfact>
</mgrwt>
</event>
<event>
 4    1  0.5142205E+003  0.1114398E+03  0.7546771E-02  0.1257927E+00
         21   -1    0    0  501  502  0.00000000000E+00  0.00000000000E+00  0.36402628743E+03  0.36402628743E+03  0.00000000000E+00 0. -1.
         -1   -1    0    0    0  501 -0.00000000000E+00 -0.00000000000E+00 -0.11395573626E+03  0.11395573626E+03  0.00000000000E+00 0.  1.
         21    1    1    2  503  502  0.15487238296E+02 -0.11035842192E+03  0.32507909980E+03  0.34364990465E+03  0.00000000000E+00 0. -1.
         -1    1    1    2    0  503 -0.15487238296E+02  0.11035842192E+03 -0.75008548625E+02  0.13433211904E+03  0.00000000000E+00 0.  1.
<mgrwt>
<rscale>  2 0.11143983E+03</rscale>
<asrwt>0</asrwt>
<pdfrwt beam="1">  1       21 0.56004044E-01 0.11143983E+03</pdfrwt>
<pdfrwt beam="2">  1       -1 0.17531652E-01 0.11143983E+03</pdfrwt>
<totfact> 0.68729296E+03</totfact>
</mgrwt>
</event>
<event>
 4    1  0.5142205E+003  0.1131337E+03  0.7546771E-02  0.1254874E+00
         21   -1    0    0  501  502  0.00000000000E+00  0.00000000000E+00  0.10464227248E+03  0.10464227248E+03  0.00000000000E+00 0.  1.
          1   -1    0    0  503    0 -0.00000000000E+00 -0.00000000000E+00 -0.18867687353E+03  0.18867687353E+03  0.00000000000E+00 0.  1.
         21    1    1    2  503  502  0.11103977732E+03  0.21665565479E+02  0.44961464209E+02  0.12174055256E+03  0.00000000000E+00 0.  1.
          1    1    1    2  501    0 -0.11103977732E+03 -0.21665565479E+02 -0.12899606527E+03  0.17157859345E+03  0.00000000000E+00 0.  1.
<mgrwt>
<rscale>  2 0.11313368E+03</rscale>
<asrwt>0</asrwt>
<pdfrwt beam="1">  1       21 0.16098811E-01 0.11313368E+03</pdfrwt>
<pdfrwt beam="2">  1        1 0.29027211E-01 0.11313368E+03</pdfrwt>
<totfact> 0.58436566E+04</totfact>
</mgrwt>
</event>
<event>
 4    1  0.5142205E+003  0.1395189E+03  0.7546771E-02  0.1213978E+00
          2   -1    0    0  503    0 -0.00000000000E+00  0.00000000000E+00  0.80930464481E+02  0.80930464481E+02  0.00000000000E+00 0.  1.
         21   -1    0    0  501  502  0.00000000000E+00 -0.00000000000E+00 -0.36708924256E+03  0.36708924256E+03  0.00000000000E+00 0. -1.
         21    1    1    2  503  502  0.10503479007E+02 -0.13912299861E+03 -0.27461474066E+03  0.30802400491E+03  0.00000000000E+00 0. -1.
          2    1    1    2  501    0 -0.10503479007E+02  0.13912299861E+03 -0.11544037417E+02  0.13999570213E+03  0.00000000000E+00 0.  1.
<mgrwt>
<rscale>  2 0.13951893E+03</rscale>
<asrwt>0</asrwt>
<pdfrwt beam="2">  1       21 0.56475267E-01 0.13951893E+03</pdfrwt>
<pdfrwt beam="1">  1        2 0.12450841E-01 0.13951893E+03</pdfrwt>
<totfact> 0.17574692E+04</totfact>
</mgrwt>
</event>
<event>
 4    1  0.5142205E+003  0.2164240E+03  0.7546771E-02  0.1136578E+00
         21   -1    0    0  501  502  0.00000000000E+00  0.00000000000E+00  0.70374778488E+03  0.70374778488E+03  0.00000000000E+00 0.  1.
          1   -1    0    0  503    0 -0.00000000000E+00 -0.00000000000E+00 -0.16192672956E+03  0.16192672956E+03  0.00000000000E+00 0.  1.
         21    1    1    2  503  502 -0.19223791108E+03 -0.99418005997E+02  0.60308832228E+03  0.64074556483E+03  0.00000000000E+00 0.  1.
          1    1    1    2  501    0  0.19223791108E+03  0.99418005997E+02 -0.61267266963E+02  0.22492894962E+03  0.00000000000E+00 0.  1.
<mgrwt>
<rscale>  2 0.21642402E+03</rscale>
<asrwt>0</asrwt>
<pdfrwt beam="1">  1       21 0.10826889E+00 0.21642402E+03</pdfrwt>
<pdfrwt beam="2">  1        1 0.24911805E-01 0.21642402E+03</pdfrwt>
<totfact> 0.13938272E+03</totfact>
</mgrwt>
</event>
<event>
 4    1  0.5142205E+003  0.1277092E+03  0.7546771E-02  0.1230895E+00
         21   -1    0    0  503  502  0.00000000000E+00  0.00000000000E+00  0.15202137753E+03  0.15202137753E+03  0.00000000000E+00 0.  1.
         -4   -1    0    0    0  501 -0.00000000000E+00 -0.00000000000E+00 -0.15926135241E+03  0.15926135241E+03  0.00000000000E+00 0. -1.
         21    1    1    2  503  501  0.12703711797E+03 -0.13084825515E+02  0.85294380758E+02  0.15357334856E+03  0.00000000000E+00 0.  1.
         -4    1    1    2    0  502 -0.12703711797E+03  0.13084825515E+02 -0.92534355637E+02  0.15770938137E+03  0.00000000000E+00 0. -1.
<mgrwt>
<rscale>  2 0.12770921E+03</rscale>
<asrwt>0</asrwt>
<pdfrwt beam="1">  1       21 0.23387904E-01 0.12770921E+03</pdfrwt>
<pdfrwt beam="2">  1       -4 0.24501747E-01 0.12770921E+03</pdfrwt>
<totfact> 0.10908789E+04</totfact>
</mgrwt>
</event>
<event>
 4    1  0.5142205E+003  0.1255402E+03  0.7546771E-02  0.1234227E+00
         21   -1    0    0  503  502  0.00000000000E+00  0.00000000000E+00  0.14413876821E+03  0.14413876821E+03  0.00000000000E+00 0.  1.
          4   -1    0    0  502    0 -0.00000000000E+00 -0.00000000000E+00 -0.16417897003E+04  0.16417897003E+04  0.00000000000E+00 0. -1.
         21    1    1    2  503  501 -0.12543830157E+03 -0.50564762268E+01  0.11389125644E+03  0.16950384582E+03  0.00000000000E+00 0.  1.
          4    1    1    2  501    0  0.12543830157E+03  0.50564762268E+01 -0.16115421886E+04  0.16164246227E+04  0.00000000000E+00 0. -1.
<mgrwt>
<rscale>  2 0.12554017E+03</rscale>
<asrwt>0</asrwt>
<pdfrwt beam="1">  1       21 0.22175197E-01 0.12554017E+03</pdfrwt>
<pdfrwt beam="2">  1        4 0.25258301E+00 0.12554017E+03</pdfrwt>
<totfact> 0.57662182E+01</totfact>
</mgrwt>
</event>
<event>
 4    1  0.5142205E+003  0.1020252E+03  0.7546771E-02  0.1276094E+00
         21   -1    0    0  503  502  0.00000000000E+00  0.00000000000E+00  0.14733059514E+03  0.14733059514E+03  0.00000000000E+00 0.  1.
          2   -1    0    0  502    0 -0.00000000000E+00 -0.00000000000E+00 -0.19433211019E+03  0.19433211019E+03  0.00000000000E+00 0.  1.
         21    1    1    2  503  501  0.46751303828E+02  0.90683265257E+02  0.11278358690E+03  0.15208312359E+03  0.00000000000E+00 0.  1.
          2    1    1    2  501    0 -0.46751303828E+02 -0.90683265257E+02 -0.15978510195E+03  0.18957958174E+03  0.00000000000E+00 0.  1.
<mgrwt>
<rscale>  2 0.10202519E+03</rscale>
<asrwt>0</asrwt>
<pdfrwt beam="1">  1       21 0.22666245E-01 0.10202519E+03</pdfrwt>
<pdfrwt beam="2">  1        2 0.29897248E-01 0.10202519E+03</pdfrwt>
<totfact> 0.39381405E+04</totfact>
</mgrwt>
</event>
<event>
 4    1  0.5142205E+003  0.1139652E+03  0.7546771E-02  0.1253398E+00
         -1   -1    0    0    0  501 -0.00000000000E+00  0.00000000000E+00  0.15113273906E+04  0.15113273906E+04  0.00000000000E+00 0.  1.
         21   -1    0    0  501  502  0.00000000000E+00 -0.00000000000E+00 -0.28084954929E+03  0.28084954929E+03  0.00000000000E+00 0.  1.
         21    1    1    2  503  502 -0.38658786023E+02 -0.10720807513E+03 -0.26703316509E+03  0.29033564089E+03  0.00000000000E+00 0.  1.
         -1    1    1    2    0  503  0.38658786023E+02  0.10720807513E+03  0.14975110064E+04  0.15018412991E+04  0.00000000000E+00 0.  1.
<mgrwt>
<rscale>  2 0.11396523E+03</rscale>
<asrwt>0</asrwt>
<pdfrwt beam="2">  1       21 0.43207624E-01 0.11396523E+03</pdfrwt>
<pdfrwt beam="1">  1       -1 0.23251190E+00 0.11396523E+03</pdfrwt>
<totfact> 0.54420053E+01</totfact>
</mgrwt>
</event>
<event>
 4    1  0.5142205E+003  0.1042379E+03  0.7546771E-02  0.1271629E+00
          2   -1    0    0  503    0 -0.00000000000E+00  0.00000000000E+00  0.18667225285E+03  0.18667225285E+03  0.00000000000E+00 0. -1.
         21   -1    0    0  501  502  0.00000000000E+00 -0.00000000000E+00 -0.58735225350E+03  0.58735225350E+03  0.00000000000E+00 0.  1.
         21    1    1    2  503  502  0.84820872483E+02  0.60588364525E+02 -0.56767564399E+03  0.57716649860E+03  0.00000000000E+00 0.  1.
          2    1    1    2  501    0 -0.84820872483E+02 -0.60588364525E+02  0.16699564334E+03  0.19685800776E+03  0.00000000000E+00 0. -1.
<mgrwt>
<rscale>  2 0.10423785E+03</rscale>
<asrwt>0</asrwt>
<pdfrwt beam="2">  1       21 0.90361885E-01 0.10423785E+03</pdfrwt>
<pdfrwt beam="1">  1        2 0.28718808E-01 0.10423785E+03</pdfrwt>
<totfact> 0.24619745E+03</totfact>
</mgrwt>
</event>
<event>
 4    1  0.5142205E+003  0.1136927E+03  0.7546771E-02  0.1253880E+00
         21   -1    0    0  503  502  0.00000000000E+00  0.00000000000E+00  0.53232341712E+02  0.53232341712E+02  0.00000000000E+00 0.  1.
          3   -1    0    0  502    0 -0.00000000000E+00 -0.00000000000E+00 -0.49696136797E+03  0.49696136797E+03  0.00000000000E+00 0.  1.
         21    1    1    2  503  501  0.97754535244E+02  0.58052364691E+02 -0.25139492038E+02  0.11643891217E+03  0.00000000000E+00 0.  1.
          3    1    1    2  501    0 -0.97754535244E+02 -0.58052364691E+02 -0.41858953422E+03  0.43375479751E+03  0.00000000000E+00 0.  1.
<mgrwt>
<rscale>  2 0.11369268E+03</rscale>
<asrwt>0</asrwt>
<pdfrwt beam="1">  1       21 0.81895910E-02 0.11369268E+03</pdfrwt>
<pdfrwt beam="2">  1        3 0.76455595E-01 0.11369268E+03</pdfrwt>
<totfact> 0.91100590E+03</totfact>
</mgrwt>
</event>
<event>
 4    1  0.5142205E+003  0.1132476E+03  0.7546771E-02  0.1254671E+00
          2   -1    0    0  503    0 -0.00000000000E+00  0.00000000000E+00  0.12112447411E+04  0.12112447411E+04  0.00000000000E+00 0. -1.
         21   -1    0    0  501  502  0.00000000000E+00 -0.00000000000E+00 -0.97377694434E+02  0.97377694434E+02  0.00000000000E+00 0. -1.
         21    1    1    2  503  502  0.96630380091E+02 -0.59055776385E+02 -0.60781219977E+02  0.12852770823E+03  0.00000000000E+00 0. -1.
          2    1    1    2  501    0 -0.96630380091E+02  0.59055776385E+02  0.11746482666E+04  0.11800947273E+04  0.00000000000E+00 0. -1.
<mgrwt>
<rscale>  2 0.11324758E+03</rscale>
<asrwt>0</asrwt>
<pdfrwt beam="2">  1       21 0.14981185E-01 0.11324758E+03</pdfrwt>
<pdfrwt beam="1">  1        2 0.18634533E+00 0.11324758E+03</pdfrwt>
<totfact> 0.10194845E+04</totfact>
</mgrwt>
</event>
<event>
 4    1  0.5142205E+003  0.1087889E+03  0.7546771E-02  0.1262829E+00
          1   -1    0    0  502    0 -0.00000000000E+00  0.00000000000E+00  0.18216595743E+04  0.18216595743E+04  0.00000000000E+00 0. -1.
         21   -1    0    0  503  502  0.00000000000E+00 -0.00000000000E+00 -0.84777095195E+01  0.84777095195E+01  0.00000000000E+00 0. -1.
         21    1    1    2  503  501  0.52598524343E+02  0.95228207933E+02  0.46426417601E+03  0.47683984887E+03  0.00000000000E+00 0. -1.
          1    1    1    2  501    0 -0.52598524343E+02 -0.95228207933E+02  0.13489176888E+04  0.13532974350E+04  0.00000000000E+00 0. -1.
<mgrwt>
<rscale>  2 0.10878886E+03</rscale>
<asrwt>0</asrwt>
<pdfrwt beam="2">  1       21 0.13042645E-02 0.10878886E+03</pdfrwt>
<pdfrwt beam="1">  1        1 0.28025501E+00 0.10878886E+03</pdfrwt>
<totfact> 0.12382080E+05</totfact>
</mgrwt>
</event>
<event>
 4    1  0.5142205E+003  0.1119927E+03  0.7546771E-02  0.1256924E+00
          2   -1    0    0  503    0 -0.00000000000E+00  0.00000000000E+00  0.18628269478E+03  0.18628269478E+03  0.00000000000E+00 0.  1.
         21   -1    0    0  501  502  0.00000000000E+00 -0.00000000000E+00 -0.19953080468E+03  0.19953080468E+03  0.00000000000E+00 0.  1.
         21    1    1    2  503  502  0.11193445784E+03  0.36109260922E+01 -0.16364585667E+03  0.19829858306E+03  0.00000000000E+00 0.  1.
          2    1    1    2  501    0 -0.11193445784E+03 -0.36109260922E+01  0.15039774677E+03  0.18751491640E+03  0.00000000000E+00 0.  1.
<mgrwt>
<rscale>  2 0.11199269E+03</rscale>
<asrwt>0</asrwt>
<pdfrwt beam="2">  1       21 0.30697047E-01 0.11199269E+03</pdfrwt>
<pdfrwt beam="1">  1        2 0.28658876E-01 0.11199269E+03</pdfrwt>
<totfact> 0.23237646E+04</totfact>
</mgrwt>
</event>
<event>
 4    1  0.5142205E+003  0.1271804E+03  0.7546771E-02  0.1231700E+00
         21   -1    0    0  501  502  0.00000000000E+00  0.00000000000E+00  0.29526018270E+03  0.29526018270E+03  0.00000000000E+00 0. -1.
          1   -1    0    0  503    0 -0.00000000000E+00 -0.00000000000E+00 -0.57459607177E+03  0.57459607177E+03  0.00000000000E+00 0.  1.
         21    1    1    2  503  502  0.91586845047E+02 -0.88242341300E+02  0.27400803224E+03  0.30208486012E+03  0.00000000000E+00 0. -1.
          1    1    1    2  501    0 -0.91586845047E+02  0.88242341300E+02 -0.55334392131E+03  0.56777139435E+03  0.00000000000E+00 0.  1.
<mgrwt>
<rscale>  2 0.12718043E+03</rscale>
<asrwt>0</asrwt>
<pdfrwt beam="1">  1       21 0.45424644E-01 0.12718043E+03</pdfrwt>
<pdfrwt beam="2">  1        1 0.88399394E-01 0.12718043E+03</pdfrwt>
<totfact> 0.19905298E+03</totfact>
</mgrwt>
</event>
<event>
 4    1  0.5142205E+003  0.1100529E+03  0.7546771E-02  0.1260472E+00
          2   -1    0    0  503    0 -0.00000000000E+00  0.00000000000E+00  0.10611581465E+03  0.10611581465E+03  0.00000000000E+00 0.  1.
         21   -1    0    0  501  502  0.00000000000E+00 -0.00000000000E+00 -0.57693875592E+03  0.57693875592E+03  0.00000000000E+00 0. -1.
         21    1    1    2  503  502  0.14491146924E+02  0.10909468538E+03 -0.54129667956E+03  0.55237101573E+03  0.00000000000E+00 0. -1.
          2    1    1    2  501    0 -0.14491146924E+02 -0.10909468538E+03  0.70473738288E+02  0.13068355484E+03  0.00000000000E+00 0.  1.
<mgrwt>
<rscale>  2 0.11005291E+03</rscale>
<asrwt>0</asrwt>
<pdfrwt beam="2">  1       21 0.88759807E-01 0.11005291E+03</pdfrwt>
<pdfrwt beam="1">  1        2 0.16325510E-01 0.11005291E+03</pdfrwt>
<totfact> 0.47937717E+03</totfact>
</mgrwt>
</event>
<event>
 4    1  0.5142205E+003  0.1515088E+03  0.7546771E-02  0.1198631E+00
         21   -1    0    0  503  502  0.00000000000E+00  0.00000000000E+00  0.20250619921E+03  0.20250619921E+03  0.00000000000E+00 0. -1.
         -2   -1    0    0    0  501 -0.00000000000E+00 -0.00000000000E+00 -0.29312842139E+03  0.29312842139E+03  0.00000000000E+00 0. -1.
         21    1    1    2  503  501  0.96929728168E+02 -0.11644551581E+03  0.14876244777E+03  0.21233274882E+03  0.00000000000E+00 0. -1.
         -2    1    1    2    0  502 -0.96929728168E+02  0.11644551581E+03 -0.23938466995E+03  0.28330187179E+03  0.00000000000E+00 0. -1.
<mgrwt>
<rscale>  2 0.15150885E+03</rscale>
<asrwt>0</asrwt>
<pdfrwt beam="1">  1       21 0.31154800E-01 0.15150885E+03</pdfrwt>
<pdfrwt beam="2">  1       -2 0.45096680E-01 0.15150885E+03</pdfrwt>
<totfact> 0.38077181E+03</totfact>
</mgrwt>
</event>
<event>
 4    1  0.5142205E+003  0.1037775E+03  0.7546771E-02  0.1272547E+00
         21   -1    0    0  503  502  0.00000000000E+00  0.00000000000E+00  0.91999653208E+03  0.91999653208E+03  0.00000000000E+00 0. -1.
         -3   -1    0    0    0  501 -0.00000000000E+00 -0.00000000000E+00 -0.34510297880E+02  0.34510297880E+02  0.00000000000E+00 0. -1.
         21    1    1    2  503  501 -0.91380168659E+02 -0.49187789249E+02  0.83069690437E+03  0.83715417981E+03  0.00000000000E+00 0. -1.
         -3    1    1    2    0  502  0.91380168659E+02  0.49187789249E+02  0.54789329831E+02  0.11735265016E+03  0.00000000000E+00 0. -1.
<mgrwt>
<rscale>  2 0.10377752E+03</rscale>
<asrwt>0</asrwt>
<pdfrwt beam="1">  1       21 0.14153791E+00 0.10377752E+03</pdfrwt>
<pdfrwt beam="2">  1       -3 0.53092773E-02 0.10377752E+03</pdfrwt>
<totfact> 0.35458733E+03</totfact>
</mgrwt>
</event>
<event>
 4    1  0.5142205E+003  0.1011973E+03  0.7546771E-02  0.1277798E+00
         21   -1    0    0  501  502  0.00000000000E+00  0.00000000000E+00  0.98089583891E+02  0.98089583891E+02  0.00000000000E+00 0. -1.
          1   -1    0    0  503    0 -0.00000000000E+00 -0.00000000000E+00 -0.86231615340E+03  0.86231615340E+03  0.00000000000E+00 0. -1.
         21    1    1    2  503  502 -0.74397581407E+02 -0.68599537785E+02  0.68082128279E+02  0.12196750754E+03  0.00000000000E+00 0. -1.
          1    1    1    2  501    0  0.74397581407E+02  0.68599537785E+02 -0.83230869779E+03  0.83843822975E+03  0.00000000000E+00 0. -1.
<mgrwt>
<rscale>  2 0.10119732E+03</rscale>
<asrwt>0</asrwt>
<pdfrwt beam="1">  1       21 0.15090705E-01 0.10119732E+03</pdfrwt>
<pdfrwt beam="2">  1        1 0.13266402E+00 0.10119732E+03</pdfrwt>
<totfact> 0.91595164E+03</totfact>
</mgrwt>
</event>
<event>
 4    1  0.5142205E+003  0.1013652E+03  0.7546771E-02  0.1277451E+00
         21   -1    0    0  501  502  0.00000000000E+00  0.00000000000E+00  0.20715283537E+03  0.20715283537E+03  0.00000000000E+00 0.  1.
          2   -1    0    0  503    0 -0.00000000000E+00 -0.00000000000E+00 -0.10740816177E+03  0.10740816177E+03  0.00000000000E+00 0.  1.
         21    1    1    2  503  502 -0.45247055534E+02 -0.90706189326E+02  0.16525710731E+03  0.19386804877E+03  0.00000000000E+00 0.  1.
          2    1    1    2  501    0  0.45247055534E+02  0.90706189326E+02 -0.65512433710E+02  0.12069294837E+03  0.00000000000E+00 0.  1.
<mgrwt>
<rscale>  2 0.10136522E+03</rscale>
<asrwt>0</asrwt>
<pdfrwt beam="1">  1       21 0.31869667E-01 0.10136522E+03</pdfrwt>
<pdfrwt beam="2">  1        2 0.16524333E-01 0.10136522E+03</pdfrwt>
<totfact> 0.39854239E+04</totfact>
</mgrwt>
</event>
<event>
 4    1  0.5142205E+003  0.1151676E+03  0.7546771E-02  0.1251289E+00
         21   -1    0    0  501  502  0.00000000000E+00  0.00000000000E+00  0.49649575559E+03  0.49649575559E+03  0.00000000000E+00 0. -1.
          1   -1    0    0  503    0 -0.00000000000E+00 -0.00000000000E+00 -0.44985799891E+03  0.44985799891E+03  0.00000000000E+00 0. -1.
         21    1    1    2  503  502 -0.40927917248E+02  0.10764980733E+03  0.48223116895E+03  0.49579277500E+03  0.00000000000E+00 0. -1.
          1    1    1    2  501    0  0.40927917248E+02 -0.10764980733E+03 -0.43559341228E+03  0.45056097950E+03  0.00000000000E+00 0. -1.
<mgrwt>
<rscale>  2 0.11516760E+03</rscale>
<asrwt>0</asrwt>
<pdfrwt beam="1">  1       21 0.76383962E-01 0.11516760E+03</pdfrwt>
<pdfrwt beam="2">  1        1 0.69208923E-01 0.11516760E+03</pdfrwt>
<totfact> 0.92006307E+02</totfact>
</mgrwt>
</event>
<event>
 4    1  0.5142205E+003  0.1131588E+03  0.7546771E-02  0.1254830E+00
         21   -1    0    0  503  502  0.00000000000E+00  0.00000000000E+00  0.69066489774E+02  0.69066489774E+02  0.00000000000E+00 0.  1.
          1   -1    0    0  502    0 -0.00000000000E+00 -0.00000000000E+00 -0.17831437554E+04  0.17831437554E+04  0.00000000000E+00 0.  1.
         21    1    1    2  503  501  0.10234429918E+03  0.48275846254E+02  0.19600191167E+02  0.11484372164E+03  0.00000000000E+00 0.  1.
          1    1    1    2  501    0 -0.10234429918E+03 -0.48275846254E+02 -0.17336774568E+04  0.17373665235E+04  0.00000000000E+00 0.  1.
<mgrwt>
<rscale>  2 0.11315880E+03</rscale>
<asrwt>0</asrwt>
<pdfrwt beam="1">  1       21 0.10625616E-01 0.11315880E+03</pdfrwt>
<pdfrwt beam="2">  1        1 0.27432976E+00 0.11315880E+03</pdfrwt>
<totfact> 0.40604111E+03</totfact>
</mgrwt>
</event>
<event>
 4    1  0.5142205E+003  0.1096615E+03  0.7546771E-02  0.1261198E+00
         21   -1    0    0  501  502  0.00000000000E+00  0.00000000000E+00  0.48340618020E+03  0.48340618020E+03  0.00000000000E+00 0.  1.
          1   -1    0    0  503    0 -0.00000000000E+00 -0.00000000000E+00 -0.59579666001E+03  0.59579666001E+03  0.00000000000E+00 0. -1.
         21    1    1    2  503  502 -0.10923759005E+03  0.96331470178E+01  0.47202080374E+03  0.48459187753E+03  0.00000000000E+00 0.  1.
          1    1    1    2  501    0  0.10923759005E+03 -0.96331470178E+01 -0.58441128355E+03  0.59461096268E+03  0.00000000000E+00 0. -1.
<mgrwt>
<rscale>  2 0.10966152E+03</rscale>
<asrwt>0</asrwt>
<pdfrwt beam="1">  1       21 0.74370181E-01 0.10966152E+03</pdfrwt>
<pdfrwt beam="2">  1        1 0.91661025E-01 0.10966152E+03</pdfrwt>
<totfact> 0.67941861E+02</totfact>
</mgrwt>
</event>
<event>
 4    1  0.5142205E+003  0.1035618E+03  0.7546771E-02  0.1272979E+00
         21   -1    0    0  503  502  0.00000000000E+00  0.00000000000E+00  0.68888284818E+02  0.68888284818E+02  0.00000000000E+00 0. -1.
          2   -1    0    0  502    0 -0.00000000000E+00 -0.00000000000E+00 -0.18296896989E+03  0.18296896989E+03  0.00000000000E+00 0.  1.
         21    1    1    2  503  501  0.19570420690E+02  0.10169580078E+03 -0.84141229670E+01  0.10390300634E+03  0.00000000000E+00 0. -1.
          2    1    1    2  501    0 -0.19570420690E+02 -0.10169580078E+03 -0.10566656210E+03  0.14795424836E+03  0.00000000000E+00 0.  1.
<mgrwt>
<rscale>  2 0.10356176E+03</rscale>
<asrwt>0</asrwt>
<pdfrwt beam="1">  1       21 0.10598198E-01 0.10356176E+03</pdfrwt>
<pdfrwt beam="2">  1        2 0.28149072E-01 0.10356176E+03</pdfrwt>
<totfact> 0.16499606E+05</totfact>
</mgrwt>
</event>
<event>
 4    1  0.5142205E+003  0.1113013E+03  0.7546771E-02  0.1258179E+00
          2   -1    0    0  503    0 -0.00000000000E+00  0.00000000000E+00  0.10465149727E+04  0.10465149727E+04  0.00000000000E+00 0. -1.
         21   -1    0    0  501  502  0.00000000000E+00 -0.00000000000E+00 -0.26432767608E+02  0.26432767608E+02  0.00000000000E+00 0.  1.
         21    1    1    2  503  502  0.23482985021E+02  0.10879578577E+03  0.11139696510E+03  0.15747144954E+03  0.00000000000E+00 0.  1.
          2    1    1    2  501    0 -0.23482985021E+02 -0.10879578577E+03  0.90868524003E+03  0.91547629081E+03  0.00000000000E+00 0. -1.
<mgrwt>
<rscale>  2 0.11130127E+03</rscale>
<asrwt>0</asrwt>
<pdfrwt beam="2">  1       21 0.40665804E-02 0.11130127E+03</pdfrwt>
<pdfrwt beam="1">  1        2 0.16100227E+00 0.11130127E+03</pdfrwt>
<totfact> 0.11875894E+05</totfact>
</mgrwt>
</event>
<event>
 4    1  0.5142205E+003  0.2317361E+03  0.7546771E-02  0.1125424E+00
         21   -1    0    0  503  502  0.00000000000E+00  0.00000000000E+00  0.11179525601E+03  0.11179525601E+03  0.00000000000E+00 0.  1.
          2   -1    0    0  502    0 -0.00000000000E+00 -0.00000000000E+00 -0.10927084391E+04  0.10927084391E+04  0.00000000000E+00 0.  1.
         21    1    1    2  503  501  0.23154346694E+03 -0.94473583303E+01 -0.39612505798E+02  0.23509738467E+03  0.00000000000E+00 0.  1.
          2    1    1    2  501    0 -0.23154346694E+03  0.94473583303E+01 -0.94130067732E+03  0.96940631047E+03  0.00000000000E+00 0.  1.
<mgrwt>
<rscale>  2 0.23173612E+03</rscale>
<asrwt>0</asrwt>
<pdfrwt beam="1">  1       21 0.17199271E-01 0.23173612E+03</pdfrwt>
<pdfrwt beam="2">  1        2 0.16810898E+00 0.23173612E+03</pdfrwt>
<totfact> 0.88697375E+03</totfact>
</mgrwt>
</event>
<event>
 4    1  0.5142205E+003  0.1158310E+03  0.7546771E-02  0.1250137E+00
         -1   -1    0    0    0  501 -0.00000000000E+00  0.00000000000E+00  0.28356540081E+03  0.28356540081E+03  0.00000000000E+00 0.  1.
         21   -1    0    0  501  502  0.00000000000E+00 -0.00000000000E+00 -0.11912701118E+03  0.11912701118E+03  0.00000000000E+00 0.  1.
         21    1    1    2  503  502 -0.91422372867E+02  0.71125018248E+02 -0.74109142638E+02  0.13750993965E+03  0.00000000000E+00 0.  1.
         -1    1    1    2    0  503  0.91422372867E+02 -0.71125018248E+02  0.23854753227E+03  0.26518247234E+03  0.00000000000E+00 0.  1.
<mgrwt>
<rscale>  2 0.11583099E+03</rscale>
<asrwt>0</asrwt>
<pdfrwt beam="2">  1       21 0.18327233E-01 0.11583099E+03</pdfrwt>
<pdfrwt beam="1">  1       -1 0.43625446E-01 0.11583099E+03</pdfrwt>
<totfact> 0.13256935E+04</totfact>
</mgrwt>
</event>
<event>
 4    1  0.5142205E+003  0.1472424E+03  0.7546771E-02  0.1203903E+00
          2   -1    0    0  503    0 -0.00000000000E+00  0.00000000000E+00  0.16404119346E+04  0.16404119346E+04  0.00000000000E+00 0. -1.
         21   -1    0    0  501  502  0.00000000000E+00 -0.00000000000E+00 -0.13283506976E+02  0.13283506976E+02  0.00000000000E+00 0. -1.
         21    1    1    2  503  502 -0.30159967088E+02 -0.14412044623E+03  0.75479093317E+03  0.76901864699E+03  0.00000000000E+00 0. -1.
          2    1    1    2  501    0  0.30159967088E+02  0.14412044623E+03  0.87233749447E+03  0.88467679460E+03  0.00000000000E+00 0. -1.
<mgrwt>
<rscale>  2 0.14724241E+03</rscale>
<asrwt>0</asrwt>
<pdfrwt beam="2">  1       21 0.20436178E-02 0.14724241E+03</pdfrwt>
<pdfrwt beam="1">  1        2 0.25237091E+00 0.14724241E+03</pdfrwt>
<totfact> 0.17616253E+05</totfact>
</mgrwt>
</event>
<event>
 4    1  0.5142205E+003  0.1186680E+03  0.7546771E-02  0.1245311E+00
         21   -1    0    0  503  502  0.00000000000E+00  0.00000000000E+00  0.37153077635E+03  0.37153077635E+03  0.00000000000E+00 0. -1.
          1   -1    0    0  502    0 -0.00000000000E+00 -0.00000000000E+00 -0.63920603495E+03  0.63920603495E+03  0.00000000000E+00 0.  1.
         21    1    1    2  503  501 -0.53566054551E+02 -0.10589037039E+03  0.35631844525E+03  0.37555948552E+03  0.00000000000E+00 0. -1.
          1    1    1    2  501    0  0.53566054551E+02  0.10589037039E+03 -0.62399370384E+03  0.63517732578E+03  0.00000000000E+00 0.  1.
<mgrwt>
<rscale>  2 0.11866799E+03</rscale>
<asrwt>0</asrwt>
<pdfrwt beam="1">  1       21 0.57158581E-01 0.11866799E+03</pdfrwt>
<pdfrwt beam="2">  1        1 0.98339391E-01 0.11866799E+03</pdfrwt>
<totfact> 0.10774799E+03</totfact>
</mgrwt>
</event>
<event>
 4    1  0.5142205E+003  0.1068834E+03  0.7546771E-02  0.1266453E+00
         -1   -1    0    0    0  501 -0.00000000000E+00  0.00000000000E+00  0.24653867714E+03  0.24653867714E+03  0.00000000000E+00 0.  1.
         21   -1    0    0  503  502  0.00000000000E+00 -0.00000000000E+00 -0.86383128727E+02  0.86383128727E+02  0.00000000000E+00 0. -1.
         21    1    1    2  503  501 -0.10686052754E+03  0.22117365721E+01 -0.33259723529E+02  0.11193870347E+03  0.00000000000E+00 0. -1.
         -1    1    1    2    0  502  0.10686052754E+03 -0.22117365721E+01  0.19341527194E+03  0.22098310240E+03  0.00000000000E+00 0.  1.
<mgrwt>
<rscale>  2 0.10688341E+03</rscale>
<asrwt>0</asrwt>
<pdfrwt beam="2">  1       21 0.13289712E-01 0.10688341E+03</pdfrwt>
<pdfrwt beam="1">  1       -1 0.37929027E-01 0.10688341E+03</pdfrwt>
<totfact> 0.30183437E+04</totfact>
</mgrwt>
</event>
<event>
 4    1  0.5142205E+003  0.1129389E+03  0.7546771E-02  0.1255222E+00
         21   -1    0    0  503  502  0.00000000000E+00  0.00000000000E+00  0.12274035040E+03  0.12274035040E+03  0.00000000000E+00 0. -1.
          2   -1    0    0  502    0 -0.00000000000E+00 -0.00000000000E+00 -0.70913853914E+03  0.70913853914E+03  0.00000000000E+00 0. -1.
         21    1    1    2  503  501 -0.17558067382E+02  0.11156572027E+03  0.91056873357E+02  0.14507429081E+03  0.00000000000E+00 0. -1.
          2    1    1    2  501    0  0.17558067382E+02 -0.11156572027E+03 -0.67745506210E+03  0.68680459873E+03  0.00000000000E+00 0. -1.
<mgrwt>
<rscale>  2 0.11293890E+03</rscale>
<asrwt>0</asrwt>
<pdfrwt beam="1">  1       21 0.18883131E-01 0.11293890E+03</pdfrwt>
<pdfrwt beam="2">  1        2 0.10909823E+00 0.11293890E+03</pdfrwt>
<totfact> 0.13634761E+04</totfact>
</mgrwt>
</event>
<event>
 4    1  0.5142205E+003  0.1092970E+03  0.7546771E-02  0.1261877E+00
          2   -1    0    0  503    0 -0.00000000000E+00  0.00000000000E+00  0.16444986827E+04  0.16444986827E+04  0.00000000000E+00 0.  1.
         21   -1    0    0  501  502  0.00000000000E+00 -0.00000000000E+00 -0.16408760719E+03  0.16408760719E+03  0.00000000000E+00 0. -1.
         21    1    1    2  503  502  0.55190738367E+01 -0.10915759866E+03 -0.14384460013E+03  0.18065743967E+03  0.00000000000E+00 0. -1.
          2    1    1    2  501    0 -0.55190738367E+01  0.10915759866E+03  0.16242556757E+04  0.16279288502E+04  0.00000000000E+00 0.  1.
<mgrwt>
<rscale>  2 0.10929703E+03</rscale>
<asrwt>0</asrwt>
<pdfrwt beam="2">  1       21 0.25244248E-01 0.10929703E+03</pdfrwt>
<pdfrwt beam="1">  1        2 0.25299979E+00 0.10929703E+03</pdfrwt>
<totfact> 0.23246472E+03</totfact>
</mgrwt>
</event>
<event>
 4    1  0.5142205E+003  0.1383185E+03  0.7546771E-02  0.1215610E+00
         21   -1    0    0  503  502  0.00000000000E+00  0.00000000000E+00  0.15768907510E+03  0.15768907510E+03  0.00000000000E+00 0.  1.
          1   -1    0    0  502    0 -0.00000000000E+00 -0.00000000000E+00 -0.40105201710E+03  0.40105201710E+03  0.00000000000E+00 0. -1.
         21    1    1    2  503  501  0.68255946196E+02  0.12030433612E+03  0.11163510719E+03  0.17774814946E+03  0.00000000000E+00 0.  1.
          1    1    1    2  501    0 -0.68255946196E+02 -0.12030433612E+03 -0.35499804920E+03  0.38099294274E+03  0.00000000000E+00 0. -1.
<mgrwt>
<rscale>  2 0.13831850E+03</rscale>
<asrwt>0</asrwt>
<pdfrwt beam="1">  1       21 0.24259858E-01 0.13831850E+03</pdfrwt>
<pdfrwt beam="2">  1        1 0.61700310E-01 0.13831850E+03</pdfrwt>
<totfact> 0.10770454E+04</totfact>
</mgrwt>
</event>
<event>
 4    1  0.5142205E+003  0.2379416E+03  0.7546771E-02  0.1121172E+00
          2   -1    0    0  503    0 -0.00000000000E+00  0.00000000000E+00  0.14201002644E+04  0.14201002644E+04  0.00000000000E+00 0.  1.
         21   -1    0    0  501  502  0.00000000000E+00 -0.00000000000E+00 -0.75135760883E+02  0.75135760883E+02  0.00000000000E+00 0.  1.
         21    1    1    2  503  502  0.13034176044E+03  0.19906585054E+03  0.16027354096E+03  0.28688638046E+03  0.00000000000E+00 0.  1.
          2    1    1    2  501    0 -0.13034176044E+03 -0.19906585054E+03  0.11846909626E+04  0.12083496449E+04  0.00000000000E+00 0.  1.
<mgrwt>
<rscale>  2 0.23794156E+03</rscale>
<asrwt>0</asrwt>
<pdfrwt beam="2">  1       21 0.11559349E-01 0.23794156E+03</pdfrwt>
<pdfrwt beam="1">  1        2 0.21847694E+00 0.23794156E+03</pdfrwt>
<totfact> 0.11968320E+04</totfact>
</mgrwt>
</event>
<event>
 4    1  0.5142205E+003  0.4287114E+03  0.7546771E-02  0.1034268E+00
         21   -1    0    0  501  502  0.00000000000E+00  0.00000000000E+00  0.52759874573E+03  0.52759874573E+03  0.00000000000E+00 0.  1.
          1   -1    0    0  503    0 -0.00000000000E+00 -0.00000000000E+00 -0.64287172022E+03  0.64287172022E+03  0.00000000000E+00 0.  1.
         21    1    1    2  503  502  0.32700325234E+03  0.27724055774E+03  0.33847804495E+03  0.54622416718E+03  0.00000000000E+00 0.  1.
          1    1    1    2  501    0 -0.32700325234E+03 -0.27724055774E+03 -0.45375101944E+03  0.62424629878E+03  0.00000000000E+00 0.  1.
<mgrwt>
<rscale>  2 0.42871139E+03</rscale>
<asrwt>0</asrwt>
<pdfrwt beam="1">  1       21 0.81169038E-01 0.42871139E+03</pdfrwt>
<pdfrwt beam="2">  1        1 0.98903342E-01 0.42871139E+03</pdfrwt>
<totfact> 0.42683092E+02</totfact>
</mgrwt>
</event>
<event>
 4    1  0.5142205E+003  0.1152758E+03  0.7546771E-02  0.1251101E+00
         -3   -1    0    0    0  501 -0.00000000000E+00  0.00000000000E+00  0.14543775816E+03  0.14543775816E+03  0.00000000000E+00 0. -1.
         21   -1    0    0  503  502  0.00000000000E+00 -0.00000000000E+00 -0.12309609431E+03  0.12309609431E+03  0.00000000000E+00 0. -1.
         21    1    1    2  503  501  0.10882894650E+03 -0.38010011744E+02 -0.56994279799E+02  0.12859567846E+03  0.00000000000E+00 0. -1.
         -3    1    1    2    0  502 -0.10882894650E+03  0.38010011744E+02  0.79335943650E+02  0.13993817401E+03  0.00000000000E+00 0. -1.
<mgrwt>
<rscale>  2 0.11527576E+03</rscale>
<asrwt>0</asrwt>
<pdfrwt beam="2">  1       21 0.18937861E-01 0.11527576E+03</pdfrwt>
<pdfrwt beam="1">  1       -3 0.22375040E-01 0.11527576E+03</pdfrwt>
<totfact> 0.22329520E+04</totfact>
</mgrwt>
</event>
<event>
 4    1  0.5142205E+003  0.1215459E+03  0.7546771E-02  0.1240568E+00
         21   -1    0    0  503  502  0.00000000000E+00  0.00000000000E+00  0.61695206755E+02  0.61695206755E+02  0.00000000000E+00 0.  1.
         -3   -1    0    0    0  501 -0.00000000000E+00 -0.00000000000E+00 -0.59727788705E+03  0.59727788705E+03  0.00000000000E+00 0.  1.
         21    1    1    2  503  501 -0.32212095998E+02  0.11719972432E+03 -0.12766862725E+02  0.12221451343E+03  0.00000000000E+00 0.  1.
         -3    1    1    2    0  502  0.32212095998E+02 -0.11719972432E+03 -0.52281581757E+03  0.53675858038E+03  0.00000000000E+00 0.  1.
<mgrwt>
<rscale>  2 0.12154585E+03</rscale>
<asrwt>0</asrwt>
<pdfrwt beam="1">  1       21 0.94915705E-02 0.12154585E+03</pdfrwt>
<pdfrwt beam="2">  1       -3 0.91888903E-01 0.12154585E+03</pdfrwt>
<totfact> 0.47365632E+03</totfact>
</mgrwt>
</event>
<event>
 4    1  0.5142205E+003  0.1673703E+03  0.7546771E-02  0.1180618E+00
         21   -1    0    0  503  502  0.00000000000E+00  0.00000000000E+00  0.80836129092E+02  0.80836129092E+02  0.00000000000E+00 0. -1.
          1   -1    0    0  502    0 -0.00000000000E+00 -0.00000000000E+00 -0.10279777756E+04  0.10279777756E+04  0.00000000000E+00 0. -1.
         21    1    1    2  503  501  0.12259854672E+03  0.11394040897E+03 -0.22182389358E+02  0.16883387946E+03  0.00000000000E+00 0. -1.
          1    1    1    2  501    0 -0.12259854672E+03 -0.11394040897E+03 -0.92495925715E+03  0.93998002523E+03  0.00000000000E+00 0. -1.
<mgrwt>
<rscale>  2 0.16737031E+03</rscale>
<asrwt>0</asrwt>
<pdfrwt beam="1">  1       21 0.12436328E-01 0.16737031E+03</pdfrwt>
<pdfrwt beam="2">  1        1 0.15815042E+00 0.16737031E+03</pdfrwt>
<totfact> 0.95084175E+03</totfact>
</mgrwt>
</event>
<event>
 4    1  0.5142205E+003  0.1153702E+03  0.7546771E-02  0.1250936E+00
         21   -1    0    0  503  502  0.00000000000E+00  0.00000000000E+00  0.58082456884E+02  0.58082456884E+02  0.00000000000E+00 0. -1.
          2   -1    0    0  502    0 -0.00000000000E+00 -0.00000000000E+00 -0.73598206283E+03  0.73598206283E+03  0.00000000000E+00 0.  1.
         21    1    1    2  503  501  0.74747705614E+02 -0.87880931865E+02 -0.94772922334E+01  0.11575878692E+03  0.00000000000E+00 0. -1.
          2    1    1    2  501    0 -0.74747705614E+02  0.87880931865E+02 -0.66842231372E+03  0.67830573280E+03  0.00000000000E+00 0.  1.
<mgrwt>
<rscale>  2 0.11537018E+03</rscale>
<asrwt>0</asrwt>
<pdfrwt beam="1">  1       21 0.89357626E-02 0.11537018E+03</pdfrwt>
<pdfrwt beam="2">  1        2 0.11322801E+00 0.11537018E+03</pdfrwt>
<totfact> 0.49334767E+04</totfact>
</mgrwt>
</event>
<event>
 4    1  0.5142205E+003  0.1553057E+03  0.7546771E-02  0.1194101E+00
         21   -1    0    0  501  502  0.00000000000E+00  0.00000000000E+00  0.38828545103E+02  0.38828545103E+02  0.00000000000E+00 0.  1.
         -2   -1    0    0    0  501 -0.00000000000E+00 -0.00000000000E+00 -0.63884798367E+03  0.63884798367E+03  0.00000000000E+00 0.  1.
         21    1    1    2  503  502 -0.15185109583E+03  0.32574590832E+02 -0.24367470825E+03  0.28895885989E+03  0.00000000000E+00 0.  1.
         -2    1    1    2    0  503  0.15185109583E+03 -0.32574590832E+02 -0.35634473032E+03  0.38871766888E+03  0.00000000000E+00 0.  1.
<mgrwt>
<rscale>  2 0.15530570E+03</rscale>
<asrwt>0</asrwt>
<pdfrwt beam="1">  1       21 0.59736227E-02 0.15530570E+03</pdfrwt>
<pdfrwt beam="2">  1       -2 0.98284299E-01 0.15530570E+03</pdfrwt>
<totfact> 0.14529105E+04</totfact>
</mgrwt>
</event>
<event>
 4    1  0.5142205E+003  0.1016156E+03  0.7546771E-02  0.1276935E+00
         21   -1    0    0  501  502  0.00000000000E+00  0.00000000000E+00  0.10725085999E+03  0.10725085999E+03  0.00000000000E+00 0. -1.
          2   -1    0    0  503    0 -0.00000000000E+00 -0.00000000000E+00 -0.23394354181E+04  0.23394354181E+04  0.00000000000E+00 0.  1.
         21    1    1    2  503  502 -0.96917712421E+02  0.30540034546E+02  0.81813836947E+02  0.13045781160E+03  0.00000000000E+00 0. -1.
          2    1    1    2  501    0  0.96917712421E+02 -0.30540034546E+02 -0.23139983951E+04  0.23162284665E+04  0.00000000000E+00 0.  1.
<mgrwt>
<rscale>  2 0.10161563E+03</rscale>
<asrwt>0</asrwt>
<pdfrwt beam="1">  1       21 0.16500133E-01 0.10161563E+03</pdfrwt>
<pdfrwt beam="2">  1        2 0.35991313E+00 0.10161563E+03</pdfrwt>
<totfact> 0.22743510E+03</totfact>
</mgrwt>
</event>
<event>
 4    1  0.5142205E+003  0.2618147E+03  0.7546771E-02  0.1106058E+00
         21   -1    0    0  501  502  0.00000000000E+00  0.00000000000E+00  0.41223598471E+03  0.41223598471E+03  0.00000000000E+00 0. -1.
          2   -1    0    0  503    0 -0.00000000000E+00 -0.00000000000E+00 -0.43421248574E+03  0.43421248574E+03  0.00000000000E+00 0. -1.
         21    1    1    2  503  502 -0.25832092270E+03  0.42629239660E+02  0.32146560240E+03  0.41459267324E+03  0.00000000000E+00 0. -1.
          2    1    1    2  501    0  0.25832092270E+03 -0.42629239660E+02 -0.34344210342E+03  0.43185579721E+03  0.00000000000E+00 0. -1.
<mgrwt>
<rscale>  2 0.26181473E+03</rscale>
<asrwt>0</asrwt>
<pdfrwt beam="1">  1       21 0.63420921E-01 0.26181473E+03</pdfrwt>
<pdfrwt beam="2">  1        2 0.66801921E-01 0.26181473E+03</pdfrwt>
<totfact> 0.20379110E+03</totfact>
</mgrwt>
</event>
<event>
 4    1  0.5142205E+003  0.1051113E+03  0.7546771E-02  0.1269900E+00
         21   -1    0    0  503  502  0.00000000000E+00  0.00000000000E+00  0.15942210224E+02  0.15942210224E+02  0.00000000000E+00 0. -1.
         -2   -1    0    0    0  501 -0.00000000000E+00 -0.00000000000E+00 -0.89762317981E+03  0.89762317981E+03  0.00000000000E+00 0.  1.
         21    1    1    2  503  501 -0.10337222760E+03 -0.19041222694E+02 -0.22276284325E+03  0.24631619909E+03  0.00000000000E+00 0. -1.
         -2    1    1    2    0  502  0.10337222760E+03  0.19041222694E+02 -0.65891812634E+03  0.66724919095E+03  0.00000000000E+00 0.  1.
<mgrwt>
<rscale>  2 0.10511130E+03</rscale>
<asrwt>0</asrwt>
<pdfrwt beam="1">  1       21 0.24526470E-02 0.10511130E+03</pdfrwt>
<pdfrwt beam="2">  1       -2 0.13809591E+00 0.10511130E+03</pdfrwt>
<totfact> 0.27882950E+04</totfact>
</mgrwt>
</event>
<event>
 4    1  0.5142205E+003  0.1199876E+03  0.7546771E-02  0.1243117E+00
         21   -1    0    0  503  502  0.00000000000E+00  0.00000000000E+00  0.19875669790E+02  0.19875669790E+02  0.00000000000E+00 0.  1.
          1   -1    0    0  502    0 -0.00000000000E+00 -0.00000000000E+00 -0.22831625318E+04  0.22831625318E+04  0.00000000000E+00 0.  1.
         21    1    1    2  503  501 -0.84577864475E+02 -0.85109435486E+02 -0.18016478247E+03  0.21646334565E+03  0.00000000000E+00 0.  1.
          1    1    1    2  501    0  0.84577864475E+02  0.85109435486E+02 -0.20831220795E+04  0.20865748559E+04  0.00000000000E+00 0.  1.
<mgrwt>
<rscale>  2 0.11998763E+03</rscale>
<asrwt>0</asrwt>
<pdfrwt beam="1">  1       21 0.30577947E-02 0.11998763E+03</pdfrwt>
<pdfrwt beam="2">  1        1 0.35125585E+00 0.11998763E+03</pdfrwt>
<totfact> 0.15986754E+04</totfact>
</mgrwt>
</event>
<event>
 4    1  0.5142205E+003  0.1000033E+03  0.7546771E-02  0.1280289E+00
          2   -1    0    0  502    0 -0.00000000000E+00  0.00000000000E+00  0.42852252509E+03  0.42852252509E+03  0.00000000000E+00 0. -1.
         21   -1    0    0  503  502  0.00000000000E+00 -0.00000000000E+00 -0.10357959429E+03  0.10357959429E+03  0.00000000000E+00 0.  1.
         21    1    1    2  503  501 -0.68289503810E+02  0.73056135964E+02 -0.71697290690E+02  0.12304940806E+03  0.00000000000E+00 0.  1.
          2    1    1    2  501    0  0.68289503810E+02 -0.73056135964E+02  0.39664022149E+03  0.40905271132E+03  0.00000000000E+00 0. -1.
<mgrwt>
<rscale>  2 0.10000328E+03</rscale>
<asrwt>0</asrwt>
<pdfrwt beam="2">  1       21 0.15935322E-01 0.10000328E+03</pdfrwt>
<pdfrwt beam="1">  1        2 0.65926542E-01 0.10000328E+03</pdfrwt>
<totfact> 0.32534869E+04</totfact>
</mgrwt>
</event>
<event>
 4    1  0.5142205E+003  0.1112394E+03  0.7546771E-02  0.1258292E+00
          2   -1    0    0  503    0 -0.00000000000E+00  0.00000000000E+00  0.11822743877E+03  0.11822743877E+03  0.00000000000E+00 0. -1.
         21   -1    0    0  501  502  0.00000000000E+00 -0.00000000000E+00 -0.15430810042E+04  0.15430810042E+04  0.00000000000E+00 0. -1.
         21    1    1    2  503  502  0.10671240238E+03 -0.31411242142E+02 -0.15144155012E+04  0.15184954769E+04  0.00000000000E+00 0. -1.
          2    1    1    2  501    0 -0.10671240238E+03  0.31411242142E+02  0.89561935755E+02  0.14281296612E+03  0.00000000000E+00 0. -1.
<mgrwt>
<rscale>  2 0.11123939E+03</rscale>
<asrwt>0</asrwt>
<pdfrwt beam="2">  1       21 0.23739707E+00 0.11123939E+03</pdfrwt>
<pdfrwt beam="1">  1        2 0.18188838E-01 0.11123939E+03</pdfrwt>
<totfact> 0.32759759E+02</totfact>
</mgrwt>
</event>
<event>
 4    1  0.5142205E+003  0.1607976E+03  0.7546771E-02  0.1187799E+00
         21   -1    0    0  501  502  0.00000000000E+00  0.00000000000E+00  0.41600803196E+02  0.41600803196E+02  0.00000000000E+00 0.  1.
          2   -1    0    0  503    0 -0.00000000000E+00 -0.00000000000E+00 -0.91291037175E+03  0.91291037175E+03  0.00000000000E+00 0.  1.
         21    1    1    2  503  502 -0.84097991840E+02 -0.13705256289E+03 -0.16602247334E+03  0.23112624014E+03  0.00000000000E+00 0.  1.
          2    1    1    2  501    0  0.84097991840E+02  0.13705256289E+03 -0.70528709522E+03  0.72338493481E+03  0.00000000000E+00 0.  1.
<mgrwt>
<rscale>  2 0.16079763E+03</rscale>
<asrwt>0</asrwt>
<pdfrwt beam="1">  1       21 0.64001241E-02 0.16079763E+03</pdfrwt>
<pdfrwt beam="2">  1        2 0.14044774E+00 0.16079763E+03</pdfrwt>
<totfact> 0.66848589E+04</totfact>
</mgrwt>
</event>
<event>
 4    1  0.5142205E+003  0.1171297E+03  0.7546771E-02  0.1247909E+00
         21   -1    0    0  503  502  0.00000000000E+00  0.00000000000E+00  0.21121992407E+02  0.21121992407E+02  0.00000000000E+00 0. -1.
          2   -1    0    0  502    0 -0.00000000000E+00 -0.00000000000E+00 -0.18714544130E+04  0.18714544130E+04  0.00000000000E+00 0. -1.
         21    1    1    2  503  501  0.33365400938E+02 -0.11227700517E+03 -0.16052816688E+03  0.19871755894E+03  0.00000000000E+00 0. -1.
          2    1    1    2  501    0 -0.33365400938E+02  0.11227700517E+03 -0.16898042537E+04  0.16938588465E+04  0.00000000000E+00 0. -1.
<mgrwt>
<rscale>  2 0.11712974E+03</rscale>
<asrwt>0</asrwt>
<pdfrwt beam="1">  1       21 0.32495373E-02 0.11712974E+03</pdfrwt>
<pdfrwt beam="2">  1        2 0.28791606E+00 0.11712974E+03</pdfrwt>
<totfact> 0.63145162E+04</totfact>
</mgrwt>
</event>
<event>
 4    1  0.5142205E+003  0.1250163E+03  0.7546771E-02  0.1235044E+00
         21   -1    0    0  503  502  0.00000000000E+00  0.00000000000E+00  0.51110556128E+02  0.51110556128E+02  0.00000000000E+00 0.  1.
          2   -1    0    0  502    0 -0.00000000000E+00 -0.00000000000E+00 -0.43380105487E+04  0.43380105487E+04  0.00000000000E+00 0. -1.
         21    1    1    2  503  501 -0.87044525624E+02  0.89734820455E+02 -0.27650955879E+02  0.12803773977E+03  0.00000000000E+00 0.  1.
          2    1    1    2  501    0  0.87044525624E+02 -0.89734820455E+02 -0.42592490367E+04  0.42610833651E+04  0.00000000000E+00 0. -1.
<mgrwt>
<rscale>  2 0.12501635E+03</rscale>
<asrwt>0</asrwt>
<pdfrwt beam="1">  1       21 0.78631603E-02 0.12501635E+03</pdfrwt>
<pdfrwt beam="2">  1        2 0.66738643E+00 0.12501635E+03</pdfrwt>
<totfact> 0.43055615E+02</totfact>
</mgrwt>
</event>
<event>
 4    1  0.5142205E+003  0.1103371E+03  0.7546771E-02  0.1259947E+00
         21   -1    0    0  501  502  0.00000000000E+00  0.00000000000E+00  0.62203101296E+01  0.62203101296E+01  0.00000000000E+00 0.  1.
          2   -1    0    0  503    0 -0.00000000000E+00 -0.00000000000E+00 -0.21331056593E+04  0.21331056593E+04  0.00000000000E+00 0.  1.
         21    1    1    2  503  502 -0.10280373151E+03  0.40070868454E+02 -0.75625599873E+03  0.76426266253E+03  0.00000000000E+00 0.  1.
          2    1    1    2  501    0  0.10280373151E+03 -0.40070868454E+02 -0.13706293504E+04  0.13750633069E+04  0.00000000000E+00 0.  1.
<mgrwt>
<rscale>  2 0.11033713E+03</rscale>
<asrwt>0</asrwt>
<pdfrwt beam="1">  1       21 0.95696975E-03 0.11033713E+03</pdfrwt>
<pdfrwt beam="2">  1        2 0.32817046E+00 0.11033713E+03</pdfrwt>
<totfact> 0.32983678E+05</totfact>
</mgrwt>
</event>
<event>
 4    1  0.5142205E+003  0.1095179E+03  0.7546771E-02  0.1261465E+00
         21   -1    0    0  503  502  0.00000000000E+00  0.00000000000E+00  0.95244007688E+02  0.95244007688E+02  0.00000000000E+00 0.  1.
          1   -1    0    0  502    0 -0.00000000000E+00 -0.00000000000E+00 -0.20307183244E+03  0.20307183244E+03  0.00000000000E+00 0.  1.
         21    1    1    2  503  501  0.84161368480E+02  0.70078720605E+02  0.38017500355E+02  0.11592882885E+03  0.00000000000E+00 0.  1.
          1    1    1    2  501    0 -0.84161368480E+02 -0.70078720605E+02 -0.14584532510E+03  0.18238701127E+03  0.00000000000E+00 0.  1.
<mgrwt>
<rscale>  2 0.10951787E+03</rscale>
<asrwt>0</asrwt>
<pdfrwt beam="1">  1       21 0.14652924E-01 0.10951787E+03</pdfrwt>
<pdfrwt beam="2">  1        1 0.31241820E-01 0.10951787E+03</pdfrwt>
<totfact> 0.63151029E+04</totfact>
</mgrwt>
</event>
<event>
 4    1  0.5142205E+003  0.1085608E+03  0.7546771E-02  0.1263258E+00
         -1   -1    0    0    0  501 -0.00000000000E+00  0.00000000000E+00  0.31889074196E+02  0.31889074196E+02  0.00000000000E+00 0.  1.
         21   -1    0    0  503  502  0.00000000000E+00 -0.00000000000E+00 -0.51328944266E+03  0.51328944266E+03  0.00000000000E+00 0. -1.
         21    1    1    2  503  501  0.90483355862E+02 -0.59985096143E+02 -0.38493684340E+03  0.39995227572E+03  0.00000000000E+00 0. -1.
         -1    1    1    2    0  502 -0.90483355862E+02  0.59985096143E+02 -0.96463525069E+02  0.14522624114E+03  0.00000000000E+00 0.  1.
<mgrwt>
<rscale>  2 0.10856081E+03</rscale>
<asrwt>0</asrwt>
<pdfrwt beam="2">  1       21 0.78967598E-01 0.10856081E+03</pdfrwt>
<pdfrwt beam="1">  1       -1 0.49060120E-02 0.10856081E+03</pdfrwt>
<totfact> 0.22610328E+04</totfact>
</mgrwt>
</event>
<event>
 4    1  0.5142205E+003  0.1200795E+03  0.7546771E-02  0.1242966E+00
          2   -1    0    0  503    0 -0.00000000000E+00  0.00000000000E+00  0.10556765195E+03  0.10556765195E+03  0.00000000000E+00 0. -1.
         21   -1    0    0  501  502  0.00000000000E+00 -0.00000000000E+00 -0.14407853428E+03  0.14407853428E+03  0.00000000000E+00 0. -1.
         21    1    1    2  503  502  0.39088708488E+02 -0.11353928570E+03 -0.47719743859E+02  0.12921404909E+03  0.00000000000E+00 0. -1.
          2    1    1    2  501    0 -0.39088708488E+02  0.11353928570E+03  0.92088615275E+01  0.12043213715E+03  0.00000000000E+00 0. -1.
<mgrwt>
<rscale>  2 0.12007954E+03</rscale>
<asrwt>0</asrwt>
<pdfrwt beam="2">  1       21 0.22165928E-01 0.12007954E+03</pdfrwt>
<pdfrwt beam="1">  1        2 0.16241177E-01 0.12007954E+03</pdfrwt>
<totfact> 0.81249746E+04</totfact>
</mgrwt>
</event>
<event>
 4    1  0.5142205E+003  0.1361396E+03  0.7546771E-02  0.1218620E+00
          1   -1    0    0  502    0 -0.00000000000E+00  0.00000000000E+00  0.78247199563E+03  0.78247199563E+03  0.00000000000E+00 0. -1.
         21   -1    0    0  503  502  0.00000000000E+00 -0.00000000000E+00 -0.23901419550E+02  0.23901419550E+02  0.00000000000E+00 0. -1.
         21    1    1    2  503  501 -0.73283515852E+02 -0.11473235400E+03  0.41752186669E+03  0.43915657335E+03  0.00000000000E+00 0. -1.
          1    1    1    2  501    0  0.73283515852E+02  0.11473235400E+03  0.34104870939E+03  0.36721684183E+03  0.00000000000E+00 0. -1.
<mgrwt>
<rscale>  2 0.13613959E+03</rscale>
<asrwt>0</asrwt>
<pdfrwt beam="2">  1       21 0.36771421E-02 0.13613959E+03</pdfrwt>
<pdfrwt beam="1">  1        1 0.12038029E+00 0.13613959E+03</pdfrwt>
<totfact> 0.11952483E+05</totfact>
</mgrwt>
</event>
<event>
 4    1  0.5142205E+003  0.2993620E+03  0.7546771E-02  0.1085560E+00
          1   -1    0    0  502    0 -0.00000000000E+00  0.00000000000E+00  0.89112363392E+03  0.89112363392E+03  0.00000000000E+00 0. -1.
         21   -1    0    0  503  502  0.00000000000E+00 -0.00000000000E+00 -0.14967184124E+03  0.14967184124E+03  0.00000000000E+00 0.  1.
         21    1    1    2  503  501  0.15115782190E+03  0.25839681692E+03  0.72649459832E+02  0.30805120699E+03  0.00000000000E+00 0.  1.
          1    1    1    2  501    0 -0.15115782190E+03 -0.25839681692E+03  0.66880233285E+03  0.73274426817E+03  0.00000000000E+00 0. -1.
<mgrwt>
<rscale>  2 0.29936199E+03</rscale>
<asrwt>0</asrwt>
<pdfrwt beam="2">  1       21 0.23026438E-01 0.29936199E+03</pdfrwt>
<pdfrwt beam="1">  1        1 0.13709594E+00 0.29936199E+03</pdfrwt>
<totfact> 0.37184291E+03</totfact>
</mgrwt>
</event>
<event>
 4    1  0.5142205E+003  0.1429243E+03  0.7546771E-02  0.1209447E+00
          2   -1    0    0  503    0 -0.00000000000E+00  0.00000000000E+00  0.12754014695E+04  0.12754014695E+04  0.00000000000E+00 0. -1.
         21   -1    0    0  501  502  0.00000000000E+00 -0.00000000000E+00 -0.38104958694E+02  0.38104958694E+02  0.00000000000E+00 0.  1.
         21    1    1    2  503  502  0.67781058114E+02 -0.12582952971E+03  0.11861932655E+03  0.18573606816E+03  0.00000000000E+00 0.  1.
          2    1    1    2  501    0 -0.67781058114E+02  0.12582952971E+03  0.11186771842E+04  0.11277703600E+04  0.00000000000E+00 0. -1.
<mgrwt>
<rscale>  2 0.14292425E+03</rscale>
<asrwt>0</asrwt>
<pdfrwt beam="2">  1       21 0.58623023E-02 0.14292425E+03</pdfrwt>
<pdfrwt beam="1">  1        2 0.19621558E+00 0.14292425E+03</pdfrwt>
<totfact> 0.47895349E+04</totfact>
</mgrwt>
</event>
<event>
 4    1  0.5142205E+003  0.1057844E+03  0.7546771E-02  0.1268582E+00
          2   -1    0    0  503    0 -0.00000000000E+00  0.00000000000E+00  0.15832973746E+03  0.15832973746E+03  0.00000000000E+00 0. -1.
         21   -1    0    0  501  502  0.00000000000E+00 -0.00000000000E+00 -0.85230723351E+02  0.85230723351E+02  0.00000000000E+00 0. -1.
         21    1    1    2  503  502 -0.76488810483E+02 -0.73073903364E+02 -0.13772720815E+02  0.10667718276E+03  0.00000000000E+00 0. -1.
          2    1    1    2  501    0  0.76488810483E+02  0.73073903364E+02  0.86871734921E+02  0.13688327805E+03  0.00000000000E+00 0. -1.
<mgrwt>
<rscale>  2 0.10578437E+03</rscale>
<asrwt>0</asrwt>
<pdfrwt beam="2">  1       21 0.13112419E-01 0.10578437E+03</pdfrwt>
<pdfrwt beam="1">  1        2 0.24358421E-01 0.10578437E+03</pdfrwt>
<totfact> 0.13294537E+05</totfact>
</mgrwt>
</event>
<event>
 4    1  0.5142205E+003  0.1062630E+03  0.7546771E-02  0.1267651E+00
         21   -1    0    0  501  502  0.00000000000E+00  0.00000000000E+00  0.13581877325E+02  0.13581877325E+02  0.00000000000E+00 0.  1.
          2   -1    0    0  503    0 -0.00000000000E+00 -0.00000000000E+00 -0.10189301688E+04  0.10189301688E+04  0.00000000000E+00 0.  1.
         21    1    1    2  503  502  0.25152636033E+02 -0.10324322920E+03 -0.28119055010E+03  0.30059930961E+03  0.00000000000E+00 0.  1.
          2    1    1    2  501    0 -0.25152636033E+02  0.10324322920E+03 -0.72415774142E+03  0.73191273655E+03  0.00000000000E+00 0.  1.
<mgrwt>
<rscale>  2 0.10626297E+03</rscale>
<asrwt>0</asrwt>
<pdfrwt beam="1">  1       21 0.20895194E-02 0.10626297E+03</pdfrwt>
<pdfrwt beam="2">  1        2 0.15675850E+00 0.10626297E+03</pdfrwt>
<totfact> 0.36469555E+05</totfact>
</mgrwt>
</event>
<event>
 4    1  0.5142205E+003  0.1067869E+03  0.7546771E-02  0.1266639E+00
          1   -1    0    0  502    0 -0.00000000000E+00  0.00000000000E+00  0.32302014395E+03  0.32302014395E+03  0.00000000000E+00 0.  1.
         21   -1    0    0  503  502  0.00000000000E+00 -0.00000000000E+00 -0.38813040003E+02  0.38813040003E+02  0.00000000000E+00 0. -1.
         21    1    1    2  503  501 -0.10255362174E+03 -0.29768904469E+02  0.87694171724E+02  0.13817995788E+03  0.00000000000E+00 0. -1.
          1    1    1    2  501    0  0.10255362174E+03  0.29768904469E+02  0.19651293223E+03  0.22365322608E+03  0.00000000000E+00 0.  1.
<mgrwt>
<rscale>  2 0.10678686E+03</rscale>
<asrwt>0</asrwt>
<pdfrwt beam="2">  1       21 0.59712371E-02 0.10678686E+03</pdfrwt>
<pdfrwt beam="1">  1        1 0.49695405E-01 0.10678686E+03</pdfrwt>
<totfact> 0.16935147E+05</totfact>
</mgrwt>
</event>
<event>
 4    1  0.5142205E+003  0.1461517E+03  0.7546771E-02  0.1205283E+00
         21   -1    0    0  501  502  0.00000000000E+00  0.00000000000E+00  0.74499720969E+03  0.74499720969E+03  0.00000000000E+00 0.  1.
          2   -1    0    0  503    0 -0.00000000000E+00 -0.00000000000E+00 -0.42631705782E+02  0.42631705782E+02  0.00000000000E+00 0.  1.
         21    1    1    2  503  502 -0.14145645945E+03  0.36747465648E+02  0.57653854862E+03  0.59477475081E+03  0.00000000000E+00 0.  1.
          2    1    1    2  501    0  0.14145645945E+03 -0.36747465648E+02  0.12582695529E+03  0.19285416466E+03  0.00000000000E+00 0.  1.
<mgrwt>
<rscale>  2 0.14615165E+03</rscale>
<asrwt>0</asrwt>
<pdfrwt beam="1">  1       21 0.11461495E+00 0.14615165E+03</pdfrwt>
<pdfrwt beam="2">  1        2 0.65587245E-02 0.14615165E+03</pdfrwt>
<totfact> 0.79060401E+03</totfact>
</mgrwt>
</event>
<event>
 4    1  0.5142205E+003  0.1128037E+03  0.7546771E-02  0.1255464E+00
         21   -1    0    0  503  502  0.00000000000E+00  0.00000000000E+00  0.61895109915E+02  0.61895109915E+02  0.00000000000E+00 0.  1.
          1   -1    0    0  502    0 -0.00000000000E+00 -0.00000000000E+00 -0.56193535828E+03  0.56193535828E+03  0.00000000000E+00 0. -1.
         21    1    1    2  503  501  0.41728928074E+02 -0.10480158862E+03 -0.16311582881E+01  0.11281550023E+03  0.00000000000E+00 0.  1.
          1    1    1    2  501    0 -0.41728928074E+02  0.10480158862E+03 -0.49840909007E+03  0.51101496796E+03  0.00000000000E+00 0. -1.
<mgrwt>
<rscale>  2 0.11280371E+03</rscale>
<asrwt>0</asrwt>
<pdfrwt beam="1">  1       21 0.95223247E-02 0.11280371E+03</pdfrwt>
<pdfrwt beam="2">  1        1 0.86451593E-01 0.11280371E+03</pdfrwt>
<totfact> 0.37829888E+04</totfact>
</mgrwt>
</event>
<event>
 4    1  0.5142205E+003  0.2096289E+03  0.7546771E-02  0.1141860E+00
          3   -1    0    0  502    0 -0.00000000000E+00  0.00000000000E+00  0.63561029821E+02  0.63561029821E+02  0.00000000000E+00 0.  1.
         21   -1    0    0  503  502  0.00000000000E+00 -0.00000000000E+00 -0.17906385046E+04  0.17906385046E+04  0.00000000000E+00 0.  1.
         21    1    1    2  503  501  0.18317525721E+03 -0.10193668284E+03 -0.15899359655E+04  0.16036959302E+04  0.00000000000E+00 0.  1.
          3    1    1    2  501    0 -0.18317525721E+03  0.10193668284E+03 -0.13714150930E+03  0.25050360424E+03  0.00000000000E+00 0.  1.
<mgrwt>
<rscale>  2 0.20962887E+03</rscale>
<asrwt>0</asrwt>
<pdfrwt beam="2">  1       21 0.27548284E+00 0.20962887E+03</pdfrwt>
<pdfrwt beam="1">  1        3 0.97786201E-02 0.20962887E+03</pdfrwt>
<totfact> 0.17613003E+02</totfact>
</mgrwt>
</event>
<event>
 4    1  0.5142205E+003  0.1291931E+03  0.7546771E-02  0.1228658E+00
          1   -1    0    0  502    0 -0.00000000000E+00  0.00000000000E+00  0.10960843796E+03  0.10960843796E+03  0.00000000000E+00 0.  1.
         21   -1    0    0  503  502  0.00000000000E+00 -0.00000000000E+00 -0.41240431824E+03  0.41240431824E+03  0.00000000000E+00 0.  1.
         21    1    1    2  503  501  0.74446628551E+02 -0.10558668093E+03 -0.35868990714E+03  0.38124702908E+03  0.00000000000E+00 0.  1.
          1    1    1    2  501    0 -0.74446628551E+02  0.10558668093E+03  0.55894026861E+02  0.14076572712E+03  0.00000000000E+00 0.  1.
<mgrwt>
<rscale>  2 0.12919306E+03</rscale>
<asrwt>0</asrwt>
<pdfrwt beam="2">  1       21 0.63446819E-01 0.12919306E+03</pdfrwt>
<pdfrwt beam="1">  1        1 0.16862836E-01 0.12919306E+03</pdfrwt>
<totfact> 0.79730602E+03</totfact>
</mgrwt>
</event>
<event>
 4    1  0.5142205E+003  0.1199123E+03  0.7546771E-02  0.1243242E+00
          1   -1    0    0  502    0 -0.00000000000E+00  0.00000000000E+00  0.63347584668E+03  0.63347584668E+03  0.00000000000E+00 0.  1.
         21   -1    0    0  503  502  0.00000000000E+00 -0.00000000000E+00 -0.41221597759E+02  0.41221597759E+02  0.00000000000E+00 0.  1.
         21    1    1    2  503  501  0.10859494118E+03 -0.50853762623E+02  0.69989309104E+02  0.13884332830E+03  0.00000000000E+00 0.  1.
          1    1    1    2  501    0 -0.10859494118E+03  0.50853762623E+02  0.52226493982E+03  0.53585411614E+03  0.00000000000E+00 0.  1.
<mgrwt>
<rscale>  2 0.11991233E+03</rscale>
<asrwt>0</asrwt>
<pdfrwt beam="2">  1       21 0.63417847E-02 0.11991233E+03</pdfrwt>
<pdfrwt beam="1">  1        1 0.97457816E-01 0.11991233E+03</pdfrwt>
<totfact> 0.64688677E+04</totfact>
</mgrwt>
</event>
<event>
 4    1  0.5142205E+003  0.1024899E+03  0.7546771E-02  0.1275145E+00
         21   -1    0    0  501  502  0.00000000000E+00  0.00000000000E+00  0.53256935424E+01  0.53256935424E+01  0.00000000000E+00 0.  1.
          1   -1    0    0  503    0 -0.00000000000E+00 -0.00000000000E+00 -0.31091032567E+04  0.31091032567E+04  0.00000000000E+00 0.  1.
         21    1    1    2  503  502 -0.58724881751E+02 -0.83997446957E+02 -0.61029815341E+03  0.61884409902E+03  0.00000000000E+00 0.  1.
          1    1    1    2  501    0  0.58724881751E+02  0.83997446957E+02 -0.24934794097E+04  0.24955848512E+04  0.00000000000E+00 0.  1.
<mgrwt>
<rscale>  2 0.10248992E+03</rscale>
<asrwt>0</asrwt>
<pdfrwt beam="1">  1       21 0.81933549E-03 0.10248992E+03</pdfrwt>
<pdfrwt beam="2">  1        1 0.47832473E+00 0.10248992E+03</pdfrwt>
<totfact> 0.37411123E+04</totfact>
</mgrwt>
</event>
<event>
 4    1  0.5142205E+003  0.2086833E+03  0.7546771E-02  0.1142613E+00
          1   -1    0    0  502    0 -0.00000000000E+00  0.00000000000E+00  0.13852685644E+03  0.13852685644E+03  0.00000000000E+00 0.  1.
         21   -1    0    0  503  502  0.00000000000E+00 -0.00000000000E+00 -0.48382944400E+03  0.48382944400E+03  0.00000000000E+00 0. -1.
         21    1    1    2  503  501  0.79580547019E+02 -0.19291362756E+03 -0.35681134864E+03  0.41335586325E+03  0.00000000000E+00 0. -1.
          1    1    1    2  501    0 -0.79580547019E+02  0.19291362756E+03  0.11508761080E+02  0.20900043719E+03  0.00000000000E+00 0.  1.
<mgrwt>
<rscale>  2 0.20868333E+03</rscale>
<asrwt>0</asrwt>
<pdfrwt beam="2">  1       21 0.74435300E-01 0.20868333E+03</pdfrwt>
<pdfrwt beam="1">  1        1 0.21311824E-01 0.20868333E+03</pdfrwt>
<totfact> 0.40749173E+03</totfact>
</mgrwt>
</event>
<event>
 4    1  0.5142205E+003  0.2028793E+03  0.7546771E-02  0.1147332E+00
         21   -1    0    0  503  502  0.00000000000E+00  0.00000000000E+00  0.91545731453E+02  0.91545731453E+02  0.00000000000E+00 0.  1.
          2   -1    0    0  502    0 -0.00000000000E+00 -0.00000000000E+00 -0.11566312807E+04  0.11566312807E+04  0.00000000000E+00 0.  1.
         21    1    1    2  503  501 -0.13281894354E+03 -0.15335946461E+03 -0.44604872065E+02  0.20772479814E+03  0.00000000000E+00 0.  1.
          2    1    1    2  501    0  0.13281894354E+03  0.15335946461E+03 -0.10204806772E+04  0.10404522141E+04  0.00000000000E+00 0.  1.
<mgrwt>
<rscale>  2 0.20287927E+03</rscale>
<asrwt>0</asrwt>
<pdfrwt beam="1">  1       21 0.14083958E-01 0.20287927E+03</pdfrwt>
<pdfrwt beam="2">  1        2 0.17794329E+00 0.20287927E+03</pdfrwt>
<totfact> 0.11847622E+04</totfact>
</mgrwt>
</event>
<event>
 4    1  0.5142205E+003  0.1410607E+03  0.7546771E-02  0.1211909E+00
          2   -1    0    0  503    0 -0.00000000000E+00  0.00000000000E+00  0.10681983540E+04  0.10681983540E+04  0.00000000000E+00 0.  1.
         21   -1    0    0  501  502  0.00000000000E+00 -0.00000000000E+00 -0.18951016133E+02  0.18951016133E+02  0.00000000000E+00 0.  1.
         21    1    1    2  503  502 -0.14086966711E+03  0.73388200315E+01  0.45362835597E+03  0.47505453027E+03  0.00000000000E+00 0.  1.
          2    1    1    2  501    0  0.14086966711E+03 -0.73388200315E+01  0.59561898191E+03  0.61209483988E+03  0.00000000000E+00 0.  1.
<mgrwt>
<rscale>  2 0.14106070E+03</rscale>
<asrwt>0</asrwt>
<pdfrwt beam="2">  1       21 0.29155418E-02 0.14106070E+03</pdfrwt>
<pdfrwt beam="1">  1        2 0.16433816E+00 0.14106070E+03</pdfrwt>
<totfact> 0.20065303E+05</totfact>
</mgrwt>
</event>
<event>
 4    1  0.5142205E+003  0.1126437E+03  0.7546771E-02  0.1255751E+00
         -3   -1    0    0    0  501 -0.00000000000E+00  0.00000000000E+00  0.88096149562E+02  0.88096149562E+02  0.00000000000E+00 0. -1.
         21   -1    0    0  503  502  0.00000000000E+00 -0.00000000000E+00 -0.76571698021E+03  0.76571698021E+03  0.00000000000E+00 0. -1.
         21    1    1    2  503  501 -0.11133693357E+03  0.17108097524E+02 -0.72347671429E+03  0.73219338696E+03  0.00000000000E+00 0. -1.
         -3    1    1    2    0  502  0.11133693357E+03 -0.17108097524E+02  0.45855883644E+02  0.12161974282E+03  0.00000000000E+00 0. -1.
<mgrwt>
<rscale>  2 0.11264369E+03</rscale>
<asrwt>0</asrwt>
<pdfrwt beam="2">  1       21 0.11780260E+00 0.11264369E+03</pdfrwt>
<pdfrwt beam="1">  1       -3 0.13553255E-01 0.11264369E+03</pdfrwt>
<totfact> 0.12145807E+03</totfact>
</mgrwt>
</event>
<event>
 4    1  0.5142205E+003  0.1743590E+03  0.7546771E-02  0.1173377E+00
         21   -1    0    0  503  502  0.00000000000E+00  0.00000000000E+00  0.73223261391E+02  0.73223261391E+02  0.00000000000E+00 0.  1.
          2   -1    0    0  502    0 -0.00000000000E+00 -0.00000000000E+00 -0.80263371335E+03  0.80263371335E+03  0.00000000000E+00 0.  1.
         21    1    1    2  503  501  0.43960266426E+02  0.16872631722E+03 -0.60439829468E+02  0.18453738952E+03  0.00000000000E+00 0.  1.
          2    1    1    2  501    0 -0.43960266426E+02 -0.16872631722E+03 -0.66897062249E+03  0.69131958522E+03  0.00000000000E+00 0.  1.
<mgrwt>
<rscale>  2 0.17435904E+03</rscale>
<asrwt>0</asrwt>
<pdfrwt beam="1">  1       21 0.11265117E-01 0.17435904E+03</pdfrwt>
<pdfrwt beam="2">  1        2 0.12348211E+00 0.17435904E+03</pdfrwt>
<totfact> 0.29429856E+04</totfact>
</mgrwt>
</event>
<event>
 4    1  0.5142205E+003  0.1307312E+03  0.7546771E-02  0.1226375E+00
         -2   -1    0    0    0  501 -0.00000000000E+00  0.00000000000E+00  0.99077589514E+02  0.99077589514E+02  0.00000000000E+00 0.  1.
         21   -1    0    0  503  502  0.00000000000E+00 -0.00000000000E+00 -0.30846483051E+03  0.30846483051E+03  0.00000000000E+00 0.  1.
         21    1    1    2  503  501  0.12130863264E+03  0.48732467215E+02 -0.23998099314E+03  0.27327918834E+03  0.00000000000E+00 0.  1.
         -2    1    1    2    0  502 -0.12130863264E+03 -0.48732467215E+02  0.30593752139E+02  0.13426323169E+03  0.00000000000E+00 0.  1.
<mgrwt>
<rscale>  2 0.13073117E+03</rscale>
<asrwt>0</asrwt>
<pdfrwt beam="2">  1       21 0.47456127E-01 0.13073117E+03</pdfrwt>
<pdfrwt beam="1">  1       -2 0.15242706E-01 0.13073117E+03</pdfrwt>
<totfact> 0.11242900E+04</totfact>
</mgrwt>
</event>
<event>
 4    1  0.5142205E+003  0.1125238E+03  0.7546771E-02  0.1255966E+00
         21   -1    0    0  501  502  0.00000000000E+00  0.00000000000E+00  0.38038381280E+02  0.38038381280E+02  0.00000000000E+00 0. -1.
          1   -1    0    0  503    0 -0.00000000000E+00 -0.00000000000E+00 -0.13542731249E+04  0.13542731249E+04  0.00000000000E+00 0. -1.
         21    1    1    2  503  502  0.29602279667E+02 -0.10856013214E+03 -0.53538157581E+02  0.12461112137E+03  0.00000000000E+00 0. -1.
          1    1    1    2  501    0 -0.29602279667E+02  0.10856013214E+03 -0.12626965860E+04  0.12677003848E+04  0.00000000000E+00 0. -1.
<mgrwt>
<rscale>  2 0.11252376E+03</rscale>
<asrwt>0</asrwt>
<pdfrwt beam="1">  1       21 0.58520599E-02 0.11252376E+03</pdfrwt>
<pdfrwt beam="2">  1        1 0.20834967E+00 0.11252376E+03</pdfrwt>
<totfact> 0.21310296E+04</totfact>
</mgrwt>
</event>
<event>
 4    1  0.5142205E+003  0.1020961E+03  0.7546771E-02  0.1275949E+00
         21   -1    0    0  503  502  0.00000000000E+00  0.00000000000E+00  0.11560001636E+03  0.11560001636E+03  0.00000000000E+00 0. -1.
          4   -1    0    0  502    0 -0.00000000000E+00 -0.00000000000E+00 -0.24870472276E+03  0.24870472276E+03  0.00000000000E+00 0. -1.
         21    1    1    2  503  501  0.83036393129E+02  0.59401824000E+02  0.78878118569E+02  0.12901696349E+03  0.00000000000E+00 0. -1.
          4    1    1    2  501    0 -0.83036393129E+02 -0.59401824000E+02 -0.21198282497E+03  0.23528777563E+03  0.00000000000E+00 0. -1.
<mgrwt>
<rscale>  2 0.10209613E+03</rscale>
<asrwt>0</asrwt>
<pdfrwt beam="1">  1       21 0.17784618E-01 0.10209613E+03</pdfrwt>
<pdfrwt beam="2">  1        4 0.38262265E-01 0.10209613E+03</pdfrwt>
<totfact> 0.76387714E+03</totfact>
</mgrwt>
</event>
<event>
 4    1  0.5142205E+003  0.1009239E+03  0.7546771E-02  0.1278365E+00
         21   -1    0    0  503  502  0.00000000000E+00  0.00000000000E+00  0.21750979824E+03  0.21750979824E+03  0.00000000000E+00 0.  1.
          1   -1    0    0  502    0 -0.00000000000E+00 -0.00000000000E+00 -0.69471307908E+03  0.69471307908E+03  0.00000000000E+00 0.  1.
         21    1    1    2  503  501 -0.10091327611E+03  0.14670071739E+01  0.20186910843E+03  0.22569177731E+03  0.00000000000E+00 0.  1.
          1    1    1    2  501    0  0.10091327611E+03 -0.14670071739E+01 -0.67907238927E+03  0.68653110001E+03  0.00000000000E+00 0.  1.
<mgrwt>
<rscale>  2 0.10092394E+03</rscale>
<asrwt>0</asrwt>
<pdfrwt beam="1">  1       21 0.33463045E-01 0.10092394E+03</pdfrwt>
<pdfrwt beam="2">  1        1 0.10687894E+00 0.10092394E+03</pdfrwt>
<totfact> 0.28615939E+03</totfact>
</mgrwt>
</event>
<event>
 4    1  0.5142205E+003  0.1131135E+03  0.7546771E-02  0.1254910E+00
         21   -1    0    0  503  502  0.00000000000E+00  0.00000000000E+00  0.13926633857E+02  0.13926633857E+02  0.00000000000E+00 0. -1.
         -1   -1    0    0    0  501 -0.00000000000E+00 -0.00000000000E+00 -0.11121474862E+04  0.11121474862E+04  0.00000000000E+00 0. -1.
         21    1    1    2  503  501  0.51787371588E+02 -0.10056205139E+03 -0.31430051915E+03  0.33403513943E+03  0.00000000000E+00 0. -1.
         -1    1    1    2    0  502 -0.51787371588E+02  0.10056205139E+03 -0.78392033316E+03  0.79203898059E+03  0.00000000000E+00 0. -1.
<mgrwt>
<rscale>  2 0.11311347E+03</rscale>
<asrwt>0</asrwt>
<pdfrwt beam="1">  1       21 0.21425591E-02 0.11311347E+03</pdfrwt>
<pdfrwt beam="2">  1       -1 0.17109961E+00 0.11311347E+03</pdfrwt>
<totfact> 0.27429547E+04</totfact>
</mgrwt>
</event>
<event>
 4    1  0.5142205E+003  0.1294557E+03  0.7546771E-02  0.1228266E+00
          2   -1    0    0  502    0 -0.00000000000E+00  0.00000000000E+00  0.39353808654E+03  0.39353808654E+03  0.00000000000E+00 0.  1.
         21   -1    0    0  503  502  0.00000000000E+00 -0.00000000000E+00 -0.90179316036E+02  0.90179316036E+02  0.00000000000E+00 0.  1.
         21    1    1    2  503  501 -0.11438667077E+03  0.60617337112E+02 -0.24026513841E+02  0.13166641704E+03  0.00000000000E+00 0.  1.
          2    1    1    2  501    0  0.11438667077E+03 -0.60617337112E+02  0.32738528435E+03  0.35205098554E+03  0.00000000000E+00 0.  1.
<mgrwt>
<rscale>  2 0.12945568E+03</rscale>
<asrwt>0</asrwt>
<pdfrwt beam="2">  1       21 0.13873741E-01 0.12945568E+03</pdfrwt>
<pdfrwt beam="1">  1        2 0.60544320E-01 0.12945568E+03</pdfrwt>
<totfact> 0.45755232E+04</totfact>
</mgrwt>
</event>
<event>
 4    1  0.5142205E+003  0.1272820E+03  0.7546771E-02  0.1231545E+00
          2   -1    0    0  502    0 -0.00000000000E+00  0.00000000000E+00  0.18711159672E+04  0.18711159672E+04  0.00000000000E+00 0. -1.
         21   -1    0    0  503  502  0.00000000000E+00 -0.00000000000E+00 -0.12948539481E+03  0.12948539481E+03  0.00000000000E+00 0.  1.
         21    1    1    2  503  501  0.40984521940E+02 -0.12050304784E+03 -0.95463194014E+02  0.15910354172E+03  0.00000000000E+00 0.  1.
          2    1    1    2  501    0 -0.40984521940E+02  0.12050304784E+03  0.18370937664E+04  0.18414978203E+04  0.00000000000E+00 0. -1.
<mgrwt>
<rscale>  2 0.12728203E+03</rscale>
<asrwt>0</asrwt>
<pdfrwt beam="2">  1       21 0.19920831E-01 0.12728203E+03</pdfrwt>
<pdfrwt beam="1">  1        2 0.28786398E+00 0.12728203E+03</pdfrwt>
<totfact> 0.27304819E+03</totfact>
</mgrwt>
</event>
<event>
 4    1  0.5142205E+003  0.1169773E+03  0.7546771E-02  0.1248169E+00
          2   -1    0    0  502    0 -0.00000000000E+00  0.00000000000E+00  0.61827742587E+03  0.61827742587E+03  0.00000000000E+00 0.  1.
         21   -1    0    0  503  502  0.00000000000E+00 -0.00000000000E+00 -0.85209329654E+03  0.85209329654E+03  0.00000000000E+00 0.  1.
         21    1    1    2  503  501  0.21431783873E+02  0.11499724959E+03 -0.84248276461E+03  0.85056504598E+03  0.00000000000E+00 0.  1.
          2    1    1    2  501    0 -0.21431783873E+02 -0.11499724959E+03  0.60866689393E+03  0.61980567644E+03  0.00000000000E+00 0.  1.
<mgrwt>
<rscale>  2 0.11697730E+03</rscale>
<asrwt>0</asrwt>
<pdfrwt beam="2">  1       21 0.13109128E+00 0.11697730E+03</pdfrwt>
<pdfrwt beam="1">  1        2 0.95119604E-01 0.11697730E+03</pdfrwt>
<totfact> 0.27873527E+02</totfact>
</mgrwt>
</event>
<event>
 4    1  0.5142205E+003  0.1352580E+03  0.7546771E-02  0.1219856E+00
         -2   -1    0    0    0  501 -0.00000000000E+00  0.00000000000E+00  0.53177614640E+03  0.53177614640E+03  0.00000000000E+00 0. -1.
         21   -1    0    0  501  502  0.00000000000E+00 -0.00000000000E+00 -0.23514298992E+03  0.23514298992E+03  0.00000000000E+00 0.  1.
         21    1    1    2  503  502  0.20797442167E+02  0.13364950817E+03 -0.20598284801E+03  0.24642170828E+03  0.00000000000E+00 0.  1.
         -2    1    1    2    0  503 -0.20797442167E+02 -0.13364950817E+03  0.50261600449E+03  0.52049742805E+03  0.00000000000E+00 0. -1.
<mgrwt>
<rscale>  2 0.13525799E+03</rscale>
<asrwt>0</asrwt>
<pdfrwt beam="2">  1       21 0.36175845E-01 0.13525799E+03</pdfrwt>
<pdfrwt beam="1">  1       -2 0.81811714E-01 0.13525799E+03</pdfrwt>
<totfact> 0.83455972E+02</totfact>
</mgrwt>
</event>
<event>
 4    1  0.5142205E+003  0.1254653E+03  0.7546771E-02  0.1234344E+00
          2   -1    0    0  503    0 -0.00000000000E+00  0.00000000000E+00  0.21192857638E+04  0.21192857638E+04  0.00000000000E+00 0.  1.
         21   -1    0    0  501  502  0.00000000000E+00 -0.00000000000E+00 -0.12429325153E+02  0.12429325153E+02  0.00000000000E+00 0.  1.
         21    1    1    2  503  502  0.60868371971E+01 -0.12531759043E+03  0.37730116729E+03  0.39761503857E+03  0.00000000000E+00 0.  1.
          2    1    1    2  501    0 -0.60868371971E+01  0.12531759043E+03  0.17295552714E+04  0.17341000504E+04  0.00000000000E+00 0.  1.
<mgrwt>
<rscale>  2 0.12546533E+03</rscale>
<asrwt>0</asrwt>
<pdfrwt beam="2">  1       21 0.19122056E-02 0.12546533E+03</pdfrwt>
<pdfrwt beam="1">  1        2 0.32604368E+00 0.12546533E+03</pdfrwt>
<totfact> 0.11163414E+05</totfact>
</mgrwt>
</event>
<event>
 4    1  0.5142205E+003  0.1219058E+03  0.7546771E-02  0.1239986E+00
          1   -1    0    0  502    0 -0.00000000000E+00  0.00000000000E+00  0.91214688750E+03  0.91214688750E+03  0.00000000000E+00 0.  1.
         21   -1    0    0  503  502  0.00000000000E+00 -0.00000000000E+00 -0.28431239881E+03  0.28431239881E+03  0.00000000000E+00 0.  1.
         21    1    1    2  503  501 -0.93199016298E+02  0.78581015633E+02 -0.26691892939E+03  0.29343951255E+03  0.00000000000E+00 0.  1.
          1    1    1    2  501    0  0.93199016298E+02 -0.78581015633E+02  0.89475341808E+03  0.90301977377E+03  0.00000000000E+00 0.  1.
<mgrwt>
<rscale>  2 0.12190584E+03</rscale>
<asrwt>0</asrwt>
<pdfrwt beam="2">  1       21 0.43740370E-01 0.12190584E+03</pdfrwt>
<pdfrwt beam="1">  1        1 0.14033029E+00 0.12190584E+03</pdfrwt>
<totfact> 0.11031004E+03</totfact>
</mgrwt>
</event>
<event>
 4    1  0.5142205E+003  0.1787669E+03  0.7546771E-02  0.1169002E+00
         -1   -1    0    0    0  501 -0.00000000000E+00  0.00000000000E+00  0.47188878218E+03  0.47188878218E+03  0.00000000000E+00 0.  1.
         21   -1    0    0  501  502  0.00000000000E+00 -0.00000000000E+00 -0.13906744589E+03  0.13906744589E+03  0.00000000000E+00 0.  1.
         21    1    1    2  503  502  0.16456889115E+03  0.69818863603E+02 -0.52389820118E+02  0.18628549836E+03  0.00000000000E+00 0.  1.
         -1    1    1    2    0  503 -0.16456889115E+03 -0.69818863603E+02  0.38521115641E+03  0.42467072971E+03  0.00000000000E+00 0.  1.
<mgrwt>
<rscale>  2 0.17876687E+03</rscale>
<asrwt>0</asrwt>
<pdfrwt beam="2">  1       21 0.21394992E-01 0.17876687E+03</pdfrwt>
<pdfrwt beam="1">  1       -1 0.72598273E-01 0.17876687E+03</pdfrwt>
<totfact> 0.37897965E+03</totfact>
</mgrwt>
</event>
<event>
 4    1  0.5142205E+003  0.1866279E+03  0.7546771E-02  0.1161538E+00
          1   -1    0    0  502    0 -0.00000000000E+00  0.00000000000E+00  0.38515673159E+04  0.38515673159E+04  0.00000000000E+00 0.  1.
         21   -1    0    0  503  502  0.00000000000E+00 -0.00000000000E+00 -0.13827460426E+02  0.13827460426E+02  0.00000000000E+00 0.  1.
         21    1    1    2  503  501 -0.18149032377E+03 -0.43488533782E+02  0.78201254811E+03  0.80397364110E+03  0.00000000000E+00 0.  1.
          1    1    1    2  501    0  0.18149032377E+03  0.43488533782E+02  0.30557273074E+04  0.30614211352E+04  0.00000000000E+00 0.  1.
<mgrwt>
<rscale>  2 0.18662795E+03</rscale>
<asrwt>0</asrwt>
<pdfrwt beam="2">  1       21 0.21273047E-02 0.18662795E+03</pdfrwt>
<pdfrwt beam="1">  1        1 0.59254796E+00 0.18662795E+03</pdfrwt>
<totfact> 0.21880592E+03</totfact>
</mgrwt>
</event>
<event>
 4    1  0.5142205E+003  0.1166422E+03  0.7546771E-02  0.1248741E+00
         -2   -1    0    0    0  501 -0.00000000000E+00  0.00000000000E+00  0.16677575616E+03  0.16677575616E+03  0.00000000000E+00 0. -1.
         21   -1    0    0  503  502  0.00000000000E+00 -0.00000000000E+00 -0.99225511076E+02  0.99225511076E+02  0.00000000000E+00 0. -1.
         21    1    1    2  503  501  0.11331080998E+03 -0.27677912567E+02 -0.22313004930E+02  0.11875721743E+03  0.00000000000E+00 0. -1.
         -2    1    1    2    0  502 -0.11331080998E+03  0.27677912567E+02  0.89863250015E+02  0.14724404981E+03  0.00000000000E+00 0. -1.
<mgrwt>
<rscale>  2 0.11664222E+03</rscale>
<asrwt>0</asrwt>
<pdfrwt beam="2">  1       21 0.15265463E-01 0.11664222E+03</pdfrwt>
<pdfrwt beam="1">  1       -2 0.25657809E-01 0.11664222E+03</pdfrwt>
<totfact> 0.40661361E+04</totfact>
</mgrwt>
</event>
<event>
 4    1  0.5142205E+003  0.1024098E+03  0.7546771E-02  0.1275308E+00
         21   -1    0    0  503  502  0.00000000000E+00  0.00000000000E+00  0.90703053074E+02  0.90703053074E+02  0.00000000000E+00 0.  1.
          1   -1    0    0  502    0 -0.00000000000E+00 -0.00000000000E+00 -0.42838145835E+03  0.42838145835E+03  0.00000000000E+00 0. -1.
         21    1    1    2  503  501  0.10317984470E+02 -0.10188874526E+03  0.52926343173E+02  0.11527781667E+03  0.00000000000E+00 0.  1.
          1    1    1    2  501    0 -0.10317984470E+02  0.10188874526E+03 -0.39060474845E+03  0.40380669475E+03  0.00000000000E+00 0. -1.
<mgrwt>
<rscale>  2 0.10240985E+03</rscale>
<asrwt>0</asrwt>
<pdfrwt beam="1">  1       21 0.13954316E-01 0.10240985E+03</pdfrwt>
<pdfrwt beam="2">  1        1 0.65904841E-01 0.10240985E+03</pdfrwt>
<totfact> 0.27408077E+04</totfact>
</mgrwt>
</event>
<event>
 4    1  0.5142205E+003  0.1146305E+03  0.7546771E-02  0.1252228E+00
         21   -1    0    0  503  502  0.00000000000E+00  0.00000000000E+00  0.68626039585E+02  0.68626039585E+02  0.00000000000E+00 0. -1.
          2   -1    0    0  502    0 -0.00000000000E+00 -0.00000000000E+00 -0.17069049283E+04  0.17069049283E+04  0.00000000000E+00 0. -1.
         21    1    1    2  503  501 -0.10265057383E+03 -0.51019658191E+02  0.17352132173E+02  0.11593637186E+03  0.00000000000E+00 0. -1.
          2    1    1    2  501    0  0.10265057383E+03  0.51019658191E+02 -0.16556310209E+04  0.16595945960E+04  0.00000000000E+00 0. -1.
<mgrwt>
<rscale>  2 0.11463048E+03</rscale>
<asrwt>0</asrwt>
<pdfrwt beam="1">  1       21 0.10557852E-01 0.11463048E+03</pdfrwt>
<pdfrwt beam="2">  1        2 0.26260076E+00 0.11463048E+03</pdfrwt>
<totfact> 0.10439250E+04</totfact>
</mgrwt>
</event>
<event>
 4    1  0.5142205E+003  0.1213896E+03  0.7546771E-02  0.1240822E+00
          2   -1    0    0  502    0 -0.00000000000E+00  0.00000000000E+00  0.42128654379E+02  0.42128654379E+02  0.00000000000E+00 0.  1.
         21   -1    0    0  503  502  0.00000000000E+00 -0.00000000000E+00 -0.40519956913E+03  0.40519956913E+03  0.00000000000E+00 0.  1.
         21    1    1    2  503  501  0.66881538156E+00  0.12138778979E+03 -0.26425782477E+03  0.29080515948E+03  0.00000000000E+00 0.  1.
          2    1    1    2  501    0 -0.66881538156E+00 -0.12138778979E+03 -0.98813089980E+02  0.15652306404E+03  0.00000000000E+00 0.  1.
<mgrwt>
<rscale>  2 0.12138963E+03</rscale>
<asrwt>0</asrwt>
<pdfrwt beam="2">  1       21 0.62338398E-01 0.12138963E+03</pdfrwt>
<pdfrwt beam="1">  1        2 0.64813312E-02 0.12138963E+03</pdfrwt>
<totfact> 0.31994862E+04</totfact>
</mgrwt>
</event>
<event>
 4    1  0.5142205E+003  0.1528411E+03  0.7546771E-02  0.1197025E+00
          1   -1    0    0  503    0 -0.00000000000E+00  0.00000000000E+00  0.11210628511E+04  0.11210628511E+04  0.00000000000E+00 0.  1.
         21   -1    0    0  501  502  0.00000000000E+00 -0.00000000000E+00 -0.92970630220E+02  0.92970630220E+02  0.00000000000E+00 0.  1.
         21    1    1    2  503  502  0.15212824579E+03 -0.14744459267E+02 -0.20634561841E+02  0.15422771278E+03  0.00000000000E+00 0.  1.
          1    1    1    2  501    0 -0.15212824579E+03  0.14744459267E+02  0.10487267827E+04  0.10598057685E+04  0.00000000000E+00 0.  1.
<mgrwt>
<rscale>  2 0.15284110E+03</rscale>
<asrwt>0</asrwt>
<pdfrwt beam="2">  1       21 0.14303175E-01 0.15284110E+03</pdfrwt>
<pdfrwt beam="1">  1        1 0.17247120E+00 0.15284110E+03</pdfrwt>
<totfact> 0.63777347E+03</totfact>
</mgrwt>
</event>
<event>
 4    1  0.5142205E+003  0.1113650E+03  0.7546771E-02  0.1258063E+00
         21   -1    0    0  501  502  0.00000000000E+00  0.00000000000E+00  0.50259880774E+02  0.50259880774E+02  0.00000000000E+00 0. -1.
          2   -1    0    0  503    0 -0.00000000000E+00 -0.00000000000E+00 -0.29333493910E+03  0.29333493910E+03  0.00000000000E+00 0. -1.
         21    1    1    2  503  502 -0.84565091983E+02 -0.72463157405E+02 -0.53082155878E+02  0.12336887466E+03  0.00000000000E+00 0. -1.
          2    1    1    2  501    0  0.84565091983E+02  0.72463157405E+02 -0.18999290245E+03  0.22022594521E+03  0.00000000000E+00 0. -1.
<mgrwt>
<rscale>  2 0.11136500E+03</rscale>
<asrwt>0</asrwt>
<pdfrwt beam="1">  1       21 0.77322892E-02 0.11136500E+03</pdfrwt>
<pdfrwt beam="2">  1        2 0.45128453E-01 0.11136500E+03</pdfrwt>
<totfact> 0.17301019E+05</totfact>
</mgrwt>
</event>
<event>
 4    1  0.5142205E+003  0.1458994E+03  0.7546771E-02  0.1205604E+00
         -1   -1    0    0    0  501 -0.00000000000E+00  0.00000000000E+00  0.14454491126E+03  0.14454491126E+03  0.00000000000E+00 0. -1.
         21   -1    0    0  503  502  0.00000000000E+00 -0.00000000000E+00 -0.15169599738E+03  0.15169599738E+03  0.00000000000E+00 0. -1.
         21    1    1    2  503  501  0.48804932913E+02 -0.13749439676E+03 -0.28886156709E+02  0.14873143806E+03  0.00000000000E+00 0. -1.
         -1    1    1    2    0  502 -0.48804932913E+02  0.13749439676E+03  0.21735070585E+02  0.14750947058E+03  0.00000000000E+00 0. -1.
<mgrwt>
<rscale>  2 0.14589939E+03</rscale>
<asrwt>0</asrwt>
<pdfrwt beam="2">  1       21 0.23337846E-01 0.14589939E+03</pdfrwt>
<pdfrwt beam="1">  1       -1 0.22237679E-01 0.14589939E+03</pdfrwt>
<totfact> 0.26493916E+04</totfact>
</mgrwt>
</event>
<event>
 4    1  0.5142205E+003  0.1391414E+03  0.7546771E-02  0.1214489E+00
         21   -1    0    0  501  502  0.00000000000E+00  0.00000000000E+00  0.14788199976E+03  0.14788199976E+03  0.00000000000E+00 0.  1.
          1   -1    0    0  503    0 -0.00000000000E+00 -0.00000000000E+00 -0.44431454705E+03  0.44431454705E+03  0.00000000000E+00 0. -1.
         21    1    1    2  503  502  0.13522418018E+03 -0.32783358958E+02  0.10046216112E+03  0.17161868589E+03  0.00000000000E+00 0.  1.
          1    1    1    2  501    0 -0.13522418018E+03  0.32783358958E+02 -0.39689470841E+03  0.42057786092E+03  0.00000000000E+00 0. -1.
<mgrwt>
<rscale>  2 0.13914139E+03</rscale>
<asrwt>0</asrwt>
<pdfrwt beam="1">  1       21 0.22751077E-01 0.13914139E+03</pdfrwt>
<pdfrwt beam="2">  1        1 0.68356083E-01 0.13914139E+03</pdfrwt>
<totfact> 0.10668977E+04</totfact>
</mgrwt>
</event>
<event>
 4    1  0.5142205E+003  0.1149146E+03  0.7546771E-02  0.1251730E+00
         21   -1    0    0  503  502  0.00000000000E+00  0.00000000000E+00  0.93320727084E+02  0.93320727084E+02  0.00000000000E+00 0.  1.
          2   -1    0    0  502    0 -0.00000000000E+00 -0.00000000000E+00 -0.31332963412E+03  0.31332963412E+03  0.00000000000E+00 0.  1.
         21    1    1    2  503  501 -0.11063072418E+03 -0.31083764575E+02  0.40563669178E+02  0.12186373050E+03  0.00000000000E+00 0.  1.
          2    1    1    2  501    0  0.11063072418E+03  0.31083764575E+02 -0.26057257622E+03  0.28478663071E+03  0.00000000000E+00 0.  1.
<mgrwt>
<rscale>  2 0.11491457E+03</rscale>
<asrwt>0</asrwt>
<pdfrwt beam="1">  1       21 0.14357035E-01 0.11491457E+03</pdfrwt>
<pdfrwt beam="2">  1        2 0.48204559E-01 0.11491457E+03</pdfrwt>
<totfact> 0.54690407E+04</totfact>
</mgrwt>
</event>
<event>
 4    1  0.5142205E+003  0.1362372E+03  0.7546771E-02  0.1218484E+00
         21   -1    0    0  501  502  0.00000000000E+00  0.00000000000E+00  0.71977118207E+02  0.71977118207E+02  0.00000000000E+00 0.  1.
          2   -1    0    0  503    0 -0.00000000000E+00 -0.00000000000E+00 -0.28426196402E+04  0.28426196402E+04  0.00000000000E+00 0.  1.
         21    1    1    2  503  502  0.13191359197E+03  0.34049736852E+02  0.43066653898E+01  0.13630527390E+03  0.00000000000E+00 0.  1.
          2    1    1    2  501    0 -0.13191359197E+03 -0.34049736852E+02 -0.27749491873E+04  0.27782914845E+04  0.00000000000E+00 0.  1.
<mgrwt>
<rscale>  2 0.13623722E+03</rscale>
<asrwt>0</asrwt>
<pdfrwt beam="1">  1       21 0.11073403E-01 0.13623722E+03</pdfrwt>
<pdfrwt beam="2">  1        2 0.43732609E+00 0.13623722E+03</pdfrwt>
<totfact> 0.23969218E+03</totfact>
</mgrwt>
</event>
<event>
 4    1  0.5142205E+003  0.1110423E+03  0.7546771E-02  0.1258652E+00
         21   -1    0    0  501  502  0.00000000000E+00  0.00000000000E+00  0.16370764678E+03  0.16370764678E+03  0.00000000000E+00 0.  1.
          1   -1    0    0  503    0 -0.00000000000E+00 -0.00000000000E+00 -0.24631876541E+03  0.24631876541E+03  0.00000000000E+00 0.  1.
         21    1    1    2  503  502  0.11096806417E+03 -0.40592095511E+01  0.12951106297E+03  0.17059749084E+03  0.00000000000E+00 0.  1.
          1    1    1    2  501    0 -0.11096806417E+03  0.40592095511E+01 -0.21212218160E+03  0.23942892134E+03  0.00000000000E+00 0.  1.
<mgrwt>
<rscale>  2 0.11104228E+03</rscale>
<asrwt>0</asrwt>
<pdfrwt beam="1">  1       21 0.25185792E-01 0.11104228E+03</pdfrwt>
<pdfrwt beam="2">  1        1 0.37895194E-01 0.11104228E+03</pdfrwt>
<totfact> 0.18430687E+04</totfact>
</mgrwt>
</event>
<event>
 4    1  0.5142205E+003  0.1012816E+03  0.7546771E-02  0.1277624E+00
          2   -1    0    0  503    0 -0.00000000000E+00  0.00000000000E+00  0.69679578115E+03  0.69679578115E+03  0.00000000000E+00 0.  1.
         21   -1    0    0  501  502  0.00000000000E+00 -0.00000000000E+00 -0.72711819179E+02  0.72711819179E+02  0.00000000000E+00 0.  1.
         21    1    1    2  503  502  0.41690867391E+02  0.92302945271E+02 -0.31561627515E+02  0.10608533575E+03  0.00000000000E+00 0.  1.
          2    1    1    2  501    0 -0.41690867391E+02 -0.92302945271E+02  0.65564558948E+03  0.66342226458E+03  0.00000000000E+00 0.  1.
<mgrwt>
<rscale>  2 0.10128160E+03</rscale>
<asrwt>0</asrwt>
<pdfrwt beam="2">  1       21 0.11186434E-01 0.10128160E+03</pdfrwt>
<pdfrwt beam="1">  1        2 0.10719935E+00 0.10128160E+03</pdfrwt>
<totfact> 0.35592596E+04</totfact>
</mgrwt>
</event>
<event>
 4    1  0.5142205E+003  0.1073684E+03  0.7546771E-02  0.1265522E+00
          2   -1    0    0  502    0 -0.00000000000E+00  0.00000000000E+00  0.29319899131E+03  0.29319899131E+03  0.00000000000E+00 0. -1.
         21   -1    0    0  503  502  0.00000000000E+00 -0.00000000000E+00 -0.85593667274E+02  0.85593667274E+02  0.00000000000E+00 0. -1.
         21    1    1    2  503  501 -0.72357489534E+02  0.79324396566E+02 -0.35457723695E+02  0.11307173100E+03  0.00000000000E+00 0. -1.
          2    1    1    2  501    0  0.72357489534E+02 -0.79324396566E+02  0.24306304773E+03  0.26572092758E+03  0.00000000000E+00 0. -1.
<mgrwt>
<rscale>  2 0.10736837E+03</rscale>
<asrwt>0</asrwt>
<pdfrwt beam="2">  1       21 0.13168257E-01 0.10736837E+03</pdfrwt>
<pdfrwt beam="1">  1        2 0.45107537E-01 0.10736837E+03</pdfrwt>
<totfact> 0.68322714E+04</totfact>
</mgrwt>
</event>
<event>
 4    1  0.5142205E+003  0.1021678E+03  0.7546771E-02  0.1275802E+00
          2   -1    0    0  503    0 -0.00000000000E+00  0.00000000000E+00  0.13314778420E+04  0.13314778420E+04  0.00000000000E+00 0.  1.
         21   -1    0    0  501  502  0.00000000000E+00 -0.00000000000E+00 -0.83573604180E+01  0.83573604180E+01  0.00000000000E+00 0.  1.
         21    1    1    2  503  502  0.19836305245E+02  0.10022361210E+03  0.49481557167E+03  0.50525310627E+03  0.00000000000E+00 0.  1.
          2    1    1    2  501    0 -0.19836305245E+02 -0.10022361210E+03  0.82830490990E+03  0.83458209614E+03  0.00000000000E+00 0.  1.
<mgrwt>
<rscale>  2 0.10216776E+03</rscale>
<asrwt>0</asrwt>
<pdfrwt beam="2">  1       21 0.12857488E-02 0.10216776E+03</pdfrwt>
<pdfrwt beam="1">  1        2 0.20484258E+00 0.10216776E+03</pdfrwt>
<totfact> 0.53028166E+05</totfact>
</mgrwt>
</event>
<event>
 4    1  0.5142205E+003  0.1158846E+03  0.7546771E-02  0.1250045E+00
          2   -1    0    0  503    0 -0.00000000000E+00  0.00000000000E+00  0.12034435162E+04  0.12034435162E+04  0.00000000000E+00 0.  1.
         21   -1    0    0  501  502  0.00000000000E+00 -0.00000000000E+00 -0.20279765727E+02  0.20279765727E+02  0.00000000000E+00 0.  1.
         21    1    1    2  503  502  0.10525478408E+03  0.48483826568E+02  0.18124842708E+03  0.21512843449E+03  0.00000000000E+00 0.  1.
          2    1    1    2  501    0 -0.10525478408E+03 -0.48483826568E+02  0.10019153234E+04  0.10085948474E+04  0.00000000000E+00 0.  1.
<mgrwt>
<rscale>  2 0.11588465E+03</rscale>
<asrwt>0</asrwt>
<pdfrwt beam="2">  1       21 0.31199649E-02 0.11588465E+03</pdfrwt>
<pdfrwt beam="1">  1        2 0.18514510E+00 0.11588465E+03</pdfrwt>
<totfact> 0.15002759E+05</totfact>
</mgrwt>
</event>
<event>
 4    1  0.5142205E+003  0.1812025E+03  0.7546771E-02  0.1166644E+00
          2   -1    0    0  503    0 -0.00000000000E+00  0.00000000000E+00  0.44545988127E+03  0.44545988127E+03  0.00000000000E+00 0.  1.
         21   -1    0    0  501  502  0.00000000000E+00 -0.00000000000E+00 -0.81318543229E+02  0.81318543229E+02  0.00000000000E+00 0.  1.
         21    1    1    2  503  502 -0.17844579083E+03 -0.31487166205E+02  0.10149825835E+03  0.20769265357E+03  0.00000000000E+00 0.  1.
          2    1    1    2  501    0  0.17844579083E+03  0.31487166205E+02  0.26264307969E+03  0.31908577093E+03  0.00000000000E+00 0.  1.
<mgrwt>
<rscale>  2 0.18120249E+03</rscale>
<asrwt>0</asrwt>
<pdfrwt beam="2">  1       21 0.12510545E-01 0.18120249E+03</pdfrwt>
<pdfrwt beam="1">  1        2 0.68532288E-01 0.18120249E+03</pdfrwt>
<totfact> 0.48232879E+04</totfact>
</mgrwt>
</event>
<event>
 4    1  0.5142205E+003  0.1123276E+03  0.7546771E-02  0.1256319E+00
          1   -1    0    0  503    0 -0.00000000000E+00  0.00000000000E+00  0.83615845565E+03  0.83615845565E+03  0.00000000000E+00 0.  1.
         21   -1    0    0  501  502  0.00000000000E+00 -0.00000000000E+00 -0.12475816251E+03  0.12475816251E+03  0.00000000000E+00 0.  1.
         21    1    1    2  503  502 -0.10413809294E+03  0.42104009464E+02 -0.94765670966E+02  0.14696265651E+03  0.00000000000E+00 0.  1.
          1    1    1    2  501    0  0.10413809294E+03 -0.42104009464E+02  0.80616596410E+03  0.81395396165E+03  0.00000000000E+00 0.  1.
<mgrwt>
<rscale>  2 0.11232760E+03</rscale>
<asrwt>0</asrwt>
<pdfrwt beam="2">  1       21 0.19193564E-01 0.11232760E+03</pdfrwt>
<pdfrwt beam="1">  1        1 0.12863976E+00 0.11232760E+03</pdfrwt>
<totfact> 0.61798576E+03</totfact>
</mgrwt>
</event>
<event>
 4    1  0.5142205E+003  0.1437474E+03  0.7546771E-02  0.1208374E+00
         -4   -1    0    0    0  501 -0.00000000000E+00  0.00000000000E+00  0.22188543954E+03  0.22188543954E+03  0.00000000000E+00 0.  1.
         21   -1    0    0  503  502  0.00000000000E+00 -0.00000000000E+00 -0.18143527962E+04  0.18143527962E+04  0.00000000000E+00 0.  1.
         21    1    1    2  503  501 -0.14074847830E+03 -0.29209096252E+02 -0.17878799229E+04  0.17936493314E+04  0.00000000000E+00 0.  1.
         -4    1    1    2    0  502  0.14074847830E+03  0.29209096252E+02  0.19541256624E+03  0.24258890430E+03  0.00000000000E+00 0.  1.
<mgrwt>
<rscale>  2 0.14374737E+03</rscale>
<asrwt>0</asrwt>
<pdfrwt beam="2">  1       21 0.27913120E+00 0.14374737E+03</pdfrwt>
<pdfrwt beam="1">  1       -4 0.34136222E-01 0.14374737E+03</pdfrwt>
<totfact> 0.16452796E+01</totfact>
</mgrwt>
</event>
<event>
 4    1  0.5142205E+003  0.1586871E+03  0.7546771E-02  0.1190187E+00
          2   -1    0    0  503    0 -0.00000000000E+00  0.00000000000E+00  0.15772096318E+04  0.15772096318E+04  0.00000000000E+00 0.  1.
         21   -1    0    0  501  502  0.00000000000E+00 -0.00000000000E+00 -0.16409902517E+02  0.16409902517E+02  0.00000000000E+00 0.  1.
         21    1    1    2  503  502  0.78525903780E+02  0.13789586180E+03  0.64933396525E+03  0.66844310505E+03  0.00000000000E+00 0.  1.
          2    1    1    2  501    0 -0.78525903780E+02 -0.13789586180E+03  0.91146576406E+03  0.92517642930E+03  0.00000000000E+00 0.  1.
<mgrwt>
<rscale>  2 0.15868707E+03</rscale>
<asrwt>0</asrwt>
<pdfrwt beam="2">  1       21 0.25246016E-02 0.15868707E+03</pdfrwt>
<pdfrwt beam="1">  1        2 0.24264752E+00 0.15868707E+03</pdfrwt>
<totfact> 0.13466562E+05</totfact>
</mgrwt>
</event>
<event>
 4    1  0.5142205E+003  0.1473938E+03  0.7546771E-02  0.1203712E+00
         21   -1    0    0  503  502  0.00000000000E+00  0.00000000000E+00  0.84734210397E+02  0.84734210397E+02  0.00000000000E+00 0.  1.
          2   -1    0    0  502    0 -0.00000000000E+00 -0.00000000000E+00 -0.68054450173E+03  0.68054450173E+03  0.00000000000E+00 0.  1.
         21    1    1    2  503  501  0.13819419014E+03 -0.51257295076E+02  0.41761068713E+01  0.14745299033E+03  0.00000000000E+00 0.  1.
          2    1    1    2  501    0 -0.13819419014E+03  0.51257295076E+02 -0.59998639820E+03  0.61782572180E+03  0.00000000000E+00 0.  1.
<mgrwt>
<rscale>  2 0.14739384E+03</rscale>
<asrwt>0</asrwt>
<pdfrwt beam="1">  1       21 0.13036032E-01 0.14739384E+03</pdfrwt>
<pdfrwt beam="2">  1        2 0.10469916E+00 0.14739384E+03</pdfrwt>
<totfact> 0.27826045E+04</totfact>
</mgrwt>
</event>
<event>
 4    1  0.5142205E+003  0.1338152E+03  0.7546771E-02  0.1221902E+00
          2   -1    0    0  503    0 -0.00000000000E+00  0.00000000000E+00  0.20509448280E+03  0.20509448280E+03  0.00000000000E+00 0.  1.
         21   -1    0    0  501  502  0.00000000000E+00 -0.00000000000E+00 -0.60829760741E+03  0.60829760741E+03  0.00000000000E+00 0.  1.
         21    1    1    2  503  502  0.12792681809E+03  0.39258495032E+02 -0.57798126883E+03  0.59326962449E+03  0.00000000000E+00 0.  1.
          2    1    1    2  501    0 -0.12792681809E+03 -0.39258495032E+02  0.17477814422E+03  0.22012246572E+03  0.00000000000E+00 0.  1.
<mgrwt>
<rscale>  2 0.13381517E+03</rscale>
<asrwt>0</asrwt>
<pdfrwt beam="2">  1       21 0.93584246E-01 0.13381517E+03</pdfrwt>
<pdfrwt beam="1">  1        2 0.31552998E-01 0.13381517E+03</pdfrwt>
<totfact> 0.20169978E+03</totfact>
</mgrwt>
</event>
<event>
 4    1  0.5142205E+003  0.1050516E+03  0.7546771E-02  0.1270018E+00
          1   -1    0    0  503    0 -0.00000000000E+00  0.00000000000E+00  0.33966871704E+03  0.33966871704E+03  0.00000000000E+00 0.  1.
         21   -1    0    0  501  502  0.00000000000E+00 -0.00000000000E+00 -0.88433279228E+02  0.88433279228E+02  0.00000000000E+00 0. -1.
         21    1    1    2  503  502 -0.10480482360E+03 -0.71965387166E+01 -0.44630783319E+02  0.11413916085E+03  0.00000000000E+00 0. -1.
          1    1    1    2  501    0  0.10480482360E+03  0.71965387166E+01  0.29586622113E+03  0.31396283542E+03  0.00000000000E+00 0.  1.
<mgrwt>
<rscale>  2 0.10505161E+03</rscale>
<asrwt>0</asrwt>
<pdfrwt beam="2">  1       21 0.13605120E-01 0.10505161E+03</pdfrwt>
<pdfrwt beam="1">  1        1 0.52256725E-01 0.10505161E+03</pdfrwt>
<totfact> 0.38278561E+04</totfact>
</mgrwt>
</event>
<event>
 4    1  0.5142205E+003  0.1681132E+03  0.7546771E-02  0.1179830E+00
         -2   -1    0    0    0  501 -0.00000000000E+00  0.00000000000E+00  0.73833957708E+03  0.73833957708E+03  0.00000000000E+00 0. -1.
         21   -1    0    0  501  502  0.00000000000E+00 -0.00000000000E+00 -0.38455382348E+02  0.38455382348E+02  0.00000000000E+00 0. -1.
         21    1    1    2  503  502 -0.15228790771E+03 -0.71206988099E+02  0.32355130239E+03  0.36461964740E+03  0.00000000000E+00 0. -1.
         -2    1    1    2    0  503  0.15228790771E+03  0.71206988099E+02  0.37633289234E+03  0.41217531203E+03  0.00000000000E+00 0. -1.
<mgrwt>
<rscale>  2 0.16811318E+03</rscale>
<asrwt>0</asrwt>
<pdfrwt beam="2">  1       21 0.59162132E-02 0.16811318E+03</pdfrwt>
<pdfrwt beam="1">  1       -2 0.11359069E+00 0.16811318E+03</pdfrwt>
<totfact> 0.10534967E+04</totfact>
</mgrwt>
</event>
<event>
 4    1  0.5142205E+003  0.1100414E+03  0.7546771E-02  0.1260493E+00
          2   -1    0    0  502    0 -0.00000000000E+00  0.00000000000E+00  0.41403063334E+03  0.41403063334E+03  0.00000000000E+00 0. -1.
         21   -1    0    0  503  502  0.00000000000E+00 -0.00000000000E+00 -0.52902534631E+02  0.52902534631E+02  0.00000000000E+00 0. -1.
         21    1    1    2  503  501  0.87906864441E+02  0.66192876592E+02  0.24445767107E+02  0.11272404028E+03  0.00000000000E+00 0. -1.
          2    1    1    2  501    0 -0.87906864441E+02 -0.66192876592E+02  0.33668233160E+03  0.35420912769E+03  0.00000000000E+00 0. -1.
<mgrwt>
<rscale>  2 0.11004142E+03</rscale>
<asrwt>0</asrwt>
<pdfrwt beam="2">  1       21 0.81388517E-02 0.11004142E+03</pdfrwt>
<pdfrwt beam="1">  1        2 0.63697018E-01 0.11004142E+03</pdfrwt>
<totfact> 0.11007566E+05</totfact>
</mgrwt>
</event>
<event>
 4    1  0.5142205E+003  0.1357438E+03  0.7546771E-02  0.1219173E+00
         21   -1    0    0  503  502  0.00000000000E+00  0.00000000000E+00  0.34554481963E+03  0.34554481963E+03  0.00000000000E+00 0. -1.
          2   -1    0    0  502    0 -0.00000000000E+00 -0.00000000000E+00 -0.44298848917E+03  0.44298848917E+03  0.00000000000E+00 0. -1.
         21    1    1    2  503  501  0.18197278590E+02 -0.13451855519E+03  0.32105385307E+03  0.34857131151E+03  0.00000000000E+00 0. -1.
          2    1    1    2  501    0 -0.18197278590E+02  0.13451855519E+03 -0.41849752260E+03  0.43996199730E+03  0.00000000000E+00 0. -1.
<mgrwt>
<rscale>  2 0.13574381E+03</rscale>
<asrwt>0</asrwt>
<pdfrwt beam="1">  1       21 0.53160742E-01 0.13574381E+03</pdfrwt>
<pdfrwt beam="2">  1        2 0.68152075E-01 0.13574381E+03</pdfrwt>
<totfact> 0.30590285E+03</totfact>
</mgrwt>
</event>
<event>
 4    1  0.5142205E+003  0.1247117E+03  0.7546771E-02  0.1235521E+00
          2   -1    0    0  502    0 -0.00000000000E+00  0.00000000000E+00  0.42015937012E+03  0.42015937012E+03  0.00000000000E+00 0. -1.
         21   -1    0    0  503  502  0.00000000000E+00 -0.00000000000E+00 -0.21383852597E+03  0.21383852597E+03  0.00000000000E+00 0.  1.
         21    1    1    2  503  501  0.11992126772E+03  0.34232836439E+02 -0.18509835142E+03  0.22319139150E+03  0.00000000000E+00 0.  1.
          2    1    1    2  501    0 -0.11992126772E+03 -0.34232836439E+02  0.39141919558E+03  0.41080650459E+03  0.00000000000E+00 0. -1.
<mgrwt>
<rscale>  2 0.12471166E+03</rscale>
<asrwt>0</asrwt>
<pdfrwt beam="2">  1       21 0.32898235E-01 0.12471166E+03</pdfrwt>
<pdfrwt beam="1">  1        2 0.64639903E-01 0.12471166E+03</pdfrwt>
<totfact> 0.85451937E+03</totfact>
</mgrwt>
</event>
<event>
 4    1  0.5142205E+003  0.1068044E+03  0.7546771E-02  0.1266605E+00
         21   -1    0    0  501  502  0.00000000000E+00  0.00000000000E+00  0.20687769551E+02  0.20687769551E+02  0.00000000000E+00 0. -1.
          2   -1    0    0  503    0 -0.00000000000E+00 -0.00000000000E+00 -0.60581636562E+03  0.60581636562E+03  0.00000000000E+00 0. -1.
         21    1    1    2  503  502 -0.10427298995E+03  0.23115300852E+02 -0.19867841845E+03  0.22556659222E+03  0.00000000000E+00 0. -1.
          2    1    1    2  501    0  0.10427298995E+03 -0.23115300852E+02 -0.38645017763E+03  0.40093754296E+03  0.00000000000E+00 0. -1.
<mgrwt>
<rscale>  2 0.10680437E+03</rscale>
<asrwt>0</asrwt>
<pdfrwt beam="1">  1       21 0.31827339E-02 0.10680437E+03</pdfrwt>
<pdfrwt beam="2">  1        2 0.93202513E-01 0.10680437E+03</pdfrwt>
<totfact> 0.34971086E+05</totfact>
</mgrwt>
</event>
<event>
 4    1  0.5142205E+003  0.1045033E+03  0.7546771E-02  0.1271101E+00
          1   -1    0    0  503    0 -0.00000000000E+00  0.00000000000E+00  0.58195945599E+03  0.58195945599E+03  0.00000000000E+00 0.  1.
         21   -1    0    0  501  502  0.00000000000E+00 -0.00000000000E+00 -0.19887994058E+02  0.19887994058E+02  0.00000000000E+00 0. -1.
         21    1    1    2  503  502 -0.94460744940E+02  0.44700238440E+02  0.20955450964E+03  0.23416668457E+03  0.00000000000E+00 0. -1.
          1    1    1    2  501    0  0.94460744940E+02 -0.44700238440E+02  0.35251695229E+03  0.36768076548E+03  0.00000000000E+00 0.  1.
<mgrwt>
<rscale>  2 0.10450332E+03</rscale>
<asrwt>0</asrwt>
<pdfrwt beam="2">  1       21 0.30596918E-02 0.10450332E+03</pdfrwt>
<pdfrwt beam="1">  1        1 0.89532211E-01 0.10450332E+03</pdfrwt>
<totfact> 0.24289874E+05</totfact>
</mgrwt>
</event>
<event>
 4    1  0.5142205E+003  0.1313534E+03  0.7546771E-02  0.1225461E+00
         -1   -1    0    0    0  501 -0.00000000000E+00  0.00000000000E+00  0.56341488504E+02  0.56341488504E+02  0.00000000000E+00 0.  1.
         21   -1    0    0  501  502  0.00000000000E+00 -0.00000000000E+00 -0.70898715734E+03  0.70898715734E+03  0.00000000000E+00 0.  1.
         21    1    1    2  503  502  0.11984945640E+03 -0.53757050281E+02 -0.61473790357E+03  0.62861466952E+03  0.00000000000E+00 0.  1.
         -1    1    1    2    0  503 -0.11984945640E+03  0.53757050281E+02 -0.37907765268E+02  0.13671397632E+03  0.00000000000E+00 0.  1.
<mgrwt>
<rscale>  2 0.13135339E+03</rscale>
<asrwt>0</asrwt>
<pdfrwt beam="2">  1       21 0.10907495E+00 0.13135339E+03</pdfrwt>
<pdfrwt beam="1">  1       -1 0.86679209E-02 0.13135339E+03</pdfrwt>
<totfact> 0.45958601E+03</totfact>
</mgrwt>
</event>
<event>
 4    1  0.5142205E+003  0.1031402E+03  0.7546771E-02  0.1273828E+00
         21   -1    0    0  501  502  0.00000000000E+00  0.00000000000E+00  0.19716046311E+04  0.19716046311E+04  0.00000000000E+00 0.  1.
          2   -1    0    0  503    0 -0.00000000000E+00 -0.00000000000E+00 -0.16024762326E+02  0.16024762326E+02  0.00000000000E+00 0.  1.
         21    1    1    2  503  502  0.84946529939E+02 -0.58497806332E+02  0.17871839760E+04  0.17901576663E+04  0.00000000000E+00 0.  1.
          2    1    1    2  501    0 -0.84946529939E+02  0.58497806332E+02  0.16839589278E+03  0.19747172709E+03  0.00000000000E+00 0.  1.
<mgrwt>
<rscale>  2 0.10314023E+03</rscale>
<asrwt>0</asrwt>
<pdfrwt beam="1">  1       21 0.30332360E+00 0.10314023E+03</pdfrwt>
<pdfrwt beam="2">  1        2 0.24653496E-02 0.10314023E+03</pdfrwt>
<totfact> 0.17478889E+03</totfact>
</mgrwt>
</event>
<event>
 4    1  0.5142205E+003  0.1508792E+03  0.7546771E-02  0.1199397E+00
         21   -1    0    0  503  502  0.00000000000E+00  0.00000000000E+00  0.51594807670E+02  0.51594807670E+02  0.00000000000E+00 0. -1.
         -1   -1    0    0    0  501 -0.00000000000E+00 -0.00000000000E+00 -0.66749871743E+03  0.66749871743E+03  0.00000000000E+00 0. -1.
         21    1    1    2  503  501 -0.12634005203E+03 -0.82478703193E+02 -0.98611013355E+02  0.18024615719E+03  0.00000000000E+00 0. -1.
         -1    1    1    2    0  502  0.12634005203E+03  0.82478703193E+02 -0.51729289640E+03  0.53884736791E+03  0.00000000000E+00 0. -1.
<mgrwt>
<rscale>  2 0.15087924E+03</rscale>
<asrwt>0</asrwt>
<pdfrwt beam="1">  1       21 0.79376633E-02 0.15087924E+03</pdfrwt>
<pdfrwt beam="2">  1       -1 0.10269210E+00 0.15087924E+03</pdfrwt>
<totfact> 0.10884860E+04</totfact>
</mgrwt>
</event>
<event>
 4    1  0.5142205E+003  0.1139110E+03  0.7546771E-02  0.1253494E+00
         21   -1    0    0  501  502  0.00000000000E+00  0.00000000000E+00  0.15260014802E+03  0.15260014802E+03  0.00000000000E+00 0. -1.
         -1   -1    0    0    0  501 -0.00000000000E+00 -0.00000000000E+00 -0.11530324882E+03  0.11530324882E+03  0.00000000000E+00 0.  1.
         21    1    1    2  503  502  0.87222262666E+02  0.73266568118E+02  0.87284329945E+02  0.14350702896E+03  0.00000000000E+00 0. -1.
         -1    1    1    2    0  503 -0.87222262666E+02 -0.73266568118E+02 -0.49987430743E+02  0.12439636788E+03  0.00000000000E+00 0.  1.
<mgrwt>
<rscale>  2 0.11391099E+03</rscale>
<asrwt>0</asrwt>
<pdfrwt beam="1">  1       21 0.23476946E-01 0.11391099E+03</pdfrwt>
<pdfrwt beam="2">  1       -1 0.17738961E-01 0.11391099E+03</pdfrwt>
<totfact> 0.37441431E+04</totfact>
</mgrwt>
</event>
<event>
 4    1  0.5142205E+003  0.1126578E+03  0.7546771E-02  0.1255726E+00
         21   -1    0    0  503  502  0.00000000000E+00  0.00000000000E+00  0.18542185310E+03  0.18542185310E+03  0.00000000000E+00 0. -1.
          1   -1    0    0  502    0 -0.00000000000E+00 -0.00000000000E+00 -0.13968198716E+03  0.13968198716E+03  0.00000000000E+00 0. -1.
         21    1    1    2  503  501 -0.11150787338E+03 -0.16055323943E+02  0.13895199915E+03  0.17888386546E+03  0.00000000000E+00 0. -1.
          1    1    1    2  501    0  0.11150787338E+03  0.16055323943E+02 -0.93212133207E+02  0.14621997480E+03  0.00000000000E+00 0. -1.
<mgrwt>
<rscale>  2 0.11265780E+03</rscale>
<asrwt>0</asrwt>
<pdfrwt beam="1">  1       21 0.28526439E-01 0.11265780E+03</pdfrwt>
<pdfrwt beam="2">  1        1 0.21489537E-01 0.11265780E+03</pdfrwt>
<totfact> 0.29417866E+04</totfact>
</mgrwt>
</event>
<event>
 4    1  0.5142205E+003  0.1043457E+03  0.7546771E-02  0.1271414E+00
         21   -1    0    0  503  502  0.00000000000E+00  0.00000000000E+00  0.21442592391E+03  0.21442592391E+03  0.00000000000E+00 0. -1.
         -1   -1    0    0    0  501 -0.00000000000E+00 -0.00000000000E+00 -0.51126074782E+02  0.51126074782E+02  0.00000000000E+00 0. -1.
         21    1    1    2  503  501 -0.10431585370E+03 -0.24966016049E+01  0.92612031477E+02  0.13951709116E+03  0.00000000000E+00 0. -1.
         -1    1    1    2    0  502  0.10431585370E+03  0.24966016049E+01  0.70687817656E+02  0.12603490753E+03  0.00000000000E+00 0. -1.
<mgrwt>
<rscale>  2 0.10434573E+03</rscale>
<asrwt>0</asrwt>
<pdfrwt beam="1">  1       21 0.32988603E-01 0.10434573E+03</pdfrwt>
<pdfrwt beam="2">  1       -1 0.78655501E-02 0.10434573E+03</pdfrwt>
<totfact> 0.68024556E+04</totfact>
</mgrwt>
</event>
<event>
 4    1  0.5142205E+003  0.1030140E+03  0.7546771E-02  0.1274083E+00
          1   -1    0    0  502    0 -0.00000000000E+00  0.00000000000E+00  0.60360427053E+03  0.60360427053E+03  0.00000000000E+00 0.  1.
         21   -1    0    0  503  502  0.00000000000E+00 -0.00000000000E+00 -0.32133563166E+02  0.32133563166E+02  0.00000000000E+00 0. -1.
         21    1    1    2  503  501 -0.22269901062E+02 -0.10057799048E+03  0.71820721459E+02  0.12557904559E+03  0.00000000000E+00 0. -1.
          1    1    1    2  501    0  0.22269901062E+02  0.10057799048E+03  0.49964998591E+03  0.51015878811E+03  0.00000000000E+00 0.  1.
<mgrwt>
<rscale>  2 0.10301398E+03</rscale>
<asrwt>0</asrwt>
<pdfrwt beam="2">  1       21 0.49436256E-02 0.10301398E+03</pdfrwt>
<pdfrwt beam="1">  1        1 0.92862187E-01 0.10301398E+03</pdfrwt>
<totfact> 0.10470264E+05</totfact>
</mgrwt>
</event>
<event>
 4    1  0.5142205E+003  0.1325088E+03  0.7546771E-02  0.1223780E+00
          1   -1    0    0  503    0 -0.00000000000E+00  0.00000000000E+00  0.40516618998E+03  0.40516618998E+03  0.00000000000E+00 0. -1.
         21   -1    0    0  501  502  0.00000000000E+00 -0.00000000000E+00 -0.33673453424E+03  0.33673453424E+03  0.00000000000E+00 0.  1.
         21    1    1    2  503  502 -0.97862436289E+02 -0.89339407022E+02 -0.31204262539E+03  0.33901207374E+03  0.00000000000E+00 0.  1.
          1    1    1    2  501    0  0.97862436289E+02  0.89339407022E+02  0.38047428113E+03  0.40288865047E+03  0.00000000000E+00 0. -1.
<mgrwt>
<rscale>  2 0.13250882E+03</rscale>
<asrwt>0</asrwt>
<pdfrwt beam="2">  1       21 0.51805313E-01 0.13250882E+03</pdfrwt>
<pdfrwt beam="1">  1        1 0.62333260E-01 0.13250882E+03</pdfrwt>
<totfact> 0.23827323E+03</totfact>
</mgrwt>
</event>
<event>
 4    1  0.5142205E+003  0.1223134E+03  0.7546771E-02  0.1239329E+00
          2   -1    0    0  503    0 -0.00000000000E+00  0.00000000000E+00  0.11532741640E+04  0.11532741640E+04  0.00000000000E+00 0.  1.
         21   -1    0    0  501  502  0.00000000000E+00 -0.00000000000E+00 -0.21047141113E+03  0.21047141113E+03  0.00000000000E+00 0. -1.
         21    1    1    2  503  502 -0.68030701814E+02  0.10164832312E+03 -0.18912388663E+03  0.22522966606E+03  0.00000000000E+00 0. -1.
          2    1    1    2  501    0  0.68030701814E+02 -0.10164832312E+03  0.11319266395E+04  0.11385159091E+04  0.00000000000E+00 0.  1.
<mgrwt>
<rscale>  2 0.12231336E+03</rscale>
<asrwt>0</asrwt>
<pdfrwt beam="2">  1       21 0.32380218E-01 0.12231336E+03</pdfrwt>
<pdfrwt beam="1">  1        2 0.17742679E+00 0.12231336E+03</pdfrwt>
<totfact> 0.25950705E+03</totfact>
</mgrwt>
</event>
<event>
 4    1  0.5142205E+003  0.1296874E+03  0.7546771E-02  0.1227920E+00
          2   -1    0    0  502    0 -0.00000000000E+00  0.00000000000E+00  0.26553087280E+04  0.26553087280E+04  0.00000000000E+00 0. -1.
         21   -1    0    0  503  502  0.00000000000E+00 -0.00000000000E+00 -0.10263364848E+02  0.10263364848E+02  0.00000000000E+00 0.  1.
         21    1    1    2  503  501 -0.72094998896E+01 -0.12948689885E+03  0.49786354381E+03  0.51447734850E+03  0.00000000000E+00 0.  1.
          2    1    1    2  501    0  0.72094998896E+01  0.12948689885E+03  0.21471818194E+04  0.21510947444E+04  0.00000000000E+00 0. -1.
<mgrwt>
<rscale>  2 0.12968745E+03</rscale>
<asrwt>0</asrwt>
<pdfrwt beam="2">  1       21 0.15789813E-02 0.12968745E+03</pdfrwt>
<pdfrwt beam="1">  1        2 0.40850849E+00 0.12968745E+03</pdfrwt>
<totfact> 0.79176614E+04</totfact>
</mgrwt>
</event>
<event>
 4    1  0.5142205E+003  0.1194750E+03  0.7546771E-02  0.1243966E+00
          2   -1    0    0  503    0 -0.00000000000E+00  0.00000000000E+00  0.45147741402E+03  0.45147741402E+03  0.00000000000E+00 0.  1.
         21   -1    0    0  501  502  0.00000000000E+00 -0.00000000000E+00 -0.32183373079E+02  0.32183373079E+02  0.00000000000E+00 0.  1.
         21    1    1    2  503  502  0.76691406335E+02 -0.91611727443E+02  0.17756105076E+03  0.21401450221E+03  0.00000000000E+00 0.  1.
          2    1    1    2  501    0 -0.76691406335E+02  0.91611727443E+02  0.24173299018E+03  0.26964628488E+03  0.00000000000E+00 0.  1.
<mgrwt>
<rscale>  2 0.11947502E+03</rscale>
<asrwt>0</asrwt>
<pdfrwt beam="2">  1       21 0.49512885E-02 0.11947502E+03</pdfrwt>
<pdfrwt beam="1">  1        2 0.69458059E-01 0.11947502E+03</pdfrwt>
<totfact> 0.23393076E+05</totfact>
</mgrwt>
</event>
<event>
 4    1  0.5142205E+003  0.1268302E+03  0.7546771E-02  0.1232236E+00
          3   -1    0    0  502    0 -0.00000000000E+00  0.00000000000E+00  0.32030615780E+03  0.32030615780E+03  0.00000000000E+00 0. -1.
         21   -1    0    0  503  502  0.00000000000E+00 -0.00000000000E+00 -0.10946402922E+03  0.10946402922E+03  0.00000000000E+00 0.  1.
         21    1    1    2  503  501  0.10012707675E+03 -0.77849003939E+02 -0.52664223189E+02  0.13732960102E+03  0.00000000000E+00 0.  1.
          3    1    1    2  501    0 -0.10012707675E+03  0.77849003939E+02  0.26350635177E+03  0.29244058599E+03  0.00000000000E+00 0. -1.
<mgrwt>
<rscale>  2 0.12683020E+03</rscale>
<asrwt>0</asrwt>
<pdfrwt beam="2">  1       21 0.16840620E-01 0.12683020E+03</pdfrwt>
<pdfrwt beam="1">  1        3 0.49277870E-01 0.12683020E+03</pdfrwt>
<totfact> 0.63419841E+03</totfact>
</mgrwt>
</event>
<event>
 4    1  0.5142205E+003  0.1113710E+03  0.7546771E-02  0.1258052E+00
         -1   -1    0    0    0  501 -0.00000000000E+00  0.00000000000E+00  0.57415410786E+03  0.57415410786E+03  0.00000000000E+00 0.  1.
         21   -1    0    0  503  502  0.00000000000E+00 -0.00000000000E+00 -0.37870282871E+02  0.37870282871E+02  0.00000000000E+00 0.  1.
         21    1    1    2  503  501  0.92013588570E+02  0.62745498975E+02  0.67581193328E+02  0.13027169998E+03  0.00000000000E+00 0.  1.
         -1    1    1    2    0  502 -0.92013588570E+02 -0.62745498975E+02  0.46870263166E+03  0.48175269076E+03  0.00000000000E+00 0.  1.
<mgrwt>
<rscale>  2 0.11137099E+03</rscale>
<asrwt>0</asrwt>
<pdfrwt beam="2">  1       21 0.58261978E-02 0.11137099E+03</pdfrwt>
<pdfrwt beam="1">  1       -1 0.88331395E-01 0.11137099E+03</pdfrwt>
<totfact> 0.25513010E+04</totfact>
</mgrwt>
</event>
<event>
 4    1  0.5142205E+003  0.1066553E+03  0.7546771E-02  0.1266892E+00
         21   -1    0    0  501  502  0.00000000000E+00  0.00000000000E+00  0.25446310846E+03  0.25446310846E+03  0.00000000000E+00 0. -1.
          2   -1    0    0  503    0 -0.00000000000E+00 -0.00000000000E+00 -0.11467401817E+04  0.11467401817E+04  0.00000000000E+00 0. -1.
         21    1    1    2  503  502  0.99527478804E+02  0.38335734354E+02  0.24067160084E+03  0.26324545014E+03  0.00000000000E+00 0. -1.
          2    1    1    2  501    0 -0.99527478804E+02 -0.38335734354E+02 -0.11329486741E+04  0.11379578400E+04  0.00000000000E+00 0. -1.
<mgrwt>
<rscale>  2 0.10665527E+03</rscale>
<asrwt>0</asrwt>
<pdfrwt beam="1">  1       21 0.39148171E-01 0.10665527E+03</pdfrwt>
<pdfrwt beam="2">  1        2 0.17642157E+00 0.10665527E+03</pdfrwt>
<totfact> 0.18261127E+03</totfact>
</mgrwt>
</event>
<event>
 4    1  0.5142205E+003  0.1115849E+03  0.7546771E-02  0.1257663E+00
          3   -1    0    0  503    0 -0.00000000000E+00  0.00000000000E+00  0.17939359614E+04  0.17939359614E+04  0.00000000000E+00 0.  1.
         21   -1    0    0  501  502  0.00000000000E+00 -0.00000000000E+00 -0.68716542232E+02  0.68716542232E+02  0.00000000000E+00 0.  1.
         21    1    1    2  503  502 -0.11150297682E+03  0.42754801779E+01 -0.20430520398E+02  0.11343985073E+03  0.00000000000E+00 0.  1.
          3    1    1    2  501    0  0.11150297682E+03 -0.42754801779E+01  0.17456499396E+04  0.17492126529E+04  0.00000000000E+00 0.  1.
<mgrwt>
<rscale>  2 0.11158492E+03</rscale>
<asrwt>0</asrwt>
<pdfrwt beam="2">  1       21 0.10571777E-01 0.11158492E+03</pdfrwt>
<pdfrwt beam="1">  1        3 0.27599011E+00 0.11158492E+03</pdfrwt>
<totfact> 0.22684816E+02</totfact>
</mgrwt>
</event>
<event>
 4    1  0.5142205E+003  0.1169809E+03  0.7546771E-02  0.1248162E+00
         -1   -1    0    0    0  501 -0.00000000000E+00  0.00000000000E+00  0.51540981085E+03  0.51540981085E+03  0.00000000000E+00 0. -1.
         21   -1    0    0  503  502  0.00000000000E+00 -0.00000000000E+00 -0.59304165523E+02  0.59304165523E+02  0.00000000000E+00 0. -1.
         21    1    1    2  503  501 -0.93103563902E+02  0.70825568677E+02  0.14499057652E+02  0.11787602582E+03  0.00000000000E+00 0. -1.
         -1    1    1    2    0  502  0.93103563902E+02 -0.70825568677E+02  0.44160658768E+03  0.45683795056E+03  0.00000000000E+00 0. -1.
<mgrwt>
<rscale>  2 0.11698092E+03</rscale>
<asrwt>0</asrwt>
<pdfrwt beam="2">  1       21 0.91237181E-02 0.11698092E+03</pdfrwt>
<pdfrwt beam="1">  1       -1 0.79293814E-01 0.11698092E+03</pdfrwt>
<totfact> 0.14818894E+04</totfact>
</mgrwt>
</event>
<event>
 4    1  0.5142205E+003  0.1163003E+03  0.7546771E-02  0.1249328E+00
          2   -1    0    0  502    0 -0.00000000000E+00  0.00000000000E+00  0.14481608591E+04  0.14481608591E+04  0.00000000000E+00 0.  1.
         21   -1    0    0  503  502  0.00000000000E+00 -0.00000000000E+00 -0.11181261273E+03  0.11181261273E+03  0.00000000000E+00 0. -1.
         21    1    1    2  503  501  0.10694606677E+03 -0.45697886594E+02 -0.78525304442E+02  0.14032812075E+03  0.00000000000E+00 0. -1.
          2    1    1    2  501    0 -0.10694606677E+03  0.45697886594E+02  0.14148735508E+04  0.14196453511E+04  0.00000000000E+00 0.  1.
<mgrwt>
<rscale>  2 0.11630029E+03</rscale>
<asrwt>0</asrwt>
<pdfrwt beam="2">  1       21 0.17201941E-01 0.11630029E+03</pdfrwt>
<pdfrwt beam="1">  1        2 0.22279397E+00 0.11630029E+03</pdfrwt>
<totfact> 0.59303730E+03</totfact>
</mgrwt>
</event>
<event>
 4    1  0.5142205E+003  0.1332475E+03  0.7546771E-02  0.1222715E+00
         21   -1    0    0  503  502  0.00000000000E+00  0.00000000000E+00  0.80951663282E+02  0.80951663282E+02  0.00000000000E+00 0.  1.
          2   -1    0    0  502    0 -0.00000000000E+00 -0.00000000000E+00 -0.17138268287E+04  0.17138268287E+04  0.00000000000E+00 0. -1.
         21    1    1    2  503  501 -0.22911853242E+02  0.13126288207E+03  0.21564901158E+02  0.13498126608E+03  0.00000000000E+00 0.  1.
          2    1    1    2  501    0  0.22911853242E+02 -0.13126288207E+03 -0.16544400666E+04  0.16597972259E+04  0.00000000000E+00 0. -1.
<mgrwt>
<rscale>  2 0.13324750E+03</rscale>
<asrwt>0</asrwt>
<pdfrwt beam="1">  1       21 0.12454102E-01 0.13324750E+03</pdfrwt>
<pdfrwt beam="2">  1        2 0.26366567E+00 0.13324750E+03</pdfrwt>
<totfact> 0.76592223E+03</totfact>
</mgrwt>
</event>
<event>
 4    1  0.5142205E+003  0.1282102E+03  0.7546771E-02  0.1230136E+00
         21   -1    0    0  503  502  0.00000000000E+00  0.00000000000E+00  0.15768474783E+03  0.15768474783E+03  0.00000000000E+00 0.  1.
          3   -1    0    0  502    0 -0.00000000000E+00 -0.00000000000E+00 -0.38649248000E+03  0.38649248000E+03  0.00000000000E+00 0.  1.
         21    1    1    2  503  501 -0.99795406866E+02 -0.80490536305E+02  0.11811321662E+03  0.17432321018E+03  0.00000000000E+00 0.  1.
          3    1    1    2  501    0  0.99795406866E+02  0.80490536305E+02 -0.34692094879E+03  0.36985401765E+03  0.00000000000E+00 0.  1.
<mgrwt>
<rscale>  2 0.12821018E+03</rscale>
<asrwt>0</asrwt>
<pdfrwt beam="1">  1       21 0.24259192E-01 0.12821018E+03</pdfrwt>
<pdfrwt beam="2">  1        3 0.59460381E-01 0.12821018E+03</pdfrwt>
<totfact> 0.22100408E+03</totfact>
</mgrwt>
</event>
<event>
 4    1  0.5142205E+003  0.1216742E+03  0.7546771E-02  0.1240360E+00
         21   -1    0    0  501  502  0.00000000000E+00  0.00000000000E+00  0.30181016838E+02  0.30181016838E+02  0.00000000000E+00 0. -1.
          1   -1    0    0  503    0 -0.00000000000E+00 -0.00000000000E+00 -0.10902394614E+04  0.10902394614E+04  0.00000000000E+00 0. -1.
         21    1    1    2  503  502  0.38456453036E+02 -0.11543708983E+03 -0.11453840673E+03  0.16710376149E+03  0.00000000000E+00 0. -1.
          1    1    1    2  501    0 -0.38456453036E+02  0.11543708983E+03 -0.94552003781E+03  0.95331671673E+03  0.00000000000E+00 0. -1.
<mgrwt>
<rscale>  2 0.12167424E+03</rscale>
<asrwt>0</asrwt>
<pdfrwt beam="1">  1       21 0.46432335E-02 0.12167424E+03</pdfrwt>
<pdfrwt beam="2">  1        1 0.16772914E+00 0.12167424E+03</pdfrwt>
<totfact> 0.47377530E+04</totfact>
</mgrwt>
</event>
<event>
 4    1  0.5142205E+003  0.1493250E+03  0.7546771E-02  0.1201305E+00
         21   -1    0    0  503  502  0.00000000000E+00  0.00000000000E+00  0.84048636970E+02  0.84048636970E+02  0.00000000000E+00 0. -1.
         -1   -1    0    0    0  501 -0.00000000000E+00 -0.00000000000E+00 -0.60725958672E+03  0.60725958672E+03  0.00000000000E+00 0. -1.
         21    1    1    2  503  501  0.12810595919E+03 -0.76725631289E+02 -0.22215734317E+01  0.14934153697E+03  0.00000000000E+00 0. -1.
         -1    1    1    2    0  502 -0.12810595919E+03  0.76725631289E+02 -0.52098937632E+03  0.54196668672E+03  0.00000000000E+00 0. -1.
<mgrwt>
<rscale>  2 0.14932501E+03</rscale>
<asrwt>0</asrwt>
<pdfrwt beam="1">  1       21 0.12930560E-01 0.14932501E+03</pdfrwt>
<pdfrwt beam="2">  1       -1 0.93424551E-01 0.14932501E+03</pdfrwt>
<totfact> 0.56785217E+03</totfact>
</mgrwt>
</event>
<event>
 4    1  0.5142205E+003  0.2212705E+03  0.7546771E-02  0.1132939E+00
         21   -1    0    0  503  502  0.00000000000E+00  0.00000000000E+00  0.64049950142E+02  0.64049950142E+02  0.00000000000E+00 0. -1.
          1   -1    0    0  502    0 -0.00000000000E+00 -0.00000000000E+00 -0.16228818249E+04  0.16228818249E+04  0.00000000000E+00 0. -1.
         21    1    1    2  503  501  0.20550505745E+03 -0.82026306161E+02 -0.16595597384E+03  0.27659000125E+03  0.00000000000E+00 0. -1.
          1    1    1    2  501    0 -0.20550505745E+03  0.82026306161E+02 -0.13928759009E+04  0.14103417738E+04  0.00000000000E+00 0. -1.
<mgrwt>
<rscale>  2 0.22127052E+03</rscale>
<asrwt>0</asrwt>
<pdfrwt beam="1">  1       21 0.98538391E-02 0.22127052E+03</pdfrwt>
<pdfrwt beam="2">  1        1 0.24967411E+00 0.22127052E+03</pdfrwt>
<totfact> 0.55629250E+03</totfact>
</mgrwt>
</event>
<event>
 4    1  0.5142205E+003  0.1039826E+03  0.7546771E-02  0.1272137E+00
          2   -1    0    0  502    0 -0.00000000000E+00  0.00000000000E+00  0.92714741132E+03  0.92714741132E+03  0.00000000000E+00 0.  1.
         21   -1    0    0  503  502  0.00000000000E+00 -0.00000000000E+00 -0.30754557513E+03  0.30754557513E+03  0.00000000000E+00 0.  1.
         21    1    1    2  503  501  0.83150944978E+00  0.10397931193E+03 -0.29572770424E+03  0.31347609760E+03  0.00000000000E+00 0.  1.
          2    1    1    2  501    0 -0.83150944978E+00 -0.10397931193E+03  0.91532954043E+03  0.92121688885E+03  0.00000000000E+00 0.  1.
<mgrwt>
<rscale>  2 0.10398264E+03</rscale>
<asrwt>0</asrwt>
<pdfrwt beam="2">  1       21 0.47314704E-01 0.10398264E+03</pdfrwt>
<pdfrwt beam="1">  1        2 0.14263806E+00 0.10398264E+03</pdfrwt>
<totfact> 0.16792926E+03</totfact>
</mgrwt>
</event>
<event>
 4    1  0.5142205E+003  0.1005003E+03  0.7546771E-02  0.1279247E+00
          4   -1    0    0  502    0 -0.00000000000E+00  0.00000000000E+00  0.65351588617E+02  0.65351588617E+02  0.00000000000E+00 0.  1.
         21   -1    0    0  503  502  0.00000000000E+00 -0.00000000000E+00 -0.97240870408E+03  0.97240870408E+03  0.00000000000E+00 0. -1.
         21    1    1    2  503  501 -0.96988755570E+02  0.26334403175E+02 -0.92939034850E+03  0.93480839715E+03  0.00000000000E+00 0. -1.
          4    1    1    2  501    0  0.96988755570E+02 -0.26334403175E+02  0.22333233042E+02  0.10295189554E+03  0.00000000000E+00 0.  1.
<mgrwt>
<rscale>  2 0.10050035E+03</rscale>
<asrwt>0</asrwt>
<pdfrwt beam="2">  1       21 0.14960132E+00 0.10050035E+03</pdfrwt>
<pdfrwt beam="1">  1        4 0.10054092E-01 0.10050035E+03</pdfrwt>
<totfact> 0.95644583E+02</totfact>
</mgrwt>
</event>
<event>
 4    1  0.5142205E+003  0.1217042E+03  0.7546771E-02  0.1240312E+00
          4   -1    0    0  502    0 -0.00000000000E+00  0.00000000000E+00  0.13256469470E+03  0.13256469470E+03  0.00000000000E+00 0.  1.
         21   -1    0    0  503  502  0.00000000000E+00 -0.00000000000E+00 -0.18650135528E+03  0.18650135528E+03  0.00000000000E+00 0.  1.
         21    1    1    2  503  501  0.52065043176E+01 -0.12159275168E+03 -0.12797902001E+03  0.17660842141E+03  0.00000000000E+00 0.  1.
          4    1    1    2  501    0 -0.52065043176E+01  0.12159275168E+03  0.74042359426E+02  0.14245762857E+03  0.00000000000E+00 0.  1.
<mgrwt>
<rscale>  2 0.12170417E+03</rscale>
<asrwt>0</asrwt>
<pdfrwt beam="2">  1       21 0.28692516E-01 0.12170417E+03</pdfrwt>
<pdfrwt beam="1">  1        4 0.20394568E-01 0.12170417E+03</pdfrwt>
<totfact> 0.10294280E+04</totfact>
</mgrwt>
</event>
<event>
 4    1  0.5142205E+003  0.1380036E+03  0.7546771E-02  0.1216041E+00
         21   -1    0    0  503  502  0.00000000000E+00  0.00000000000E+00  0.31316848160E+02  0.31316848160E+02  0.00000000000E+00 0. -1.
         -2   -1    0    0    0  501 -0.00000000000E+00 -0.00000000000E+00 -0.12119940835E+04  0.12119940835E+04  0.00000000000E+00 0. -1.
         21    1    1    2  503  501  0.88442332146E+02  0.10593843846E+03 -0.15153939917E+03  0.20496143139E+03  0.00000000000E+00 0. -1.
         -2    1    1    2    0  502 -0.88442332146E+02 -0.10593843846E+03 -0.10291378361E+04  0.10383495002E+04  0.00000000000E+00 0. -1.
<mgrwt>
<rscale>  2 0.13800362E+03</rscale>
<asrwt>0</asrwt>
<pdfrwt beam="1">  1       21 0.48179778E-02 0.13800362E+03</pdfrwt>
<pdfrwt beam="2">  1       -2 0.18646058E+00 0.13800362E+03</pdfrwt>
<totfact> 0.42100270E+03</totfact>
</mgrwt>
</event>
<event>
 4    1  0.5142205E+003  0.1024503E+03  0.7546771E-02  0.1275226E+00
         21   -1    0    0  503  502  0.00000000000E+00  0.00000000000E+00  0.82295373474E+03  0.82295373474E+03  0.00000000000E+00 0.  1.
         -2   -1    0    0    0  501 -0.00000000000E+00 -0.00000000000E+00 -0.13164576933E+02  0.13164576933E+02  0.00000000000E+00 0.  1.
         21    1    1    2  503  501  0.51782732629E+02 -0.88400304588E+02  0.47871197511E+03  0.48955206094E+03  0.00000000000E+00 0.  1.
         -2    1    1    2    0  502 -0.51782732629E+02  0.88400304588E+02  0.33107718270E+03  0.34656625074E+03  0.00000000000E+00 0.  1.
<mgrwt>
<rscale>  2 0.10245031E+03</rscale>
<asrwt>0</asrwt>
<pdfrwt beam="1">  1       21 0.12660823E+00 0.10245031E+03</pdfrwt>
<pdfrwt beam="2">  1       -2 0.20253202E-02 0.10245031E+03</pdfrwt>
<totfact> 0.26891574E+04</totfact>
</mgrwt>
</event>
<event>
 4    1  0.5142205E+003  0.1016764E+03  0.7546771E-02  0.1276810E+00
          2   -1    0    0  502    0 -0.00000000000E+00  0.00000000000E+00  0.41905374427E+03  0.41905374427E+03  0.00000000000E+00 0.  1.
         21   -1    0    0  503  502  0.00000000000E+00 -0.00000000000E+00 -0.67983800067E+02  0.67983800067E+02  0.00000000000E+00 0.  1.
         21    1    1    2  503  501  0.77370841654E+02 -0.65968513658E+02 -0.18840937834E+02  0.10340731536E+03  0.00000000000E+00 0.  1.
          2    1    1    2  501    0 -0.77370841654E+02  0.65968513658E+02  0.36991088203E+03  0.38363022897E+03  0.00000000000E+00 0.  1.
<mgrwt>
<rscale>  2 0.10167641E+03</rscale>
<asrwt>0</asrwt>
<pdfrwt beam="2">  1       21 0.10459046E-01 0.10167641E+03</pdfrwt>
<pdfrwt beam="1">  1        2 0.64469805E-01 0.10167641E+03</pdfrwt>
<totfact> 0.70226861E+04</totfact>
</mgrwt>
</event>
<event>
 4    1  0.5142205E+003  0.1054642E+03  0.7546771E-02  0.1269208E+00
         21   -1    0    0  503  502  0.00000000000E+00  0.00000000000E+00  0.58699467800E+02  0.58699467800E+02  0.00000000000E+00 0.  1.
         -4   -1    0    0    0  501 -0.00000000000E+00 -0.00000000000E+00 -0.44028314865E+03  0.44028314865E+03  0.00000000000E+00 0.  1.
         21    1    1    2  503  501 -0.10371793094E+03 -0.19112707807E+02 -0.24915375848E+01  0.10549366122E+03  0.00000000000E+00 0.  1.
         -4    1    1    2    0  502  0.10371793094E+03  0.19112707807E+02 -0.37909214327E+03  0.39348895523E+03  0.00000000000E+00 0.  1.
<mgrwt>
<rscale>  2 0.10546423E+03</rscale>
<asrwt>0</asrwt>
<pdfrwt beam="1">  1       21 0.90306871E-02 0.10546423E+03</pdfrwt>
<pdfrwt beam="2">  1       -4 0.67735871E-01 0.10546423E+03</pdfrwt>
<totfact> 0.79620451E+03</totfact>
</mgrwt>
</event>
<event>
 4    1  0.5142205E+003  0.1005355E+03  0.7546771E-02  0.1279174E+00
         21   -1    0    0  501  502  0.00000000000E+00  0.00000000000E+00  0.39313680369E+02  0.39313680369E+02  0.00000000000E+00 0. -1.
         -1   -1    0    0    0  501 -0.00000000000E+00 -0.00000000000E+00 -0.27697501562E+03  0.27697501562E+03  0.00000000000E+00 0.  1.
         21    1    1    2  503  502  0.94157929741E+02  0.35237340248E+02 -0.76463254232E+02  0.12630920445E+03  0.00000000000E+00 0. -1.
         -1    1    1    2    0  503 -0.94157929741E+02 -0.35237340248E+02 -0.16119808102E+03  0.18997949154E+03  0.00000000000E+00 0.  1.
<mgrwt>
<rscale>  2 0.10053550E+03</rscale>
<asrwt>0</asrwt>
<pdfrwt beam="1">  1       21 0.60482586E-02 0.10053550E+03</pdfrwt>
<pdfrwt beam="2">  1       -1 0.42611540E-01 0.10053550E+03</pdfrwt>
<totfact> 0.95809166E+04</totfact>
</mgrwt>
</event>
<event>
 4    1  0.5142205E+003  0.1090724E+03  0.7546771E-02  0.1262297E+00
          3   -1    0    0  502    0 -0.00000000000E+00  0.00000000000E+00  0.46579835621E+02  0.46579835621E+02  0.00000000000E+00 0.  1.
         21   -1    0    0  503  502  0.00000000000E+00 -0.00000000000E+00 -0.31038587011E+03  0.31038587011E+03  0.00000000000E+00 0.  1.
         21    1    1    2  503  501  0.10907121084E+03 -0.50781592630E+00 -0.20702134407E+03  0.23399705941E+03  0.00000000000E+00 0.  1.
          3    1    1    2  501    0 -0.10907121084E+03  0.50781592630E+00 -0.56784690421E+02  0.12296864632E+03  0.00000000000E+00 0.  1.
<mgrwt>
<rscale>  2 0.10907239E+03</rscale>
<asrwt>0</asrwt>
<pdfrwt beam="2">  1       21 0.47751672E-01 0.10907239E+03</pdfrwt>
<pdfrwt beam="1">  1        3 0.71661286E-02 0.10907239E+03</pdfrwt>
<totfact> 0.25389901E+04</totfact>
</mgrwt>
</event>
<event>
 4    1  0.5142205E+003  0.1238231E+03  0.7546771E-02  0.1236920E+00
         -3   -1    0    0    0  501 -0.00000000000E+00  0.00000000000E+00  0.22341615526E+04  0.22341615526E+04  0.00000000000E+00 0.  1.
         21   -1    0    0  501  502  0.00000000000E+00 -0.00000000000E+00 -0.72156382578E+01  0.72156382578E+01  0.00000000000E+00 0. -1.
         21    1    1    2  503  502  0.32188168479E+01 -0.12378125703E+03  0.86558378784E+03  0.87439547925E+03  0.00000000000E+00 0. -1.
         -3    1    1    2    0  503 -0.32188168479E+01  0.12378125703E+03  0.13613621265E+04  0.13669817116E+04  0.00000000000E+00 0.  1.
<mgrwt>
<rscale>  2 0.12382310E+03</rscale>
<asrwt>0</asrwt>
<pdfrwt beam="2">  1       21 0.11101000E-02 0.12382310E+03</pdfrwt>
<pdfrwt beam="1">  1       -3 0.34371661E+00 0.12382310E+03</pdfrwt>
<totfact> 0.41131654E+03</totfact>
</mgrwt>
</event>
<event>
 4    1  0.5142205E+003  0.1237317E+03  0.7546771E-02  0.1237065E+00
          2   -1    0    0  503    0 -0.00000000000E+00  0.00000000000E+00  0.14435648760E+04  0.14435648760E+04  0.00000000000E+00 0. -1.
         21   -1    0    0  501  502  0.00000000000E+00 -0.00000000000E+00 -0.19312390835E+02  0.19312390835E+02  0.00000000000E+00 0.  1.
         21    1    1    2  503  502  0.23164637011E+02 -0.12154391876E+03  0.22099798103E+03  0.25327777679E+03  0.00000000000E+00 0.  1.
          2    1    1    2  501    0 -0.23164637011E+02  0.12154391876E+03  0.12032545041E+04  0.12095994900E+04  0.00000000000E+00 0. -1.
<mgrwt>
<rscale>  2 0.12373166E+03</rscale>
<asrwt>0</asrwt>
<pdfrwt beam="2">  1       21 0.29711382E-02 0.12373166E+03</pdfrwt>
<pdfrwt beam="1">  1        2 0.22208682E+00 0.12373166E+03</pdfrwt>
<totfact> 0.12106426E+05</totfact>
</mgrwt>
</event>
<event>
 4    1  0.5142205E+003  0.1116539E+03  0.7546771E-02  0.1257537E+00
         21   -1    0    0  501  502  0.00000000000E+00  0.00000000000E+00  0.71961288577E+01  0.71961288577E+01  0.00000000000E+00 0. -1.
          2   -1    0    0  503    0 -0.00000000000E+00 -0.00000000000E+00 -0.17632249451E+04  0.17632249451E+04  0.00000000000E+00 0. -1.
         21    1    1    2  503  502 -0.88465588135E+02 -0.68120686891E+02 -0.76097569327E+03  0.76912326321E+03  0.00000000000E+00 0. -1.
          2    1    1    2  501    0  0.88465588135E+02  0.68120686891E+02 -0.99505312297E+03  0.10012978107E+04  0.00000000000E+00 0. -1.
<mgrwt>
<rscale>  2 0.11165388E+03</rscale>
<asrwt>0</asrwt>
<pdfrwt beam="1">  1       21 0.11070975E-02 0.11165388E+03</pdfrwt>
<pdfrwt beam="2">  1        2 0.27126520E+00 0.11165388E+03</pdfrwt>
<totfact> 0.40414319E+05</totfact>
</mgrwt>
</event>
<event>
 4    1  0.5142205E+003  0.1480487E+03  0.7546771E-02  0.1202891E+00
         21   -1    0    0  503  502  0.00000000000E+00  0.00000000000E+00  0.22800999651E+02  0.22800999651E+02  0.00000000000E+00 0. -1.
          2   -1    0    0  502    0 -0.00000000000E+00 -0.00000000000E+00 -0.96158928060E+03  0.96158928060E+03  0.00000000000E+00 0. -1.
         21    1    1    2  503  501  0.92714815668E+02  0.11542259780E+03 -0.46073649787E+03  0.48393856387E+03  0.00000000000E+00 0. -1.
          2    1    1    2  501    0 -0.92714815668E+02 -0.11542259780E+03 -0.47805178308E+03  0.50045171639E+03  0.00000000000E+00 0. -1.
<mgrwt>
<rscale>  2 0.14804868E+03</rscale>
<asrwt>0</asrwt>
<pdfrwt beam="1">  1       21 0.35078451E-02 0.14804868E+03</pdfrwt>
<pdfrwt beam="2">  1        2 0.14793686E+00 0.14804868E+03</pdfrwt>
<totfact> 0.17136061E+05</totfact>
</mgrwt>
</event>
<event>
 4    1  0.5142205E+003  0.1515674E+03  0.7546771E-02  0.1198560E+00
         21   -1    0    0  501  502  0.00000000000E+00  0.00000000000E+00  0.19047050472E+03  0.19047050472E+03  0.00000000000E+00 0. -1.
          2   -1    0    0  503    0 -0.00000000000E+00 -0.00000000000E+00 -0.56216901178E+03  0.56216901178E+03  0.00000000000E+00 0.  1.
         21    1    1    2  503  502 -0.14797095482E+03 -0.32821639164E+02  0.14766769233E+03  0.21160909911E+03  0.00000000000E+00 0. -1.
          2    1    1    2  501    0  0.14797095482E+03  0.32821639164E+02 -0.51936619939E+03  0.54103041739E+03  0.00000000000E+00 0.  1.
<mgrwt>
<rscale>  2 0.15156736E+03</rscale>
<asrwt>0</asrwt>
<pdfrwt beam="1">  1       21 0.29303154E-01 0.15156736E+03</pdfrwt>
<pdfrwt beam="2">  1        2 0.86487541E-01 0.15156736E+03</pdfrwt>
<totfact> 0.77148571E+03</totfact>
</mgrwt>
</event>
<event>
 4    1  0.5142205E+003  0.1066170E+03  0.7546771E-02  0.1266966E+00
         21   -1    0    0  501  502  0.00000000000E+00  0.00000000000E+00  0.46715507191E+02  0.46715507191E+02  0.00000000000E+00 0.  1.
         -2   -1    0    0    0  501 -0.00000000000E+00 -0.00000000000E+00 -0.68882406593E+03  0.68882406593E+03  0.00000000000E+00 0.  1.
         21    1    1    2  503  502 -0.10246110877E+03 -0.29477186692E+02 -0.25291235261E+02  0.10957568128E+03  0.00000000000E+00 0.  1.
         -2    1    1    2    0  503  0.10246110877E+03  0.29477186692E+02 -0.61681732348E+03  0.62596389185E+03  0.00000000000E+00 0.  1.
<mgrwt>
<rscale>  2 0.10661699E+03</rscale>
<asrwt>0</asrwt>
<pdfrwt beam="1">  1       21 0.71870010E-02 0.10661699E+03</pdfrwt>
<pdfrwt beam="2">  1       -2 0.10597294E+00 0.10661699E+03</pdfrwt>
<totfact> 0.88460257E+03</totfact>
</mgrwt>
</event>
<event>
 4    1  0.5142205E+003  0.1604165E+03  0.7546771E-02  0.1188227E+00
         21   -1    0    0  501  502  0.00000000000E+00  0.00000000000E+00  0.20542562369E+02  0.20542562369E+02  0.00000000000E+00 0.  1.
          1   -1    0    0  503    0 -0.00000000000E+00 -0.00000000000E+00 -0.12566127977E+04  0.12566127977E+04  0.00000000000E+00 0. -1.
         21    1    1    2  503  502  0.15946757698E+03  0.17422828893E+02 -0.65371383860E+03  0.67310864343E+03  0.00000000000E+00 0.  1.
          1    1    1    2  501    0 -0.15946757698E+03 -0.17422828893E+02 -0.58235639673E+03  0.60404671665E+03  0.00000000000E+00 0. -1.
<mgrwt>
<rscale>  2 0.16041653E+03</rscale>
<asrwt>0</asrwt>
<pdfrwt beam="1">  1       21 0.31603937E-02 0.16041653E+03</pdfrwt>
<pdfrwt beam="2">  1        1 0.19332508E+00 0.16041653E+03</pdfrwt>
<totfact> 0.68795744E+04</totfact>
</mgrwt>
</event>
<event>
 4    1  0.5142205E+003  0.1431595E+03  0.7546771E-02  0.1209140E+00
          2   -1    0    0  502    0 -0.00000000000E+00  0.00000000000E+00  0.36920717973E+04  0.36920717973E+04  0.00000000000E+00 0.  1.
         21   -1    0    0  503  502  0.00000000000E+00 -0.00000000000E+00 -0.31979925601E+03  0.31979925601E+03  0.00000000000E+00 0. -1.
         21    1    1    2  503  501 -0.11948208874E+03  0.78858514185E+02 -0.30231381670E+03  0.33449705313E+03  0.00000000000E+00 0. -1.
          2    1    1    2  501    0  0.11948208874E+03 -0.78858514185E+02  0.36745863580E+04  0.36773740002E+04  0.00000000000E+00 0.  1.
<mgrwt>
<rscale>  2 0.14315947E+03</rscale>
<asrwt>0</asrwt>
<pdfrwt beam="2">  1       21 0.49199888E-01 0.14315947E+03</pdfrwt>
<pdfrwt beam="1">  1        2 0.56801102E+00 0.14315947E+03</pdfrwt>
<totfact> 0.42413803E+01</totfact>
</mgrwt>
</event>
<event>
 4    1  0.5142205E+003  0.1680869E+03  0.7546771E-02  0.1179858E+00
          2   -1    0    0  503    0 -0.00000000000E+00  0.00000000000E+00  0.52747487019E+02  0.52747487019E+02  0.00000000000E+00 0. -1.
         21   -1    0    0  501  502  0.00000000000E+00 -0.00000000000E+00 -0.93340091407E+03  0.93340091407E+03  0.00000000000E+00 0.  1.
         21    1    1    2  503  502  0.15845095798E+03  0.56093783195E+02 -0.76220659298E+03  0.78052040907E+03  0.00000000000E+00 0.  1.
          2    1    1    2  501    0 -0.15845095798E+03 -0.56093783195E+02 -0.11844683407E+03  0.20562799201E+03  0.00000000000E+00 0. -1.
<mgrwt>
<rscale>  2 0.16808694E+03</rscale>
<asrwt>0</asrwt>
<pdfrwt beam="2">  1       21 0.14360014E+00 0.16808694E+03</pdfrwt>
<pdfrwt beam="1">  1        2 0.81149982E-02 0.16808694E+03</pdfrwt>
<totfact> 0.34075320E+03</totfact>
</mgrwt>
</event>
<event>
 4    1  0.5142205E+003  0.1151170E+03  0.7546771E-02  0.1251377E+00
         -1   -1    0    0    0  501 -0.00000000000E+00  0.00000000000E+00  0.14216087568E+03  0.14216087568E+03  0.00000000000E+00 0.  1.
         21   -1    0    0  501  502  0.00000000000E+00 -0.00000000000E+00 -0.33437514645E+03  0.33437514645E+03  0.00000000000E+00 0. -1.
         21    1    1    2  503  502  0.98546918243E+02  0.59501564106E+02 -0.29845515009E+03  0.31988655465E+03  0.00000000000E+00 0. -1.
         -1    1    1    2    0  503 -0.98546918243E+02 -0.59501564106E+02  0.10624087932E+03  0.15664946749E+03  0.00000000000E+00 0.  1.
<mgrwt>
<rscale>  2 0.11511703E+03</rscale>
<asrwt>0</asrwt>
<pdfrwt beam="2">  1       21 0.51442330E-01 0.11511703E+03</pdfrwt>
<pdfrwt beam="1">  1       -1 0.21870904E-01 0.11511703E+03</pdfrwt>
<totfact> 0.57583819E+03</totfact>
</mgrwt>
</event>
<event>
 4    1  0.5142205E+003  0.1197869E+03  0.7546771E-02  0.1243449E+00
         21   -1    0    0  501  502  0.00000000000E+00  0.00000000000E+00  0.56642524309E+02  0.56642524309E+02  0.00000000000E+00 0.  1.
         -1   -1    0    0    0  501 -0.00000000000E+00 -0.00000000000E+00 -0.73142388333E+03  0.73142388333E+03  0.00000000000E+00 0. -1.
         21    1    1    2  503  502  0.11967241498E+03  0.52360300936E+01 -0.18818656441E+02  0.12125611221E+03  0.00000000000E+00 0.  1.
         -1    1    1    2    0  503 -0.11967241498E+03 -0.52360300936E+01 -0.65596270258E+03  0.66681029543E+03  0.00000000000E+00 0. -1.
<mgrwt>
<rscale>  2 0.11978691E+03</rscale>
<asrwt>0</asrwt>
<pdfrwt beam="1">  1       21 0.87142346E-02 0.11978691E+03</pdfrwt>
<pdfrwt beam="2">  1       -1 0.11252675E+00 0.11978691E+03</pdfrwt>
<totfact> 0.75523549E+03</totfact>
</mgrwt>
</event>
<event>
 4    1  0.5142205E+003  0.1423669E+03  0.7546771E-02  0.1210179E+00
         -1   -1    0    0    0  501 -0.00000000000E+00  0.00000000000E+00  0.10557464514E+03  0.10557464514E+03  0.00000000000E+00 0. -1.
         21   -1    0    0  503  502  0.00000000000E+00 -0.00000000000E+00 -0.23241421963E+03  0.23241421963E+03  0.00000000000E+00 0. -1.
         21    1    1    2  503  501 -0.43275397588E+02  0.13563026184E+03 -0.13390696286E+03  0.19544667473E+03  0.00000000000E+00 0. -1.
         -1    1    1    2    0  502  0.43275397588E+02 -0.13563026184E+03  0.70673883737E+01  0.14254219004E+03  0.00000000000E+00 0. -1.
<mgrwt>
<rscale>  2 0.14236688E+03</rscale>
<asrwt>0</asrwt>
<pdfrwt beam="2">  1       21 0.35756033E-01 0.14236688E+03</pdfrwt>
<pdfrwt beam="1">  1       -1 0.16242253E-01 0.14236688E+03</pdfrwt>
<totfact> 0.19250955E+04</totfact>
</mgrwt>
</event>
<event>
 4    1  0.5142205E+003  0.1874493E+03  0.7546771E-02  0.1160782E+00
         21   -1    0    0  501  502  0.00000000000E+00  0.00000000000E+00  0.46412238220E+03  0.46412238220E+03  0.00000000000E+00 0. -1.
          4   -1    0    0  503    0 -0.00000000000E+00 -0.00000000000E+00 -0.38768722805E+03  0.38768722805E+03  0.00000000000E+00 0. -1.
         21    1    1    2  503  502  0.11245183702E+03 -0.14997270891E+03  0.42028099337E+03  0.46018837714E+03  0.00000000000E+00 0. -1.
          4    1    1    2  501    0 -0.11245183702E+03  0.14997270891E+03 -0.34384583922E+03  0.39162123310E+03  0.00000000000E+00 0. -1.
<mgrwt>
<rscale>  2 0.18744927E+03</rscale>
<asrwt>0</asrwt>
<pdfrwt beam="1">  1       21 0.71403444E-01 0.18744927E+03</pdfrwt>
<pdfrwt beam="2">  1        4 0.59644189E-01 0.18744927E+03</pdfrwt>
<totfact> 0.20050850E+02</totfact>
</mgrwt>
</event>
<event>
 4    1  0.5142205E+003  0.1116837E+03  0.7546771E-02  0.1257483E+00
         -2   -1    0    0    0  501 -0.00000000000E+00  0.00000000000E+00  0.64847137653E+03  0.64847137653E+03  0.00000000000E+00 0.  1.
         21   -1    0    0  503  502  0.00000000000E+00 -0.00000000000E+00 -0.51789764454E+02  0.51789764454E+02  0.00000000000E+00 0.  1.
         21    1    1    2  503  501 -0.83076271019E+02  0.74643042258E+02  0.20742805680E+02  0.11359363781E+03  0.00000000000E+00 0.  1.
         -2    1    1    2    0  502  0.83076271019E+02 -0.74643042258E+02  0.57593880639E+03  0.58666750317E+03  0.00000000000E+00 0.  1.
<mgrwt>
<rscale>  2 0.11168371E+03</rscale>
<asrwt>0</asrwt>
<pdfrwt beam="2">  1       21 0.79676565E-02 0.11168371E+03</pdfrwt>
<pdfrwt beam="1">  1       -2 0.99764821E-01 0.11168371E+03</pdfrwt>
<totfact> 0.85323132E+03</totfact>
</mgrwt>
</event>
<event>
 4    1  0.5142205E+003  0.1034455E+03  0.7546771E-02  0.1273213E+00
         21   -1    0    0  503  502  0.00000000000E+00  0.00000000000E+00  0.28432398213E+03  0.28432398213E+03  0.00000000000E+00 0.  1.
         -3   -1    0    0    0  501 -0.00000000000E+00 -0.00000000000E+00 -0.22101420130E+03  0.22101420130E+03  0.00000000000E+00 0. -1.
         21    1    1    2  503  501 -0.95115734843E+02  0.40668947350E+02  0.26180716067E+03  0.28150302959E+03  0.00000000000E+00 0.  1.
         -3    1    1    2    0  502  0.95115734843E+02 -0.40668947350E+02 -0.19849737983E+03  0.22383515384E+03  0.00000000000E+00 0. -1.
<mgrwt>
<rscale>  2 0.10344547E+03</rscale>
<asrwt>0</asrwt>
<pdfrwt beam="1">  1       21 0.43742151E-01 0.10344547E+03</pdfrwt>
<pdfrwt beam="2">  1       -3 0.34002185E-01 0.10344547E+03</pdfrwt>
<totfact> 0.20861259E+03</totfact>
</mgrwt>
</event>
<event>
 4    1  0.5142205E+003  0.1142157E+03  0.7546771E-02  0.1252956E+00
         -1   -1    0    0    0  501 -0.00000000000E+00  0.00000000000E+00  0.23242080797E+03  0.23242080797E+03  0.00000000000E+00 0.  1.
         21   -1    0    0  503  502  0.00000000000E+00 -0.00000000000E+00 -0.59584164472E+02  0.59584164472E+02  0.00000000000E+00 0.  1.
         21    1    1    2  503  501 -0.82042188986E+02  0.79462621969E+02  0.51252944220E+02  0.12518823170E+03  0.00000000000E+00 0.  1.
         -1    1    1    2    0  502  0.82042188986E+02 -0.79462621969E+02  0.12158369928E+03  0.16681674075E+03  0.00000000000E+00 0.  1.
<mgrwt>
<rscale>  2 0.11421571E+03</rscale>
<asrwt>0</asrwt>
<pdfrwt beam="2">  1       21 0.91667947E-02 0.11421571E+03</pdfrwt>
<pdfrwt beam="1">  1       -1 0.35757047E-01 0.11421571E+03</pdfrwt>
<totfact> 0.64236646E+04</totfact>
</mgrwt>
</event>
<event>
 4    1  0.5142205E+003  0.1177994E+03  0.7546771E-02  0.1246772E+00
         21   -1    0    0  503  502  0.00000000000E+00  0.00000000000E+00  0.12252143115E+02  0.12252143115E+02  0.00000000000E+00 0.  1.
          2   -1    0    0  502    0 -0.00000000000E+00 -0.00000000000E+00 -0.16522425159E+04  0.16522425159E+04  0.00000000000E+00 0.  1.
         21    1    1    2  503  501  0.10267746802E+03 -0.57741113081E+02 -0.35326000674E+03  0.37238331185E+03  0.00000000000E+00 0.  1.
          2    1    1    2  501    0 -0.10267746802E+03  0.57741113081E+02 -0.12867303661E+04  0.12921113472E+04  0.00000000000E+00 0.  1.
<mgrwt>
<rscale>  2 0.11779940E+03</rscale>
<asrwt>0</asrwt>
<pdfrwt beam="1">  1       21 0.18849464E-02 0.11779940E+03</pdfrwt>
<pdfrwt beam="2">  1        2 0.25419098E+00 0.11779940E+03</pdfrwt>
<totfact> 0.19757848E+05</totfact>
</mgrwt>
</event>
<event>
 4    1  0.5142205E+003  0.1218815E+03  0.7546771E-02  0.1240025E+00
          1   -1    0    0  503    0 -0.00000000000E+00  0.00000000000E+00  0.45616961530E+02  0.45616961530E+02  0.00000000000E+00 0.  1.
         21   -1    0    0  501  502  0.00000000000E+00 -0.00000000000E+00 -0.37770050816E+03  0.37770050816E+03  0.00000000000E+00 0.  1.
         21    1    1    2  503  502  0.12181678158E+03 -0.39700850129E+01 -0.24461627505E+03  0.27329875936E+03  0.00000000000E+00 0.  1.
          1    1    1    2  501    0 -0.12181678158E+03  0.39700850129E+01 -0.87467271584E+02  0.15001871033E+03  0.00000000000E+00 0.  1.
<mgrwt>
<rscale>  2 0.12188146E+03</rscale>
<asrwt>0</asrwt>
<pdfrwt beam="2">  1       21 0.58107774E-01 0.12188146E+03</pdfrwt>
<pdfrwt beam="1">  1        1 0.70179937E-02 0.12188146E+03</pdfrwt>
<totfact> 0.30472511E+04</totfact>
</mgrwt>
</event>
<event>
 4    1  0.5142205E+003  0.1506117E+03  0.7546771E-02  0.1199723E+00
         21   -1    0    0  501  502  0.00000000000E+00  0.00000000000E+00  0.18934164696E+03  0.18934164696E+03  0.00000000000E+00 0. -1.
          4   -1    0    0  503    0 -0.00000000000E+00 -0.00000000000E+00 -0.12080893276E+03  0.12080893276E+03  0.00000000000E+00 0. -1.
         21    1    1    2  503  502 -0.14984206812E+03 -0.15206569517E+02  0.20122647372E+02  0.15195001175E+03  0.00000000000E+00 0. -1.
          4    1    1    2  501    0  0.14984206812E+03  0.15206569517E+02  0.48410066822E+02  0.15820056797E+03  0.00000000000E+00 0. -1.
<mgrwt>
<rscale>  2 0.15061170E+03</rscale>
<asrwt>0</asrwt>
<pdfrwt beam="1">  1       21 0.29129484E-01 0.15061170E+03</pdfrwt>
<pdfrwt beam="2">  1        4 0.18585990E-01 0.15061170E+03</pdfrwt>
<totfact> 0.12018354E+04</totfact>
</mgrwt>
</event>
<event>
 4    1  0.5142205E+003  0.1144178E+03  0.7546771E-02  0.1252601E+00
         -3   -1    0    0    0  501 -0.00000000000E+00  0.00000000000E+00  0.16003283380E+04  0.16003283380E+04  0.00000000000E+00 0. -1.
         21   -1    0    0  503  502  0.00000000000E+00 -0.00000000000E+00 -0.95780492059E+02  0.95780492059E+02  0.00000000000E+00 0. -1.
         21    1    1    2  503  501  0.91579114250E+02 -0.68590849739E+02 -0.58756777120E+02  0.12862269509E+03  0.00000000000E+00 0. -1.
         -3    1    1    2    0  502 -0.91579114250E+02  0.68590849739E+02  0.15633046231E+04  0.15674861350E+04  0.00000000000E+00 0. -1.
<mgrwt>
<rscale>  2 0.11441783E+03</rscale>
<asrwt>0</asrwt>
<pdfrwt beam="2">  1       21 0.14735461E-01 0.11441783E+03</pdfrwt>
<pdfrwt beam="1">  1       -3 0.24620434E+00 0.11441783E+03</pdfrwt>
<totfact> 0.17909361E+02</totfact>
</mgrwt>
</event>
<event>
 4    1  0.5142205E+003  0.1049371E+03  0.7546771E-02  0.1270244E+00
          2   -1    0    0  503    0 -0.00000000000E+00  0.00000000000E+00  0.18568210516E+03  0.18568210516E+03  0.00000000000E+00 0. -1.
         21   -1    0    0  501  502  0.00000000000E+00 -0.00000000000E+00 -0.60670901499E+02  0.60670901499E+02  0.00000000000E+00 0.  1.
         21    1    1    2  503  502 -0.10447242437E+03  0.98642024285E+01  0.44020490390E+02  0.11379628077E+03  0.00000000000E+00 0.  1.
          2    1    1    2  501    0  0.10447242437E+03 -0.98642024285E+01  0.80990713271E+02  0.13255672589E+03  0.00000000000E+00 0. -1.
<mgrwt>
<rscale>  2 0.10493708E+03</rscale>
<asrwt>0</asrwt>
<pdfrwt beam="2">  1       21 0.93339849E-02 0.10493708E+03</pdfrwt>
<pdfrwt beam="1">  1        2 0.28566478E-01 0.10493708E+03</pdfrwt>
<totfact> 0.20269277E+05</totfact>
</mgrwt>
</event>
<event>
 4    1  0.5142205E+003  0.1035490E+03  0.7546771E-02  0.1273005E+00
         21   -1    0    0  503  502  0.00000000000E+00  0.00000000000E+00  0.34044643680E+03  0.34044643680E+03  0.00000000000E+00 0. -1.
          2   -1    0    0  502    0 -0.00000000000E+00 -0.00000000000E+00 -0.32675067780E+03  0.32675067780E+03  0.00000000000E+00 0.  1.
         21    1    1    2  503  501 -0.39922497557E+02 -0.95543674982E+02  0.32396154648E+03  0.34010804642E+03  0.00000000000E+00 0. -1.
          2    1    1    2  501    0  0.39922497557E+02  0.95543674982E+02 -0.31026578748E+03  0.32708906818E+03  0.00000000000E+00 0.  1.
<mgrwt>
<rscale>  2 0.10354902E+03</rscale>
<asrwt>0</asrwt>
<pdfrwt beam="1">  1       21 0.52376375E-01 0.10354902E+03</pdfrwt>
<pdfrwt beam="2">  1        2 0.50269335E-01 0.10354902E+03</pdfrwt>
<totfact> 0.44280127E+03</totfact>
</mgrwt>
</event>
<event>
 4    1  0.5142205E+003  0.1369530E+03  0.7546771E-02  0.1217489E+00
         21   -1    0    0  501  502  0.00000000000E+00  0.00000000000E+00  0.27672578624E+02  0.27672578624E+02  0.00000000000E+00 0.  1.
          1   -1    0    0  503    0 -0.00000000000E+00 -0.00000000000E+00 -0.72275807561E+03  0.72275807561E+03  0.00000000000E+00 0. -1.
         21    1    1    2  503  502 -0.95580035806E+02 -0.98084495274E+02 -0.25394806423E+03  0.28852336263E+03  0.00000000000E+00 0.  1.
          1    1    1    2  501    0  0.95580035806E+02  0.98084495274E+02 -0.44113743275E+03  0.46190729160E+03  0.00000000000E+00 0. -1.
<mgrwt>
<rscale>  2 0.13695295E+03</rscale>
<asrwt>0</asrwt>
<pdfrwt beam="1">  1       21 0.42573201E-02 0.13695295E+03</pdfrwt>
<pdfrwt beam="2">  1        1 0.11119354E+00 0.13695295E+03</pdfrwt>
<totfact> 0.10528461E+05</totfact>
</mgrwt>
</event>
<event>
 4    1  0.5142205E+003  0.1754852E+03  0.7546771E-02  0.1172245E+00
          2   -1    0    0  502    0 -0.00000000000E+00  0.00000000000E+00  0.61069273294E+03  0.61069273294E+03  0.00000000000E+00 0. -1.
         21   -1    0    0  503  502  0.00000000000E+00 -0.00000000000E+00 -0.57619182589E+03  0.57619182589E+03  0.00000000000E+00 0.  1.
         21    1    1    2  503  501 -0.57407329998E+02  0.16582954790E+03 -0.54962930043E+03  0.57696395761E+03  0.00000000000E+00 0.  1.
          2    1    1    2  501    0  0.57407329998E+02 -0.16582954790E+03  0.58413020748E+03  0.60992060121E+03  0.00000000000E+00 0. -1.
<mgrwt>
<rscale>  2 0.17548516E+03</rscale>
<asrwt>0</asrwt>
<pdfrwt beam="2">  1       21 0.88644896E-01 0.17548516E+03</pdfrwt>
<pdfrwt beam="1">  1        2 0.93952729E-01 0.17548516E+03</pdfrwt>
<totfact> 0.68361282E+02</totfact>
</mgrwt>
</event>
<event>
 4    1  0.5142205E+003  0.1006466E+03  0.7546771E-02  0.1278942E+00
         21   -1    0    0  503  502  0.00000000000E+00  0.00000000000E+00  0.13263487841E+02  0.13263487841E+02  0.00000000000E+00 0.  1.
          1   -1    0    0  502    0 -0.00000000000E+00 -0.00000000000E+00 -0.11153184825E+04  0.11153184825E+04  0.00000000000E+00 0.  1.
         21    1    1    2  503  501 -0.85101700334E+02  0.53734948599E+02 -0.23420207206E+03  0.25491244508E+03  0.00000000000E+00 0.  1.
          1    1    1    2  501    0  0.85101700334E+02 -0.53734948599E+02 -0.86785292258E+03  0.87366952524E+03  0.00000000000E+00 0.  1.
<mgrwt>
<rscale>  2 0.10064663E+03</rscale>
<asrwt>0</asrwt>
<pdfrwt beam="1">  1       21 0.20405357E-02 0.10064663E+03</pdfrwt>
<pdfrwt beam="2">  1        1 0.17158754E+00 0.10064663E+03</pdfrwt>
<totfact> 0.17434885E+05</totfact>
</mgrwt>
</event>
<event>
 4    1  0.5142205E+003  0.1043477E+03  0.7546771E-02  0.1271410E+00
         21   -1    0    0  501  502  0.00000000000E+00  0.00000000000E+00  0.14359599061E+04  0.14359599061E+04  0.00000000000E+00 0. -1.
         -2   -1    0    0    0  501 -0.00000000000E+00 -0.00000000000E+00 -0.77485722142E+01  0.77485722142E+01  0.00000000000E+00 0. -1.
         21    1    1    2  503  502 -0.10352555979E+03 -0.13073264605E+02  0.81972095049E+03  0.82633582062E+03  0.00000000000E+00 0. -1.
         -2    1    1    2    0  503  0.10352555979E+03  0.13073264605E+02  0.60849038339E+03  0.61737265768E+03  0.00000000000E+00 0. -1.
<mgrwt>
<rscale>  2 0.10434774E+03</rscale>
<asrwt>0</asrwt>
<pdfrwt beam="1">  1       21 0.22091670E+00 0.10434774E+03</pdfrwt>
<pdfrwt beam="2">  1       -2 0.11920892E-02 0.10434774E+03</pdfrwt>
<totfact> 0.12906318E+04</totfact>
</mgrwt>
</event>
<event>
 4    1  0.5142205E+003  0.1061214E+03  0.7546771E-02  0.1267926E+00
          2   -1    0    0  502    0 -0.00000000000E+00  0.00000000000E+00  0.31789180114E+03  0.31789180114E+03  0.00000000000E+00 0. -1.
         21   -1    0    0  503  502  0.00000000000E+00 -0.00000000000E+00 -0.19521301100E+03  0.19521301100E+03  0.00000000000E+00 0.  1.
         21    1    1    2  503  501  0.92407407738E+02  0.52178684946E+02 -0.17076960545E+03  0.20105721154E+03  0.00000000000E+00 0.  1.
          2    1    1    2  501    0 -0.92407407738E+02 -0.52178684946E+02  0.29344839559E+03  0.31204760060E+03  0.00000000000E+00 0. -1.
<mgrwt>
<rscale>  2 0.10612137E+03</rscale>
<asrwt>0</asrwt>
<pdfrwt beam="2">  1       21 0.30032771E-01 0.10612137E+03</pdfrwt>
<pdfrwt beam="1">  1        2 0.48906431E-01 0.10612137E+03</pdfrwt>
<totfact> 0.13752685E+04</totfact>
</mgrwt>
</event>
<event>
 4    1  0.5142205E+003  0.1049542E+03  0.7546771E-02  0.1270210E+00
         21   -1    0    0  501  502  0.00000000000E+00  0.00000000000E+00  0.67825743933E+02  0.67825743933E+02  0.00000000000E+00 0.  1.
         -1   -1    0    0    0  501 -0.00000000000E+00 -0.00000000000E+00 -0.22453737674E+03  0.22453737674E+03  0.00000000000E+00 0.  1.
         21    1    1    2  503  502 -0.10493295508E+03 -0.21106264111E+01 -0.14604718117E+01  0.10496434054E+03  0.00000000000E+00 0.  1.
         -1    1    1    2    0  503  0.10493295508E+03  0.21106264111E+01 -0.15525116100E+03  0.18739878014E+03  0.00000000000E+00 0.  1.
<mgrwt>
<rscale>  2 0.10495418E+03</rscale>
<asrwt>0</asrwt>
<pdfrwt beam="1">  1       21 0.10434730E-01 0.10495418E+03</pdfrwt>
<pdfrwt beam="2">  1       -1 0.34544211E-01 0.10495418E+03</pdfrwt>
<totfact> 0.54192658E+04</totfact>
</mgrwt>
</event>
<event>
 4    1  0.5142205E+003  0.1034718E+03  0.7546771E-02  0.1273160E+00
         21   -1    0    0  501  502  0.00000000000E+00  0.00000000000E+00  0.45992272510E+02  0.45992272510E+02  0.00000000000E+00 0. -1.
         -1   -1    0    0    0  501 -0.00000000000E+00 -0.00000000000E+00 -0.25122300290E+03  0.25122300290E+03  0.00000000000E+00 0.  1.
         21    1    1    2  503  502  0.47291675826E+02  0.92032145435E+02 -0.62358411644E+02  0.12080972601E+03  0.00000000000E+00 0. -1.
         -1    1    1    2    0  503 -0.47291675826E+02 -0.92032145435E+02 -0.14287231875E+03  0.17640554940E+03  0.00000000000E+00 0.  1.
<mgrwt>
<rscale>  2 0.10347182E+03</rscale>
<asrwt>0</asrwt>
<pdfrwt beam="1">  1       21 0.70757344E-02 0.10347182E+03</pdfrwt>
<pdfrwt beam="2">  1       -1 0.38649692E-01 0.10347182E+03</pdfrwt>
<totfact> 0.87219906E+04</totfact>
</mgrwt>
</event>
<event>
 4    1  0.5142205E+003  0.1197280E+03  0.7546771E-02  0.1243546E+00
         21   -1    0    0  501  502  0.00000000000E+00  0.00000000000E+00  0.33980602752E+03  0.33980602752E+03  0.00000000000E+00 0.  1.
          2   -1    0    0  503    0 -0.00000000000E+00 -0.00000000000E+00 -0.12358416752E+03  0.12358416752E+03  0.00000000000E+00 0.  1.
         21    1    1    2  503  502 -0.69757096713E+02 -0.97307493036E+02  0.29614855304E+03  0.31943507355E+03  0.00000000000E+00 0.  1.
          2    1    1    2  501    0  0.69757096713E+02  0.97307493036E+02 -0.79926693045E+02  0.14395512149E+03  0.00000000000E+00 0.  1.
<mgrwt>
<rscale>  2 0.11972803E+03</rscale>
<asrwt>0</asrwt>
<pdfrwt beam="1">  1       21 0.52277850E-01 0.11972803E+03</pdfrwt>
<pdfrwt beam="2">  1        2 0.19012949E-01 0.11972803E+03</pdfrwt>
<totfact> 0.12637042E+04</totfact>
</mgrwt>
</event>
<event>
 4    1  0.5142205E+003  0.1101816E+03  0.7546771E-02  0.1260234E+00
         -2   -1    0    0    0  501 -0.00000000000E+00  0.00000000000E+00  0.35198706412E+02  0.35198706412E+02  0.00000000000E+00 0. -1.
         21   -1    0    0  501  502  0.00000000000E+00 -0.00000000000E+00 -0.56252772324E+03  0.56252772324E+03  0.00000000000E+00 0. -1.
         21    1    1    2  503  502  0.10995733652E+03  0.70269583164E+01 -0.44955566827E+03  0.46286098655E+03  0.00000000000E+00 0. -1.
         -2    1    1    2    0  503 -0.10995733652E+03 -0.70269583164E+01 -0.77773348563E+02  0.13486544311E+03  0.00000000000E+00 0. -1.
<mgrwt>
<rscale>  2 0.11018164E+03</rscale>
<asrwt>0</asrwt>
<pdfrwt beam="2">  1       21 0.86542729E-01 0.11018164E+03</pdfrwt>
<pdfrwt beam="1">  1       -2 0.54151855E-02 0.11018164E+03</pdfrwt>
<totfact> 0.15540951E+04</totfact>
</mgrwt>
</event>
<event>
 4    1  0.5142205E+003  0.1337110E+03  0.7546771E-02  0.1222051E+00
         21   -1    0    0  501  502  0.00000000000E+00  0.00000000000E+00  0.89317293535E+03  0.89317293535E+03  0.00000000000E+00 0.  1.
          2   -1    0    0  503    0 -0.00000000000E+00 -0.00000000000E+00 -0.15436816399E+03  0.15436816399E+03  0.00000000000E+00 0.  1.
         21    1    1    2  503  502 -0.39465418133E+02 -0.12775412952E+03  0.85803554254E+03  0.86839140317E+03  0.00000000000E+00 0.  1.
          2    1    1    2  501    0  0.39465418133E+02  0.12775412952E+03 -0.11923077118E+03  0.17914969616E+03  0.00000000000E+00 0.  1.
<mgrwt>
<rscale>  2 0.13371102E+03</rscale>
<asrwt>0</asrwt>
<pdfrwt beam="1">  1       21 0.13741122E+00 0.13371102E+03</pdfrwt>
<pdfrwt beam="2">  1        2 0.23748949E-01 0.13371102E+03</pdfrwt>
<totfact> 0.10891417E+03</totfact>
</mgrwt>
</event>
<event>
 4    1  0.5142205E+003  0.1391903E+03  0.7546771E-02  0.1214423E+00
         -2   -1    0    0    0  501 -0.00000000000E+00  0.00000000000E+00  0.25406607716E+03  0.25406607716E+03  0.00000000000E+00 0.  1.
         21   -1    0    0  503  502  0.00000000000E+00 -0.00000000000E+00 -0.15592524384E+03  0.15592524384E+03  0.00000000000E+00 0.  1.
         21    1    1    2  503  501 -0.75831186212E+02 -0.11672007570E+03 -0.97461781373E+02  0.16991981550E+03  0.00000000000E+00 0.  1.
         -2    1    1    2    0  502  0.75831186212E+02  0.11672007570E+03  0.19560261470E+03  0.24007150549E+03  0.00000000000E+00 0.  1.
<mgrwt>
<rscale>  2 0.13919032E+03</rscale>
<asrwt>0</asrwt>
<pdfrwt beam="2">  1       21 0.23988499E-01 0.13919032E+03</pdfrwt>
<pdfrwt beam="1">  1       -2 0.39087089E-01 0.13919032E+03</pdfrwt>
<totfact> 0.82681895E+03</totfact>
</mgrwt>
</event>
<event>
 4    1  0.5142205E+003  0.1175088E+03  0.7546771E-02  0.1247264E+00
         -1   -1    0    0    0  501 -0.00000000000E+00  0.00000000000E+00  0.19720501376E+03  0.19720501376E+03  0.00000000000E+00 0.  1.
         21   -1    0    0  503  502  0.00000000000E+00 -0.00000000000E+00 -0.85360436411E+02  0.85360436411E+02  0.00000000000E+00 0.  1.
         21    1    1    2  503  501  0.11400995418E+03 -0.28461277507E+02 -0.39710123607E+01  0.11757586023E+03  0.00000000000E+00 0.  1.
         -1    1    1    2    0  502 -0.11400995418E+03  0.28461277507E+02  0.11581558971E+03  0.16498958994E+03  0.00000000000E+00 0.  1.
<mgrwt>
<rscale>  2 0.11750878E+03</rscale>
<asrwt>0</asrwt>
<pdfrwt beam="2">  1       21 0.13132375E-01 0.11750878E+03</pdfrwt>
<pdfrwt beam="1">  1       -1 0.30339233E-01 0.11750878E+03</pdfrwt>
<totfact> 0.45187591E+04</totfact>
</mgrwt>
</event>
<event>
 4    1  0.5142205E+003  0.1045234E+03  0.7546771E-02  0.1271062E+00
         21   -1    0    0  503  502  0.00000000000E+00  0.00000000000E+00  0.61368526601E+03  0.61368526601E+03  0.00000000000E+00 0.  1.
          2   -1    0    0  502    0 -0.00000000000E+00 -0.00000000000E+00 -0.40124438785E+03  0.40124438785E+03  0.00000000000E+00 0.  1.
         21    1    1    2  503  501 -0.59790032231E+02  0.85733808738E+02  0.60229988796E+03  0.61130212576E+03  0.00000000000E+00 0.  1.
          2    1    1    2  501    0  0.59790032231E+02 -0.85733808738E+02 -0.38985900980E+03  0.40362752810E+03  0.00000000000E+00 0.  1.
<mgrwt>
<rscale>  2 0.10452337E+03</rscale>
<asrwt>0</asrwt>
<pdfrwt beam="1">  1       21 0.94413118E-01 0.10452337E+03</pdfrwt>
<pdfrwt beam="2">  1        2 0.61729906E-01 0.10452337E+03</pdfrwt>
<totfact> 0.99128871E+02</totfact>
</mgrwt>
</event>
<event>
 4    1  0.5142205E+003  0.1955381E+03  0.7546771E-02  0.1153559E+00
         21   -1    0    0  501  502  0.00000000000E+00  0.00000000000E+00  0.25889933729E+02  0.25889933729E+02  0.00000000000E+00 0.  1.
          2   -1    0    0  503    0 -0.00000000000E+00 -0.00000000000E+00 -0.26738520051E+04  0.26738520051E+04  0.00000000000E+00 0. -1.
         21    1    1    2  503  502 -0.12984507066E+03 -0.14620329953E+03 -0.42080204554E+03  0.46401455656E+03  0.00000000000E+00 0.  1.
          2    1    1    2  501    0  0.12984507066E+03  0.14620329953E+03 -0.22271600258E+04  0.22357273823E+04  0.00000000000E+00 0. -1.
<mgrwt>
<rscale>  2 0.19553810E+03</rscale>
<asrwt>0</asrwt>
<pdfrwt beam="1">  1       21 0.39830662E-02 0.19553810E+03</pdfrwt>
<pdfrwt beam="2">  1        2 0.41136190E+00 0.19553810E+03</pdfrwt>
<totfact> 0.16602303E+04</totfact>
</mgrwt>
</event>
<event>
 4    1  0.5142205E+003  0.1063490E+03  0.7546771E-02  0.1267484E+00
         21   -1    0    0  503  502  0.00000000000E+00  0.00000000000E+00  0.69505325642E+02  0.69505325642E+02  0.00000000000E+00 0. -1.
          3   -1    0    0  502    0 -0.00000000000E+00 -0.00000000000E+00 -0.17505311743E+03  0.17505311743E+03  0.00000000000E+00 0.  1.
         21    1    1    2  503  501  0.94875045439E+02  0.48050269275E+02 -0.20320921355E+02  0.10827299972E+03  0.00000000000E+00 0. -1.
          3    1    1    2  501    0 -0.94875045439E+02 -0.48050269275E+02 -0.85226870430E+02  0.13628544334E+03  0.00000000000E+00 0.  1.
<mgrwt>
<rscale>  2 0.10634897E+03</rscale>
<asrwt>0</asrwt>
<pdfrwt beam="1">  1       21 0.10693127E-01 0.10634897E+03</pdfrwt>
<pdfrwt beam="2">  1        3 0.26931249E-01 0.10634897E+03</pdfrwt>
<totfact> 0.44177733E+04</totfact>
</mgrwt>
</event>
<event>
 4    1  0.5142205E+003  0.1112655E+03  0.7546771E-02  0.1258244E+00
         21   -1    0    0  501  502  0.00000000000E+00  0.00000000000E+00  0.50307287187E+03  0.50307287187E+03  0.00000000000E+00 0. -1.
          4   -1    0    0  503    0 -0.00000000000E+00 -0.00000000000E+00 -0.73406043611E+02  0.73406043611E+02  0.00000000000E+00 0.  1.
         21    1    1    2  503  502  0.70303069104E+02  0.86240882246E+02  0.44984281920E+03  0.46339893535E+03  0.00000000000E+00 0. -1.
          4    1    1    2  501    0 -0.70303069104E+02 -0.86240882246E+02 -0.20175990942E+02  0.11307998013E+03  0.00000000000E+00 0.  1.
<mgrwt>
<rscale>  2 0.11126550E+03</rscale>
<asrwt>0</asrwt>
<pdfrwt beam="1">  1       21 0.77395824E-01 0.11126550E+03</pdfrwt>
<pdfrwt beam="2">  1        4 0.11293238E-01 0.11126550E+03</pdfrwt>
<totfact> 0.37598398E+03</totfact>
</mgrwt>
</event>
<event>
 4    1  0.5142205E+003  0.1120180E+03  0.7546771E-02  0.1256878E+00
          1   -1    0    0  503    0 -0.00000000000E+00  0.00000000000E+00  0.65219842858E+03  0.65219842858E+03  0.00000000000E+00 0.  1.
         21   -1    0    0  501  502  0.00000000000E+00 -0.00000000000E+00 -0.24275166946E+02  0.24275166946E+02  0.00000000000E+00 0.  1.
         21    1    1    2  503  502  0.88334415565E+02 -0.68884477383E+02  0.15991091898E+03  0.19524226542E+03  0.00000000000E+00 0.  1.
          1    1    1    2  501    0 -0.88334415565E+02  0.68884477383E+02  0.46801234266E+03  0.48123133011E+03  0.00000000000E+00 0.  1.
<mgrwt>
<rscale>  2 0.11201804E+03</rscale>
<asrwt>0</asrwt>
<pdfrwt beam="2">  1       21 0.37346416E-02 0.11201804E+03</pdfrwt>
<pdfrwt beam="1">  1        1 0.10033821E+00 0.11201804E+03</pdfrwt>
<totfact> 0.15044889E+05</totfact>
</mgrwt>
</event>
<event>
 4    1  0.5142205E+003  0.1272253E+03  0.7546771E-02  0.1231632E+00
          2   -1    0    0  503    0 -0.00000000000E+00  0.00000000000E+00  0.17968414938E+03  0.17968414938E+03  0.00000000000E+00 0. -1.
         21   -1    0    0  501  502  0.00000000000E+00 -0.00000000000E+00 -0.10781402033E+03  0.10781402033E+03  0.00000000000E+00 0. -1.
         21    1    1    2  503  502 -0.71178117436E+01 -0.12702606354E+03 -0.22362200246E+02  0.12917566358E+03  0.00000000000E+00 0. -1.
          2    1    1    2  501    0  0.71178117436E+01  0.12702606354E+03  0.94232329298E+02  0.15832250613E+03  0.00000000000E+00 0. -1.
<mgrwt>
<rscale>  2 0.12722533E+03</rscale>
<asrwt>0</asrwt>
<pdfrwt beam="2">  1       21 0.16586772E-01 0.12722533E+03</pdfrwt>
<pdfrwt beam="1">  1        2 0.27643715E-01 0.12722533E+03</pdfrwt>
<totfact> 0.76445204E+04</totfact>
</mgrwt>
</event>
<event>
 4    1  0.5142205E+003  0.1105848E+03  0.7546771E-02  0.1259491E+00
         -4   -1    0    0    0  501 -0.00000000000E+00  0.00000000000E+00  0.21463965865E+03  0.21463965865E+03  0.00000000000E+00 0. -1.
         21   -1    0    0  503  502  0.00000000000E+00 -0.00000000000E+00 -0.13236414343E+03  0.13236414343E+03  0.00000000000E+00 0.  1.
         21    1    1    2  503  501 -0.94608315844E+02  0.57256194484E+02 -0.89802944095E+02  0.14245551587E+03  0.00000000000E+00 0.  1.
         -4    1    1    2    0  502  0.94608315844E+02 -0.57256194484E+02  0.17207845931E+03  0.20454828621E+03  0.00000000000E+00 0. -1.
<mgrwt>
<rscale>  2 0.11058483E+03</rscale>
<asrwt>0</asrwt>
<pdfrwt beam="2">  1       21 0.20363714E-01 0.11058483E+03</pdfrwt>
<pdfrwt beam="1">  1       -4 0.33021486E-01 0.11058483E+03</pdfrwt>
<totfact> 0.79737969E+03</totfact>
</mgrwt>
</event>
<event>
 4    1  0.5142205E+003  0.1555189E+03  0.7546771E-02  0.1193851E+00
         -4   -1    0    0    0  501 -0.00000000000E+00  0.00000000000E+00  0.63067881576E+02  0.63067881576E+02  0.00000000000E+00 0. -1.
         21   -1    0    0  503  502  0.00000000000E+00 -0.00000000000E+00 -0.49863401789E+03  0.49863401789E+03  0.00000000000E+00 0.  1.
         21    1    1    2  503  501 -0.95788808050E+02  0.12251787605E+03 -0.35274116424E+03  0.38550285946E+03  0.00000000000E+00 0.  1.
         -4    1    1    2    0  502  0.95788808050E+02 -0.12251787605E+03 -0.82824972066E+02  0.17619904000E+03  0.00000000000E+00 0. -1.
<mgrwt>
<rscale>  2 0.15551889E+03</rscale>
<asrwt>0</asrwt>
<pdfrwt beam="2">  1       21 0.76712922E-01 0.15551889E+03</pdfrwt>
<pdfrwt beam="1">  1       -4 0.97027515E-02 0.15551889E+03</pdfrwt>
<totfact> 0.50392780E+03</totfact>
</mgrwt>
</event>
<event>
 4    1  0.5142205E+003  0.1089905E+03  0.7546771E-02  0.1262451E+00
         21   -1    0    0  503  502  0.00000000000E+00  0.00000000000E+00  0.33036700829E+02  0.33036700829E+02  0.00000000000E+00 0.  1.
          2   -1    0    0  502    0 -0.00000000000E+00 -0.00000000000E+00 -0.70908712264E+03  0.70908712264E+03  0.00000000000E+00 0.  1.
         21    1    1    2  503  501 -0.10794509734E+03 -0.15059730417E+02 -0.77510611376E+02  0.13374167038E+03  0.00000000000E+00 0.  1.
          2    1    1    2  501    0  0.10794509734E+03  0.15059730417E+02 -0.59853981043E+03  0.60838215308E+03  0.00000000000E+00 0.  1.
<mgrwt>
<rscale>  2 0.10899055E+03</rscale>
<asrwt>0</asrwt>
<pdfrwt beam="1">  1       21 0.50825693E-02 0.10899055E+03</pdfrwt>
<pdfrwt beam="2">  1        2 0.10909033E+00 0.10899055E+03</pdfrwt>
<totfact> 0.13454961E+05</totfact>
</mgrwt>
</event>
<event>
 4    1  0.5142205E+003  0.1314374E+03  0.7546771E-02  0.1225338E+00
         21   -1    0    0  501  502  0.00000000000E+00  0.00000000000E+00  0.37235609543E+02  0.37235609543E+02  0.00000000000E+00 0. -1.
          2   -1    0    0  503    0 -0.00000000000E+00 -0.00000000000E+00 -0.68186326391E+03  0.68186326391E+03  0.00000000000E+00 0. -1.
         21    1    1    2  503  502 -0.12958202973E+03  0.22006754979E+02 -0.11905812598E+03  0.17734327463E+03  0.00000000000E+00 0. -1.
          2    1    1    2  501    0  0.12958202973E+03 -0.22006754979E+02 -0.52556952839E+03  0.54175559883E+03  0.00000000000E+00 0. -1.
<mgrwt>
<rscale>  2 0.13143744E+03</rscale>
<asrwt>0</asrwt>
<pdfrwt beam="1">  1       21 0.57285555E-02 0.13143744E+03</pdfrwt>
<pdfrwt beam="2">  1        2 0.10490204E+00 0.13143744E+03</pdfrwt>
<totfact> 0.11579126E+05</totfact>
</mgrwt>
</event>
<event>
 4    1  0.5142205E+003  0.1007474E+03  0.7546771E-02  0.1278732E+00
         -3   -1    0    0    0  501 -0.00000000000E+00  0.00000000000E+00  0.18319403830E+03  0.18319403830E+03  0.00000000000E+00 0.  1.
         21   -1    0    0  501  502  0.00000000000E+00 -0.00000000000E+00 -0.89878520180E+02  0.89878520180E+02  0.00000000000E+00 0. -1.
         21    1    1    2  503  502  0.45865676593E+02  0.89701634503E+02 -0.37900651066E+02  0.10764061907E+03  0.00000000000E+00 0. -1.
         -3    1    1    2    0  503 -0.45865676593E+02 -0.89701634503E+02  0.13121616919E+03  0.16543193941E+03  0.00000000000E+00 0.  1.
<mgrwt>
<rscale>  2 0.10074742E+03</rscale>
<asrwt>0</asrwt>
<pdfrwt beam="2">  1       21 0.13827465E-01 0.10074742E+03</pdfrwt>
<pdfrwt beam="1">  1       -3 0.28183698E-01 0.10074742E+03</pdfrwt>
<totfact> 0.25711199E+04</totfact>
</mgrwt>
</event>
<event>
 4    1  0.5142205E+003  0.1298364E+03  0.7546771E-02  0.1227699E+00
         21   -1    0    0  503  502  0.00000000000E+00  0.00000000000E+00  0.10551288639E+02  0.10551288639E+02  0.00000000000E+00 0. -1.
          1   -1    0    0  502    0 -0.00000000000E+00 -0.00000000000E+00 -0.16336601131E+04  0.16336601131E+04  0.00000000000E+00 0. -1.
         21    1    1    2  503  501 -0.53107296111E+02  0.11847831562E+03 -0.68953536417E+03  0.70165270227E+03  0.00000000000E+00 0. -1.
          1    1    1    2  501    0  0.53107296111E+02 -0.11847831562E+03 -0.93357346025E+03  0.94255869942E+03  0.00000000000E+00 0. -1.
<mgrwt>
<rscale>  2 0.12983642E+03</rscale>
<asrwt>0</asrwt>
<pdfrwt beam="1">  1       21 0.16232766E-02 0.12983642E+03</pdfrwt>
<pdfrwt beam="2">  1        1 0.25133210E+00 0.12983642E+03</pdfrwt>
<totfact> 0.11507858E+05</totfact>
</mgrwt>
</event>
<event>
 4    1  0.5142205E+003  0.1248885E+03  0.7546771E-02  0.1235244E+00
         -1   -1    0    0    0  501 -0.00000000000E+00  0.00000000000E+00  0.24280514781E+04  0.24280514781E+04  0.00000000000E+00 0. -1.
         21   -1    0    0  503  502  0.00000000000E+00 -0.00000000000E+00 -0.22432496718E+02  0.22432496718E+02  0.00000000000E+00 0. -1.
         21    1    1    2  503  501 -0.11225244403E+03 -0.54740521426E+02  0.16775773707E+03  0.20914060874E+03  0.00000000000E+00 0. -1.
         -1    1    1    2    0  502  0.11225244403E+03  0.54740521426E+02  0.22378612443E+04  0.22413433661E+04  0.00000000000E+00 0. -1.
<mgrwt>
<rscale>  2 0.12488849E+03</rscale>
<asrwt>0</asrwt>
<pdfrwt beam="2">  1       21 0.34511553E-02 0.12488849E+03</pdfrwt>
<pdfrwt beam="1">  1       -1 0.37354617E+00 0.12488849E+03</pdfrwt>
<totfact> 0.66398566E+02</totfact>
</mgrwt>
</event>
<event>
 4    1  0.5142205E+003  0.1273777E+03  0.7546771E-02  0.1231399E+00
         -2   -1    0    0    0  501 -0.00000000000E+00  0.00000000000E+00  0.37266273905E+03  0.37266273905E+03  0.00000000000E+00 0. -1.
         21   -1    0    0  501  502  0.00000000000E+00 -0.00000000000E+00 -0.54340158809E+02  0.54340158809E+02  0.00000000000E+00 0.  1.
         21    1    1    2  503  502  0.11512718691E+03  0.54505236735E+02  0.63971520040E+02  0.14253927660E+03  0.00000000000E+00 0.  1.
         -2    1    1    2    0  503 -0.11512718691E+03 -0.54505236735E+02  0.25435106020E+03  0.28446362126E+03  0.00000000000E+00 0. -1.
<mgrwt>
<rscale>  2 0.12737775E+03</rscale>
<asrwt>0</asrwt>
<pdfrwt beam="2">  1       21 0.83600247E-02 0.12737775E+03</pdfrwt>
<pdfrwt beam="1">  1       -2 0.57332728E-01 0.12737775E+03</pdfrwt>
<totfact> 0.26018093E+04</totfact>
</mgrwt>
</event>
<event>
 4    1  0.5142205E+003  0.1646173E+03  0.7546771E-02  0.1183580E+00
          2   -1    0    0  503    0 -0.00000000000E+00  0.00000000000E+00  0.13354636742E+04  0.13354636742E+04  0.00000000000E+00 0. -1.
         21   -1    0    0  501  502  0.00000000000E+00 -0.00000000000E+00 -0.32101221577E+02  0.32101221577E+02  0.00000000000E+00 0.  1.
         21    1    1    2  503  502  0.16445733509E+03 -0.72553740653E+01  0.23694407018E+03  0.28851576718E+03  0.00000000000E+00 0.  1.
          2    1    1    2  501    0 -0.16445733509E+03  0.72553740653E+01  0.10664183825E+04  0.10790491286E+04  0.00000000000E+00 0. -1.
<mgrwt>
<rscale>  2 0.16461730E+03</rscale>
<asrwt>0</asrwt>
<pdfrwt beam="2">  1       21 0.49386505E-02 0.16461730E+03</pdfrwt>
<pdfrwt beam="1">  1        2 0.20545591E+00 0.16461730E+03</pdfrwt>
<totfact> 0.59262263E+04</totfact>
</mgrwt>
</event>
<event>
 4    1  0.5142205E+003  0.1072568E+03  0.7546771E-02  0.1265736E+00
         21   -1    0    0  501  502  0.00000000000E+00  0.00000000000E+00  0.89281915206E+03  0.89281915206E+03  0.00000000000E+00 0.  1.
          2   -1    0    0  503    0 -0.00000000000E+00 -0.00000000000E+00 -0.29727739032E+03  0.29727739032E+03  0.00000000000E+00 0.  1.
         21    1    1    2  503  502  0.90068648497E+02  0.58238035632E+02  0.87978054513E+03  0.88629444195E+03  0.00000000000E+00 0.  1.
          2    1    1    2  501    0 -0.90068648497E+02 -0.58238035632E+02 -0.28423878339E+03  0.30380210042E+03  0.00000000000E+00 0.  1.
<mgrwt>
<rscale>  2 0.10725684E+03</rscale>
<asrwt>0</asrwt>
<pdfrwt beam="1">  1       21 0.13735679E+00 0.10725684E+03</pdfrwt>
<pdfrwt beam="2">  1        2 0.45734984E-01 0.10725684E+03</pdfrwt>
<totfact> 0.55238439E+02</totfact>
</mgrwt>
</event>
<event>
 4    1  0.5142205E+003  0.1106922E+03  0.7546771E-02  0.1259293E+00
          3   -1    0    0  503    0 -0.00000000000E+00  0.00000000000E+00  0.11896046159E+04  0.11896046159E+04  0.00000000000E+00 0.  1.
         21   -1    0    0  501  502  0.00000000000E+00 -0.00000000000E+00 -0.32543095698E+02  0.32543095698E+02  0.00000000000E+00 0.  1.
         21    1    1    2  503  502 -0.98699679295E+02  0.50111166865E+02  0.73330812676E+02  0.13277862714E+03  0.00000000000E+00 0.  1.
          3    1    1    2  501    0  0.98699679295E+02 -0.50111166865E+02  0.10837307076E+04  0.10893690845E+04  0.00000000000E+00 0.  1.
<mgrwt>
<rscale>  2 0.11069217E+03</rscale>
<asrwt>0</asrwt>
<pdfrwt beam="2">  1       21 0.50066310E-02 0.11069217E+03</pdfrwt>
<pdfrwt beam="1">  1        3 0.18301606E+00 0.11069217E+03</pdfrwt>
<totfact> 0.26931870E+03</totfact>
</mgrwt>
</event>
<event>
 4    1  0.5142205E+003  0.1063888E+03  0.7546771E-02  0.1267407E+00
         -1   -1    0    0    0  501 -0.00000000000E+00  0.00000000000E+00  0.20070909053E+02  0.20070909053E+02  0.00000000000E+00 0. -1.
         21   -1    0    0  503  502  0.00000000000E+00 -0.00000000000E+00 -0.17916204707E+04  0.17916204707E+04  0.00000000000E+00 0. -1.
         21    1    1    2  503  501 -0.54716151388E+02 -0.91239885874E+02 -0.16356271670E+04  0.16390835255E+04  0.00000000000E+00 0. -1.
         -1    1    1    2    0  502  0.54716151388E+02  0.91239885874E+02 -0.13592239464E+03  0.17260785428E+03  0.00000000000E+00 0. -1.
<mgrwt>
<rscale>  2 0.10638879E+03</rscale>
<asrwt>0</asrwt>
<pdfrwt beam="2">  1       21 0.27563393E+00 0.10638879E+03</pdfrwt>
<pdfrwt beam="1">  1       -1 0.30878320E-02 0.10638879E+03</pdfrwt>
<totfact> 0.16172470E+03</totfact>
</mgrwt>
</event>
<event>
 4    1  0.5142205E+003  0.1239556E+03  0.7546771E-02  0.1236711E+00
         21   -1    0    0  501  502  0.00000000000E+00  0.00000000000E+00  0.31217663232E+02  0.31217663232E+02  0.00000000000E+00 0. -1.
          2   -1    0    0  503    0 -0.00000000000E+00 -0.00000000000E+00 -0.81112519221E+03  0.81112519221E+03  0.00000000000E+00 0. -1.
         21    1    1    2  503  502 -0.12007584612E+03  0.30769685586E+02 -0.12585459562E+03  0.17664756328E+03  0.00000000000E+00 0. -1.
          2    1    1    2  501    0  0.12007584612E+03 -0.30769685586E+02 -0.65405293336E+03  0.66569529216E+03  0.00000000000E+00 0. -1.
<mgrwt>
<rscale>  2 0.12395557E+03</rscale>
<asrwt>0</asrwt>
<pdfrwt beam="1">  1       21 0.48027182E-02 0.12395557E+03</pdfrwt>
<pdfrwt beam="2">  1        2 0.12478847E+00 0.12395557E+03</pdfrwt>
<totfact> 0.12612090E+05</totfact>
</mgrwt>
</event>
<event>
 4    1  0.5142205E+003  0.1227000E+03  0.7546771E-02  0.1238708E+00
         21   -1    0    0  501  502  0.00000000000E+00  0.00000000000E+00  0.75090868424E+01  0.75090868424E+01  0.00000000000E+00 0.  1.
          2   -1    0    0  503    0 -0.00000000000E+00 -0.00000000000E+00 -0.34676083706E+04  0.34676083706E+04  0.00000000000E+00 0. -1.
         21    1    1    2  503  502  0.93054116823E+02 -0.79976305997E+02 -0.60156093761E+03  0.61394693569E+03  0.00000000000E+00 0.  1.
          2    1    1    2  501    0 -0.93054116823E+02  0.79976305997E+02 -0.28585383462E+04  0.28611705218E+04  0.00000000000E+00 0. -1.
<mgrwt>
<rscale>  2 0.12269995E+03</rscale>
<asrwt>0</asrwt>
<pdfrwt beam="1">  1       21 0.11552387E-02 0.12269995E+03</pdfrwt>
<pdfrwt beam="2">  1        2 0.53348072E+00 0.12269995E+03</pdfrwt>
<totfact> 0.43573212E+04</totfact>
</mgrwt>
</event>
<event>
 4    1  0.5142205E+003  0.1218569E+03  0.7546771E-02  0.1240065E+00
         21   -1    0    0  501  502  0.00000000000E+00  0.00000000000E+00  0.88162595682E+01  0.88162595682E+01  0.00000000000E+00 0. -1.
          2   -1    0    0  503    0 -0.00000000000E+00 -0.00000000000E+00 -0.16902465085E+04  0.16902465085E+04  0.00000000000E+00 0. -1.
         21    1    1    2  503  502  0.12083189579E+03 -0.15772229053E+02 -0.79027056990E+03  0.79961033253E+03  0.00000000000E+00 0. -1.
          2    1    1    2  501    0 -0.12083189579E+03  0.15772229053E+02 -0.89115967907E+03  0.89945243557E+03  0.00000000000E+00 0. -1.
<mgrwt>
<rscale>  2 0.12185693E+03</rscale>
<asrwt>0</asrwt>
<pdfrwt beam="1">  1       21 0.13563466E-02 0.12185693E+03</pdfrwt>
<pdfrwt beam="2">  1        2 0.26003811E+00 0.12185693E+03</pdfrwt>
<totfact> 0.31986316E+05</totfact>
</mgrwt>
</event>
<event>
 4    1  0.5142205E+003  0.1066013E+03  0.7546771E-02  0.1266996E+00
         21   -1    0    0  503  502  0.00000000000E+00  0.00000000000E+00  0.23339804163E+02  0.23339804163E+02  0.00000000000E+00 0. -1.
         -1   -1    0    0    0  501 -0.00000000000E+00 -0.00000000000E+00 -0.65927741228E+03  0.65927741228E+03  0.00000000000E+00 0. -1.
         21    1    1    2  503  501  0.18836640039E+02 -0.10492387919E+03 -0.14343879206E+03  0.17871353194E+03  0.00000000000E+00 0. -1.
         -1    1    1    2    0  502 -0.18836640039E+02  0.10492387919E+03 -0.49249881606E+03  0.50390368450E+03  0.00000000000E+00 0. -1.
<mgrwt>
<rscale>  2 0.10660131E+03</rscale>
<asrwt>0</asrwt>
<pdfrwt beam="1">  1       21 0.35907398E-02 0.10660131E+03</pdfrwt>
<pdfrwt beam="2">  1       -1 0.10142727E+00 0.10660131E+03</pdfrwt>
<totfact> 0.42406686E+04</totfact>
</mgrwt>
</event>
<event>
 4    1  0.5142205E+003  0.1030480E+03  0.7546771E-02  0.1274014E+00
         21   -1    0    0  501  502  0.00000000000E+00  0.00000000000E+00  0.86099859508E+03  0.86099859508E+03  0.00000000000E+00 0.  1.
          2   -1    0    0  503    0 -0.00000000000E+00 -0.00000000000E+00 -0.12507739919E+02  0.12507739919E+02  0.00000000000E+00 0.  1.
         21    1    1    2  503  502  0.45788138049E+02 -0.92316483271E+02  0.47583558650E+03  0.48686588713E+03  0.00000000000E+00 0.  1.
          2    1    1    2  501    0 -0.45788138049E+02  0.92316483271E+02  0.37265526867E+03  0.38664044788E+03  0.00000000000E+00 0.  1.
<mgrwt>
<rscale>  2 0.10304798E+03</rscale>
<asrwt>0</asrwt>
<pdfrwt beam="1">  1       21 0.13246128E+00 0.10304798E+03</pdfrwt>
<pdfrwt beam="2">  1        2 0.19242684E-02 0.10304798E+03</pdfrwt>
<totfact> 0.28334276E+04</totfact>
</mgrwt>
</event>
<event>
 4    1  0.5142205E+003  0.1360137E+03  0.7546771E-02  0.1218796E+00
          1   -1    0    0  502    0 -0.00000000000E+00  0.00000000000E+00  0.90828298804E+02  0.90828298804E+02  0.00000000000E+00 0.  1.
         21   -1    0    0  503  502  0.00000000000E+00 -0.00000000000E+00 -0.22923515584E+03  0.22923515584E+03  0.00000000000E+00 0.  1.
         21    1    1    2  503  501 -0.13004447465E+03 -0.39851595094E+02 -0.12263805677E+03  0.18313876702E+03  0.00000000000E+00 0.  1.
          1    1    1    2  501    0  0.13004447465E+03  0.39851595094E+02 -0.15768800265E+02  0.13692468762E+03  0.00000000000E+00 0.  1.
<mgrwt>
<rscale>  2 0.13601366E+03</rscale>
<asrwt>0</asrwt>
<pdfrwt beam="2">  1       21 0.35266946E-01 0.13601366E+03</pdfrwt>
<pdfrwt beam="1">  1        1 0.13973585E-01 0.13601366E+03</pdfrwt>
<totfact> 0.33873996E+04</totfact>
</mgrwt>
</event>
<event>
 4    1  0.5142205E+003  0.1091449E+03  0.7546771E-02  0.1262162E+00
         21   -1    0    0  501  502  0.00000000000E+00  0.00000000000E+00  0.30313319090E+02  0.30313319090E+02  0.00000000000E+00 0.  1.
          1   -1    0    0  503    0 -0.00000000000E+00 -0.00000000000E+00 -0.19394957728E+04  0.19394957728E+04  0.00000000000E+00 0.  1.
         21    1    1    2  503  502 -0.10355315016E+03 -0.34486965335E+02 -0.75110066068E+02  0.13249199112E+03  0.00000000000E+00 0.  1.
          1    1    1    2  501    0  0.10355315016E+03  0.34486965335E+02 -0.18340723877E+04  0.18373171008E+04  0.00000000000E+00 0.  1.
<mgrwt>
<rscale>  2 0.10914488E+03</rscale>
<asrwt>0</asrwt>
<pdfrwt beam="1">  1       21 0.46635860E-02 0.10914488E+03</pdfrwt>
<pdfrwt beam="2">  1        1 0.29838406E+00 0.10914488E+03</pdfrwt>
<totfact> 0.13214827E+04</totfact>
</mgrwt>
</event>
<event>
 4    1  0.5142205E+003  0.1067178E+03  0.7546771E-02  0.1266772E+00
          2   -1    0    0  503    0 -0.00000000000E+00  0.00000000000E+00  0.29200813537E+02  0.29200813537E+02  0.00000000000E+00 0.  1.
         21   -1    0    0  501  502  0.00000000000E+00 -0.00000000000E+00 -0.39790200199E+03  0.39790200199E+03  0.00000000000E+00 0. -1.
         21    1    1    2  503  502 -0.10624368021E+03  0.10048377105E+02 -0.21442052351E+03  0.23950960392E+03  0.00000000000E+00 0. -1.
          2    1    1    2  501    0  0.10624368021E+03 -0.10048377105E+02 -0.15428066495E+03  0.18759321161E+03  0.00000000000E+00 0.  1.
<mgrwt>
<rscale>  2 0.10671780E+03</rscale>
<asrwt>0</asrwt>
<pdfrwt beam="2">  1       21 0.61215695E-01 0.10671780E+03</pdfrwt>
<pdfrwt beam="1">  1        2 0.44924327E-02 0.10671780E+03</pdfrwt>
<totfact> 0.53254204E+04</totfact>
</mgrwt>
</event>
<event>
 4    1  0.5142205E+003  0.1104133E+03  0.7546771E-02  0.1259806E+00
          2   -1    0    0  502    0 -0.00000000000E+00  0.00000000000E+00  0.36022960689E+03  0.36022960689E+03  0.00000000000E+00 0. -1.
         21   -1    0    0  503  502  0.00000000000E+00 -0.00000000000E+00 -0.13097895282E+03  0.13097895282E+03  0.00000000000E+00 0. -1.
         21    1    1    2  503  501 -0.29429767252E+02  0.10641891946E+03 -0.96882344947E+02  0.14689209094E+03  0.00000000000E+00 0. -1.
          2    1    1    2  501    0  0.29429767252E+02 -0.10641891946E+03  0.32613299902E+03  0.34431646877E+03  0.00000000000E+00 0. -1.
<mgrwt>
<rscale>  2 0.11041330E+03</rscale>
<asrwt>0</asrwt>
<pdfrwt beam="2">  1       21 0.20150608E-01 0.11041330E+03</pdfrwt>
<pdfrwt beam="1">  1        2 0.55419939E-01 0.11041330E+03</pdfrwt>
<totfact> 0.25505738E+04</totfact>
</mgrwt>
</event>
<event>
 4    1  0.5142205E+003  0.1367017E+03  0.7546771E-02  0.1217837E+00
          2   -1    0    0  502    0 -0.00000000000E+00  0.00000000000E+00  0.41710486344E+03  0.41710486344E+03  0.00000000000E+00 0. -1.
         21   -1    0    0  503  502  0.00000000000E+00 -0.00000000000E+00 -0.85754297111E+02  0.85754297111E+02  0.00000000000E+00 0. -1.
         21    1    1    2  503  501 -0.48811754916E+02  0.12769007898E+03 -0.80747388742E+01  0.13693993244E+03  0.00000000000E+00 0. -1.
          2    1    1    2  501    0  0.48811754916E+02 -0.12769007898E+03  0.33942530520E+03  0.36591922811E+03  0.00000000000E+00 0. -1.
<mgrwt>
<rscale>  2 0.13670166E+03</rscale>
<asrwt>0</asrwt>
<pdfrwt beam="2">  1       21 0.13192969E-01 0.13670166E+03</pdfrwt>
<pdfrwt beam="1">  1        2 0.64169978E-01 0.13670166E+03</pdfrwt>
<totfact> 0.47068181E+04</totfact>
</mgrwt>
</event>
<event>
 4    1  0.5142205E+003  0.1132685E+03  0.7546771E-02  0.1254634E+00
         -1   -1    0    0    0  501 -0.00000000000E+00  0.00000000000E+00  0.13459373181E+03  0.13459373181E+03  0.00000000000E+00 0. -1.
         21   -1    0    0  503  502  0.00000000000E+00 -0.00000000000E+00 -0.17441532294E+03  0.17441532294E+03  0.00000000000E+00 0. -1.
         21    1    1    2  503  501  0.98659696943E+02  0.55641791340E+02 -0.12395521265E+03  0.16791259479E+03  0.00000000000E+00 0. -1.
         -1    1    1    2    0  502 -0.98659696943E+02 -0.55641791340E+02  0.84133621523E+02  0.14109645997E+03  0.00000000000E+00 0. -1.
<mgrwt>
<rscale>  2 0.11326846E+03</rscale>
<asrwt>0</asrwt>
<pdfrwt beam="2">  1       21 0.26833127E-01 0.11326846E+03</pdfrwt>
<pdfrwt beam="1">  1       -1 0.20706728E-01 0.11326846E+03</pdfrwt>
<totfact> 0.22751969E+04</totfact>
</mgrwt>
</event>
<event>
 4    1  0.5142205E+003  0.1232794E+03  0.7546771E-02  0.1237783E+00
          1   -1    0    0  503    0 -0.00000000000E+00  0.00000000000E+00  0.82681152764E+03  0.82681152764E+03  0.00000000000E+00 0. -1.
         21   -1    0    0  501  502  0.00000000000E+00 -0.00000000000E+00 -0.22615678918E+02  0.22615678918E+02  0.00000000000E+00 0. -1.
         21    1    1    2  503  502 -0.90986947073E+02  0.83181616973E+02  0.21832131504E+03  0.25072295974E+03  0.00000000000E+00 0. -1.
          1    1    1    2  501    0  0.90986947073E+02 -0.83181616973E+02  0.58587453368E+03  0.59870424682E+03  0.00000000000E+00 0. -1.
<mgrwt>
<rscale>  2 0.12327938E+03</rscale>
<asrwt>0</asrwt>
<pdfrwt beam="2">  1       21 0.34793359E-02 0.12327938E+03</pdfrwt>
<pdfrwt beam="1">  1        1 0.12720175E+00 0.12327938E+03</pdfrwt>
<totfact> 0.12024207E+05</totfact>
</mgrwt>
</event>
<event>
 4    1  0.5142205E+003  0.1126918E+03  0.7546771E-02  0.1255665E+00
         21   -1    0    0  503  502  0.00000000000E+00  0.00000000000E+00  0.13890873406E+02  0.13890873406E+02  0.00000000000E+00 0. -1.
          2   -1    0    0  502    0 -0.00000000000E+00 -0.00000000000E+00 -0.93375156774E+03  0.93375156774E+03  0.00000000000E+00 0.  1.
         21    1    1    2  503  501  0.93644701190E+02 -0.62690675779E+02 -0.39141970695E+03  0.40731908607E+03  0.00000000000E+00 0. -1.
          2    1    1    2  501    0 -0.93644701190E+02  0.62690675779E+02 -0.52844098738E+03  0.54032335507E+03  0.00000000000E+00 0.  1.
<mgrwt>
<rscale>  2 0.11269184E+03</rscale>
<asrwt>0</asrwt>
<pdfrwt beam="1">  1       21 0.21370569E-02 0.11269184E+03</pdfrwt>
<pdfrwt beam="2">  1        2 0.14365412E+00 0.11269184E+03</pdfrwt>
<totfact> 0.39667295E+05</totfact>
</mgrwt>
</event>
<event>
 4    1  0.5142205E+003  0.1435934E+03  0.7546771E-02  0.1208574E+00
          2   -1    0    0  503    0 -0.00000000000E+00  0.00000000000E+00  0.39520189477E+04  0.39520189477E+04  0.00000000000E+00 0. -1.
         21   -1    0    0  501  502  0.00000000000E+00 -0.00000000000E+00 -0.14122391118E+02  0.14122391118E+02  0.00000000000E+00 0.  1.
         21    1    1    2  503  502 -0.13889904187E+03 -0.36416030818E+02  0.39423312435E+03  0.41956981239E+03  0.00000000000E+00 0.  1.
          2    1    1    2  501    0  0.13889904187E+03  0.36416030818E+02  0.35436634323E+04  0.35465715265E+04  0.00000000000E+00 0. -1.
<mgrwt>
<rscale>  2 0.14359342E+03</rscale>
<asrwt>0</asrwt>
<pdfrwt beam="2">  1       21 0.21726787E-02 0.14359342E+03</pdfrwt>
<pdfrwt beam="1">  1        2 0.60800203E+00 0.14359342E+03</pdfrwt>
<totfact> 0.72656559E+03</totfact>
</mgrwt>
</event>
<event>
 4    1  0.5142205E+003  0.2306427E+03  0.7546771E-02  0.1126188E+00
         21   -1    0    0  501  502  0.00000000000E+00  0.00000000000E+00  0.27936961452E+03  0.27936961452E+03  0.00000000000E+00 0. -1.
          2   -1    0    0  503    0 -0.00000000000E+00 -0.00000000000E+00 -0.63520105118E+03  0.63520105118E+03  0.00000000000E+00 0.  1.
         21    1    1    2  503  502  0.19050603892E+03 -0.13001354911E+03  0.20473929441E+03  0.30840598647E+03  0.00000000000E+00 0. -1.
          2    1    1    2  501    0 -0.19050603892E+03  0.13001354911E+03 -0.56057073106E+03  0.60616467923E+03  0.00000000000E+00 0.  1.
<mgrwt>
<rscale>  2 0.23064274E+03</rscale>
<asrwt>0</asrwt>
<pdfrwt beam="1">  1       21 0.42979941E-01 0.23064274E+03</pdfrwt>
<pdfrwt beam="2">  1        2 0.97723239E-01 0.23064274E+03</pdfrwt>
<totfact> 0.30448133E+03</totfact>
</mgrwt>
</event>
<event>
 4    1  0.5142205E+003  0.1630335E+03  0.7546771E-02  0.1185314E+00
         -2   -1    0    0    0  501 -0.00000000000E+00  0.00000000000E+00  0.50062288437E+03  0.50062288437E+03  0.00000000000E+00 0. -1.
         21   -1    0    0  503  502  0.00000000000E+00 -0.00000000000E+00 -0.97850108099E+02  0.97850108099E+02  0.00000000000E+00 0.  1.
         21    1    1    2  503  501 -0.16302497077E+03 -0.16635486709E+01 -0.99083948256E+00  0.16303646909E+03  0.00000000000E+00 0.  1.
         -2    1    1    2    0  502  0.16302497077E+03  0.16635486709E+01  0.40376361575E+03  0.43543652338E+03  0.00000000000E+00 0. -1.
<mgrwt>
<rscale>  2 0.16303346E+03</rscale>
<asrwt>0</asrwt>
<pdfrwt beam="2">  1       21 0.15053863E-01 0.16303346E+03</pdfrwt>
<pdfrwt beam="1">  1       -2 0.77018904E-01 0.16303346E+03</pdfrwt>
<totfact> 0.49516038E+03</totfact>
</mgrwt>
</event>
<event>
 4    1  0.5142205E+003  0.1180177E+03  0.7546771E-02  0.1246403E+00
          2   -1    0    0  503    0 -0.00000000000E+00  0.00000000000E+00  0.16161093955E+04  0.16161093955E+04  0.00000000000E+00 0.  1.
         21   -1    0    0  501  502  0.00000000000E+00 -0.00000000000E+00 -0.13707022900E+02  0.13707022900E+02  0.00000000000E+00 0.  1.
         21    1    1    2  503  502  0.11696672231E+03  0.15715255122E+02  0.30467776924E+03  0.32673647859E+03  0.00000000000E+00 0.  1.
          2    1    1    2  501    0 -0.11696672231E+03 -0.15715255122E+02  0.12977246034E+04  0.13030799399E+04  0.00000000000E+00 0.  1.
<mgrwt>
<rscale>  2 0.11801772E+03</rscale>
<asrwt>0</asrwt>
<pdfrwt beam="2">  1       21 0.21087740E-02 0.11801772E+03</pdfrwt>
<pdfrwt beam="1">  1        2 0.24863206E+00 0.11801772E+03</pdfrwt>
<totfact> 0.17208892E+05</totfact>
</mgrwt>
</event>
<event>
 4    1  0.5142205E+003  0.1682921E+03  0.7546771E-02  0.1179641E+00
         21   -1    0    0  503  502  0.00000000000E+00  0.00000000000E+00  0.46213905023E+03  0.46213905023E+03  0.00000000000E+00 0.  1.
          2   -1    0    0  502    0 -0.00000000000E+00 -0.00000000000E+00 -0.26329872050E+03  0.26329872050E+03  0.00000000000E+00 0. -1.
         21    1    1    2  503  501 -0.14299376170E+03  0.88741295810E+02  0.41713400241E+03  0.44980330083E+03  0.00000000000E+00 0.  1.
          2    1    1    2  501    0  0.14299376170E+03 -0.88741295810E+02 -0.21829367268E+03  0.27563446991E+03  0.00000000000E+00 0. -1.
<mgrwt>
<rscale>  2 0.16829211E+03</rscale>
<asrwt>0</asrwt>
<pdfrwt beam="1">  1       21 0.71098315E-01 0.16829211E+03</pdfrwt>
<pdfrwt beam="2">  1        2 0.40507496E-01 0.16829211E+03</pdfrwt>
<totfact> 0.28195926E+03</totfact>
</mgrwt>
</event>
<event>
 4    1  0.5142205E+003  0.1105284E+03  0.7546771E-02  0.1259594E+00
         21   -1    0    0  501  502  0.00000000000E+00  0.00000000000E+00  0.51291788555E+02  0.51291788555E+02  0.00000000000E+00 0.  1.
          4   -1    0    0  503    0 -0.00000000000E+00 -0.00000000000E+00 -0.27148038722E+03  0.27148038722E+03  0.00000000000E+00 0.  1.
         21    1    1    2  503  502  0.10002694704E+03 -0.47022759217E+02 -0.53569328933E+02  0.12282590533E+03  0.00000000000E+00 0.  1.
          4    1    1    2  501    0 -0.10002694704E+03  0.47022759217E+02 -0.16661926973E+03  0.19994627044E+03  0.00000000000E+00 0.  1.
<mgrwt>
<rscale>  2 0.11052841E+03</rscale>
<asrwt>0</asrwt>
<pdfrwt beam="1">  1       21 0.78910445E-02 0.11052841E+03</pdfrwt>
<pdfrwt beam="2">  1        4 0.41766213E-01 0.11052841E+03</pdfrwt>
<totfact> 0.27196246E+04</totfact>
</mgrwt>
</event>
<event>
 4    1  0.5142205E+003  0.1272026E+03  0.7546771E-02  0.1231667E+00
         21   -1    0    0  501  502  0.00000000000E+00  0.00000000000E+00  0.75713465127E+02  0.75713465127E+02  0.00000000000E+00 0. -1.
          1   -1    0    0  503    0 -0.00000000000E+00 -0.00000000000E+00 -0.71276675623E+03  0.71276675623E+03  0.00000000000E+00 0. -1.
         21    1    1    2  503  502  0.52219576284E+02 -0.11598968455E+03  0.11358987704E+02  0.12770872199E+03  0.00000000000E+00 0. -1.
          1    1    1    2  501    0 -0.52219576284E+02  0.11598968455E+03 -0.64841227881E+03  0.66077149937E+03  0.00000000000E+00 0. -1.
<mgrwt>
<rscale>  2 0.12720256E+03</rscale>
<asrwt>0</asrwt>
<pdfrwt beam="1">  1       21 0.11648225E-01 0.12720256E+03</pdfrwt>
<pdfrwt beam="2">  1        1 0.10965643E+00 0.12720256E+03</pdfrwt>
<totfact> 0.19132910E+04</totfact>
</mgrwt>
</event>
<event>
 4    1  0.5142205E+003  0.1019212E+03  0.7546771E-02  0.1276307E+00
         21   -1    0    0  501  502  0.00000000000E+00  0.00000000000E+00  0.19680689012E+02  0.19680689012E+02  0.00000000000E+00 0.  1.
          1   -1    0    0  503    0 -0.00000000000E+00 -0.00000000000E+00 -0.96588153956E+03  0.96588153956E+03  0.00000000000E+00 0.  1.
         21    1    1    2  503  502  0.77409022051E+02 -0.66300686998E+02 -0.14123824834E+03  0.17417284687E+03  0.00000000000E+00 0.  1.
          1    1    1    2  501    0 -0.77409022051E+02  0.66300686998E+02 -0.80496260221E+03  0.81138938171E+03  0.00000000000E+00 0.  1.
<mgrwt>
<rscale>  2 0.10192123E+03</rscale>
<asrwt>0</asrwt>
<pdfrwt beam="1">  1       21 0.30277989E-02 0.10192123E+03</pdfrwt>
<pdfrwt beam="2">  1        1 0.14859713E+00 0.10192123E+03</pdfrwt>
<totfact> 0.11767962E+05</totfact>
</mgrwt>
</event>
<event>
 4    1  0.5142205E+003  0.1168358E+03  0.7546771E-02  0.1248410E+00
         21   -1    0    0  501  502  0.00000000000E+00  0.00000000000E+00  0.89385825439E+01  0.89385825439E+01  0.00000000000E+00 0.  1.
          2   -1    0    0  503    0 -0.00000000000E+00 -0.00000000000E+00 -0.25567864583E+04  0.25567864583E+04  0.00000000000E+00 0.  1.
         21    1    1    2  503  502 -0.11488396622E+03 -0.21266954743E+02 -0.45983172525E+03  0.47444264628E+03  0.00000000000E+00 0.  1.
          2    1    1    2  501    0  0.11488396622E+03  0.21266954743E+02 -0.20880161505E+04  0.20912823946E+04  0.00000000000E+00 0.  1.
<mgrwt>
<rscale>  2 0.11683582E+03</rscale>
<asrwt>0</asrwt>
<pdfrwt beam="1">  1       21 0.13751663E-02 0.11683582E+03</pdfrwt>
<pdfrwt beam="2">  1        2 0.39335183E+00 0.11683582E+03</pdfrwt>
<totfact> 0.11189411E+05</totfact>
</mgrwt>
</event>
<event>
 4    1  0.5142205E+003  0.1597616E+03  0.7546771E-02  0.1188966E+00
          2   -1    0    0  502    0 -0.00000000000E+00  0.00000000000E+00  0.23407496455E+04  0.23407496455E+04  0.00000000000E+00 0.  1.
         21   -1    0    0  503  502  0.00000000000E+00 -0.00000000000E+00 -0.11394188491E+02  0.11394188491E+02  0.00000000000E+00 0.  1.
         21    1    1    2  503  501 -0.15892730679E+03  0.16305910515E+02  0.92076818261E+03  0.93452545052E+03  0.00000000000E+00 0.  1.
          2    1    1    2  501    0  0.15892730679E+03 -0.16305910515E+02  0.14085872744E+04  0.14176183835E+04  0.00000000000E+00 0.  1.
<mgrwt>
<rscale>  2 0.15976161E+03</rscale>
<asrwt>0</asrwt>
<pdfrwt beam="2">  1       21 0.17529539E-02 0.15976161E+03</pdfrwt>
<pdfrwt beam="1">  1        2 0.36011495E+00 0.15976161E+03</pdfrwt>
<totfact> 0.97993642E+04</totfact>
</mgrwt>
</event>
<event>
 4    1  0.5142205E+003  0.1457478E+03  0.7546771E-02  0.1205798E+00
          1   -1    0    0  503    0 -0.00000000000E+00  0.00000000000E+00  0.45574346048E+02  0.45574346048E+02  0.00000000000E+00 0. -1.
         21   -1    0    0  501  502  0.00000000000E+00 -0.00000000000E+00 -0.21261812829E+04  0.21261812829E+04  0.00000000000E+00 0.  1.
         21    1    1    2  503  502  0.13602769010E+03 -0.52334457695E+02 -0.19998031719E+04  0.20051072675E+04  0.00000000000E+00 0.  1.
          1    1    1    2  501    0 -0.13602769010E+03  0.52334457695E+02 -0.80803764954E+02  0.16664836143E+03  0.00000000000E+00 0. -1.
<mgrwt>
<rscale>  2 0.14574782E+03</rscale>
<asrwt>0</asrwt>
<pdfrwt beam="2">  1       21 0.32710486E+00 0.14574782E+03</pdfrwt>
<pdfrwt beam="1">  1        1 0.70114369E-02 0.14574782E+03</pdfrwt>
<totfact> 0.27776082E+02</totfact>
</mgrwt>
</event>
<event>
 4    1  0.5142205E+003  0.1012294E+03  0.7546771E-02  0.1277732E+00
         -4   -1    0    0    0  501 -0.00000000000E+00  0.00000000000E+00  0.10276017830E+04  0.10276017830E+04  0.00000000000E+00 0. -1.
         21   -1    0    0  503  502  0.00000000000E+00 -0.00000000000E+00 -0.33835569869E+02  0.33835569869E+02  0.00000000000E+00 0. -1.
         21    1    1    2  503  501  0.95281031606E+02  0.34189473964E+02  0.51181704621E+02  0.11343263200E+03  0.00000000000E+00 0. -1.
         -4    1    1    2    0  502 -0.95281031606E+02 -0.34189473964E+02  0.94258450854E+03  0.94800472090E+03  0.00000000000E+00 0. -1.
<mgrwt>
<rscale>  2 0.10122942E+03</rscale>
<asrwt>0</asrwt>
<pdfrwt beam="2">  1       21 0.52054731E-02 0.10122942E+03</pdfrwt>
<pdfrwt beam="1">  1       -4 0.15809256E+00 0.10122942E+03</pdfrwt>
<totfact> 0.28272179E+03</totfact>
</mgrwt>
</event>
<event>
 4    1  0.5142205E+003  0.1641165E+03  0.7546771E-02  0.1184126E+00
          2   -1    0    0  502    0 -0.00000000000E+00  0.00000000000E+00  0.86912735726E+03  0.86912735726E+03  0.00000000000E+00 0. -1.
         21   -1    0    0  503  502  0.00000000000E+00 -0.00000000000E+00 -0.87363270866E+02  0.87363270866E+02  0.00000000000E+00 0. -1.
         21    1    1    2  503  501  0.65692066393E+02  0.15039539385E+03  0.67123935674E+01  0.16425370104E+03  0.00000000000E+00 0. -1.
          2    1    1    2  501    0 -0.65692066393E+02 -0.15039539385E+03  0.77505169283E+03  0.79223692708E+03  0.00000000000E+00 0. -1.
<mgrwt>
<rscale>  2 0.16411649E+03</rscale>
<asrwt>0</asrwt>
<pdfrwt beam="2">  1       21 0.13440504E-01 0.16411649E+03</pdfrwt>
<pdfrwt beam="1">  1        2 0.13371190E+00 0.16411649E+03</pdfrwt>
<totfact> 0.19427509E+04</totfact>
</mgrwt>
</event>
<event>
 4    1  0.5142205E+003  0.1350837E+03  0.7546771E-02  0.1220102E+00
          1   -1    0    0  502    0 -0.00000000000E+00  0.00000000000E+00  0.18061674892E+04  0.18061674892E+04  0.00000000000E+00 0.  1.
         21   -1    0    0  503  502  0.00000000000E+00 -0.00000000000E+00 -0.10599995925E+02  0.10599995925E+02  0.00000000000E+00 0.  1.
         21    1    1    2  503  501  0.66579888348E+01  0.13491952438E+03  0.70107761529E+03  0.71397298936E+03  0.00000000000E+00 0.  1.
          1    1    1    2  501    0 -0.66579888348E+01 -0.13491952438E+03  0.10944898780E+04  0.11027944958E+04  0.00000000000E+00 0.  1.
<mgrwt>
<rscale>  2 0.13508370E+03</rscale>
<asrwt>0</asrwt>
<pdfrwt beam="2">  1       21 0.16307700E-02 0.13508370E+03</pdfrwt>
<pdfrwt beam="1">  1        1 0.27787168E+00 0.13508370E+03</pdfrwt>
<totfact> 0.88670894E+04</totfact>
</mgrwt>
</event>
<event>
 4    1  0.5142205E+003  0.1148967E+03  0.7546771E-02  0.1251762E+00
          2   -1    0    0  502    0 -0.00000000000E+00  0.00000000000E+00  0.10731676215E+04  0.10731676215E+04  0.00000000000E+00 0.  1.
         21   -1    0    0  503  502  0.00000000000E+00 -0.00000000000E+00 -0.21036134594E+02  0.21036134594E+02  0.00000000000E+00 0.  1.
         21    1    1    2  503  501 -0.75244138097E+01  0.11465004921E+03  0.17352035372E+03  0.20811190197E+03  0.00000000000E+00 0.  1.
          2    1    1    2  501    0  0.75244138097E+01 -0.11465004921E+03  0.87861113323E+03  0.88609185416E+03  0.00000000000E+00 0.  1.
<mgrwt>
<rscale>  2 0.11489670E+03</rscale>
<asrwt>0</asrwt>
<pdfrwt beam="2">  1       21 0.32363292E-02 0.11489670E+03</pdfrwt>
<pdfrwt beam="1">  1        2 0.16510267E+00 0.11489670E+03</pdfrwt>
<totfact> 0.16713051E+05</totfact>
</mgrwt>
</event>
<event>
 4    1  0.5142205E+003  0.1306549E+03  0.7546771E-02  0.1226487E+00
         21   -1    0    0  501  502  0.00000000000E+00  0.00000000000E+00  0.10289377689E+02  0.10289377689E+02  0.00000000000E+00 0. -1.
          1   -1    0    0  503    0 -0.00000000000E+00 -0.00000000000E+00 -0.38150298645E+04  0.38150298645E+04  0.00000000000E+00 0.  1.
         21    1    1    2  503  502 -0.53222982526E+01  0.13054645152E+03 -0.46453215473E+03  0.48255655175E+03  0.00000000000E+00 0. -1.
          1    1    1    2  501    0  0.53222982526E+01 -0.13054645152E+03 -0.33402083321E+04  0.33427626905E+04  0.00000000000E+00 0.  1.
<mgrwt>
<rscale>  2 0.13065490E+03</rscale>
<asrwt>0</asrwt>
<pdfrwt beam="1">  1       21 0.15829815E-02 0.13065490E+03</pdfrwt>
<pdfrwt beam="2">  1        1 0.58692757E+00 0.13065490E+03</pdfrwt>
<totfact> 0.39241127E+03</totfact>
</mgrwt>
</event>
<event>
 4    1  0.5142205E+003  0.1121515E+03  0.7546771E-02  0.1256637E+00
          3   -1    0    0  503    0 -0.00000000000E+00  0.00000000000E+00  0.26521047944E+03  0.26521047944E+03  0.00000000000E+00 0.  1.
         21   -1    0    0  501  502  0.00000000000E+00 -0.00000000000E+00 -0.66511603024E+02  0.66511603024E+02  0.00000000000E+00 0.  1.
         21    1    1    2  503  502 -0.77672502454E+02 -0.80900851696E+02  0.10502058755E+02  0.11264217097E+03  0.00000000000E+00 0.  1.
          3    1    1    2  501    0  0.77672502454E+02  0.80900851696E+02  0.18819681766E+03  0.21907991149E+03  0.00000000000E+00 0.  1.
<mgrwt>
<rscale>  2 0.11215153E+03</rscale>
<asrwt>0</asrwt>
<pdfrwt beam="2">  1       21 0.10232554E-01 0.11215153E+03</pdfrwt>
<pdfrwt beam="1">  1        3 0.40801612E-01 0.11215153E+03</pdfrwt>
<totfact> 0.22089039E+04</totfact>
</mgrwt>
</event>
<event>
 4    1  0.5142205E+003  0.1339058E+03  0.7546771E-02  0.1221773E+00
         -2   -1    0    0    0  501 -0.00000000000E+00  0.00000000000E+00  0.79656947247E+02  0.79656947247E+02  0.00000000000E+00 0.  1.
         21   -1    0    0  501  502  0.00000000000E+00 -0.00000000000E+00 -0.34275799686E+03  0.34275799686E+03  0.00000000000E+00 0. -1.
         21    1    1    2  503  502  0.10046579867E+03 -0.88528970048E+02 -0.25529526609E+03  0.28828185536E+03  0.00000000000E+00 0. -1.
         -2    1    1    2    0  503 -0.10046579867E+03  0.88528970048E+02 -0.78057835237E+01  0.13413308875E+03  0.00000000000E+00 0.  1.
<mgrwt>
<rscale>  2 0.13390577E+03</rscale>
<asrwt>0</asrwt>
<pdfrwt beam="2">  1       21 0.52732000E-01 0.13390577E+03</pdfrwt>
<pdfrwt beam="1">  1       -2 0.12254915E-01 0.13390577E+03</pdfrwt>
<totfact> 0.12868622E+04</totfact>
</mgrwt>
</event>
<event>
 4    1  0.5142205E+003  0.1003592E+03  0.7546771E-02  0.1279542E+00
          2   -1    0    0  502    0 -0.00000000000E+00  0.00000000000E+00  0.36115762446E+03  0.36115762446E+03  0.00000000000E+00 0.  1.
         21   -1    0    0  503  502  0.00000000000E+00 -0.00000000000E+00 -0.32947944576E+02  0.32947944576E+02  0.00000000000E+00 0. -1.
         21    1    1    2  503  501  0.65052976249E+01 -0.10014809923E+03  0.86882729329E+02  0.13274249257E+03  0.00000000000E+00 0. -1.
          2    1    1    2  501    0 -0.65052976249E+01  0.10014809923E+03  0.24132695055E+03  0.26136307647E+03  0.00000000000E+00 0.  1.
<mgrwt>
<rscale>  2 0.10035916E+03</rscale>
<asrwt>0</asrwt>
<pdfrwt beam="2">  1       21 0.50689148E-02 0.10035916E+03</pdfrwt>
<pdfrwt beam="1">  1        2 0.55562709E-01 0.10035916E+03</pdfrwt>
<totfact> 0.28229011E+05</totfact>
</mgrwt>
</event>
<event>
 4    1  0.5142205E+003  0.1311969E+03  0.7546771E-02  0.1225690E+00
          2   -1    0    0  502    0 -0.00000000000E+00  0.00000000000E+00  0.21043226403E+04  0.21043226403E+04  0.00000000000E+00 0. -1.
         21   -1    0    0  503  502  0.00000000000E+00 -0.00000000000E+00 -0.23645165381E+03  0.23645165381E+03  0.00000000000E+00 0. -1.
         21    1    1    2  503  501  0.12232741474E+03  0.47419729090E+02 -0.21602968396E+03  0.25274780208E+03  0.00000000000E+00 0. -1.
          2    1    1    2  501    0 -0.12232741474E+03 -0.47419729090E+02  0.20839006705E+04  0.20880264920E+04  0.00000000000E+00 0. -1.
<mgrwt>
<rscale>  2 0.13119690E+03</rscale>
<asrwt>0</asrwt>
<pdfrwt beam="2">  1       21 0.36377179E-01 0.13119690E+03</pdfrwt>
<pdfrwt beam="1">  1        2 0.32374193E+00 0.13119690E+03</pdfrwt>
<totfact> 0.65565369E+02</totfact>
</mgrwt>
</event>
<event>
 4    1  0.5142205E+003  0.1090625E+03  0.7546771E-02  0.1262316E+00
         21   -1    0    0  503  502  0.00000000000E+00  0.00000000000E+00  0.46809216503E+02  0.46809216503E+02  0.00000000000E+00 0. -1.
          2   -1    0    0  502    0 -0.00000000000E+00 -0.00000000000E+00 -0.16520096735E+04  0.16520096735E+04  0.00000000000E+00 0. -1.
         21    1    1    2  503  501 -0.56861876729E+01  0.10891418313E+03 -0.21244164585E+02  0.11111231501E+03  0.00000000000E+00 0. -1.
          2    1    1    2  501    0  0.56861876729E+01 -0.10891418313E+03 -0.15839562924E+04  0.15877065750E+04  0.00000000000E+00 0. -1.
<mgrwt>
<rscale>  2 0.10906251E+03</rscale>
<asrwt>0</asrwt>
<pdfrwt beam="1">  1       21 0.72014179E-02 0.10906251E+03</pdfrwt>
<pdfrwt beam="2">  1        2 0.25415533E+00 0.10906251E+03</pdfrwt>
<totfact> 0.21614760E+04</totfact>
</mgrwt>
</event>
<event>
 4    1  0.5142205E+003  0.1178988E+03  0.7546771E-02  0.1246604E+00
         21   -1    0    0  503  502  0.00000000000E+00  0.00000000000E+00  0.97556795730E+02  0.97556795730E+02  0.00000000000E+00 0.  1.
          1   -1    0    0  502    0 -0.00000000000E+00 -0.00000000000E+00 -0.11323085032E+04  0.11323085032E+04  0.00000000000E+00 0.  1.
         21    1    1    2  503  501  0.38684497945E+02 -0.11137166628E+03  0.57566883324E+02  0.13120245610E+03  0.00000000000E+00 0.  1.
          1    1    1    2  501    0 -0.38684497945E+02  0.11137166628E+03 -0.10923185908E+04  0.10986628428E+04  0.00000000000E+00 0.  1.
<mgrwt>
<rscale>  2 0.11789885E+03</rscale>
<asrwt>0</asrwt>
<pdfrwt beam="1">  1       21 0.15008738E-01 0.11789885E+03</pdfrwt>
<pdfrwt beam="2">  1        1 0.17420131E+00 0.11789885E+03</pdfrwt>
<totfact> 0.58331129E+03</totfact>
</mgrwt>
</event>
<event>
 4    1  0.5142205E+003  0.1023589E+03  0.7546771E-02  0.1275412E+00
         21   -1    0    0  503  502  0.00000000000E+00  0.00000000000E+00  0.40224950095E+03  0.40224950095E+03  0.00000000000E+00 0. -1.
          1   -1    0    0  502    0 -0.00000000000E+00 -0.00000000000E+00 -0.80912397881E+03  0.80912397881E+03  0.00000000000E+00 0.  1.
         21    1    1    2  503  501  0.21219436395E+01 -0.10233688225E+03  0.39242078845E+03  0.40555075554E+03  0.00000000000E+00 0. -1.
          1    1    1    2  501    0 -0.21219436395E+01  0.10233688225E+03 -0.79929526631E+03  0.80582272421E+03  0.00000000000E+00 0.  1.
<mgrwt>
<rscale>  2 0.10235888E+03</rscale>
<asrwt>0</asrwt>
<pdfrwt beam="1">  1       21 0.61884539E-01 0.10235888E+03</pdfrwt>
<pdfrwt beam="2">  1        1 0.12448061E+00 0.10235888E+03</pdfrwt>
<totfact> 0.65995713E+02</totfact>
</mgrwt>
</event>
<event>
 4    1  0.5142205E+003  0.1083838E+03  0.7546771E-02  0.1263592E+00
         21   -1    0    0  501  502  0.00000000000E+00  0.00000000000E+00  0.17744457378E+02  0.17744457378E+02  0.00000000000E+00 0.  1.
         -2   -1    0    0    0  501 -0.00000000000E+00 -0.00000000000E+00 -0.18546038674E+04  0.18546038674E+04  0.00000000000E+00 0.  1.
         21    1    1    2  503  502  0.71468398898E+02 -0.81481973881E+02 -0.16771143037E+03  0.19968517217E+03  0.00000000000E+00 0.  1.
         -2    1    1    2    0  503 -0.71468398898E+02  0.81481973881E+02 -0.16691479796E+04  0.16726631526E+04  0.00000000000E+00 0.  1.
<mgrwt>
<rscale>  2 0.10838378E+03</rscale>
<asrwt>0</asrwt>
<pdfrwt beam="1">  1       21 0.27299181E-02 0.10838378E+03</pdfrwt>
<pdfrwt beam="2">  1       -2 0.28532350E+00 0.10838378E+03</pdfrwt>
<totfact> 0.28167736E+03</totfact>
</mgrwt>
</event>
<event>
 4    1  0.5142205E+003  0.1368643E+03  0.7546771E-02  0.1217612E+00
         21   -1    0    0  503  502  0.00000000000E+00  0.00000000000E+00  0.46805371178E+02  0.46805371178E+02  0.00000000000E+00 0. -1.
          1   -1    0    0  502    0 -0.00000000000E+00 -0.00000000000E+00 -0.10490527792E+04  0.10490527792E+04  0.00000000000E+00 0.  1.
         21    1    1    2  503  501  0.70026072059E+02  0.11759330294E+03 -0.70203923657E+02  0.15381946093E+03  0.00000000000E+00 0. -1.
          1    1    1    2  501    0 -0.70026072059E+02 -0.11759330294E+03 -0.93204348436E+03  0.94203868944E+03  0.00000000000E+00 0.  1.
<mgrwt>
<rscale>  2 0.13686430E+03</rscale>
<asrwt>0</asrwt>
<pdfrwt beam="1">  1       21 0.72008270E-02 0.13686430E+03</pdfrwt>
<pdfrwt beam="2">  1        1 0.16139272E+00 0.13686430E+03</pdfrwt>
<totfact> 0.24072788E+04</totfact>
</mgrwt>
</event>
<event>
 4    1  0.5142205E+003  0.1001948E+03  0.7546771E-02  0.1279887E+00
          2   -1    0    0  502    0 -0.00000000000E+00  0.00000000000E+00  0.90199063613E+02  0.90199063613E+02  0.00000000000E+00 0. -1.
         21   -1    0    0  503  502  0.00000000000E+00 -0.00000000000E+00 -0.13466358631E+03  0.13466358631E+03  0.00000000000E+00 0. -1.
         21    1    1    2  503  501  0.77819782147E+02 -0.63111585321E+02 -0.69064940645E+02  0.12169205694E+03  0.00000000000E+00 0. -1.
          2    1    1    2  501    0 -0.77819782147E+02  0.63111585321E+02  0.24600417944E+02  0.10317059299E+03  0.00000000000E+00 0. -1.
<mgrwt>
<rscale>  2 0.10019476E+03</rscale>
<asrwt>0</asrwt>
<pdfrwt beam="2">  1       21 0.20717475E-01 0.10019476E+03</pdfrwt>
<pdfrwt beam="1">  1        2 0.13876779E-01 0.10019476E+03</pdfrwt>
<totfact> 0.10978275E+05</totfact>
</mgrwt>
</event>
<event>
 4    1  0.5142205E+003  0.1108770E+03  0.7546771E-02  0.1258954E+00
          2   -1    0    0  503    0 -0.00000000000E+00  0.00000000000E+00  0.88478082100E+03  0.88478082100E+03  0.00000000000E+00 0. -1.
         21   -1    0    0  501  502  0.00000000000E+00 -0.00000000000E+00 -0.83171016701E+02  0.83171016701E+02  0.00000000000E+00 0.  1.
         21    1    1    2  503  502  0.44974867371E+02 -0.10134577501E+03 -0.40898101211E+02  0.11817935306E+03  0.00000000000E+00 0.  1.
          2    1    1    2  501    0 -0.44974867371E+02  0.10134577501E+03  0.84250790551E+03  0.84977248464E+03  0.00000000000E+00 0. -1.
<mgrwt>
<rscale>  2 0.11087698E+03</rscale>
<asrwt>0</asrwt>
<pdfrwt beam="2">  1       21 0.12795542E-01 0.11087698E+03</pdfrwt>
<pdfrwt beam="1">  1        2 0.13612012E+00 0.11087698E+03</pdfrwt>
<totfact> 0.20947317E+04</totfact>
</mgrwt>
</event>
<event>
 4    1  0.5142205E+003  0.1206990E+03  0.7546771E-02  0.1241948E+00
          2   -1    0    0  503    0 -0.00000000000E+00  0.00000000000E+00  0.61806808152E+03  0.61806808152E+03  0.00000000000E+00 0. -1.
         21   -1    0    0  501  502  0.00000000000E+00 -0.00000000000E+00 -0.11702783158E+03  0.11702783158E+03  0.00000000000E+00 0.  1.
         21    1    1    2  503  502  0.22138038245E+02 -0.11865140876E+03 -0.77934844369E+02  0.14367355186E+03  0.00000000000E+00 0.  1.
          2    1    1    2  501    0 -0.22138038245E+02  0.11865140876E+03  0.57897509431E+03  0.59142236123E+03  0.00000000000E+00 0. -1.
<mgrwt>
<rscale>  2 0.12069900E+03</rscale>
<asrwt>0</asrwt>
<pdfrwt beam="2">  1       21 0.18004282E-01 0.12069900E+03</pdfrwt>
<pdfrwt beam="1">  1        2 0.95087395E-01 0.12069900E+03</pdfrwt>
<totfact> 0.17419983E+04</totfact>
</mgrwt>
</event>
<event>
 4    1  0.5142205E+003  0.1541613E+03  0.7546771E-02  0.1195451E+00
         21   -1    0    0  503  502  0.00000000000E+00  0.00000000000E+00  0.13770904498E+03  0.13770904498E+03  0.00000000000E+00 0.  1.
          2   -1    0    0  502    0 -0.00000000000E+00 -0.00000000000E+00 -0.20906703751E+04  0.20906703751E+04  0.00000000000E+00 0. -1.
         21    1    1    2  503  501  0.10587042903E+02 -0.15379732951E+03  0.90732059374E+02  0.17887987769E+03  0.00000000000E+00 0.  1.
          2    1    1    2  501    0 -0.10587042903E+02  0.15379732951E+03 -0.20436933895E+04  0.20494995424E+04  0.00000000000E+00 0. -1.
<mgrwt>
<rscale>  2 0.15416129E+03</rscale>
<asrwt>0</asrwt>
<pdfrwt beam="1">  1       21 0.21186007E-01 0.15416129E+03</pdfrwt>
<pdfrwt beam="2">  1        2 0.32164159E+00 0.15416129E+03</pdfrwt>
<totfact> 0.18404688E+03</totfact>
</mgrwt>
</event>
<event>
 4    1  0.5142205E+003  0.1021452E+03  0.7546771E-02  0.1275848E+00
         21   -1    0    0  503  502  0.00000000000E+00  0.00000000000E+00  0.13914448988E+02  0.13914448988E+02  0.00000000000E+00 0. -1.
          2   -1    0    0  502    0 -0.00000000000E+00 -0.00000000000E+00 -0.30507469115E+04  0.30507469115E+04  0.00000000000E+00 0. -1.
         21    1    1    2  503  501 -0.33789907266E+00  0.10214465786E+03 -0.18765942916E+03  0.21365791972E+03  0.00000000000E+00 0. -1.
          2    1    1    2  501    0  0.33789907266E+00 -0.10214465786E+03 -0.28491730333E+04  0.28510034408E+04  0.00000000000E+00 0. -1.
<mgrwt>
<rscale>  2 0.10214522E+03</rscale>
<asrwt>0</asrwt>
<pdfrwt beam="1">  1       21 0.21406822E-02 0.10214522E+03</pdfrwt>
<pdfrwt beam="2">  1        2 0.46934617E+00 0.10214522E+03</pdfrwt>
<totfact> 0.29532367E+04</totfact>
</mgrwt>
</event>
<event>
 4    1  0.5142205E+003  0.1016102E+03  0.7546771E-02  0.1276946E+00
         21   -1    0    0  501  502  0.00000000000E+00  0.00000000000E+00  0.14054727673E+02  0.14054727673E+02  0.00000000000E+00 0.  1.
          2   -1    0    0  503    0 -0.00000000000E+00 -0.00000000000E+00 -0.19975041904E+04  0.19975041904E+04  0.00000000000E+00 0.  1.
         21    1    1    2  503  502 -0.97090857833E+02 -0.29966460013E+02 -0.19199385419E+03  0.21722399372E+03  0.00000000000E+00 0.  1.
          2    1    1    2  501    0  0.97090857833E+02  0.29966460013E+02 -0.17914556086E+04  0.17943349244E+04  0.00000000000E+00 0.  1.
<mgrwt>
<rscale>  2 0.10161015E+03</rscale>
<asrwt>0</asrwt>
<pdfrwt beam="1">  1       21 0.21622678E-02 0.10161015E+03</pdfrwt>
<pdfrwt beam="2">  1        2 0.30730806E+00 0.10161015E+03</pdfrwt>
<totfact> 0.10592722E+05</totfact>
</mgrwt>
</event>
<event>
 4    1  0.5142205E+003  0.1175751E+03  0.7546771E-02  0.1247152E+00
          1   -1    0    0  502    0 -0.00000000000E+00  0.00000000000E+00  0.82334371175E+03  0.82334371175E+03  0.00000000000E+00 0. -1.
         21   -1    0    0  503  502  0.00000000000E+00 -0.00000000000E+00 -0.17938465944E+02  0.17938465944E+02  0.00000000000E+00 0.  1.
         21    1    1    2  503  501 -0.60609293111E+02  0.10074929084E+03  0.29626721749E+03  0.31874467866E+03  0.00000000000E+00 0.  1.
          1    1    1    2  501    0  0.60609293111E+02 -0.10074929084E+03  0.50913802832E+03  0.52253749903E+03  0.00000000000E+00 0. -1.
<mgrwt>
<rscale>  2 0.11757511E+03</rscale>
<asrwt>0</asrwt>
<pdfrwt beam="2">  1       21 0.27597646E-02 0.11757511E+03</pdfrwt>
<pdfrwt beam="1">  1        1 0.12666823E+00 0.11757511E+03</pdfrwt>
<totfact> 0.17669630E+05</totfact>
</mgrwt>
</event>
<event>
 4    1  0.5142205E+003  0.1102919E+03  0.7546771E-02  0.1260030E+00
          2   -1    0    0  502    0 -0.00000000000E+00  0.00000000000E+00  0.15357418152E+04  0.15357418152E+04  0.00000000000E+00 0.  1.
         21   -1    0    0  503  502  0.00000000000E+00 -0.00000000000E+00 -0.57578127251E+02  0.57578127251E+02  0.00000000000E+00 0. -1.
         21    1    1    2  503  501 -0.95148864153E+02  0.55776223909E+02 -0.75495346284E+00  0.11029443983E+03  0.00000000000E+00 0. -1.
          2    1    1    2  501    0  0.95148864153E+02 -0.55776223909E+02  0.14789186414E+04  0.14830255026E+04  0.00000000000E+00 0.  1.
<mgrwt>
<rscale>  2 0.11029186E+03</rscale>
<asrwt>0</asrwt>
<pdfrwt beam="2">  1       21 0.88581746E-02 0.11029186E+03</pdfrwt>
<pdfrwt beam="1">  1        2 0.23626794E+00 0.11029186E+03</pdfrwt>
<totfact> 0.17359983E+04</totfact>
</mgrwt>
</event>
<event>
 4    1  0.5142205E+003  0.1103540E+03  0.7546771E-02  0.1259916E+00
         21   -1    0    0  503  502  0.00000000000E+00  0.00000000000E+00  0.25797589910E+02  0.25797589910E+02  0.00000000000E+00 0. -1.
          2   -1    0    0  502    0 -0.00000000000E+00 -0.00000000000E+00 -0.67623213528E+03  0.67623213528E+03  0.00000000000E+00 0. -1.
         21    1    1    2  503  501  0.21028173086E+02 -0.10833197234E+03 -0.13234213428E+03  0.17231494654E+03  0.00000000000E+00 0. -1.
          2    1    1    2  501    0 -0.21028173086E+02  0.10833197234E+03 -0.51809241109E+03  0.52971477865E+03  0.00000000000E+00 0. -1.
<mgrwt>
<rscale>  2 0.11035398E+03</rscale>
<asrwt>0</asrwt>
<pdfrwt beam="1">  1       21 0.39688600E-02 0.11035398E+03</pdfrwt>
<pdfrwt beam="2">  1        2 0.10403571E+00 0.11035398E+03</pdfrwt>
<totfact> 0.21477538E+05</totfact>
</mgrwt>
</event>
<event>
 4    1  0.5142205E+003  0.1409246E+03  0.7546771E-02  0.1212090E+00
          2   -1    0    0  502    0 -0.00000000000E+00  0.00000000000E+00  0.18257955280E+03  0.18257955280E+03  0.00000000000E+00 0.  1.
         21   -1    0    0  503  502  0.00000000000E+00 -0.00000000000E+00 -0.72875422472E+03  0.72875422472E+03  0.00000000000E+00 0. -1.
         21    1    1    2  503  501  0.11352344836E+03 -0.83499452830E+02 -0.69337455728E+03  0.70755071100E+03  0.00000000000E+00 0. -1.
          2    1    1    2  501    0 -0.11352344836E+03  0.83499452830E+02  0.14719988536E+03  0.20378306653E+03  0.00000000000E+00 0.  1.
<mgrwt>
<rscale>  2 0.14092456E+03</rscale>
<asrwt>0</asrwt>
<pdfrwt beam="2">  1       21 0.11211603E+00 0.14092456E+03</pdfrwt>
<pdfrwt beam="1">  1        2 0.28089162E-01 0.14092456E+03</pdfrwt>
<totfact> 0.14880132E+03</totfact>
</mgrwt>
</event>
<event>
 4    1  0.5142205E+003  0.1326776E+03  0.7546771E-02  0.1223536E+00
          1   -1    0    0  502    0 -0.00000000000E+00  0.00000000000E+00  0.54557456368E+03  0.54557456368E+03  0.00000000000E+00 0. -1.
         21   -1    0    0  503  502  0.00000000000E+00 -0.00000000000E+00 -0.32978241641E+02  0.32978241641E+02  0.00000000000E+00 0. -1.
         21    1    1    2  503  501 -0.26449411458E+02  0.13001448751E+03  0.21377669563E+03  0.25160249189E+03  0.00000000000E+00 0. -1.
          1    1    1    2  501    0  0.26449411458E+02 -0.13001448751E+03  0.29881962640E+03  0.32695031343E+03  0.00000000000E+00 0. -1.
<mgrwt>
<rscale>  2 0.13267757E+03</rscale>
<asrwt>0</asrwt>
<pdfrwt beam="2">  1       21 0.50735760E-02 0.13267757E+03</pdfrwt>
<pdfrwt beam="1">  1        1 0.83934541E-01 0.13267757E+03</pdfrwt>
<totfact> 0.11565605E+05</totfact>
</mgrwt>
</event>
<event>
 4    1  0.5142205E+003  0.1079088E+03  0.7546771E-02  0.1264492E+00
         21   -1    0    0  501  502  0.00000000000E+00  0.00000000000E+00  0.59933000182E+03  0.59933000182E+03  0.00000000000E+00 0. -1.
         -3   -1    0    0    0  501 -0.00000000000E+00 -0.00000000000E+00 -0.44264255267E+02  0.44264255267E+02  0.00000000000E+00 0. -1.
         21    1    1    2  503  502  0.84486890948E+02  0.67128751738E+02  0.51857394172E+03  0.52968220385E+03  0.00000000000E+00 0. -1.
         -3    1    1    2    0  503 -0.84486890948E+02 -0.67128751738E+02  0.36491804837E+02  0.11391205323E+03  0.00000000000E+00 0. -1.
<mgrwt>
<rscale>  2 0.10790878E+03</rscale>
<asrwt>0</asrwt>
<pdfrwt beam="1">  1       21 0.92204610E-01 0.10790878E+03</pdfrwt>
<pdfrwt beam="2">  1       -3 0.68098859E-02 0.10790878E+03</pdfrwt>
<totfact> 0.66777699E+03</totfact>
</mgrwt>
</event>
<event>
 4    1  0.5142205E+003  0.1531101E+03  0.7546771E-02  0.1196703E+00
          2   -1    0    0  503    0 -0.00000000000E+00  0.00000000000E+00  0.19982651326E+04  0.19982651326E+04  0.00000000000E+00 0. -1.
         21   -1    0    0  501  502  0.00000000000E+00 -0.00000000000E+00 -0.12596632815E+02  0.12596632815E+02  0.00000000000E+00 0. -1.
         21    1    1    2  503  502  0.81828241498E+02 -0.12940956487E+03  0.72934663833E+03  0.74524439980E+03  0.00000000000E+00 0. -1.
          2    1    1    2  501    0 -0.81828241498E+02  0.12940956487E+03  0.12563218615E+04  0.12656173656E+04  0.00000000000E+00 0. -1.
<mgrwt>
<rscale>  2 0.15311008E+03</rscale>
<asrwt>0</asrwt>
<pdfrwt beam="2">  1       21 0.19379451E-02 0.15311008E+03</pdfrwt>
<pdfrwt beam="1">  1        2 0.30742515E+00 0.15311008E+03</pdfrwt>
<totfact> 0.12570406E+05</totfact>
</mgrwt>
</event>
<event>
 4    1  0.5142205E+003  0.1707843E+03  0.7546771E-02  0.1177032E+00
          2   -1    0    0  503    0 -0.00000000000E+00  0.00000000000E+00  0.11781052524E+04  0.11781052524E+04  0.00000000000E+00 0. -1.
         21   -1    0    0  501  502  0.00000000000E+00 -0.00000000000E+00 -0.67054292472E+03  0.67054292472E+03  0.00000000000E+00 0. -1.
         21    1    1    2  503  502  0.53088841625E+02 -0.16232325245E+03 -0.65331850076E+03  0.67527203912E+03  0.00000000000E+00 0. -1.
          2    1    1    2  501    0 -0.53088841625E+02  0.16232325245E+03  0.11608808285E+04  0.11733761380E+04  0.00000000000E+00 0. -1.
<mgrwt>
<rscale>  2 0.17078426E+03</rscale>
<asrwt>0</asrwt>
<pdfrwt beam="2">  1       21 0.10316045E+00 0.17078426E+03</pdfrwt>
<pdfrwt beam="1">  1        2 0.18124696E+00 0.17078426E+03</pdfrwt>
<totfact> 0.20425352E+02</totfact>
</mgrwt>
</event>
<event>
 4    1  0.5142205E+003  0.1146442E+03  0.7546771E-02  0.1252203E+00
          2   -1    0    0  503    0 -0.00000000000E+00  0.00000000000E+00  0.39522785404E+03  0.39522785404E+03  0.00000000000E+00 0. -1.
         21   -1    0    0  501  502  0.00000000000E+00 -0.00000000000E+00 -0.67063538515E+03  0.67063538515E+03  0.00000000000E+00 0. -1.
         21    1    1    2  503  502 -0.10894191189E+02  0.11412543911E+03 -0.65725407252E+03  0.66717779872E+03  0.00000000000E+00 0. -1.
          2    1    1    2  501    0  0.10894191189E+02 -0.11412543911E+03  0.38184654141E+03  0.39868544047E+03  0.00000000000E+00 0. -1.
<mgrwt>
<rscale>  2 0.11464423E+03</rscale>
<asrwt>0</asrwt>
<pdfrwt beam="2">  1       21 0.10317467E+00 0.11464423E+03</pdfrwt>
<pdfrwt beam="1">  1        2 0.60804286E-01 0.11464423E+03</pdfrwt>
<totfact> 0.81204563E+02</totfact>
</mgrwt>
</event>
<event>
 4    1  0.5142205E+003  0.1049486E+03  0.7546771E-02  0.1270221E+00
          2   -1    0    0  503    0 -0.00000000000E+00  0.00000000000E+00  0.14721348430E+03  0.14721348430E+03  0.00000000000E+00 0. -1.
         21   -1    0    0  501  502  0.00000000000E+00 -0.00000000000E+00 -0.10893125073E+03  0.10893125073E+03  0.00000000000E+00 0.  1.
         21    1    1    2  503  502  0.33693254612E+02  0.99392996652E+02 -0.52529543669E+02  0.11736079477E+03  0.00000000000E+00 0.  1.
          2    1    1    2  501    0 -0.33693254612E+02 -0.99392996652E+02  0.90811777244E+02  0.13878394027E+03  0.00000000000E+00 0. -1.
<mgrwt>
<rscale>  2 0.10494857E+03</rscale>
<asrwt>0</asrwt>
<pdfrwt beam="2">  1       21 0.16758654E-01 0.10494857E+03</pdfrwt>
<pdfrwt beam="1">  1        2 0.22648228E-01 0.10494857E+03</pdfrwt>
<totfact> 0.92780098E+04</totfact>
</mgrwt>
</event>
<event>
 4    1  0.5142205E+003  0.1098287E+03  0.7546771E-02  0.1260887E+00
          2   -1    0    0  502    0 -0.00000000000E+00  0.00000000000E+00  0.19117203832E+04  0.19117203832E+04  0.00000000000E+00 0. -1.
         21   -1    0    0  503  502  0.00000000000E+00 -0.00000000000E+00 -0.81900010243E+01  0.81900010243E+01  0.00000000000E+00 0.  1.
         21    1    1    2  503  501 -0.60047276316E+02  0.91960174312E+02  0.49180031247E+03  0.50391457252E+03  0.00000000000E+00 0.  1.
          2    1    1    2  501    0  0.60047276316E+02 -0.91960174312E+02  0.14117300697E+04  0.14159958117E+04  0.00000000000E+00 0. -1.
<mgrwt>
<rscale>  2 0.10982873E+03</rscale>
<asrwt>0</asrwt>
<pdfrwt beam="2">  1       21 0.12600017E-02 0.10982873E+03</pdfrwt>
<pdfrwt beam="1">  1        2 0.29411047E+00 0.10982873E+03</pdfrwt>
<totfact> 0.27704875E+05</totfact>
</mgrwt>
</event>
<event>
 4    1  0.5142205E+003  0.1453697E+03  0.7546771E-02  0.1206281E+00
          3   -1    0    0  502    0 -0.00000000000E+00  0.00000000000E+00  0.59488734700E+03  0.59488734700E+03  0.00000000000E+00 0. -1.
         21   -1    0    0  503  502  0.00000000000E+00 -0.00000000000E+00 -0.17785258381E+03  0.17785258381E+03  0.00000000000E+00 0. -1.
         21    1    1    2  503  501  0.45859123994E+02 -0.13794668290E+03 -0.13711978823E+03  0.19983538951E+03  0.00000000000E+00 0. -1.
          3    1    1    2  501    0 -0.45859123994E+02  0.13794668290E+03  0.55415455142E+03  0.57290454129E+03  0.00000000000E+00 0. -1.
<mgrwt>
<rscale>  2 0.14536969E+03</rscale>
<asrwt>0</asrwt>
<pdfrwt beam="2">  1       21 0.27361936E-01 0.14536969E+03</pdfrwt>
<pdfrwt beam="1">  1        3 0.91521130E-01 0.14536969E+03</pdfrwt>
<totfact> 0.70037732E+02</totfact>
</mgrwt>
</event>
<event>
 4    1  0.5142205E+003  0.1012674E+03  0.7546771E-02  0.1277653E+00
         21   -1    0    0  503  502  0.00000000000E+00  0.00000000000E+00  0.17494150075E+03  0.17494150075E+03  0.00000000000E+00 0.  1.
         -1   -1    0    0    0  501 -0.00000000000E+00 -0.00000000000E+00 -0.69441707015E+02  0.69441707015E+02  0.00000000000E+00 0.  1.
         21    1    1    2  503  501 -0.10002223819E+03  0.15831531470E+02  0.10098657208E+03  0.14301529031E+03  0.00000000000E+00 0.  1.
         -1    1    1    2    0  502  0.10002223819E+03 -0.15831531470E+02  0.45132216541E+01  0.10136791746E+03  0.00000000000E+00 0.  1.
<mgrwt>
<rscale>  2 0.10126740E+03</rscale>
<asrwt>0</asrwt>
<pdfrwt beam="1">  1       21 0.26914077E-01 0.10126740E+03</pdfrwt>
<pdfrwt beam="2">  1       -1 0.10683340E-01 0.10126740E+03</pdfrwt>
<totfact> 0.63215709E+04</totfact>
</mgrwt>
</event>
<event>
 4    1  0.5142205E+003  0.1256729E+03  0.7546771E-02  0.1234021E+00
         21   -1    0    0  501  502  0.00000000000E+00  0.00000000000E+00  0.12827195115E+02  0.12827195115E+02  0.00000000000E+00 0.  1.
          2   -1    0    0  503    0 -0.00000000000E+00 -0.00000000000E+00 -0.19165517824E+04  0.19165517824E+04  0.00000000000E+00 0.  1.
         21    1    1    2  503  502  0.12066842299E+03  0.35111290595E+02 -0.37501138954E+03  0.39550880309E+03  0.00000000000E+00 0.  1.
          2    1    1    2  501    0 -0.12066842299E+03 -0.35111290595E+02 -0.15287131977E+04  0.15338701744E+04  0.00000000000E+00 0.  1.
<mgrwt>
<rscale>  2 0.12567287E+03</rscale>
<asrwt>0</asrwt>
<pdfrwt beam="1">  1       21 0.19734136E-02 0.12567287E+03</pdfrwt>
<pdfrwt beam="2">  1        2 0.29485427E+00 0.12567287E+03</pdfrwt>
<totfact> 0.13467425E+05</totfact>
</mgrwt>
</event>
<event>
 4    1  0.5142205E+003  0.1027107E+03  0.7546771E-02  0.1274697E+00
         21   -1    0    0  503  502  0.00000000000E+00  0.00000000000E+00  0.43798112699E+03  0.43798112699E+03  0.00000000000E+00 0.  1.
         -1   -1    0    0    0  501 -0.00000000000E+00 -0.00000000000E+00 -0.78593752313E+02  0.78593752313E+02  0.00000000000E+00 0.  1.
         21    1    1    2  503  501  0.37450554724E+02  0.95639651239E+02  0.39479146548E+03  0.40793355851E+03  0.00000000000E+00 0.  1.
         -1    1    1    2    0  502 -0.37450554724E+02 -0.95639651239E+02 -0.35404090807E+02  0.10864132080E+03  0.00000000000E+00 0.  1.
<mgrwt>
<rscale>  2 0.10271070E+03</rscale>
<asrwt>0</asrwt>
<pdfrwt beam="1">  1       21 0.67381711E-01 0.10271070E+03</pdfrwt>
<pdfrwt beam="2">  1       -1 0.12091347E-01 0.10271070E+03</pdfrwt>
<totfact> 0.82818928E+03</totfact>
</mgrwt>
</event>
<event>
 4    1  0.5142205E+003  0.1524325E+03  0.7546771E-02  0.1197515E+00
         21   -1    0    0  503  502  0.00000000000E+00  0.00000000000E+00  0.60062781594E+03  0.60062781594E+03  0.00000000000E+00 0. -1.
         -1   -1    0    0    0  501 -0.00000000000E+00 -0.00000000000E+00 -0.53415564629E+02  0.53415564629E+02  0.00000000000E+00 0.  1.
         21    1    1    2  503  501 -0.80719592594E+02 -0.12930589941E+03  0.44533486759E+03  0.47070034262E+03  0.00000000000E+00 0. -1.
         -1    1    1    2    0  502  0.80719592594E+02  0.12930589941E+03  0.10187738373E+03  0.18334303795E+03  0.00000000000E+00 0.  1.
<mgrwt>
<rscale>  2 0.15243250E+03</rscale>
<asrwt>0</asrwt>
<pdfrwt beam="1">  1       21 0.92404275E-01 0.15243250E+03</pdfrwt>
<pdfrwt beam="2">  1       -1 0.82177796E-02 0.15243250E+03</pdfrwt>
<totfact> 0.73243438E+03</totfact>
</mgrwt>
</event>
<event>
 4    1  0.5142205E+003  0.1010277E+03  0.7546771E-02  0.1278150E+00
          2   -1    0    0  503    0 -0.00000000000E+00  0.00000000000E+00  0.18451972202E+04  0.18451972202E+04  0.00000000000E+00 0. -1.
         21   -1    0    0  501  502  0.00000000000E+00 -0.00000000000E+00 -0.14565409949E+02  0.14565409949E+02  0.00000000000E+00 0.  1.
         21    1    1    2  503  502 -0.91363338716E+02 -0.43119986385E+02  0.18298805834E+03  0.20902445403E+03  0.00000000000E+00 0.  1.
          2    1    1    2  501    0  0.91363338716E+02  0.43119986385E+02  0.16476437519E+04  0.16507381762E+04  0.00000000000E+00 0. -1.
<mgrwt>
<rscale>  2 0.10102768E+03</rscale>
<asrwt>0</asrwt>
<pdfrwt beam="2">  1       21 0.22408338E-02 0.10102768E+03</pdfrwt>
<pdfrwt beam="1">  1        2 0.28387631E+00 0.10102768E+03</pdfrwt>
<totfact> 0.11935985E+05</totfact>
</mgrwt>
</event>
<event>
 4    1  0.5142205E+003  0.2169798E+03  0.7546771E-02  0.1136155E+00
         21   -1    0    0  503  502  0.00000000000E+00  0.00000000000E+00  0.14843244851E+03  0.14843244851E+03  0.00000000000E+00 0.  1.
          1   -1    0    0  502    0 -0.00000000000E+00 -0.00000000000E+00 -0.36411694801E+03  0.36411694801E+03  0.00000000000E+00 0. -1.
         21    1    1    2  503  501 -0.12216092788E+03  0.17932358174E+03 -0.15833497534E+02  0.21755674872E+03  0.00000000000E+00 0.  1.
          1    1    1    2  501    0  0.12216092788E+03 -0.17932358174E+03 -0.19985100196E+03  0.29499264780E+03  0.00000000000E+00 0. -1.
<mgrwt>
<rscale>  2 0.21697981E+03</rscale>
<asrwt>0</asrwt>
<pdfrwt beam="1">  1       21 0.22835761E-01 0.21697981E+03</pdfrwt>
<pdfrwt beam="2">  1        1 0.56017992E-01 0.21697981E+03</pdfrwt>
<totfact> 0.13448251E+04</totfact>
</mgrwt>
</event>
<event>
 4    1  0.5142205E+003  0.1147487E+03  0.7546771E-02  0.1252020E+00
          2   -1    0    0  503    0 -0.00000000000E+00  0.00000000000E+00  0.75669333155E+03  0.75669333155E+03  0.00000000000E+00 0. -1.
         21   -1    0    0  501  502  0.00000000000E+00 -0.00000000000E+00 -0.18562457940E+02  0.18562457940E+02  0.00000000000E+00 0. -1.
         21    1    1    2  503  502 -0.11421055954E+03  0.11099942192E+02  0.27210620852E+03  0.29531178328E+03  0.00000000000E+00 0. -1.
          2    1    1    2  501    0  0.11421055954E+03 -0.11099942192E+02  0.46602466509E+03  0.47994400621E+03  0.00000000000E+00 0. -1.
<mgrwt>
<rscale>  2 0.11474868E+03</rscale>
<asrwt>0</asrwt>
<pdfrwt beam="2">  1       21 0.28557633E-02 0.11474868E+03</pdfrwt>
<pdfrwt beam="1">  1        2 0.11641434E+00 0.11474868E+03</pdfrwt>
<totfact> 0.32335351E+05</totfact>
</mgrwt>
</event>
<event>
 4    1  0.5142205E+003  0.1089408E+03  0.7546771E-02  0.1262544E+00
         -4   -1    0    0    0  501 -0.00000000000E+00  0.00000000000E+00  0.36768801751E+02  0.36768801751E+02  0.00000000000E+00 0.  1.
         21   -1    0    0  503  502  0.00000000000E+00 -0.00000000000E+00 -0.36293781452E+03  0.36293781452E+03  0.00000000000E+00 0.  1.
         21    1    1    2  503  501  0.10130942592E+03 -0.40056084430E+02 -0.22956610658E+03  0.25410369334E+03  0.00000000000E+00 0.  1.
         -4    1    1    2    0  502 -0.10130942592E+03  0.40056084430E+02 -0.96602906188E+02  0.14560292293E+03  0.00000000000E+00 0.  1.
<mgrwt>
<rscale>  2 0.10894076E+03</rscale>
<asrwt>0</asrwt>
<pdfrwt beam="2">  1       21 0.55836586E-01 0.10894076E+03</pdfrwt>
<pdfrwt beam="1">  1       -4 0.56567388E-02 0.10894076E+03</pdfrwt>
<totfact> 0.23689044E+04</totfact>
</mgrwt>
</event>
<event>
 4    1  0.5142205E+003  0.1045760E+03  0.7546771E-02  0.1270957E+00
          4   -1    0    0  502    0 -0.00000000000E+00  0.00000000000E+00  0.75762042486E+03  0.75762042486E+03  0.00000000000E+00 0. -1.
         21   -1    0    0  503  502  0.00000000000E+00 -0.00000000000E+00 -0.27504006048E+02  0.27504006048E+02  0.00000000000E+00 0. -1.
         21    1    1    2  503  501 -0.28762749013E+01 -0.10453642042E+03  0.94454146397E+02  0.14091742945E+03  0.00000000000E+00 0. -1.
          4    1    1    2  501    0  0.28762749013E+01  0.10453642042E+03  0.63566227241E+03  0.64420700145E+03  0.00000000000E+00 0. -1.
<mgrwt>
<rscale>  2 0.10457598E+03</rscale>
<asrwt>0</asrwt>
<pdfrwt beam="2">  1       21 0.42313861E-02 0.10457598E+03</pdfrwt>
<pdfrwt beam="1">  1        4 0.11655697E+00 0.10457598E+03</pdfrwt>
<totfact> 0.84739049E+03</totfact>
</mgrwt>
</event>
<event>
 4    1  0.5142205E+003  0.1106145E+03  0.7546771E-02  0.1259436E+00
          1   -1    0    0  502    0 -0.00000000000E+00  0.00000000000E+00  0.76936535334E+03  0.76936535334E+03  0.00000000000E+00 0. -1.
         21   -1    0    0  503  502  0.00000000000E+00 -0.00000000000E+00 -0.40163765520E+02  0.40163765520E+02  0.00000000000E+00 0. -1.
         21    1    1    2  503  501 -0.45421165071E+02 -0.10085869403E+03  0.50019026000E+02  0.12139794628E+03  0.00000000000E+00 0. -1.
          1    1    1    2  501    0  0.45421165071E+02  0.10085869403E+03  0.67918256182E+03  0.68813117258E+03  0.00000000000E+00 0. -1.
<mgrwt>
<rscale>  2 0.11061446E+03</rscale>
<asrwt>0</asrwt>
<pdfrwt beam="2">  1       21 0.61790414E-02 0.11061446E+03</pdfrwt>
<pdfrwt beam="1">  1        1 0.11836389E+00 0.11061446E+03</pdfrwt>
<totfact> 0.51258502E+04</totfact>
</mgrwt>
</event>
<event>
 4    1  0.5142205E+003  0.1082847E+03  0.7546771E-02  0.1263780E+00
          1   -1    0    0  502    0 -0.00000000000E+00  0.00000000000E+00  0.13870589224E+04  0.13870589224E+04  0.00000000000E+00 0. -1.
         21   -1    0    0  503  502  0.00000000000E+00 -0.00000000000E+00 -0.95188821116E+01  0.95188821116E+01  0.00000000000E+00 0. -1.
         21    1    1    2  503  501  0.74584282843E+02  0.78503186868E+02  0.45516315094E+03  0.46786649759E+03  0.00000000000E+00 0. -1.
          1    1    1    2  501    0 -0.74584282843E+02 -0.78503186868E+02  0.92237688934E+03  0.92871130692E+03  0.00000000000E+00 0. -1.
<mgrwt>
<rscale>  2 0.10828465E+03</rscale>
<asrwt>0</asrwt>
<pdfrwt beam="2">  1       21 0.14644445E-02 0.10828465E+03</pdfrwt>
<pdfrwt beam="1">  1        1 0.21339352E+00 0.10828465E+03</pdfrwt>
<totfact> 0.19514901E+05</totfact>
</mgrwt>
</event>
<event>
 4    1  0.5142205E+003  0.1102070E+03  0.7546771E-02  0.1260187E+00
          2   -1    0    0  503    0 -0.00000000000E+00  0.00000000000E+00  0.13526501149E+04  0.13526501149E+04  0.00000000000E+00 0.  1.
         21   -1    0    0  501  502  0.00000000000E+00 -0.00000000000E+00 -0.13255581357E+02  0.13255581357E+02  0.00000000000E+00 0. -1.
         21    1    1    2  503  502  0.27687044232E+02  0.10667244258E+03  0.28178406910E+03  0.30256874264E+03  0.00000000000E+00 0. -1.
          2    1    1    2  501    0 -0.27687044232E+02 -0.10667244258E+03  0.10576104644E+04  0.10633369536E+04  0.00000000000E+00 0.  1.
<mgrwt>
<rscale>  2 0.11020700E+03</rscale>
<asrwt>0</asrwt>
<pdfrwt beam="2">  1       21 0.20393213E-02 0.11020700E+03</pdfrwt>
<pdfrwt beam="1">  1        2 0.20809991E+00 0.11020700E+03</pdfrwt>
<totfact> 0.24845175E+05</totfact>
</mgrwt>
</event>
<event>
 4    1  0.5142205E+003  0.1187851E+03  0.7546771E-02  0.1245115E+00
         21   -1    0    0  501  502  0.00000000000E+00  0.00000000000E+00  0.26828325846E+02  0.26828325846E+02  0.00000000000E+00 0. -1.
          2   -1    0    0  503    0 -0.00000000000E+00 -0.00000000000E+00 -0.12995868589E+04  0.12995868589E+04  0.00000000000E+00 0. -1.
         21    1    1    2  503  502 -0.83520879044E+01  0.11849110952E+03 -0.12467363407E+03  0.17220167084E+03  0.00000000000E+00 0. -1.
          2    1    1    2  501    0  0.83520879044E+01 -0.11849110952E+03 -0.11480848990E+04  0.11542135140E+04  0.00000000000E+00 0. -1.
<mgrwt>
<rscale>  2 0.11878510E+03</rscale>
<asrwt>0</asrwt>
<pdfrwt beam="1">  1       21 0.41274340E-02 0.11878510E+03</pdfrwt>
<pdfrwt beam="2">  1        2 0.19993648E+00 0.11878510E+03</pdfrwt>
<totfact> 0.83892361E+04</totfact>
</mgrwt>
</event>
<event>
 4    1  0.5142205E+003  0.1099910E+03  0.7546771E-02  0.1260586E+00
         21   -1    0    0  503  502  0.00000000000E+00  0.00000000000E+00  0.43859861708E+02  0.43859861708E+02  0.00000000000E+00 0. -1.
         -2   -1    0    0    0  501 -0.00000000000E+00 -0.00000000000E+00 -0.50621573900E+03  0.50621573900E+03  0.00000000000E+00 0. -1.
         21    1    1    2  503  501 -0.97401865229E+02  0.51097025733E+02 -0.45633115482E+02  0.11908152929E+03  0.00000000000E+00 0. -1.
         -2    1    1    2    0  502  0.97401865229E+02 -0.51097025733E+02 -0.41672276181E+03  0.43099407142E+03  0.00000000000E+00 0. -1.
<mgrwt>
<rscale>  2 0.10999104E+03</rscale>
<asrwt>0</asrwt>
<pdfrwt beam="1">  1       21 0.67476711E-02 0.10999104E+03</pdfrwt>
<pdfrwt beam="2">  1       -2 0.77879343E-01 0.10999104E+03</pdfrwt>
<totfact> 0.19668333E+04</totfact>
</mgrwt>
</event>
<event>
 4    1  0.5142205E+003  0.2029769E+03  0.7546771E-02  0.1147251E+00
          2   -1    0    0  503    0 -0.00000000000E+00  0.00000000000E+00  0.42328957255E+03  0.42328957255E+03  0.00000000000E+00 0. -1.
         21   -1    0    0  501  502  0.00000000000E+00 -0.00000000000E+00 -0.11198240597E+03  0.11198240597E+03  0.00000000000E+00 0. -1.
         21    1    1    2  503  502  0.72858973544E+02  0.18944974189E+03  0.58849438300E+02  0.21133596740E+03  0.00000000000E+00 0. -1.
          2    1    1    2  501    0 -0.72858973544E+02 -0.18944974189E+03  0.25245772828E+03  0.32393601112E+03  0.00000000000E+00 0. -1.
<mgrwt>
<rscale>  2 0.20297693E+03</rscale>
<asrwt>0</asrwt>
<pdfrwt beam="2">  1       21 0.17228063E-01 0.20297693E+03</pdfrwt>
<pdfrwt beam="1">  1        2 0.65121472E-01 0.20297693E+03</pdfrwt>
<totfact> 0.28463143E+04</totfact>
</mgrwt>
</event>
<event>
 4    1  0.5142205E+003  0.1096086E+03  0.7546771E-02  0.1261296E+00
          1   -1    0    0  502    0 -0.00000000000E+00  0.00000000000E+00  0.76953463336E+03  0.76953463336E+03  0.00000000000E+00 0. -1.
         21   -1    0    0  503  502  0.00000000000E+00 -0.00000000000E+00 -0.29038468830E+02  0.29038468830E+02  0.00000000000E+00 0.  1.
         21    1    1    2  503  501 -0.76317379397E+02  0.78674634152E+02  0.98743384835E+02  0.14752727377E+03  0.00000000000E+00 0.  1.
          1    1    1    2  501    0  0.76317379397E+02 -0.78674634152E+02  0.64175277970E+03  0.65104582842E+03  0.00000000000E+00 0. -1.
<mgrwt>
<rscale>  2 0.10960858E+03</rscale>
<asrwt>0</asrwt>
<pdfrwt beam="2">  1       21 0.44674573E-02 0.10960858E+03</pdfrwt>
<pdfrwt beam="1">  1        1 0.11838993E+00 0.10960858E+03</pdfrwt>
<totfact> 0.88274600E+04</totfact>
</mgrwt>
</event>
<event>
 4    1  0.5142205E+003  0.1510924E+03  0.7546771E-02  0.1199137E+00
          1   -1    0    0  503    0 -0.00000000000E+00  0.00000000000E+00  0.92314392932E+03  0.92314392932E+03  0.00000000000E+00 0.  1.
         21   -1    0    0  501  502  0.00000000000E+00 -0.00000000000E+00 -0.35236991946E+02  0.35236991946E+02  0.00000000000E+00 0.  1.
         21    1    1    2  503  502 -0.13388350722E+03  0.70029472562E+02  0.18228128999E+03  0.23676019348E+03  0.00000000000E+00 0.  1.
          1    1    1    2  501    0  0.13388350722E+03 -0.70029472562E+02  0.70562564738E+03  0.72162072779E+03  0.00000000000E+00 0.  1.
<mgrwt>
<rscale>  2 0.15109242E+03</rscale>
<asrwt>0</asrwt>
<pdfrwt beam="2">  1       21 0.54210764E-02 0.15109242E+03</pdfrwt>
<pdfrwt beam="1">  1        1 0.14202212E+00 0.15109242E+03</pdfrwt>
<totfact> 0.48308306E+04</totfact>
</mgrwt>
</event>
<event>
 4    1  0.5142205E+003  0.1409793E+03  0.7546771E-02  0.1212017E+00
          2   -1    0    0  502    0 -0.00000000000E+00  0.00000000000E+00  0.31103568099E+03  0.31103568099E+03  0.00000000000E+00 0. -1.
         21   -1    0    0  503  502  0.00000000000E+00 -0.00000000000E+00 -0.88347470821E+02  0.88347470821E+02  0.00000000000E+00 0. -1.
         21    1    1    2  503  501 -0.13403636192E+03 -0.43696993802E+02  0.62980286969E+01  0.14111994455E+03  0.00000000000E+00 0. -1.
          2    1    1    2  501    0  0.13403636192E+03  0.43696993802E+02  0.21639018147E+03  0.25826320726E+03  0.00000000000E+00 0. -1.
<mgrwt>
<rscale>  2 0.14097934E+03</rscale>
<asrwt>0</asrwt>
<pdfrwt beam="2">  1       21 0.13591919E-01 0.14097934E+03</pdfrwt>
<pdfrwt beam="1">  1        2 0.47851643E-01 0.14097934E+03</pdfrwt>
<totfact> 0.61012510E+04</totfact>
</mgrwt>
</event>
<event>
 4    1  0.5142205E+003  0.1184087E+03  0.7546771E-02  0.1245746E+00
         21   -1    0    0  501  502  0.00000000000E+00  0.00000000000E+00  0.15247246798E+02  0.15247246798E+02  0.00000000000E+00 0.  1.
          3   -1    0    0  503    0 -0.00000000000E+00 -0.00000000000E+00 -0.14532763740E+04  0.14532763740E+04  0.00000000000E+00 0. -1.
         21    1    1    2  503  502  0.34856175055E+02 -0.11316212769E+03 -0.27403938628E+03  0.29852672463E+03  0.00000000000E+00 0.  1.
          3    1    1    2  501    0 -0.34856175055E+02  0.11316212769E+03 -0.11639897410E+04  0.11699968962E+04  0.00000000000E+00 0. -1.
<mgrwt>
<rscale>  2 0.11840870E+03</rscale>
<asrwt>0</asrwt>
<pdfrwt beam="1">  1       21 0.23457302E-02 0.11840870E+03</pdfrwt>
<pdfrwt beam="2">  1        3 0.22358098E+00 0.11840870E+03</pdfrwt>
<totfact> 0.54225561E+03</totfact>
</mgrwt>
</event>
<event>
 4    1  0.5142205E+003  0.1218859E+03  0.7546771E-02  0.1240018E+00
         21   -1    0    0  501  502  0.00000000000E+00  0.00000000000E+00  0.84338149377E+02  0.84338149377E+02  0.00000000000E+00 0.  1.
          1   -1    0    0  503    0 -0.00000000000E+00 -0.00000000000E+00 -0.20586503252E+03  0.20586503252E+03  0.00000000000E+00 0. -1.
         21    1    1    2  503  502  0.20670061061E+02 -0.12012041981E+03 -0.56358725018E+01  0.12201610443E+03  0.00000000000E+00 0.  1.
          1    1    1    2  501    0 -0.20670061061E+02  0.12012041981E+03 -0.11589101064E+03  0.16818707747E+03  0.00000000000E+00 0. -1.
<mgrwt>
<rscale>  2 0.12188588E+03</rscale>
<asrwt>0</asrwt>
<pdfrwt beam="1">  1       21 0.12975100E-01 0.12188588E+03</pdfrwt>
<pdfrwt beam="2">  1        1 0.31671543E-01 0.12188588E+03</pdfrwt>
<totfact> 0.77395861E+04</totfact>
</mgrwt>
</event>
<event>
 4    1  0.5142205E+003  0.1025210E+03  0.7546771E-02  0.1275082E+00
         21   -1    0    0  501  502  0.00000000000E+00  0.00000000000E+00  0.39229316359E+03  0.39229316359E+03  0.00000000000E+00 0. -1.
          1   -1    0    0  503    0 -0.00000000000E+00 -0.00000000000E+00 -0.18365638185E+03  0.18365638185E+03  0.00000000000E+00 0.  1.
         21    1    1    2  503  502 -0.92719467221E+02 -0.43745413409E+02  0.37045998146E+03  0.38438412904E+03  0.00000000000E+00 0. -1.
          1    1    1    2  501    0  0.92719467221E+02  0.43745413409E+02 -0.16182319971E+03  0.19156541640E+03  0.00000000000E+00 0.  1.
<mgrwt>
<rscale>  2 0.10252103E+03</rscale>
<asrwt>0</asrwt>
<pdfrwt beam="1">  1       21 0.60352794E-01 0.10252103E+03</pdfrwt>
<pdfrwt beam="2">  1        1 0.28254828E-01 0.10252103E+03</pdfrwt>
<totfact> 0.46693035E+03</totfact>
</mgrwt>
</event>
<event>
 4    1  0.5142205E+003  0.1958607E+03  0.7546771E-02  0.1153279E+00
         21   -1    0    0  501  502  0.00000000000E+00  0.00000000000E+00  0.46949702902E+03  0.46949702902E+03  0.00000000000E+00 0.  1.
         -1   -1    0    0    0  501 -0.00000000000E+00 -0.00000000000E+00 -0.26925695105E+03  0.26925695105E+03  0.00000000000E+00 0. -1.
         21    1    1    2  503  502  0.58289555274E+02  0.18698595002E+03  0.40839929435E+03  0.45293642091E+03  0.00000000000E+00 0.  1.
         -1    1    1    2    0  503 -0.58289555274E+02 -0.18698595002E+03 -0.20815921639E+03  0.28581755916E+03  0.00000000000E+00 0. -1.
<mgrwt>
<rscale>  2 0.19586071E+03</rscale>
<asrwt>0</asrwt>
<pdfrwt beam="1">  1       21 0.72230312E-01 0.19586071E+03</pdfrwt>
<pdfrwt beam="2">  1       -1 0.41424146E-01 0.19586071E+03</pdfrwt>
<totfact> 0.92182811E+02</totfact>
</mgrwt>
</event>
<event>
 4    1  0.5142205E+003  0.1344585E+03  0.7546771E-02  0.1220986E+00
         21   -1    0    0  501  502  0.00000000000E+00  0.00000000000E+00  0.63756780591E+02  0.63756780591E+02  0.00000000000E+00 0. -1.
          1   -1    0    0  503    0 -0.00000000000E+00 -0.00000000000E+00 -0.22405239634E+04  0.22405239634E+04  0.00000000000E+00 0.  1.
         21    1    1    2  503  502  0.26465978470E+02  0.13182809613E+03 -0.11616867595E+02  0.13495942560E+03  0.00000000000E+00 0. -1.
          1    1    1    2  501    0 -0.26465978470E+02 -0.13182809613E+03 -0.21651503152E+04  0.21693213184E+04  0.00000000000E+00 0.  1.
<mgrwt>
<rscale>  2 0.13445853E+03</rscale>
<asrwt>0</asrwt>
<pdfrwt beam="1">  1       21 0.98087348E-02 0.13445853E+03</pdfrwt>
<pdfrwt beam="2">  1        1 0.34469602E+00 0.13445853E+03</pdfrwt>
<totfact> 0.23561101E+03</totfact>
</mgrwt>
</event>
<event>
 4    1  0.5142205E+003  0.1014330E+03  0.7546771E-02  0.1277311E+00
          4   -1    0    0  503    0 -0.00000000000E+00  0.00000000000E+00  0.18472248175E+02  0.18472248175E+02  0.00000000000E+00 0.  1.
         21   -1    0    0  501  502  0.00000000000E+00 -0.00000000000E+00 -0.14433066939E+04  0.14433066939E+04  0.00000000000E+00 0. -1.
         21    1    1    2  503  502  0.96651006471E+02  0.30777095689E+02 -0.12851732312E+04  0.12891698418E+04  0.00000000000E+00 0. -1.
          4    1    1    2  501    0 -0.96651006471E+02 -0.30777095689E+02 -0.13966121448E+03  0.17260910028E+03  0.00000000000E+00 0.  1.
<mgrwt>
<rscale>  2 0.10143297E+03</rscale>
<asrwt>0</asrwt>
<pdfrwt beam="2">  1       21 0.22204715E+00 0.10143297E+03</pdfrwt>
<pdfrwt beam="1">  1        4 0.28418848E-02 0.10143297E+03</pdfrwt>
<totfact> 0.24515143E+03</totfact>
</mgrwt>
</event>
<event>
 4    1  0.5142205E+003  0.1844979E+03  0.7546771E-02  0.1163520E+00
          2   -1    0    0  503    0 -0.00000000000E+00  0.00000000000E+00  0.28724689286E+04  0.28724689286E+04  0.00000000000E+00 0.  1.
         21   -1    0    0  501  502  0.00000000000E+00 -0.00000000000E+00 -0.11855316896E+02  0.11855316896E+02  0.00000000000E+00 0.  1.
         21    1    1    2  503  502  0.93165135990E+02 -0.15924740147E+03  0.14601187947E+04  0.14717290416E+04  0.00000000000E+00 0.  1.
          2    1    1    2  501    0 -0.93165135990E+02  0.15924740147E+03  0.14004948170E+04  0.14125952038E+04  0.00000000000E+00 0.  1.
<mgrwt>
<rscale>  2 0.18449791E+03</rscale>
<asrwt>0</asrwt>
<pdfrwt beam="2">  1       21 0.18238972E-02 0.18449791E+03</pdfrwt>
<pdfrwt beam="1">  1        2 0.44191774E+00 0.18449791E+03</pdfrwt>
<totfact> 0.46682197E+04</totfact>
</mgrwt>
</event>
<event>
 4    1  0.5142205E+003  0.1318423E+03  0.7546771E-02  0.1224747E+00
         21   -1    0    0  501  502  0.00000000000E+00  0.00000000000E+00  0.32512589286E+03  0.32512589286E+03  0.00000000000E+00 0.  1.
          1   -1    0    0  503    0 -0.00000000000E+00 -0.00000000000E+00 -0.20557086658E+03  0.20557086658E+03  0.00000000000E+00 0.  1.
         21    1    1    2  503  502  0.13177494973E+03  0.42150887540E+01  0.28802742665E+03  0.31676837414E+03  0.00000000000E+00 0.  1.
          1    1    1    2  501    0 -0.13177494973E+03 -0.42150887540E+01 -0.16847240038E+03  0.21392838531E+03  0.00000000000E+00 0.  1.
<mgrwt>
<rscale>  2 0.13184235E+03</rscale>
<asrwt>0</asrwt>
<pdfrwt beam="1">  1       21 0.50019368E-01 0.13184235E+03</pdfrwt>
<pdfrwt beam="2">  1        1 0.31626287E-01 0.13184235E+03</pdfrwt>
<totfact> 0.59486671E+03</totfact>
</mgrwt>
</event>
<event>
 4    1  0.5142205E+003  0.3166743E+03  0.7546771E-02  0.1077190E+00
         21   -1    0    0  501  502  0.00000000000E+00  0.00000000000E+00  0.47615709120E+02  0.47615709120E+02  0.00000000000E+00 0.  1.
          2   -1    0    0  503    0 -0.00000000000E+00 -0.00000000000E+00 -0.22689388339E+04  0.22689388339E+04  0.00000000000E+00 0.  1.
         21    1    1    2  503  502  0.22665735790E+02  0.31586208894E+03 -0.80034572543E+03  0.86071823207E+03  0.00000000000E+00 0.  1.
          2    1    1    2  501    0 -0.22665735790E+02 -0.31586208894E+03 -0.14209773994E+04  0.14558363110E+04  0.00000000000E+00 0.  1.
<mgrwt>
<rscale>  2 0.31667427E+03</rscale>
<asrwt>0</asrwt>
<pdfrwt beam="1">  1       21 0.73254930E-02 0.31667427E+03</pdfrwt>
<pdfrwt beam="2">  1        2 0.34906755E+00 0.31667427E+03</pdfrwt>
<totfact> 0.93093615E+03</totfact>
</mgrwt>
</event>
<event>
 4    1  0.5142205E+003  0.2086701E+03  0.7546771E-02  0.1142623E+00
         21   -1    0    0  501  502  0.00000000000E+00  0.00000000000E+00  0.50495593955E+03  0.50495593955E+03  0.00000000000E+00 0.  1.
          2   -1    0    0  503    0 -0.00000000000E+00 -0.00000000000E+00 -0.15886477727E+04  0.15886477727E+04  0.00000000000E+00 0.  1.
         21    1    1    2  503  502  0.20252597706E+03 -0.50263784866E+02  0.47614940582E+03  0.51986678689E+03  0.00000000000E+00 0.  1.
          2    1    1    2  501    0 -0.20252597706E+03  0.50263784866E+02 -0.15598412389E+04  0.15737369253E+04  0.00000000000E+00 0.  1.
<mgrwt>
<rscale>  2 0.20867012E+03</rscale>
<asrwt>0</asrwt>
<pdfrwt beam="1">  1       21 0.77685530E-01 0.20867012E+03</pdfrwt>
<pdfrwt beam="2">  1        2 0.24440735E+00 0.20867012E+03</pdfrwt>
<totfact> 0.22853519E+02</totfact>
</mgrwt>
</event>
<event>
 4    1  0.5142205E+003  0.1441599E+03  0.7546771E-02  0.1207839E+00
         21   -1    0    0  501  502  0.00000000000E+00  0.00000000000E+00  0.40047121501E+03  0.40047121501E+03  0.00000000000E+00 0.  1.
          2   -1    0    0  503    0 -0.00000000000E+00 -0.00000000000E+00 -0.69617362609E+02  0.69617362609E+02  0.00000000000E+00 0.  1.
         21    1    1    2  503  502  0.78188904826E+02 -0.12111390032E+03  0.28402103359E+03  0.31851221203E+03  0.00000000000E+00 0.  1.
          2    1    1    2  501    0 -0.78188904826E+02  0.12111390032E+03  0.46832818809E+02  0.15157636559E+03  0.00000000000E+00 0.  1.
<mgrwt>
<rscale>  2 0.14415992E+03</rscale>
<asrwt>0</asrwt>
<pdfrwt beam="1">  1       21 0.61610955E-01 0.14415992E+03</pdfrwt>
<pdfrwt beam="2">  1        2 0.10710364E-01 0.14415992E+03</pdfrwt>
<totfact> 0.17519576E+04</totfact>
</mgrwt>
</event>
<event>
 4    1  0.5142205E+003  0.1170768E+03  0.7546771E-02  0.1247999E+00
          4   -1    0    0  503    0 -0.00000000000E+00  0.00000000000E+00  0.50429198420E+02  0.50429198420E+02  0.00000000000E+00 0. -1.
         21   -1    0    0  501  502  0.00000000000E+00 -0.00000000000E+00 -0.27252985665E+03  0.27252985665E+03  0.00000000000E+00 0.  1.
         21    1    1    2  503  502 -0.63365820597E+01 -0.11690516000E+03 -0.11937136137E+03  0.16720194563E+03  0.00000000000E+00 0.  1.
          4    1    1    2  501    0  0.63365820597E+01  0.11690516000E+03 -0.10272929686E+03  0.15575710944E+03  0.00000000000E+00 0. -1.
<mgrwt>
<rscale>  2 0.11707676E+03</rscale>
<asrwt>0</asrwt>
<pdfrwt beam="2">  1       21 0.41927671E-01 0.11707676E+03</pdfrwt>
<pdfrwt beam="1">  1        4 0.77583382E-02 0.11707676E+03</pdfrwt>
<totfact> 0.25628387E+04</totfact>
</mgrwt>
</event>
<event>
 4    1  0.5142205E+003  0.1300296E+03  0.7546771E-02  0.1227412E+00
         -2   -1    0    0    0  501 -0.00000000000E+00  0.00000000000E+00  0.44984781602E+02  0.44984781602E+02  0.00000000000E+00 0. -1.
         21   -1    0    0  503  502  0.00000000000E+00 -0.00000000000E+00 -0.54484412479E+03  0.54484412479E+03  0.00000000000E+00 0. -1.
         21    1    1    2  503  501  0.12834241460E+03  0.20878525818E+02 -0.41417431296E+03  0.43410603514E+03  0.00000000000E+00 0. -1.
         -2    1    1    2    0  502 -0.12834241460E+03 -0.20878525818E+02 -0.85685030231E+02  0.15572287126E+03  0.00000000000E+00 0. -1.
<mgrwt>
<rscale>  2 0.13002957E+03</rscale>
<asrwt>0</asrwt>
<pdfrwt beam="2">  1       21 0.83822172E-01 0.13002957E+03</pdfrwt>
<pdfrwt beam="1">  1       -2 0.69207358E-02 0.13002957E+03</pdfrwt>
<totfact> 0.11516638E+04</totfact>
</mgrwt>
</event>
<event>
 4    1  0.5142205E+003  0.1020082E+03  0.7546771E-02  0.1276129E+00
         21   -1    0    0  501  502  0.00000000000E+00  0.00000000000E+00  0.15616499292E+03  0.15616499292E+03  0.00000000000E+00 0. -1.
          2   -1    0    0  503    0 -0.00000000000E+00 -0.00000000000E+00 -0.99302416735E+03  0.99302416735E+03  0.00000000000E+00 0.  1.
         21    1    1    2  503  502  0.16783897627E+02  0.10061793289E+03  0.13655245479E+03  0.17044717817E+03  0.00000000000E+00 0. -1.
          2    1    1    2  501    0 -0.16783897627E+02 -0.10061793289E+03 -0.97341162921E+03  0.97874198210E+03  0.00000000000E+00 0.  1.
<mgrwt>
<rscale>  2 0.10200817E+03</rscale>
<asrwt>0</asrwt>
<pdfrwt beam="1">  1       21 0.24025384E-01 0.10200817E+03</pdfrwt>
<pdfrwt beam="2">  1        2 0.15277295E+00 0.10200817E+03</pdfrwt>
<totfact> 0.57404961E+03</totfact>
</mgrwt>
</event>
<event>
 4    1  0.5142205E+003  0.1676102E+03  0.7546771E-02  0.1180363E+00
         -1   -1    0    0    0  501 -0.00000000000E+00  0.00000000000E+00  0.57212118126E+03  0.57212118126E+03  0.00000000000E+00 0.  1.
         21   -1    0    0  501  502  0.00000000000E+00 -0.00000000000E+00 -0.91802819568E+03  0.91802819568E+03  0.00000000000E+00 0.  1.
         21    1    1    2  503  502  0.16239075574E+03 -0.41502231725E+02 -0.89782805775E+03  0.91333915611E+03  0.00000000000E+00 0.  1.
         -1    1    1    2    0  503 -0.16239075574E+03  0.41502231725E+02  0.55192104333E+03  0.57681022084E+03  0.00000000000E+00 0.  1.
<mgrwt>
<rscale>  2 0.16761024E+03</rscale>
<asrwt>0</asrwt>
<pdfrwt beam="2">  1       21 0.14123510E+00 0.16761024E+03</pdfrwt>
<pdfrwt beam="1">  1       -1 0.88018645E-01 0.16761024E+03</pdfrwt>
<totfact> 0.44665148E+01</totfact>
</mgrwt>
</event>
<event>
 4    1  0.5142205E+003  0.1143616E+03  0.7546771E-02  0.1252700E+00
          2   -1    0    0  502    0 -0.00000000000E+00  0.00000000000E+00  0.14652374037E+03  0.14652374037E+03  0.00000000000E+00 0.  1.
         21   -1    0    0  503  502  0.00000000000E+00 -0.00000000000E+00 -0.11516333022E+03  0.11516333022E+03  0.00000000000E+00 0.  1.
         21    1    1    2  503  501 -0.95368814952E+02 -0.63113930417E+02 -0.46375312208E+02  0.12340684203E+03  0.00000000000E+00 0.  1.
          2    1    1    2  501    0  0.95368814952E+02  0.63113930417E+02  0.77735722361E+02  0.13828022855E+03  0.00000000000E+00 0.  1.
<mgrwt>
<rscale>  2 0.11436162E+03</rscale>
<asrwt>0</asrwt>
<pdfrwt beam="2">  1       21 0.17717435E-01 0.11436162E+03</pdfrwt>
<pdfrwt beam="1">  1        2 0.22542114E-01 0.11436162E+03</pdfrwt>
<totfact> 0.84569852E+04</totfact>
</mgrwt>
</event>
<event>
 4    1  0.5142205E+003  0.1074809E+03  0.7546771E-02  0.1265307E+00
         21   -1    0    0  503  502  0.00000000000E+00  0.00000000000E+00  0.21050399270E+04  0.21050399270E+04  0.00000000000E+00 0.  1.
         -3   -1    0    0    0  501 -0.00000000000E+00 -0.00000000000E+00 -0.13614813793E+02  0.13614813793E+02  0.00000000000E+00 0.  1.
         21    1    1    2  503  501 -0.94215688816E+02 -0.51725628761E+02  0.18641558376E+04  0.18672517569E+04  0.00000000000E+00 0.  1.
         -3    1    1    2    0  502  0.94215688816E+02  0.51725628761E+02  0.22726927563E+03  0.25140298394E+03  0.00000000000E+00 0.  1.
<mgrwt>
<rscale>  2 0.10748087E+03</rscale>
<asrwt>0</asrwt>
<pdfrwt beam="1">  1       21 0.32385204E+00 0.10748087E+03</pdfrwt>
<pdfrwt beam="2">  1       -3 0.20945884E-02 0.10748087E+03</pdfrwt>
<totfact> 0.11607648E+03</totfact>
</mgrwt>
</event>
<event>
 4    1  0.5142205E+003  0.1767057E+03  0.7546771E-02  0.1171030E+00
         21   -1    0    0  501  502  0.00000000000E+00  0.00000000000E+00  0.68911574184E+02  0.68911574184E+02  0.00000000000E+00 0. -1.
          1   -1    0    0  503    0 -0.00000000000E+00 -0.00000000000E+00 -0.80095115141E+03  0.80095115141E+03  0.00000000000E+00 0. -1.
         21    1    1    2  503  502 -0.10758893249E+03 -0.14017671667E+03 -0.79400861003E+02  0.19372502941E+03  0.00000000000E+00 0. -1.
          1    1    1    2  501    0  0.10758893249E+03  0.14017671667E+03 -0.65263871622E+03  0.67613769618E+03  0.00000000000E+00 0. -1.
<mgrwt>
<rscale>  2 0.17670566E+03</rscale>
<asrwt>0</asrwt>
<pdfrwt beam="1">  1       21 0.10601781E-01 0.17670566E+03</pdfrwt>
<pdfrwt beam="2">  1        1 0.12322325E+00 0.17670566E+03</pdfrwt>
<totfact> 0.18863265E+04</totfact>
</mgrwt>
</event>
<event>
 4    1  0.5142205E+003  0.1078711E+03  0.7546771E-02  0.1264564E+00
          2   -1    0    0  502    0 -0.00000000000E+00  0.00000000000E+00  0.27216790494E+03  0.27216790494E+03  0.00000000000E+00 0. -1.
         21   -1    0    0  503  502  0.00000000000E+00 -0.00000000000E+00 -0.44107340507E+02  0.44107340507E+02  0.00000000000E+00 0.  1.
         21    1    1    2  503  501  0.70339842061E+02 -0.81783073203E+02  0.86326215068E+02  0.13816070299E+03  0.00000000000E+00 0.  1.
          2    1    1    2  501    0 -0.70339842061E+02  0.81783073203E+02  0.14173434937E+03  0.17811454246E+03  0.00000000000E+00 0. -1.
<mgrwt>
<rscale>  2 0.10787105E+03</rscale>
<asrwt>0</asrwt>
<pdfrwt beam="2">  1       21 0.67857449E-02 0.10787105E+03</pdfrwt>
<pdfrwt beam="1">  1        2 0.41871984E-01 0.10787105E+03</pdfrwt>
<totfact> 0.23353191E+05</totfact>
</mgrwt>
</event>
<event>
 4    1  0.5142205E+003  0.1010913E+03  0.7546771E-02  0.1278018E+00
          1   -1    0    0  503    0 -0.00000000000E+00  0.00000000000E+00  0.57482368738E+02  0.57482368738E+02  0.00000000000E+00 0.  1.
         21   -1    0    0  501  502  0.00000000000E+00 -0.00000000000E+00 -0.17885020525E+03  0.17885020525E+03  0.00000000000E+00 0.  1.
         21    1    1    2  503  502 -0.93563443728E+02 -0.38279736564E+02 -0.69806778929E+02  0.12285130288E+03  0.00000000000E+00 0.  1.
          1    1    1    2  501    0  0.93563443728E+02  0.38279736564E+02 -0.51561057579E+02  0.11348127111E+03  0.00000000000E+00 0.  1.
<mgrwt>
<rscale>  2 0.10109133E+03</rscale>
<asrwt>0</asrwt>
<pdfrwt beam="2">  1       21 0.27515416E-01 0.10109133E+03</pdfrwt>
<pdfrwt beam="1">  1        1 0.88434415E-02 0.10109133E+03</pdfrwt>
<totfact> 0.98866260E+04</totfact>
</mgrwt>
</event>
<event>
 4    1  0.5142205E+003  0.1603223E+03  0.7546771E-02  0.1188333E+00
         21   -1    0    0  501  502  0.00000000000E+00  0.00000000000E+00  0.13057805551E+03  0.13057805551E+03  0.00000000000E+00 0. -1.
          2   -1    0    0  503    0 -0.00000000000E+00 -0.00000000000E+00 -0.36867487354E+03  0.36867487354E+03  0.00000000000E+00 0.  1.
         21    1    1    2  503  502  0.77640514696E+02 -0.14026829242E+03  0.51372157153E+02  0.16835183964E+03  0.00000000000E+00 0. -1.
          2    1    1    2  501    0 -0.77640514696E+02  0.14026829242E+03 -0.28946897518E+03  0.33090108941E+03  0.00000000000E+00 0.  1.
<mgrwt>
<rscale>  2 0.16032231E+03</rscale>
<asrwt>0</asrwt>
<pdfrwt beam="1">  1       21 0.20088932E-01 0.16032231E+03</pdfrwt>
<pdfrwt beam="2">  1        2 0.56719210E-01 0.16032231E+03</pdfrwt>
<totfact> 0.24963689E+04</totfact>
</mgrwt>
</event>
<event>
 4    1  0.5142205E+003  0.1228824E+03  0.7546771E-02  0.1238416E+00
          2   -1    0    0  503    0 -0.00000000000E+00  0.00000000000E+00  0.22334715796E+04  0.22334715796E+04  0.00000000000E+00 0. -1.
         21   -1    0    0  501  502  0.00000000000E+00 -0.00000000000E+00 -0.70783949438E+01  0.70783949438E+01  0.00000000000E+00 0. -1.
         21    1    1    2  503  502 -0.21141111051E+02  0.12105017034E+03  0.13504886035E+04  0.13560676822E+04  0.00000000000E+00 0. -1.
          2    1    1    2  501    0  0.21141111051E+02 -0.12105017034E+03  0.87590458110E+03  0.88448229236E+03  0.00000000000E+00 0. -1.
<mgrwt>
<rscale>  2 0.12288242E+03</rscale>
<asrwt>0</asrwt>
<pdfrwt beam="2">  1       21 0.10889856E-02 0.12288242E+03</pdfrwt>
<pdfrwt beam="1">  1        2 0.34361045E+00 0.12288242E+03</pdfrwt>
<totfact> 0.23917960E+05</totfact>
</mgrwt>
</event>
<event>
 4    1  0.5142205E+003  0.1720069E+03  0.7546771E-02  0.1175771E+00
          2   -1    0    0  502    0 -0.00000000000E+00  0.00000000000E+00  0.13194867864E+04  0.13194867864E+04  0.00000000000E+00 0.  1.
         21   -1    0    0  503  502  0.00000000000E+00 -0.00000000000E+00 -0.35095809835E+02  0.35095809835E+02  0.00000000000E+00 0.  1.
         21    1    1    2  503  501  0.16969091358E+03 -0.28131300777E+02  0.23519915025E+03  0.29138465388E+03  0.00000000000E+00 0.  1.
          2    1    1    2  501    0 -0.16969091358E+03  0.28131300777E+02  0.10491918263E+04  0.10631979423E+04  0.00000000000E+00 0.  1.
<mgrwt>
<rscale>  2 0.17200691E+03</rscale>
<asrwt>0</asrwt>
<pdfrwt beam="2">  1       21 0.53993564E-02 0.17200691E+03</pdfrwt>
<pdfrwt beam="1">  1        2 0.20299793E+00 0.17200691E+03</pdfrwt>
<totfact> 0.51927407E+04</totfact>
</mgrwt>
</event>
<event>
 4    1  0.5142205E+003  0.1278491E+03  0.7546771E-02  0.1230683E+00
         21   -1    0    0  503  502  0.00000000000E+00  0.00000000000E+00  0.27710407460E+02  0.27710407460E+02  0.00000000000E+00 0. -1.
          2   -1    0    0  502    0 -0.00000000000E+00 -0.00000000000E+00 -0.29683719374E+04  0.29683719374E+04  0.00000000000E+00 0. -1.
         21    1    1    2  503  501  0.22277281418E+02  0.12589328584E+03 -0.12936771327E+03  0.18188293467E+03  0.00000000000E+00 0. -1.
          2    1    1    2  501    0 -0.22277281418E+02 -0.12589328584E+03 -0.28112938167E+04  0.28141994102E+04  0.00000000000E+00 0. -1.
<mgrwt>
<rscale>  2 0.12784912E+03</rscale>
<asrwt>0</asrwt>
<pdfrwt beam="1">  1       21 0.42631409E-02 0.12784912E+03</pdfrwt>
<pdfrwt beam="2">  1        2 0.45667247E+00 0.12784912E+03</pdfrwt>
<totfact> 0.10488020E+04</totfact>
</mgrwt>
</event>
<event>
 4    1  0.5142205E+003  0.1022981E+03  0.7546771E-02  0.1275536E+00
          2   -1    0    0  503    0 -0.00000000000E+00  0.00000000000E+00  0.37923440689E+03  0.37923440689E+03  0.00000000000E+00 0.  1.
         21   -1    0    0  501  502  0.00000000000E+00 -0.00000000000E+00 -0.50475761715E+02  0.50475761715E+02  0.00000000000E+00 0. -1.
         21    1    1    2  503  502  0.99294853554E+02  0.24605434450E+02  0.19721678322E+02  0.10418176396E+03  0.00000000000E+00 0. -1.
          2    1    1    2  501    0 -0.99294853554E+02 -0.24605434450E+02  0.30903696685E+03  0.32552840464E+03  0.00000000000E+00 0.  1.
<mgrwt>
<rscale>  2 0.10229807E+03</rscale>
<asrwt>0</asrwt>
<pdfrwt beam="2">  1       21 0.77655021E-02 0.10229807E+03</pdfrwt>
<pdfrwt beam="1">  1        2 0.58343753E-01 0.10229807E+03</pdfrwt>
<totfact> 0.13054426E+05</totfact>
</mgrwt>
</event>
<event>
 4    1  0.5142205E+003  0.3750999E+03  0.7546771E-02  0.1052760E+00
         21   -1    0    0  501  502  0.00000000000E+00  0.00000000000E+00  0.15109642477E+03  0.15109642477E+03  0.00000000000E+00 0. -1.
          2   -1    0    0  503    0 -0.00000000000E+00 -0.00000000000E+00 -0.97407146372E+03  0.97407146372E+03  0.00000000000E+00 0. -1.
         21    1    1    2  503  502  0.40841375772E+02 -0.37286987095E+03 -0.29345255468E+03  0.47625031284E+03  0.00000000000E+00 0. -1.
          2    1    1    2  501    0 -0.40841375772E+02  0.37286987095E+03 -0.52952248427E+03  0.64891757565E+03  0.00000000000E+00 0. -1.
<mgrwt>
<rscale>  2 0.37509993E+03</rscale>
<asrwt>0</asrwt>
<pdfrwt beam="1">  1       21 0.23245604E-01 0.37509993E+03</pdfrwt>
<pdfrwt beam="2">  1        2 0.14985714E+00 0.37509993E+03</pdfrwt>
<totfact> 0.57309679E+03</totfact>
</mgrwt>
</event>
<event>
 4    1  0.5142205E+003  0.1111751E+03  0.7546771E-02  0.1258409E+00
         21   -1    0    0  501  502  0.00000000000E+00  0.00000000000E+00  0.13950556377E+03  0.13950556377E+03  0.00000000000E+00 0.  1.
          2   -1    0    0  503    0 -0.00000000000E+00 -0.00000000000E+00 -0.17623646964E+04  0.17623646964E+04  0.00000000000E+00 0. -1.
         21    1    1    2  503  502 -0.10858934417E+03  0.23838201637E+02  0.11529455753E+03  0.16016472933E+03  0.00000000000E+00 0.  1.
          2    1    1    2  501    0  0.10858934417E+03 -0.23838201637E+02 -0.17381536902E+04  0.17417055309E+04  0.00000000000E+00 0. -1.
<mgrwt>
<rscale>  2 0.11117511E+03</rscale>
<asrwt>0</asrwt>
<pdfrwt beam="1">  1       21 0.21462395E-01 0.11117511E+03</pdfrwt>
<pdfrwt beam="2">  1        2 0.27113302E+00 0.11117511E+03</pdfrwt>
<totfact> 0.27383129E+03</totfact>
</mgrwt>
</event>
<event>
 4    1  0.5142205E+003  0.1164106E+03  0.7546771E-02  0.1249139E+00
         21   -1    0    0  501  502  0.00000000000E+00  0.00000000000E+00  0.28554636592E+02  0.28554636592E+02  0.00000000000E+00 0. -1.
          3   -1    0    0  503    0 -0.00000000000E+00 -0.00000000000E+00 -0.51008830985E+03  0.51008830985E+03  0.00000000000E+00 0. -1.
         21    1    1    2  503  502  0.94555988184E+02  0.67901315081E+02 -0.16970752532E+03  0.20579617985E+03  0.00000000000E+00 0. -1.
          3    1    1    2  501    0 -0.94555988184E+02 -0.67901315081E+02 -0.31182614795E+03  0.33284676660E+03  0.00000000000E+00 0. -1.
<mgrwt>
<rscale>  2 0.11641058E+03</rscale>
<asrwt>0</asrwt>
<pdfrwt beam="1">  1       21 0.43930211E-02 0.11641058E+03</pdfrwt>
<pdfrwt beam="2">  1        3 0.78475123E-01 0.11641058E+03</pdfrwt>
<totfact> 0.24749048E+04</totfact>
</mgrwt>
</event>
<event>
 4    1  0.5142205E+003  0.1249611E+03  0.7546771E-02  0.1235130E+00
          2   -1    0    0  503    0 -0.00000000000E+00  0.00000000000E+00  0.17956673148E+04  0.17956673148E+04  0.00000000000E+00 0.  1.
         21   -1    0    0  501  502  0.00000000000E+00 -0.00000000000E+00 -0.34880061888E+02  0.34880061888E+02  0.00000000000E+00 0. -1.
         21    1    1    2  503  502  0.10706190418E+03 -0.64443987238E+02  0.87380923888E+02  0.15248181753E+03  0.00000000000E+00 0. -1.
          2    1    1    2  501    0 -0.10706190418E+03  0.64443987238E+02  0.16734063290E+04  0.16780655592E+04  0.00000000000E+00 0.  1.
<mgrwt>
<rscale>  2 0.12496111E+03</rscale>
<asrwt>0</asrwt>
<pdfrwt beam="2">  1       21 0.53661648E-02 0.12496111E+03</pdfrwt>
<pdfrwt beam="1">  1        2 0.27625644E+00 0.12496111E+03</pdfrwt>
<totfact> 0.29912234E+04</totfact>
</mgrwt>
</event>
<event>
 4    1  0.5142205E+003  0.1164144E+03  0.7546771E-02  0.1249132E+00
          1   -1    0    0  503    0 -0.00000000000E+00  0.00000000000E+00  0.23892493058E+03  0.23892493058E+03  0.00000000000E+00 0. -1.
         21   -1    0    0  501  502  0.00000000000E+00 -0.00000000000E+00 -0.21469391489E+03  0.21469391489E+03  0.00000000000E+00 0. -1.
         21    1    1    2  503  502 -0.10121489961E+03 -0.57513898663E+02 -0.18243892962E+03  0.21641688355E+03  0.00000000000E+00 0. -1.
          1    1    1    2  501    0  0.10121489961E+03  0.57513898663E+02  0.20666994531E+03  0.23720196192E+03  0.00000000000E+00 0. -1.
<mgrwt>
<rscale>  2 0.11641437E+03</rscale>
<asrwt>0</asrwt>
<pdfrwt beam="2">  1       21 0.33029833E-01 0.11641437E+03</pdfrwt>
<pdfrwt beam="1">  1        1 0.36757682E-01 0.11641437E+03</pdfrwt>
<totfact> 0.11381110E+04</totfact>
</mgrwt>
</event>
<event>
 4    1  0.5142205E+003  0.1030928E+03  0.7546771E-02  0.1273923E+00
          2   -1    0    0  502    0 -0.00000000000E+00  0.00000000000E+00  0.30852140026E+04  0.30852140026E+04  0.00000000000E+00 0.  1.
         21   -1    0    0  503  502  0.00000000000E+00 -0.00000000000E+00 -0.22402598036E+02  0.22402598036E+02  0.00000000000E+00 0.  1.
         21    1    1    2  503  501  0.77630720817E+02  0.67835128888E+02  0.10204614211E+03  0.14505705307E+03  0.00000000000E+00 0.  1.
          2    1    1    2  501    0 -0.77630720817E+02 -0.67835128888E+02  0.29607652625E+04  0.29625595476E+04  0.00000000000E+00 0.  1.
<mgrwt>
<rscale>  2 0.10309284E+03</rscale>
<asrwt>0</asrwt>
<pdfrwt beam="2">  1       21 0.34465560E-02 0.10309284E+03</pdfrwt>
<pdfrwt beam="1">  1        2 0.47464797E+00 0.10309284E+03</pdfrwt>
<totfact> 0.13002873E+04</totfact>
</mgrwt>
</event>
<event>
 4    1  0.5142205E+003  0.1012505E+03  0.7546771E-02  0.1277688E+00
         -2   -1    0    0    0  501 -0.00000000000E+00  0.00000000000E+00  0.76497799399E+02  0.76497799399E+02  0.00000000000E+00 0. -1.
         21   -1    0    0  501  502  0.00000000000E+00 -0.00000000000E+00 -0.12865689981E+04  0.12865689981E+04  0.00000000000E+00 0. -1.
         21    1    1    2  503  502  0.39084532197E+02  0.93402673670E+02 -0.12500979832E+04  0.12541916232E+04  0.00000000000E+00 0. -1.
         -2    1    1    2    0  503 -0.39084532197E+02 -0.93402673670E+02  0.40026784483E+02  0.10887517431E+03  0.00000000000E+00 0. -1.
<mgrwt>
<rscale>  2 0.10125048E+03</rscale>
<asrwt>0</asrwt>
<pdfrwt beam="2">  1       21 0.19793368E+00 0.10125048E+03</pdfrwt>
<pdfrwt beam="1">  1       -2 0.11768893E-01 0.10125048E+03</pdfrwt>
<totfact> 0.59941281E+02</totfact>
</mgrwt>
</event>
<event>
 4    1  0.5142205E+003  0.1426712E+03  0.7546771E-02  0.1209779E+00
         21   -1    0    0  503  502  0.00000000000E+00  0.00000000000E+00  0.49668784139E+03  0.49668784139E+03  0.00000000000E+00 0.  1.
         -2   -1    0    0    0  501 -0.00000000000E+00 -0.00000000000E+00 -0.21894832329E+03  0.21894832329E+03  0.00000000000E+00 0.  1.
         21    1    1    2  503  501 -0.13986366494E+03  0.28164418036E+02  0.46146713686E+03  0.48301863071E+03  0.00000000000E+00 0.  1.
         -2    1    1    2    0  502  0.13986366494E+03 -0.28164418036E+02 -0.18372761876E+03  0.23261753396E+03  0.00000000000E+00 0.  1.
<mgrwt>
<rscale>  2 0.14267123E+03</rscale>
<asrwt>0</asrwt>
<pdfrwt beam="1">  1       21 0.76413514E-01 0.14267123E+03</pdfrwt>
<pdfrwt beam="2">  1       -2 0.33684358E-01 0.14267123E+03</pdfrwt>
<totfact> 0.10337042E+03</totfact>
</mgrwt>
</event>
<event>
 4    1  0.5142205E+003  0.1124928E+03  0.7546771E-02  0.1256022E+00
         21   -1    0    0  501  502  0.00000000000E+00  0.00000000000E+00  0.13599752926E+02  0.13599752926E+02  0.00000000000E+00 0. -1.
          1   -1    0    0  503    0 -0.00000000000E+00 -0.00000000000E+00 -0.12994810182E+04  0.12994810182E+04  0.00000000000E+00 0. -1.
         21    1    1    2  503  502  0.11191889787E+03 -0.11348866513E+02 -0.29309567718E+03  0.31394221196E+03  0.00000000000E+00 0. -1.
          1    1    1    2  501    0 -0.11191889787E+03  0.11348866513E+02 -0.99278558805E+03  0.99913855911E+03  0.00000000000E+00 0. -1.
<mgrwt>
<rscale>  2 0.11249283E+03</rscale>
<asrwt>0</asrwt>
<pdfrwt beam="1">  1       21 0.20922703E-02 0.11249283E+03</pdfrwt>
<pdfrwt beam="2">  1        1 0.19992010E+00 0.11249283E+03</pdfrwt>
<totfact> 0.12600389E+05</totfact>
</mgrwt>
</event>
<event>
 4    1  0.5142205E+003  0.1075418E+03  0.7546771E-02  0.1265191E+00
          2   -1    0    0  503    0 -0.00000000000E+00  0.00000000000E+00  0.35347686743E+04  0.35347686743E+04  0.00000000000E+00 0. -1.
         21   -1    0    0  501  502  0.00000000000E+00 -0.00000000000E+00 -0.46254331872E+01  0.46254331872E+01  0.00000000000E+00 0. -1.
         21    1    1    2  503  502 -0.10354750350E+03 -0.29037025425E+02  0.80773398593E+03  0.81486159951E+03  0.00000000000E+00 0. -1.
          2    1    1    2  501    0  0.10354750350E+03  0.29037025425E+02  0.27224092552E+04  0.27245325080E+04  0.00000000000E+00 0. -1.
<mgrwt>
<rscale>  2 0.10754178E+03</rscale>
<asrwt>0</asrwt>
<pdfrwt beam="2">  1       21 0.71160793E-03 0.10754178E+03</pdfrwt>
<pdfrwt beam="1">  1        2 0.54380840E+00 0.10754178E+03</pdfrwt>
<totfact> 0.84928860E+04</totfact>
</mgrwt>
</event>
<event>
 4    1  0.5142205E+003  0.1021253E+03  0.7546771E-02  0.1275889E+00
          2   -1    0    0  502    0 -0.00000000000E+00  0.00000000000E+00  0.13414766632E+04  0.13414766632E+04  0.00000000000E+00 0. -1.
         21   -1    0    0  503  502  0.00000000000E+00 -0.00000000000E+00 -0.25339599246E+02  0.25339599246E+02  0.00000000000E+00 0. -1.
         21    1    1    2  503  501 -0.68342217565E+02  0.75887593412E+02  0.89080622099E+02  0.13551731538E+03  0.00000000000E+00 0. -1.
          2    1    1    2  501    0  0.68342217565E+02 -0.75887593412E+02  0.12270564418E+04  0.12312989471E+04  0.00000000000E+00 0. -1.
<mgrwt>
<rscale>  2 0.10212534E+03</rscale>
<asrwt>0</asrwt>
<pdfrwt beam="2">  1       21 0.38984009E-02 0.10212534E+03</pdfrwt>
<pdfrwt beam="1">  1        2 0.20638097E+00 0.10212534E+03</pdfrwt>
<totfact> 0.87574690E+04</totfact>
</mgrwt>
</event>
<event>
 4    1  0.5142205E+003  0.1036727E+03  0.7546771E-02  0.1272757E+00
          2   -1    0    0  503    0 -0.00000000000E+00  0.00000000000E+00  0.75238910607E+03  0.75238910607E+03  0.00000000000E+00 0.  1.
         21   -1    0    0  501  502  0.00000000000E+00 -0.00000000000E+00 -0.14499348992E+02  0.14499348992E+02  0.00000000000E+00 0.  1.
         21    1    1    2  503  502 -0.86179154840E+02  0.57629612941E+02  0.32234344968E+03  0.33860495945E+03  0.00000000000E+00 0.  1.
          2    1    1    2  501    0  0.86179154840E+02 -0.57629612941E+02  0.41554630740E+03  0.42828349561E+03  0.00000000000E+00 0.  1.
<mgrwt>
<rscale>  2 0.10367265E+03</rscale>
<asrwt>0</asrwt>
<pdfrwt beam="2">  1       21 0.22306697E-02 0.10367265E+03</pdfrwt>
<pdfrwt beam="1">  1        2 0.11575214E+00 0.10367265E+03</pdfrwt>
<totfact> 0.48322963E+05</totfact>
</mgrwt>
</event>
<event>
 4    1  0.5142205E+003  0.1326993E+03  0.7546771E-02  0.1223505E+00
          2   -1    0    0  502    0 -0.00000000000E+00  0.00000000000E+00  0.65772248731E+03  0.65772248731E+03  0.00000000000E+00 0. -1.
         21   -1    0    0  503  502  0.00000000000E+00 -0.00000000000E+00 -0.75231041820E+02  0.75231041820E+02  0.00000000000E+00 0.  1.
         21    1    1    2  503  501 -0.41110520108E+02 -0.12617065318E+03 -0.28789709254E+01  0.13273054306E+03  0.00000000000E+00 0.  1.
          2    1    1    2  501    0  0.41110520108E+02  0.12617065318E+03  0.58537041642E+03  0.60022298607E+03  0.00000000000E+00 0. -1.
<mgrwt>
<rscale>  2 0.13269932E+03</rscale>
<asrwt>0</asrwt>
<pdfrwt beam="2">  1       21 0.11574007E-01 0.13269932E+03</pdfrwt>
<pdfrwt beam="1">  1        2 0.10118807E+00 0.13269932E+03</pdfrwt>
<totfact> 0.35823767E+04</totfact>
</mgrwt>
</event>
<event>
 4    1  0.5142205E+003  0.1359454E+03  0.7546771E-02  0.1218891E+00
          2   -1    0    0  502    0 -0.00000000000E+00  0.00000000000E+00  0.42549415319E+03  0.42549415319E+03  0.00000000000E+00 0.  1.
         21   -1    0    0  503  502  0.00000000000E+00 -0.00000000000E+00 -0.52795185525E+02  0.52795185525E+02  0.00000000000E+00 0. -1.
         21    1    1    2  503  501  0.13566574492E+03 -0.87152734469E+01  0.85652599268E+02  0.16067830625E+03  0.00000000000E+00 0. -1.
          2    1    1    2  501    0 -0.13566574492E+03  0.87152734469E+01  0.28704636840E+03  0.31761103247E+03  0.00000000000E+00 0.  1.
<mgrwt>
<rscale>  2 0.13594539E+03</rscale>
<asrwt>0</asrwt>
<pdfrwt beam="2">  1       21 0.81223365E-02 0.13594539E+03</pdfrwt>
<pdfrwt beam="1">  1        2 0.65460637E-01 0.13594539E+03</pdfrwt>
<totfact> 0.10799151E+05</totfact>
</mgrwt>
</event>
<event>
 4    1  0.5142205E+003  0.1107930E+03  0.7546771E-02  0.1259108E+00
          1   -1    0    0  502    0 -0.00000000000E+00  0.00000000000E+00  0.37237023836E+03  0.37237023836E+03  0.00000000000E+00 0. -1.
         21   -1    0    0  503  502  0.00000000000E+00 -0.00000000000E+00 -0.69710104621E+02  0.69710104621E+02  0.00000000000E+00 0.  1.
         21    1    1    2  503  501  0.41864229994E+02 -0.10257916881E+03 -0.91512351169E+01  0.11117034106E+03  0.00000000000E+00 0.  1.
          1    1    1    2  501    0 -0.41864229994E+02  0.10257916881E+03  0.31181136885E+03  0.33091000192E+03  0.00000000000E+00 0. -1.
<mgrwt>
<rscale>  2 0.11079305E+03</rscale>
<asrwt>0</asrwt>
<pdfrwt beam="2">  1       21 0.10724632E-01 0.11079305E+03</pdfrwt>
<pdfrwt beam="1">  1        1 0.57287728E-01 0.11079305E+03</pdfrwt>
<totfact> 0.52019068E+04</totfact>
</mgrwt>
</event>
<event>
 4    1  0.5142205E+003  0.1926558E+03  0.7546771E-02  0.1156088E+00
          2   -1    0    0  502    0 -0.00000000000E+00  0.00000000000E+00  0.31274477639E+03  0.31274477639E+03  0.00000000000E+00 0.  1.
         21   -1    0    0  503  502  0.00000000000E+00 -0.00000000000E+00 -0.14673983922E+03  0.14673983922E+03  0.00000000000E+00 0.  1.
         21    1    1    2  503  501  0.14055794760E+03  0.13175623086E+03 -0.17463088397E+02  0.19344560078E+03  0.00000000000E+00 0.  1.
          2    1    1    2  501    0 -0.14055794760E+03 -0.13175623086E+03  0.18346802557E+03  0.26603901483E+03  0.00000000000E+00 0.  1.
<mgrwt>
<rscale>  2 0.19265576E+03</rscale>
<asrwt>0</asrwt>
<pdfrwt beam="2">  1       21 0.22575360E-01 0.19265576E+03</pdfrwt>
<pdfrwt beam="1">  1        2 0.48114581E-01 0.19265576E+03</pdfrwt>
<totfact> 0.23846494E+04</totfact>
</mgrwt>
</event>
<event>
 4    1  0.5142205E+003  0.2365568E+03  0.7546771E-02  0.1122108E+00
         21   -1    0    0  501  502  0.00000000000E+00  0.00000000000E+00  0.18271262413E+03  0.18271262413E+03  0.00000000000E+00 0.  1.
          2   -1    0    0  503    0 -0.00000000000E+00 -0.00000000000E+00 -0.31410305057E+03  0.31410305057E+03  0.00000000000E+00 0.  1.
         21    1    1    2  503  502 -0.23499275793E+03  0.27157735423E+02 -0.26463831985E+02  0.23803250466E+03  0.00000000000E+00 0.  1.
          2    1    1    2  501    0  0.23499275793E+03 -0.27157735423E+02 -0.10492659445E+03  0.25878317004E+03  0.00000000000E+00 0.  1.
<mgrwt>
<rscale>  2 0.23655684E+03</rscale>
<asrwt>0</asrwt>
<pdfrwt beam="1">  1       21 0.28109634E-01 0.23655684E+03</pdfrwt>
<pdfrwt beam="2">  1        2 0.48323546E-01 0.23655684E+03</pdfrwt>
<totfact> 0.15498262E+04</totfact>
</mgrwt>
</event>
<event>
 4    1  0.5142205E+003  0.1552938E+03  0.7546771E-02  0.1194115E+00
          2   -1    0    0  503    0 -0.00000000000E+00  0.00000000000E+00  0.70776609649E+03  0.70776609649E+03  0.00000000000E+00 0. -1.
         21   -1    0    0  501  502  0.00000000000E+00 -0.00000000000E+00 -0.54489492218E+02  0.54489492218E+02  0.00000000000E+00 0. -1.
         21    1    1    2  503  502  0.12707709397E+03  0.89261276432E+02  0.93347263648E+02  0.18119016229E+03  0.00000000000E+00 0. -1.
          2    1    1    2  501    0 -0.12707709397E+03 -0.89261276432E+02  0.55992934063E+03  0.58106542642E+03  0.00000000000E+00 0. -1.
<mgrwt>
<rscale>  2 0.15529380E+03</rscale>
<asrwt>0</asrwt>
<pdfrwt beam="2">  1       21 0.83829993E-02 0.15529380E+03</pdfrwt>
<pdfrwt beam="1">  1        2 0.10888708E+00 0.15529380E+03</pdfrwt>
<totfact> 0.57799103E+04</totfact>
</mgrwt>
</event>
<event>
 4    1  0.5142205E+003  0.1491070E+03  0.7546771E-02  0.1201575E+00
         21   -1    0    0  503  502  0.00000000000E+00  0.00000000000E+00  0.28536103451E+04  0.28536103451E+04  0.00000000000E+00 0. -1.
          2   -1    0    0  502    0 -0.00000000000E+00 -0.00000000000E+00 -0.60257448089E+02  0.60257448089E+02  0.00000000000E+00 0.  1.
         21    1    1    2  503  501 -0.98238315557E+02 -0.11217007531E+03  0.27561623596E+04  0.27601927188E+04  0.00000000000E+00 0. -1.
          2    1    1    2  501    0  0.98238315557E+02  0.11217007531E+03  0.37190537510E+02  0.15367507449E+03  0.00000000000E+00 0.  1.
<mgrwt>
<rscale>  2 0.14910698E+03</rscale>
<asrwt>0</asrwt>
<pdfrwt beam="1">  1       21 0.43901687E+00 0.14910698E+03</pdfrwt>
<pdfrwt beam="2">  1        2 0.92703789E-02 0.14910698E+03</pdfrwt>
<totfact> 0.45091069E+01</totfact>
</mgrwt>
</event>
<event>
 4    1  0.5142205E+003  0.1243562E+03  0.7546771E-02  0.1236079E+00
         21   -1    0    0  501  502  0.00000000000E+00  0.00000000000E+00  0.27455213500E+03  0.27455213500E+03  0.00000000000E+00 0. -1.
         -4   -1    0    0    0  501 -0.00000000000E+00 -0.00000000000E+00 -0.86292559154E+02  0.86292559154E+02  0.00000000000E+00 0. -1.
         21    1    1    2  503  502  0.12233411687E+02 -0.12375303677E+03  0.20045122913E+03  0.23589227569E+03  0.00000000000E+00 0. -1.
         -4    1    1    2    0  503 -0.12233411687E+02  0.12375303677E+03 -0.12191653284E+02  0.12495241847E+03  0.00000000000E+00 0. -1.
<mgrwt>
<rscale>  2 0.12435622E+03</rscale>
<asrwt>0</asrwt>
<pdfrwt beam="1">  1       21 0.42238790E-01 0.12435622E+03</pdfrwt>
<pdfrwt beam="2">  1       -4 0.13275778E-01 0.12435622E+03</pdfrwt>
<totfact> 0.10278133E+04</totfact>
</mgrwt>
</event>
<event>
 4    1  0.5142205E+003  0.1156528E+03  0.7546771E-02  0.1250446E+00
         21   -1    0    0  503  502  0.00000000000E+00  0.00000000000E+00  0.66493281093E+02  0.66493281093E+02  0.00000000000E+00 0. -1.
         -2   -1    0    0    0  501 -0.00000000000E+00 -0.00000000000E+00 -0.66074457552E+03  0.66074457552E+03  0.00000000000E+00 0. -1.
         21    1    1    2  503  501  0.69636546217E+02 -0.92338102531E+02  0.61335123068E+01  0.11581534320E+03  0.00000000000E+00 0. -1.
         -2    1    1    2    0  502 -0.69636546217E+02  0.92338102531E+02 -0.60038480674E+03  0.61142251341E+03  0.00000000000E+00 0. -1.
<mgrwt>
<rscale>  2 0.11565282E+03</rscale>
<asrwt>0</asrwt>
<pdfrwt beam="1">  1       21 0.10229736E-01 0.11565282E+03</pdfrwt>
<pdfrwt beam="2">  1       -2 0.10165301E+00 0.11565282E+03</pdfrwt>
<totfact> 0.53019749E+03</totfact>
</mgrwt>
</event>
<event>
 4    1  0.5142205E+003  0.1039504E+03  0.7546771E-02  0.1272201E+00
          1   -1    0    0  503    0 -0.00000000000E+00  0.00000000000E+00  0.71563556022E+03  0.71563556022E+03  0.00000000000E+00 0. -1.
         21   -1    0    0  501  502  0.00000000000E+00 -0.00000000000E+00 -0.50963723290E+02  0.50963723290E+02  0.00000000000E+00 0. -1.
         21    1    1    2  503  502 -0.94044258401E+02 -0.44287329543E+02  0.10792985649E+02  0.10450922751E+03  0.00000000000E+00 0. -1.
          1    1    1    2  501    0  0.94044258401E+02  0.44287329543E+02  0.65387885129E+03  0.66209005600E+03  0.00000000000E+00 0. -1.
<mgrwt>
<rscale>  2 0.10395042E+03</rscale>
<asrwt>0</asrwt>
<pdfrwt beam="2">  1       21 0.78405733E-02 0.10395042E+03</pdfrwt>
<pdfrwt beam="1">  1        1 0.11009777E+00 0.10395042E+03</pdfrwt>
<totfact> 0.37938265E+04</totfact>
</mgrwt>
</event>
<event>
 4    1  0.5142205E+003  0.1064805E+03  0.7546771E-02  0.1267230E+00
         21   -1    0    0  501  502  0.00000000000E+00  0.00000000000E+00  0.98210092938E+02  0.98210092938E+02  0.00000000000E+00 0.  1.
          1   -1    0    0  503    0 -0.00000000000E+00 -0.00000000000E+00 -0.84905117274E+03  0.84905117274E+03  0.00000000000E+00 0.  1.
         21    1    1    2  503  502 -0.24473999615E+02 -0.10362970282E+03  0.64833806455E+02  0.12466561043E+03  0.00000000000E+00 0.  1.
          1    1    1    2  501    0  0.24473999615E+02  0.10362970282E+03 -0.81567488626E+03  0.82259565525E+03  0.00000000000E+00 0.  1.
<mgrwt>
<rscale>  2 0.10648048E+03</rscale>
<asrwt>0</asrwt>
<pdfrwt beam="1">  1       21 0.15109245E-01 0.10648048E+03</pdfrwt>
<pdfrwt beam="2">  1        1 0.13062326E+00 0.10648048E+03</pdfrwt>
<totfact> 0.93406679E+03</totfact>
</mgrwt>
</event>
<event>
 4    1  0.5142205E+003  0.1410181E+03  0.7546771E-02  0.1211966E+00
         21   -1    0    0  501  502  0.00000000000E+00  0.00000000000E+00  0.68257416140E+03  0.68257416140E+03  0.00000000000E+00 0. -1.
          1   -1    0    0  503    0 -0.00000000000E+00 -0.00000000000E+00 -0.31628418522E+02  0.31628418522E+02  0.00000000000E+00 0. -1.
         21    1    1    2  503  502 -0.13532919969E+03  0.39649803328E+02  0.42575866988E+03  0.44850478723E+03  0.00000000000E+00 0. -1.
          1    1    1    2  501    0  0.13532919969E+03 -0.39649803328E+02  0.22518707299E+03  0.26569779268E+03  0.00000000000E+00 0. -1.
<mgrwt>
<rscale>  2 0.14101808E+03</rscale>
<asrwt>0</asrwt>
<pdfrwt beam="1">  1       21 0.10501140E+00 0.14101808E+03</pdfrwt>
<pdfrwt beam="2">  1        1 0.48659110E-02 0.14101808E+03</pdfrwt>
<totfact> 0.13378625E+04</totfact>
</mgrwt>
</event>
<event>
 4    1  0.5142205E+003  0.1158563E+03  0.7546771E-02  0.1250094E+00
          1   -1    0    0  503    0 -0.00000000000E+00  0.00000000000E+00  0.59756934332E+02  0.59756934332E+02  0.00000000000E+00 0.  1.
         21   -1    0    0  501  502  0.00000000000E+00 -0.00000000000E+00 -0.22468624837E+03  0.22468624837E+03  0.00000000000E+00 0.  1.
         21    1    1    2  503  502  0.88012274444E+02 -0.75342646970E+02 -0.84884357373E+02  0.14362461151E+03  0.00000000000E+00 0.  1.
          1    1    1    2  501    0 -0.88012274444E+02  0.75342646970E+02 -0.80044956670E+02  0.14081857120E+03  0.00000000000E+00 0.  1.
<mgrwt>
<rscale>  2 0.11585627E+03</rscale>
<asrwt>0</asrwt>
<pdfrwt beam="2">  1       21 0.34567115E-01 0.11585627E+03</pdfrwt>
<pdfrwt beam="1">  1        1 0.91933745E-02 0.11585627E+03</pdfrwt>
<totfact> 0.60851857E+04</totfact>
</mgrwt>
</event>
<event>
 4    1  0.5142205E+003  0.1172512E+03  0.7546771E-02  0.1247702E+00
         21   -1    0    0  503  502  0.00000000000E+00  0.00000000000E+00  0.52400596817E+02  0.52400596817E+02  0.00000000000E+00 0.  1.
         -1   -1    0    0    0  501 -0.00000000000E+00 -0.00000000000E+00 -0.43340054542E+03  0.43340054542E+03  0.00000000000E+00 0.  1.
         21    1    1    2  503  501 -0.93446994103E+02 -0.70820164006E+02 -0.37907553189E+02  0.12322669729E+03  0.00000000000E+00 0.  1.
         -1    1    1    2    0  502  0.93446994103E+02  0.70820164006E+02 -0.34309239541E+03  0.36257444494E+03  0.00000000000E+00 0.  1.
<mgrwt>
<rscale>  2 0.11725117E+03</rscale>
<asrwt>0</asrwt>
<pdfrwt beam="1">  1       21 0.80616306E-02 0.11725117E+03</pdfrwt>
<pdfrwt beam="2">  1       -1 0.66677004E-01 0.11725117E+03</pdfrwt>
<totfact> 0.25891156E+04</totfact>
</mgrwt>
</event>
<event>
 4    1  0.5142205E+003  0.1285240E+03  0.7546771E-02  0.1229662E+00
         21   -1    0    0  503  502  0.00000000000E+00  0.00000000000E+00  0.44938531915E+02  0.44938531915E+02  0.00000000000E+00 0.  1.
          2   -1    0    0  502    0 -0.00000000000E+00 -0.00000000000E+00 -0.11215074607E+04  0.11215074607E+04  0.00000000000E+00 0. -1.
         21    1    1    2  503  501 -0.37824328621E+02 -0.12283214082E+03 -0.60096192943E+02  0.14188011510E+03  0.00000000000E+00 0.  1.
          2    1    1    2  501    0  0.37824328621E+02  0.12283214082E+03 -0.10164727358E+04  0.10245658775E+04  0.00000000000E+00 0. -1.
<mgrwt>
<rscale>  2 0.12852398E+03</rscale>
<asrwt>0</asrwt>
<pdfrwt beam="1">  1       21 0.69136209E-02 0.12852398E+03</pdfrwt>
<pdfrwt beam="2">  1        2 0.17253959E+00 0.12852398E+03</pdfrwt>
<totfact> 0.44076339E+04</totfact>
</mgrwt>
</event>
<event>
 4    1  0.5142205E+003  0.1139286E+03  0.7546771E-02  0.1253463E+00
          2   -1    0    0  503    0 -0.00000000000E+00  0.00000000000E+00  0.17196358645E+03  0.17196358645E+03  0.00000000000E+00 0. -1.
         21   -1    0    0  501  502  0.00000000000E+00 -0.00000000000E+00 -0.17339789682E+03  0.17339789682E+03  0.00000000000E+00 0.  1.
         21    1    1    2  503  502  0.95694376253E+02  0.61824814978E+02 -0.13048114580E+03  0.17321966055E+03  0.00000000000E+00 0.  1.
          2    1    1    2  501    0 -0.95694376253E+02 -0.61824814978E+02  0.12904683543E+03  0.17214182272E+03  0.00000000000E+00 0. -1.
<mgrwt>
<rscale>  2 0.11392858E+03</rscale>
<asrwt>0</asrwt>
<pdfrwt beam="2">  1       21 0.26676599E-01 0.11392858E+03</pdfrwt>
<pdfrwt beam="1">  1        2 0.26455936E-01 0.11392858E+03</pdfrwt>
<totfact> 0.33148474E+04</totfact>
</mgrwt>
</event>
<event>
 4    1  0.5142205E+003  0.1208217E+03  0.7546771E-02  0.1241748E+00
          2   -1    0    0  503    0 -0.00000000000E+00  0.00000000000E+00  0.28532326358E+04  0.28532326358E+04  0.00000000000E+00 0.  1.
         21   -1    0    0  501  502  0.00000000000E+00 -0.00000000000E+00 -0.13233611760E+02  0.13233611760E+02  0.00000000000E+00 0.  1.
         21    1    1    2  503  502  0.12068485507E+02 -0.12021743259E+03  0.29750343886E+03  0.32110150354E+03  0.00000000000E+00 0.  1.
          2    1    1    2  501    0 -0.12068485507E+02  0.12021743259E+03  0.25424955851E+04  0.25453647440E+04  0.00000000000E+00 0.  1.
<mgrwt>
<rscale>  2 0.12082168E+03</rscale>
<asrwt>0</asrwt>
<pdfrwt beam="2">  1       21 0.20359425E-02 0.12082168E+03</pdfrwt>
<pdfrwt beam="1">  1        2 0.43895838E+00 0.12082168E+03</pdfrwt>
<totfact> 0.41061877E+04</totfact>
</mgrwt>
</event>
<event>
 4    1  0.5142205E+003  0.1101251E+03  0.7546771E-02  0.1260338E+00
         21   -1    0    0  503  502  0.00000000000E+00  0.00000000000E+00  0.10288097115E+04  0.10288097115E+04  0.00000000000E+00 0.  1.
         -4   -1    0    0    0  501 -0.00000000000E+00 -0.00000000000E+00 -0.71432866711E+02  0.71432866711E+02  0.00000000000E+00 0. -1.
         21    1    1    2  503  501  0.46051643142E+02  0.10003393551E+03  0.98137372181E+03  0.98753325207E+03  0.00000000000E+00 0.  1.
         -4    1    1    2    0  502 -0.46051643142E+02 -0.10003393551E+03 -0.23996877029E+02  0.11270932613E+03  0.00000000000E+00 0. -1.
<mgrwt>
<rscale>  2 0.11012512E+03</rscale>
<asrwt>0</asrwt>
<pdfrwt beam="1">  1       21 0.15827841E+00 0.11012512E+03</pdfrwt>
<pdfrwt beam="2">  1       -4 0.10989673E-01 0.11012512E+03</pdfrwt>
<totfact> 0.71161861E+02</totfact>
</mgrwt>
</event>
<event>
 4    1  0.5142205E+003  0.1064805E+03  0.7546771E-02  0.1267230E+00
         21   -1    0    0  503  502  0.00000000000E+00  0.00000000000E+00  0.12894913323E+03  0.12894913323E+03  0.00000000000E+00 0. -1.
          3   -1    0    0  502    0 -0.00000000000E+00 -0.00000000000E+00 -0.28714726326E+03  0.28714726326E+03  0.00000000000E+00 0.  1.
         21    1    1    2  503  501  0.52365548396E+02  0.92714358328E+02  0.94192904183E+02  0.14216330785E+03  0.00000000000E+00 0. -1.
          3    1    1    2  501    0 -0.52365548396E+02 -0.92714358328E+02 -0.25239103422E+03  0.27393308864E+03  0.00000000000E+00 0.  1.
<mgrwt>
<rscale>  2 0.10648053E+03</rscale>
<asrwt>0</asrwt>
<pdfrwt beam="1">  1       21 0.19838328E-01 0.10648053E+03</pdfrwt>
<pdfrwt beam="2">  1        3 0.44176502E-01 0.10648053E+03</pdfrwt>
<totfact> 0.57749877E+03</totfact>
</mgrwt>
</event>
<event>
 4    1  0.5142205E+003  0.1089997E+03  0.7546771E-02  0.1262434E+00
         -1   -1    0    0    0  501 -0.00000000000E+00  0.00000000000E+00  0.17796914356E+03  0.17796914356E+03  0.00000000000E+00 0. -1.
         21   -1    0    0  503  502  0.00000000000E+00 -0.00000000000E+00 -0.11203265441E+03  0.11203265441E+03  0.00000000000E+00 0.  1.
         21    1    1    2  503  501 -0.99801651366E+02 -0.43824301550E+02 -0.59209045116E+02  0.12404293630E+03  0.00000000000E+00 0.  1.
         -1    1    1    2    0  502  0.99801651366E+02  0.43824301550E+02  0.12514553426E+03  0.16595886167E+03  0.00000000000E+00 0. -1.
<mgrwt>
<rscale>  2 0.10899972E+03</rscale>
<asrwt>0</asrwt>
<pdfrwt beam="2">  1       21 0.17235793E-01 0.10899972E+03</pdfrwt>
<pdfrwt beam="1">  1       -1 0.27379868E-01 0.10899972E+03</pdfrwt>
<totfact> 0.32809291E+04</totfact>
</mgrwt>
</event>
<event>
 4    1  0.5142205E+003  0.1025990E+03  0.7546771E-02  0.1274924E+00
         -2   -1    0    0    0  501 -0.00000000000E+00  0.00000000000E+00  0.70898867663E+03  0.70898867663E+03  0.00000000000E+00 0.  1.
         21   -1    0    0  501  502  0.00000000000E+00 -0.00000000000E+00 -0.25082877649E+02  0.25082877649E+02  0.00000000000E+00 0.  1.
         21    1    1    2  503  502 -0.14733031949E+02 -0.10153569211E+03  0.10748890755E+03  0.14859483251E+03  0.00000000000E+00 0.  1.
         -2    1    1    2    0  503  0.14733031949E+02  0.10153569211E+03  0.57641689143E+03  0.58547672176E+03  0.00000000000E+00 0.  1.
<mgrwt>
<rscale>  2 0.10259902E+03</rscale>
<asrwt>0</asrwt>
<pdfrwt beam="2">  1       21 0.38589048E-02 0.10259902E+03</pdfrwt>
<pdfrwt beam="1">  1       -2 0.10907517E+00 0.10259902E+03</pdfrwt>
<totfact> 0.23420559E+04</totfact>
</mgrwt>
</event>
<event>
 4    1  0.5142205E+003  0.1730221E+03  0.7546771E-02  0.1174732E+00
          2   -1    0    0  503    0 -0.00000000000E+00  0.00000000000E+00  0.24914495659E+04  0.24914495659E+04  0.00000000000E+00 0.  1.
         21   -1    0    0  501  502  0.00000000000E+00 -0.00000000000E+00 -0.19266354644E+02  0.19266354644E+02  0.00000000000E+00 0. -1.
         21    1    1    2  503  502 -0.16868385068E+03 -0.38502035135E+02  0.46597806232E+03  0.49706358019E+03  0.00000000000E+00 0. -1.
          2    1    1    2  501    0  0.16868385068E+03  0.38502035135E+02  0.20062051490E+04  0.20136523404E+04  0.00000000000E+00 0.  1.
<mgrwt>
<rscale>  2 0.17302210E+03</rscale>
<asrwt>0</asrwt>
<pdfrwt beam="2">  1       21 0.29640565E-02 0.17302210E+03</pdfrwt>
<pdfrwt beam="1">  1        2 0.38329968E+00 0.17302210E+03</pdfrwt>
<totfact> 0.34445323E+04</totfact>
</mgrwt>
</event>
<event>
 4    1  0.5142205E+003  0.1003283E+03  0.7546771E-02  0.1279607E+00
         21   -1    0    0  503  502  0.00000000000E+00  0.00000000000E+00  0.42686442662E+03  0.42686442662E+03  0.00000000000E+00 0. -1.
         -1   -1    0    0    0  501 -0.00000000000E+00 -0.00000000000E+00 -0.16987784562E+03  0.16987784562E+03  0.00000000000E+00 0. -1.
         21    1    1    2  503  501 -0.32811372174E+02 -0.94811289800E+02  0.40538270007E+03  0.41761333830E+03  0.00000000000E+00 0. -1.
         -1    1    1    2    0  502  0.32811372174E+02  0.94811289800E+02 -0.14839611907E+03  0.17912893393E+03  0.00000000000E+00 0. -1.
<mgrwt>
<rscale>  2 0.10032830E+03</rscale>
<asrwt>0</asrwt>
<pdfrwt beam="1">  1       21 0.65671450E-01 0.10032830E+03</pdfrwt>
<pdfrwt beam="2">  1       -1 0.26135053E-01 0.10032830E+03</pdfrwt>
<totfact> 0.25924271E+03</totfact>
</mgrwt>
</event>
<event>
 4    1  0.5142205E+003  0.1078083E+03  0.7546771E-02  0.1264683E+00
          3   -1    0    0  502    0 -0.00000000000E+00  0.00000000000E+00  0.23304461350E+03  0.23304461350E+03  0.00000000000E+00 0.  1.
         21   -1    0    0  503  502  0.00000000000E+00 -0.00000000000E+00 -0.26760792721E+03  0.26760792721E+03  0.00000000000E+00 0.  1.
         21    1    1    2  503  501  0.66642401811E+02  0.84743308343E+02 -0.24308011642E+03  0.26591461229E+03  0.00000000000E+00 0.  1.
          3    1    1    2  501    0 -0.66642401811E+02 -0.84743308343E+02  0.20851680271E+03  0.23473792842E+03  0.00000000000E+00 0.  1.
<mgrwt>
<rscale>  2 0.10780834E+03</rscale>
<asrwt>0</asrwt>
<pdfrwt beam="2">  1       21 0.41170450E-01 0.10780834E+03</pdfrwt>
<pdfrwt beam="1">  1        3 0.35853017E-01 0.10780834E+03</pdfrwt>
<totfact> 0.21347266E+03</totfact>
</mgrwt>
</event>
<event>
 4    1  0.5142205E+003  0.1174925E+03  0.7546771E-02  0.1247292E+00
         -4   -1    0    0    0  501 -0.00000000000E+00  0.00000000000E+00  0.79110339446E+02  0.79110339446E+02  0.00000000000E+00 0. -1.
         21   -1    0    0  501  502  0.00000000000E+00 -0.00000000000E+00 -0.40767697840E+03  0.40767697840E+03  0.00000000000E+00 0.  1.
         21    1    1    2  503  502 -0.69205571386E+02  0.94947734511E+02 -0.34835932817E+03  0.36763936802E+03  0.00000000000E+00 0.  1.
         -4    1    1    2    0  503  0.69205571386E+02 -0.94947734511E+02  0.19792689216E+02  0.11914794982E+03  0.00000000000E+00 0. -1.
<mgrwt>
<rscale>  2 0.11749248E+03</rscale>
<asrwt>0</asrwt>
<pdfrwt beam="2">  1       21 0.62719534E-01 0.11749248E+03</pdfrwt>
<pdfrwt beam="1">  1       -4 0.12170822E-01 0.11749248E+03</pdfrwt>
<totfact> 0.52421169E+03</totfact>
</mgrwt>
</event>
<event>
 4    1  0.5142205E+003  0.1197145E+03  0.7546771E-02  0.1243569E+00
          2   -1    0    0  503    0 -0.00000000000E+00  0.00000000000E+00  0.85933209397E+03  0.85933209397E+03  0.00000000000E+00 0.  1.
         21   -1    0    0  501  502  0.00000000000E+00 -0.00000000000E+00 -0.22810679561E+03  0.22810679561E+03  0.00000000000E+00 0. -1.
         21    1    1    2  503  502  0.11856674938E+03  0.16537532591E+02 -0.20785310035E+03  0.23986345151E+03  0.00000000000E+00 0. -1.
          2    1    1    2  501    0 -0.11856674938E+03 -0.16537532591E+02  0.83907839871E+03  0.84757543807E+03  0.00000000000E+00 0.  1.
<mgrwt>
<rscale>  2 0.11971451E+03</rscale>
<asrwt>0</asrwt>
<pdfrwt beam="2">  1       21 0.35093354E-01 0.11971451E+03</pdfrwt>
<pdfrwt beam="1">  1        2 0.13220494E+00 0.11971451E+03</pdfrwt>
<totfact> 0.33241219E+03</totfact>
</mgrwt>
</event>
<event>
 4    1  0.5142205E+003  0.1275692E+03  0.7546771E-02  0.1231108E+00
          2   -1    0    0  502    0 -0.00000000000E+00  0.00000000000E+00  0.12826718733E+04  0.12826718733E+04  0.00000000000E+00 0.  1.
         21   -1    0    0  503  502  0.00000000000E+00 -0.00000000000E+00 -0.17458796860E+03  0.17458796860E+03  0.00000000000E+00 0. -1.
         21    1    1    2  503  501  0.12704168964E+03  0.11589444088E+02 -0.14761347907E+03  0.19509906541E+03  0.00000000000E+00 0. -1.
          2    1    1    2  501    0 -0.12704168964E+03 -0.11589444088E+02  0.12556973838E+04  0.12621607765E+04  0.00000000000E+00 0.  1.
<mgrwt>
<rscale>  2 0.12756922E+03</rscale>
<asrwt>0</asrwt>
<pdfrwt beam="2">  1       21 0.26859688E-01 0.12756922E+03</pdfrwt>
<pdfrwt beam="1">  1        2 0.19733413E+00 0.12756922E+03</pdfrwt>
<totfact> 0.31457202E+03</totfact>
</mgrwt>
</event>
<event>
 4    1  0.5142205E+003  0.1109159E+03  0.7546771E-02  0.1258883E+00
          1   -1    0    0  503    0 -0.00000000000E+00  0.00000000000E+00  0.17845632086E+04  0.17845632086E+04  0.00000000000E+00 0.  1.
         21   -1    0    0  501  502  0.00000000000E+00 -0.00000000000E+00 -0.73066035872E+01  0.73066035872E+01  0.00000000000E+00 0.  1.
         21    1    1    2  503  502 -0.68154779401E+01  0.11070628977E+03  0.67565924695E+03  0.68470267367E+03  0.00000000000E+00 0.  1.
          1    1    1    2  501    0  0.68154779401E+01 -0.11070628977E+03  0.11015973580E+04  0.11071671385E+04  0.00000000000E+00 0.  1.
<mgrwt>
<rscale>  2 0.11091588E+03</rscale>
<asrwt>0</asrwt>
<pdfrwt beam="2">  1       21 0.11240943E-02 0.11091588E+03</pdfrwt>
<pdfrwt beam="1">  1        1 0.27454784E+00 0.11091588E+03</pdfrwt>
<totfact> 0.16529180E+05</totfact>
</mgrwt>
</event>
<event>
 4    1  0.5142205E+003  0.1295284E+03  0.7546771E-02  0.1228157E+00
         21   -1    0    0  501  502  0.00000000000E+00  0.00000000000E+00  0.25190329676E+02  0.25190329676E+02  0.00000000000E+00 0. -1.
          2   -1    0    0  503    0 -0.00000000000E+00 -0.00000000000E+00 -0.11074986171E+04  0.11074986171E+04  0.00000000000E+00 0. -1.
         21    1    1    2  503  502 -0.11422629595E+03  0.61073354600E+02 -0.18358724458E+03  0.22468172534E+03  0.00000000000E+00 0. -1.
          2    1    1    2  501    0  0.11422629595E+03 -0.61073354600E+02 -0.89872104285E+03  0.90800722144E+03  0.00000000000E+00 0. -1.
<mgrwt>
<rscale>  2 0.12952838E+03</rscale>
<asrwt>0</asrwt>
<pdfrwt beam="1">  1       21 0.38754362E-02 0.12952838E+03</pdfrwt>
<pdfrwt beam="2">  1        2 0.17038437E+00 0.12952838E+03</pdfrwt>
<totfact> 0.11891918E+05</totfact>
</mgrwt>
</event>
<event>
 4    1  0.5142205E+003  0.1036244E+03  0.7546771E-02  0.1272854E+00
          2   -1    0    0  503    0 -0.00000000000E+00  0.00000000000E+00  0.64459797863E+03  0.64459797863E+03  0.00000000000E+00 0.  1.
         21   -1    0    0  501  502  0.00000000000E+00 -0.00000000000E+00 -0.55809518422E+02  0.55809518422E+02  0.00000000000E+00 0. -1.
         21    1    1    2  503  502  0.50193764304E+02  0.90656473343E+02  0.10764413119E+01  0.10362996121E+03  0.00000000000E+00 0. -1.
          2    1    1    2  501    0 -0.50193764304E+02 -0.90656473343E+02  0.58771201889E+03  0.59677753584E+03  0.00000000000E+00 0.  1.
<mgrwt>
<rscale>  2 0.10362437E+03</rscale>
<asrwt>0</asrwt>
<pdfrwt beam="2">  1       21 0.85860802E-02 0.10362437E+03</pdfrwt>
<pdfrwt beam="1">  1        2 0.99168915E-01 0.10362437E+03</pdfrwt>
<totfact> 0.61674673E+04</totfact>
</mgrwt>
</event>
<event>
 4    1  0.5142205E+003  0.1203337E+03  0.7546771E-02  0.1242548E+00
         21   -1    0    0  501  502  0.00000000000E+00  0.00000000000E+00  0.12698746473E+02  0.12698746473E+02  0.00000000000E+00 0.  1.
          2   -1    0    0  503    0 -0.00000000000E+00 -0.00000000000E+00 -0.14333403058E+04  0.14333403058E+04  0.00000000000E+00 0.  1.
         21    1    1    2  503  502  0.80919296221E+02  0.89063231952E+02 -0.38339432361E+03  0.40183503974E+03  0.00000000000E+00 0.  1.
          2    1    1    2  501    0 -0.80919296221E+02 -0.89063231952E+02 -0.10372472357E+04  0.10442040125E+04  0.00000000000E+00 0.  1.
<mgrwt>
<rscale>  2 0.12033367E+03</rscale>
<asrwt>0</asrwt>
<pdfrwt beam="1">  1       21 0.19536518E-02 0.12033367E+03</pdfrwt>
<pdfrwt beam="2">  1        2 0.22051406E+00 0.12033367E+03</pdfrwt>
<totfact> 0.24196653E+05</totfact>
</mgrwt>
</event>
<event>
 4    1  0.5142205E+003  0.1756936E+03  0.7546771E-02  0.1172037E+00
          2   -1    0    0  503    0 -0.00000000000E+00  0.00000000000E+00  0.85947035207E+03  0.85947035207E+03  0.00000000000E+00 0. -1.
         21   -1    0    0  501  502  0.00000000000E+00 -0.00000000000E+00 -0.77665782452E+02  0.77665782452E+02  0.00000000000E+00 0. -1.
         21    1    1    2  503  502  0.13115639267E+03 -0.11690272873E+03  0.47353908747E+02  0.18196329300E+03  0.00000000000E+00 0. -1.
          2    1    1    2  501    0 -0.13115639267E+03  0.11690272873E+03  0.73445066087E+03  0.75517284152E+03  0.00000000000E+00 0. -1.
<mgrwt>
<rscale>  2 0.17569362E+03</rscale>
<asrwt>0</asrwt>
<pdfrwt beam="2">  1       21 0.11948583E-01 0.17569362E+03</pdfrwt>
<pdfrwt beam="1">  1        2 0.13222620E+00 0.17569362E+03</pdfrwt>
<totfact> 0.24278839E+04</totfact>
</mgrwt>
</event>
<event>
 4    1  0.5142205E+003  0.1122508E+03  0.7546771E-02  0.1256458E+00
          1   -1    0    0  502    0 -0.00000000000E+00  0.00000000000E+00  0.17781092256E+03  0.17781092256E+03  0.00000000000E+00 0. -1.
         21   -1    0    0  503  502  0.00000000000E+00 -0.00000000000E+00 -0.23652214070E+03  0.23652214070E+03  0.00000000000E+00 0.  1.
         21    1    1    2  503  501  0.11100987435E+03 -0.16644618227E+02 -0.20273251509E+03  0.23173413256E+03  0.00000000000E+00 0.  1.
          1    1    1    2  501    0 -0.11100987435E+03  0.16644618227E+02  0.14402129694E+03  0.18259893070E+03  0.00000000000E+00 0. -1.
<mgrwt>
<rscale>  2 0.11225077E+03</rscale>
<asrwt>0</asrwt>
<pdfrwt beam="2">  1       21 0.36388022E-01 0.11225077E+03</pdfrwt>
<pdfrwt beam="1">  1        1 0.27355526E-01 0.11225077E+03</pdfrwt>
<totfact> 0.13574304E+04</totfact>
</mgrwt>
</event>
<event>
 4    1  0.5142205E+003  0.1391273E+03  0.7546771E-02  0.1214508E+00
         21   -1    0    0  501  502  0.00000000000E+00  0.00000000000E+00  0.35513522103E+02  0.35513522103E+02  0.00000000000E+00 0. -1.
          2   -1    0    0  503    0 -0.00000000000E+00 -0.00000000000E+00 -0.30881436853E+04  0.30881436853E+04  0.00000000000E+00 0.  1.
         21    1    1    2  503  502 -0.12773444280E+03 -0.55139169319E+02 -0.10900017767E+03  0.17674120799E+03  0.00000000000E+00 0. -1.
          2    1    1    2  501    0  0.12773444280E+03  0.55139169319E+02 -0.29436299856E+04  0.29469159994E+04  0.00000000000E+00 0.  1.
<mgrwt>
<rscale>  2 0.13912734E+03</rscale>
<asrwt>0</asrwt>
<pdfrwt beam="1">  1       21 0.54636177E-02 0.13912734E+03</pdfrwt>
<pdfrwt beam="2">  1        2 0.47509912E+00 0.13912734E+03</pdfrwt>
<totfact> 0.58434747E+03</totfact>
</mgrwt>
</event>
<event>
 4    1  0.5142205E+003  0.1478277E+03  0.7546771E-02  0.1203168E+00
         21   -1    0    0  501  502  0.00000000000E+00  0.00000000000E+00  0.31097589682E+02  0.31097589682E+02  0.00000000000E+00 0.  1.
         -1   -1    0    0    0  501 -0.00000000000E+00 -0.00000000000E+00 -0.80769826950E+03  0.80769826950E+03  0.00000000000E+00 0.  1.
         21    1    1    2  503  502 -0.12558111575E+03 -0.77989796294E+02 -0.23710340734E+03  0.27941197314E+03  0.00000000000E+00 0.  1.
         -1    1    1    2    0  503  0.12558111575E+03  0.77989796294E+02 -0.53949727247E+03  0.55938388604E+03  0.00000000000E+00 0.  1.
<mgrwt>
<rscale>  2 0.14782769E+03</rscale>
<asrwt>0</asrwt>
<pdfrwt beam="1">  1       21 0.47842452E-02 0.14782769E+03</pdfrwt>
<pdfrwt beam="2">  1       -1 0.12426126E+00 0.14782769E+03</pdfrwt>
<totfact> 0.16632846E+04</totfact>
</mgrwt>
</event>
<event>
 4    1  0.5142205E+003  0.1286427E+03  0.7546771E-02  0.1229484E+00
         21   -1    0    0  501  502  0.00000000000E+00  0.00000000000E+00  0.11256912300E+03  0.11256912300E+03  0.00000000000E+00 0. -1.
          3   -1    0    0  503    0 -0.00000000000E+00 -0.00000000000E+00 -0.23435302354E+03  0.23435302354E+03  0.00000000000E+00 0. -1.
         21    1    1    2  503  502 -0.12864046287E+03 -0.76310087575E+00  0.45003483163E+02  0.13628743342E+03  0.00000000000E+00 0. -1.
          3    1    1    2  501    0  0.12864046287E+03  0.76310087575E+00 -0.16678738370E+03  0.21063471312E+03  0.00000000000E+00 0. -1.
<mgrwt>
<rscale>  2 0.12864273E+03</rscale>
<asrwt>0</asrwt>
<pdfrwt beam="1">  1       21 0.17318327E-01 0.12864273E+03</pdfrwt>
<pdfrwt beam="2">  1        3 0.36054311E-01 0.12864273E+03</pdfrwt>
<totfact> 0.11055492E+04</totfact>
</mgrwt>
</event>
<event>
 4    1  0.5142205E+003  0.1439682E+03  0.7546771E-02  0.1208087E+00
          2   -1    0    0  503    0 -0.00000000000E+00  0.00000000000E+00  0.97671515613E+03  0.97671515613E+03  0.00000000000E+00 0.  1.
         21   -1    0    0  501  502  0.00000000000E+00 -0.00000000000E+00 -0.21327100120E+02  0.21327100120E+02  0.00000000000E+00 0.  1.
         21    1    1    2  503  502 -0.13211563634E+03  0.57204019942E+02  0.44249132152E+03  0.46532291033E+03  0.00000000000E+00 0.  1.
          2    1    1    2  501    0  0.13211563634E+03 -0.57204019942E+02  0.51289673449E+03  0.53271934592E+03  0.00000000000E+00 0.  1.
<mgrwt>
<rscale>  2 0.14396820E+03</rscale>
<asrwt>0</asrwt>
<pdfrwt beam="2">  1       21 0.32810931E-02 0.14396820E+03</pdfrwt>
<pdfrwt beam="1">  1        2 0.15026384E+00 0.14396820E+03</pdfrwt>
<totfact> 0.18724992E+05</totfact>
</mgrwt>
</event>
<event>
 4    1  0.5142205E+003  0.1161853E+03  0.7546771E-02  0.1249526E+00
          2   -1    0    0  502    0 -0.00000000000E+00  0.00000000000E+00  0.12115088287E+04  0.12115088287E+04  0.00000000000E+00 0. -1.
         21   -1    0    0  503  502  0.00000000000E+00 -0.00000000000E+00 -0.38840554800E+03  0.38840554800E+03  0.00000000000E+00 0. -1.
         21    1    1    2  503  501  0.94702151949E+02  0.67309240520E+02 -0.37684772358E+03  0.39435166820E+03  0.00000000000E+00 0. -1.
          2    1    1    2  501    0 -0.94702151949E+02 -0.67309240520E+02  0.11999510042E+04  0.12055627085E+04  0.00000000000E+00 0. -1.
<mgrwt>
<rscale>  2 0.11618533E+03</rscale>
<asrwt>0</asrwt>
<pdfrwt beam="2">  1       21 0.59754700E-01 0.11618533E+03</pdfrwt>
<pdfrwt beam="1">  1        2 0.18638597E+00 0.11618533E+03</pdfrwt>
<totfact> 0.70124121E+02</totfact>
</mgrwt>
</event>
<event>
 4    1  0.5142205E+003  0.1277741E+03  0.7546771E-02  0.1230796E+00
          2   -1    0    0  502    0 -0.00000000000E+00  0.00000000000E+00  0.13583699544E+04  0.13583699544E+04  0.00000000000E+00 0. -1.
         21   -1    0    0  503  502  0.00000000000E+00 -0.00000000000E+00 -0.18157834582E+02  0.18157834582E+02  0.00000000000E+00 0.  1.
         21    1    1    2  503  501 -0.12536401553E+03 -0.24699686176E+02  0.26991544054E+03  0.29863113691E+03  0.00000000000E+00 0.  1.
          2    1    1    2  501    0  0.12536401553E+03  0.24699686176E+02  0.10702966793E+04  0.10778966521E+04  0.00000000000E+00 0. -1.
<mgrwt>
<rscale>  2 0.12777406E+03</rscale>
<asrwt>0</asrwt>
<pdfrwt beam="2">  1       21 0.27935141E-02 0.12777406E+03</pdfrwt>
<pdfrwt beam="1">  1        2 0.20897991E+00 0.12777406E+03</pdfrwt>
<totfact> 0.14852195E+05</totfact>
</mgrwt>
</event>
<event>
 4    1  0.5142205E+003  0.1337293E+03  0.7546771E-02  0.1222025E+00
         21   -1    0    0  501  502  0.00000000000E+00  0.00000000000E+00  0.41503212692E+02  0.41503212692E+02  0.00000000000E+00 0.  1.
          2   -1    0    0  503    0 -0.00000000000E+00 -0.00000000000E+00 -0.74169277615E+03  0.74169277615E+03  0.00000000000E+00 0. -1.
         21    1    1    2  503  502 -0.10383088335E+03 -0.84277380761E+02 -0.96600979806E+02  0.16497053841E+03  0.00000000000E+00 0.  1.
          2    1    1    2  501    0  0.10383088335E+03  0.84277380761E+02 -0.60358858366E+03  0.61822545043E+03  0.00000000000E+00 0. -1.
<mgrwt>
<rscale>  2 0.13372931E+03</rscale>
<asrwt>0</asrwt>
<pdfrwt beam="1">  1       21 0.63851098E-02 0.13372931E+03</pdfrwt>
<pdfrwt beam="2">  1        2 0.11410658E+00 0.13372931E+03</pdfrwt>
<totfact> 0.87151681E+04</totfact>
</mgrwt>
</event>
<event>
 4    1  0.5142205E+003  0.2178659E+03  0.7546771E-02  0.1135484E+00
         -1   -1    0    0    0  501 -0.00000000000E+00  0.00000000000E+00  0.57641237039E+03  0.57641237039E+03  0.00000000000E+00 0. -1.
         21   -1    0    0  503  502  0.00000000000E+00 -0.00000000000E+00 -0.97847116947E+02  0.97847116947E+02  0.00000000000E+00 0.  1.
         21    1    1    2  503  501  0.12258594831E+03  0.18010623682E+03  0.10509983717E+03  0.24189160183E+03  0.00000000000E+00 0.  1.
         -1    1    1    2    0  502 -0.12258594831E+03 -0.18010623682E+03  0.37346541627E+03  0.43236788551E+03  0.00000000000E+00 0. -1.
<mgrwt>
<rscale>  2 0.21786595E+03</rscale>
<asrwt>0</asrwt>
<pdfrwt beam="2">  1       21 0.15053403E-01 0.21786595E+03</pdfrwt>
<pdfrwt beam="1">  1       -1 0.88678824E-01 0.21786595E+03</pdfrwt>
<totfact> 0.47607264E+03</totfact>
</mgrwt>
</event>
<event>
 4    1  0.5142205E+003  0.1169668E+03  0.7546771E-02  0.1248186E+00
         21   -1    0    0  501  502  0.00000000000E+00  0.00000000000E+00  0.28204597302E+03  0.28204597302E+03  0.00000000000E+00 0. -1.
         -3   -1    0    0    0  501 -0.00000000000E+00 -0.00000000000E+00 -0.15653387092E+03  0.15653387092E+03  0.00000000000E+00 0.  1.
         21    1    1    2  503  502  0.78108223819E+02 -0.87065109723E+02  0.24492746877E+03  0.27142345683E+03  0.00000000000E+00 0. -1.
         -3    1    1    2    0  503 -0.78108223819E+02  0.87065109723E+02 -0.11941536666E+03  0.16715638712E+03  0.00000000000E+00 0.  1.
<mgrwt>
<rscale>  2 0.11696678E+03</rscale>
<asrwt>0</asrwt>
<pdfrwt beam="1">  1       21 0.43391688E-01 0.11696678E+03</pdfrwt>
<pdfrwt beam="2">  1       -3 0.24082134E-01 0.11696678E+03</pdfrwt>
<totfact> 0.39994735E+03</totfact>
</mgrwt>
</event>
<event>
 4    1  0.5142205E+003  0.2087782E+03  0.7546771E-02  0.1142537E+00
          2   -1    0    0  503    0 -0.00000000000E+00  0.00000000000E+00  0.76373946131E+03  0.76373946131E+03  0.00000000000E+00 0. -1.
         21   -1    0    0  501  502  0.00000000000E+00 -0.00000000000E+00 -0.26875470873E+03  0.26875470873E+03  0.00000000000E+00 0. -1.
         21    1    1    2  503  502 -0.19687209677E+03 -0.69496027307E+02 -0.21067273948E+03  0.29659960124E+03  0.00000000000E+00 0. -1.
          2    1    1    2  501    0  0.19687209677E+03  0.69496027307E+02  0.70565749205E+03  0.73589456880E+03  0.00000000000E+00 0. -1.
<mgrwt>
<rscale>  2 0.20877816E+03</rscale>
<asrwt>0</asrwt>
<pdfrwt beam="2">  1       21 0.41346879E-01 0.20877816E+03</pdfrwt>
<pdfrwt beam="1">  1        2 0.11749838E+00 0.20877816E+03</pdfrwt>
<totfact> 0.26597471E+03</totfact>
</mgrwt>
</event>
<event>
 4    1  0.5142205E+003  0.2115260E+03  0.7546771E-02  0.1140363E+00
         21   -1    0    0  501  502  0.00000000000E+00  0.00000000000E+00  0.40241934315E+03  0.40241934315E+03  0.00000000000E+00 0. -1.
          2   -1    0    0  503    0 -0.00000000000E+00 -0.00000000000E+00 -0.60679006414E+03  0.60679006414E+03  0.00000000000E+00 0. -1.
         21    1    1    2  503  502  0.14780484763E+03  0.15131750737E+03  0.35385117926E+03  0.41225467624E+03  0.00000000000E+00 0. -1.
          2    1    1    2  501    0 -0.14780484763E+03 -0.15131750737E+03 -0.55822190024E+03  0.59695473105E+03  0.00000000000E+00 0. -1.
<mgrwt>
<rscale>  2 0.21152603E+03</rscale>
<asrwt>0</asrwt>
<pdfrwt beam="1">  1       21 0.61910668E-01 0.21152603E+03</pdfrwt>
<pdfrwt beam="2">  1        2 0.93352318E-01 0.21152603E+03</pdfrwt>
<totfact> 0.15024219E+03</totfact>
</mgrwt>
</event>
<event>
 4    1  0.5142205E+003  0.1790045E+03  0.7546771E-02  0.1168770E+00
         21   -1    0    0  501  502  0.00000000000E+00  0.00000000000E+00  0.17809643378E+04  0.17809643378E+04  0.00000000000E+00 0. -1.
          1   -1    0    0  503    0 -0.00000000000E+00 -0.00000000000E+00 -0.27950480217E+03  0.27950480217E+03  0.00000000000E+00 0. -1.
         21    1    1    2  503  502  0.43187612910E+02 -0.17371652997E+03  0.17472547614E+04  0.17564002403E+04  0.00000000000E+00 0. -1.
          1    1    1    2  501    0 -0.43187612910E+02  0.17371652997E+03 -0.24579522583E+03  0.30406889966E+03  0.00000000000E+00 0. -1.
<mgrwt>
<rscale>  2 0.17900448E+03</rscale>
<asrwt>0</asrwt>
<pdfrwt beam="1">  1       21 0.27399451E+00 0.17900448E+03</pdfrwt>
<pdfrwt beam="2">  1        1 0.43000740E-01 0.17900448E+03</pdfrwt>
<totfact> 0.51308271E+01</totfact>
</mgrwt>
</event>
<event>
 4    1  0.5142205E+003  0.1236995E+03  0.7546771E-02  0.1237116E+00
         21   -1    0    0  503  502  0.00000000000E+00  0.00000000000E+00  0.29364133987E+02  0.29364133987E+02  0.00000000000E+00 0.  1.
         -1   -1    0    0    0  501 -0.00000000000E+00 -0.00000000000E+00 -0.12002510391E+04  0.12002510391E+04  0.00000000000E+00 0. -1.
         21    1    1    2  503  501 -0.14486502203E+02  0.12284832019E+03 -0.12296953247E+03  0.17442211567E+03  0.00000000000E+00 0.  1.
         -1    1    1    2    0  502  0.14486502203E+02 -0.12284832019E+03 -0.10479173726E+04  0.10551930574E+04  0.00000000000E+00 0. -1.
<mgrwt>
<rscale>  2 0.12369951E+03</rscale>
<asrwt>0</asrwt>
<pdfrwt beam="1">  1       21 0.45175587E-02 0.12369951E+03</pdfrwt>
<pdfrwt beam="2">  1       -1 0.18465402E+00 0.12369951E+03</pdfrwt>
<totfact> 0.65135742E+03</totfact>
</mgrwt>
</event>
<event>
 4    1  0.5142205E+003  0.1132368E+03  0.7546771E-02  0.1254691E+00
         21   -1    0    0  501  502  0.00000000000E+00  0.00000000000E+00  0.18569151739E+03  0.18569151739E+03  0.00000000000E+00 0. -1.
          2   -1    0    0  503    0 -0.00000000000E+00 -0.00000000000E+00 -0.10609439649E+03  0.10609439649E+03  0.00000000000E+00 0. -1.
         21    1    1    2  503  502 -0.10960703362E+03 -0.28440587297E+02  0.12600334786E+03  0.16940900949E+03  0.00000000000E+00 0. -1.
          2    1    1    2  501    0  0.10960703362E+03  0.28440587297E+02 -0.46406226963E+02  0.12237690438E+03  0.00000000000E+00 0. -1.
<mgrwt>
<rscale>  2 0.11323678E+03</rscale>
<asrwt>0</asrwt>
<pdfrwt beam="1">  1       21 0.28567926E-01 0.11323678E+03</pdfrwt>
<pdfrwt beam="2">  1        2 0.16322215E-01 0.11323678E+03</pdfrwt>
<totfact> 0.49978191E+04</totfact>
</mgrwt>
</event>
<event>
 4    1  0.5142205E+003  0.1132277E+03  0.7546771E-02  0.1254707E+00
         21   -1    0    0  501  502  0.00000000000E+00  0.00000000000E+00  0.23721002398E+02  0.23721002398E+02  0.00000000000E+00 0. -1.
          1   -1    0    0  503    0 -0.00000000000E+00 -0.00000000000E+00 -0.22770833777E+04  0.22770833777E+04  0.00000000000E+00 0.  1.
         21    1    1    2  503  502  0.25398959559E+02  0.11034222570E+03 -0.12203838053E+03  0.16647486369E+03  0.00000000000E+00 0. -1.
          1    1    1    2  501    0 -0.25398959559E+02 -0.11034222570E+03 -0.21313239947E+04  0.21343295164E+04  0.00000000000E+00 0.  1.
<mgrwt>
<rscale>  2 0.11322771E+03</rscale>
<asrwt>0</asrwt>
<pdfrwt beam="1">  1       21 0.36493854E-02 0.11322771E+03</pdfrwt>
<pdfrwt beam="2">  1        1 0.35032048E+00 0.11322771E+03</pdfrwt>
<totfact> 0.12100984E+04</totfact>
</mgrwt>
</event>
<event>
 4    1  0.5142205E+003  0.1222450E+03  0.7546771E-02  0.1239439E+00
         21   -1    0    0  503  502  0.00000000000E+00  0.00000000000E+00  0.10686856557E+03  0.10686856557E+03  0.00000000000E+00 0.  1.
          2   -1    0    0  502    0 -0.00000000000E+00 -0.00000000000E+00 -0.29874165461E+03  0.29874165461E+03  0.00000000000E+00 0.  1.
         21    1    1    2  503  501  0.10437393289E+03  0.63638921201E+02  0.51975581803E+02  0.13283557981E+03  0.00000000000E+00 0.  1.
          2    1    1    2  501    0 -0.10437393289E+03 -0.63638921201E+02 -0.24384867084E+03  0.27277464037E+03  0.00000000000E+00 0.  1.
<mgrwt>
<rscale>  2 0.12224496E+03</rscale>
<asrwt>0</asrwt>
<pdfrwt beam="1">  1       21 0.16441318E-01 0.12224496E+03</pdfrwt>
<pdfrwt beam="2">  1        2 0.45960254E-01 0.12224496E+03</pdfrwt>
<totfact> 0.45084923E+04</totfact>
</mgrwt>
</event>
<event>
 4    1  0.5142205E+003  0.1025732E+03  0.7546771E-02  0.1274976E+00
         -4   -1    0    0    0  501 -0.00000000000E+00  0.00000000000E+00  0.38614906086E+02  0.38614906086E+02  0.00000000000E+00 0.  1.
         21   -1    0    0  503  502  0.00000000000E+00 -0.00000000000E+00 -0.77946136570E+03  0.77946136570E+03  0.00000000000E+00 0. -1.
         21    1    1    2  503  501  0.64642560063E+02 -0.79640461688E+02 -0.70031261014E+03  0.70778458279E+03  0.00000000000E+00 0. -1.
         -4    1    1    2    0  502 -0.64642560063E+02  0.79640461688E+02 -0.40533849474E+02  0.11029168900E+03  0.00000000000E+00 0.  1.
<mgrwt>
<rscale>  2 0.10257321E+03</rscale>
<asrwt>0</asrwt>
<pdfrwt beam="2">  1       21 0.11991713E+00 0.10257321E+03</pdfrwt>
<pdfrwt beam="1">  1       -4 0.59407548E-02 0.10257321E+03</pdfrwt>
<totfact> 0.39376325E+03</totfact>
</mgrwt>
</event>
<event>
 4    1  0.5142205E+003  0.1218546E+03  0.7546771E-02  0.1240069E+00
         21   -1    0    0  503  502  0.00000000000E+00  0.00000000000E+00  0.52880530885E+02  0.52880530885E+02  0.00000000000E+00 0.  1.
          2   -1    0    0  502    0 -0.00000000000E+00 -0.00000000000E+00 -0.13408924119E+04  0.13408924119E+04  0.00000000000E+00 0. -1.
         21    1    1    2  503  501 -0.12036355862E+03  0.19004208549E+02 -0.24367833083E+02  0.12426720193E+03  0.00000000000E+00 0.  1.
          2    1    1    2  501    0  0.12036355862E+03 -0.19004208549E+02 -0.12636440480E+04  0.12695057409E+04  0.00000000000E+00 0. -1.
<mgrwt>
<rscale>  2 0.12185461E+03</rscale>
<asrwt>0</asrwt>
<pdfrwt beam="1">  1       21 0.81354667E-02 0.12185461E+03</pdfrwt>
<pdfrwt beam="2">  1        2 0.20629113E+00 0.12185461E+03</pdfrwt>
<totfact> 0.25312717E+04</totfact>
</mgrwt>
</event>
<event>
 4    1  0.5142205E+003  0.1234147E+03  0.7546771E-02  0.1237568E+00
         21   -1    0    0  501  502  0.00000000000E+00  0.00000000000E+00  0.17872642928E+03  0.17872642928E+03  0.00000000000E+00 0. -1.
         -2   -1    0    0    0  501 -0.00000000000E+00 -0.00000000000E+00 -0.92317305796E+02  0.92317305796E+02  0.00000000000E+00 0. -1.
         21    1    1    2  503  502  0.10067103826E+03  0.71389914586E+02  0.80779258117E+02  0.14750073352E+03  0.00000000000E+00 0. -1.
         -2    1    1    2    0  503 -0.10067103826E+03 -0.71389914586E+02  0.56298653668E+01  0.12354300155E+03  0.00000000000E+00 0. -1.
<mgrwt>
<rscale>  2 0.12341466E+03</rscale>
<asrwt>0</asrwt>
<pdfrwt beam="1">  1       21 0.27496374E-01 0.12341466E+03</pdfrwt>
<pdfrwt beam="2">  1       -2 0.14202662E-01 0.12341466E+03</pdfrwt>
<totfact> 0.37009941E+04</totfact>
</mgrwt>
</event>
<event>
 4    1  0.5142205E+003  0.1384715E+03  0.7546771E-02  0.1215401E+00
         21   -1    0    0  501  502  0.00000000000E+00  0.00000000000E+00  0.36963035195E+02  0.36963035195E+02  0.00000000000E+00 0.  1.
          1   -1    0    0  503    0 -0.00000000000E+00 -0.00000000000E+00 -0.12185892490E+04  0.12185892490E+04  0.00000000000E+00 0. -1.
         21    1    1    2  503  502 -0.11619558378E+03  0.75318882242E+02 -0.11506487037E+03  0.18003964037E+03  0.00000000000E+00 0.  1.
          1    1    1    2  501    0  0.11619558378E+03 -0.75318882242E+02 -0.10665613435E+04  0.10755126438E+04  0.00000000000E+00 0. -1.
<mgrwt>
<rscale>  2 0.13847147E+03</rscale>
<asrwt>0</asrwt>
<pdfrwt beam="1">  1       21 0.56866209E-02 0.13847147E+03</pdfrwt>
<pdfrwt beam="2">  1        1 0.18747526E+00 0.13847147E+03</pdfrwt>
<totfact> 0.27405382E+04</totfact>
</mgrwt>
</event>
<event>
 4    1  0.5142205E+003  0.1010549E+03  0.7546771E-02  0.1278093E+00
         21   -1    0    0  503  502  0.00000000000E+00  0.00000000000E+00  0.31828141367E+02  0.31828141367E+02  0.00000000000E+00 0. -1.
          2   -1    0    0  502    0 -0.00000000000E+00 -0.00000000000E+00 -0.39051256997E+03  0.39051256997E+03  0.00000000000E+00 0. -1.
         21    1    1    2  503  501  0.10104810662E+03  0.11742616673E+01 -0.90153210751E+02  0.13542414907E+03  0.00000000000E+00 0. -1.
          2    1    1    2  501    0 -0.10104810662E+03 -0.11742616673E+01 -0.26853121785E+03  0.28691656227E+03  0.00000000000E+00 0. -1.
<mgrwt>
<rscale>  2 0.10105493E+03</rscale>
<asrwt>0</asrwt>
<pdfrwt beam="1">  1       21 0.48966372E-02 0.10105493E+03</pdfrwt>
<pdfrwt beam="2">  1        2 0.60078856E-01 0.10105493E+03</pdfrwt>
<totfact> 0.27554554E+05</totfact>
</mgrwt>
</event>
<event>
 4    1  0.5142205E+003  0.2315423E+03  0.7546771E-02  0.1125559E+00
         21   -1    0    0  503  502  0.00000000000E+00  0.00000000000E+00  0.35423257019E+02  0.35423257019E+02  0.00000000000E+00 0. -1.
          2   -1    0    0  502    0 -0.00000000000E+00 -0.00000000000E+00 -0.24205931971E+04  0.24205931971E+04  0.00000000000E+00 0.  1.
         21    1    1    2  503  501 -0.21386644933E+02 -0.23055251033E+03 -0.44083264421E+03  0.49794102945E+03  0.00000000000E+00 0. -1.
          2    1    1    2  501    0  0.21386644933E+02  0.23055251033E+03 -0.19443372959E+04  0.19580754247E+04  0.00000000000E+00 0.  1.
<mgrwt>
<rscale>  2 0.23154233E+03</rscale>
<asrwt>0</asrwt>
<pdfrwt beam="1">  1       21 0.54497310E-02 0.23154233E+03</pdfrwt>
<pdfrwt beam="2">  1        2 0.37239901E+00 0.23154233E+03</pdfrwt>
<totfact> 0.13233604E+04</totfact>
</mgrwt>
</event>
<event>
 4    1  0.5142205E+003  0.1019465E+03  0.7546771E-02  0.1276255E+00
         -2   -1    0    0    0  501 -0.00000000000E+00  0.00000000000E+00  0.60323438344E+03  0.60323438344E+03  0.00000000000E+00 0.  1.
         21   -1    0    0  503  502  0.00000000000E+00 -0.00000000000E+00 -0.71693190758E+03  0.71693190758E+03  0.00000000000E+00 0.  1.
         21    1    1    2  503  501 -0.74437323618E+02 -0.69657578724E+02 -0.70895228223E+03  0.71624467321E+03  0.00000000000E+00 0.  1.
         -2    1    1    2    0  502  0.74437323618E+02  0.69657578724E+02  0.59525475809E+03  0.60392161780E+03  0.00000000000E+00 0.  1.
<mgrwt>
<rscale>  2 0.10194652E+03</rscale>
<asrwt>0</asrwt>
<pdfrwt beam="2">  1       21 0.11029722E+00 0.10194652E+03</pdfrwt>
<pdfrwt beam="1">  1       -2 0.92805290E-01 0.10194652E+03</pdfrwt>
<totfact> 0.58962567E+01</totfact>
</mgrwt>
</event>
<event>
 4    1  0.5142205E+003  0.1454494E+03  0.7546771E-02  0.1206179E+00
         21   -1    0    0  503  502  0.00000000000E+00  0.00000000000E+00  0.11789944351E+03  0.11789944351E+03  0.00000000000E+00 0.  1.
          1   -1    0    0  502    0 -0.00000000000E+00 -0.00000000000E+00 -0.20975841031E+03  0.20975841031E+03  0.00000000000E+00 0. -1.
         21    1    1    2  503  501 -0.10551184681E+03 -0.10011386953E+03  0.16358565654E+02  0.14636645572E+03  0.00000000000E+00 0.  1.
          1    1    1    2  501    0  0.10551184681E+03  0.10011386953E+03 -0.10821753246E+03  0.18129139809E+03  0.00000000000E+00 0. -1.
<mgrwt>
<rscale>  2 0.14544943E+03</rscale>
<asrwt>0</asrwt>
<pdfrwt beam="1">  1       21 0.18138376E-01 0.14544943E+03</pdfrwt>
<pdfrwt beam="2">  1        1 0.32270524E-01 0.14544943E+03</pdfrwt>
<totfact> 0.41422938E+04</totfact>
</mgrwt>
</event>
<event>
 4    1  0.5142205E+003  0.1365496E+03  0.7546771E-02  0.1218049E+00
         21   -1    0    0  503  502  0.00000000000E+00  0.00000000000E+00  0.87739466558E+02  0.87739466558E+02  0.00000000000E+00 0. -1.
          2   -1    0    0  502    0 -0.00000000000E+00 -0.00000000000E+00 -0.27395671292E+03  0.27395671292E+03  0.00000000000E+00 0. -1.
         21    1    1    2  503  501  0.13355391241E+03 -0.28445724415E+02 -0.74619516376E+01  0.13675338197E+03  0.00000000000E+00 0. -1.
          2    1    1    2  501    0 -0.13355391241E+03  0.28445724415E+02 -0.17875529473E+03  0.22494279751E+03  0.00000000000E+00 0. -1.
<mgrwt>
<rscale>  2 0.13654965E+03</rscale>
<asrwt>0</asrwt>
<pdfrwt beam="1">  1       21 0.13498380E-01 0.13654965E+03</pdfrwt>
<pdfrwt beam="2">  1        2 0.42147186E-01 0.13654965E+03</pdfrwt>
<totfact> 0.70631727E+04</totfact>
</mgrwt>
</event>
<event>
 4    1  0.5142205E+003  0.1504078E+03  0.7546771E-02  0.1199973E+00
          4   -1    0    0  503    0 -0.00000000000E+00  0.00000000000E+00  0.36110938704E+02  0.36110938704E+02  0.00000000000E+00 0. -1.
         21   -1    0    0  501  502  0.00000000000E+00 -0.00000000000E+00 -0.14610698742E+04  0.14610698742E+04  0.00000000000E+00 0. -1.
         21    1    1    2  503  502  0.10395322922E+03  0.10870244905E+03 -0.12782591796E+04  0.12870777080E+04  0.00000000000E+00 0. -1.
          4    1    1    2  501    0 -0.10395322922E+03 -0.10870244905E+03 -0.14669975589E+03  0.21010310486E+03  0.00000000000E+00 0. -1.
<mgrwt>
<rscale>  2 0.15040777E+03</rscale>
<asrwt>0</asrwt>
<pdfrwt beam="2">  1       21 0.22477997E+00 0.15040777E+03</pdfrwt>
<pdfrwt beam="1">  1        4 0.55555292E-02 0.15040777E+03</pdfrwt>
<totfact> 0.80759276E+02</totfact>
</mgrwt>
</event>
<event>
 4    1  0.5142205E+003  0.1768982E+03  0.7546771E-02  0.1170839E+00
         -4   -1    0    0    0  501 -0.00000000000E+00  0.00000000000E+00  0.24146753336E+03  0.24146753336E+03  0.00000000000E+00 0. -1.
         21   -1    0    0  503  502  0.00000000000E+00 -0.00000000000E+00 -0.15906963138E+03  0.15906963138E+03  0.00000000000E+00 0. -1.
         21    1    1    2  503  501 -0.43253695230E+00  0.17689765847E+03 -0.45008315723E+02  0.18253415336E+03  0.00000000000E+00 0. -1.
         -4    1    1    2    0  502  0.43253695230E+00 -0.17689765847E+03  0.12740621771E+03  0.21800301138E+03  0.00000000000E+00 0. -1.
<mgrwt>
<rscale>  2 0.17689819E+03</rscale>
<asrwt>0</asrwt>
<pdfrwt beam="2">  1       21 0.24472251E-01 0.17689819E+03</pdfrwt>
<pdfrwt beam="1">  1       -4 0.37148851E-01 0.17689819E+03</pdfrwt>
<totfact> 0.46491806E+03</totfact>
</mgrwt>
</event>
<event>
 4    1  0.5142205E+003  0.1163850E+03  0.7546771E-02  0.1249183E+00
          2   -1    0    0  502    0 -0.00000000000E+00  0.00000000000E+00  0.65021588272E+03  0.65021588272E+03  0.00000000000E+00 0. -1.
         21   -1    0    0  503  502  0.00000000000E+00 -0.00000000000E+00 -0.61115082083E+02  0.61115082083E+02  0.00000000000E+00 0. -1.
         21    1    1    2  503  501 -0.53607648095E+02 -0.10330382015E+03  0.57967240409E+01  0.11652922896E+03  0.00000000000E+00 0. -1.
          2    1    1    2  501    0  0.53607648095E+02  0.10330382015E+03  0.58330407660E+03  0.59480173585E+03  0.00000000000E+00 0. -1.
<mgrwt>
<rscale>  2 0.11638496E+03</rscale>
<asrwt>0</asrwt>
<pdfrwt beam="2">  1       21 0.94023208E-02 0.11638496E+03</pdfrwt>
<pdfrwt beam="1">  1        2 0.10003321E+00 0.11638496E+03</pdfrwt>
<totfact> 0.52248667E+04</totfact>
</mgrwt>
</event>
<event>
 4    1  0.5142205E+003  0.2201847E+03  0.7546771E-02  0.1133745E+00
         21   -1    0    0  501  502  0.00000000000E+00  0.00000000000E+00  0.30426046614E+03  0.30426046614E+03  0.00000000000E+00 0. -1.
          2   -1    0    0  503    0 -0.00000000000E+00 -0.00000000000E+00 -0.17527730409E+03  0.17527730409E+03  0.00000000000E+00 0. -1.
         21    1    1    2  503  502  0.15687260421E+03  0.15450665221E+03  0.13678802760E+03  0.25921474499E+03  0.00000000000E+00 0. -1.
          2    1    1    2  501    0 -0.15687260421E+03 -0.15450665221E+03 -0.78048655525E+01  0.22032302524E+03  0.00000000000E+00 0. -1.
<mgrwt>
<rscale>  2 0.22018474E+03</rscale>
<asrwt>0</asrwt>
<pdfrwt beam="1">  1       21 0.46809303E-01 0.22018474E+03</pdfrwt>
<pdfrwt beam="2">  1        2 0.26965739E-01 0.22018474E+03</pdfrwt>
<totfact> 0.10549876E+04</totfact>
</mgrwt>
</event>
<event>
 4    1  0.5142205E+003  0.1955376E+03  0.7546771E-02  0.1153559E+00
          1   -1    0    0  503    0 -0.00000000000E+00  0.00000000000E+00  0.14477208242E+04  0.14477208242E+04  0.00000000000E+00 0.  1.
         21   -1    0    0  501  502  0.00000000000E+00 -0.00000000000E+00 -0.49944662256E+02  0.49944662256E+02  0.00000000000E+00 0.  1.
         21    1    1    2  503  502  0.15125334172E+02 -0.19495174344E+03  0.18485612178E+03  0.26908501215E+03  0.00000000000E+00 0.  1.
          1    1    1    2  501    0 -0.15125334172E+02  0.19495174344E+03  0.12129200401E+04  0.12285804743E+04  0.00000000000E+00 0.  1.
<mgrwt>
<rscale>  2 0.19553761E+03</rscale>
<asrwt>0</asrwt>
<pdfrwt beam="2">  1       21 0.76837953E-02 0.19553761E+03</pdfrwt>
<pdfrwt beam="1">  1        1 0.22272625E+00 0.19553761E+03</pdfrwt>
<totfact> 0.11315651E+04</totfact>
</mgrwt>
</event>
<event>
 4    1  0.5142205E+003  0.1004633E+03  0.7546771E-02  0.1279325E+00
          2   -1    0    0  502    0 -0.00000000000E+00  0.00000000000E+00  0.17436767765E+03  0.17436767765E+03  0.00000000000E+00 0. -1.
         21   -1    0    0  503  502  0.00000000000E+00 -0.00000000000E+00 -0.11944310994E+03  0.11944310994E+03  0.00000000000E+00 0.  1.
         21    1    1    2  503  501  0.13391025853E+02  0.99566866610E+02 -0.78002573489E+02  0.12718994446E+03  0.00000000000E+00 0.  1.
          2    1    1    2  501    0 -0.13391025853E+02 -0.99566866610E+02  0.13292714120E+03  0.16662084313E+03  0.00000000000E+00 0. -1.
<mgrwt>
<rscale>  2 0.10046333E+03</rscale>
<asrwt>0</asrwt>
<pdfrwt beam="2">  1       21 0.18375863E-01 0.10046333E+03</pdfrwt>
<pdfrwt beam="1">  1        2 0.26825797E-01 0.10046333E+03</pdfrwt>
<totfact> 0.65108853E+04</totfact>
</mgrwt>
</event>
<event>
 4    1  0.5142205E+003  0.1043107E+03  0.7546771E-02  0.1271484E+00
         21   -1    0    0  503  502  0.00000000000E+00  0.00000000000E+00  0.21415692408E+02  0.21415692408E+02  0.00000000000E+00 0. -1.
         -1   -1    0    0    0  501 -0.00000000000E+00 -0.00000000000E+00 -0.70579768744E+03  0.70579768744E+03  0.00000000000E+00 0. -1.
         21    1    1    2  503  501 -0.62632118626E+02  0.83414273605E+02 -0.14973883223E+03  0.18248956464E+03  0.00000000000E+00 0. -1.
         -1    1    1    2    0  502  0.62632118626E+02 -0.83414273605E+02 -0.53464316280E+03  0.54472381521E+03  0.00000000000E+00 0. -1.
<mgrwt>
<rscale>  2 0.10431071E+03</rscale>
<asrwt>0</asrwt>
<pdfrwt beam="1">  1       21 0.32947222E-02 0.10431071E+03</pdfrwt>
<pdfrwt beam="2">  1       -1 0.10858425E+00 0.10431071E+03</pdfrwt>
<totfact> 0.41934435E+04</totfact>
</mgrwt>
</event>
<event>
 4    1  0.5142205E+003  0.1151633E+03  0.7546771E-02  0.1251296E+00
          2   -1    0    0  502    0 -0.00000000000E+00  0.00000000000E+00  0.84346182768E+03  0.84346182768E+03  0.00000000000E+00 0. -1.
         21   -1    0    0  503  502  0.00000000000E+00 -0.00000000000E+00 -0.66234304488E+02  0.66234304488E+02  0.00000000000E+00 0.  1.
         21    1    1    2  503  501  0.77078993076E+02  0.85565204453E+02 -0.85914603587E+01  0.11548328268E+03  0.00000000000E+00 0.  1.
          2    1    1    2  501    0 -0.77078993076E+02 -0.85565204453E+02  0.78581898355E+03  0.79421284949E+03  0.00000000000E+00 0. -1.
<mgrwt>
<rscale>  2 0.11516326E+03</rscale>
<asrwt>0</asrwt>
<pdfrwt beam="2">  1       21 0.10189894E-01 0.11516326E+03</pdfrwt>
<pdfrwt beam="1">  1        2 0.12976335E+00 0.11516326E+03</pdfrwt>
<totfact> 0.33208812E+04</totfact>
</mgrwt>
</event>
<event>
 4    1  0.5142205E+003  0.1097652E+03  0.7546771E-02  0.1261005E+00
          2   -1    0    0  503    0 -0.00000000000E+00  0.00000000000E+00  0.53406987930E+03  0.53406987930E+03  0.00000000000E+00 0.  1.
         21   -1    0    0  501  502  0.00000000000E+00 -0.00000000000E+00 -0.14076550573E+03  0.14076550573E+03  0.00000000000E+00 0. -1.
         21    1    1    2  503  502 -0.26059086300E+02 -0.10662698906E+03 -0.11254772239E+03  0.15721126101E+03  0.00000000000E+00 0. -1.
          2    1    1    2  501    0  0.26059086300E+02  0.10662698906E+03  0.50585209596E+03  0.51762412402E+03  0.00000000000E+00 0.  1.
<mgrwt>
<rscale>  2 0.10976516E+03</rscale>
<asrwt>0</asrwt>
<pdfrwt beam="2">  1       21 0.21656232E-01 0.10976516E+03</pdfrwt>
<pdfrwt beam="1">  1        2 0.82164595E-01 0.10976516E+03</pdfrwt>
<totfact> 0.14633863E+04</totfact>
</mgrwt>
</event>
<event>
 4    1  0.5142205E+003  0.1150896E+03  0.7546771E-02  0.1251425E+00
          2   -1    0    0  503    0 -0.00000000000E+00  0.00000000000E+00  0.79047715491E+03  0.79047715491E+03  0.00000000000E+00 0. -1.
         21   -1    0    0  501  502  0.00000000000E+00 -0.00000000000E+00 -0.21346760957E+03  0.21346760957E+03  0.00000000000E+00 0. -1.
         21    1    1    2  503  502  0.59391277359E+01  0.11493626933E+03 -0.19336345290E+03  0.22502231926E+03  0.00000000000E+00 0. -1.
          2    1    1    2  501    0 -0.59391277359E+01 -0.11493626933E+03  0.77037299825E+03  0.77892244522E+03  0.00000000000E+00 0. -1.
<mgrwt>
<rscale>  2 0.11508961E+03</rscale>
<asrwt>0</asrwt>
<pdfrwt beam="2">  1       21 0.32841171E-01 0.11508961E+03</pdfrwt>
<pdfrwt beam="1">  1        2 0.12161187E+00 0.11508961E+03</pdfrwt>
<totfact> 0.42116318E+03</totfact>
</mgrwt>
</event>
<event>
 4    1  0.5142205E+003  0.1032345E+03  0.7546771E-02  0.1273638E+00
         21   -1    0    0  503  502  0.00000000000E+00  0.00000000000E+00  0.46390972762E+03  0.46390972762E+03  0.00000000000E+00 0. -1.
         -2   -1    0    0    0  501 -0.00000000000E+00 -0.00000000000E+00 -0.36578831241E+02  0.36578831241E+02  0.00000000000E+00 0. -1.
         21    1    1    2  503  501 -0.16669656671E+02 -0.10187971940E+03  0.36628609232E+03  0.38055598288E+03  0.00000000000E+00 0. -1.
         -2    1    1    2    0  502  0.16669656671E+02  0.10187971940E+03  0.61044804060E+02  0.11993257598E+03  0.00000000000E+00 0. -1.
<mgrwt>
<rscale>  2 0.10323446E+03</rscale>
<asrwt>0</asrwt>
<pdfrwt beam="1">  1       21 0.71370723E-01 0.10323446E+03</pdfrwt>
<pdfrwt beam="2">  1       -2 0.56275128E-02 0.10323446E+03</pdfrwt>
<totfact> 0.22466398E+04</totfact>
</mgrwt>
</event>
<event>
 4    1  0.5142205E+003  0.1062813E+03  0.7546771E-02  0.1267615E+00
         21   -1    0    0  503  502  0.00000000000E+00  0.00000000000E+00  0.46373720986E+03  0.46373720986E+03  0.00000000000E+00 0.  1.
          1   -1    0    0  502    0 -0.00000000000E+00 -0.00000000000E+00 -0.89091371523E+03  0.89091371523E+03  0.00000000000E+00 0. -1.
         21    1    1    2  503  501 -0.10076449180E+03  0.33797067701E+02  0.45441383223E+03  0.46667724983E+03  0.00000000000E+00 0.  1.
          1    1    1    2  501    0  0.10076449180E+03 -0.33797067701E+02 -0.88159033760E+03  0.88797367525E+03  0.00000000000E+00 0. -1.
<mgrwt>
<rscale>  2 0.10628135E+03</rscale>
<asrwt>0</asrwt>
<pdfrwt beam="1">  1       21 0.71344187E-01 0.10628135E+03</pdfrwt>
<pdfrwt beam="2">  1        1 0.13706365E+00 0.10628135E+03</pdfrwt>
<totfact> 0.41763684E+02</totfact>
</mgrwt>
</event>
<event>
 4    1  0.5142205E+003  0.1036914E+03  0.7546771E-02  0.1272720E+00
         21   -1    0    0  503  502  0.00000000000E+00  0.00000000000E+00  0.15492113494E+03  0.15492113494E+03  0.00000000000E+00 0. -1.
          4   -1    0    0  502    0 -0.00000000000E+00 -0.00000000000E+00 -0.23976852477E+03  0.23976852477E+03  0.00000000000E+00 0.  1.
         21    1    1    2  503  501  0.10339669867E+03 -0.78117011086E+01  0.12392572025E+03  0.16158429413E+03  0.00000000000E+00 0. -1.
          4    1    1    2  501    0 -0.10339669867E+03  0.78117011086E+01 -0.20877311008E+03  0.23310536558E+03  0.00000000000E+00 0.  1.
<mgrwt>
<rscale>  2 0.10369137E+03</rscale>
<asrwt>0</asrwt>
<pdfrwt beam="1">  1       21 0.23834021E-01 0.10369137E+03</pdfrwt>
<pdfrwt beam="2">  1        4 0.36887465E-01 0.10369137E+03</pdfrwt>
<totfact> 0.47873321E+03</totfact>
</mgrwt>
</event>
<event>
 4    1  0.5142205E+003  0.1138984E+03  0.7546771E-02  0.1253516E+00
          2   -1    0    0  502    0 -0.00000000000E+00  0.00000000000E+00  0.32907749625E+03  0.32907749625E+03  0.00000000000E+00 0.  1.
         21   -1    0    0  503  502  0.00000000000E+00 -0.00000000000E+00 -0.13070216232E+03  0.13070216232E+03  0.00000000000E+00 0.  1.
         21    1    1    2  503  501 -0.39587017241E+02 -0.10679754527E+03 -0.92929822113E+02  0.14699931785E+03  0.00000000000E+00 0.  1.
          2    1    1    2  501    0  0.39587017241E+02  0.10679754527E+03  0.29130515604E+03  0.31278034073E+03  0.00000000000E+00 0.  1.
<mgrwt>
<rscale>  2 0.11389841E+03</rscale>
<asrwt>0</asrwt>
<pdfrwt beam="2">  1       21 0.20108025E-01 0.11389841E+03</pdfrwt>
<pdfrwt beam="1">  1        2 0.50627307E-01 0.11389841E+03</pdfrwt>
<totfact> 0.28166012E+04</totfact>
</mgrwt>
</event>
<event>
 4    1  0.5142205E+003  0.1038988E+03  0.7546771E-02  0.1272305E+00
         21   -1    0    0  501  502  0.00000000000E+00  0.00000000000E+00  0.13406503500E+02  0.13406503500E+02  0.00000000000E+00 0. -1.
          1   -1    0    0  503    0 -0.00000000000E+00 -0.00000000000E+00 -0.23931703273E+04  0.23931703273E+04  0.00000000000E+00 0. -1.
         21    1    1    2  503  502  0.74326072568E+02  0.72598850163E+02 -0.20970673632E+03  0.23403391499E+03  0.00000000000E+00 0. -1.
          1    1    1    2  501    0 -0.74326072568E+02 -0.72598850163E+02 -0.21700570875E+04  0.21725429158E+04  0.00000000000E+00 0. -1.
<mgrwt>
<rscale>  2 0.10389879E+03</rscale>
<asrwt>0</asrwt>
<pdfrwt beam="1">  1       21 0.20625404E-02 0.10389879E+03</pdfrwt>
<pdfrwt beam="2">  1        1 0.36817981E+00 0.10389879E+03</pdfrwt>
<totfact> 0.25927008E+04</totfact>
</mgrwt>
</event>
<event>
 4    1  0.5142205E+003  0.1048009E+03  0.7546771E-02  0.1270512E+00
          1   -1    0    0  502    0 -0.00000000000E+00  0.00000000000E+00  0.90774718260E+03  0.90774718260E+03  0.00000000000E+00 0. -1.
         21   -1    0    0  503  502  0.00000000000E+00 -0.00000000000E+00 -0.24637808677E+02  0.24637808677E+02  0.00000000000E+00 0. -1.
         21    1    1    2  503  501 -0.81885402287E+01 -0.10448051890E+03  0.10898337281E+03  0.15119724392E+03  0.00000000000E+00 0. -1.
          1    1    1    2  501    0  0.81885402287E+01  0.10448051890E+03  0.77412600112E+03  0.78118774736E+03  0.00000000000E+00 0. -1.
<mgrwt>
<rscale>  2 0.10480091E+03</rscale>
<asrwt>0</asrwt>
<pdfrwt beam="2">  1       21 0.37904328E-02 0.10480091E+03</pdfrwt>
<pdfrwt beam="1">  1        1 0.13965339E+00 0.10480091E+03</pdfrwt>
<totfact> 0.90016870E+04</totfact>
</mgrwt>
</event>
<event>
 4    1  0.5142205E+003  0.1070340E+03  0.7546771E-02  0.1266163E+00
         21   -1    0    0  501  502  0.00000000000E+00  0.00000000000E+00  0.26901547496E+02  0.26901547496E+02  0.00000000000E+00 0.  1.
          1   -1    0    0  503    0 -0.00000000000E+00 -0.00000000000E+00 -0.46026826949E+03  0.46026826949E+03  0.00000000000E+00 0. -1.
         21    1    1    2  503  502  0.20806673459E+02 -0.10499216665E+03 -0.28328440501E+03  0.30283052495E+03  0.00000000000E+00 0.  1.
          1    1    1    2  501    0 -0.20806673459E+02  0.10499216665E+03 -0.15008231698E+03  0.18433929204E+03  0.00000000000E+00 0. -1.
<mgrwt>
<rscale>  2 0.10703398E+03</rscale>
<asrwt>0</asrwt>
<pdfrwt beam="1">  1       21 0.41386995E-02 0.10703398E+03</pdfrwt>
<pdfrwt beam="2">  1        1 0.70810505E-01 0.10703398E+03</pdfrwt>
<totfact> 0.20089248E+05</totfact>
</mgrwt>
</event>
<event>
 4    1  0.5142205E+003  0.1100271E+03  0.7546771E-02  0.1260520E+00
          2   -1    0    0  502    0 -0.00000000000E+00  0.00000000000E+00  0.11641099204E+04  0.11641099204E+04  0.00000000000E+00 0.  1.
         21   -1    0    0  503  502  0.00000000000E+00 -0.00000000000E+00 -0.13537088161E+02  0.13537088161E+02  0.00000000000E+00 0.  1.
         21    1    1    2  503  501 -0.41214584964E+02 -0.10201622428E+03  0.29179957285E+03  0.31185404077E+03  0.00000000000E+00 0.  1.
          2    1    1    2  501    0  0.41214584964E+02  0.10201622428E+03  0.85877325935E+03  0.86579296775E+03  0.00000000000E+00 0.  1.
<mgrwt>
<rscale>  2 0.11002705E+03</rscale>
<asrwt>0</asrwt>
<pdfrwt beam="2">  1       21 0.20826299E-02 0.11002705E+03</pdfrwt>
<pdfrwt beam="1">  1        2 0.17909376E+00 0.11002705E+03</pdfrwt>
<totfact> 0.30361627E+05</totfact>
</mgrwt>
</event>
<event>
 4    1  0.5142205E+003  0.1095334E+03  0.7546771E-02  0.1261436E+00
          1   -1    0    0  503    0 -0.00000000000E+00  0.00000000000E+00  0.61592517901E+02  0.61592517901E+02  0.00000000000E+00 0. -1.
         21   -1    0    0  501  502  0.00000000000E+00 -0.00000000000E+00 -0.27213457787E+03  0.27213457787E+03  0.00000000000E+00 0. -1.
         21    1    1    2  503  502 -0.62187498742E+02  0.90168120528E+02 -0.19422923003E+03  0.22298557971E+03  0.00000000000E+00 0. -1.
          1    1    1    2  501    0  0.62187498742E+02 -0.90168120528E+02 -0.16312829939E+02  0.11074151606E+03  0.00000000000E+00 0. -1.
<mgrwt>
<rscale>  2 0.10953344E+03</rscale>
<asrwt>0</asrwt>
<pdfrwt beam="2">  1       21 0.41866858E-01 0.10953344E+03</pdfrwt>
<pdfrwt beam="1">  1        1 0.94757720E-02 0.10953344E+03</pdfrwt>
<totfact> 0.39963339E+04</totfact>
</mgrwt>
</event>
<event>
 4    1  0.5142205E+003  0.1194072E+03  0.7546771E-02  0.1244078E+00
         21   -1    0    0  503  502  0.00000000000E+00  0.00000000000E+00  0.31025262173E+03  0.31025262173E+03  0.00000000000E+00 0. -1.
         -1   -1    0    0    0  501 -0.00000000000E+00 -0.00000000000E+00 -0.46849088240E+02  0.46849088240E+02  0.00000000000E+00 0. -1.
         21    1    1    2  503  501  0.24449751386E+02 -0.11687728564E+03  0.15634875683E+03  0.19673084152E+03  0.00000000000E+00 0. -1.
         -1    1    1    2    0  502 -0.24449751386E+02  0.11687728564E+03  0.10705477665E+03  0.16037086845E+03  0.00000000000E+00 0. -1.
<mgrwt>
<rscale>  2 0.11940725E+03</rscale>
<asrwt>0</asrwt>
<pdfrwt beam="1">  1       21 0.47731171E-01 0.11940725E+03</pdfrwt>
<pdfrwt beam="2">  1       -1 0.72075522E-02 0.11940725E+03</pdfrwt>
<totfact> 0.37353087E+04</totfact>
</mgrwt>
</event>
<event>
 4    1  0.5142205E+003  0.1287410E+03  0.7546771E-02  0.1229336E+00
          2   -1    0    0  503    0 -0.00000000000E+00  0.00000000000E+00  0.22936516992E+04  0.22936516992E+04  0.00000000000E+00 0. -1.
         21   -1    0    0  501  502  0.00000000000E+00 -0.00000000000E+00 -0.89092476889E+01  0.89092476889E+01  0.00000000000E+00 0.  1.
         21    1    1    2  503  502  0.64130373852E+02 -0.11163125648E+03  0.64197167334E+03  0.65475329067E+03  0.00000000000E+00 0.  1.
          2    1    1    2  501    0 -0.64130373852E+02  0.11163125648E+03  0.16427707782E+04  0.16478076563E+04  0.00000000000E+00 0. -1.
<mgrwt>
<rscale>  2 0.12874099E+03</rscale>
<asrwt>0</asrwt>
<pdfrwt beam="2">  1       21 0.13706553E-02 0.12874099E+03</pdfrwt>
<pdfrwt beam="1">  1        2 0.35286902E+00 0.12874099E+03</pdfrwt>
<totfact> 0.15453248E+05</totfact>
</mgrwt>
</event>
<event>
 4    1  0.5142205E+003  0.1485362E+03  0.7546771E-02  0.1202283E+00
         21   -1    0    0  501  502  0.00000000000E+00  0.00000000000E+00  0.25871381604E+03  0.25871381604E+03  0.00000000000E+00 0.  1.
          2   -1    0    0  503    0 -0.00000000000E+00 -0.00000000000E+00 -0.15413686748E+03  0.15413686748E+03  0.00000000000E+00 0.  1.
         21    1    1    2  503  502 -0.14640269337E+03  0.25085162448E+02  0.19025845400E+03  0.24137376270E+03  0.00000000000E+00 0.  1.
          2    1    1    2  501    0  0.14640269337E+03 -0.25085162448E+02 -0.85681505435E+02  0.17147692082E+03  0.00000000000E+00 0.  1.
<mgrwt>
<rscale>  2 0.14853624E+03</rscale>
<asrwt>0</asrwt>
<pdfrwt beam="1">  1       21 0.39802126E-01 0.14853624E+03</pdfrwt>
<pdfrwt beam="2">  1        2 0.23713364E-01 0.14853624E+03</pdfrwt>
<totfact> 0.17132282E+04</totfact>
</mgrwt>
</event>
<event>
 4    1  0.5142205E+003  0.1469040E+03  0.7546771E-02  0.1204330E+00
         -2   -1    0    0    0  501 -0.00000000000E+00  0.00000000000E+00  0.65857226611E+03  0.65857226611E+03  0.00000000000E+00 0.  1.
         21   -1    0    0  501  502  0.00000000000E+00 -0.00000000000E+00 -0.31177658500E+03  0.31177658500E+03  0.00000000000E+00 0. -1.
         21    1    1    2  503  502  0.13508082938E+03  0.57740427957E+02 -0.28557196840E+03  0.32114192598E+03  0.00000000000E+00 0. -1.
         -2    1    1    2    0  503 -0.13508082938E+03 -0.57740427957E+02  0.63236764952E+03  0.64920692513E+03  0.00000000000E+00 0.  1.
<mgrwt>
<rscale>  2 0.14690401E+03</rscale>
<asrwt>0</asrwt>
<pdfrwt beam="2">  1       21 0.47965628E-01 0.14690401E+03</pdfrwt>
<pdfrwt beam="1">  1       -2 0.10131881E+00 0.14690401E+03</pdfrwt>
<totfact> 0.29032939E+02</totfact>
</mgrwt>
</event>
<event>
 4    1  0.5142205E+003  0.1118255E+03  0.7546771E-02  0.1257226E+00
          1   -1    0    0  503    0 -0.00000000000E+00  0.00000000000E+00  0.87017715681E+03  0.87017715681E+03  0.00000000000E+00 0.  1.
         21   -1    0    0  501  502  0.00000000000E+00 -0.00000000000E+00 -0.53470435607E+02  0.53470435607E+02  0.00000000000E+00 0.  1.
         21    1    1    2  503  502  0.10683631528E+03  0.33029567879E+02  0.13435276433E+02  0.11262973528E+03  0.00000000000E+00 0.  1.
          1    1    1    2  501    0 -0.10683631528E+03 -0.33029567879E+02  0.80327144477E+03  0.81101785714E+03  0.00000000000E+00 0.  1.
<mgrwt>
<rscale>  2 0.11182554E+03</rscale>
<asrwt>0</asrwt>
<pdfrwt beam="2">  1       21 0.82262215E-02 0.11182554E+03</pdfrwt>
<pdfrwt beam="1">  1        1 0.13387340E+00 0.11182554E+03</pdfrwt>
<totfact> 0.26117077E+04</totfact>
</mgrwt>
</event>
<event>
 4    1  0.5142205E+003  0.1027496E+03  0.7546771E-02  0.1274618E+00
         21   -1    0    0  503  502  0.00000000000E+00  0.00000000000E+00  0.11210576517E+03  0.11210576517E+03  0.00000000000E+00 0. -1.
          4   -1    0    0  502    0 -0.00000000000E+00 -0.00000000000E+00 -0.20184363648E+03  0.20184363648E+03  0.00000000000E+00 0. -1.
         21    1    1    2  503  501  0.62182791299E+02  0.81797163826E+02  0.69779535252E+02  0.12420410252E+03  0.00000000000E+00 0. -1.
          4    1    1    2  501    0 -0.62182791299E+02 -0.81797163826E+02 -0.15951740656E+03  0.18974529912E+03  0.00000000000E+00 0. -1.
<mgrwt>
<rscale>  2 0.10274958E+03</rscale>
<asrwt>0</asrwt>
<pdfrwt beam="1">  1       21 0.17247041E-01 0.10274958E+03</pdfrwt>
<pdfrwt beam="2">  1        4 0.31052867E-01 0.10274958E+03</pdfrwt>
<totfact> 0.12052246E+04</totfact>
</mgrwt>
</event>
<event>
 4    1  0.5142205E+003  0.1239992E+03  0.7546771E-02  0.1236642E+00
          2   -1    0    0  503    0 -0.00000000000E+00  0.00000000000E+00  0.12612253243E+04  0.12612253243E+04  0.00000000000E+00 0.  1.
         21   -1    0    0  501  502  0.00000000000E+00 -0.00000000000E+00 -0.10432971829E+03  0.10432971829E+03  0.00000000000E+00 0. -1.
         21    1    1    2  503  502  0.10889665582E+03  0.59307068551E+02 -0.63198777686E+02  0.13917577207E+03  0.00000000000E+00 0. -1.
          2    1    1    2  501    0 -0.10889665582E+03 -0.59307068551E+02  0.12200943837E+04  0.12263792705E+04  0.00000000000E+00 0.  1.
<mgrwt>
<rscale>  2 0.12399923E+03</rscale>
<asrwt>0</asrwt>
<pdfrwt beam="2">  1       21 0.16050727E-01 0.12399923E+03</pdfrwt>
<pdfrwt beam="1">  1        2 0.19403465E+00 0.12399923E+03</pdfrwt>
<totfact> 0.84138237E+03</totfact>
</mgrwt>
</event>
<event>
 4    1  0.5142205E+003  0.1270136E+03  0.7546771E-02  0.1231956E+00
         21   -1    0    0  501  502  0.00000000000E+00  0.00000000000E+00  0.10863405482E+03  0.10863405482E+03  0.00000000000E+00 0. -1.
          3   -1    0    0  503    0 -0.00000000000E+00 -0.00000000000E+00 -0.41866308968E+03  0.41866308968E+03  0.00000000000E+00 0. -1.
         21    1    1    2  503  502 -0.11190275517E+03  0.60085183311E+02  0.56774718560E+02  0.13912521172E+03  0.00000000000E+00 0. -1.
          3    1    1    2  501    0  0.11190275517E+03 -0.60085183311E+02 -0.36680375343E+03  0.38817193278E+03  0.00000000000E+00 0. -1.
<mgrwt>
<rscale>  2 0.12701361E+03</rscale>
<asrwt>0</asrwt>
<pdfrwt beam="1">  1       21 0.16712932E-01 0.12701361E+03</pdfrwt>
<pdfrwt beam="2">  1        3 0.64409705E-01 0.12701361E+03</pdfrwt>
<totfact> 0.37314840E+03</totfact>
</mgrwt>
</event>
<event>
 4    1  0.5142205E+003  0.1299470E+03  0.7546771E-02  0.1227534E+00
         -1   -1    0    0    0  501 -0.00000000000E+00  0.00000000000E+00  0.79776347442E+03  0.79776347442E+03  0.00000000000E+00 0.  1.
         21   -1    0    0  503  502  0.00000000000E+00 -0.00000000000E+00 -0.41038204178E+02  0.41038204178E+02  0.00000000000E+00 0. -1.
         21    1    1    2  503  501 -0.85739303668E+02 -0.97647301157E+02  0.86520694051E+02  0.15611551529E+03  0.00000000000E+00 0. -1.
         -1    1    1    2    0  502  0.85739303668E+02  0.97647301157E+02  0.67020457619E+03  0.68268616330E+03  0.00000000000E+00 0.  1.
<mgrwt>
<rscale>  2 0.12994700E+03</rscale>
<asrwt>0</asrwt>
<pdfrwt beam="2">  1       21 0.63135705E-02 0.12994700E+03</pdfrwt>
<pdfrwt beam="1">  1       -1 0.12273283E+00 0.12994700E+03</pdfrwt>
<totfact> 0.10718805E+04</totfact>
</mgrwt>
</event>
<event>
 4    1  0.5142205E+003  0.1804870E+03  0.7546771E-02  0.1167333E+00
         21   -1    0    0  503  502  0.00000000000E+00  0.00000000000E+00  0.96220665445E+02  0.96220665445E+02  0.00000000000E+00 0.  1.
          2   -1    0    0  502    0 -0.00000000000E+00 -0.00000000000E+00 -0.55908256674E+03  0.55908256674E+03  0.00000000000E+00 0.  1.
         21    1    1    2  503  501 -0.17955855304E+03 -0.18283304770E+02 -0.25647604310E+02  0.18230017227E+03  0.00000000000E+00 0.  1.
          2    1    1    2  501    0  0.17955855304E+03  0.18283304770E+02 -0.43721429698E+03  0.47300305992E+03  0.00000000000E+00 0.  1.
<mgrwt>
<rscale>  2 0.18048699E+03</rscale>
<asrwt>0</asrwt>
<pdfrwt beam="1">  1       21 0.14803179E-01 0.18048699E+03</pdfrwt>
<pdfrwt beam="2">  1        2 0.86012703E-01 0.18048699E+03</pdfrwt>
<totfact> 0.27667751E+04</totfact>
</mgrwt>
</event>
<event>
 4    1  0.5142205E+003  0.1182643E+03  0.7546771E-02  0.1245988E+00
         21   -1    0    0  501  502  0.00000000000E+00  0.00000000000E+00  0.12304349909E+03  0.12304349909E+03  0.00000000000E+00 0. -1.
          1   -1    0    0  503    0 -0.00000000000E+00 -0.00000000000E+00 -0.24298709017E+03  0.24298709017E+03  0.00000000000E+00 0.  1.
         21    1    1    2  503  502  0.93989280808E+02 -0.71780653290E+02  0.73540875375E+02  0.13926488231E+03  0.00000000000E+00 0. -1.
          1    1    1    2  501    0 -0.93989280808E+02  0.71780653290E+02 -0.19348446645E+03  0.22676570696E+03  0.00000000000E+00 0.  1.
<mgrwt>
<rscale>  2 0.11826431E+03</rscale>
<asrwt>0</asrwt>
<pdfrwt beam="1">  1       21 0.18929769E-01 0.11826431E+03</pdfrwt>
<pdfrwt beam="2">  1        1 0.37382629E-01 0.11826431E+03</pdfrwt>
<totfact> 0.31865586E+04</totfact>
</mgrwt>
</event>
<event>
 4    1  0.5142205E+003  0.2537499E+03  0.7546771E-02  0.1110958E+00
         21   -1    0    0  503  502  0.00000000000E+00  0.00000000000E+00  0.29848231525E+03  0.29848231525E+03  0.00000000000E+00 0. -1.
          4   -1    0    0  502    0 -0.00000000000E+00 -0.00000000000E+00 -0.50249388626E+03  0.50249388626E+03  0.00000000000E+00 0. -1.
         21    1    1    2  503  501  0.21173365724E+03 -0.13984939254E+03  0.20054134587E+03  0.32342823873E+03  0.00000000000E+00 0. -1.
          4    1    1    2  501    0 -0.21173365724E+03  0.13984939254E+03 -0.40455291688E+03  0.47754796279E+03  0.00000000000E+00 0. -1.
<mgrwt>
<rscale>  2 0.25374987E+03</rscale>
<asrwt>0</asrwt>
<pdfrwt beam="1">  1       21 0.45920356E-01 0.25374987E+03</pdfrwt>
<pdfrwt beam="2">  1        4 0.77306752E-01 0.25374987E+03</pdfrwt>
<totfact> 0.29091064E+02</totfact>
</mgrwt>
</event>
<event>
 4    1  0.5142205E+003  0.1136998E+03  0.7546771E-02  0.1253868E+00
         21   -1    0    0  501  502  0.00000000000E+00  0.00000000000E+00  0.22023562708E+02  0.22023562708E+02  0.00000000000E+00 0.  1.
          2   -1    0    0  503    0 -0.00000000000E+00 -0.00000000000E+00 -0.72229516197E+03  0.72229516197E+03  0.00000000000E+00 0.  1.
         21    1    1    2  503  502 -0.11365517148E+03 -0.31856702336E+01 -0.18906152019E+03  0.22061710023E+03  0.00000000000E+00 0.  1.
          2    1    1    2  501    0  0.11365517148E+03  0.31856702336E+01 -0.51121007907E+03  0.52370162444E+03  0.00000000000E+00 0.  1.
<mgrwt>
<rscale>  2 0.11369981E+03</rscale>
<asrwt>0</asrwt>
<pdfrwt beam="1">  1       21 0.33882406E-02 0.11369981E+03</pdfrwt>
<pdfrwt beam="2">  1        2 0.11112233E+00 0.11369981E+03</pdfrwt>
<totfact> 0.25829515E+05</totfact>
</mgrwt>
</event>
<event>
 4    1  0.5142205E+003  0.1382172E+03  0.7546771E-02  0.1215748E+00
         21   -1    0    0  501  502  0.00000000000E+00  0.00000000000E+00  0.96331425672E+02  0.96331425672E+02  0.00000000000E+00 0. -1.
          1   -1    0    0  503    0 -0.00000000000E+00 -0.00000000000E+00 -0.79023960578E+03  0.79023960578E+03  0.00000000000E+00 0. -1.
         21    1    1    2  503  502 -0.11268984455E+03 -0.80031276855E+02  0.36697666284E+02  0.14300603152E+03  0.00000000000E+00 0. -1.
          1    1    1    2  501    0  0.11268984455E+03  0.80031276855E+02 -0.73060584639E+03  0.74356499993E+03  0.00000000000E+00 0. -1.
<mgrwt>
<rscale>  2 0.13821724E+03</rscale>
<asrwt>0</asrwt>
<pdfrwt beam="1">  1       21 0.14820219E-01 0.13821724E+03</pdfrwt>
<pdfrwt beam="2">  1        1 0.12157532E+00 0.13821724E+03</pdfrwt>
<totfact> 0.10673402E+04</totfact>
</mgrwt>
</event>
<event>
 4    1  0.5142205E+003  0.1643174E+03  0.7546771E-02  0.1183907E+00
          1   -1    0    0  503    0 -0.00000000000E+00  0.00000000000E+00  0.78843364259E+03  0.78843364259E+03  0.00000000000E+00 0.  1.
         21   -1    0    0  501  502  0.00000000000E+00 -0.00000000000E+00 -0.18758087468E+03  0.18758087468E+03  0.00000000000E+00 0.  1.
         21    1    1    2  503  502  0.15926069714E+03 -0.40450319888E+02 -0.14079177049E+03  0.21638512119E+03  0.00000000000E+00 0.  1.
          1    1    1    2  501    0 -0.15926069714E+03  0.40450319888E+02  0.74164453840E+03  0.75962939607E+03  0.00000000000E+00 0.  1.
<mgrwt>
<rscale>  2 0.16431737E+03</rscale>
<asrwt>0</asrwt>
<pdfrwt beam="2">  1       21 0.28858596E-01 0.16431737E+03</pdfrwt>
<pdfrwt beam="1">  1        1 0.12129748E+00 0.16431737E+03</pdfrwt>
<totfact> 0.30631398E+03</totfact>
</mgrwt>
</event>
<event>
 4    1  0.5142205E+003  0.1428462E+03  0.7546771E-02  0.1209550E+00
         21   -1    0    0  501  502  0.00000000000E+00  0.00000000000E+00  0.29773689461E+02  0.29773689461E+02  0.00000000000E+00 0.  1.
          2   -1    0    0  503    0 -0.00000000000E+00 -0.00000000000E+00 -0.15217935626E+04  0.15217935626E+04  0.00000000000E+00 0. -1.
         21    1    1    2  503  502 -0.13304657284E+03  0.51996610860E+02 -0.17085586564E+03  0.22270331140E+03  0.00000000000E+00 0.  1.
          2    1    1    2  501    0  0.13304657284E+03 -0.51996610860E+02 -0.13211640075E+04  0.13288639406E+04  0.00000000000E+00 0. -1.
<mgrwt>
<rscale>  2 0.14284620E+03</rscale>
<asrwt>0</asrwt>
<pdfrwt beam="1">  1       21 0.45805668E-02 0.14284620E+03</pdfrwt>
<pdfrwt beam="2">  1        2 0.23412213E+00 0.14284620E+03</pdfrwt>
<totfact> 0.53741092E+04</totfact>
</mgrwt>
</event>
<event>
 4    1  0.5142205E+003  0.1085724E+03  0.7546771E-02  0.1263237E+00
          3   -1    0    0  503    0 -0.00000000000E+00  0.00000000000E+00  0.40275145859E+03  0.40275145859E+03  0.00000000000E+00 0. -1.
         21   -1    0    0  501  502  0.00000000000E+00 -0.00000000000E+00 -0.76857313552E+03  0.76857313552E+03  0.00000000000E+00 0. -1.
         21    1    1    2  503  502  0.99016747538E+02  0.44538211629E+02 -0.75731338115E+03  0.76505655075E+03  0.00000000000E+00 0. -1.
          3    1    1    2  501    0 -0.99016747538E+02 -0.44538211629E+02  0.39149170421E+03  0.40626804336E+03  0.00000000000E+00 0. -1.
<mgrwt>
<rscale>  2 0.10857241E+03</rscale>
<asrwt>0</asrwt>
<pdfrwt beam="2">  1       21 0.11824202E+00 0.10857241E+03</pdfrwt>
<pdfrwt beam="1">  1        3 0.61961764E-01 0.10857241E+03</pdfrwt>
<totfact> 0.72926969E+01</totfact>
</mgrwt>
</event>
<event>
 4    1  0.5142205E+003  0.2188056E+03  0.7546771E-02  0.1134777E+00
          2   -1    0    0  502    0 -0.00000000000E+00  0.00000000000E+00  0.72680419488E+03  0.72680419488E+03  0.00000000000E+00 0.  1.
         21   -1    0    0  503  502  0.00000000000E+00 -0.00000000000E+00 -0.10315622987E+03  0.10315622987E+03  0.00000000000E+00 0.  1.
         21    1    1    2  503  501  0.13389392536E+03 -0.17305578401E+03  0.62339513522E+02  0.22751286244E+03  0.00000000000E+00 0.  1.
          2    1    1    2  501    0 -0.13389392536E+03  0.17305578401E+03  0.56130845149E+03  0.60244756232E+03  0.00000000000E+00 0.  1.
<mgrwt>
<rscale>  2 0.21880559E+03</rscale>
<asrwt>0</asrwt>
<pdfrwt beam="2">  1       21 0.15870190E-01 0.21880559E+03</pdfrwt>
<pdfrwt beam="1">  1        2 0.11181603E+00 0.21880559E+03</pdfrwt>
<totfact> 0.17792613E+04</totfact>
</mgrwt>
</event>
<event>
 4    1  0.5142205E+003  0.1258620E+03  0.7546771E-02  0.1233728E+00
         21   -1    0    0  501  502  0.00000000000E+00  0.00000000000E+00  0.38068166883E+03  0.38068166883E+03  0.00000000000E+00 0. -1.
         -2   -1    0    0    0  501 -0.00000000000E+00 -0.00000000000E+00 -0.21748688084E+03  0.21748688084E+03  0.00000000000E+00 0. -1.
         21    1    1    2  503  502 -0.39970355856E+02  0.11934660415E+03  0.35055134672E+03  0.37246139123E+03  0.00000000000E+00 0. -1.
         -2    1    1    2    0  503  0.39970355856E+02 -0.11934660415E+03 -0.18735655873E+03  0.22570715844E+03  0.00000000000E+00 0. -1.
<mgrwt>
<rscale>  2 0.12586199E+03</rscale>
<asrwt>0</asrwt>
<pdfrwt beam="1">  1       21 0.58566411E-01 0.12586199E+03</pdfrwt>
<pdfrwt beam="2">  1       -2 0.33459520E-01 0.12586199E+03</pdfrwt>
<totfact> 0.18749120E+03</totfact>
</mgrwt>
</event>
<event>
 4    1  0.5142205E+003  0.1091771E+03  0.7546771E-02  0.1262101E+00
          2   -1    0    0  502    0 -0.00000000000E+00  0.00000000000E+00  0.48867248692E+03  0.48867248692E+03  0.00000000000E+00 0. -1.
         21   -1    0    0  503  502  0.00000000000E+00 -0.00000000000E+00 -0.25929882122E+03  0.25929882122E+03  0.00000000000E+00 0. -1.
         21    1    1    2  503  501  0.44242376226E+01  0.10908742587E+03 -0.24127431408E+03  0.26482623548E+03  0.00000000000E+00 0. -1.
          2    1    1    2  501    0 -0.44242376226E+01 -0.10908742587E+03  0.47064797978E+03  0.48314507266E+03  0.00000000000E+00 0. -1.
<mgrwt>
<rscale>  2 0.10917711E+03</rscale>
<asrwt>0</asrwt>
<pdfrwt beam="2">  1       21 0.39892127E-01 0.10917711E+03</pdfrwt>
<pdfrwt beam="1">  1        2 0.75180382E-01 0.10917711E+03</pdfrwt>
<totfact> 0.49992362E+03</totfact>
</mgrwt>
</event>
<event>
 4    1  0.5142205E+003  0.1086381E+03  0.7546771E-02  0.1263113E+00
         21   -1    0    0  503  502  0.00000000000E+00  0.00000000000E+00  0.20335310034E+02  0.20335310034E+02  0.00000000000E+00 0. -1.
          1   -1    0    0  502    0 -0.00000000000E+00 -0.00000000000E+00 -0.20331882839E+04  0.20331882839E+04  0.00000000000E+00 0.  1.
         21    1    1    2  503  501 -0.10682986393E+03 -0.19738472782E+02 -0.13849606796E+03  0.17602098732E+03  0.00000000000E+00 0. -1.
          1    1    1    2  501    0  0.10682986393E+03  0.19738472782E+02 -0.18743569059E+04  0.18775026066E+04  0.00000000000E+00 0.  1.
<mgrwt>
<rscale>  2 0.10863806E+03</rscale>
<asrwt>0</asrwt>
<pdfrwt beam="1">  1       21 0.31285086E-02 0.10863806E+03</pdfrwt>
<pdfrwt beam="2">  1        1 0.31279826E+00 0.10863806E+03</pdfrwt>
<totfact> 0.22300505E+04</totfact>
</mgrwt>
</event>
<event>
 4    1  0.5142205E+003  0.1036621E+03  0.7546771E-02  0.1272778E+00
         21   -1    0    0  501  502  0.00000000000E+00  0.00000000000E+00  0.75825217260E+03  0.75825217260E+03  0.00000000000E+00 0.  1.
          4   -1    0    0  503    0 -0.00000000000E+00 -0.00000000000E+00 -0.23635854177E+03  0.23635854177E+03  0.00000000000E+00 0. -1.
         21    1    1    2  503  502  0.48421719213E+02 -0.91657879044E+02  0.74311274152E+03  0.75030818754E+03  0.00000000000E+00 0.  1.
          4    1    1    2  501    0 -0.48421719213E+02  0.91657879044E+02 -0.22121911069E+03  0.24430252683E+03  0.00000000000E+00 0. -1.
<mgrwt>
<rscale>  2 0.10366209E+03</rscale>
<asrwt>0</asrwt>
<pdfrwt beam="1">  1       21 0.11665418E+00 0.10366209E+03</pdfrwt>
<pdfrwt beam="2">  1        4 0.36362853E-01 0.10366209E+03</pdfrwt>
<totfact> 0.17819328E+02</totfact>
</mgrwt>
</event>
<event>
 4    1  0.5142205E+003  0.1191910E+03  0.7546771E-02  0.1244438E+00
         21   -1    0    0  501  502  0.00000000000E+00  0.00000000000E+00  0.15649521230E+02  0.15649521230E+02  0.00000000000E+00 0.  1.
         -3   -1    0    0    0  501 -0.00000000000E+00 -0.00000000000E+00 -0.10678338561E+04  0.10678338561E+04  0.00000000000E+00 0.  1.
         21    1    1    2  503  502 -0.36805026961E+02  0.11336616232E+03 -0.31636322535E+03  0.33807127521E+03  0.00000000000E+00 0.  1.
         -3    1    1    2    0  503  0.36805026961E+02 -0.11336616232E+03 -0.73582110956E+03  0.74541210216E+03  0.00000000000E+00 0.  1.
<mgrwt>
<rscale>  2 0.11919101E+03</rscale>
<asrwt>0</asrwt>
<pdfrwt beam="1">  1       21 0.24076184E-02 0.11919101E+03</pdfrwt>
<pdfrwt beam="2">  1       -3 0.16428215E+00 0.11919101E+03</pdfrwt>
<totfact> 0.11878842E+04</totfact>
</mgrwt>
</event>
<event>
 4    1  0.5142205E+003  0.1051852E+03  0.7546771E-02  0.1269755E+00
         21   -1    0    0  503  502  0.00000000000E+00  0.00000000000E+00  0.83673151953E+02  0.83673151953E+02  0.00000000000E+00 0. -1.
          1   -1    0    0  502    0 -0.00000000000E+00 -0.00000000000E+00 -0.13821416614E+03  0.13821416614E+03  0.00000000000E+00 0. -1.
         21    1    1    2  503  501  0.22129498241E+02  0.10283101906E+03 -0.41817397954E+01  0.10526832440E+03  0.00000000000E+00 0. -1.
          1    1    1    2  501    0 -0.22129498241E+02 -0.10283101906E+03 -0.50359274389E+02  0.11661899370E+03  0.00000000000E+00 0. -1.
<mgrwt>
<rscale>  2 0.10518523E+03</rscale>
<asrwt>0</asrwt>
<pdfrwt beam="1">  1       21 0.12872793E-01 0.10518523E+03</pdfrwt>
<pdfrwt beam="2">  1        1 0.21263718E-01 0.10518523E+03</pdfrwt>
<totfact> 0.12817022E+05</totfact>
</mgrwt>
</event>
<event>
 4    1  0.5142205E+003  0.1957554E+03  0.7546771E-02  0.1153370E+00
          1   -1    0    0  502    0 -0.00000000000E+00  0.00000000000E+00  0.21760239190E+04  0.21760239190E+04  0.00000000000E+00 0.  1.
         21   -1    0    0  503  502  0.00000000000E+00 -0.00000000000E+00 -0.34950802654E+02  0.34950802654E+02  0.00000000000E+00 0. -1.
         21    1    1    2  503  501 -0.16724199204E+02  0.19503966020E+03  0.29185914519E+03  0.35142841166E+03  0.00000000000E+00 0. -1.
          1    1    1    2  501    0  0.16724199204E+02 -0.19503966020E+03  0.18492139712E+04  0.18595463100E+04  0.00000000000E+00 0.  1.
<mgrwt>
<rscale>  2 0.19575538E+03</rscale>
<asrwt>0</asrwt>
<pdfrwt beam="2">  1       21 0.53770483E-02 0.19575538E+03</pdfrwt>
<pdfrwt beam="1">  1        1 0.33477280E+00 0.19575538E+03</pdfrwt>
<totfact> 0.70621491E+03</totfact>
</mgrwt>
</event>
<event>
 4    1  0.5142205E+003  0.1112576E+03  0.7546771E-02  0.1258259E+00
         21   -1    0    0  503  502  0.00000000000E+00  0.00000000000E+00  0.84252969998E+01  0.84252969998E+01  0.00000000000E+00 0. -1.
          2   -1    0    0  502    0 -0.00000000000E+00 -0.00000000000E+00 -0.19747088075E+04  0.19747088075E+04  0.00000000000E+00 0.  1.
         21    1    1    2  503  501 -0.81991450153E+02  0.75204146451E+02 -0.48144147722E+03  0.49412969707E+03  0.00000000000E+00 0. -1.
          2    1    1    2  501    0  0.81991450153E+02 -0.75204146451E+02 -0.14848420333E+04  0.14890044075E+04  0.00000000000E+00 0.  1.
<mgrwt>
<rscale>  2 0.11125764E+03</rscale>
<asrwt>0</asrwt>
<pdfrwt beam="1">  1       21 0.12961981E-02 0.11125764E+03</pdfrwt>
<pdfrwt beam="2">  1        2 0.30380169E+00 0.11125764E+03</pdfrwt>
<totfact> 0.24618093E+05</totfact>
</mgrwt>
</event>
<event>
 4    1  0.5142205E+003  0.1064713E+03  0.7546771E-02  0.1267248E+00
         21   -1    0    0  503  502  0.00000000000E+00  0.00000000000E+00  0.21356061132E+03  0.21356061132E+03  0.00000000000E+00 0. -1.
          1   -1    0    0  502    0 -0.00000000000E+00 -0.00000000000E+00 -0.24228202851E+03  0.24228202851E+03  0.00000000000E+00 0. -1.
         21    1    1    2  503  501 -0.10583205556E+03  0.11649939589E+02  0.18705130700E+03  0.21523089120E+03  0.00000000000E+00 0. -1.
          1    1    1    2  501    0  0.10583205556E+03 -0.11649939589E+02 -0.21577272419E+03  0.24061174864E+03  0.00000000000E+00 0. -1.
<mgrwt>
<rscale>  2 0.10647133E+03</rscale>
<asrwt>0</asrwt>
<pdfrwt beam="1">  1       21 0.32855479E-01 0.10647133E+03</pdfrwt>
<pdfrwt beam="2">  1        1 0.37274158E-01 0.10647133E+03</pdfrwt>
<totfact> 0.11323220E+04</totfact>
</mgrwt>
</event>
<event>
 4    1  0.5142205E+003  0.1141011E+03  0.7546771E-02  0.1253158E+00
         -2   -1    0    0    0  501 -0.00000000000E+00  0.00000000000E+00  0.27006938920E+03  0.27006938920E+03  0.00000000000E+00 0.  1.
         21   -1    0    0  503  502  0.00000000000E+00 -0.00000000000E+00 -0.62491105531E+02  0.62491105531E+02  0.00000000000E+00 0.  1.
         21    1    1    2  503  501 -0.11031152887E+03 -0.29162210770E+02  0.24289075841E+02  0.11665773503E+03  0.00000000000E+00 0.  1.
         -2    1    1    2    0  502  0.11031152887E+03  0.29162210770E+02  0.18328920783E+03  0.21590275970E+03  0.00000000000E+00 0.  1.
<mgrwt>
<rscale>  2 0.11410113E+03</rscale>
<asrwt>0</asrwt>
<pdfrwt beam="2">  1       21 0.96140164E-02 0.11410113E+03</pdfrwt>
<pdfrwt beam="1">  1       -2 0.41549136E-01 0.11410113E+03</pdfrwt>
<totfact> 0.38285775E+04</totfact>
</mgrwt>
</event>
<event>
 4    1  0.5142205E+003  0.1020510E+03  0.7546771E-02  0.1276041E+00
         21   -1    0    0  503  502  0.00000000000E+00  0.00000000000E+00  0.12267801744E+03  0.12267801744E+03  0.00000000000E+00 0. -1.
          2   -1    0    0  502    0 -0.00000000000E+00 -0.00000000000E+00 -0.36883885172E+03  0.36883885172E+03  0.00000000000E+00 0. -1.
         21    1    1    2  503  501 -0.20638935459E+02 -0.99942171828E+02  0.92549243132E+02  0.13776707071E+03  0.00000000000E+00 0. -1.
          2    1    1    2  501    0  0.20638935459E+02  0.99942171828E+02 -0.33871007742E+03  0.35374979846E+03  0.00000000000E+00 0. -1.
<mgrwt>
<rscale>  2 0.10205098E+03</rscale>
<asrwt>0</asrwt>
<pdfrwt beam="1">  1       21 0.18873541E-01 0.10205098E+03</pdfrwt>
<pdfrwt beam="2">  1        2 0.56744438E-01 0.10205098E+03</pdfrwt>
<totfact> 0.28054999E+04</totfact>
</mgrwt>
</event>
<event>
 4    1  0.5142205E+003  0.1390366E+03  0.7546771E-02  0.1214631E+00
          1   -1    0    0  502    0 -0.00000000000E+00  0.00000000000E+00  0.13071861203E+04  0.13071861203E+04  0.00000000000E+00 0. -1.
         21   -1    0    0  503  502  0.00000000000E+00 -0.00000000000E+00 -0.53923183948E+02  0.53923183948E+02  0.00000000000E+00 0. -1.
         21    1    1    2  503  501 -0.95359427479E+02 -0.10118173984E+03  0.46860018211E+02  0.14672091259E+03  0.00000000000E+00 0. -1.
          1    1    1    2  501    0  0.95359427479E+02  0.10118173984E+03  0.12064029182E+04  0.12143883917E+04  0.00000000000E+00 0. -1.
<mgrwt>
<rscale>  2 0.13903656E+03</rscale>
<asrwt>0</asrwt>
<pdfrwt beam="2">  1       21 0.82958755E-02 0.13903656E+03</pdfrwt>
<pdfrwt beam="1">  1        1 0.20110553E+00 0.13903656E+03</pdfrwt>
<totfact> 0.12509703E+04</totfact>
</mgrwt>
</event>
<event>
 4    1  0.5142205E+003  0.1061057E+03  0.7546771E-02  0.1267956E+00
         21   -1    0    0  503  502  0.00000000000E+00  0.00000000000E+00  0.51057144151E+02  0.51057144151E+02  0.00000000000E+00 0.  1.
         -2   -1    0    0    0  501 -0.00000000000E+00 -0.00000000000E+00 -0.23339261663E+03  0.23339261663E+03  0.00000000000E+00 0.  1.
         21    1    1    2  503  501  0.77573785132E+02  0.72392906195E+02 -0.57748585497E+02  0.12080283165E+03  0.00000000000E+00 0.  1.
         -2    1    1    2    0  502 -0.77573785132E+02 -0.72392906195E+02 -0.12458688698E+03  0.16364692914E+03  0.00000000000E+00 0.  1.
<mgrwt>
<rscale>  2 0.10610573E+03</rscale>
<asrwt>0</asrwt>
<pdfrwt beam="1">  1       21 0.78549452E-02 0.10610573E+03</pdfrwt>
<pdfrwt beam="2">  1       -2 0.35906557E-01 0.10610573E+03</pdfrwt>
<totfact> 0.71064671E+04</totfact>
</mgrwt>
</event>
<event>
 4    1  0.5142205E+003  0.1931488E+03  0.7546771E-02  0.1155652E+00
          1   -1    0    0  503    0 -0.00000000000E+00  0.00000000000E+00  0.34572045646E+03  0.34572045646E+03  0.00000000000E+00 0.  1.
         21   -1    0    0  501  502  0.00000000000E+00 -0.00000000000E+00 -0.13850135675E+03  0.13850135675E+03  0.00000000000E+00 0.  1.
         21    1    1    2  503  502  0.78567622351E+02  0.17644717851E+03 -0.10177058321E+02  0.19341677952E+03  0.00000000000E+00 0.  1.
          1    1    1    2  501    0 -0.78567622351E+02 -0.17644717851E+03  0.21739615803E+03  0.29080503368E+03  0.00000000000E+00 0.  1.
<mgrwt>
<rscale>  2 0.19314885E+03</rscale>
<asrwt>0</asrwt>
<pdfrwt beam="2">  1       21 0.21307901E-01 0.19314885E+03</pdfrwt>
<pdfrwt beam="1">  1        1 0.53187762E-01 0.19314885E+03</pdfrwt>
<totfact> 0.16432644E+04</totfact>
</mgrwt>
</event>
<event>
 4    1  0.5142205E+003  0.3861303E+03  0.7546771E-02  0.1048691E+00
          2   -1    0    0  503    0 -0.00000000000E+00  0.00000000000E+00  0.80815128702E+03  0.80815128702E+03  0.00000000000E+00 0. -1.
         21   -1    0    0  501  502  0.00000000000E+00 -0.00000000000E+00 -0.25967608228E+03  0.25967608228E+03  0.00000000000E+00 0. -1.
         21    1    1    2  503  502 -0.18626556366E+03  0.33823323774E+03 -0.13052799062E+02  0.38635082358E+03  0.00000000000E+00 0. -1.
          2    1    1    2  501    0  0.18626556366E+03 -0.33823323774E+03  0.56152800380E+03  0.68147654572E+03  0.00000000000E+00 0. -1.
<mgrwt>
<rscale>  2 0.38613027E+03</rscale>
<asrwt>0</asrwt>
<pdfrwt beam="2">  1       21 0.39950167E-01 0.38613027E+03</pdfrwt>
<pdfrwt beam="1">  1        2 0.12433097E+00 0.38613027E+03</pdfrwt>
<totfact> 0.25135769E+03</totfact>
</mgrwt>
</event>
<event>
 4    1  0.5142205E+003  0.1079453E+03  0.7546771E-02  0.1264423E+00
          4   -1    0    0  502    0 -0.00000000000E+00  0.00000000000E+00  0.30185111149E+02  0.30185111149E+02  0.00000000000E+00 0.  1.
         21   -1    0    0  503  502  0.00000000000E+00 -0.00000000000E+00 -0.55930216994E+03  0.55930216994E+03  0.00000000000E+00 0.  1.
         21    1    1    2  503  501 -0.94057867764E+02  0.52965121253E+02 -0.42861476236E+03  0.44199864375E+03  0.00000000000E+00 0.  1.
          4    1    1    2  501    0  0.94057867764E+02 -0.52965121253E+02 -0.10050229643E+03  0.14748863734E+03  0.00000000000E+00 0.  1.
<mgrwt>
<rscale>  2 0.10794529E+03</rscale>
<asrwt>0</asrwt>
<pdfrwt beam="2">  1       21 0.86046486E-01 0.10794529E+03</pdfrwt>
<pdfrwt beam="1">  1        4 0.46438633E-02 0.10794529E+03</pdfrwt>
<totfact> 0.12717983E+04</totfact>
</mgrwt>
</event>
<event>
 4    1  0.5142205E+003  0.1028189E+03  0.7546771E-02  0.1274477E+00
         21   -1    0    0  501  502  0.00000000000E+00  0.00000000000E+00  0.17856504336E+03  0.17856504336E+03  0.00000000000E+00 0. -1.
          2   -1    0    0  503    0 -0.00000000000E+00 -0.00000000000E+00 -0.59420236953E+02  0.59420236953E+02  0.00000000000E+00 0. -1.
         21    1    1    2  503  502 -0.53453480142E+02 -0.87831984429E+02  0.66753689522E+02  0.12258787498E+03  0.00000000000E+00 0. -1.
          2    1    1    2  501    0  0.53453480142E+02  0.87831984429E+02  0.52391116882E+02  0.11539740533E+03  0.00000000000E+00 0. -1.
<mgrwt>
<rscale>  2 0.10281893E+03</rscale>
<asrwt>0</asrwt>
<pdfrwt beam="1">  1       21 0.27471545E-01 0.10281893E+03</pdfrwt>
<pdfrwt beam="2">  1        2 0.91415750E-02 0.10281893E+03</pdfrwt>
<totfact> 0.10704458E+05</totfact>
</mgrwt>
</event>
<event>
 4    1  0.5142205E+003  0.1726700E+03  0.7546771E-02  0.1175092E+00
         21   -1    0    0  503  502  0.00000000000E+00  0.00000000000E+00  0.94623706941E+02  0.94623706941E+02  0.00000000000E+00 0.  1.
          2   -1    0    0  502    0 -0.00000000000E+00 -0.00000000000E+00 -0.39316258035E+03  0.39316258035E+03  0.00000000000E+00 0.  1.
         21    1    1    2  503  501 -0.68422824398E+02 -0.15853471353E+03 -0.40585813519E+02  0.17737572143E+03  0.00000000000E+00 0.  1.
          2    1    1    2  501    0  0.68422824398E+02  0.15853471353E+03 -0.25795305989E+03  0.31041056586E+03  0.00000000000E+00 0.  1.
<mgrwt>
<rscale>  2 0.17267003E+03</rscale>
<asrwt>0</asrwt>
<pdfrwt beam="1">  1       21 0.14557493E-01 0.17267003E+03</pdfrwt>
<pdfrwt beam="2">  1        2 0.60486551E-01 0.17267003E+03</pdfrwt>
<totfact> 0.42035043E+04</totfact>
</mgrwt>
</event>
<event>
 4    1  0.5142205E+003  0.1238945E+03  0.7546771E-02  0.1236807E+00
         21   -1    0    0  503  502  0.00000000000E+00  0.00000000000E+00  0.98558090893E+03  0.98558090893E+03  0.00000000000E+00 0. -1.
         -2   -1    0    0    0  501 -0.00000000000E+00 -0.00000000000E+00 -0.41862090766E+03  0.41862090766E+03  0.00000000000E+00 0.  1.
         21    1    1    2  503  501  0.12154327651E+03 -0.24022378308E+02  0.97239660504E+03  0.98025761932E+03  0.00000000000E+00 0. -1.
         -2    1    1    2    0  502 -0.12154327651E+03  0.24022378308E+02 -0.40543660378E+03  0.42394419728E+03  0.00000000000E+00 0.  1.
<mgrwt>
<rscale>  2 0.12389448E+03</rscale>
<asrwt>0</asrwt>
<pdfrwt beam="1">  1       21 0.15162783E+00 0.12389448E+03</pdfrwt>
<pdfrwt beam="2">  1       -2 0.64403217E-01 0.12389448E+03</pdfrwt>
<totfact> 0.57573155E+01</totfact>
</mgrwt>
</event>
<event>
 4    1  0.5142205E+003  0.1059048E+03  0.7546771E-02  0.1268347E+00
         21   -1    0    0  501  502  0.00000000000E+00  0.00000000000E+00  0.23095688308E+03  0.23095688308E+03  0.00000000000E+00 0.  1.
         -1   -1    0    0    0  501 -0.00000000000E+00 -0.00000000000E+00 -0.64757253530E+02  0.64757253530E+02  0.00000000000E+00 0. -1.
         21    1    1    2  503  502 -0.61931189643E+02 -0.85909023273E+02  0.15704087886E+03  0.18941401787E+03  0.00000000000E+00 0.  1.
         -1    1    1    2    0  503  0.61931189643E+02  0.85909023273E+02  0.91587506857E+01  0.10630011874E+03  0.00000000000E+00 0. -1.
<mgrwt>
<rscale>  2 0.10590483E+03</rscale>
<asrwt>0</asrwt>
<pdfrwt beam="1">  1       21 0.35531828E-01 0.10590483E+03</pdfrwt>
<pdfrwt beam="2">  1       -1 0.99626545E-02 0.10590483E+03</pdfrwt>
<totfact> 0.41257490E+04</totfact>
</mgrwt>
</event>
<event>
 4    1  0.5142205E+003  0.1065611E+03  0.7546771E-02  0.1267074E+00
          4   -1    0    0  503    0 -0.00000000000E+00  0.00000000000E+00  0.25024060773E+03  0.25024060773E+03  0.00000000000E+00 0. -1.
         21   -1    0    0  501  502  0.00000000000E+00 -0.00000000000E+00 -0.71572139362E+02  0.71572139362E+02  0.00000000000E+00 0. -1.
         21    1    1    2  503  502 -0.10814961053E+02 -0.10601082491E+03 -0.80096367034E+01  0.10686165197E+03  0.00000000000E+00 0. -1.
          4    1    1    2  501    0  0.10814961053E+02  0.10601082491E+03  0.18667810507E+03  0.21495109512E+03  0.00000000000E+00 0. -1.
<mgrwt>
<rscale>  2 0.10656105E+03</rscale>
<asrwt>0</asrwt>
<pdfrwt beam="2">  1       21 0.11011098E-01 0.10656105E+03</pdfrwt>
<pdfrwt beam="1">  1        4 0.38498555E-01 0.10656105E+03</pdfrwt>
<totfact> 0.17826477E+04</totfact>
</mgrwt>
</event>
<event>
 4    1  0.5142205E+003  0.1024441E+03  0.7546771E-02  0.1275239E+00
         21   -1    0    0  501  502  0.00000000000E+00  0.00000000000E+00  0.57898870255E+01  0.57898870255E+01  0.00000000000E+00 0. -1.
          2   -1    0    0  503    0 -0.00000000000E+00 -0.00000000000E+00 -0.18166678584E+04  0.18166678584E+04  0.00000000000E+00 0. -1.
         21    1    1    2  503  502  0.85208482872E+02 -0.56870940494E+02 -0.86235641217E+03  0.86842004297E+03  0.00000000000E+00 0. -1.
          2    1    1    2  501    0 -0.85208482872E+02  0.56870940494E+02 -0.94852155924E+03  0.95403770248E+03  0.00000000000E+00 0. -1.
<mgrwt>
<rscale>  2 0.10244408E+03</rscale>
<asrwt>0</asrwt>
<pdfrwt beam="1">  1       21 0.89075100E-03 0.10244408E+03</pdfrwt>
<pdfrwt beam="2">  1        2 0.27948763E+00 0.10244408E+03</pdfrwt>
<totfact> 0.53276932E+05</totfact>
</mgrwt>
</event>
<event>
 4    1  0.5142205E+003  0.1633324E+03  0.7546771E-02  0.1184985E+00
         21   -1    0    0  501  502  0.00000000000E+00  0.00000000000E+00  0.64367949404E+02  0.64367949404E+02  0.00000000000E+00 0. -1.
          2   -1    0    0  503    0 -0.00000000000E+00 -0.00000000000E+00 -0.10138901456E+04  0.10138901456E+04  0.00000000000E+00 0.  1.
         21    1    1    2  503  502  0.15859070536E+03 -0.39070017498E+02 -0.60218493356E+02  0.17407970885E+03  0.00000000000E+00 0. -1.
          2    1    1    2  501    0 -0.15859070536E+03  0.39070017498E+02 -0.88930370282E+03  0.90417838613E+03  0.00000000000E+00 0.  1.
<mgrwt>
<rscale>  2 0.16333242E+03</rscale>
<asrwt>0</asrwt>
<pdfrwt beam="1">  1       21 0.99027619E-02 0.16333242E+03</pdfrwt>
<pdfrwt beam="2">  1        2 0.15598309E+00 0.16333242E+03</pdfrwt>
<totfact> 0.27184480E+04</totfact>
</mgrwt>
</event>
<event>
 4    1  0.5142205E+003  0.1212743E+03  0.7546771E-02  0.1241010E+00
         21   -1    0    0  501  502  0.00000000000E+00  0.00000000000E+00  0.63162559725E+02  0.63162559725E+02  0.00000000000E+00 0.  1.
          2   -1    0    0  503    0 -0.00000000000E+00 -0.00000000000E+00 -0.65199028990E+03  0.65199028990E+03  0.00000000000E+00 0.  1.
         21    1    1    2  503  502  0.98702767845E+02  0.70464268668E+02 -0.77139073276E+01  0.12151935609E+03  0.00000000000E+00 0.  1.
          2    1    1    2  501    0 -0.98702767845E+02 -0.70464268668E+02 -0.58111382285E+03  0.59363349354E+03  0.00000000000E+00 0.  1.
<mgrwt>
<rscale>  2 0.12127427E+03</rscale>
<asrwt>0</asrwt>
<pdfrwt beam="1">  1       21 0.97173174E-02 0.12127427E+03</pdfrwt>
<pdfrwt beam="2">  1        2 0.10030619E+00 0.12127427E+03</pdfrwt>
<totfact> 0.49191865E+04</totfact>
</mgrwt>
</event>
<event>
 4    1  0.5142205E+003  0.1451474E+03  0.7546771E-02  0.1206566E+00
          1   -1    0    0  502    0 -0.00000000000E+00  0.00000000000E+00  0.33007218023E+04  0.33007218023E+04  0.00000000000E+00 0.  1.
         21   -1    0    0  503  502  0.00000000000E+00 -0.00000000000E+00 -0.97853485535E+01  0.97853485535E+01  0.00000000000E+00 0. -1.
         21    1    1    2  503  501  0.10836011739E+03  0.96570461048E+02  0.66940025790E+03  0.68495581921E+03  0.00000000000E+00 0. -1.
          1    1    1    2  501    0 -0.10836011739E+03 -0.96570461048E+02  0.26215361959E+04  0.26255513317E+04  0.00000000000E+00 0.  1.
<mgrwt>
<rscale>  2 0.14514740E+03</rscale>
<asrwt>0</asrwt>
<pdfrwt beam="2">  1       21 0.15054409E-02 0.14514740E+03</pdfrwt>
<pdfrwt beam="1">  1        1 0.50780247E+00 0.14514740E+03</pdfrwt>
<totfact> 0.10272964E+04</totfact>
</mgrwt>
</event>
<event>
 4    1  0.5142205E+003  0.1514410E+03  0.7546771E-02  0.1198713E+00
         21   -1    0    0  503  502  0.00000000000E+00  0.00000000000E+00  0.10256096724E+03  0.10256096724E+03  0.00000000000E+00 0. -1.
          2   -1    0    0  502    0 -0.00000000000E+00 -0.00000000000E+00 -0.94880712086E+03  0.94880712086E+03  0.00000000000E+00 0. -1.
         21    1    1    2  503  501  0.83541095673E+02 -0.12631413560E+03  0.36457607958E+02  0.15576755983E+03  0.00000000000E+00 0. -1.
          2    1    1    2  501    0 -0.83541095673E+02  0.12631413560E+03 -0.88270376158E+03  0.89560052827E+03  0.00000000000E+00 0. -1.
<mgrwt>
<rscale>  2 0.15144100E+03</rscale>
<asrwt>0</asrwt>
<pdfrwt beam="1">  1       21 0.15778611E-01 0.15144100E+03</pdfrwt>
<pdfrwt beam="2">  1        2 0.14597032E+00 0.15144100E+03</pdfrwt>
<totfact> 0.12985936E+04</totfact>
</mgrwt>
</event>
<event>
 4    1  0.5142205E+003  0.1119738E+03  0.7546771E-02  0.1256958E+00
          1   -1    0    0  503    0 -0.00000000000E+00  0.00000000000E+00  0.24934881294E+02  0.24934881294E+02  0.00000000000E+00 0. -1.
         21   -1    0    0  501  502  0.00000000000E+00 -0.00000000000E+00 -0.50752141949E+03  0.50752141949E+03  0.00000000000E+00 0. -1.
         21    1    1    2  503  502  0.71297367522E+02  0.86341294465E+02 -0.26687573072E+03  0.28941456320E+03  0.00000000000E+00 0. -1.
          1    1    1    2  501    0 -0.71297367522E+02 -0.86341294465E+02 -0.21571080748E+03  0.24304173759E+03  0.00000000000E+00 0. -1.
<mgrwt>
<rscale>  2 0.11197381E+03</rscale>
<asrwt>0</asrwt>
<pdfrwt beam="2">  1       21 0.78080213E-01 0.11197381E+03</pdfrwt>
<pdfrwt beam="1">  1        1 0.38361359E-02 0.11197381E+03</pdfrwt>
<totfact> 0.36522026E+04</totfact>
</mgrwt>
</event>
<event>
 4    1  0.5142205E+003  0.1018950E+03  0.7546771E-02  0.1276361E+00
         21   -1    0    0  503  502  0.00000000000E+00  0.00000000000E+00  0.16348852558E+02  0.16348852558E+02  0.00000000000E+00 0. -1.
          1   -1    0    0  502    0 -0.00000000000E+00 -0.00000000000E+00 -0.86288953329E+03  0.86288953329E+03  0.00000000000E+00 0.  1.
         21    1    1    2  503  501 -0.69517744693E+02  0.74497426651E+02 -0.19737913320E+03  0.22212857904E+03  0.00000000000E+00 0. -1.
          1    1    1    2  501    0  0.69517744693E+02 -0.74497426651E+02 -0.64916154753E+03  0.65710980681E+03  0.00000000000E+00 0.  1.
<mgrwt>
<rscale>  2 0.10189496E+03</rscale>
<asrwt>0</asrwt>
<pdfrwt beam="1">  1       21 0.25152079E-02 0.10189496E+03</pdfrwt>
<pdfrwt beam="2">  1        1 0.13275224E+00 0.10189496E+03</pdfrwt>
<totfact> 0.19022126E+05</totfact>
</mgrwt>
</event>
<event>
 4    1  0.5142205E+003  0.1046885E+03  0.7546771E-02  0.1270735E+00
          1   -1    0    0  502    0 -0.00000000000E+00  0.00000000000E+00  0.16816822314E+04  0.16816822314E+04  0.00000000000E+00 0.  1.
         21   -1    0    0  503  502  0.00000000000E+00 -0.00000000000E+00 -0.16223162765E+02  0.16223162765E+02  0.00000000000E+00 0.  1.
         21    1    1    2  503  501  0.57363998729E+02 -0.87573108412E+02  0.17607422758E+03  0.20484582320E+03  0.00000000000E+00 0.  1.
          1    1    1    2  501    0 -0.57363998729E+02  0.87573108412E+02  0.14893848411E+04  0.14930595710E+04  0.00000000000E+00 0.  1.
<mgrwt>
<rscale>  2 0.10468848E+03</rscale>
<asrwt>0</asrwt>
<pdfrwt beam="2">  1       21 0.24958725E-02 0.10468848E+03</pdfrwt>
<pdfrwt beam="1">  1        1 0.25872021E+00 0.10468848E+03</pdfrwt>
<totfact> 0.53717791E+04</totfact>
</mgrwt>
</event>
<event>
 4    1  0.5142205E+003  0.1038203E+03  0.7546771E-02  0.1272461E+00
         -4   -1    0    0    0  501 -0.00000000000E+00  0.00000000000E+00  0.34827942191E+02  0.34827942191E+02  0.00000000000E+00 0. -1.
         21   -1    0    0  501  502  0.00000000000E+00 -0.00000000000E+00 -0.40095185100E+03  0.40095185100E+03  0.00000000000E+00 0.  1.
         21    1    1    2  503  502 -0.12363271139E+02 -0.10308156051E+03 -0.28713240115E+03  0.30532552199E+03  0.00000000000E+00 0.  1.
         -4    1    1    2    0  503  0.12363271139E+02  0.10308156051E+03 -0.78991507659E+02  0.13045427120E+03  0.00000000000E+00 0. -1.
<mgrwt>
<rscale>  2 0.10382032E+03</rscale>
<asrwt>0</asrwt>
<pdfrwt beam="2">  1       21 0.61684899E-01 0.10382032E+03</pdfrwt>
<pdfrwt beam="1">  1       -4 0.53581450E-02 0.10382032E+03</pdfrwt>
<totfact> 0.20857492E+04</totfact>
</mgrwt>
</event>
<event>
 4    1  0.5142205E+003  0.1025337E+03  0.7546771E-02  0.1275056E+00
          2   -1    0    0  503    0 -0.00000000000E+00  0.00000000000E+00  0.66387142527E+03  0.66387142527E+03  0.00000000000E+00 0. -1.
         21   -1    0    0  501  502  0.00000000000E+00 -0.00000000000E+00 -0.30192094353E+02  0.30192094353E+02  0.00000000000E+00 0. -1.
         21    1    1    2  503  502 -0.81744202378E+02  0.61895458440E+02  0.77541923118E+02  0.12855314947E+03  0.00000000000E+00 0. -1.
          2    1    1    2  501    0  0.81744202378E+02 -0.61895458440E+02  0.55613740780E+03  0.56551037015E+03  0.00000000000E+00 0. -1.
<mgrwt>
<rscale>  2 0.10253371E+03</rscale>
<asrwt>0</asrwt>
<pdfrwt beam="2">  1       21 0.46449381E-02 0.10253371E+03</pdfrwt>
<pdfrwt beam="1">  1        2 0.10213405E+00 0.10253371E+03</pdfrwt>
<totfact> 0.16849033E+05</totfact>
</mgrwt>
</event>
<event>
 4    1  0.5142205E+003  0.2780943E+03  0.7546771E-02  0.1096734E+00
          1   -1    0    0  503    0 -0.00000000000E+00  0.00000000000E+00  0.15353801167E+04  0.15353801167E+04  0.00000000000E+00 0. -1.
         21   -1    0    0  501  502  0.00000000000E+00 -0.00000000000E+00 -0.78799786916E+02  0.78799786916E+02  0.00000000000E+00 0.  1.
         21    1    1    2  503  502  0.27286880355E+03  0.53656781526E+02  0.24350478270E+03  0.36963632580E+03  0.00000000000E+00 0.  1.
          1    1    1    2  501    0 -0.27286880355E+03 -0.53656781526E+02  0.12130755471E+04  0.12445435778E+04  0.00000000000E+00 0. -1.
<mgrwt>
<rscale>  2 0.27809429E+03</rscale>
<asrwt>0</asrwt>
<pdfrwt beam="2">  1       21 0.12123045E-01 0.27809429E+03</pdfrwt>
<pdfrwt beam="1">  1        1 0.23621230E+00 0.27809429E+03</pdfrwt>
<totfact> 0.42973800E+03</totfact>
</mgrwt>
</event>
<event>
 4    1  0.5142205E+003  0.1179424E+03  0.7546771E-02  0.1246530E+00
          2   -1    0    0  503    0 -0.00000000000E+00  0.00000000000E+00  0.52975084420E+03  0.52975084420E+03  0.00000000000E+00 0. -1.
         21   -1    0    0  501  502  0.00000000000E+00 -0.00000000000E+00 -0.51941809874E+02  0.51941809874E+02  0.00000000000E+00 0.  1.
         21    1    1    2  503  502 -0.43911715693E+02  0.10946314018E+03  0.34386650504E+02  0.12285299983E+03  0.00000000000E+00 0.  1.
          2    1    1    2  501    0  0.43911715693E+02 -0.10946314018E+03  0.44342238382E+03  0.45883965424E+03  0.00000000000E+00 0. -1.
<mgrwt>
<rscale>  2 0.11794243E+03</rscale>
<asrwt>0</asrwt>
<pdfrwt beam="2">  1       21 0.79910480E-02 0.11794243E+03</pdfrwt>
<pdfrwt beam="1">  1        2 0.81500126E-01 0.11794243E+03</pdfrwt>
<totfact> 0.87191775E+04</totfact>
</mgrwt>
</event>
<event>
 4    1  0.5142205E+003  0.1089748E+03  0.7546771E-02  0.1262480E+00
         -4   -1    0    0    0  501 -0.00000000000E+00  0.00000000000E+00  0.37472163674E+02  0.37472163674E+02  0.00000000000E+00 0. -1.
         21   -1    0    0  501  502  0.00000000000E+00 -0.00000000000E+00 -0.42188123707E+03  0.42188123707E+03  0.00000000000E+00 0. -1.
         21    1    1    2  503  502 -0.29409614378E+02 -0.10493135845E+03 -0.30676777684E+03  0.32554874337E+03  0.00000000000E+00 0. -1.
         -4    1    1    2    0  503  0.29409614378E+02  0.10493135845E+03 -0.77641296551E+02  0.13380465737E+03  0.00000000000E+00 0. -1.
<mgrwt>
<rscale>  2 0.10897484E+03</rscale>
<asrwt>0</asrwt>
<pdfrwt beam="2">  1       21 0.64904807E-01 0.10897484E+03</pdfrwt>
<pdfrwt beam="1">  1       -4 0.57649482E-02 0.10897484E+03</pdfrwt>
<totfact> 0.16713839E+04</totfact>
</mgrwt>
</event>
<event>
 4    1  0.5142205E+003  0.1585550E+03  0.7546771E-02  0.1190338E+00
         21   -1    0    0  501  502  0.00000000000E+00  0.00000000000E+00  0.70276147803E+02  0.70276147803E+02  0.00000000000E+00 0.  1.
         -3   -1    0    0    0  501 -0.00000000000E+00 -0.00000000000E+00 -0.64410215915E+03  0.64410215915E+03  0.00000000000E+00 0.  1.
         21    1    1    2  503  502  0.14879702942E+03  0.54764333690E+02 -0.48742258053E+02  0.16587795492E+03  0.00000000000E+00 0.  1.
         -3    1    1    2    0  503 -0.14879702942E+03 -0.54764333690E+02 -0.52508375330E+03  0.54850035204E+03  0.00000000000E+00 0.  1.
<mgrwt>
<rscale>  2 0.15855500E+03</rscale>
<asrwt>0</asrwt>
<pdfrwt beam="1">  1       21 0.10811715E-01 0.15855500E+03</pdfrwt>
<pdfrwt beam="2">  1       -3 0.99092637E-01 0.15855500E+03</pdfrwt>
<totfact> 0.32147075E+03</totfact>
</mgrwt>
</event>
<event>
 4    1  0.5142205E+003  0.1063156E+03  0.7546771E-02  0.1267549E+00
         21   -1    0    0  503  502  0.00000000000E+00  0.00000000000E+00  0.80607457333E+03  0.80607457333E+03  0.00000000000E+00 0.  1.
          2   -1    0    0  502    0 -0.00000000000E+00 -0.00000000000E+00 -0.16813699882E+04  0.16813699882E+04  0.00000000000E+00 0.  1.
         21    1    1    2  503  501  0.73926629594E+02  0.76405872926E+02  0.80087752072E+03  0.80790334024E+03  0.00000000000E+00 0.  1.
          2    1    1    2  501    0 -0.73926629594E+02 -0.76405872926E+02 -0.16761729356E+04  0.16795412213E+04  0.00000000000E+00 0.  1.
<mgrwt>
<rscale>  2 0.10631559E+03</rscale>
<asrwt>0</asrwt>
<pdfrwt beam="1">  1       21 0.12401147E+00 0.10631559E+03</pdfrwt>
<pdfrwt beam="2">  1        2 0.25867230E+00 0.10631559E+03</pdfrwt>
<totfact> 0.77441334E+01</totfact>
</mgrwt>
</event>
<event>
 4    1  0.5142205E+003  0.1582076E+03  0.7546771E-02  0.1190735E+00
          2   -1    0    0  502    0 -0.00000000000E+00  0.00000000000E+00  0.15730707878E+04  0.15730707878E+04  0.00000000000E+00 0.  1.
         21   -1    0    0  503  502  0.00000000000E+00 -0.00000000000E+00 -0.42625043927E+02  0.42625043927E+02  0.00000000000E+00 0.  1.
         21    1    1    2  503  501 -0.12004241133E+03  0.10305082598E+03  0.12568789793E+03  0.20205717245E+03  0.00000000000E+00 0.  1.
          2    1    1    2  501    0  0.12004241133E+03 -0.10305082598E+03  0.14047578459E+04  0.14136386592E+04  0.00000000000E+00 0.  1.
<mgrwt>
<rscale>  2 0.15820763E+03</rscale>
<asrwt>0</asrwt>
<pdfrwt beam="2">  1       21 0.65577003E-02 0.15820763E+03</pdfrwt>
<pdfrwt beam="1">  1        2 0.24201085E+00 0.15820763E+03</pdfrwt>
<totfact> 0.27437573E+04</totfact>
</mgrwt>
</event>
<event>
 4    1  0.5142205E+003  0.1771174E+03  0.7546771E-02  0.1170622E+00
         21   -1    0    0  501  502  0.00000000000E+00  0.00000000000E+00  0.20624905552E+04  0.20624905552E+04  0.00000000000E+00 0. -1.
         -2   -1    0    0    0  501 -0.00000000000E+00 -0.00000000000E+00 -0.10603082740E+04  0.10603082740E+04  0.00000000000E+00 0.  1.
         21    1    1    2  503  502 -0.13453611512E+03  0.11519811316E+03  0.20512510226E+04  0.20588835152E+04  0.00000000000E+00 0. -1.
         -2    1    1    2    0  503  0.13453611512E+03 -0.11519811316E+03 -0.10490687413E+04  0.10639153141E+04  0.00000000000E+00 0.  1.
<mgrwt>
<rscale>  2 0.17711739E+03</rscale>
<asrwt>0</asrwt>
<pdfrwt beam="1">  1       21 0.31730624E+00 0.17711739E+03</pdfrwt>
<pdfrwt beam="2">  1       -2 0.16312435E+00 0.17711739E+03</pdfrwt>
<totfact> 0.58701257E-01</totfact>
</mgrwt>
</event>
<event>
 4    1  0.5142205E+003  0.1092781E+03  0.7546771E-02  0.1261913E+00
         21   -1    0    0  503  502  0.00000000000E+00  0.00000000000E+00  0.15582263860E+02  0.15582263860E+02  0.00000000000E+00 0.  1.
          2   -1    0    0  502    0 -0.00000000000E+00 -0.00000000000E+00 -0.92033805538E+03  0.92033805538E+03  0.00000000000E+00 0.  1.
         21    1    1    2  503  501  0.87127182253E+01  0.10893021819E+03 -0.26097110105E+03  0.28292688009E+03  0.00000000000E+00 0.  1.
          2    1    1    2  501    0 -0.87127182253E+01 -0.10893021819E+03 -0.64378469047E+03  0.65299343915E+03  0.00000000000E+00 0.  1.
<mgrwt>
<rscale>  2 0.10927810E+03</rscale>
<asrwt>0</asrwt>
<pdfrwt beam="1">  1       21 0.23972710E-02 0.10927810E+03</pdfrwt>
<pdfrwt beam="2">  1        2 0.14159049E+00 0.10927810E+03</pdfrwt>
<totfact> 0.33529606E+05</totfact>
</mgrwt>
</event>
<event>
 4    1  0.5142205E+003  0.1051577E+03  0.7546771E-02  0.1269809E+00
         21   -1    0    0  501  502  0.00000000000E+00  0.00000000000E+00  0.91752848498E+02  0.91752848498E+02  0.00000000000E+00 0. -1.
          2   -1    0    0  503    0 -0.00000000000E+00 -0.00000000000E+00 -0.32375506041E+03  0.32375506041E+03  0.00000000000E+00 0. -1.
         21    1    1    2  503  502 -0.43506830831E+02 -0.95735530650E+02  0.48602508316E+02  0.11584619101E+03  0.00000000000E+00 0. -1.
          2    1    1    2  501    0  0.43506830831E+02  0.95735530650E+02 -0.28060472022E+03  0.29966171789E+03  0.00000000000E+00 0. -1.
<mgrwt>
<rscale>  2 0.10515767E+03</rscale>
<asrwt>0</asrwt>
<pdfrwt beam="1">  1       21 0.14115823E-01 0.10515767E+03</pdfrwt>
<pdfrwt beam="2">  1        2 0.49808469E-01 0.10515767E+03</pdfrwt>
<totfact> 0.54374262E+04</totfact>
</mgrwt>
</event>
<event>
 4    1  0.5142205E+003  0.1826240E+03  0.7546771E-02  0.1165287E+00
         -3   -1    0    0    0  501 -0.00000000000E+00  0.00000000000E+00  0.68813046519E+03  0.68813046519E+03  0.00000000000E+00 0.  1.
         21   -1    0    0  503  502  0.00000000000E+00 -0.00000000000E+00 -0.55725842727E+02  0.55725842727E+02  0.00000000000E+00 0. -1.
         21    1    1    2  503  501  0.18202884493E+03  0.14731908021E+02  0.18196651988E+03  0.25780485616E+03  0.00000000000E+00 0. -1.
         -3    1    1    2    0  502 -0.18202884493E+03 -0.14731908021E+02  0.45043810258E+03  0.48605145176E+03  0.00000000000E+00 0.  1.
<mgrwt>
<rscale>  2 0.18262401E+03</rscale>
<asrwt>0</asrwt>
<pdfrwt beam="2">  1       21 0.85732071E-02 0.18262401E+03</pdfrwt>
<pdfrwt beam="1">  1       -3 0.10586622E+00 0.18262401E+03</pdfrwt>
<totfact> 0.41654484E+03</totfact>
</mgrwt>
</event>
<event>
 4    1  0.5142205E+003  0.1177181E+03  0.7546771E-02  0.1246910E+00
         21   -1    0    0  503  502  0.00000000000E+00  0.00000000000E+00  0.11457698316E+03  0.11457698316E+03  0.00000000000E+00 0.  1.
         -3   -1    0    0    0  501 -0.00000000000E+00 -0.00000000000E+00 -0.17357616704E+03  0.17357616704E+03  0.00000000000E+00 0.  1.
         21    1    1    2  503  501 -0.60968809238E+02  0.10069933967E+03  0.49836062314E+02  0.12783264770E+03  0.00000000000E+00 0.  1.
         -3    1    1    2    0  502  0.60968809238E+02 -0.10069933967E+03 -0.10883524619E+03  0.16032050250E+03  0.00000000000E+00 0.  1.
<mgrwt>
<rscale>  2 0.11771811E+03</rscale>
<asrwt>0</asrwt>
<pdfrwt beam="1">  1       21 0.17627228E-01 0.11771811E+03</pdfrwt>
<pdfrwt beam="2">  1       -3 0.26704026E-01 0.11771811E+03</pdfrwt>
<totfact> 0.18560811E+04</totfact>
</mgrwt>
</event>
<event>
 4    1  0.5142205E+003  0.1028755E+03  0.7546771E-02  0.1274363E+00
         21   -1    0    0  501  502  0.00000000000E+00  0.00000000000E+00  0.92557896044E+01  0.92557896044E+01  0.00000000000E+00 0.  1.
          2   -1    0    0  503    0 -0.00000000000E+00 -0.00000000000E+00 -0.11449768452E+04  0.11449768452E+04  0.00000000000E+00 0.  1.
         21    1    1    2  503  502 -0.10286154564E+03 -0.16965435434E+01 -0.58905186682E+03  0.59796778980E+03  0.00000000000E+00 0.  1.
          2    1    1    2  501    0  0.10286154564E+03  0.16965435434E+01 -0.54666918873E+03  0.55626484497E+03  0.00000000000E+00 0.  1.
<mgrwt>
<rscale>  2 0.10287554E+03</rscale>
<asrwt>0</asrwt>
<pdfrwt beam="1">  1       21 0.14239672E-02 0.10287554E+03</pdfrwt>
<pdfrwt beam="2">  1        2 0.17615033E+00 0.10287554E+03</pdfrwt>
<totfact> 0.56931516E+05</totfact>
</mgrwt>
</event>
<event>
 4    1  0.5142205E+003  0.1714503E+03  0.7546771E-02  0.1176344E+00
          2   -1    0    0  503    0 -0.00000000000E+00  0.00000000000E+00  0.11952957900E+04  0.11952957900E+04  0.00000000000E+00 0. -1.
         21   -1    0    0  501  502  0.00000000000E+00 -0.00000000000E+00 -0.25297563436E+02  0.25297563436E+02  0.00000000000E+00 0. -1.
         21    1    1    2  503  502  0.80594729228E+02  0.15132641402E+03  0.48310570408E+03  0.51262687724E+03  0.00000000000E+00 0. -1.
          2    1    1    2  501    0 -0.80594729228E+02 -0.15132641402E+03  0.68689252245E+03  0.70796647616E+03  0.00000000000E+00 0. -1.
<mgrwt>
<rscale>  2 0.17145027E+03</rscale>
<asrwt>0</asrwt>
<pdfrwt beam="2">  1       21 0.38919338E-02 0.17145027E+03</pdfrwt>
<pdfrwt beam="1">  1        2 0.18389162E+00 0.17145027E+03</pdfrwt>
<totfact> 0.10548513E+05</totfact>
</mgrwt>
</event>
<event>
 4    1  0.5142205E+003  0.1275058E+03  0.7546771E-02  0.1231204E+00
          2   -1    0    0  503    0 -0.00000000000E+00  0.00000000000E+00  0.31290086406E+04  0.31290086406E+04  0.00000000000E+00 0.  1.
         21   -1    0    0  501  502  0.00000000000E+00 -0.00000000000E+00 -0.81860380697E+01  0.81860380697E+01  0.00000000000E+00 0.  1.
         21    1    1    2  503  502 -0.92112221669E+02  0.88165015634E+02  0.61237095304E+03  0.62550452875E+03  0.00000000000E+00 0.  1.
          2    1    1    2  501    0  0.92112221669E+02 -0.88165015634E+02  0.25084516495E+04  0.25116901499E+04  0.00000000000E+00 0.  1.
<mgrwt>
<rscale>  2 0.12750581E+03</rscale>
<asrwt>0</asrwt>
<pdfrwt beam="2">  1       21 0.12593930E-02 0.12750581E+03</pdfrwt>
<pdfrwt beam="1">  1        2 0.48138499E+00 0.12750581E+03</pdfrwt>
<totfact> 0.61239178E+04</totfact>
</mgrwt>
</event>
<event>
 4    1  0.5142205E+003  0.1951421E+03  0.7546771E-02  0.1153904E+00
         21   -1    0    0  501  502  0.00000000000E+00  0.00000000000E+00  0.43138947482E+02  0.43138947482E+02  0.00000000000E+00 0. -1.
          2   -1    0    0  503    0 -0.00000000000E+00 -0.00000000000E+00 -0.19282478705E+04  0.19282478705E+04  0.00000000000E+00 0.  1.
         21    1    1    2  503  502 -0.16049166456E+03  0.11100836874E+03 -0.21674223676E+03  0.29164641181E+03  0.00000000000E+00 0. -1.
          2    1    1    2  501    0  0.16049166456E+03 -0.11100836874E+03 -0.16683666863E+04  0.16797404062E+04  0.00000000000E+00 0.  1.
<mgrwt>
<rscale>  2 0.19514208E+03</rscale>
<asrwt>0</asrwt>
<pdfrwt beam="1">  1       21 0.66367598E-02 0.19514208E+03</pdfrwt>
<pdfrwt beam="2">  1        2 0.29665358E+00 0.19514208E+03</pdfrwt>
<totfact> 0.17393828E+04</totfact>
</mgrwt>
</event>
<event>
 4    1  0.5142205E+003  0.1141944E+03  0.7546771E-02  0.1252994E+00
         21   -1    0    0  501  502  0.00000000000E+00  0.00000000000E+00  0.29760610776E+02  0.29760610776E+02  0.00000000000E+00 0.  1.
         -2   -1    0    0    0  501 -0.00000000000E+00 -0.00000000000E+00 -0.10707249991E+04  0.10707249991E+04  0.00000000000E+00 0.  1.
         21    1    1    2  503  502  0.90730729729E+02 -0.69341875133E+02 -0.97557767524E+02  0.15019280598E+03  0.00000000000E+00 0.  1.
         -2    1    1    2    0  503 -0.90730729729E+02  0.69341875133E+02 -0.94340662077E+03  0.95029280386E+03  0.00000000000E+00 0.  1.
<mgrwt>
<rscale>  2 0.11419440E+03</rscale>
<asrwt>0</asrwt>
<pdfrwt beam="1">  1       21 0.45785552E-02 0.11419440E+03</pdfrwt>
<pdfrwt beam="2">  1       -2 0.16472693E+00 0.11419440E+03</pdfrwt>
<totfact> 0.63992815E+03</totfact>
</mgrwt>
</event>
<event>
 4    1  0.5142205E+003  0.1326126E+03  0.7546771E-02  0.1223630E+00
         21   -1    0    0  501  502  0.00000000000E+00  0.00000000000E+00  0.44719538454E+02  0.44719538454E+02  0.00000000000E+00 0. -1.
          2   -1    0    0  503    0 -0.00000000000E+00 -0.00000000000E+00 -0.44643528222E+03  0.44643528222E+03  0.00000000000E+00 0.  1.
         21    1    1    2  503  502  0.12943570068E+03  0.28852954517E+02 -0.11609755733E+03  0.17625191180E+03  0.00000000000E+00 0. -1.
          2    1    1    2  501    0 -0.12943570068E+03 -0.28852954517E+02 -0.28561818643E+03  0.31490290887E+03  0.00000000000E+00 0.  1.
<mgrwt>
<rscale>  2 0.13261257E+03</rscale>
<asrwt>0</asrwt>
<pdfrwt beam="1">  1       21 0.68799290E-02 0.13261257E+03</pdfrwt>
<pdfrwt beam="2">  1        2 0.68682351E-01 0.13261257E+03</pdfrwt>
<totfact> 0.13630891E+05</totfact>
</mgrwt>
</event>
<event>
 4    1  0.5142205E+003  0.1026743E+03  0.7546771E-02  0.1274771E+00
          2   -1    0    0  502    0 -0.00000000000E+00  0.00000000000E+00  0.37931542866E+03  0.37931542866E+03  0.00000000000E+00 0.  1.
         21   -1    0    0  503  502  0.00000000000E+00 -0.00000000000E+00 -0.65975714989E+02  0.65975714989E+02  0.00000000000E+00 0.  1.
         21    1    1    2  503  501 -0.10030775746E+03  0.21917120291E+02 -0.12709320799E+02  0.10345788130E+03  0.00000000000E+00 0.  1.
          2    1    1    2  501    0  0.10030775746E+03 -0.21917120291E+02  0.32604903447E+03  0.34183326234E+03  0.00000000000E+00 0.  1.
<mgrwt>
<rscale>  2 0.10267427E+03</rscale>
<asrwt>0</asrwt>
<pdfrwt beam="2">  1       21 0.10150110E-01 0.10267427E+03</pdfrwt>
<pdfrwt beam="1">  1        2 0.58356218E-01 0.10267427E+03</pdfrwt>
<totfact> 0.82235881E+04</totfact>
</mgrwt>
</event>
<event>
 4    1  0.5142205E+003  0.1304902E+03  0.7546771E-02  0.1226730E+00
          2   -1    0    0  502    0 -0.00000000000E+00  0.00000000000E+00  0.13383441890E+03  0.13383441890E+03  0.00000000000E+00 0. -1.
         21   -1    0    0  503  502  0.00000000000E+00 -0.00000000000E+00 -0.18009780380E+03  0.18009780380E+03  0.00000000000E+00 0.  1.
         21    1    1    2  503  501 -0.73623571434E+02 -0.10773706194E+03 -0.10817669704E+03  0.16949897512E+03  0.00000000000E+00 0.  1.
          2    1    1    2  501    0  0.73623571434E+02  0.10773706194E+03  0.61913312129E+02  0.14443324757E+03  0.00000000000E+00 0. -1.
<mgrwt>
<rscale>  2 0.13049025E+03</rscale>
<asrwt>0</asrwt>
<pdfrwt beam="2">  1       21 0.27707354E-01 0.13049025E+03</pdfrwt>
<pdfrwt beam="1">  1        2 0.20589911E-01 0.13049025E+03</pdfrwt>
<totfact> 0.40767381E+04</totfact>
</mgrwt>
</event>
<event>
 4    1  0.5142205E+003  0.1069932E+03  0.7546771E-02  0.1266242E+00
         21   -1    0    0  501  502  0.00000000000E+00  0.00000000000E+00  0.14667847654E+03  0.14667847654E+03  0.00000000000E+00 0. -1.
         -3   -1    0    0    0  501 -0.00000000000E+00 -0.00000000000E+00 -0.26007186648E+03  0.26007186648E+03  0.00000000000E+00 0. -1.
         21    1    1    2  503  502  0.97942780644E+02 -0.43066888069E+02  0.11344815214E+03  0.15594238793E+03  0.00000000000E+00 0. -1.
         -3    1    1    2    0  503 -0.97942780644E+02  0.43066888069E+02 -0.22684154208E+03  0.25080795510E+03  0.00000000000E+00 0. -1.
<mgrwt>
<rscale>  2 0.10699320E+03</rscale>
<asrwt>0</asrwt>
<pdfrwt beam="1">  1       21 0.22565920E-01 0.10699320E+03</pdfrwt>
<pdfrwt beam="2">  1       -3 0.40011056E-01 0.10699320E+03</pdfrwt>
<totfact> 0.55097274E+03</totfact>
</mgrwt>
</event>
<event>
 4    1  0.5142205E+003  0.1064269E+03  0.7546771E-02  0.1267334E+00
         21   -1    0    0  503  502  0.00000000000E+00  0.00000000000E+00  0.26418984543E+03  0.26418984543E+03  0.00000000000E+00 0.  1.
          1   -1    0    0  502    0 -0.00000000000E+00 -0.00000000000E+00 -0.14447176015E+03  0.14447176015E+03  0.00000000000E+00 0. -1.
         21    1    1    2  503  501 -0.53698573217E+02 -0.91886575454E+02  0.23120979318E+03  0.25452828522E+03  0.00000000000E+00 0.  1.
          1    1    1    2  501    0  0.53698573217E+02  0.91886575454E+02 -0.11149170790E+03  0.15413332036E+03  0.00000000000E+00 0. -1.
<mgrwt>
<rscale>  2 0.10642687E+03</rscale>
<asrwt>0</asrwt>
<pdfrwt beam="1">  1       21 0.40644592E-01 0.10642687E+03</pdfrwt>
<pdfrwt beam="2">  1        1 0.22226425E-01 0.10642687E+03</pdfrwt>
<totfact> 0.14139354E+04</totfact>
</mgrwt>
</event>
<event>
 4    1  0.5142205E+003  0.1077526E+03  0.7546771E-02  0.1264789E+00
          2   -1    0    0  502    0 -0.00000000000E+00  0.00000000000E+00  0.16891595256E+04  0.16891595256E+04  0.00000000000E+00 0. -1.
         21   -1    0    0  503  502  0.00000000000E+00 -0.00000000000E+00 -0.27523049767E+03  0.27523049767E+03  0.00000000000E+00 0.  1.
         21    1    1    2  503  501 -0.73157653961E+02 -0.79111226440E+02 -0.26288827131E+03  0.28411418773E+03  0.00000000000E+00 0.  1.
          2    1    1    2  501    0  0.73157653961E+02  0.79111226440E+02  0.16768172992E+04  0.16802758355E+04  0.00000000000E+00 0. -1.
<mgrwt>
<rscale>  2 0.10775263E+03</rscale>
<asrwt>0</asrwt>
<pdfrwt beam="2">  1       21 0.42343155E-01 0.10775263E+03</pdfrwt>
<pdfrwt beam="1">  1        2 0.25987069E+00 0.10775263E+03</pdfrwt>
<totfact> 0.81001716E+02</totfact>
</mgrwt>
</event>
<event>
 4    1  0.5142205E+003  0.1399791E+03  0.7546771E-02  0.1213357E+00
         -1   -1    0    0    0  501 -0.00000000000E+00  0.00000000000E+00  0.46559470543E+03  0.46559470543E+03  0.00000000000E+00 0.  1.
         21   -1    0    0  501  502  0.00000000000E+00 -0.00000000000E+00 -0.36502722059E+03  0.36502722059E+03  0.00000000000E+00 0. -1.
         21    1    1    2  503  502  0.11904752844E+03 -0.73633137184E+02 -0.34035360407E+03  0.36801457678E+03  0.00000000000E+00 0. -1.
         -1    1    1    2    0  503 -0.11904752844E+03  0.73633137184E+02  0.44092108891E+03  0.46260734923E+03  0.00000000000E+00 0.  1.
<mgrwt>
<rscale>  2 0.13997912E+03</rscale>
<asrwt>0</asrwt>
<pdfrwt beam="2">  1       21 0.56158034E-01 0.13997912E+03</pdfrwt>
<pdfrwt beam="1">  1       -1 0.71629955E-01 0.13997912E+03</pdfrwt>
<totfact> 0.58550114E+02</totfact>
</mgrwt>
</event>
<event>
 4    1  0.5142205E+003  0.1049507E+03  0.7546771E-02  0.1270217E+00
          2   -1    0    0  503    0 -0.00000000000E+00  0.00000000000E+00  0.23322067129E+04  0.23322067129E+04  0.00000000000E+00 0.  1.
         21   -1    0    0  501  502  0.00000000000E+00 -0.00000000000E+00 -0.65755055289E+01  0.65755055289E+01  0.00000000000E+00 0. -1.
         21    1    1    2  503  502 -0.65044693476E+02  0.82364097416E+02  0.54209974268E+03  0.55216554375E+03  0.00000000000E+00 0. -1.
          2    1    1    2  501    0  0.65044693476E+02 -0.82364097416E+02  0.17835314647E+04  0.17866166747E+04  0.00000000000E+00 0.  1.
<mgrwt>
<rscale>  2 0.10495073E+03</rscale>
<asrwt>0</asrwt>
<pdfrwt beam="2">  1       21 0.10116181E-02 0.10495073E+03</pdfrwt>
<pdfrwt beam="1">  1        2 0.35880037E+00 0.10495073E+03</pdfrwt>
<totfact> 0.23876101E+05</totfact>
</mgrwt>
</event>
<event>
 4    1  0.5142205E+003  0.1106043E+03  0.7546771E-02  0.1259455E+00
          3   -1    0    0  502    0 -0.00000000000E+00  0.00000000000E+00  0.84590224300E+01  0.84590224300E+01  0.00000000000E+00 0.  1.
         21   -1    0    0  503  502  0.00000000000E+00 -0.00000000000E+00 -0.21806623976E+04  0.21806623976E+04  0.00000000000E+00 0.  1.
         21    1    1    2  503  501 -0.11057610898E+03 -0.24960760521E+01 -0.17213375857E+04  0.17248873558E+04  0.00000000000E+00 0.  1.
          3    1    1    2  501    0  0.11057610898E+03  0.24960760521E+01 -0.45086578948E+03  0.46423406423E+03  0.00000000000E+00 0.  1.
<mgrwt>
<rscale>  2 0.11060428E+03</rscale>
<asrwt>0</asrwt>
<pdfrwt beam="2">  1       21 0.33548639E+00 0.11060428E+03</pdfrwt>
<pdfrwt beam="1">  1        3 0.13013886E-02 0.11060428E+03</pdfrwt>
<totfact> 0.20388834E+03</totfact>
</mgrwt>
</event>
<event>
 4    1  0.5142205E+003  0.1079920E+03  0.7546771E-02  0.1264334E+00
         21   -1    0    0  503  502  0.00000000000E+00  0.00000000000E+00  0.11367079860E+03  0.11367079860E+03  0.00000000000E+00 0.  1.
          2   -1    0    0  502    0 -0.00000000000E+00 -0.00000000000E+00 -0.38476180493E+04  0.38476180493E+04  0.00000000000E+00 0. -1.
         21    1    1    2  503  501 -0.47418115261E+02 -0.97024718973E+02  0.87085386692E+02  0.13873045204E+03  0.00000000000E+00 0.  1.
          2    1    1    2  501    0  0.47418115261E+02  0.97024718973E+02 -0.38210326374E+04  0.38225583958E+04  0.00000000000E+00 0. -1.
<mgrwt>
<rscale>  2 0.10799201E+03</rscale>
<asrwt>0</asrwt>
<pdfrwt beam="1">  1       21 0.17487813E-01 0.10799201E+03</pdfrwt>
<pdfrwt beam="2">  1        2 0.59194130E+00 0.10799201E+03</pdfrwt>
<totfact> 0.25843709E+02</totfact>
</mgrwt>
</event>
<event>
 4    1  0.5142205E+003  0.1112437E+03  0.7546771E-02  0.1258284E+00
          2   -1    0    0  502    0 -0.00000000000E+00  0.00000000000E+00  0.10843096670E+04  0.10843096670E+04  0.00000000000E+00 0. -1.
         21   -1    0    0  503  502  0.00000000000E+00 -0.00000000000E+00 -0.30963757502E+03  0.30963757502E+03  0.00000000000E+00 0. -1.
         21    1    1    2  503  501  0.81831631020E+02 -0.75357497708E+02 -0.29667208699E+03  0.31684301396E+03  0.00000000000E+00 0. -1.
          2    1    1    2  501    0 -0.81831631020E+02  0.75357497708E+02  0.10713441789E+04  0.10771042280E+04  0.00000000000E+00 0. -1.
<mgrwt>
<rscale>  2 0.11124373E+03</rscale>
<asrwt>0</asrwt>
<pdfrwt beam="2">  1       21 0.47636551E-01 0.11124373E+03</pdfrwt>
<pdfrwt beam="1">  1        2 0.16681687E+00 0.11124373E+03</pdfrwt>
<totfact> 0.13287863E+03</totfact>
</mgrwt>
</event>
<event>
 4    1  0.5142205E+003  0.1025127E+03  0.7546771E-02  0.1275099E+00
         -3   -1    0    0    0  501 -0.00000000000E+00  0.00000000000E+00  0.11258906139E+03  0.11258906139E+03  0.00000000000E+00 0. -1.
         21   -1    0    0  503  502  0.00000000000E+00 -0.00000000000E+00 -0.19616505300E+03  0.19616505300E+03  0.00000000000E+00 0. -1.
         21    1    1    2  503  501  0.61113108406E+02 -0.82304576797E+02 -0.15355800923E+03  0.18463184335E+03  0.00000000000E+00 0. -1.
         -3    1    1    2    0  502 -0.61113108406E+02  0.82304576797E+02  0.69982017618E+02  0.12412227105E+03  0.00000000000E+00 0. -1.
<mgrwt>
<rscale>  2 0.10251271E+03</rscale>
<asrwt>0</asrwt>
<pdfrwt beam="2">  1       21 0.30179238E-01 0.10251271E+03</pdfrwt>
<pdfrwt beam="1">  1       -3 0.17321394E-01 0.10251271E+03</pdfrwt>
<totfact> 0.14461700E+04</totfact>
</mgrwt>
</event>
<event>
 4    1  0.5142205E+003  0.1041821E+03  0.7546771E-02  0.1271740E+00
         21   -1    0    0  503  502  0.00000000000E+00  0.00000000000E+00  0.15963244240E+02  0.15963244240E+02  0.00000000000E+00 0. -1.
          1   -1    0    0  502    0 -0.00000000000E+00 -0.00000000000E+00 -0.11140875864E+04  0.11140875864E+04  0.00000000000E+00 0.  1.
         21    1    1    2  503  501  0.17167451635E+02 -0.10275787655E+03 -0.19634096066E+03  0.22226937580E+03  0.00000000000E+00 0. -1.
          1    1    1    2  501    0 -0.17167451635E+02  0.10275787655E+03 -0.90178338152E+03  0.90778145485E+03  0.00000000000E+00 0.  1.
<mgrwt>
<rscale>  2 0.10418206E+03</rscale>
<asrwt>0</asrwt>
<pdfrwt beam="1">  1       21 0.24558824E-02 0.10418206E+03</pdfrwt>
<pdfrwt beam="2">  1        1 0.17139818E+00 0.10418206E+03</pdfrwt>
<totfact> 0.12971248E+05</totfact>
</mgrwt>
</event>
<event>
 4    1  0.5142205E+003  0.1476690E+03  0.7546771E-02  0.1203367E+00
         21   -1    0    0  501  502  0.00000000000E+00  0.00000000000E+00  0.37727533199E+02  0.37727533199E+02  0.00000000000E+00 0. -1.
          1   -1    0    0  503    0 -0.00000000000E+00 -0.00000000000E+00 -0.17123829715E+04  0.17123829715E+04  0.00000000000E+00 0. -1.
         21    1    1    2  503  502  0.13546767148E+03 -0.58776191542E+02 -0.12510336396E+03  0.19353806443E+03  0.00000000000E+00 0. -1.
          1    1    1    2  501    0 -0.13546767148E+03  0.58776191542E+02 -0.15495520743E+04  0.15565724402E+04  0.00000000000E+00 0. -1.
<mgrwt>
<rscale>  2 0.14766899E+03</rscale>
<asrwt>0</asrwt>
<pdfrwt beam="1">  1       21 0.58042367E-02 0.14766899E+03</pdfrwt>
<pdfrwt beam="2">  1        1 0.26344350E+00 0.14766899E+03</pdfrwt>
<totfact> 0.12539784E+04</totfact>
</mgrwt>
</event>
<event>
 4    1  0.5142205E+003  0.1918970E+03  0.7546771E-02  0.1156761E+00
         21   -1    0    0  501  502  0.00000000000E+00  0.00000000000E+00  0.56898085195E+02  0.56898085195E+02  0.00000000000E+00 0. -1.
          2   -1    0    0  503    0 -0.00000000000E+00 -0.00000000000E+00 -0.86723449299E+03  0.86723449299E+03  0.00000000000E+00 0. -1.
         21    1    1    2  503  502 -0.17360908521E+03  0.81757758815E+02 -0.17242269329E+03  0.25798067904E+03  0.00000000000E+00 0. -1.
          2    1    1    2  501    0  0.17360908521E+03 -0.81757758815E+02 -0.63791371450E+03  0.66615189915E+03  0.00000000000E+00 0. -1.
<mgrwt>
<rscale>  2 0.19189697E+03</rscale>
<asrwt>0</asrwt>
<pdfrwt beam="1">  1       21 0.87535522E-02 0.19189697E+03</pdfrwt>
<pdfrwt beam="2">  1        2 0.13342068E+00 0.19189697E+03</pdfrwt>
<totfact> 0.41498487E+04</totfact>
</mgrwt>
</event>
<event>
 4    1  0.5142205E+003  0.1244191E+03  0.7546771E-02  0.1235980E+00
         21   -1    0    0  501  502  0.00000000000E+00  0.00000000000E+00  0.37117600087E+02  0.37117600087E+02  0.00000000000E+00 0. -1.
         -2   -1    0    0    0  501 -0.00000000000E+00 -0.00000000000E+00 -0.10050220827E+04  0.10050220827E+04  0.00000000000E+00 0.  1.
         21    1    1    2  503  502  0.12440939771E+03  0.15574545538E+01 -0.85400957792E+02  0.15090873896E+03  0.00000000000E+00 0. -1.
         -2    1    1    2    0  503 -0.12440939771E+03 -0.15574545538E+01 -0.88250352484E+03  0.89123094384E+03  0.00000000000E+00 0.  1.
<mgrwt>
<rscale>  2 0.12441915E+03</rscale>
<asrwt>0</asrwt>
<pdfrwt beam="1">  1       21 0.57104010E-02 0.12441915E+03</pdfrwt>
<pdfrwt beam="2">  1       -2 0.15461876E+00 0.12441915E+03</pdfrwt>
<totfact> 0.52115583E+03</totfact>
</mgrwt>
</event>
<event>
 4    1  0.5142205E+003  0.1034648E+03  0.7546771E-02  0.1273174E+00
         21   -1    0    0  501  502  0.00000000000E+00  0.00000000000E+00  0.42042778574E+01  0.42042778574E+01  0.00000000000E+00 0. -1.
          2   -1    0    0  503    0 -0.00000000000E+00 -0.00000000000E+00 -0.40761347546E+04  0.40761347546E+04  0.00000000000E+00 0. -1.
         21    1    1    2  503  502  0.98169300373E+02 -0.32676618608E+02 -0.78606005189E+03  0.79284007096E+03  0.00000000000E+00 0. -1.
          2    1    1    2  501    0 -0.98169300373E+02  0.32676618608E+02 -0.32858704249E+04  0.32874989615E+04  0.00000000000E+00 0. -1.
<mgrwt>
<rscale>  2 0.10346484E+03</rscale>
<asrwt>0</asrwt>
<pdfrwt beam="1">  1       21 0.64681602E-03 0.10346484E+03</pdfrwt>
<pdfrwt beam="2">  1        2 0.62709374E+00 0.10346484E+03</pdfrwt>
<totfact> 0.41211120E+04</totfact>
</mgrwt>
</event>
<event>
 4    1  0.5142205E+003  0.1020416E+03  0.7546771E-02  0.1276060E+00
         -1   -1    0    0    0  501 -0.00000000000E+00  0.00000000000E+00  0.39067030483E+03  0.39067030483E+03  0.00000000000E+00 0. -1.
         21   -1    0    0  501  502  0.00000000000E+00 -0.00000000000E+00 -0.34326437178E+02  0.34326437178E+02  0.00000000000E+00 0.  1.
         21    1    1    2  503  502 -0.98510937217E+02  0.26609966744E+02  0.77701298406E+02  0.12825750214E+03  0.00000000000E+00 0.  1.
         -1    1    1    2    0  503  0.98510937217E+02 -0.26609966744E+02  0.27864256925E+03  0.29673923987E+03  0.00000000000E+00 0. -1.
<mgrwt>
<rscale>  2 0.10204163E+03</rscale>
<asrwt>0</asrwt>
<pdfrwt beam="2">  1       21 0.52809906E-02 0.10204163E+03</pdfrwt>
<pdfrwt beam="1">  1       -1 0.60103121E-01 0.10204163E+03</pdfrwt>
<totfact> 0.64439465E+04</totfact>
</mgrwt>
</event>
<event>
 4    1  0.5142205E+003  0.1261621E+03  0.7546771E-02  0.1233264E+00
         21   -1    0    0  503  502  0.00000000000E+00  0.00000000000E+00  0.50180120532E+02  0.50180120532E+02  0.00000000000E+00 0. -1.
          2   -1    0    0  502    0 -0.00000000000E+00 -0.00000000000E+00 -0.99626729743E+03  0.99626729743E+03  0.00000000000E+00 0. -1.
         21    1    1    2  503  501 -0.10329625359E+03 -0.72434584369E+02 -0.41069721793E+02  0.13267858556E+03  0.00000000000E+00 0. -1.
          2    1    1    2  501    0  0.10329625359E+03  0.72434584369E+02 -0.90501745510E+03  0.91376883240E+03  0.00000000000E+00 0. -1.
<mgrwt>
<rscale>  2 0.12616214E+03</rscale>
<asrwt>0</asrwt>
<pdfrwt beam="1">  1       21 0.77200188E-02 0.12616214E+03</pdfrwt>
<pdfrwt beam="2">  1        2 0.15327189E+00 0.12616214E+03</pdfrwt>
<totfact> 0.43137767E+04</totfact>
</mgrwt>
</event>
<event>
 4    1  0.5142205E+003  0.1211457E+03  0.7546771E-02  0.1241219E+00
          2   -1    0    0  502    0 -0.00000000000E+00  0.00000000000E+00  0.22324300071E+02  0.22324300071E+02  0.00000000000E+00 0.  1.
         21   -1    0    0  503  502  0.00000000000E+00 -0.00000000000E+00 -0.82149842024E+03  0.82149842024E+03  0.00000000000E+00 0. -1.
         21    1    1    2  503  501  0.11477259242E+03 -0.38775343382E+02 -0.58814873793E+03  0.60049580611E+03  0.00000000000E+00 0. -1.
          2    1    1    2  501    0 -0.11477259242E+03  0.38775343382E+02 -0.21102538224E+03  0.24332691420E+03  0.00000000000E+00 0.  1.
<mgrwt>
<rscale>  2 0.12114568E+03</rscale>
<asrwt>0</asrwt>
<pdfrwt beam="2">  1       21 0.12638436E+00 0.12114568E+03</pdfrwt>
<pdfrwt beam="1">  1        2 0.34345080E-02 0.12114568E+03</pdfrwt>
<totfact> 0.14586853E+04</totfact>
</mgrwt>
</event>
<event>
 4    1  0.5142205E+003  0.1081783E+03  0.7546771E-02  0.1263981E+00
         21   -1    0    0  501  502  0.00000000000E+00  0.00000000000E+00  0.29398177252E+03  0.29398177252E+03  0.00000000000E+00 0. -1.
          2   -1    0    0  503    0 -0.00000000000E+00 -0.00000000000E+00 -0.44408843768E+03  0.44408843768E+03  0.00000000000E+00 0.  1.
         21    1    1    2  503  502 -0.94613519993E+02  0.52448309415E+02  0.27705380514E+03  0.29742453541E+03  0.00000000000E+00 0. -1.
          2    1    1    2  501    0  0.94613519993E+02 -0.52448309415E+02 -0.42716047030E+03  0.44064567479E+03  0.00000000000E+00 0.  1.
<mgrwt>
<rscale>  2 0.10817829E+03</rscale>
<asrwt>0</asrwt>
<pdfrwt beam="1">  1       21 0.45227965E-01 0.10817829E+03</pdfrwt>
<pdfrwt beam="2">  1        2 0.68321298E-01 0.10817829E+03</pdfrwt>
<totfact> 0.43102768E+03</totfact>
</mgrwt>
</event>
<event>
 4    1  0.5142205E+003  0.1175944E+03  0.7546771E-02  0.1247119E+00
          2   -1    0    0  503    0 -0.00000000000E+00  0.00000000000E+00  0.24585302654E+04  0.24585302654E+04  0.00000000000E+00 0.  1.
         21   -1    0    0  501  502  0.00000000000E+00 -0.00000000000E+00 -0.67737525963E+01  0.67737525963E+01  0.00000000000E+00 0. -1.
         21    1    1    2  503  502 -0.10747250933E+03  0.47729542192E+02  0.71818745870E+03  0.72775110807E+03  0.00000000000E+00 0. -1.
          2    1    1    2  501    0  0.10747250933E+03 -0.47729542192E+02  0.17335690541E+04  0.17375529100E+04  0.00000000000E+00 0.  1.
<mgrwt>
<rscale>  2 0.11759443E+03</rscale>
<asrwt>0</asrwt>
<pdfrwt beam="2">  1       21 0.10421177E-02 0.11759443E+03</pdfrwt>
<pdfrwt beam="1">  1        2 0.37823471E+00 0.11759443E+03</pdfrwt>
<totfact> 0.19562559E+05</totfact>
</mgrwt>
</event>
<event>
 4    1  0.5142205E+003  0.1028115E+03  0.7546771E-02  0.1274492E+00
         21   -1    0    0  501  502  0.00000000000E+00  0.00000000000E+00  0.57480116617E+02  0.57480116617E+02  0.00000000000E+00 0. -1.
          1   -1    0    0  503    0 -0.00000000000E+00 -0.00000000000E+00 -0.19573809759E+03  0.19573809759E+03  0.00000000000E+00 0. -1.
         21    1    1    2  503  502 -0.10703591254E+01  0.10280597400E+03 -0.37983921962E+02  0.10960379686E+03  0.00000000000E+00 0. -1.
          1    1    1    2  501    0  0.10703591254E+01 -0.10280597400E+03 -0.10027405901E+03  0.14361441735E+03  0.00000000000E+00 0. -1.
<mgrwt>
<rscale>  2 0.10281155E+03</rscale>
<asrwt>0</asrwt>
<pdfrwt beam="1">  1       21 0.88430948E-02 0.10281155E+03</pdfrwt>
<pdfrwt beam="2">  1        1 0.30113554E-01 0.10281155E+03</pdfrwt>
<totfact> 0.16001715E+05</totfact>
</mgrwt>
</event>
<event>
 4    1  0.5142205E+003  0.1689189E+03  0.7546771E-02  0.1178980E+00
         21   -1    0    0  501  502  0.00000000000E+00  0.00000000000E+00  0.16426576895E+02  0.16426576895E+02  0.00000000000E+00 0.  1.
          2   -1    0    0  503    0 -0.00000000000E+00 -0.00000000000E+00 -0.21592580114E+04  0.21592580114E+04  0.00000000000E+00 0.  1.
         21    1    1    2  503  502 -0.16850540097E+03 -0.11812208259E+02 -0.59037398045E+03  0.61406435755E+03  0.00000000000E+00 0.  1.
          2    1    1    2  501    0  0.16850540097E+03  0.11812208259E+02 -0.15524574541E+04  0.15616202308E+04  0.00000000000E+00 0.  1.
<mgrwt>
<rscale>  2 0.16891891E+03</rscale>
<asrwt>0</asrwt>
<pdfrwt beam="1">  1       21 0.25271653E-02 0.16891891E+03</pdfrwt>
<pdfrwt beam="2">  1        2 0.33219358E+00 0.16891891E+03</pdfrwt>
<totfact> 0.67172722E+04</totfact>
</mgrwt>
</event>
<event>
 4    1  0.5142205E+003  0.1013772E+03  0.7546771E-02  0.1277426E+00
         21   -1    0    0  503  502  0.00000000000E+00  0.00000000000E+00  0.36723298126E+03  0.36723298126E+03  0.00000000000E+00 0. -1.
         -4   -1    0    0    0  501 -0.00000000000E+00 -0.00000000000E+00 -0.63138552804E+02  0.63138552804E+02  0.00000000000E+00 0.  1.
         21    1    1    2  503  501 -0.96910155036E+01 -0.10091289226E+03  0.31261025494E+03  0.32863733674E+03  0.00000000000E+00 0. -1.
         -4    1    1    2    0  502  0.96910155036E+01  0.10091289226E+03 -0.85158264832E+01  0.10173419733E+03  0.00000000000E+00 0.  1.
<mgrwt>
<rscale>  2 0.10137716E+03</rscale>
<asrwt>0</asrwt>
<pdfrwt beam="1">  1       21 0.56497381E-01 0.10137716E+03</pdfrwt>
<pdfrwt beam="2">  1       -4 0.97136237E-02 0.10137716E+03</pdfrwt>
<totfact> 0.94613664E+03</totfact>
</mgrwt>
</event>
<event>
 4    1  0.5142205E+003  0.1117524E+03  0.7546771E-02  0.1257359E+00
         21   -1    0    0  503  502  0.00000000000E+00  0.00000000000E+00  0.29265328334E+03  0.29265328334E+03  0.00000000000E+00 0.  1.
         -4   -1    0    0    0  501 -0.00000000000E+00 -0.00000000000E+00 -0.10352036508E+03  0.10352036508E+03  0.00000000000E+00 0. -1.
         21    1    1    2  503  501  0.41781253903E+02  0.10364807301E+03  0.24643265305E+03  0.27058759895E+03  0.00000000000E+00 0.  1.
         -4    1    1    2    0  502 -0.41781253903E+02 -0.10364807301E+03 -0.57299734787E+02  0.12558604948E+03  0.00000000000E+00 0. -1.
<mgrwt>
<rscale>  2 0.11175239E+03</rscale>
<asrwt>0</asrwt>
<pdfrwt beam="1">  1       21 0.45023582E-01 0.11175239E+03</pdfrwt>
<pdfrwt beam="2">  1       -4 0.15926210E-01 0.11175239E+03</pdfrwt>
<totfact> 0.65344590E+03</totfact>
</mgrwt>
</event>
<event>
 4    1  0.5142205E+003  0.1267725E+03  0.7546771E-02  0.1232325E+00
         21   -1    0    0  501  502  0.00000000000E+00  0.00000000000E+00  0.12758770493E+03  0.12758770493E+03  0.00000000000E+00 0. -1.
          1   -1    0    0  503    0 -0.00000000000E+00 -0.00000000000E+00 -0.55822608359E+03  0.55822608359E+03  0.00000000000E+00 0. -1.
         21    1    1    2  503  502 -0.12655017766E+03 -0.75050031644E+01  0.86429543021E+02  0.15343186907E+03  0.00000000000E+00 0. -1.
          1    1    1    2  501    0  0.12655017766E+03  0.75050031644E+01 -0.51706792168E+03  0.53238191946E+03  0.00000000000E+00 0. -1.
<mgrwt>
<rscale>  2 0.12677252E+03</rscale>
<asrwt>0</asrwt>
<pdfrwt beam="1">  1       21 0.19628877E-01 0.12677252E+03</pdfrwt>
<pdfrwt beam="2">  1        1 0.85880937E-01 0.12677252E+03</pdfrwt>
<totfact> 0.10457166E+04</totfact>
</mgrwt>
</event>
<event>
 4    1  0.5142205E+003  0.1230363E+03  0.7546771E-02  0.1238171E+00
         21   -1    0    0  501  502  0.00000000000E+00  0.00000000000E+00  0.11207404341E+03  0.11207404341E+03  0.00000000000E+00 0.  1.
          2   -1    0    0  503    0 -0.00000000000E+00 -0.00000000000E+00 -0.73140801758E+03  0.73140801758E+03  0.00000000000E+00 0.  1.
         21    1    1    2  503  502  0.11149739969E+03  0.52021622749E+02  0.71146210177E+02  0.14212565776E+03  0.00000000000E+00 0.  1.
          2    1    1    2  501    0 -0.11149739969E+03 -0.52021622749E+02 -0.69048018435E+03  0.70135640323E+03  0.00000000000E+00 0.  1.
<mgrwt>
<rscale>  2 0.12303625E+03</rscale>
<asrwt>0</asrwt>
<pdfrwt beam="1">  1       21 0.17242161E-01 0.12303625E+03</pdfrwt>
<pdfrwt beam="2">  1        2 0.11252431E+00 0.12303625E+03</pdfrwt>
<totfact> 0.15476525E+04</totfact>
</mgrwt>
</event>
<event>
 4    1  0.5142205E+003  0.1016979E+03  0.7546771E-02  0.1276765E+00
         21   -1    0    0  501  502  0.00000000000E+00  0.00000000000E+00  0.66468834240E+03  0.66468834240E+03  0.00000000000E+00 0.  1.
          3   -1    0    0  503    0 -0.00000000000E+00 -0.00000000000E+00 -0.36575594896E+02  0.36575594896E+02  0.00000000000E+00 0.  1.
         21    1    1    2  503  502 -0.45781065126E+02  0.90810564300E+02  0.57983985974E+03  0.58869068912E+03  0.00000000000E+00 0.  1.
          3    1    1    2  501    0  0.45781065126E+02 -0.90810564300E+02  0.48272887768E+02  0.11257324818E+03  0.00000000000E+00 0.  1.
<mgrwt>
<rscale>  2 0.10169791E+03</rscale>
<asrwt>0</asrwt>
<pdfrwt beam="1">  1       21 0.10225974E+00 0.10169791E+03</pdfrwt>
<pdfrwt beam="2">  1        3 0.56270151E-02 0.10169791E+03</pdfrwt>
<totfact> 0.71055546E+03</totfact>
</mgrwt>
</event>
<event>
 4    1  0.5142205E+003  0.1394845E+03  0.7546771E-02  0.1214024E+00
         21   -1    0    0  501  502  0.00000000000E+00  0.00000000000E+00  0.10694999594E+03  0.10694999594E+03  0.00000000000E+00 0.  1.
          2   -1    0    0  503    0 -0.00000000000E+00 -0.00000000000E+00 -0.80323376044E+03  0.80323376044E+03  0.00000000000E+00 0.  1.
         21    1    1    2  503  502  0.34967641405E+02  0.13503030108E+03  0.52111474880E+02  0.14890105430E+03  0.00000000000E+00 0.  1.
          2    1    1    2  501    0 -0.34967641405E+02 -0.13503030108E+03 -0.74839523938E+03  0.76128270208E+03  0.00000000000E+00 0.  1.
<mgrwt>
<rscale>  2 0.13948447E+03</rscale>
<asrwt>0</asrwt>
<pdfrwt beam="1">  1       21 0.16453845E-01 0.13948447E+03</pdfrwt>
<pdfrwt beam="2">  1        2 0.12357443E+00 0.13948447E+03</pdfrwt>
<totfact> 0.14972402E+04</totfact>
</mgrwt>
</event>
<event>
 4    1  0.5142205E+003  0.1437916E+03  0.7546771E-02  0.1208316E+00
          1   -1    0    0  503    0 -0.00000000000E+00  0.00000000000E+00  0.67413533913E+02  0.67413533913E+02  0.00000000000E+00 0.  1.
         21   -1    0    0  501  502  0.00000000000E+00 -0.00000000000E+00 -0.99708705894E+03  0.99708705894E+03  0.00000000000E+00 0.  1.
         21    1    1    2  503  502 -0.13678963883E+03  0.44324085497E+02 -0.90772515504E+03  0.91904351743E+03  0.00000000000E+00 0.  1.
          1    1    1    2  501    0  0.13678963883E+03 -0.44324085497E+02 -0.21948369992E+02  0.14545707542E+03  0.00000000000E+00 0.  1.
<mgrwt>
<rscale>  2 0.14379162E+03</rscale>
<asrwt>0</asrwt>
<pdfrwt beam="2">  1       21 0.15339801E+00 0.14379162E+03</pdfrwt>
<pdfrwt beam="1">  1        1 0.10371313E-01 0.14379162E+03</pdfrwt>
<totfact> 0.18763347E+03</totfact>
</mgrwt>
</event>
<event>
 4    1  0.5142205E+003  0.1022441E+03  0.7546771E-02  0.1275646E+00
         21   -1    0    0  503  502  0.00000000000E+00  0.00000000000E+00  0.93328438178E+03  0.93328438178E+03  0.00000000000E+00 0. -1.
         -1   -1    0    0    0  501 -0.00000000000E+00 -0.00000000000E+00 -0.13102852933E+04  0.13102852933E+04  0.00000000000E+00 0. -1.
         21    1    1    2  503  501  0.14994852936E+02 -0.10113858556E+03  0.92847922576E+03  0.93409182191E+03  0.00000000000E+00 0. -1.
         -1    1    1    2    0  502 -0.14994852936E+02  0.10113858556E+03 -0.13054801373E+04  0.13094778532E+04  0.00000000000E+00 0. -1.
<mgrwt>
<rscale>  2 0.10224412E+03</rscale>
<asrwt>0</asrwt>
<pdfrwt beam="1">  1       21 0.14358221E+00 0.10224412E+03</pdfrwt>
<pdfrwt beam="2">  1       -1 0.20158235E+00 0.10224412E+03</pdfrwt>
<totfact> 0.59666477E+00</totfact>
</mgrwt>
</event>
<event>
 4    1  0.5142205E+003  0.1535342E+03  0.7546771E-02  0.1196196E+00
          2   -1    0    0  502    0 -0.00000000000E+00  0.00000000000E+00  0.17526615326E+04  0.17526615326E+04  0.00000000000E+00 0.  1.
         21   -1    0    0  503  502  0.00000000000E+00 -0.00000000000E+00 -0.38939735276E+02  0.38939735276E+02  0.00000000000E+00 0. -1.
         21    1    1    2  503  501 -0.15346889173E+03  0.44778574418E+01  0.13209094134E+03  0.20253584552E+03  0.00000000000E+00 0. -1.
          2    1    1    2  501    0  0.15346889173E+03 -0.44778574418E+01  0.15816308560E+04  0.15890654224E+04  0.00000000000E+00 0.  1.
<mgrwt>
<rscale>  2 0.15353420E+03</rscale>
<asrwt>0</asrwt>
<pdfrwt beam="2">  1       21 0.59907299E-02 0.15353420E+03</pdfrwt>
<pdfrwt beam="1">  1        2 0.26964018E+00 0.15353420E+03</pdfrwt>
<totfact> 0.25891545E+04</totfact>
</mgrwt>
</event>
<event>
 4    1  0.5142205E+003  0.1342336E+03  0.7546771E-02  0.1221306E+00
         21   -1    0    0  501  502  0.00000000000E+00  0.00000000000E+00  0.48578393075E+02  0.48578393075E+02  0.00000000000E+00 0.  1.
          1   -1    0    0  503    0 -0.00000000000E+00 -0.00000000000E+00 -0.20585113292E+04  0.20585113292E+04  0.00000000000E+00 0. -1.
         21    1    1    2  503  502  0.49961041273E+02 -0.12458958865E+03 -0.51050508835E+02  0.14361345932E+03  0.00000000000E+00 0.  1.
          1    1    1    2  501    0 -0.49961041273E+02  0.12458958865E+03 -0.19588824273E+04  0.19634762630E+04  0.00000000000E+00 0. -1.
<mgrwt>
<rscale>  2 0.13423364E+03</rscale>
<asrwt>0</asrwt>
<pdfrwt beam="1">  1       21 0.74735965E-02 0.13423364E+03</pdfrwt>
<pdfrwt beam="2">  1        1 0.31669416E+00 0.13423364E+03</pdfrwt>
<totfact> 0.49331606E+03</totfact>
</mgrwt>
</event>
<event>
 4    1  0.5142205E+003  0.1750969E+03  0.7546771E-02  0.1172634E+00
         21   -1    0    0  503  502  0.00000000000E+00  0.00000000000E+00  0.38743115832E+02  0.38743115832E+02  0.00000000000E+00 0. -1.
          2   -1    0    0  502    0 -0.00000000000E+00 -0.00000000000E+00 -0.27262566910E+04  0.27262566910E+04  0.00000000000E+00 0.  1.
         21    1    1    2  503  501  0.13390615486E+02 -0.17458413482E+03 -0.17905963541E+03  0.25044217246E+03  0.00000000000E+00 0. -1.
          2    1    1    2  501    0 -0.13390615486E+02  0.17458413482E+03 -0.25084539397E+04  0.25145576343E+04  0.00000000000E+00 0.  1.
<mgrwt>
<rscale>  2 0.17509691E+03</rscale>
<asrwt>0</asrwt>
<pdfrwt beam="1">  1       21 0.59604808E-02 0.17509691E+03</pdfrwt>
<pdfrwt beam="2">  1        2 0.41942401E+00 0.17509691E+03</pdfrwt>
<totfact> 0.79299969E+03</totfact>
</mgrwt>
</event>
<event>
 4    1  0.5142205E+003  0.1537802E+03  0.7546771E-02  0.1195903E+00
         -1   -1    0    0    0  501 -0.00000000000E+00  0.00000000000E+00  0.55124437849E+03  0.55124437849E+03  0.00000000000E+00 0.  1.
         21   -1    0    0  503  502  0.00000000000E+00 -0.00000000000E+00 -0.89079395447E+02  0.89079395447E+02  0.00000000000E+00 0.  1.
         21    1    1    2  503  501 -0.98320847552E+02  0.11824279073E+03  0.56417489936E+00  0.15378122420E+03  0.00000000000E+00 0.  1.
         -1    1    1    2    0  502  0.98320847552E+02 -0.11824279073E+03  0.46160080815E+03  0.48654254974E+03  0.00000000000E+00 0.  1.
<mgrwt>
<rscale>  2 0.15378019E+03</rscale>
<asrwt>0</asrwt>
<pdfrwt beam="2">  1       21 0.13704523E-01 0.15378019E+03</pdfrwt>
<pdfrwt beam="1">  1       -1 0.84806825E-01 0.15378019E+03</pdfrwt>
<totfact> 0.62774116E+03</totfact>
</mgrwt>
</event>
<event>
 4    1  0.5142205E+003  0.1093873E+03  0.7546771E-02  0.1261709E+00
          1   -1    0    0  503    0 -0.00000000000E+00  0.00000000000E+00  0.57289628005E+03  0.57289628005E+03  0.00000000000E+00 0.  1.
         21   -1    0    0  501  502  0.00000000000E+00 -0.00000000000E+00 -0.47712153792E+02  0.47712153792E+02  0.00000000000E+00 0.  1.
         21    1    1    2  503  502 -0.10848226246E+03 -0.14041715754E+02  0.29916093074E+02  0.11340433711E+03  0.00000000000E+00 0.  1.
          1    1    1    2  501    0  0.10848226246E+03  0.14041715754E+02  0.49526803318E+03  0.50720409673E+03  0.00000000000E+00 0.  1.
<mgrwt>
<rscale>  2 0.10938725E+03</rscale>
<asrwt>0</asrwt>
<pdfrwt beam="2">  1       21 0.73403318E-02 0.10938725E+03</pdfrwt>
<pdfrwt beam="1">  1        1 0.88137884E-01 0.10938725E+03</pdfrwt>
<totfact> 0.57707214E+04</totfact>
</mgrwt>
</event>
<event>
 4    1  0.5142205E+003  0.1126828E+03  0.7546771E-02  0.1255681E+00
         -1   -1    0    0    0  501 -0.00000000000E+00  0.00000000000E+00  0.16671684966E+04  0.16671684966E+04  0.00000000000E+00 0.  1.
         21   -1    0    0  503  502  0.00000000000E+00 -0.00000000000E+00 -0.78043106822E+01  0.78043106822E+01  0.00000000000E+00 0. -1.
         21    1    1    2  503  501  0.10255234846E+02  0.11221512776E+03  0.69964257574E+03  0.70865868973E+03  0.00000000000E+00 0. -1.
         -1    1    1    2    0  502 -0.10255234846E+02 -0.11221512776E+03  0.95972161015E+03  0.96631411752E+03  0.00000000000E+00 0.  1.
<mgrwt>
<rscale>  2 0.11268276E+03</rscale>
<asrwt>0</asrwt>
<pdfrwt beam="2">  1       21 0.12006645E-02 0.11268276E+03</pdfrwt>
<pdfrwt beam="1">  1       -1 0.25648718E+00 0.11268276E+03</pdfrwt>
<totfact> 0.19425852E+04</totfact>
</mgrwt>
</event>
<event>
 4    1  0.5142205E+003  0.1311513E+03  0.7546771E-02  0.1225757E+00
         21   -1    0    0  503  502  0.00000000000E+00  0.00000000000E+00  0.35619494060E+02  0.35619494060E+02  0.00000000000E+00 0. -1.
         -4   -1    0    0    0  501 -0.00000000000E+00 -0.00000000000E+00 -0.91430363875E+03  0.91430363875E+03  0.00000000000E+00 0. -1.
         21    1    1    2  503  501 -0.52905626093E+02  0.12000695625E+03 -0.11308882182E+03  0.17317550763E+03  0.00000000000E+00 0. -1.
         -4    1    1    2    0  502  0.52905626093E+02 -0.12000695625E+03 -0.76559532287E+03  0.77674762518E+03  0.00000000000E+00 0. -1.
<mgrwt>
<rscale>  2 0.13115134E+03</rscale>
<asrwt>0</asrwt>
<pdfrwt beam="1">  1       21 0.54799217E-02 0.13115134E+03</pdfrwt>
<pdfrwt beam="2">  1       -4 0.14066211E+00 0.13115134E+03</pdfrwt>
<totfact> 0.35481360E+03</totfact>
</mgrwt>
</event>
<event>
 4    1  0.5142205E+003  0.1261342E+03  0.7546771E-02  0.1233307E+00
          1   -1    0    0  503    0 -0.00000000000E+00  0.00000000000E+00  0.13601698098E+04  0.13601698098E+04  0.00000000000E+00 0.  1.
         21   -1    0    0  501  502  0.00000000000E+00 -0.00000000000E+00 -0.20776691281E+02  0.20776691281E+02  0.00000000000E+00 0.  1.
         21    1    1    2  503  502 -0.11449475496E+03 -0.52922429429E+02  0.21324414966E+03  0.24775572610E+03  0.00000000000E+00 0.  1.
          1    1    1    2  501    0  0.11449475496E+03  0.52922429429E+02  0.11261489689E+04  0.11331907750E+04  0.00000000000E+00 0.  1.
<mgrwt>
<rscale>  2 0.12613418E+03</rscale>
<asrwt>0</asrwt>
<pdfrwt beam="2">  1       21 0.31964151E-02 0.12613418E+03</pdfrwt>
<pdfrwt beam="1">  1        1 0.20925682E+00 0.12613418E+03</pdfrwt>
<totfact> 0.57672107E+04</totfact>
</mgrwt>
</event>
<event>
 4    1  0.5142205E+003  0.1026426E+03  0.7546771E-02  0.1274835E+00
         -4   -1    0    0    0  501 -0.00000000000E+00  0.00000000000E+00  0.36500168701E+02  0.36500168701E+02  0.00000000000E+00 0.  1.
         21   -1    0    0  503  502  0.00000000000E+00 -0.00000000000E+00 -0.42621274137E+03  0.42621274137E+03  0.00000000000E+00 0. -1.
         21    1    1    2  503  501  0.63253672885E+02 -0.80836167299E+02 -0.32629705452E+03  0.34206034682E+03  0.00000000000E+00 0. -1.
         -4    1    1    2    0  502 -0.63253672885E+02  0.80836167299E+02 -0.63415518148E+02  0.12065256325E+03  0.00000000000E+00 0.  1.
<mgrwt>
<rscale>  2 0.10264265E+03</rscale>
<asrwt>0</asrwt>
<pdfrwt beam="2">  1       21 0.65571194E-01 0.10264265E+03</pdfrwt>
<pdfrwt beam="1">  1       -4 0.56154103E-02 0.10264265E+03</pdfrwt>
<totfact> 0.16963591E+04</totfact>
</mgrwt>
</event>
<event>
 4    1  0.5142205E+003  0.1490031E+03  0.7546771E-02  0.1201703E+00
         21   -1    0    0  501  502  0.00000000000E+00  0.00000000000E+00  0.25417798599E+02  0.25417798599E+02  0.00000000000E+00 0.  1.
          2   -1    0    0  503    0 -0.00000000000E+00 -0.00000000000E+00 -0.92480807810E+03  0.92480807810E+03  0.00000000000E+00 0.  1.
         21    1    1    2  503  502  0.13234266276E+03 -0.68464272294E+02 -0.33776453683E+03  0.36917044750E+03  0.00000000000E+00 0.  1.
          2    1    1    2  501    0 -0.13234266276E+03  0.68464272294E+02 -0.56162574267E+03  0.58105542920E+03  0.00000000000E+00 0.  1.
<mgrwt>
<rscale>  2 0.14900314E+03</rscale>
<asrwt>0</asrwt>
<pdfrwt beam="1">  1       21 0.39104304E-02 0.14900314E+03</pdfrwt>
<pdfrwt beam="2">  1        2 0.14227817E+00 0.14900314E+03</pdfrwt>
<totfact> 0.15077171E+05</totfact>
</mgrwt>
</event>
<event>
 4    1  0.5142205E+003  0.1089949E+03  0.7546771E-02  0.1262442E+00
         21   -1    0    0  503  502  0.00000000000E+00  0.00000000000E+00  0.43365263404E+02  0.43365263404E+02  0.00000000000E+00 0.  1.
          1   -1    0    0  502    0 -0.00000000000E+00 -0.00000000000E+00 -0.60771208964E+03  0.60771208964E+03  0.00000000000E+00 0.  1.
         21    1    1    2  503  501 -0.90549391551E+02 -0.60668815147E+02 -0.40920589275E+02  0.11642333129E+03  0.00000000000E+00 0.  1.
          1    1    1    2  501    0  0.90549391551E+02  0.60668815147E+02 -0.52342623696E+03  0.53465402175E+03  0.00000000000E+00 0.  1.
<mgrwt>
<rscale>  2 0.10899494E+03</rscale>
<asrwt>0</asrwt>
<pdfrwt beam="1">  1       21 0.66715787E-02 0.10899494E+03</pdfrwt>
<pdfrwt beam="2">  1        1 0.93494171E-01 0.10899494E+03</pdfrwt>
<totfact> 0.62724678E+04</totfact>
</mgrwt>
</event>
<event>
 4    1  0.5142205E+003  0.1442588E+03  0.7546771E-02  0.1207711E+00
         21   -1    0    0  503  502  0.00000000000E+00  0.00000000000E+00  0.12069410709E+03  0.12069410709E+03  0.00000000000E+00 0. -1.
          2   -1    0    0  502    0 -0.00000000000E+00 -0.00000000000E+00 -0.62722311244E+03  0.62722311244E+03  0.00000000000E+00 0.  1.
         21    1    1    2  503  501 -0.28991159958E+02  0.14131568609E+03  0.65171466076E+02  0.15829696928E+03  0.00000000000E+00 0. -1.
          2    1    1    2  501    0  0.28991159958E+02 -0.14131568609E+03 -0.57170047142E+03  0.58962025026E+03  0.00000000000E+00 0.  1.
<mgrwt>
<rscale>  2 0.14425883E+03</rscale>
<asrwt>0</asrwt>
<pdfrwt beam="1">  1       21 0.18568324E-01 0.14425883E+03</pdfrwt>
<pdfrwt beam="2">  1        2 0.96495863E-01 0.14425883E+03</pdfrwt>
<totfact> 0.16116956E+04</totfact>
</mgrwt>
</event>
<event>
 4    1  0.5142205E+003  0.1021436E+03  0.7546771E-02  0.1275852E+00
          2   -1    0    0  502    0 -0.00000000000E+00  0.00000000000E+00  0.14217703578E+04  0.14217703578E+04  0.00000000000E+00 0.  1.
         21   -1    0    0  503  502  0.00000000000E+00 -0.00000000000E+00 -0.12226414711E+02  0.12226414711E+02  0.00000000000E+00 0.  1.
         21    1    1    2  503  501 -0.94862110702E+02  0.37874640207E+02  0.25141377992E+03  0.27137095856E+03  0.00000000000E+00 0.  1.
          2    1    1    2  501    0  0.94862110702E+02 -0.37874640207E+02  0.11581301631E+04  0.11626258139E+04  0.00000000000E+00 0.  1.
<mgrwt>
<rscale>  2 0.10214357E+03</rscale>
<asrwt>0</asrwt>
<pdfrwt beam="2">  1       21 0.18809880E-02 0.10214357E+03</pdfrwt>
<pdfrwt beam="1">  1        2 0.21873377E+00 0.10214357E+03</pdfrwt>
<totfact> 0.25968397E+05</totfact>
</mgrwt>
</event>
<event>
 4    1  0.5142205E+003  0.1703323E+03  0.7546771E-02  0.1177502E+00
         21   -1    0    0  501  502  0.00000000000E+00  0.00000000000E+00  0.61615090672E+03  0.61615090672E+03  0.00000000000E+00 0. -1.
         -3   -1    0    0    0  501 -0.00000000000E+00 -0.00000000000E+00 -0.16554543084E+03  0.16554543084E+03  0.00000000000E+00 0.  1.
         21    1    1    2  503  502  0.13178876634E+03  0.10791110512E+03  0.55592440875E+03  0.58143360222E+03  0.00000000000E+00 0. -1.
         -3    1    1    2    0  503 -0.13178876634E+03 -0.10791110512E+03 -0.10531893287E+03  0.20026273534E+03  0.00000000000E+00 0.  1.
<mgrwt>
<rscale>  2 0.17033228E+03</rscale>
<asrwt>0</asrwt>
<pdfrwt beam="1">  1       21 0.94792446E-01 0.17033228E+03</pdfrwt>
<pdfrwt beam="2">  1       -3 0.25468528E-01 0.17033228E+03</pdfrwt>
<totfact> 0.66949067E+02</totfact>
</mgrwt>
</event>
<event>
 4    1  0.5142205E+003  0.3409152E+03  0.7546771E-02  0.1066407E+00
         21   -1    0    0  501  502  0.00000000000E+00  0.00000000000E+00  0.32662539473E+03  0.32662539473E+03  0.00000000000E+00 0. -1.
          1   -1    0    0  503    0 -0.00000000000E+00 -0.00000000000E+00 -0.21734792349E+04  0.21734792349E+04  0.00000000000E+00 0. -1.
         21    1    1    2  503  502 -0.16085682156E+03  0.30057984947E+03  0.21972897989E+03  0.40559091157E+03  0.00000000000E+00 0. -1.
          1    1    1    2  501    0  0.16085682156E+03 -0.30057984947E+03 -0.20665828201E+04  0.20945137181E+04  0.00000000000E+00 0. -1.
<mgrwt>
<rscale>  2 0.34091518E+03</rscale>
<asrwt>0</asrwt>
<pdfrwt beam="1">  1       21 0.50250060E-01 0.34091518E+03</pdfrwt>
<pdfrwt beam="2">  1        1 0.33438142E+00 0.34091518E+03</pdfrwt>
<totfact> 0.10145221E+02</totfact>
</mgrwt>
</event>
<event>
 4    1  0.5142205E+003  0.1172680E+03  0.7546771E-02  0.1247673E+00
         21   -1    0    0  501  502  0.00000000000E+00  0.00000000000E+00  0.28965906493E+02  0.28965906493E+02  0.00000000000E+00 0.  1.
          2   -1    0    0  503    0 -0.00000000000E+00 -0.00000000000E+00 -0.55691087445E+03  0.55691087445E+03  0.00000000000E+00 0.  1.
         21    1    1    2  503  502  0.44609037402E+02 -0.10845193483E+03 -0.15146134960E+03  0.19155241792E+03  0.00000000000E+00 0.  1.
          2    1    1    2  501    0 -0.44609037402E+02  0.10845193483E+03 -0.37648361836E+03  0.39432436303E+03  0.00000000000E+00 0.  1.
<mgrwt>
<rscale>  2 0.11726802E+03</rscale>
<asrwt>0</asrwt>
<pdfrwt beam="1">  1       21 0.44562932E-02 0.11726802E+03</pdfrwt>
<pdfrwt beam="2">  1        2 0.85678598E-01 0.11726802E+03</pdfrwt>
<totfact> 0.22154616E+05</totfact>
</mgrwt>
</event>
<event>
 4    1  0.5142205E+003  0.1130707E+03  0.7546771E-02  0.1254987E+00
         21   -1    0    0  503  502  0.00000000000E+00  0.00000000000E+00  0.34395983627E+02  0.34395983627E+02  0.00000000000E+00 0.  1.
         -1   -1    0    0    0  501 -0.00000000000E+00 -0.00000000000E+00 -0.14287558363E+04  0.14287558363E+04  0.00000000000E+00 0. -1.
         21    1    1    2  503  501  0.10465549627E+03 -0.42804324681E+02 -0.67921013569E+02  0.13190241542E+03  0.00000000000E+00 0.  1.
         -1    1    1    2    0  502 -0.10465549627E+03  0.42804324681E+02 -0.13264388391E+04  0.13312494045E+04  0.00000000000E+00 0. -1.
<mgrwt>
<rscale>  2 0.11307070E+03</rscale>
<asrwt>0</asrwt>
<pdfrwt beam="1">  1       21 0.52916909E-02 0.11307070E+03</pdfrwt>
<pdfrwt beam="2">  1       -1 0.21980854E+00 0.11307070E+03</pdfrwt>
<totfact> 0.29504399E+03</totfact>
</mgrwt>
</event>
<event>
 4    1  0.5142205E+003  0.2033662E+03  0.7546771E-02  0.1146930E+00
          2   -1    0    0  502    0 -0.00000000000E+00  0.00000000000E+00  0.17393262227E+04  0.17393262227E+04  0.00000000000E+00 0.  1.
         21   -1    0    0  503  502  0.00000000000E+00 -0.00000000000E+00 -0.23988080474E+02  0.23988080474E+02  0.00000000000E+00 0.  1.
         21    1    1    2  503  501  0.19695666276E+03 -0.50654618747E+02  0.94016345945E+03  0.96190703703E+03  0.00000000000E+00 0.  1.
          2    1    1    2  501    0 -0.19695666276E+03  0.50654618747E+02  0.77517468280E+03  0.80140726617E+03  0.00000000000E+00 0.  1.
<mgrwt>
<rscale>  2 0.20336622E+03</rscale>
<asrwt>0</asrwt>
<pdfrwt beam="2">  1       21 0.36904753E-02 0.20336622E+03</pdfrwt>
<pdfrwt beam="1">  1        2 0.26758855E+00 0.20336622E+03</pdfrwt>
<totfact> 0.58858126E+04</totfact>
</mgrwt>
</event>
<event>
 4    1  0.5142205E+003  0.1190323E+03  0.7546771E-02  0.1244702E+00
         21   -1    0    0  501  502  0.00000000000E+00  0.00000000000E+00  0.18516872900E+03  0.18516872900E+03  0.00000000000E+00 0.  1.
          1   -1    0    0  503    0 -0.00000000000E+00 -0.00000000000E+00 -0.90572702334E+02  0.90572702334E+02  0.00000000000E+00 0.  1.
         21    1    1    2  503  502 -0.10447302358E+03  0.57044600654E+02  0.10160899734E+03  0.15650267557E+03  0.00000000000E+00 0.  1.
          1    1    1    2  501    0  0.10447302358E+03 -0.57044600654E+02 -0.70129706703E+01  0.11923875577E+03  0.00000000000E+00 0.  1.
<mgrwt>
<rscale>  2 0.11903234E+03</rscale>
<asrwt>0</asrwt>
<pdfrwt beam="1">  1       21 0.28487497E-01 0.11903234E+03</pdfrwt>
<pdfrwt beam="2">  1        1 0.13934262E-01 0.11903234E+03</pdfrwt>
<totfact> 0.51326834E+04</totfact>
</mgrwt>
</event>
<event>
 4    1  0.5142205E+003  0.1249450E+03  0.7546771E-02  0.1235155E+00
          2   -1    0    0  502    0 -0.00000000000E+00  0.00000000000E+00  0.24466393350E+04  0.24466393350E+04  0.00000000000E+00 0. -1.
         21   -1    0    0  503  502  0.00000000000E+00 -0.00000000000E+00 -0.68494903327E+01  0.68494903327E+01  0.00000000000E+00 0. -1.
         21    1    1    2  503  501 -0.99692423961E+01 -0.12454668227E+03  0.89896062683E+03  0.90760204409E+03  0.00000000000E+00 0. -1.
          2    1    1    2  501    0  0.99692423961E+01  0.12454668227E+03  0.15408292179E+04  0.15458867813E+04  0.00000000000E+00 0. -1.
<mgrwt>
<rscale>  2 0.12494504E+03</rscale>
<asrwt>0</asrwt>
<pdfrwt beam="2">  1       21 0.10537697E-02 0.12494504E+03</pdfrwt>
<pdfrwt beam="1">  1        2 0.37640536E+00 0.12494504E+03</pdfrwt>
<totfact> 0.19491344E+05</totfact>
</mgrwt>
</event>
<event>
 4    1  0.5142205E+003  0.1490186E+03  0.7546771E-02  0.1201684E+00
          2   -1    0    0  502    0 -0.00000000000E+00  0.00000000000E+00  0.12830936054E+04  0.12830936054E+04  0.00000000000E+00 0.  1.
         21   -1    0    0  503  502  0.00000000000E+00 -0.00000000000E+00 -0.17607075384E+02  0.17607075384E+02  0.00000000000E+00 0. -1.
         21    1    1    2  503  501 -0.14800795683E+03  0.17326085525E+02  0.54784630163E+03  0.56775181086E+03  0.00000000000E+00 0. -1.
          2    1    1    2  501    0  0.14800795683E+03 -0.17326085525E+02  0.71764022837E+03  0.73294886991E+03  0.00000000000E+00 0.  1.
<mgrwt>
<rscale>  2 0.14901862E+03</rscale>
<asrwt>0</asrwt>
<pdfrwt beam="2">  1       21 0.27087818E-02 0.14901862E+03</pdfrwt>
<pdfrwt beam="1">  1        2 0.19739894E+00 0.14901862E+03</pdfrwt>
<totfact> 0.17174244E+05</totfact>
</mgrwt>
</event>
<event>
 4    1  0.5142205E+003  0.1104181E+03  0.7546771E-02  0.1259798E+00
          2   -1    0    0  503    0 -0.00000000000E+00  0.00000000000E+00  0.52317191414E+03  0.52317191414E+03  0.00000000000E+00 0. -1.
         21   -1    0    0  501  502  0.00000000000E+00 -0.00000000000E+00 -0.50007471537E+02  0.50007471537E+02  0.00000000000E+00 0.  1.
         21    1    1    2  503  502  0.71886443328E+02 -0.83812268697E+02  0.27159155833E+02  0.11370917669E+03  0.00000000000E+00 0.  1.
          2    1    1    2  501    0 -0.71886443328E+02  0.83812268697E+02  0.44600528677E+03  0.45947020899E+03  0.00000000000E+00 0. -1.
<mgrwt>
<rscale>  2 0.11041810E+03</rscale>
<asrwt>0</asrwt>
<pdfrwt beam="2">  1       21 0.76934575E-02 0.11041810E+03</pdfrwt>
<pdfrwt beam="1">  1        2 0.80487983E-01 0.11041810E+03</pdfrwt>
<totfact> 0.94200721E+04</totfact>
</mgrwt>
</event>
<event>
 4    1  0.5142205E+003  0.1277833E+03  0.7546771E-02  0.1230782E+00
          1   -1    0    0  502    0 -0.00000000000E+00  0.00000000000E+00  0.15732941274E+04  0.15732941274E+04  0.00000000000E+00 0.  1.
         21   -1    0    0  503  502  0.00000000000E+00 -0.00000000000E+00 -0.63000126609E+02  0.63000126609E+02  0.00000000000E+00 0.  1.
         21    1    1    2  503  501 -0.84257938411E+02 -0.96068592713E+02  0.74210361445E+01  0.12799861901E+03  0.00000000000E+00 0.  1.
          1    1    1    2  501    0  0.84257938411E+02  0.96068592713E+02  0.15028729646E+04  0.15082956350E+04  0.00000000000E+00 0.  1.
<mgrwt>
<rscale>  2 0.12778331E+03</rscale>
<asrwt>0</asrwt>
<pdfrwt beam="2">  1       21 0.96923284E-02 0.12778331E+03</pdfrwt>
<pdfrwt beam="1">  1        1 0.24204522E+00 0.12778331E+03</pdfrwt>
<totfact> 0.64270181E+03</totfact>
</mgrwt>
</event>
<event>
 4    1  0.5142205E+003  0.1048455E+03  0.7546771E-02  0.1270424E+00
         21   -1    0    0  503  502  0.00000000000E+00  0.00000000000E+00  0.14939573263E+03  0.14939573263E+03  0.00000000000E+00 0.  1.
          1   -1    0    0  502    0 -0.00000000000E+00 -0.00000000000E+00 -0.20854584460E+04  0.20854584460E+04  0.00000000000E+00 0. -1.
         21    1    1    2  503  501 -0.92832493692E+02  0.48731051408E+02  0.12950586713E+03  0.16662639910E+03  0.00000000000E+00 0.  1.
          1    1    1    2  501    0  0.92832493692E+02 -0.48731051408E+02 -0.20655685805E+04  0.20682277795E+04  0.00000000000E+00 0. -1.
<mgrwt>
<rscale>  2 0.10484554E+03</rscale>
<asrwt>0</asrwt>
<pdfrwt beam="1">  1       21 0.22983956E-01 0.10484554E+03</pdfrwt>
<pdfrwt beam="2">  1        1 0.32083979E+00 0.10484554E+03</pdfrwt>
<totfact> 0.65678076E+02</totfact>
</mgrwt>
</event>
<event>
 4    1  0.5142205E+003  0.1684156E+03  0.7546771E-02  0.1179510E+00
          2   -1    0    0  502    0 -0.00000000000E+00  0.00000000000E+00  0.34592785457E+03  0.34592785457E+03  0.00000000000E+00 0. -1.
         21   -1    0    0  503  502  0.00000000000E+00 -0.00000000000E+00 -0.40390224064E+03  0.40390224064E+03  0.00000000000E+00 0.  1.
         21    1    1    2  503  501 -0.15838009806E+03  0.57267447738E+02 -0.36369139373E+03  0.40079327079E+03  0.00000000000E+00 0.  1.
          2    1    1    2  501    0  0.15838009806E+03 -0.57267447738E+02  0.30571700766E+03  0.34903682442E+03  0.00000000000E+00 0. -1.
<mgrwt>
<rscale>  2 0.16841561E+03</rscale>
<asrwt>0</asrwt>
<pdfrwt beam="2">  1       21 0.62138806E-01 0.16841561E+03</pdfrwt>
<pdfrwt beam="1">  1        2 0.53219670E-01 0.16841561E+03</pdfrwt>
<totfact> 0.28246052E+03</totfact>
</mgrwt>
</event>
<event>
 4    1  0.5142205E+003  0.1321572E+03  0.7546771E-02  0.1224290E+00
         -3   -1    0    0    0  501 -0.00000000000E+00  0.00000000000E+00  0.11850723816E+04  0.11850723816E+04  0.00000000000E+00 0.  1.
         21   -1    0    0  501  502  0.00000000000E+00 -0.00000000000E+00 -0.15451245444E+02  0.15451245444E+02  0.00000000000E+00 0. -1.
         21    1    1    2  503  502  0.12897311625E+03 -0.28834882676E+02  0.45583738096E+03  0.47460850504E+03  0.00000000000E+00 0. -1.
         -3    1    1    2    0  503 -0.12897311625E+03  0.28834882676E+02  0.71378375520E+03  0.72591512201E+03  0.00000000000E+00 0.  1.
<mgrwt>
<rscale>  2 0.13215716E+03</rscale>
<asrwt>0</asrwt>
<pdfrwt beam="2">  1       21 0.23771156E-02 0.13215716E+03</pdfrwt>
<pdfrwt beam="1">  1       -3 0.18231876E+00 0.13215716E+03</pdfrwt>
<totfact> 0.93117746E+03</totfact>
</mgrwt>
</event>
<event>
 4    1  0.5142205E+003  0.1417121E+03  0.7546771E-02  0.1211044E+00
         21   -1    0    0  503  502  0.00000000000E+00  0.00000000000E+00  0.10151500851E+03  0.10151500851E+03  0.00000000000E+00 0. -1.
          2   -1    0    0  502    0 -0.00000000000E+00 -0.00000000000E+00 -0.18515413272E+04  0.18515413272E+04  0.00000000000E+00 0.  1.
         21    1    1    2  503  501 -0.14845782029E+02 -0.14093236366E+03  0.47873609043E+02  0.14958011503E+03  0.00000000000E+00 0. -1.
          2    1    1    2  501    0  0.14845782029E+02  0.14093236366E+03 -0.17978999278E+04  0.18034762207E+04  0.00000000000E+00 0.  1.
<mgrwt>
<rscale>  2 0.14171213E+03</rscale>
<asrwt>0</asrwt>
<pdfrwt beam="1">  1       21 0.15617694E-01 0.14171213E+03</pdfrwt>
<pdfrwt beam="2">  1        2 0.28485251E+00 0.14171213E+03</pdfrwt>
<totfact> 0.43163589E+03</totfact>
</mgrwt>
</event>
<event>
 4    1  0.5142205E+003  0.1679708E+03  0.7546771E-02  0.1179981E+00
         21   -1    0    0  503  502  0.00000000000E+00  0.00000000000E+00  0.41109169746E+03  0.41109169746E+03  0.00000000000E+00 0. -1.
         -1   -1    0    0    0  501 -0.00000000000E+00 -0.00000000000E+00 -0.68642260161E+02  0.68642260161E+02  0.00000000000E+00 0. -1.
         21    1    1    2  503  501  0.16331535606E+03 -0.39271863251E+02  0.17410844692E+03  0.24192547625E+03  0.00000000000E+00 0. -1.
         -1    1    1    2    0  502 -0.16331535606E+03  0.39271863251E+02  0.16834099037E+03  0.23780848136E+03  0.00000000000E+00 0. -1.
<mgrwt>
<rscale>  2 0.16797079E+03</rscale>
<asrwt>0</asrwt>
<pdfrwt beam="1">  1       21 0.63244875E-01 0.16797079E+03</pdfrwt>
<pdfrwt beam="2">  1       -1 0.10560348E-01 0.16797079E+03</pdfrwt>
<totfact> 0.11613082E+04</totfact>
</mgrwt>
</event>
<event>
 4    1  0.5142205E+003  0.1086583E+03  0.7546771E-02  0.1263075E+00
         21   -1    0    0  503  502  0.00000000000E+00  0.00000000000E+00  0.58297148715E+02  0.58297148715E+02  0.00000000000E+00 0.  1.
         -1   -1    0    0    0  501 -0.00000000000E+00 -0.00000000000E+00 -0.22792426452E+03  0.22792426452E+03  0.00000000000E+00 0. -1.
         21    1    1    2  503  501 -0.36386428384E+02  0.10238483308E+03 -0.37039957014E+02  0.11479801667E+03  0.00000000000E+00 0.  1.
         -1    1    1    2    0  502  0.36386428384E+02 -0.10238483308E+03 -0.13258715879E+03  0.17142339657E+03  0.00000000000E+00 0. -1.
<mgrwt>
<rscale>  2 0.10865830E+03</rscale>
<asrwt>0</asrwt>
<pdfrwt beam="1">  1       21 0.89687921E-02 0.10865830E+03</pdfrwt>
<pdfrwt beam="2">  1       -1 0.35065272E-01 0.10865830E+03</pdfrwt>
<totfact> 0.68827192E+04</totfact>
</mgrwt>
</event>
<event>
 4    1  0.5142205E+003  0.1027824E+03  0.7546771E-02  0.1274551E+00
          1   -1    0    0  503    0 -0.00000000000E+00  0.00000000000E+00  0.46631102598E+03  0.46631102598E+03  0.00000000000E+00 0. -1.
         21   -1    0    0  501  502  0.00000000000E+00 -0.00000000000E+00 -0.95376800525E+02  0.95376800525E+02  0.00000000000E+00 0.  1.
         21    1    1    2  503  502 -0.85952865578E+02 -0.56358944164E+02 -0.59764399695E+02  0.11889495010E+03  0.00000000000E+00 0.  1.
          1    1    1    2  501    0  0.85952865578E+02  0.56358944164E+02  0.43069862515E+03  0.44279287640E+03  0.00000000000E+00 0. -1.
<mgrwt>
<rscale>  2 0.10278242E+03</rscale>
<asrwt>0</asrwt>
<pdfrwt beam="2">  1       21 0.14673354E-01 0.10278242E+03</pdfrwt>
<pdfrwt beam="1">  1        1 0.71740157E-01 0.10278242E+03</pdfrwt>
<totfact> 0.22504488E+04</totfact>
</mgrwt>
</event>
<event>
 4    1  0.5142205E+003  0.1066034E+03  0.7546771E-02  0.1266992E+00
         21   -1    0    0  501  502  0.00000000000E+00  0.00000000000E+00  0.40215344188E+02  0.40215344188E+02  0.00000000000E+00 0. -1.
         -4   -1    0    0    0  501 -0.00000000000E+00 -0.00000000000E+00 -0.35419917215E+03  0.35419917215E+03  0.00000000000E+00 0. -1.
         21    1    1    2  503  502 -0.20275133564E+02  0.10465758670E+03 -0.68318033867E+02  0.12661613344E+03  0.00000000000E+00 0. -1.
         -4    1    1    2    0  503  0.20275133564E+02 -0.10465758670E+03 -0.24566579409E+03  0.26779838290E+03  0.00000000000E+00 0. -1.
<mgrwt>
<rscale>  2 0.10660343E+03</rscale>
<asrwt>0</asrwt>
<pdfrwt beam="1">  1       21 0.61869760E-02 0.10660343E+03</pdfrwt>
<pdfrwt beam="2">  1       -4 0.54492181E-01 0.10660343E+03</pdfrwt>
<totfact> 0.23988401E+04</totfact>
</mgrwt>
</event>
<event>
 4    1  0.5142205E+003  0.1202393E+03  0.7546771E-02  0.1242703E+00
         -1   -1    0    0    0  501 -0.00000000000E+00  0.00000000000E+00  0.76204880136E+03  0.76204880136E+03  0.00000000000E+00 0. -1.
         21   -1    0    0  503  502  0.00000000000E+00 -0.00000000000E+00 -0.59554939693E+02  0.59554939693E+02  0.00000000000E+00 0.  1.
         21    1    1    2  503  501  0.12023663096E+03  0.79584490669E+00  0.12132684564E+02  0.12084983586E+03  0.00000000000E+00 0.  1.
         -1    1    1    2    0  502 -0.12023663096E+03 -0.79584490669E+00  0.69036117711E+03  0.70075390520E+03  0.00000000000E+00 0. -1.
<mgrwt>
<rscale>  2 0.12023926E+03</rscale>
<asrwt>0</asrwt>
<pdfrwt beam="2">  1       21 0.91622990E-02 0.12023926E+03</pdfrwt>
<pdfrwt beam="1">  1       -1 0.11723827E+00 0.12023926E+03</pdfrwt>
<totfact> 0.63001043E+03</totfact>
</mgrwt>
</event>
<event>
 4    1  0.5142205E+003  0.1475321E+03  0.7546771E-02  0.1203539E+00
          1   -1    0    0  503    0 -0.00000000000E+00  0.00000000000E+00  0.42933938516E+04  0.42933938516E+04  0.00000000000E+00 0. -1.
         21   -1    0    0  501  502  0.00000000000E+00 -0.00000000000E+00 -0.97833193217E+01  0.97833193217E+01  0.00000000000E+00 0.  1.
         21    1    1    2  503  502 -0.13167189068E+03 -0.66545032246E+02  0.64832793512E+03  0.66490212781E+03  0.00000000000E+00 0.  1.
          1    1    1    2  501    0  0.13167189068E+03  0.66545032246E+02  0.36352825971E+04  0.36382750431E+04  0.00000000000E+00 0. -1.
<mgrwt>
<rscale>  2 0.14753213E+03</rscale>
<asrwt>0</asrwt>
<pdfrwt beam="2">  1       21 0.15051295E-02 0.14753213E+03</pdfrwt>
<pdfrwt beam="1">  1        1 0.66052063E+00 0.14753213E+03</pdfrwt>
<totfact> 0.16590483E+03</totfact>
</mgrwt>
</event>
<event>
 4    1  0.5142205E+003  0.1204220E+03  0.7546771E-02  0.1242403E+00
          3   -1    0    0  503    0 -0.00000000000E+00  0.00000000000E+00  0.27586394796E+03  0.27586394796E+03  0.00000000000E+00 0. -1.
         21   -1    0    0  501  502  0.00000000000E+00 -0.00000000000E+00 -0.68755568418E+02  0.68755568418E+02  0.00000000000E+00 0. -1.
         21    1    1    2  503  502  0.10401584220E+03  0.60680815768E+02  0.19944909746E+02  0.12206250962E+03  0.00000000000E+00 0. -1.
          3    1    1    2  501    0 -0.10401584220E+03 -0.60680815768E+02  0.18716346980E+03  0.22255700676E+03  0.00000000000E+00 0. -1.
<mgrwt>
<rscale>  2 0.12042199E+03</rscale>
<asrwt>0</asrwt>
<pdfrwt beam="2">  1       21 0.10577780E-01 0.12042199E+03</pdfrwt>
<pdfrwt beam="1">  1        3 0.42440607E-01 0.12042199E+03</pdfrwt>
<totfact> 0.19429801E+04</totfact>
</mgrwt>
</event>
<event>
 4    1  0.5142205E+003  0.1455801E+03  0.7546771E-02  0.1206012E+00
          1   -1    0    0  503    0 -0.00000000000E+00  0.00000000000E+00  0.12955320280E+04  0.12955320280E+04  0.00000000000E+00 0.  1.
         21   -1    0    0  501  502  0.00000000000E+00 -0.00000000000E+00 -0.69589453944E+02  0.69589453944E+02  0.00000000000E+00 0.  1.
         21    1    1    2  503  502  0.12474019135E+03 -0.75056376436E+02  0.16005033510E+02  0.14645728414E+03  0.00000000000E+00 0.  1.
          1    1    1    2  501    0 -0.12474019135E+03  0.75056376436E+02  0.12099375405E+04  0.12186641978E+04  0.00000000000E+00 0.  1.
<mgrwt>
<rscale>  2 0.14558013E+03</rscale>
<asrwt>0</asrwt>
<pdfrwt beam="2">  1       21 0.10706071E-01 0.14558013E+03</pdfrwt>
<pdfrwt beam="1">  1        1 0.19931260E+00 0.14558013E+03</pdfrwt>
<totfact> 0.81383371E+03</totfact>
</mgrwt>
</event>
<event>
 4    1  0.5142205E+003  0.1064804E+03  0.7546771E-02  0.1267230E+00
          1   -1    0    0  503    0 -0.00000000000E+00  0.00000000000E+00  0.49940678133E+03  0.49940678133E+03  0.00000000000E+00 0. -1.
         21   -1    0    0  501  502  0.00000000000E+00 -0.00000000000E+00 -0.22943416027E+02  0.22943416027E+02  0.00000000000E+00 0. -1.
         21    1    1    2  503  502  0.50083763271E+02 -0.93966454800E+02  0.21150152254E+03  0.23679309958E+03  0.00000000000E+00 0. -1.
          1    1    1    2  501    0 -0.50083763271E+02  0.93966454800E+02  0.26496184276E+03  0.28555709778E+03  0.00000000000E+00 0. -1.
<mgrwt>
<rscale>  2 0.10648041E+03</rscale>
<asrwt>0</asrwt>
<pdfrwt beam="2">  1       21 0.35297567E-02 0.10648041E+03</pdfrwt>
<pdfrwt beam="1">  1        1 0.76831804E-01 0.10648041E+03</pdfrwt>
<totfact> 0.23518887E+05</totfact>
</mgrwt>
</event>
<event>
 4    1  0.5142205E+003  0.1142125E+03  0.7546771E-02  0.1252962E+00
         21   -1    0    0  501  502  0.00000000000E+00  0.00000000000E+00  0.80704370391E+02  0.80704370391E+02  0.00000000000E+00 0.  1.
          2   -1    0    0  503    0 -0.00000000000E+00 -0.00000000000E+00 -0.75920484111E+03  0.75920484111E+03  0.00000000000E+00 0.  1.
         21    1    1    2  503  502  0.10194404381E+03  0.51496634319E+02  0.33328374405E+02  0.11897593015E+03  0.00000000000E+00 0.  1.
          2    1    1    2  501    0 -0.10194404381E+03 -0.51496634319E+02 -0.71182884512E+03  0.72093328135E+03  0.00000000000E+00 0.  1.
<mgrwt>
<rscale>  2 0.11421248E+03</rscale>
<asrwt>0</asrwt>
<pdfrwt beam="1">  1       21 0.12416057E-01 0.11421248E+03</pdfrwt>
<pdfrwt beam="2">  1        2 0.11680074E+00 0.11421248E+03</pdfrwt>
<totfact> 0.26722705E+04</totfact>
</mgrwt>
</event>
<event>
 4    1  0.5142205E+003  0.1012023E+03  0.7546771E-02  0.1277788E+00
         21   -1    0    0  501  502  0.00000000000E+00  0.00000000000E+00  0.28937649279E+03  0.28937649279E+03  0.00000000000E+00 0. -1.
         -2   -1    0    0    0  501 -0.00000000000E+00 -0.00000000000E+00 -0.75126222077E+02  0.75126222077E+02  0.00000000000E+00 0. -1.
         21    1    1    2  503  502 -0.92328935309E+02  0.41439994671E+02  0.23966661905E+03  0.26015763249E+03  0.00000000000E+00 0. -1.
         -2    1    1    2    0  503  0.92328935309E+02 -0.41439994671E+02 -0.25416348339E+02  0.10434508238E+03  0.00000000000E+00 0. -1.
<mgrwt>
<rscale>  2 0.10120230E+03</rscale>
<asrwt>0</asrwt>
<pdfrwt beam="1">  1       21 0.44519460E-01 0.10120230E+03</pdfrwt>
<pdfrwt beam="2">  1       -2 0.11557880E-01 0.10120230E+03</pdfrwt>
<totfact> 0.19937840E+04</totfact>
</mgrwt>
</event>
<event>
 4    1  0.5142205E+003  0.1121176E+03  0.7546771E-02  0.1256698E+00
          2   -1    0    0  502    0 -0.00000000000E+00  0.00000000000E+00  0.15638444093E+04  0.15638444093E+04  0.00000000000E+00 0.  1.
         21   -1    0    0  503  502  0.00000000000E+00 -0.00000000000E+00 -0.23296854395E+02  0.23296854395E+02  0.00000000000E+00 0.  1.
         21    1    1    2  503  501  0.38470726692E+02  0.10531073662E+03  0.12803519527E+03  0.17018624882E+03  0.00000000000E+00 0.  1.
          2    1    1    2  501    0 -0.38470726692E+02 -0.10531073662E+03  0.14125123596E+04  0.14169550149E+04  0.00000000000E+00 0.  1.
<mgrwt>
<rscale>  2 0.11211756E+03</rscale>
<asrwt>0</asrwt>
<pdfrwt beam="2">  1       21 0.35841327E-02 0.11211756E+03</pdfrwt>
<pdfrwt beam="1">  1        2 0.24059137E+00 0.11211756E+03</pdfrwt>
<totfact> 0.77105308E+04</totfact>
</mgrwt>
</event>
<event>
 4    1  0.5142205E+003  0.1006171E+03  0.7546771E-02  0.1279004E+00
         21   -1    0    0  501  502  0.00000000000E+00  0.00000000000E+00  0.46570049833E+02  0.46570049833E+02  0.00000000000E+00 0. -1.
         -3   -1    0    0    0  501 -0.00000000000E+00 -0.00000000000E+00 -0.52952024391E+03  0.52952024391E+03  0.00000000000E+00 0. -1.
         21    1    1    2  503  502  0.62339120164E+02 -0.78978759480E+02 -0.20324562872E+02  0.10264939458E+03  0.00000000000E+00 0. -1.
         -3    1    1    2    0  503 -0.62339120164E+02  0.78978759480E+02 -0.46262563120E+03  0.47344089916E+03  0.00000000000E+00 0. -1.
<mgrwt>
<rscale>  2 0.10061715E+03</rscale>
<asrwt>0</asrwt>
<pdfrwt beam="1">  1       21 0.71646228E-02 0.10061715E+03</pdfrwt>
<pdfrwt beam="2">  1       -3 0.81464656E-01 0.10061715E+03</pdfrwt>
<totfact> 0.98906755E+03</totfact>
</mgrwt>
</event>
<event>
 4    1  0.5142205E+003  0.1524892E+03  0.7546771E-02  0.1197447E+00
          3   -1    0    0  503    0 -0.00000000000E+00  0.00000000000E+00  0.13392985610E+04  0.13392985610E+04  0.00000000000E+00 0. -1.
         21   -1    0    0  501  502  0.00000000000E+00 -0.00000000000E+00 -0.56073413320E+02  0.56073413320E+02  0.00000000000E+00 0.  1.
         21    1    1    2  503  502 -0.36629546841E+02 -0.14802443530E+03  0.61915931711E+02  0.16457988865E+03  0.00000000000E+00 0.  1.
          3    1    1    2  501    0  0.36629546841E+02  0.14802443530E+03  0.12213092160E+04  0.12307920857E+04  0.00000000000E+00 0. -1.
<mgrwt>
<rscale>  2 0.15248920E+03</rscale>
<asrwt>0</asrwt>
<pdfrwt beam="2">  1       21 0.86266800E-02 0.15248920E+03</pdfrwt>
<pdfrwt beam="1">  1        3 0.20604591E+00 0.15248920E+03</pdfrwt>
<totfact> 0.77534101E+02</totfact>
</mgrwt>
</event>
<event>
 4    1  0.5142205E+003  0.1413527E+03  0.7546771E-02  0.1211520E+00
          2   -1    0    0  503    0 -0.00000000000E+00  0.00000000000E+00  0.16073231767E+03  0.16073231767E+03  0.00000000000E+00 0. -1.
         21   -1    0    0  501  502  0.00000000000E+00 -0.00000000000E+00 -0.24435423669E+03  0.24435423669E+03  0.00000000000E+00 0. -1.
         21    1    1    2  503  502 -0.15061900745E+02  0.14054798632E+03 -0.18377520241E+03  0.23184892136E+03  0.00000000000E+00 0. -1.
          2    1    1    2  501    0  0.15061900745E+02 -0.14054798632E+03  0.10015328339E+03  0.17323763300E+03  0.00000000000E+00 0. -1.
<mgrwt>
<rscale>  2 0.14135274E+03</rscale>
<asrwt>0</asrwt>
<pdfrwt beam="2">  1       21 0.37592960E-01 0.14135274E+03</pdfrwt>
<pdfrwt beam="1">  1        2 0.24728049E-01 0.14135274E+03</pdfrwt>
<totfact> 0.18339915E+04</totfact>
</mgrwt>
</event>
<event>
 4    1  0.5142205E+003  0.1411367E+03  0.7546771E-02  0.1211808E+00
         21   -1    0    0  503  502  0.00000000000E+00  0.00000000000E+00  0.67410781060E+02  0.67410781060E+02  0.00000000000E+00 0. -1.
         -2   -1    0    0    0  501 -0.00000000000E+00 -0.00000000000E+00 -0.38604197010E+03  0.38604197010E+03  0.00000000000E+00 0.  1.
         21    1    1    2  503  501  0.82210078786E+02  0.11472166020E+03 -0.49510756939E+02  0.14956895208E+03  0.00000000000E+00 0. -1.
         -2    1    1    2    0  502 -0.82210078786E+02 -0.11472166020E+03 -0.26912043210E+03  0.30388379908E+03  0.00000000000E+00 0.  1.
<mgrwt>
<rscale>  2 0.14113666E+03</rscale>
<asrwt>0</asrwt>
<pdfrwt beam="1">  1       21 0.10370890E-01 0.14113666E+03</pdfrwt>
<pdfrwt beam="2">  1       -2 0.59391071E-01 0.14113666E+03</pdfrwt>
<totfact> 0.16669575E+04</totfact>
</mgrwt>
</event>
<event>
 4    1  0.5142205E+003  0.1089759E+03  0.7546771E-02  0.1262478E+00
         21   -1    0    0  503  502  0.00000000000E+00  0.00000000000E+00  0.30393496081E+02  0.30393496081E+02  0.00000000000E+00 0.  1.
         -2   -1    0    0    0  501 -0.00000000000E+00 -0.00000000000E+00 -0.47976429971E+03  0.47976429971E+03  0.00000000000E+00 0.  1.
         21    1    1    2  503  501  0.92131443852E+02  0.58202558807E+02 -0.11480202092E+03  0.15828848602E+03  0.00000000000E+00 0.  1.
         -2    1    1    2    0  502 -0.92131443852E+02 -0.58202558807E+02 -0.33456878270E+03  0.35186930977E+03  0.00000000000E+00 0.  1.
<mgrwt>
<rscale>  2 0.10897587E+03</rscale>
<asrwt>0</asrwt>
<pdfrwt beam="1">  1       21 0.46759224E-02 0.10897587E+03</pdfrwt>
<pdfrwt beam="2">  1       -2 0.73809893E-01 0.10897587E+03</pdfrwt>
<totfact> 0.40913774E+04</totfact>
</mgrwt>
</event>
<event>
 4    1  0.5142205E+003  0.1256490E+03  0.7546771E-02  0.1234058E+00
         21   -1    0    0  501  502  0.00000000000E+00  0.00000000000E+00  0.32702478792E+02  0.32702478792E+02  0.00000000000E+00 0. -1.
          1   -1    0    0  503    0 -0.00000000000E+00 -0.00000000000E+00 -0.12930743767E+04  0.12930743767E+04  0.00000000000E+00 0.  1.
         21    1    1    2  503  502  0.68291529076E+02 -0.10547012553E+03 -0.10543460648E+03  0.16402480473E+03  0.00000000000E+00 0. -1.
          1    1    1    2  501    0 -0.68291529076E+02  0.10547012553E+03 -0.11549372914E+04  0.11617520508E+04  0.00000000000E+00 0.  1.
<mgrwt>
<rscale>  2 0.12564904E+03</rscale>
<asrwt>0</asrwt>
<pdfrwt beam="1">  1       21 0.50311511E-02 0.12564904E+03</pdfrwt>
<pdfrwt beam="2">  1        1 0.19893450E+00 0.12564904E+03</pdfrwt>
<totfact> 0.30081920E+04</totfact>
</mgrwt>
</event>
<event>
 4    1  0.5142205E+003  0.1209192E+03  0.7546771E-02  0.1241588E+00
          1   -1    0    0  503    0 -0.00000000000E+00  0.00000000000E+00  0.42259808029E+02  0.42259808029E+02  0.00000000000E+00 0. -1.
         21   -1    0    0  501  502  0.00000000000E+00 -0.00000000000E+00 -0.47834330369E+03  0.47834330369E+03  0.00000000000E+00 0.  1.
         21    1    1    2  503  502 -0.55407126467E+02 -0.10747793070E+03 -0.35496427882E+03  0.37499479261E+03  0.00000000000E+00 0.  1.
          1    1    1    2  501    0  0.55407126467E+02  0.10747793070E+03 -0.81119216850E+02  0.14560831911E+03  0.00000000000E+00 0. -1.
<mgrwt>
<rscale>  2 0.12091921E+03</rscale>
<asrwt>0</asrwt>
<pdfrwt beam="2">  1       21 0.73591272E-01 0.12091921E+03</pdfrwt>
<pdfrwt beam="1">  1        1 0.65015094E-02 0.12091921E+03</pdfrwt>
<totfact> 0.20318138E+04</totfact>
</mgrwt>
</event>
<event>
 4    1  0.5142205E+003  0.1510746E+03  0.7546771E-02  0.1199159E+00
          2   -1    0    0  502    0 -0.00000000000E+00  0.00000000000E+00  0.22435674314E+04  0.22435674314E+04  0.00000000000E+00 0. -1.
         21   -1    0    0  503  502  0.00000000000E+00 -0.00000000000E+00 -0.10615414607E+02  0.10615414607E+02  0.00000000000E+00 0.  1.
         21    1    1    2  503  501 -0.15079332968E+03 -0.92146528605E+01  0.88635027218E+03  0.89913310644E+03  0.00000000000E+00 0.  1.
          2    1    1    2  501    0  0.15079332968E+03  0.92146528605E+01  0.13466017446E+04  0.13550497395E+04  0.00000000000E+00 0. -1.
<mgrwt>
<rscale>  2 0.15107461E+03</rscale>
<asrwt>0</asrwt>
<pdfrwt beam="2">  1       21 0.16331425E-02 0.15107461E+03</pdfrwt>
<pdfrwt beam="1">  1        2 0.34516384E+00 0.15107461E+03</pdfrwt>
<totfact> 0.12367815E+05</totfact>
</mgrwt>
</event>
<event>
 4    1  0.5142205E+003  0.1106499E+03  0.7546771E-02  0.1259371E+00
         -4   -1    0    0    0  501 -0.00000000000E+00  0.00000000000E+00  0.89375500320E+02  0.89375500320E+02  0.00000000000E+00 0.  1.
         21   -1    0    0  503  502  0.00000000000E+00 -0.00000000000E+00 -0.17703493853E+03  0.17703493853E+03  0.00000000000E+00 0.  1.
         21    1    1    2  503  501 -0.10390949650E+03 -0.38029155485E+02 -0.10718380740E+03  0.15405118857E+03  0.00000000000E+00 0.  1.
         -4    1    1    2    0  502  0.10390949650E+03  0.38029155485E+02  0.19524369195E+02  0.11235925028E+03  0.00000000000E+00 0.  1.
<mgrwt>
<rscale>  2 0.11064990E+03</rscale>
<asrwt>0</asrwt>
<pdfrwt beam="2">  1       21 0.27236144E-01 0.11064990E+03</pdfrwt>
<pdfrwt beam="1">  1       -4 0.13750077E-01 0.11064990E+03</pdfrwt>
<totfact> 0.22550485E+04</totfact>
</mgrwt>
</event>
<event>
 4    1  0.5142205E+003  0.1018453E+03  0.7546771E-02  0.1276463E+00
         -3   -1    0    0    0  501 -0.00000000000E+00  0.00000000000E+00  0.16258681716E+03  0.16258681716E+03  0.00000000000E+00 0. -1.
         21   -1    0    0  501  502  0.00000000000E+00 -0.00000000000E+00 -0.12500935646E+03  0.12500935646E+03  0.00000000000E+00 0. -1.
         21    1    1    2  503  502  0.96882352614E+02 -0.31405153092E+02 -0.81835618678E+02  0.13065045876E+03  0.00000000000E+00 0. -1.
         -3    1    1    2    0  503 -0.96882352614E+02  0.31405153092E+02  0.11941307938E+03  0.15694571487E+03  0.00000000000E+00 0. -1.
<mgrwt>
<rscale>  2 0.10184534E+03</rscale>
<asrwt>0</asrwt>
<pdfrwt beam="2">  1       21 0.19232209E-01 0.10184534E+03</pdfrwt>
<pdfrwt beam="1">  1       -3 0.25013357E-01 0.10184534E+03</pdfrwt>
<totfact> 0.17611137E+04</totfact>
</mgrwt>
</event>
<event>
 4    1  0.5142205E+003  0.1014942E+03  0.7546771E-02  0.1277185E+00
         21   -1    0    0  501  502  0.00000000000E+00  0.00000000000E+00  0.91970282285E+02  0.91970282285E+02  0.00000000000E+00 0. -1.
          2   -1    0    0  503    0 -0.00000000000E+00 -0.00000000000E+00 -0.49609011916E+03  0.49609011916E+03  0.00000000000E+00 0.  1.
         21    1    1    2  503  502 -0.10135827487E+03  0.52500214911E+01  0.56657587418E+02  0.11623745017E+03  0.00000000000E+00 0. -1.
          2    1    1    2  501    0  0.10135827487E+03 -0.52500214911E+01 -0.46077742430E+03  0.47182295128E+03  0.00000000000E+00 0.  1.
<mgrwt>
<rscale>  2 0.10149415E+03</rscale>
<asrwt>0</asrwt>
<pdfrwt beam="1">  1       21 0.14149274E-01 0.10149415E+03</pdfrwt>
<pdfrwt beam="2">  1        2 0.76321559E-01 0.10149415E+03</pdfrwt>
<totfact> 0.34403060E+04</totfact>
</mgrwt>
</event>
<event>
 4    1  0.5142205E+003  0.1683423E+03  0.7546771E-02  0.1179588E+00
          1   -1    0    0  502    0 -0.00000000000E+00  0.00000000000E+00  0.22904060639E+03  0.22904060639E+03  0.00000000000E+00 0.  1.
         21   -1    0    0  503  502  0.00000000000E+00 -0.00000000000E+00 -0.27410454909E+03  0.27410454909E+03  0.00000000000E+00 0. -1.
         21    1    1    2  503  501  0.53769936576E+02  0.15952408108E+03 -0.20886622510E+03  0.26826151142E+03  0.00000000000E+00 0. -1.
          1    1    1    2  501    0 -0.53769936576E+02 -0.15952408108E+03  0.16380228241E+03  0.23488364405E+03  0.00000000000E+00 0.  1.
<mgrwt>
<rscale>  2 0.16834233E+03</rscale>
<asrwt>0</asrwt>
<pdfrwt beam="2">  1       21 0.42169931E-01 0.16834233E+03</pdfrwt>
<pdfrwt beam="1">  1        1 0.35237016E-01 0.16834233E+03</pdfrwt>
<totfact> 0.73051886E+03</totfact>
</mgrwt>
</event>
<event>
 4    1  0.5142205E+003  0.1126666E+03  0.7546771E-02  0.1255710E+00
         21   -1    0    0  501  502  0.00000000000E+00  0.00000000000E+00  0.67820404202E+02  0.67820404202E+02  0.00000000000E+00 0.  1.
          1   -1    0    0  503    0 -0.00000000000E+00 -0.00000000000E+00 -0.91650773601E+03  0.91650773601E+03  0.00000000000E+00 0.  1.
         21    1    1    2  503  502 -0.69035435822E+02 -0.89038647362E+02  0.14699214806E+02  0.11362147261E+03  0.00000000000E+00 0.  1.
          1    1    1    2  501    0  0.69035435822E+02  0.89038647362E+02 -0.86338654661E+03  0.87070666759E+03  0.00000000000E+00 0.  1.
<mgrwt>
<rscale>  2 0.11266664E+03</rscale>
<asrwt>0</asrwt>
<pdfrwt beam="1">  1       21 0.10433909E-01 0.11266664E+03</pdfrwt>
<pdfrwt beam="2">  1        1 0.14100119E+00 0.11266664E+03</pdfrwt>
<totfact> 0.15934097E+04</totfact>
</mgrwt>
</event>
<event>
 4    1  0.5142205E+003  0.1406270E+03  0.7546771E-02  0.1212488E+00
          2   -1    0    0  503    0 -0.00000000000E+00  0.00000000000E+00  0.94770463016E+02  0.94770463016E+02  0.00000000000E+00 0.  1.
         21   -1    0    0  501  502  0.00000000000E+00 -0.00000000000E+00 -0.34971935211E+03  0.34971935211E+03  0.00000000000E+00 0. -1.
         21    1    1    2  503  502 -0.14057157237E+03  0.39486555808E+01 -0.26861576693E+03  0.30320024584E+03  0.00000000000E+00 0. -1.
          2    1    1    2  501    0  0.14057157237E+03 -0.39486555808E+01  0.13666877829E+02  0.14128956929E+03  0.00000000000E+00 0.  1.
<mgrwt>
<rscale>  2 0.14062702E+03</rscale>
<asrwt>0</asrwt>
<pdfrwt beam="2">  1       21 0.53802978E-01 0.14062702E+03</pdfrwt>
<pdfrwt beam="1">  1        2 0.14580071E-01 0.14062702E+03</pdfrwt>
<totfact> 0.16130786E+04</totfact>
</mgrwt>
</event>
<event>
 4    1  0.5142205E+003  0.1147675E+03  0.7546771E-02  0.1251988E+00
         21   -1    0    0  501  502  0.00000000000E+00  0.00000000000E+00  0.49150108216E+02  0.49150108216E+02  0.00000000000E+00 0. -1.
         -2   -1    0    0    0  501 -0.00000000000E+00 -0.00000000000E+00 -0.28816995334E+03  0.28816995334E+03  0.00000000000E+00 0. -1.
         21    1    1    2  503  502  0.94961294345E+02  0.64450959646E+02 -0.74874075474E+02  0.13703175107E+03  0.00000000000E+00 0. -1.
         -2    1    1    2    0  503 -0.94961294345E+02 -0.64450959646E+02 -0.16414576965E+03  0.20028831048E+03  0.00000000000E+00 0. -1.
<mgrwt>
<rscale>  2 0.11476748E+03</rscale>
<asrwt>0</asrwt>
<pdfrwt beam="1">  1       21 0.75615552E-02 0.11476748E+03</pdfrwt>
<pdfrwt beam="2">  1       -2 0.44333838E-01 0.11476748E+03</pdfrwt>
<totfact> 0.51201495E+04</totfact>
</mgrwt>
</event>
<event>
 4    1  0.5142205E+003  0.1037152E+03  0.7546771E-02  0.1272672E+00
         21   -1    0    0  503  502  0.00000000000E+00  0.00000000000E+00  0.11879724334E+04  0.11879724334E+04  0.00000000000E+00 0.  1.
          1   -1    0    0  502    0 -0.00000000000E+00 -0.00000000000E+00 -0.12371322554E+02  0.12371322554E+02  0.00000000000E+00 0. -1.
         21    1    1    2  503  501 -0.80285305823E+02  0.65659049920E+02  0.89854952338E+03  0.90451538801E+03  0.00000000000E+00 0.  1.
          1    1    1    2  501    0  0.80285305823E+02 -0.65659049920E+02  0.27705158746E+03  0.29582836795E+03  0.00000000000E+00 0. -1.
<mgrwt>
<rscale>  2 0.10371519E+03</rscale>
<asrwt>0</asrwt>
<pdfrwt beam="1">  1       21 0.18276490E+00 0.10371519E+03</pdfrwt>
<pdfrwt beam="2">  1        1 0.19032813E-02 0.10371519E+03</pdfrwt>
<totfact> 0.12050539E+04</totfact>
</mgrwt>
</event>
<event>
 4    1  0.5142205E+003  0.1280000E+03  0.7546771E-02  0.1230454E+00
          2   -1    0    0  502    0 -0.00000000000E+00  0.00000000000E+00  0.19232057377E+04  0.19232057377E+04  0.00000000000E+00 0.  1.
         21   -1    0    0  503  502  0.00000000000E+00 -0.00000000000E+00 -0.57295214301E+02  0.57295214301E+02  0.00000000000E+00 0. -1.
         21    1    1    2  503  501 -0.11721164612E+03 -0.51433773058E+02  0.19285110722E+02  0.12944465417E+03  0.00000000000E+00 0. -1.
          2    1    1    2  501    0  0.11721164612E+03  0.51433773058E+02  0.18466254127E+04  0.18510562978E+04  0.00000000000E+00 0.  1.
<mgrwt>
<rscale>  2 0.12800001E+03</rscale>
<asrwt>0</asrwt>
<pdfrwt beam="2">  1       21 0.88146498E-02 0.12800001E+03</pdfrwt>
<pdfrwt beam="1">  1        2 0.29587776E+00 0.12800001E+03</pdfrwt>
<totfact> 0.11019350E+04</totfact>
</mgrwt>
</event>
<event>
 4    1  0.5142205E+003  0.1414105E+03  0.7546771E-02  0.1211444E+00
          1   -1    0    0  503    0 -0.00000000000E+00  0.00000000000E+00  0.98016529394E+03  0.98016529394E+03  0.00000000000E+00 0.  1.
         21   -1    0    0  501  502  0.00000000000E+00 -0.00000000000E+00 -0.21062034593E+02  0.21062034593E+02  0.00000000000E+00 0.  1.
         21    1    1    2  503  502 -0.10299633146E+03  0.96895215204E+02  0.39090302872E+03  0.41569472559E+03  0.00000000000E+00 0.  1.
          1    1    1    2  501    0  0.10299633146E+03 -0.96895215204E+02  0.56820023063E+03  0.58553260294E+03  0.00000000000E+00 0.  1.
<mgrwt>
<rscale>  2 0.14141049E+03</rscale>
<asrwt>0</asrwt>
<pdfrwt beam="2">  1       21 0.32403138E-02 0.14141049E+03</pdfrwt>
<pdfrwt beam="1">  1        1 0.15079462E+00 0.14141049E+03</pdfrwt>
<totfact> 0.10337774E+05</totfact>
</mgrwt>
</event>
<event>
 4    1  0.5142205E+003  0.1233433E+03  0.7546771E-02  0.1237681E+00
         21   -1    0    0  501  502  0.00000000000E+00  0.00000000000E+00  0.72720924222E+03  0.72720924222E+03  0.00000000000E+00 0. -1.
          3   -1    0    0  503    0 -0.00000000000E+00 -0.00000000000E+00 -0.53470351004E+02  0.53470351004E+02  0.00000000000E+00 0.  1.
         21    1    1    2  503  502 -0.10057029465E+03  0.71408504692E+02  0.64142114032E+03  0.65317274741E+03  0.00000000000E+00 0. -1.
          3    1    1    2  501    0  0.10057029465E+03 -0.71408504692E+02  0.32317750902E+02  0.12750684582E+03  0.00000000000E+00 0.  1.
<mgrwt>
<rscale>  2 0.12334326E+03</rscale>
<asrwt>0</asrwt>
<pdfrwt beam="1">  1       21 0.11187834E+00 0.12334326E+03</pdfrwt>
<pdfrwt beam="2">  1        3 0.82262084E-02 0.12334326E+03</pdfrwt>
<totfact> 0.31405621E+03</totfact>
</mgrwt>
</event>
<event>
 4    1  0.5142205E+003  0.1036277E+03  0.7546771E-02  0.1272847E+00
         21   -1    0    0  503  502  0.00000000000E+00  0.00000000000E+00  0.12986125106E+03  0.12986125106E+03  0.00000000000E+00 0. -1.
          1   -1    0    0  502    0 -0.00000000000E+00 -0.00000000000E+00 -0.14245433190E+04  0.14245433190E+04  0.00000000000E+00 0.  1.
         21    1    1    2  503  501  0.13872491809E+02  0.10269491988E+03  0.10696604006E+03  0.14893094482E+03  0.00000000000E+00 0. -1.
          1    1    1    2  501    0 -0.13872491809E+02 -0.10269491988E+03 -0.14016481080E+04  0.14054736253E+04  0.00000000000E+00 0.  1.
<mgrwt>
<rscale>  2 0.10362766E+03</rscale>
<asrwt>0</asrwt>
<pdfrwt beam="1">  1       21 0.19978654E-01 0.10362766E+03</pdfrwt>
<pdfrwt beam="2">  1        1 0.21916051E+00 0.10362766E+03</pdfrwt>
<totfact> 0.22354099E+03</totfact>
</mgrwt>
</event>
<event>
 4    1  0.5142205E+003  0.1115095E+03  0.7546771E-02  0.1257800E+00
         21   -1    0    0  501  502  0.00000000000E+00  0.00000000000E+00  0.14795192573E+03  0.14795192573E+03  0.00000000000E+00 0.  1.
          2   -1    0    0  503    0 -0.00000000000E+00 -0.00000000000E+00 -0.63555433715E+03  0.63555433715E+03  0.00000000000E+00 0. -1.
         21    1    1    2  503  502 -0.38447901267E+02  0.10467151281E+03  0.12113188142E+03  0.16464294519E+03  0.00000000000E+00 0.  1.
          2    1    1    2  501    0  0.38447901267E+02 -0.10467151281E+03 -0.60873429284E+03  0.61886331769E+03  0.00000000000E+00 0. -1.
<mgrwt>
<rscale>  2 0.11150949E+03</rscale>
<asrwt>0</asrwt>
<pdfrwt beam="1">  1       21 0.22761834E-01 0.11150949E+03</pdfrwt>
<pdfrwt beam="2">  1        2 0.97777591E-01 0.11150949E+03</pdfrwt>
<totfact> 0.10970070E+04</totfact>
</mgrwt>
</event>
<event>
 4    1  0.5142205E+003  0.1179448E+03  0.7546771E-02  0.1246527E+00
          2   -1    0    0  503    0 -0.00000000000E+00  0.00000000000E+00  0.22859482270E+03  0.22859482270E+03  0.00000000000E+00 0.  1.
         21   -1    0    0  501  502  0.00000000000E+00 -0.00000000000E+00 -0.31669032647E+03  0.31669032647E+03  0.00000000000E+00 0. -1.
         21    1    1    2  503  502 -0.14681651736E+02  0.11702743384E+03 -0.28909913098E+03  0.31223273163E+03  0.00000000000E+00 0. -1.
          2    1    1    2  501    0  0.14681651736E+02 -0.11702743384E+03  0.20100362721E+03  0.23305241754E+03  0.00000000000E+00 0.  1.
<mgrwt>
<rscale>  2 0.11794478E+03</rscale>
<asrwt>0</asrwt>
<pdfrwt beam="2">  1       21 0.48721589E-01 0.11794478E+03</pdfrwt>
<pdfrwt beam="1">  1        2 0.35168434E-01 0.11794478E+03</pdfrwt>
<totfact> 0.74494320E+03</totfact>
</mgrwt>
</event>
<event>
 4    1  0.5142205E+003  0.1019535E+03  0.7546771E-02  0.1276241E+00
          2   -1    0    0  502    0 -0.00000000000E+00  0.00000000000E+00  0.69174449139E+03  0.69174449139E+03  0.00000000000E+00 0. -1.
         21   -1    0    0  503  502  0.00000000000E+00 -0.00000000000E+00 -0.27615238479E+02  0.27615238479E+02  0.00000000000E+00 0.  1.
         21    1    1    2  503  501  0.34630261452E+02 -0.95891927313E+02  0.89217828737E+02  0.13547818163E+03  0.00000000000E+00 0.  1.
          2    1    1    2  501    0 -0.34630261452E+02  0.95891927313E+02  0.57491142417E+03  0.58388154824E+03  0.00000000000E+00 0. -1.
<mgrwt>
<rscale>  2 0.10195350E+03</rscale>
<asrwt>0</asrwt>
<pdfrwt beam="2">  1       21 0.42484987E-02 0.10195350E+03</pdfrwt>
<pdfrwt beam="1">  1        2 0.10642222E+00 0.10195350E+03</pdfrwt>
<totfact> 0.18622986E+05</totfact>
</mgrwt>
</event>
<event>
 4    1  0.5142205E+003  0.1522285E+03  0.7546771E-02  0.1197761E+00
          1   -1    0    0  503    0 -0.00000000000E+00  0.00000000000E+00  0.57635109385E+03  0.57635109385E+03  0.00000000000E+00 0. -1.
         21   -1    0    0  501  502  0.00000000000E+00 -0.00000000000E+00 -0.42886097349E+02  0.42886097349E+02  0.00000000000E+00 0. -1.
         21    1    1    2  503  502 -0.72178610649E+02 -0.13402892747E+03  0.18935031695E+03  0.24295482659E+03  0.00000000000E+00 0. -1.
          1    1    1    2  501    0  0.72178610649E+02  0.13402892747E+03  0.34411467954E+03  0.37628236460E+03  0.00000000000E+00 0. -1.
<mgrwt>
<rscale>  2 0.15222846E+03</rscale>
<asrwt>0</asrwt>
<pdfrwt beam="2">  1       21 0.65978616E-02 0.15222846E+03</pdfrwt>
<pdfrwt beam="1">  1        1 0.88669393E-01 0.15222846E+03</pdfrwt>
<totfact> 0.69007859E+04</totfact>
</mgrwt>
</event>
<event>
 4    1  0.5142205E+003  0.1590007E+03  0.7546771E-02  0.1189830E+00
         -2   -1    0    0    0  501 -0.00000000000E+00  0.00000000000E+00  0.43440643040E+03  0.43440643040E+03  0.00000000000E+00 0. -1.
         21   -1    0    0  503  502  0.00000000000E+00 -0.00000000000E+00 -0.99717168866E+02  0.99717168866E+02  0.00000000000E+00 0. -1.
         21    1    1    2  503  501 -0.99184050738E+02 -0.12427288238E+03 -0.49832169071E+01  0.15907877818E+03  0.00000000000E+00 0. -1.
         -2    1    1    2    0  502  0.99184050738E+02  0.12427288238E+03  0.33967247844E+03  0.37504482109E+03  0.00000000000E+00 0. -1.
<mgrwt>
<rscale>  2 0.15900071E+03</rscale>
<asrwt>0</asrwt>
<pdfrwt beam="2">  1       21 0.15341103E-01 0.15900071E+03</pdfrwt>
<pdfrwt beam="1">  1       -2 0.66831758E-01 0.15900071E+03</pdfrwt>
<totfact> 0.64864146E+03</totfact>
</mgrwt>
</event>
<event>
 4    1  0.5142205E+003  0.1479382E+03  0.7546771E-02  0.1203030E+00
          2   -1    0    0  502    0 -0.00000000000E+00  0.00000000000E+00  0.18686002210E+03  0.18686002210E+03  0.00000000000E+00 0. -1.
         21   -1    0    0  503  502  0.00000000000E+00 -0.00000000000E+00 -0.26344797225E+03  0.26344797225E+03  0.00000000000E+00 0. -1.
         21    1    1    2  503  501 -0.79939739425E+02  0.12448035967E+03 -0.20609342745E+03  0.25369316648E+03  0.00000000000E+00 0. -1.
          2    1    1    2  501    0  0.79939739425E+02 -0.12448035967E+03  0.12950547730E+03  0.19661482786E+03  0.00000000000E+00 0. -1.
<mgrwt>
<rscale>  2 0.14793824E+03</rscale>
<asrwt>0</asrwt>
<pdfrwt beam="2">  1       21 0.40530457E-01 0.14793824E+03</pdfrwt>
<pdfrwt beam="1">  1        2 0.28747696E-01 0.14793824E+03</pdfrwt>
<totfact> 0.13365303E+04</totfact>
</mgrwt>
</event>
<event>
 4    1  0.5142205E+003  0.1145870E+03  0.7546771E-02  0.1252304E+00
         21   -1    0    0  501  502  0.00000000000E+00  0.00000000000E+00  0.18517053587E+03  0.18517053587E+03  0.00000000000E+00 0.  1.
          2   -1    0    0  503    0 -0.00000000000E+00 -0.00000000000E+00 -0.35851462086E+03  0.35851462086E+03  0.00000000000E+00 0. -1.
         21    1    1    2  503  502  0.51716190087E+02  0.10225270800E+03  0.15680781745E+03  0.19421347076E+03  0.00000000000E+00 0.  1.
          2    1    1    2  501    0 -0.51716190087E+02 -0.10225270800E+03 -0.33015190245E+03  0.34947168598E+03  0.00000000000E+00 0. -1.
<mgrwt>
<rscale>  2 0.11458700E+03</rscale>
<asrwt>0</asrwt>
<pdfrwt beam="1">  1       21 0.28487775E-01 0.11458700E+03</pdfrwt>
<pdfrwt beam="2">  1        2 0.55156095E-01 0.11458700E+03</pdfrwt>
<totfact> 0.13384826E+04</totfact>
</mgrwt>
</event>
<event>
 4    1  0.5142205E+003  0.1029347E+03  0.7546771E-02  0.1274243E+00
         21   -1    0    0  501  502  0.00000000000E+00  0.00000000000E+00  0.59062001077E+02  0.59062001077E+02  0.00000000000E+00 0. -1.
         -2   -1    0    0    0  501 -0.00000000000E+00 -0.00000000000E+00 -0.19867009659E+03  0.19867009659E+03  0.00000000000E+00 0.  1.
         21    1    1    2  503  502 -0.10178337131E+03 -0.15352131995E+02 -0.29666705110E+02  0.10712448844E+03  0.00000000000E+00 0. -1.
         -2    1    1    2    0  503  0.10178337131E+03  0.15352131995E+02 -0.10994139041E+03  0.15060760923E+03  0.00000000000E+00 0.  1.
<mgrwt>
<rscale>  2 0.10293465E+03</rscale>
<asrwt>0</asrwt>
<pdfrwt beam="1">  1       21 0.90864618E-02 0.10293465E+03</pdfrwt>
<pdfrwt beam="2">  1       -2 0.30564630E-01 0.10293465E+03</pdfrwt>
<totfact> 0.74006680E+04</totfact>
</mgrwt>
</event>
<event>
 4    1  0.5142205E+003  0.1127855E+03  0.7546771E-02  0.1255497E+00
          1   -1    0    0  502    0 -0.00000000000E+00  0.00000000000E+00  0.16607537178E+04  0.16607537178E+04  0.00000000000E+00 0.  1.
         21   -1    0    0  503  502  0.00000000000E+00 -0.00000000000E+00 -0.13856959173E+02  0.13856959173E+02  0.00000000000E+00 0. -1.
         21    1    1    2  503  501  0.75654676253E+02  0.83647675185E+02  0.26348929305E+03  0.28661327805E+03  0.00000000000E+00 0. -1.
          1    1    1    2  501    0 -0.75654676253E+02 -0.83647675185E+02  0.13834074656E+04  0.13879973989E+04  0.00000000000E+00 0.  1.
<mgrwt>
<rscale>  2 0.11278548E+03</rscale>
<asrwt>0</asrwt>
<pdfrwt beam="2">  1       21 0.21318412E-02 0.11278548E+03</pdfrwt>
<pdfrwt beam="1">  1        1 0.25550041E+00 0.11278548E+03</pdfrwt>
<totfact> 0.71400631E+04</totfact>
</mgrwt>
</event>
<event>
 4    1  0.5142205E+003  0.1333195E+03  0.7546771E-02  0.1222612E+00
          2   -1    0    0  502    0 -0.00000000000E+00  0.00000000000E+00  0.16036845084E+03  0.16036845084E+03  0.00000000000E+00 0. -1.
         21   -1    0    0  503  502  0.00000000000E+00 -0.00000000000E+00 -0.19118679476E+03  0.19118679476E+03  0.00000000000E+00 0.  1.
         21    1    1    2  503  501  0.88693690321E+02  0.99536491436E+02 -0.12936548434E+03  0.18576736088E+03  0.00000000000E+00 0.  1.
          2    1    1    2  501    0 -0.88693690321E+02 -0.99536491436E+02  0.98547140424E+02  0.16578788471E+03  0.00000000000E+00 0. -1.
<mgrwt>
<rscale>  2 0.13331948E+03</rscale>
<asrwt>0</asrwt>
<pdfrwt beam="2">  1       21 0.29413353E-01 0.13331948E+03</pdfrwt>
<pdfrwt beam="1">  1        2 0.24672069E-01 0.13331948E+03</pdfrwt>
<totfact> 0.29719016E+04</totfact>
</mgrwt>
</event>
<event>
 4    1  0.5142205E+003  0.1416194E+03  0.7546771E-02  0.1211166E+00
          4   -1    0    0  503    0 -0.00000000000E+00  0.00000000000E+00  0.91656051786E+02  0.91656051786E+02  0.00000000000E+00 0. -1.
         21   -1    0    0  501  502  0.00000000000E+00 -0.00000000000E+00 -0.23724374676E+03  0.23724374676E+03  0.00000000000E+00 0. -1.
         21    1    1    2  503  502  0.14158571206E+03 -0.30873858168E+01 -0.11862302934E+03  0.18473621437E+03  0.00000000000E+00 0. -1.
          4    1    1    2  501    0 -0.14158571206E+03  0.30873858168E+01 -0.26964665635E+02  0.14416358418E+03  0.00000000000E+00 0. -1.
<mgrwt>
<rscale>  2 0.14161937E+03</rscale>
<asrwt>0</asrwt>
<pdfrwt beam="2">  1       21 0.36499038E-01 0.14161937E+03</pdfrwt>
<pdfrwt beam="1">  1        4 0.14100931E-01 0.14161937E+03</pdfrwt>
<totfact> 0.12521591E+04</totfact>
</mgrwt>
</event>
<event>
 4    1  0.5142205E+003  0.1270136E+03  0.7546771E-02  0.1231955E+00
         21   -1    0    0  503  502  0.00000000000E+00  0.00000000000E+00  0.41263031906E+03  0.41263031906E+03  0.00000000000E+00 0. -1.
         -3   -1    0    0    0  501 -0.00000000000E+00 -0.00000000000E+00 -0.57347705860E+02  0.57347705860E+02  0.00000000000E+00 0. -1.
         21    1    1    2  503  501 -0.12672062970E+03  0.86220731070E+01  0.31020777104E+03  0.33520339997E+03  0.00000000000E+00 0. -1.
         -3    1    1    2    0  502  0.12672062970E+03 -0.86220731070E+01  0.45074842164E+02  0.13477462496E+03  0.00000000000E+00 0. -1.
<mgrwt>
<rscale>  2 0.12701361E+03</rscale>
<asrwt>0</asrwt>
<pdfrwt beam="1">  1       21 0.63481586E-01 0.12701361E+03</pdfrwt>
<pdfrwt beam="2">  1       -3 0.88227243E-02 0.12701361E+03</pdfrwt>
<totfact> 0.10095795E+04</totfact>
</mgrwt>
</event>
<event>
 4    1  0.5142205E+003  0.1235650E+03  0.7546771E-02  0.1237329E+00
         -1   -1    0    0    0  501 -0.00000000000E+00  0.00000000000E+00  0.16715179174E+03  0.16715179174E+03  0.00000000000E+00 0. -1.
         21   -1    0    0  501  502  0.00000000000E+00 -0.00000000000E+00 -0.78076896563E+03  0.78076896563E+03  0.00000000000E+00 0. -1.
         21    1    1    2  503  502 -0.11131627124E+03  0.53637741174E+02 -0.75218196918E+03  0.76226375637E+03  0.00000000000E+00 0. -1.
         -1    1    1    2    0  503  0.11131627124E+03 -0.53637741174E+02  0.13856479529E+03  0.18565700099E+03  0.00000000000E+00 0. -1.
<mgrwt>
<rscale>  2 0.12356504E+03</rscale>
<asrwt>0</asrwt>
<pdfrwt beam="2">  1       21 0.12011830E+00 0.12356504E+03</pdfrwt>
<pdfrwt beam="1">  1       -1 0.25715661E-01 0.12356504E+03</pdfrwt>
<totfact> 0.66430751E+02</totfact>
</mgrwt>
</event>
<event>
 4    1  0.5142205E+003  0.1163970E+03  0.7546771E-02  0.1249162E+00
         21   -1    0    0  501  502  0.00000000000E+00  0.00000000000E+00  0.10431886896E+04  0.10431886896E+04  0.00000000000E+00 0. -1.
          4   -1    0    0  503    0 -0.00000000000E+00 -0.00000000000E+00 -0.90234028394E+02  0.90234028394E+02  0.00000000000E+00 0.  1.
         21    1    1    2  503  502  0.11580380457E+03  0.11736625656E+02  0.10008217094E+04  0.10075675479E+04  0.00000000000E+00 0. -1.
          4    1    1    2  501    0 -0.11580380457E+03 -0.11736625656E+02 -0.47867048217E+02  0.12585517009E+03  0.00000000000E+00 0.  1.
<mgrwt>
<rscale>  2 0.11639703E+03</rscale>
<asrwt>0</asrwt>
<pdfrwt beam="1">  1       21 0.16049056E+00 0.11639703E+03</pdfrwt>
<pdfrwt beam="2">  1        4 0.13882159E-01 0.11639703E+03</pdfrwt>
<totfact> 0.45995243E+02</totfact>
</mgrwt>
</event>
<event>
 4    1  0.5142205E+003  0.1088509E+03  0.7546771E-02  0.1262713E+00
         21   -1    0    0  501  502  0.00000000000E+00  0.00000000000E+00  0.20354838455E+03  0.20354838455E+03  0.00000000000E+00 0. -1.
          2   -1    0    0  503    0 -0.00000000000E+00 -0.00000000000E+00 -0.13095570121E+04  0.13095570121E+04  0.00000000000E+00 0.  1.
         21    1    1    2  503  502 -0.20668076665E+01 -0.10883127116E+03  0.18654287242E+03  0.21597861127E+03  0.00000000000E+00 0. -1.
          2    1    1    2  501    0  0.20668076665E+01  0.10883127116E+03 -0.12925514999E+04  0.12971267853E+04  0.00000000000E+00 0.  1.
<mgrwt>
<rscale>  2 0.10885089E+03</rscale>
<asrwt>0</asrwt>
<pdfrwt beam="1">  1       21 0.31315136E-01 0.10885089E+03</pdfrwt>
<pdfrwt beam="2">  1        2 0.20147031E+00 0.10885089E+03</pdfrwt>
<totfact> 0.23000156E+03</totfact>
</mgrwt>
</event>
<event>
 4    1  0.5142205E+003  0.1361769E+03  0.7546771E-02  0.1218568E+00
         21   -1    0    0  501  502  0.00000000000E+00  0.00000000000E+00  0.11170057323E+03  0.11170057323E+03  0.00000000000E+00 0. -1.
         -1   -1    0    0    0  501 -0.00000000000E+00 -0.00000000000E+00 -0.41372155854E+03  0.41372155854E+03  0.00000000000E+00 0. -1.
         21    1    1    2  503  502  0.12981411276E+03 -0.41139395917E+02  0.52268081707E+02  0.14586331318E+03  0.00000000000E+00 0. -1.
         -1    1    1    2    0  503 -0.12981411276E+03  0.41139395917E+02 -0.35428906701E+03  0.37955881859E+03  0.00000000000E+00 0. -1.
<mgrwt>
<rscale>  2 0.13617692E+03</rscale>
<asrwt>0</asrwt>
<pdfrwt beam="1">  1       21 0.17184703E-01 0.13617692E+03</pdfrwt>
<pdfrwt beam="2">  1       -1 0.63649472E-01 0.13617692E+03</pdfrwt>
<totfact> 0.74209642E+03</totfact>
</mgrwt>
</event>
<event>
 4    1  0.5142205E+003  0.1363570E+03  0.7546771E-02  0.1218317E+00
         21   -1    0    0  503  502  0.00000000000E+00  0.00000000000E+00  0.70687801925E+02  0.70687801925E+02  0.00000000000E+00 0. -1.
          2   -1    0    0  502    0 -0.00000000000E+00 -0.00000000000E+00 -0.16585364568E+04  0.16585364568E+04  0.00000000000E+00 0. -1.
         21    1    1    2  503  501 -0.13385273050E+03 -0.26013132551E+02 -0.83109369600E+00  0.13635955135E+03  0.00000000000E+00 0. -1.
          2    1    1    2  501    0  0.13385273050E+03  0.26013132551E+02 -0.15870175612E+04  0.15928647074E+04  0.00000000000E+00 0. -1.
<mgrwt>
<rscale>  2 0.13635702E+03</rscale>
<asrwt>0</asrwt>
<pdfrwt beam="1">  1       21 0.10875046E-01 0.13635702E+03</pdfrwt>
<pdfrwt beam="2">  1        2 0.25515946E+00 0.13635702E+03</pdfrwt>
<totfact> 0.10376347E+04</totfact>
</mgrwt>
</event>
<event>
 4    1  0.5142205E+003  0.1334863E+03  0.7546771E-02  0.1222373E+00
          1   -1    0    0  503    0 -0.00000000000E+00  0.00000000000E+00  0.18144988855E+04  0.18144988855E+04  0.00000000000E+00 0.  1.
         21   -1    0    0  501  502  0.00000000000E+00 -0.00000000000E+00 -0.54299036454E+02  0.54299036454E+02  0.00000000000E+00 0. -1.
         21    1    1    2  503  502  0.72490438797E+02  0.11208798661E+03  0.34405575276E+02  0.13784891755E+03  0.00000000000E+00 0. -1.
          1    1    1    2  501    0 -0.72490438797E+02 -0.11208798661E+03  0.17257942738E+04  0.17309490044E+04  0.00000000000E+00 0.  1.
<mgrwt>
<rscale>  2 0.13348626E+03</rscale>
<asrwt>0</asrwt>
<pdfrwt beam="2">  1       21 0.83536993E-02 0.13348626E+03</pdfrwt>
<pdfrwt beam="1">  1        1 0.27915363E+00 0.13348626E+03</pdfrwt>
<totfact> 0.58203921E+03</totfact>
</mgrwt>
</event>
<event>
 4    1  0.5142205E+003  0.1213492E+03  0.7546771E-02  0.1240888E+00
          2   -1    0    0  503    0 -0.00000000000E+00  0.00000000000E+00  0.94445910617E+03  0.94445910617E+03  0.00000000000E+00 0.  1.
         21   -1    0    0  501  502  0.00000000000E+00 -0.00000000000E+00 -0.36794901868E+02  0.36794901868E+02  0.00000000000E+00 0.  1.
         21    1    1    2  503  502  0.98304537754E+02 -0.71146692561E+02  0.81389533611E+02  0.14611601619E+03  0.00000000000E+00 0.  1.
          2    1    1    2  501    0 -0.98304537754E+02  0.71146692561E+02  0.82627467069E+03  0.83513799184E+03  0.00000000000E+00 0.  1.
<mgrwt>
<rscale>  2 0.12134922E+03</rscale>
<asrwt>0</asrwt>
<pdfrwt beam="2">  1       21 0.56607549E-02 0.12134922E+03</pdfrwt>
<pdfrwt beam="1">  1        2 0.14530138E+00 0.12134922E+03</pdfrwt>
<totfact> 0.78643141E+04</totfact>
</mgrwt>
</event>
<event>
 4    1  0.5142205E+003  0.1007993E+03  0.7546771E-02  0.1278624E+00
          2   -1    0    0  502    0 -0.00000000000E+00  0.00000000000E+00  0.24656466299E+03  0.24656466299E+03  0.00000000000E+00 0.  1.
         21   -1    0    0  503  502  0.00000000000E+00 -0.00000000000E+00 -0.59244570948E+02  0.59244570948E+02  0.00000000000E+00 0. -1.
         21    1    1    2  503  501  0.75282825495E+02 -0.67029764069E+02  0.92934453791E+01  0.10122678110E+03  0.00000000000E+00 0. -1.
          2    1    1    2  501    0 -0.75282825495E+02  0.67029764069E+02  0.17802664666E+03  0.20458245284E+03  0.00000000000E+00 0.  1.
<mgrwt>
<rscale>  2 0.10079927E+03</rscale>
<asrwt>0</asrwt>
<pdfrwt beam="2">  1       21 0.91145495E-02 0.10079927E+03</pdfrwt>
<pdfrwt beam="1">  1        2 0.37933024E-01 0.10079927E+03</pdfrwt>
<totfact> 0.15573792E+05</totfact>
</mgrwt>
</event>
<event>
 4    1  0.5142205E+003  0.1096145E+03  0.7546771E-02  0.1261285E+00
         21   -1    0    0  501  502  0.00000000000E+00  0.00000000000E+00  0.59347485275E+03  0.59347485275E+03  0.00000000000E+00 0.  1.
         -2   -1    0    0    0  501 -0.00000000000E+00 -0.00000000000E+00 -0.12125533548E+03  0.12125533548E+03  0.00000000000E+00 0. -1.
         21    1    1    2  503  502  0.10121464179E+03 -0.42082534769E+02  0.56227899444E+03  0.57286386780E+03  0.00000000000E+00 0.  1.
         -2    1    1    2    0  503 -0.10121464179E+03  0.42082534769E+02 -0.90059477171E+02  0.14186632043E+03  0.00000000000E+00 0. -1.
<mgrwt>
<rscale>  2 0.10961452E+03</rscale>
<asrwt>0</asrwt>
<pdfrwt beam="1">  1       21 0.91303822E-01 0.10961452E+03</pdfrwt>
<pdfrwt beam="2">  1       -2 0.18654667E-01 0.10961452E+03</pdfrwt>
<totfact> 0.19736027E+03</totfact>
</mgrwt>
</event>
<event>
 4    1  0.5142205E+003  0.1355775E+03  0.7546771E-02  0.1219407E+00
         21   -1    0    0  501  502  0.00000000000E+00  0.00000000000E+00  0.50758476238E+03  0.50758476238E+03  0.00000000000E+00 0. -1.
          1   -1    0    0  503    0 -0.00000000000E+00 -0.00000000000E+00 -0.19424939974E+03  0.19424939974E+03  0.00000000000E+00 0. -1.
         21    1    1    2  503  502  0.13387874701E+03 -0.21395006896E+02  0.47318899774E+03  0.49222869969E+03  0.00000000000E+00 0. -1.
          1    1    1    2  501    0 -0.13387874701E+03  0.21395006896E+02 -0.15985363510E+03  0.20960546242E+03  0.00000000000E+00 0. -1.
<mgrwt>
<rscale>  2 0.13557752E+03</rscale>
<asrwt>0</asrwt>
<pdfrwt beam="1">  1       21 0.78089963E-01 0.13557752E+03</pdfrwt>
<pdfrwt beam="2">  1        1 0.29884523E-01 0.13557752E+03</pdfrwt>
<totfact> 0.24545300E+03</totfact>
</mgrwt>
</event>
<event>
 4    1  0.5142205E+003  0.1312925E+03  0.7546771E-02  0.1225550E+00
         21   -1    0    0  501  502  0.00000000000E+00  0.00000000000E+00  0.82452214924E+03  0.82452214924E+03  0.00000000000E+00 0. -1.
         -1   -1    0    0    0  501 -0.00000000000E+00 -0.00000000000E+00 -0.31690688684E+02  0.31690688684E+02  0.00000000000E+00 0.  1.
         21    1    1    2  503  502 -0.81605170081E+02  0.10285096357E+03  0.64615293702E+03  0.65935676421E+03  0.00000000000E+00 0. -1.
         -1    1    1    2    0  503  0.81605170081E+02 -0.10285096357E+03  0.14667852354E+03  0.19685607371E+03  0.00000000000E+00 0.  1.
<mgrwt>
<rscale>  2 0.13129251E+03</rscale>
<asrwt>0</asrwt>
<pdfrwt beam="1">  1       21 0.12684955E+00 0.13129251E+03</pdfrwt>
<pdfrwt beam="2">  1       -1 0.48754912E-02 0.13129251E+03</pdfrwt>
<totfact> 0.75241777E+03</totfact>
</mgrwt>
</event>
<event>
 4    1  0.5142205E+003  0.1110178E+03  0.7546771E-02  0.1258697E+00
          2   -1    0    0  502    0 -0.00000000000E+00  0.00000000000E+00  0.41408013709E+04  0.41408013709E+04  0.00000000000E+00 0.  1.
         21   -1    0    0  503  502  0.00000000000E+00 -0.00000000000E+00 -0.30934942785E+01  0.30934942785E+01  0.00000000000E+00 0. -1.
         21    1    1    2  503  501  0.35459323771E+02 -0.10520262655E+03  0.16658598418E+04  0.16695550212E+04  0.00000000000E+00 0. -1.
          2    1    1    2  501    0 -0.35459323771E+02  0.10520262655E+03  0.24718480348E+04  0.24743398439E+04  0.00000000000E+00 0.  1.
<mgrwt>
<rscale>  2 0.11101782E+03</rscale>
<asrwt>0</asrwt>
<pdfrwt beam="2">  1       21 0.47592551E-03 0.11101782E+03</pdfrwt>
<pdfrwt beam="1">  1        2 0.63704193E+00 0.11101782E+03</pdfrwt>
<totfact> 0.58649162E+04</totfact>
</mgrwt>
</event>
<event>
 4    1  0.5142205E+003  0.1002563E+03  0.7546771E-02  0.1279758E+00
          1   -1    0    0  502    0 -0.00000000000E+00  0.00000000000E+00  0.14237306522E+03  0.14237306522E+03  0.00000000000E+00 0.  1.
         21   -1    0    0  503  502  0.00000000000E+00 -0.00000000000E+00 -0.11182075158E+03  0.11182075158E+03  0.00000000000E+00 0.  1.
         21    1    1    2  503  501  0.90123145049E+02 -0.43922027822E+02 -0.61892262139E+02  0.11782180577E+03  0.00000000000E+00 0.  1.
          1    1    1    2  501    0 -0.90123145049E+02  0.43922027822E+02  0.92444575778E+02  0.13637201103E+03  0.00000000000E+00 0.  1.
<mgrwt>
<rscale>  2 0.10025630E+03</rscale>
<asrwt>0</asrwt>
<pdfrwt beam="2">  1       21 0.17203192E-01 0.10025630E+03</pdfrwt>
<pdfrwt beam="1">  1        1 0.21903549E-01 0.10025630E+03</pdfrwt>
<totfact> 0.73310148E+04</totfact>
</mgrwt>
</event>
<event>
 4    1  0.5142205E+003  0.1019797E+03  0.7546771E-02  0.1276187E+00
         21   -1    0    0  501  502  0.00000000000E+00  0.00000000000E+00  0.22465442509E+03  0.22465442509E+03  0.00000000000E+00 0.  1.
          1   -1    0    0  503    0 -0.00000000000E+00 -0.00000000000E+00 -0.82313295229E+03  0.82313295229E+03  0.00000000000E+00 0. -1.
         21    1    1    2  503  502  0.62738094894E+02  0.80397726303E+02  0.20970945947E+03  0.23319073810E+03  0.00000000000E+00 0.  1.
          1    1    1    2  501    0 -0.62738094894E+02 -0.80397726303E+02 -0.80818798666E+03  0.81459663928E+03  0.00000000000E+00 0. -1.
<mgrwt>
<rscale>  2 0.10197972E+03</rscale>
<asrwt>0</asrwt>
<pdfrwt beam="1">  1       21 0.34562220E-01 0.10197972E+03</pdfrwt>
<pdfrwt beam="2">  1        1 0.12663584E+00 0.10197972E+03</pdfrwt>
<totfact> 0.20976574E+03</totfact>
</mgrwt>
</event>
<event>
 4    1  0.5142205E+003  0.1091452E+03  0.7546771E-02  0.1262161E+00
         21   -1    0    0  501  502  0.00000000000E+00  0.00000000000E+00  0.28982323915E+02  0.28982323915E+02  0.00000000000E+00 0. -1.
          2   -1    0    0  503    0 -0.00000000000E+00 -0.00000000000E+00 -0.16904055837E+04  0.16904055837E+04  0.00000000000E+00 0. -1.
         21    1    1    2  503  502  0.50340711742E+02 -0.96842569923E+02 -0.82805564008E+02  0.13700157678E+03  0.00000000000E+00 0. -1.
          2    1    1    2  501    0 -0.50340711742E+02  0.96842569923E+02 -0.15786176958E+04  0.15823863309E+04  0.00000000000E+00 0. -1.
<mgrwt>
<rscale>  2 0.10914518E+03</rscale>
<asrwt>0</asrwt>
<pdfrwt beam="1">  1       21 0.44588182E-02 0.10914518E+03</pdfrwt>
<pdfrwt beam="2">  1        2 0.26006245E+00 0.10914518E+03</pdfrwt>
<totfact> 0.46323951E+04</totfact>
</mgrwt>
</event>
<event>
 4    1  0.5142205E+003  0.1676000E+03  0.7546771E-02  0.1180374E+00
          4   -1    0    0  503    0 -0.00000000000E+00  0.00000000000E+00  0.11521294074E+03  0.11521294074E+03  0.00000000000E+00 0.  1.
         21   -1    0    0  501  502  0.00000000000E+00 -0.00000000000E+00 -0.37138101096E+03  0.37138101096E+03  0.00000000000E+00 0.  1.
         21    1    1    2  503  502 -0.16171161169E+03  0.44035531764E+02 -0.27067998842E+03  0.31836681602E+03  0.00000000000E+00 0.  1.
          4    1    1    2  501    0  0.16171161169E+03 -0.44035531764E+02  0.14511918200E+02  0.16822713569E+03  0.00000000000E+00 0.  1.
<mgrwt>
<rscale>  2 0.16760004E+03</rscale>
<asrwt>0</asrwt>
<pdfrwt beam="2">  1       21 0.57135541E-01 0.16760004E+03</pdfrwt>
<pdfrwt beam="1">  1        4 0.17725068E-01 0.16760004E+03</pdfrwt>
<totfact> 0.33776397E+03</totfact>
</mgrwt>
</event>
<event>
 4    1  0.5142205E+003  0.1156819E+03  0.7546771E-02  0.1250396E+00
         -1   -1    0    0    0  501 -0.00000000000E+00  0.00000000000E+00  0.39790827176E+03  0.39790827176E+03  0.00000000000E+00 0. -1.
         21   -1    0    0  501  502  0.00000000000E+00 -0.00000000000E+00 -0.70248253804E+02  0.70248253804E+02  0.00000000000E+00 0.  1.
         21    1    1    2  503  502  0.97436349684E+02 -0.62357475306E+02 -0.51683819143E+01  0.11579727604E+03  0.00000000000E+00 0.  1.
         -1    1    1    2    0  503 -0.97436349684E+02  0.62357475306E+02  0.33282839987E+03  0.35235924953E+03  0.00000000000E+00 0. -1.
<mgrwt>
<rscale>  2 0.11568188E+03</rscale>
<asrwt>0</asrwt>
<pdfrwt beam="2">  1       21 0.10807424E-01 0.11568188E+03</pdfrwt>
<pdfrwt beam="1">  1       -1 0.61216656E-01 0.11568188E+03</pdfrwt>
<totfact> 0.18333647E+04</totfact>
</mgrwt>
</event>
<event>
 4    1  0.5142205E+003  0.1085879E+03  0.7546771E-02  0.1263207E+00
         21   -1    0    0  501  502  0.00000000000E+00  0.00000000000E+00  0.17238455491E+03  0.17238455491E+03  0.00000000000E+00 0. -1.
          2   -1    0    0  503    0 -0.00000000000E+00 -0.00000000000E+00 -0.88406813799E+02  0.88406813799E+02  0.00000000000E+00 0. -1.
         21    1    1    2  503  502 -0.10365818111E+03  0.32346772958E+02  0.10401788993E+03  0.15036972320E+03  0.00000000000E+00 0. -1.
          2    1    1    2  501    0  0.10365818111E+03 -0.32346772958E+02 -0.20040148817E+02  0.11042164550E+03  0.00000000000E+00 0. -1.
<mgrwt>
<rscale>  2 0.10858790E+03</rscale>
<asrwt>0</asrwt>
<pdfrwt beam="1">  1       21 0.26520701E-01 0.10858790E+03</pdfrwt>
<pdfrwt beam="2">  1        2 0.13601048E-01 0.10858790E+03</pdfrwt>
<totfact> 0.71116217E+04</totfact>
</mgrwt>
</event>
<event>
 4    1  0.5142205E+003  0.1161603E+03  0.7546771E-02  0.1249569E+00
          2   -1    0    0  503    0 -0.00000000000E+00  0.00000000000E+00  0.40239426428E+03  0.40239426428E+03  0.00000000000E+00 0.  1.
         21   -1    0    0  501  502  0.00000000000E+00 -0.00000000000E+00 -0.17734995500E+03  0.17734995500E+03  0.00000000000E+00 0. -1.
         21    1    1    2  503  502  0.25644242180E+02 -0.11329430359E+03 -0.14851174533E+03  0.18854433135E+03  0.00000000000E+00 0. -1.
          2    1    1    2  501    0 -0.25644242180E+02  0.11329430359E+03  0.37355605461E+03  0.39119988794E+03  0.00000000000E+00 0.  1.
<mgrwt>
<rscale>  2 0.11616035E+03</rscale>
<asrwt>0</asrwt>
<pdfrwt beam="2">  1       21 0.27284608E-01 0.11616035E+03</pdfrwt>
<pdfrwt beam="1">  1        2 0.61906810E-01 0.11616035E+03</pdfrwt>
<totfact> 0.12855645E+04</totfact>
</mgrwt>
</event>
<event>
 4    1  0.5142205E+003  0.1394815E+03  0.7546771E-02  0.1214028E+00
         21   -1    0    0  501  502  0.00000000000E+00  0.00000000000E+00  0.11012792284E+03  0.11012792284E+03  0.00000000000E+00 0. -1.
          2   -1    0    0  503    0 -0.00000000000E+00 -0.00000000000E+00 -0.12877190445E+04  0.12877190445E+04  0.00000000000E+00 0.  1.
         21    1    1    2  503  502  0.11524658027E+03 -0.78570447720E+02  0.60418380162E+02  0.15200483604E+03  0.00000000000E+00 0. -1.
          2    1    1    2  501    0 -0.11524658027E+03  0.78570447720E+02 -0.12380095018E+04  0.12458421313E+04  0.00000000000E+00 0.  1.
<mgrwt>
<rscale>  2 0.13948150E+03</rscale>
<asrwt>0</asrwt>
<pdfrwt beam="1">  1       21 0.16942757E-01 0.13948150E+03</pdfrwt>
<pdfrwt beam="2">  1        2 0.19811062E+00 0.13948150E+03</pdfrwt>
<totfact> 0.73255132E+03</totfact>
</mgrwt>
</event>
<event>
 4    1  0.5142205E+003  0.1397922E+03  0.7546771E-02  0.1213609E+00
          2   -1    0    0  503    0 -0.00000000000E+00  0.00000000000E+00  0.10863582546E+04  0.10863582546E+04  0.00000000000E+00 0.  1.
         21   -1    0    0  501  502  0.00000000000E+00 -0.00000000000E+00 -0.44519226131E+02  0.44519226131E+02  0.00000000000E+00 0. -1.
         21    1    1    2  503  502  0.13654996601E+03  0.29932636693E+02  0.84416672849E+02  0.16330349235E+03  0.00000000000E+00 0. -1.
          2    1    1    2  501    0 -0.13654996601E+03 -0.29932636693E+02  0.95742235567E+03  0.96757398843E+03  0.00000000000E+00 0.  1.
<mgrwt>
<rscale>  2 0.13979219E+03</rscale>
<asrwt>0</asrwt>
<pdfrwt beam="2">  1       21 0.68491126E-02 0.13979219E+03</pdfrwt>
<pdfrwt beam="1">  1        2 0.16713202E+00 0.13979219E+03</pdfrwt>
<totfact> 0.46859852E+04</totfact>
</mgrwt>
</event>
<event>
 4    1  0.5142205E+003  0.1001256E+03  0.7546771E-02  0.1280032E+00
         -1   -1    0    0    0  501 -0.00000000000E+00  0.00000000000E+00  0.65264396699E+03  0.65264396699E+03  0.00000000000E+00 0. -1.
         21   -1    0    0  501  502  0.00000000000E+00 -0.00000000000E+00 -0.34003989418E+02  0.34003989418E+02  0.00000000000E+00 0. -1.
         21    1    1    2  503  502  0.89172375399E+02 -0.45534946354E+02  0.55106190271E+02  0.11428838996E+03  0.00000000000E+00 0. -1.
         -1    1    1    2    0  503 -0.89172375399E+02  0.45534946354E+02  0.56353378731E+03  0.57235956645E+03  0.00000000000E+00 0. -1.
<mgrwt>
<rscale>  2 0.10012564E+03</rscale>
<asrwt>0</asrwt>
<pdfrwt beam="2">  1       21 0.52313835E-02 0.10012564E+03</pdfrwt>
<pdfrwt beam="1">  1       -1 0.10040675E+00 0.10012564E+03</pdfrwt>
<totfact> 0.23185971E+04</totfact>
</mgrwt>
</event>
<event>
 4    1  0.5142205E+003  0.1173873E+03  0.7546771E-02  0.1247470E+00
          1   -1    0    0  502    0 -0.00000000000E+00  0.00000000000E+00  0.45976165081E+03  0.45976165081E+03  0.00000000000E+00 0. -1.
         21   -1    0    0  503  502  0.00000000000E+00 -0.00000000000E+00 -0.36507605256E+02  0.36507605256E+02  0.00000000000E+00 0. -1.
         21    1    1    2  503  501 -0.97310726899E+02  0.65653693337E+02  0.10663593753E+03  0.15859069390E+03  0.00000000000E+00 0. -1.
          1    1    1    2  501    0  0.97310726899E+02 -0.65653693337E+02  0.31661810803E+03  0.33767856217E+03  0.00000000000E+00 0. -1.
<mgrwt>
<rscale>  2 0.11738733E+03</rscale>
<asrwt>0</asrwt>
<pdfrwt beam="2">  1       21 0.56165550E-02 0.11738733E+03</pdfrwt>
<pdfrwt beam="1">  1        1 0.70732558E-01 0.11738733E+03</pdfrwt>
<totfact> 0.12127203E+05</totfact>
</mgrwt>
</event>
<event>
 4    1  0.5142205E+003  0.2152494E+03  0.7546771E-02  0.1137475E+00
          2   -1    0    0  502    0 -0.00000000000E+00  0.00000000000E+00  0.13624097840E+04  0.13624097840E+04  0.00000000000E+00 0.  1.
         21   -1    0    0  503  502  0.00000000000E+00 -0.00000000000E+00 -0.29704276193E+03  0.29704276193E+03  0.00000000000E+00 0.  1.
         21    1    1    2  503  501  0.21517564816E+03 -0.56342197798E+01 -0.24810290420E+03  0.32846210598E+03  0.00000000000E+00 0.  1.
          2    1    1    2  501    0 -0.21517564816E+03  0.56342197798E+01  0.13134699262E+04  0.13309904399E+04  0.00000000000E+00 0.  1.
<mgrwt>
<rscale>  2 0.21524940E+03</rscale>
<asrwt>0</asrwt>
<pdfrwt beam="2">  1       21 0.45698887E-01 0.21524940E+03</pdfrwt>
<pdfrwt beam="1">  1        2 0.20960150E+00 0.21524940E+03</pdfrwt>
<totfact> 0.94089332E+02</totfact>
</mgrwt>
</event>
<event>
 4    1  0.5142205E+003  0.1203975E+03  0.7546771E-02  0.1242443E+00
          2   -1    0    0  503    0 -0.00000000000E+00  0.00000000000E+00  0.18295770550E+04  0.18295770550E+04  0.00000000000E+00 0.  1.
         21   -1    0    0  501  502  0.00000000000E+00 -0.00000000000E+00 -0.39163284529E+02  0.39163284529E+02  0.00000000000E+00 0.  1.
         21    1    1    2  503  502  0.11849867933E+03  0.21298114736E+02  0.60685189352E+02  0.13482669951E+03  0.00000000000E+00 0.  1.
          2    1    1    2  501    0 -0.11849867933E+03 -0.21298114736E+02  0.17297285811E+04  0.17339136400E+04  0.00000000000E+00 0.  1.
<mgrwt>
<rscale>  2 0.12039745E+03</rscale>
<asrwt>0</asrwt>
<pdfrwt beam="2">  1       21 0.60251221E-02 0.12039745E+03</pdfrwt>
<pdfrwt beam="1">  1        2 0.28147333E+00 0.12039745E+03</pdfrwt>
<totfact> 0.23678641E+04</totfact>
</mgrwt>
</event>
<event>
 4    1  0.5142205E+003  0.1021779E+03  0.7546771E-02  0.1275782E+00
         21   -1    0    0  501  502  0.00000000000E+00  0.00000000000E+00  0.52990230694E+03  0.52990230694E+03  0.00000000000E+00 0. -1.
          1   -1    0    0  503    0 -0.00000000000E+00 -0.00000000000E+00 -0.43781133719E+03  0.43781133719E+03  0.00000000000E+00 0.  1.
         21    1    1    2  503  502 -0.68254400588E+02 -0.76037204696E+02  0.51888974264E+03  0.52885431332E+03  0.00000000000E+00 0. -1.
          1    1    1    2  501    0  0.68254400588E+02  0.76037204696E+02 -0.42679877289E+03  0.43885933081E+03  0.00000000000E+00 0.  1.
<mgrwt>
<rscale>  2 0.10217788E+03</rscale>
<asrwt>0</asrwt>
<pdfrwt beam="1">  1       21 0.81523432E-01 0.10217788E+03</pdfrwt>
<pdfrwt beam="2">  1        1 0.67355591E-01 0.10217788E+03</pdfrwt>
<totfact> 0.83401279E+02</totfact>
</mgrwt>
</event>
<event>
 4    1  0.5142205E+003  0.1390068E+03  0.7546771E-02  0.1214672E+00
         21   -1    0    0  501  502  0.00000000000E+00  0.00000000000E+00  0.21490022378E+02  0.21490022378E+02  0.00000000000E+00 0.  1.
          1   -1    0    0  503    0 -0.00000000000E+00 -0.00000000000E+00 -0.91769290292E+03  0.91769290292E+03  0.00000000000E+00 0.  1.
         21    1    1    2  503  502 -0.10112743649E+03 -0.95373619655E+02 -0.38136110835E+03  0.40590538393E+03  0.00000000000E+00 0.  1.
          1    1    1    2  501    0  0.10112743649E+03  0.95373619655E+02 -0.51484177220E+03  0.53327754138E+03  0.00000000000E+00 0.  1.
<mgrwt>
<rscale>  2 0.13900678E+03</rscale>
<asrwt>0</asrwt>
<pdfrwt beam="1">  1       21 0.33061576E-02 0.13900678E+03</pdfrwt>
<pdfrwt beam="2">  1        1 0.14118351E+00 0.13900678E+03</pdfrwt>
<totfact> 0.11137453E+05</totfact>
</mgrwt>
</event>
<event>
 4    1  0.5142205E+003  0.1273824E+03  0.7546771E-02  0.1231392E+00
          2   -1    0    0  503    0 -0.00000000000E+00  0.00000000000E+00  0.35195864640E+04  0.35195864640E+04  0.00000000000E+00 0. -1.
         21   -1    0    0  501  502  0.00000000000E+00 -0.00000000000E+00 -0.69333291078E+01  0.69333291078E+01  0.00000000000E+00 0. -1.
         21    1    1    2  503  502  0.80045826199E+02 -0.99090618324E+02  0.73568215521E+03  0.74662876882E+03  0.00000000000E+00 0. -1.
          2    1    1    2  501    0 -0.80045826199E+02  0.99090618324E+02  0.27769709797E+04  0.27798910243E+04  0.00000000000E+00 0. -1.
<mgrwt>
<rscale>  2 0.12738244E+03</rscale>
<asrwt>0</asrwt>
<pdfrwt beam="2">  1       21 0.10666688E-02 0.12738244E+03</pdfrwt>
<pdfrwt beam="1">  1        2 0.54147341E+00 0.12738244E+03</pdfrwt>
<totfact> 0.45644786E+04</totfact>
</mgrwt>
</event>
<event>
 4    1  0.5142205E+003  0.1752706E+03  0.7546771E-02  0.1172460E+00
         21   -1    0    0  501  502  0.00000000000E+00  0.00000000000E+00  0.26430320535E+02  0.26430320535E+02  0.00000000000E+00 0. -1.
          2   -1    0    0  503    0 -0.00000000000E+00 -0.00000000000E+00 -0.12587677432E+04  0.12587677432E+04  0.00000000000E+00 0. -1.
         21    1    1    2  503  502 -0.15983515776E+03  0.71920137906E+02 -0.43826973287E+03  0.47201709994E+03  0.00000000000E+00 0. -1.
          2    1    1    2  501    0  0.15983515776E+03 -0.71920137906E+02 -0.79406768983E+03  0.81318096382E+03  0.00000000000E+00 0. -1.
<mgrwt>
<rscale>  2 0.17527060E+03</rscale>
<asrwt>0</asrwt>
<pdfrwt beam="1">  1       21 0.40662042E-02 0.17527060E+03</pdfrwt>
<pdfrwt beam="2">  1        2 0.19365653E+00 0.17527060E+03</pdfrwt>
<totfact> 0.90377661E+04</totfact>
</mgrwt>
</event>
<event>
 4    1  0.5142205E+003  0.1006526E+03  0.7546771E-02  0.1278930E+00
         21   -1    0    0  501  502  0.00000000000E+00  0.00000000000E+00  0.34903173844E+02  0.34903173844E+02  0.00000000000E+00 0.  1.
          2   -1    0    0  503    0 -0.00000000000E+00 -0.00000000000E+00 -0.29622670642E+03  0.29622670642E+03  0.00000000000E+00 0. -1.
         21    1    1    2  503  502  0.83252469580E+02 -0.56568320767E+02 -0.10716153016E+03  0.14701884965E+03  0.00000000000E+00 0.  1.
          2    1    1    2  501    0 -0.83252469580E+02  0.56568320767E+02 -0.15416200242E+03  0.18411103062E+03  0.00000000000E+00 0. -1.
<mgrwt>
<rscale>  2 0.10065261E+03</rscale>
<asrwt>0</asrwt>
<pdfrwt beam="1">  1       21 0.53697190E-02 0.10065261E+03</pdfrwt>
<pdfrwt beam="2">  1        2 0.45573339E-01 0.10065261E+03</pdfrwt>
<totfact> 0.31568048E+05</totfact>
</mgrwt>
</event>
<event>
 4    1  0.5142205E+003  0.1766086E+03  0.7546771E-02  0.1171126E+00
         21   -1    0    0  503  502  0.00000000000E+00  0.00000000000E+00  0.45999873294E+02  0.45999873294E+02  0.00000000000E+00 0.  1.
          2   -1    0    0  502    0 -0.00000000000E+00 -0.00000000000E+00 -0.11972536905E+04  0.11972536905E+04  0.00000000000E+00 0. -1.
         21    1    1    2  503  501  0.14795394357E+03  0.96437728454E+02 -0.16627015752E+03  0.24256209549E+03  0.00000000000E+00 0.  1.
          2    1    1    2  501    0 -0.14795394357E+03 -0.96437728454E+02 -0.98498365965E+03  0.10006914683E+04  0.00000000000E+00 0. -1.
<mgrwt>
<rscale>  2 0.17660862E+03</rscale>
<asrwt>0</asrwt>
<pdfrwt beam="1">  1       21 0.70769023E-02 0.17660862E+03</pdfrwt>
<pdfrwt beam="2">  1        2 0.18419291E+00 0.17660862E+03</pdfrwt>
<totfact> 0.38140481E+04</totfact>
</mgrwt>
</event>
<event>
 4    1  0.5142205E+003  0.1109242E+03  0.7546771E-02  0.1258868E+00
         21   -1    0    0  501  502  0.00000000000E+00  0.00000000000E+00  0.43801717169E+03  0.43801717169E+03  0.00000000000E+00 0. -1.
          2   -1    0    0  503    0 -0.00000000000E+00 -0.00000000000E+00 -0.11162656022E+04  0.11162656022E+04  0.00000000000E+00 0. -1.
         21    1    1    2  503  502  0.65510897311E+02  0.89512580530E+02  0.42817655270E+03  0.44231136094E+03  0.00000000000E+00 0. -1.
          2    1    1    2  501    0 -0.65510897311E+02 -0.89512580530E+02 -0.11064249832E+04  0.11119714129E+04  0.00000000000E+00 0. -1.
<mgrwt>
<rscale>  2 0.11092421E+03</rscale>
<asrwt>0</asrwt>
<pdfrwt beam="1">  1       21 0.67387258E-01 0.11092421E+03</pdfrwt>
<pdfrwt beam="2">  1        2 0.17173317E+00 0.11092421E+03</pdfrwt>
<totfact> 0.61626781E+02</totfact>
</mgrwt>
</event>
<event>
 4    1  0.5142205E+003  0.1384375E+03  0.7546771E-02  0.1215447E+00
          2   -1    0    0  503    0 -0.00000000000E+00  0.00000000000E+00  0.29529425319E+03  0.29529425319E+03  0.00000000000E+00 0.  1.
         21   -1    0    0  501  502  0.00000000000E+00 -0.00000000000E+00 -0.12128479366E+03  0.12128479366E+03  0.00000000000E+00 0. -1.
         21    1    1    2  503  502  0.87456991829E+02  0.10731360757E+03 -0.55012432061E+02  0.14896745776E+03  0.00000000000E+00 0. -1.
          2    1    1    2  501    0 -0.87456991829E+02 -0.10731360757E+03  0.22902189159E+03  0.26761158909E+03  0.00000000000E+00 0.  1.
<mgrwt>
<rscale>  2 0.13843748E+03</rscale>
<asrwt>0</asrwt>
<pdfrwt beam="2">  1       21 0.18659199E-01 0.13843748E+03</pdfrwt>
<pdfrwt beam="1">  1        2 0.45429885E-01 0.13843748E+03</pdfrwt>
<totfact> 0.36259022E+04</totfact>
</mgrwt>
</event>
<event>
 4    1  0.5142205E+003  0.1097025E+03  0.7546771E-02  0.1261122E+00
         -2   -1    0    0    0  501 -0.00000000000E+00  0.00000000000E+00  0.12920919429E+03  0.12920919429E+03  0.00000000000E+00 0.  1.
         21   -1    0    0  501  502  0.00000000000E+00 -0.00000000000E+00 -0.88844095163E+03  0.88844095163E+03  0.00000000000E+00 0. -1.
         21    1    1    2  503  502 -0.10224404186E+03  0.39759255341E+02 -0.86103103937E+03  0.86799141312E+03  0.00000000000E+00 0. -1.
         -2    1    1    2    0  503  0.10224404186E+03 -0.39759255341E+02  0.10179928204E+03  0.14965873280E+03  0.00000000000E+00 0.  1.
<mgrwt>
<rscale>  2 0.10970252E+03</rscale>
<asrwt>0</asrwt>
<pdfrwt beam="2">  1       21 0.13668323E+00 0.10970252E+03</pdfrwt>
<pdfrwt beam="1">  1       -2 0.19878337E-01 0.10970252E+03</pdfrwt>
<totfact> 0.67711384E+02</totfact>
</mgrwt>
</event>
<event>
 4    1  0.5142205E+003  0.1468953E+03  0.7546771E-02  0.1204341E+00
         21   -1    0    0  501  502  0.00000000000E+00  0.00000000000E+00  0.79182442049E+02  0.79182442049E+02  0.00000000000E+00 0. -1.
          2   -1    0    0  503    0 -0.00000000000E+00 -0.00000000000E+00 -0.86361308152E+03  0.86361308152E+03  0.00000000000E+00 0.  1.
         21    1    1    2  503  502 -0.14687067455E+03 -0.26874862415E+01 -0.22207626398E+01  0.14691204652E+03  0.00000000000E+00 0. -1.
          2    1    1    2  501    0  0.14687067455E+03  0.26874862415E+01 -0.78220987683E+03  0.79588347705E+03  0.00000000000E+00 0.  1.
<mgrwt>
<rscale>  2 0.14689526E+03</rscale>
<asrwt>0</asrwt>
<pdfrwt beam="1">  1       21 0.12181914E-01 0.14689526E+03</pdfrwt>
<pdfrwt beam="2">  1        2 0.13286355E+00 0.14689526E+03</pdfrwt>
<totfact> 0.23426020E+04</totfact>
</mgrwt>
</event>
<event>
 4    1  0.5142205E+003  0.1355820E+03  0.7546771E-02  0.1219400E+00
          2   -1    0    0  502    0 -0.00000000000E+00  0.00000000000E+00  0.43402387801E+02  0.43402387801E+02  0.00000000000E+00 0.  1.
         21   -1    0    0  503  502  0.00000000000E+00 -0.00000000000E+00 -0.43092907555E+03  0.43092907555E+03  0.00000000000E+00 0.  1.
         21    1    1    2  503  501 -0.13073983223E+03 -0.35910828039E+02 -0.22482679554E+03  0.26254443299E+03  0.00000000000E+00 0.  1.
          2    1    1    2  501    0  0.13073983223E+03  0.35910828039E+02 -0.16269989221E+03  0.21178703036E+03  0.00000000000E+00 0.  1.
<mgrwt>
<rscale>  2 0.13558205E+03</rscale>
<asrwt>0</asrwt>
<pdfrwt beam="2">  1       21 0.66296781E-01 0.13558205E+03</pdfrwt>
<pdfrwt beam="1">  1        2 0.66772904E-02 0.13558205E+03</pdfrwt>
<totfact> 0.27005083E+04</totfact>
</mgrwt>
</event>
<event>
 4    1  0.5142205E+003  0.1031352E+03  0.7546771E-02  0.1273838E+00
          2   -1    0    0  502    0 -0.00000000000E+00  0.00000000000E+00  0.33082955146E+04  0.33082955146E+04  0.00000000000E+00 0.  1.
         21   -1    0    0  503  502  0.00000000000E+00 -0.00000000000E+00 -0.12085095577E+02  0.12085095577E+02  0.00000000000E+00 0. -1.
         21    1    1    2  503  501  0.75482978780E+02  0.70279301463E+02  0.22580304539E+03  0.24824156704E+03  0.00000000000E+00 0. -1.
          2    1    1    2  501    0 -0.75482978780E+02 -0.70279301463E+02  0.30704073736E+04  0.30721390431E+04  0.00000000000E+00 0.  1.
<mgrwt>
<rscale>  2 0.10313516E+03</rscale>
<asrwt>0</asrwt>
<pdfrwt beam="2">  1       21 0.18592481E-02 0.10313516E+03</pdfrwt>
<pdfrwt beam="1">  1        2 0.50896782E+00 0.10313516E+03</pdfrwt>
<totfact> 0.26017840E+04</totfact>
</mgrwt>
</event>
<event>
 4    1  0.5142205E+003  0.1122080E+03  0.7546771E-02  0.1256535E+00
         21   -1    0    0  501  502  0.00000000000E+00  0.00000000000E+00  0.13741307121E+03  0.13741307121E+03  0.00000000000E+00 0. -1.
          2   -1    0    0  503    0 -0.00000000000E+00 -0.00000000000E+00 -0.44606151226E+03  0.44606151226E+03  0.00000000000E+00 0. -1.
         21    1    1    2  503  502 -0.46034185099E+02 -0.10233027263E+03  0.10572951252E+03  0.15417315172E+03  0.00000000000E+00 0. -1.
          2    1    1    2  501    0  0.46034185099E+02  0.10233027263E+03 -0.41437795357E+03  0.42930143175E+03  0.00000000000E+00 0. -1.
<mgrwt>
<rscale>  2 0.11220798E+03</rscale>
<asrwt>0</asrwt>
<pdfrwt beam="1">  1       21 0.21140473E-01 0.11220798E+03</pdfrwt>
<pdfrwt beam="2">  1        2 0.68624847E-01 0.11220798E+03</pdfrwt>
<totfact> 0.18599576E+04</totfact>
</mgrwt>
</event>
<event>
 4    1  0.5142205E+003  0.1273612E+03  0.7546771E-02  0.1231425E+00
          1   -1    0    0  503    0 -0.00000000000E+00  0.00000000000E+00  0.10586913379E+04  0.10586913379E+04  0.00000000000E+00 0.  1.
         21   -1    0    0  501  502  0.00000000000E+00 -0.00000000000E+00 -0.11002293668E+03  0.11002293668E+03  0.00000000000E+00 0. -1.
         21    1    1    2  503  502  0.28301508360E+02 -0.12417684312E+03 -0.67809918078E+02  0.14428807550E+03  0.00000000000E+00 0. -1.
          1    1    1    2  501    0 -0.28301508360E+02  0.12417684312E+03  0.10164783193E+04  0.10244261990E+04  0.00000000000E+00 0.  1.
<mgrwt>
<rscale>  2 0.12736115E+03</rscale>
<asrwt>0</asrwt>
<pdfrwt beam="2">  1       21 0.16926606E-01 0.12736115E+03</pdfrwt>
<pdfrwt beam="1">  1        1 0.16287558E+00 0.12736115E+03</pdfrwt>
<totfact> 0.52615239E+03</totfact>
</mgrwt>
</event>
<event>
 4    1  0.5142205E+003  0.1044699E+03  0.7546771E-02  0.1271168E+00
          1   -1    0    0  502    0 -0.00000000000E+00  0.00000000000E+00  0.31083664742E+03  0.31083664742E+03  0.00000000000E+00 0.  1.
         21   -1    0    0  503  502  0.00000000000E+00 -0.00000000000E+00 -0.57418432561E+02  0.57418432561E+02  0.00000000000E+00 0.  1.
         21    1    1    2  503  501  0.77616620366E+02  0.69925785805E+02  0.11943287752E+02  0.10515035616E+03  0.00000000000E+00 0.  1.
          1    1    1    2  501    0 -0.77616620366E+02 -0.69925785805E+02  0.24147492711E+03  0.26310472382E+03  0.00000000000E+00 0.  1.
<mgrwt>
<rscale>  2 0.10446988E+03</rscale>
<asrwt>0</asrwt>
<pdfrwt beam="2">  1       21 0.88336052E-02 0.10446988E+03</pdfrwt>
<pdfrwt beam="1">  1        1 0.47821022E-01 0.10446988E+03</pdfrwt>
<totfact> 0.90947310E+04</totfact>
</mgrwt>
</event>
<event>
 4    1  0.5142205E+003  0.1158690E+03  0.7546771E-02  0.1250072E+00
          1   -1    0    0  503    0 -0.00000000000E+00  0.00000000000E+00  0.24958150755E+04  0.24958150755E+04  0.00000000000E+00 0.  1.
         21   -1    0    0  501  502  0.00000000000E+00 -0.00000000000E+00 -0.57377226302E+01  0.57377226302E+01  0.00000000000E+00 0.  1.
         21    1    1    2  503  502 -0.36530909064E+02 -0.10995963772E+03  0.93240625054E+03  0.93957812090E+03  0.00000000000E+00 0.  1.
          1    1    1    2  501    0  0.36530909064E+02  0.10995963772E+03  0.15576711023E+04  0.15619746772E+04  0.00000000000E+00 0.  1.
<mgrwt>
<rscale>  2 0.11586902E+03</rscale>
<asrwt>0</asrwt>
<pdfrwt beam="2">  1       21 0.88272855E-03 0.11586902E+03</pdfrwt>
<pdfrwt beam="1">  1        1 0.38397068E+00 0.11586902E+03</pdfrwt>
<totfact> 0.85230264E+04</totfact>
</mgrwt>
</event>
<event>
 4    1  0.5142205E+003  0.1259626E+03  0.7546771E-02  0.1233572E+00
          2   -1    0    0  502    0 -0.00000000000E+00  0.00000000000E+00  0.18377165108E+04  0.18377165108E+04  0.00000000000E+00 0.  1.
         21   -1    0    0  503  502  0.00000000000E+00 -0.00000000000E+00 -0.14476781755E+02  0.14476781755E+02  0.00000000000E+00 0. -1.
         21    1    1    2  503  501 -0.54376217773E+02  0.11362134297E+03  0.32327031829E+03  0.34694420492E+03  0.00000000000E+00 0. -1.
          2    1    1    2  501    0  0.54376217773E+02 -0.11362134297E+03  0.14999694107E+04  0.15052490876E+04  0.00000000000E+00 0.  1.
<mgrwt>
<rscale>  2 0.12596262E+03</rscale>
<asrwt>0</asrwt>
<pdfrwt beam="2">  1       21 0.22271986E-02 0.12596262E+03</pdfrwt>
<pdfrwt beam="1">  1        2 0.28272543E+00 0.12596262E+03</pdfrwt>
<totfact> 0.12148126E+05</totfact>
</mgrwt>
</event>
<event>
 4    1  0.5142205E+003  0.1014567E+03  0.7546771E-02  0.1277262E+00
         21   -1    0    0  501  502  0.00000000000E+00  0.00000000000E+00  0.70345554781E+02  0.70345554781E+02  0.00000000000E+00 0. -1.
          4   -1    0    0  503    0 -0.00000000000E+00 -0.00000000000E+00 -0.16040889585E+04  0.16040889585E+04  0.00000000000E+00 0. -1.
         21    1    1    2  503  502 -0.75266933801E+02 -0.68031927157E+02  0.31246567442E+02  0.10615932561E+03  0.00000000000E+00 0. -1.
          4    1    1    2  501    0  0.75266933801E+02  0.68031927157E+02 -0.15649899711E+04  0.15682751876E+04  0.00000000000E+00 0. -1.
<mgrwt>
<rscale>  2 0.10145666E+03</rscale>
<asrwt>0</asrwt>
<pdfrwt beam="1">  1       21 0.10822392E-01 0.10145666E+03</pdfrwt>
<pdfrwt beam="2">  1        4 0.24678293E+00 0.10145666E+03</pdfrwt>
<totfact> 0.22865297E+02</totfact>
</mgrwt>
</event>
<event>
 4    1  0.5142205E+003  0.1603792E+03  0.7546771E-02  0.1188269E+00
         21   -1    0    0  503  502  0.00000000000E+00  0.00000000000E+00  0.11424471296E+03  0.11424471296E+03  0.00000000000E+00 0.  1.
          1   -1    0    0  502    0 -0.00000000000E+00 -0.00000000000E+00 -0.73394794769E+03  0.73394794769E+03  0.00000000000E+00 0. -1.
         21    1    1    2  503  501 -0.14563434819E+03  0.67172451748E+02  0.43256058072E+02  0.16611016889E+03  0.00000000000E+00 0.  1.
          1    1    1    2  501    0  0.14563434819E+03 -0.67172451748E+02 -0.66295929281E+03  0.68208249176E+03  0.00000000000E+00 0. -1.
<mgrwt>
<rscale>  2 0.16037924E+03</rscale>
<asrwt>0</asrwt>
<pdfrwt beam="1">  1       21 0.17576109E-01 0.16037924E+03</pdfrwt>
<pdfrwt beam="2">  1        1 0.11291507E+00 0.16037924E+03</pdfrwt>
<totfact> 0.86773552E+03</totfact>
</mgrwt>
</event>
<event>
 4    1  0.5142205E+003  0.1024549E+03  0.7546771E-02  0.1275217E+00
         -3   -1    0    0    0  501 -0.00000000000E+00  0.00000000000E+00  0.26925660515E+03  0.26925660515E+03  0.00000000000E+00 0. -1.
         21   -1    0    0  503  502  0.00000000000E+00 -0.00000000000E+00 -0.71554175522E+02  0.71554175522E+02  0.00000000000E+00 0. -1.
         21    1    1    2  503  501  0.76247300518E+02 -0.68434990492E+02 -0.16114535154E+02  0.10371440114E+03  0.00000000000E+00 0. -1.
         -3    1    1    2    0  502 -0.76247300518E+02  0.68434990492E+02  0.21381696478E+03  0.23709637953E+03  0.00000000000E+00 0. -1.
<mgrwt>
<rscale>  2 0.10245486E+03</rscale>
<asrwt>0</asrwt>
<pdfrwt beam="2">  1       21 0.11008335E-01 0.10245486E+03</pdfrwt>
<pdfrwt beam="1">  1       -3 0.41424093E-01 0.10245486E+03</pdfrwt>
<totfact> 0.18729368E+04</totfact>
</mgrwt>
</event>
<event>
 4    1  0.5142205E+003  0.2045162E+03  0.7546771E-02  0.1145984E+00
         21   -1    0    0  501  502  0.00000000000E+00  0.00000000000E+00  0.83998816816E+03  0.83998816816E+03  0.00000000000E+00 0.  1.
         -1   -1    0    0    0  501 -0.00000000000E+00 -0.00000000000E+00 -0.14669492118E+03  0.14669492118E+03  0.00000000000E+00 0.  1.
         21    1    1    2  503  502  0.62619503953E+00  0.20451521017E+03  0.74760822987E+03  0.77507736949E+03  0.00000000000E+00 0.  1.
         -1    1    1    2    0  503 -0.62619503953E+00 -0.20451521017E+03 -0.54314982893E+02  0.21160571986E+03  0.00000000000E+00 0.  1.
<mgrwt>
<rscale>  2 0.20451617E+03</rscale>
<asrwt>0</asrwt>
<pdfrwt beam="1">  1       21 0.12922895E+00 0.20451617E+03</pdfrwt>
<pdfrwt beam="2">  1       -1 0.22568450E-01 0.20451617E+03</pdfrwt>
<totfact> 0.65455666E+02</totfact>
</mgrwt>
</event>
<event>
 4    1  0.5142205E+003  0.1213878E+03  0.7546771E-02  0.1240825E+00
         21   -1    0    0  503  502  0.00000000000E+00  0.00000000000E+00  0.31457493626E+02  0.31457493626E+02  0.00000000000E+00 0.  1.
         -1   -1    0    0    0  501 -0.00000000000E+00 -0.00000000000E+00 -0.87057870945E+03  0.87057870945E+03  0.00000000000E+00 0. -1.
         21    1    1    2  503  501 -0.11384175028E+02  0.12085282873E+03 -0.11301572421E+03  0.16585403092E+03  0.00000000000E+00 0.  1.
         -1    1    1    2    0  502  0.11384175028E+02 -0.12085282873E+03 -0.72610549161E+03  0.73618217216E+03  0.00000000000E+00 0. -1.
<mgrwt>
<rscale>  2 0.12138783E+03</rscale>
<asrwt>0</asrwt>
<pdfrwt beam="1">  1       21 0.48396141E-02 0.12138783E+03</pdfrwt>
<pdfrwt beam="2">  1       -1 0.13393519E+00 0.12138783E+03</pdfrwt>
<totfact> 0.13600233E+04</totfact>
</mgrwt>
</event>
<event>
 4    1  0.5142205E+003  0.1055777E+03  0.7546771E-02  0.1268986E+00
          2   -1    0    0  502    0 -0.00000000000E+00  0.00000000000E+00  0.18062737637E+04  0.18062737637E+04  0.00000000000E+00 0. -1.
         21   -1    0    0  503  502  0.00000000000E+00 -0.00000000000E+00 -0.11787112373E+02  0.11787112373E+02  0.00000000000E+00 0.  1.
         21    1    1    2  503  501  0.72175470584E+02  0.77054234202E+02  0.26977811694E+03  0.28970137373E+03  0.00000000000E+00 0.  1.
          2    1    1    2  501    0 -0.72175470584E+02 -0.77054234202E+02  0.15247085344E+04  0.15283595024E+04  0.00000000000E+00 0. -1.
<mgrwt>
<rscale>  2 0.10557771E+03</rscale>
<asrwt>0</asrwt>
<pdfrwt beam="2">  1       21 0.18134033E-02 0.10557771E+03</pdfrwt>
<pdfrwt beam="1">  1        2 0.27788805E+00 0.10557771E+03</pdfrwt>
<totfact> 0.17543411E+05</totfact>
</mgrwt>
</event>
<event>
 4    1  0.5142205E+003  0.1695856E+03  0.7546771E-02  0.1178281E+00
         21   -1    0    0  501  502  0.00000000000E+00  0.00000000000E+00  0.32629146365E+02  0.32629146365E+02  0.00000000000E+00 0. -1.
         -1   -1    0    0    0  501 -0.00000000000E+00 -0.00000000000E+00 -0.20424703829E+04  0.20424703829E+04  0.00000000000E+00 0. -1.
         21    1    1    2  503  502 -0.64963217998E+02 -0.15664947522E+03 -0.22264350777E+03  0.27987391684E+03  0.00000000000E+00 0. -1.
         -1    1    1    2    0  503  0.64963217998E+02  0.15664947522E+03 -0.17871977287E+04  0.17952256124E+04  0.00000000000E+00 0. -1.
<mgrwt>
<rscale>  2 0.16958561E+03</rscale>
<asrwt>0</asrwt>
<pdfrwt beam="1">  1       21 0.50198674E-02 0.16958561E+03</pdfrwt>
<pdfrwt beam="2">  1       -1 0.31422629E+00 0.16958561E+03</pdfrwt>
<totfact> 0.82043198E+02</totfact>
</mgrwt>
</event>
<event>
 4    1  0.5142205E+003  0.1045078E+03  0.7546771E-02  0.1271092E+00
         21   -1    0    0  503  502  0.00000000000E+00  0.00000000000E+00  0.13994759337E+02  0.13994759337E+02  0.00000000000E+00 0.  1.
          2   -1    0    0  502    0 -0.00000000000E+00 -0.00000000000E+00 -0.14329819878E+04  0.14329819878E+04  0.00000000000E+00 0. -1.
         21    1    1    2  503  501  0.80412494616E+02 -0.66751080884E+02 -0.22126859441E+03  0.24470730876E+03  0.00000000000E+00 0.  1.
          2    1    1    2  501    0 -0.80412494616E+02  0.66751080884E+02 -0.11977186340E+04  0.12022694383E+04  0.00000000000E+00 0. -1.
<mgrwt>
<rscale>  2 0.10450778E+03</rscale>
<asrwt>0</asrwt>
<pdfrwt beam="1">  1       21 0.21530395E-02 0.10450778E+03</pdfrwt>
<pdfrwt beam="2">  1        2 0.22045881E+00 0.10450778E+03</pdfrwt>
<totfact> 0.20638853E+05</totfact>
</mgrwt>
</event>
<event>
 4    1  0.5142205E+003  0.2310697E+03  0.7546771E-02  0.1125889E+00
         21   -1    0    0  503  502  0.00000000000E+00  0.00000000000E+00  0.13771184302E+04  0.13771184302E+04  0.00000000000E+00 0.  1.
         -4   -1    0    0    0  501 -0.00000000000E+00 -0.00000000000E+00 -0.83967326913E+02  0.83967326913E+02  0.00000000000E+00 0.  1.
         21    1    1    2  503  501  0.31361931781E+02  0.22893149244E+03  0.11825435229E+04  0.12049076241E+04  0.00000000000E+00 0.  1.
         -4    1    1    2    0  502 -0.31361931781E+02 -0.22893149244E+03  0.11060758034E+03  0.25617813299E+03  0.00000000000E+00 0.  1.
<mgrwt>
<rscale>  2 0.23106968E+03</rscale>
<asrwt>0</asrwt>
<pdfrwt beam="1">  1       21 0.21186436E+00 0.23106968E+03</pdfrwt>
<pdfrwt beam="2">  1       -4 0.12918051E-01 0.23106968E+03</pdfrwt>
<totfact> 0.22905847E+02</totfact>
</mgrwt>
</event>
<event>
 4    1  0.5142205E+003  0.2356484E+03  0.7546771E-02  0.1122726E+00
         21   -1    0    0  501  502  0.00000000000E+00  0.00000000000E+00  0.25180453209E+03  0.25180453209E+03  0.00000000000E+00 0.  1.
          2   -1    0    0  503    0 -0.00000000000E+00 -0.00000000000E+00 -0.74780275577E+03  0.74780275577E+03  0.00000000000E+00 0. -1.
         21    1    1    2  503  502  0.23160722453E+03  0.43454245079E+02  0.17168642627E+03  0.29155858216E+03  0.00000000000E+00 0.  1.
          2    1    1    2  501    0 -0.23160722453E+03 -0.43454245079E+02 -0.66768464995E+03  0.70804870570E+03  0.00000000000E+00 0. -1.
<mgrwt>
<rscale>  2 0.23564842E+03</rscale>
<asrwt>0</asrwt>
<pdfrwt beam="1">  1       21 0.38739160E-01 0.23564842E+03</pdfrwt>
<pdfrwt beam="2">  1        2 0.11504658E+00 0.23564842E+03</pdfrwt>
<totfact> 0.30832174E+03</totfact>
</mgrwt>
</event>
<event>
 4    1  0.5142205E+003  0.1313725E+03  0.7546771E-02  0.1225433E+00
          2   -1    0    0  502    0 -0.00000000000E+00  0.00000000000E+00  0.28794001562E+04  0.28794001562E+04  0.00000000000E+00 0.  1.
         21   -1    0    0  503  502  0.00000000000E+00 -0.00000000000E+00 -0.30308044754E+02  0.30308044754E+02  0.00000000000E+00 0. -1.
         21    1    1    2  503  501  0.78251779478E+01  0.13113923620E+03  0.12146838225E+03  0.17892261055E+03  0.00000000000E+00 0. -1.
          2    1    1    2  501    0 -0.78251779478E+01 -0.13113923620E+03  0.27276237292E+04  0.27307855904E+04  0.00000000000E+00 0.  1.
<mgrwt>
<rscale>  2 0.13137250E+03</rscale>
<asrwt>0</asrwt>
<pdfrwt beam="2">  1       21 0.46627784E-02 0.13137250E+03</pdfrwt>
<pdfrwt beam="1">  1        2 0.44298443E+00 0.13137250E+03</pdfrwt>
<totfact> 0.10121979E+04</totfact>
</mgrwt>
</event>
<event>
 4    1  0.5142205E+003  0.1129497E+03  0.7546771E-02  0.1255203E+00
         21   -1    0    0  501  502  0.00000000000E+00  0.00000000000E+00  0.11353197301E+02  0.11353197301E+02  0.00000000000E+00 0.  1.
          1   -1    0    0  503    0 -0.00000000000E+00 -0.00000000000E+00 -0.11986826970E+04  0.11986826970E+04  0.00000000000E+00 0.  1.
         21    1    1    2  503  502 -0.12893947168E+02  0.11221136446E+03 -0.44234964403E+03  0.45654227818E+03  0.00000000000E+00 0.  1.
          1    1    1    2  501    0  0.12893947168E+02 -0.11221136446E+03 -0.74497985570E+03  0.75349361615E+03  0.00000000000E+00 0.  1.
<mgrwt>
<rscale>  2 0.11294974E+03</rscale>
<asrwt>0</asrwt>
<pdfrwt beam="1">  1       21 0.17466458E-02 0.11294974E+03</pdfrwt>
<pdfrwt beam="2">  1        1 0.18441272E+00 0.11294974E+03</pdfrwt>
<totfact> 0.19677348E+05</totfact>
</mgrwt>
</event>
<event>
 4    1  0.5142205E+003  0.1522190E+03  0.7546771E-02  0.1197773E+00
         21   -1    0    0  503  502  0.00000000000E+00  0.00000000000E+00  0.35813738035E+02  0.35813738035E+02  0.00000000000E+00 0.  1.
         -3   -1    0    0    0  501 -0.00000000000E+00 -0.00000000000E+00 -0.14568475327E+04  0.14568475327E+04  0.00000000000E+00 0. -1.
         21    1    1    2  503  501 -0.69150668934E+01  0.15206186408E+03 -0.15405903030E+03  0.21657519127E+03  0.00000000000E+00 0.  1.
         -3    1    1    2    0  502  0.69150668934E+01 -0.15206186408E+03 -0.12669747644E+04  0.12760860795E+04  0.00000000000E+00 0. -1.
<mgrwt>
<rscale>  2 0.15221902E+03</rscale>
<asrwt>0</asrwt>
<pdfrwt beam="1">  1       21 0.55098065E-02 0.15221902E+03</pdfrwt>
<pdfrwt beam="2">  1       -3 0.22413036E+00 0.15221902E+03</pdfrwt>
<totfact> 0.13063766E+03</totfact>
</mgrwt>
</event>
<event>
 4    1  0.5142205E+003  0.1622647E+03  0.7546771E-02  0.1186163E+00
          2   -1    0    0  502    0 -0.00000000000E+00  0.00000000000E+00  0.25155599721E+04  0.25155599721E+04  0.00000000000E+00 0.  1.
         21   -1    0    0  503  502  0.00000000000E+00 -0.00000000000E+00 -0.21662435255E+02  0.21662435255E+02  0.00000000000E+00 0. -1.
         21    1    1    2  503  501  0.85203221852E+02 -0.13809506736E+03  0.33493902460E+03  0.37217467249E+03  0.00000000000E+00 0. -1.
          2    1    1    2  501    0 -0.85203221852E+02  0.13809506736E+03  0.21589585122E+04  0.21650477348E+04  0.00000000000E+00 0.  1.
<mgrwt>
<rscale>  2 0.16226471E+03</rscale>
<asrwt>0</asrwt>
<pdfrwt beam="2">  1       21 0.33326843E-02 0.16226471E+03</pdfrwt>
<pdfrwt beam="1">  1        2 0.38700900E+00 0.16226471E+03</pdfrwt>
<totfact> 0.27652500E+04</totfact>
</mgrwt>
</event>
<event>
 4    1  0.5142205E+003  0.1082316E+03  0.7546771E-02  0.1263880E+00
         -1   -1    0    0    0  501 -0.00000000000E+00  0.00000000000E+00  0.34148044152E+03  0.34148044152E+03  0.00000000000E+00 0. -1.
         21   -1    0    0  501  502  0.00000000000E+00 -0.00000000000E+00 -0.42556760163E+03  0.42556760163E+03  0.00000000000E+00 0.  1.
         21    1    1    2  503  502  0.16327137498E+02 -0.10699299920E+03 -0.40978548893E+03  0.42383749743E+03  0.00000000000E+00 0.  1.
         -1    1    1    2    0  503 -0.16327137498E+02  0.10699299920E+03  0.32569832882E+03  0.34321054571E+03  0.00000000000E+00 0. -1.
<mgrwt>
<rscale>  2 0.10823159E+03</rscale>
<asrwt>0</asrwt>
<pdfrwt beam="2">  1       21 0.65471939E-01 0.10823159E+03</pdfrwt>
<pdfrwt beam="1">  1       -1 0.52535453E-01 0.10823159E+03</pdfrwt>
<totfact> 0.77903023E+02</totfact>
</mgrwt>
</event>
<event>
 4    1  0.5142205E+003  0.1168349E+03  0.7546771E-02  0.1248412E+00
         21   -1    0    0  501  502  0.00000000000E+00  0.00000000000E+00  0.74895376425E+02  0.74895376425E+02  0.00000000000E+00 0.  1.
          2   -1    0    0  503    0 -0.00000000000E+00 -0.00000000000E+00 -0.54653466551E+03  0.54653466551E+03  0.00000000000E+00 0. -1.
         21    1    1    2  503  502 -0.78701063697E+02  0.86351223087E+02  0.17849822125E+02  0.11819055506E+03  0.00000000000E+00 0.  1.
          2    1    1    2  501    0  0.78701063697E+02 -0.86351223087E+02 -0.48948911121E+03  0.50323948688E+03  0.00000000000E+00 0. -1.
<mgrwt>
<rscale>  2 0.11683489E+03</rscale>
<asrwt>0</asrwt>
<pdfrwt beam="1">  1       21 0.11522365E-01 0.11683489E+03</pdfrwt>
<pdfrwt beam="2">  1        2 0.84082257E-01 0.11683489E+03</pdfrwt>
<totfact> 0.44547036E+04</totfact>
</mgrwt>
</event>
<event>
 4    1  0.5142205E+003  0.1229803E+03  0.7546771E-02  0.1238260E+00
         21   -1    0    0  503  502  0.00000000000E+00  0.00000000000E+00  0.10181048475E+04  0.10181048475E+04  0.00000000000E+00 0. -1.
          1   -1    0    0  502    0 -0.00000000000E+00 -0.00000000000E+00 -0.11860202924E+03  0.11860202924E+03  0.00000000000E+00 0.  1.
         21    1    1    2  503  501 -0.94448601877E+02  0.78763075452E+02  0.98132063316E+03  0.98899663575E+03  0.00000000000E+00 0. -1.
          1    1    1    2  501    0  0.94448601877E+02 -0.78763075452E+02 -0.81817814915E+02  0.14771024097E+03  0.00000000000E+00 0.  1.
<mgrwt>
<rscale>  2 0.12298033E+03</rscale>
<asrwt>0</asrwt>
<pdfrwt beam="1">  1       21 0.15663151E+00 0.12298033E+03</pdfrwt>
<pdfrwt beam="2">  1        1 0.18246467E-01 0.12298033E+03</pdfrwt>
<totfact> 0.86453231E+02</totfact>
</mgrwt>
</event>
<event>
 4    1  0.5142205E+003  0.1231177E+03  0.7546771E-02  0.1238041E+00
          2   -1    0    0  503    0 -0.00000000000E+00  0.00000000000E+00  0.25344874267E+03  0.25344874267E+03  0.00000000000E+00 0.  1.
         21   -1    0    0  501  502  0.00000000000E+00 -0.00000000000E+00 -0.59838306421E+02  0.59838306421E+02  0.00000000000E+00 0.  1.
         21    1    1    2  503  502 -0.26766112238E+02 -0.12017294428E+03  0.93211535660E+02  0.15442263980E+03  0.00000000000E+00 0.  1.
          2    1    1    2  501    0  0.26766112238E+02  0.12017294428E+03  0.10039890059E+03  0.15886440930E+03  0.00000000000E+00 0.  1.
<mgrwt>
<rscale>  2 0.12311767E+03</rscale>
<asrwt>0</asrwt>
<pdfrwt beam="2">  1       21 0.92058934E-02 0.12311767E+03</pdfrwt>
<pdfrwt beam="1">  1        2 0.38992114E-01 0.12311767E+03</pdfrwt>
<totfact> 0.15009783E+05</totfact>
</mgrwt>
</event>
<event>
 4    1  0.5142205E+003  0.1226460E+03  0.7546771E-02  0.1238795E+00
          2   -1    0    0  503    0 -0.00000000000E+00  0.00000000000E+00  0.81887186410E+02  0.81887186410E+02  0.00000000000E+00 0.  1.
         21   -1    0    0  501  502  0.00000000000E+00 -0.00000000000E+00 -0.19511892954E+03  0.19511892954E+03  0.00000000000E+00 0. -1.
         21    1    1    2  503  502 -0.45625195921E+02  0.11384365316E+03 -0.90133323501E+02  0.15220398113E+03  0.00000000000E+00 0. -1.
          2    1    1    2  501    0  0.45625195921E+02 -0.11384365316E+03 -0.23098419632E+02  0.12480213482E+03  0.00000000000E+00 0.  1.
<mgrwt>
<rscale>  2 0.12264598E+03</rscale>
<asrwt>0</asrwt>
<pdfrwt beam="2">  1       21 0.30018297E-01 0.12264598E+03</pdfrwt>
<pdfrwt beam="1">  1        2 0.12598029E-01 0.12264598E+03</pdfrwt>
<totfact> 0.61679370E+04</totfact>
</mgrwt>
</event>
<event>
 4    1  0.5142205E+003  0.1506616E+03  0.7546771E-02  0.1199662E+00
         21   -1    0    0  501  502  0.00000000000E+00  0.00000000000E+00  0.25334377642E+03  0.25334377642E+03  0.00000000000E+00 0.  1.
         -2   -1    0    0    0  501 -0.00000000000E+00 -0.00000000000E+00 -0.20703836524E+03  0.20703836524E+03  0.00000000000E+00 0. -1.
         21    1    1    2  503  502  0.86164577425E+02 -0.12359041341E+03  0.19652232782E+03  0.24762865348E+03  0.00000000000E+00 0.  1.
         -2    1    1    2    0  503 -0.86164577425E+02  0.12359041341E+03 -0.15021691664E+03  0.21275348818E+03  0.00000000000E+00 0. -1.
<mgrwt>
<rscale>  2 0.15066162E+03</rscale>
<asrwt>0</asrwt>
<pdfrwt beam="1">  1       21 0.38975966E-01 0.15066162E+03</pdfrwt>
<pdfrwt beam="2">  1       -2 0.31852056E-01 0.15066162E+03</pdfrwt>
<totfact> 0.47052030E+03</totfact>
</mgrwt>
</event>
<event>
 4    1  0.5142205E+003  0.1195090E+03  0.7546771E-02  0.1243909E+00
         21   -1    0    0  501  502  0.00000000000E+00  0.00000000000E+00  0.16024744057E+03  0.16024744057E+03  0.00000000000E+00 0.  1.
         -2   -1    0    0    0  501 -0.00000000000E+00 -0.00000000000E+00 -0.32054586718E+03  0.32054586718E+03  0.00000000000E+00 0.  1.
         21    1    1    2  503  502 -0.11905665052E+03  0.10388169024E+02  0.12411042295E+03  0.17229566789E+03  0.00000000000E+00 0.  1.
         -2    1    1    2    0  503  0.11905665052E+03 -0.10388169024E+02 -0.28440884956E+03  0.30849763985E+03  0.00000000000E+00 0.  1.
<mgrwt>
<rscale>  2 0.11950900E+03</rscale>
<asrwt>0</asrwt>
<pdfrwt beam="1">  1       21 0.24653453E-01 0.11950900E+03</pdfrwt>
<pdfrwt beam="2">  1       -2 0.49314748E-01 0.11950900E+03</pdfrwt>
<totfact> 0.50271302E+03</totfact>
</mgrwt>
</event>
<event>
 4    1  0.5142205E+003  0.1192476E+03  0.7546771E-02  0.1244343E+00
          2   -1    0    0  502    0 -0.00000000000E+00  0.00000000000E+00  0.29268583694E+04  0.29268583694E+04  0.00000000000E+00 0.  1.
         21   -1    0    0  503  502  0.00000000000E+00 -0.00000000000E+00 -0.73385058061E+01  0.73385058061E+01  0.00000000000E+00 0. -1.
         21    1    1    2  503  501 -0.11770854820E+03 -0.19096839113E+02  0.60688320473E+03  0.61848784610E+03  0.00000000000E+00 0. -1.
          2    1    1    2  501    0  0.11770854820E+03  0.19096839113E+02  0.23126366589E+04  0.23157090291E+04  0.00000000000E+00 0.  1.
<mgrwt>
<rscale>  2 0.11924761E+03</rscale>
<asrwt>0</asrwt>
<pdfrwt beam="2">  1       21 0.11290032E-02 0.11924761E+03</pdfrwt>
<pdfrwt beam="1">  1        2 0.45028497E+00 0.11924761E+03</pdfrwt>
<totfact> 0.95636091E+04</totfact>
</mgrwt>
</event>
<event>
 4    1  0.5142205E+003  0.1533397E+03  0.7546771E-02  0.1196428E+00
          1   -1    0    0  503    0 -0.00000000000E+00  0.00000000000E+00  0.14927930233E+04  0.14927930233E+04  0.00000000000E+00 0.  1.
         21   -1    0    0  501  502  0.00000000000E+00 -0.00000000000E+00 -0.39264411535E+02  0.39264411535E+02  0.00000000000E+00 0.  1.
         21    1    1    2  503  502 -0.12266869226E+03  0.92007956271E+02  0.13397170331E+03  0.20362094530E+03  0.00000000000E+00 0.  1.
          1    1    1    2  501    0  0.12266869226E+03 -0.92007956271E+02  0.13195569085E+04  0.13284364895E+04  0.00000000000E+00 0.  1.
<mgrwt>
<rscale>  2 0.15333973E+03</rscale>
<asrwt>0</asrwt>
<pdfrwt beam="2">  1       21 0.60406798E-02 0.15333973E+03</pdfrwt>
<pdfrwt beam="1">  1        1 0.22966042E+00 0.15333973E+03</pdfrwt>
<totfact> 0.16203565E+04</totfact>
</mgrwt>
</event>
<event>
 4    1  0.5142205E+003  0.1572700E+03  0.7546771E-02  0.1191814E+00
          2   -1    0    0  503    0 -0.00000000000E+00  0.00000000000E+00  0.22944385123E+02  0.22944385123E+02  0.00000000000E+00 0. -1.
         21   -1    0    0  501  502  0.00000000000E+00 -0.00000000000E+00 -0.13660695228E+04  0.13660695228E+04  0.00000000000E+00 0. -1.
         21    1    1    2  503  502 -0.15679881299E+03  0.12164387783E+02 -0.99049277753E+03  0.10029006842E+04  0.00000000000E+00 0. -1.
          2    1    1    2  501    0  0.15679881299E+03 -0.12164387783E+02 -0.35263236010E+03  0.38611322364E+03  0.00000000000E+00 0. -1.
<mgrwt>
<rscale>  2 0.15726996E+03</rscale>
<asrwt>0</asrwt>
<pdfrwt beam="2">  1       21 0.21016458E+00 0.15726996E+03</pdfrwt>
<pdfrwt beam="1">  1        2 0.35299048E-02 0.15726996E+03</pdfrwt>
<totfact> 0.35329003E+03</totfact>
</mgrwt>
</event>
<event>
 4    1  0.5142205E+003  0.1615154E+03  0.7546771E-02  0.1186996E+00
         21   -1    0    0  501  502  0.00000000000E+00  0.00000000000E+00  0.82141682870E+02  0.82141682870E+02  0.00000000000E+00 0. -1.
          2   -1    0    0  503    0 -0.00000000000E+00 -0.00000000000E+00 -0.84959206561E+03  0.84959206561E+03  0.00000000000E+00 0.  1.
         21    1    1    2  503  502 -0.12267552405E+03 -0.10506163799E+03 -0.15075404596E+02  0.16221744604E+03  0.00000000000E+00 0. -1.
          2    1    1    2  501    0  0.12267552405E+03  0.10506163799E+03 -0.75237497815E+03  0.76951630244E+03  0.00000000000E+00 0.  1.
<mgrwt>
<rscale>  2 0.16151542E+03</rscale>
<asrwt>0</asrwt>
<pdfrwt beam="1">  1       21 0.12637182E-01 0.16151542E+03</pdfrwt>
<pdfrwt beam="2">  1        2 0.13070647E+00 0.16151542E+03</pdfrwt>
<totfact> 0.22356147E+04</totfact>
</mgrwt>
</event>
<event>
 4    1  0.5142205E+003  0.1085195E+03  0.7546771E-02  0.1263336E+00
         -3   -1    0    0    0  501 -0.00000000000E+00  0.00000000000E+00  0.20741724719E+04  0.20741724719E+04  0.00000000000E+00 0.  1.
         21   -1    0    0  503  502  0.00000000000E+00 -0.00000000000E+00 -0.58275835109E+03  0.58275835109E+03  0.00000000000E+00 0.  1.
         21    1    1    2  503  501  0.44698431888E+02  0.98886444158E+02 -0.57627105044E+03  0.58639986547E+03  0.00000000000E+00 0.  1.
         -3    1    1    2    0  502 -0.44698431888E+02 -0.98886444158E+02  0.20676851713E+04  0.20705309575E+04  0.00000000000E+00 0.  1.
<mgrwt>
<rscale>  2 0.10851949E+03</rscale>
<asrwt>0</asrwt>
<pdfrwt beam="2">  1       21 0.89655132E-01 0.10851949E+03</pdfrwt>
<pdfrwt beam="1">  1       -3 0.31910346E+00 0.10851949E+03</pdfrwt>
<totfact> 0.20590735E+00</totfact>
</mgrwt>
</event>
<event>
 4    1  0.5142205E+003  0.1195102E+03  0.7546771E-02  0.1243907E+00
         21   -1    0    0  503  502  0.00000000000E+00  0.00000000000E+00  0.26521565560E+03  0.26521565560E+03  0.00000000000E+00 0.  1.
          4   -1    0    0  502    0 -0.00000000000E+00 -0.00000000000E+00 -0.78225668253E+02  0.78225668253E+02  0.00000000000E+00 0.  1.
         21    1    1    2  503  501 -0.66452702668E+02 -0.99331348257E+02  0.18934646605E+03  0.22390793341E+03  0.00000000000E+00 0.  1.
          4    1    1    2  501    0  0.66452702668E+02  0.99331348257E+02 -0.23564787049E+01  0.11953339044E+03  0.00000000000E+00 0.  1.
<mgrwt>
<rscale>  2 0.11951016E+03</rscale>
<asrwt>0</asrwt>
<pdfrwt beam="1">  1       21 0.40802408E-01 0.11951016E+03</pdfrwt>
<pdfrwt beam="2">  1        4 0.12034718E-01 0.11951016E+03</pdfrwt>
<totfact> 0.12992537E+04</totfact>
</mgrwt>
</event>
<event>
 4    1  0.5142205E+003  0.1307788E+03  0.7546771E-02  0.1226305E+00
         21   -1    0    0  501  502  0.00000000000E+00  0.00000000000E+00  0.35826747953E+02  0.35826747953E+02  0.00000000000E+00 0. -1.
          2   -1    0    0  503    0 -0.00000000000E+00 -0.00000000000E+00 -0.29018993066E+04  0.29018993066E+04  0.00000000000E+00 0. -1.
         21    1    1    2  503  502 -0.75544399002E+02 -0.10675273099E+03 -0.90417766354E+02  0.15899205725E+03  0.00000000000E+00 0. -1.
          2    1    1    2  501    0  0.75544399002E+02  0.10675273099E+03 -0.27756547923E+04  0.27787339973E+04  0.00000000000E+00 0. -1.
<mgrwt>
<rscale>  2 0.13077883E+03</rscale>
<asrwt>0</asrwt>
<pdfrwt beam="1">  1       21 0.55118078E-02 0.13077883E+03</pdfrwt>
<pdfrwt beam="2">  1        2 0.44644602E+00 0.13077883E+03</pdfrwt>
<totfact> 0.74226989E+03</totfact>
</mgrwt>
</event>
<event>
 4    1  0.5142205E+003  0.1098346E+03  0.7546771E-02  0.1260876E+00
         21   -1    0    0  503  502  0.00000000000E+00  0.00000000000E+00  0.22274456629E+02  0.22274456629E+02  0.00000000000E+00 0. -1.
         -2   -1    0    0    0  501 -0.00000000000E+00 -0.00000000000E+00 -0.96941461349E+03  0.96941461349E+03  0.00000000000E+00 0. -1.
         21    1    1    2  503  501  0.66819164265E+02 -0.87171341890E+02 -0.14417040523E+03  0.18124223930E+03  0.00000000000E+00 0. -1.
         -2    1    1    2    0  502 -0.66819164265E+02  0.87171341890E+02 -0.80296975163E+03  0.81044683083E+03  0.00000000000E+00 0. -1.
<mgrwt>
<rscale>  2 0.10983462E+03</rscale>
<asrwt>0</asrwt>
<pdfrwt beam="1">  1       21 0.34268399E-02 0.10983462E+03</pdfrwt>
<pdfrwt beam="2">  1       -2 0.14914069E+00 0.10983462E+03</pdfrwt>
<totfact> 0.13348450E+04</totfact>
</mgrwt>
</event>
<event>
 4    1  0.5142205E+003  0.1583450E+03  0.7546771E-02  0.1190578E+00
         21   -1    0    0  503  502  0.00000000000E+00  0.00000000000E+00  0.38143575416E+03  0.38143575416E+03  0.00000000000E+00 0. -1.
          2   -1    0    0  502    0 -0.00000000000E+00 -0.00000000000E+00 -0.43572901129E+03  0.43572901129E+03  0.00000000000E+00 0. -1.
         21    1    1    2  503  501  0.15129029244E+03  0.46737510351E+02  0.34935734503E+03  0.38356707625E+03  0.00000000000E+00 0. -1.
          2    1    1    2  501    0 -0.15129029244E+03 -0.46737510351E+02 -0.40365060216E+03  0.43359768920E+03  0.00000000000E+00 0. -1.
<mgrwt>
<rscale>  2 0.15834503E+03</rscale>
<asrwt>0</asrwt>
<pdfrwt beam="1">  1       21 0.58682424E-01 0.15834503E+03</pdfrwt>
<pdfrwt beam="2">  1        2 0.67035232E-01 0.15834503E+03</pdfrwt>
<totfact> 0.25026557E+03</totfact>
</mgrwt>
</event>
<event>
 4    1  0.5142205E+003  0.1599752E+03  0.7546771E-02  0.1188725E+00
         21   -1    0    0  503  502  0.00000000000E+00  0.00000000000E+00  0.24726935621E+03  0.24726935621E+03  0.00000000000E+00 0. -1.
         -3   -1    0    0    0  501 -0.00000000000E+00 -0.00000000000E+00 -0.24892716937E+03  0.24892716937E+03  0.00000000000E+00 0. -1.
         21    1    1    2  503  501 -0.15992024877E+03  0.41928202681E+01  0.18880336023E+03  0.24746469353E+03  0.00000000000E+00 0. -1.
         -3    1    1    2    0  502  0.15992024877E+03 -0.41928202681E+01 -0.19046117339E+03  0.24873183205E+03  0.00000000000E+00 0. -1.
<mgrwt>
<rscale>  2 0.15997520E+03</rscale>
<asrwt>0</asrwt>
<pdfrwt beam="1">  1       21 0.38041440E-01 0.15997520E+03</pdfrwt>
<pdfrwt beam="2">  1       -3 0.38296488E-01 0.15997520E+03</pdfrwt>
<totfact> 0.22200272E+03</totfact>
</mgrwt>
</event>
<event>
 4    1  0.5142205E+003  0.1002108E+03  0.7546771E-02  0.1279853E+00
         21   -1    0    0  501  502  0.00000000000E+00  0.00000000000E+00  0.57924768485E+03  0.57924768485E+03  0.00000000000E+00 0.  1.
          2   -1    0    0  503    0 -0.00000000000E+00 -0.00000000000E+00 -0.70448043879E+03  0.70448043879E+03  0.00000000000E+00 0. -1.
         21    1    1    2  503  502  0.91773316869E+02 -0.40247433246E+02  0.57130064339E+03  0.58002295016E+03  0.00000000000E+00 0.  1.
          2    1    1    2  501    0 -0.91773316869E+02  0.40247433246E+02 -0.69653339734E+03  0.70370517348E+03  0.00000000000E+00 0. -1.
<mgrwt>
<rscale>  2 0.10021077E+03</rscale>
<asrwt>0</asrwt>
<pdfrwt beam="1">  1       21 0.89115029E-01 0.10021077E+03</pdfrwt>
<pdfrwt beam="2">  1        2 0.10838161E+00 0.10021077E+03</pdfrwt>
<totfact> 0.61035910E+02</totfact>
</mgrwt>
</event>
<event>
 4    1  0.5142205E+003  0.1079804E+03  0.7546771E-02  0.1264356E+00
         -1   -1    0    0    0  501 -0.00000000000E+00  0.00000000000E+00  0.31156539541E+03  0.31156539541E+03  0.00000000000E+00 0. -1.
         21   -1    0    0  503  502  0.00000000000E+00 -0.00000000000E+00 -0.17526823975E+03  0.17526823975E+03  0.00000000000E+00 0. -1.
         21    1    1    2  503  501  0.69291087428E+02 -0.82816196830E+02 -0.14772253147E+03  0.18298011793E+03  0.00000000000E+00 0. -1.
         -1    1    1    2    0  502 -0.69291087428E+02  0.82816196830E+02  0.28401968713E+03  0.30385351722E+03  0.00000000000E+00 0. -1.
<mgrwt>
<rscale>  2 0.10798045E+03</rscale>
<asrwt>0</asrwt>
<pdfrwt beam="2">  1       21 0.26964345E-01 0.10798045E+03</pdfrwt>
<pdfrwt beam="1">  1       -1 0.47933138E-01 0.10798045E+03</pdfrwt>
<totfact> 0.54657767E+03</totfact>
</mgrwt>
</event>
<event>
 4    1  0.5142205E+003  0.1390214E+03  0.7546771E-02  0.1214652E+00
          1   -1    0    0  503    0 -0.00000000000E+00  0.00000000000E+00  0.22844653176E+04  0.22844653176E+04  0.00000000000E+00 0.  1.
         21   -1    0    0  501  502  0.00000000000E+00 -0.00000000000E+00 -0.98989415343E+03  0.98989415343E+03  0.00000000000E+00 0. -1.
         21    1    1    2  503  502 -0.42295911361E+02  0.13243114717E+03 -0.98288303440E+03  0.99266611314E+03  0.00000000000E+00 0. -1.
          1    1    1    2  501    0  0.42295911361E+02 -0.13243114717E+03  0.22774541985E+04  0.22816933579E+04  0.00000000000E+00 0.  1.
<mgrwt>
<rscale>  2 0.13902141E+03</rscale>
<asrwt>0</asrwt>
<pdfrwt beam="2">  1       21 0.15229141E+00 0.13902141E+03</pdfrwt>
<pdfrwt beam="1">  1        1 0.35145620E+00 0.13902141E+03</pdfrwt>
<totfact> 0.79253562E+00</totfact>
</mgrwt>
</event>
<event>
 4    1  0.5142205E+003  0.1816216E+03  0.7546771E-02  0.1166243E+00
         21   -1    0    0  503  502  0.00000000000E+00  0.00000000000E+00  0.39744119652E+02  0.39744119652E+02  0.00000000000E+00 0. -1.
          2   -1    0    0  502    0 -0.00000000000E+00 -0.00000000000E+00 -0.19982298965E+04  0.19982298965E+04  0.00000000000E+00 0.  1.
         21    1    1    2  503  501 -0.11030190572E+02 -0.18128632722E+03 -0.20010236508E+03  0.27023573793E+03  0.00000000000E+00 0. -1.
          2    1    1    2  501    0  0.11030190572E+02  0.18128632722E+03 -0.17583834118E+04  0.17677382782E+04  0.00000000000E+00 0.  1.
<mgrwt>
<rscale>  2 0.18162158E+03</rscale>
<asrwt>0</asrwt>
<pdfrwt beam="1">  1       21 0.61144781E-02 0.18162158E+03</pdfrwt>
<pdfrwt beam="2">  1        2 0.30742007E+00 0.18162158E+03</pdfrwt>
<totfact> 0.18505681E+04</totfact>
</mgrwt>
</event>
<event>
 4    1  0.5142205E+003  0.1092894E+03  0.7546771E-02  0.1261891E+00
         -4   -1    0    0    0  501 -0.00000000000E+00  0.00000000000E+00  0.10266608730E+03  0.10266608730E+03  0.00000000000E+00 0. -1.
         21   -1    0    0  501  502  0.00000000000E+00 -0.00000000000E+00 -0.25136937687E+03  0.25136937687E+03  0.00000000000E+00 0.  1.
         21    1    1    2  503  502  0.10894173601E+03 -0.87109359779E+01 -0.20409184643E+03  0.23151169308E+03  0.00000000000E+00 0.  1.
         -4    1    1    2    0  503 -0.10894173601E+03  0.87109359779E+01  0.55388556860E+02  0.12252377109E+03  0.00000000000E+00 0. -1.
<mgrwt>
<rscale>  2 0.10928944E+03</rscale>
<asrwt>0</asrwt>
<pdfrwt beam="2">  1       21 0.38672211E-01 0.10928944E+03</pdfrwt>
<pdfrwt beam="1">  1       -4 0.15794783E-01 0.10928944E+03</pdfrwt>
<totfact> 0.89738272E+03</totfact>
</mgrwt>
</event>
<event>
 4    1  0.5142205E+003  0.1061105E+03  0.7546771E-02  0.1267947E+00
         21   -1    0    0  501  502  0.00000000000E+00  0.00000000000E+00  0.13054347506E+04  0.13054347506E+04  0.00000000000E+00 0. -1.
         -4   -1    0    0    0  501 -0.00000000000E+00 -0.00000000000E+00 -0.18098151380E+02  0.18098151380E+02  0.00000000000E+00 0. -1.
         21    1    1    2  503  502  0.82264462616E+02 -0.67022313404E+02  0.11224459462E+04  0.11274503690E+04  0.00000000000E+00 0. -1.
         -4    1    1    2    0  503 -0.82264462616E+02  0.67022313404E+02  0.16489065298E+03  0.19608253299E+03  0.00000000000E+00 0. -1.
<mgrwt>
<rscale>  2 0.10611047E+03</rscale>
<asrwt>0</asrwt>
<pdfrwt beam="1">  1       21 0.20083604E+00 0.10611047E+03</pdfrwt>
<pdfrwt beam="2">  1       -4 0.27843320E-02 0.10611047E+03</pdfrwt>
<totfact> 0.33986613E+03</totfact>
</mgrwt>
</event>
<event>
 4    1  0.5142205E+003  0.1163613E+03  0.7546771E-02  0.1249223E+00
         21   -1    0    0  503  502  0.00000000000E+00  0.00000000000E+00  0.29741862634E+02  0.29741862634E+02  0.00000000000E+00 0. -1.
         -2   -1    0    0    0  501 -0.00000000000E+00 -0.00000000000E+00 -0.47029177575E+03  0.47029177575E+03  0.00000000000E+00 0.  1.
         21    1    1    2  503  501  0.98907556691E+00 -0.11635712265E+03 -0.26498932270E+03  0.28941198905E+03  0.00000000000E+00 0. -1.
         -2    1    1    2    0  502 -0.98907556691E+00  0.11635712265E+03 -0.17556059043E+03  0.21062164934E+03  0.00000000000E+00 0.  1.
<mgrwt>
<rscale>  2 0.11636133E+03</rscale>
<asrwt>0</asrwt>
<pdfrwt beam="1">  1       21 0.45756710E-02 0.11636133E+03</pdfrwt>
<pdfrwt beam="2">  1       -2 0.72352584E-01 0.11636133E+03</pdfrwt>
<totfact> 0.44408450E+04</totfact>
</mgrwt>
</event>
<event>
 4    1  0.5142205E+003  0.1080035E+03  0.7546771E-02  0.1264312E+00
         21   -1    0    0  501  502  0.00000000000E+00  0.00000000000E+00  0.43914945708E+02  0.43914945708E+02  0.00000000000E+00 0. -1.
          1   -1    0    0  503    0 -0.00000000000E+00 -0.00000000000E+00 -0.40723048841E+03  0.40723048841E+03  0.00000000000E+00 0. -1.
         21    1    1    2  503  502 -0.27106716969E+02 -0.10454653864E+03 -0.48639325327E+02  0.11845056697E+03  0.00000000000E+00 0. -1.
          1    1    1    2  501    0  0.27106716969E+02  0.10454653864E+03 -0.31467621737E+03  0.33269486715E+03  0.00000000000E+00 0. -1.
<mgrwt>
<rscale>  2 0.10800349E+03</rscale>
<asrwt>0</asrwt>
<pdfrwt beam="1">  1       21 0.67561454E-02 0.10800349E+03</pdfrwt>
<pdfrwt beam="2">  1        1 0.62650845E-01 0.10800349E+03</pdfrwt>
<totfact> 0.10312152E+05</totfact>
</mgrwt>
</event>
<event>
 4    1  0.5142205E+003  0.1439895E+03  0.7546771E-02  0.1208059E+00
         21   -1    0    0  501  502  0.00000000000E+00  0.00000000000E+00  0.19638334111E+02  0.19638334111E+02  0.00000000000E+00 0.  1.
          2   -1    0    0  503    0 -0.00000000000E+00 -0.00000000000E+00 -0.10651991273E+04  0.10651991273E+04  0.00000000000E+00 0.  1.
         21    1    1    2  503  502 -0.95995634505E+02 -0.10732108841E+03 -0.47166622850E+03  0.49315515709E+03  0.00000000000E+00 0.  1.
          2    1    1    2  501    0  0.95995634505E+02  0.10732108841E+03 -0.57389456468E+03  0.59168230431E+03  0.00000000000E+00 0.  1.
<mgrwt>
<rscale>  2 0.14398951E+03</rscale>
<asrwt>0</asrwt>
<pdfrwt beam="1">  1       21 0.30212821E-02 0.14398951E+03</pdfrwt>
<pdfrwt beam="2">  1        2 0.16387679E+00 0.14398951E+03</pdfrwt>
<totfact> 0.19009142E+05</totfact>
</mgrwt>
</event>
<event>
 4    1  0.5142205E+003  0.1083432E+03  0.7546771E-02  0.1263669E+00
          2   -1    0    0  503    0 -0.00000000000E+00  0.00000000000E+00  0.28957933253E+04  0.28957933253E+04  0.00000000000E+00 0. -1.
         21   -1    0    0  501  502  0.00000000000E+00 -0.00000000000E+00 -0.54076569797E+01  0.54076569797E+01  0.00000000000E+00 0. -1.
         21    1    1    2  503  502  0.10522865171E+03 -0.25790949980E+02  0.71930455390E+03  0.72741823149E+03  0.00000000000E+00 0. -1.
          2    1    1    2  501    0 -0.10522865171E+03  0.25790949980E+02  0.21710811144E+04  0.21737827508E+04  0.00000000000E+00 0. -1.
<mgrwt>
<rscale>  2 0.10834317E+03</rscale>
<asrwt>0</asrwt>
<pdfrwt beam="2">  1       21 0.83194954E-03 0.10834317E+03</pdfrwt>
<pdfrwt beam="1">  1        2 0.44550543E+00 0.10834317E+03</pdfrwt>
<totfact> 0.16125499E+05</totfact>
</mgrwt>
</event>
<event>
 4    1  0.5142205E+003  0.1145538E+03  0.7546771E-02  0.1252362E+00
         21   -1    0    0  503  502  0.00000000000E+00  0.00000000000E+00  0.40546094059E+02  0.40546094059E+02  0.00000000000E+00 0.  1.
          2   -1    0    0  502    0 -0.00000000000E+00 -0.00000000000E+00 -0.51343509767E+03  0.51343509767E+03  0.00000000000E+00 0. -1.
         21    1    1    2  503  501  0.11154590381E+03 -0.26078516415E+02 -0.68038340406E+02  0.13323585643E+03  0.00000000000E+00 0.  1.
          2    1    1    2  501    0 -0.11154590381E+03  0.26078516415E+02 -0.40485066321E+03  0.42074533530E+03  0.00000000000E+00 0. -1.
<mgrwt>
<rscale>  2 0.11455382E+03</rscale>
<asrwt>0</asrwt>
<pdfrwt beam="1">  1       21 0.62378611E-02 0.11455382E+03</pdfrwt>
<pdfrwt beam="2">  1        2 0.78990009E-01 0.11455382E+03</pdfrwt>
<totfact> 0.13761723E+05</totfact>
</mgrwt>
</event>
<event>
 4    1  0.5142205E+003  0.1023074E+03  0.7546771E-02  0.1275517E+00
         21   -1    0    0  501  502  0.00000000000E+00  0.00000000000E+00  0.20376033004E+03  0.20376033004E+03  0.00000000000E+00 0.  1.
          2   -1    0    0  503    0 -0.00000000000E+00 -0.00000000000E+00 -0.55613459365E+03  0.55613459365E+03  0.00000000000E+00 0. -1.
         21    1    1    2  503  502  0.78948742479E+02 -0.65068399547E+02  0.18578806294E+03  0.21209433017E+03  0.00000000000E+00 0.  1.
          2    1    1    2  501    0 -0.78948742479E+02  0.65068399547E+02 -0.53816232655E+03  0.54780059353E+03  0.00000000000E+00 0. -1.
<mgrwt>
<rscale>  2 0.10230738E+03</rscale>
<asrwt>0</asrwt>
<pdfrwt beam="1">  1       21 0.31347744E-01 0.10230738E+03</pdfrwt>
<pdfrwt beam="2">  1        2 0.85559166E-01 0.10230738E+03</pdfrwt>
<totfact> 0.69749470E+03</totfact>
</mgrwt>
</event>
<event>
 4    1  0.5142205E+003  0.1601027E+03  0.7546771E-02  0.1188581E+00
          2   -1    0    0  503    0 -0.00000000000E+00  0.00000000000E+00  0.18416553246E+04  0.18416553246E+04  0.00000000000E+00 0.  1.
         21   -1    0    0  501  502  0.00000000000E+00 -0.00000000000E+00 -0.21363297592E+02  0.21363297592E+02  0.00000000000E+00 0. -1.
         21    1    1    2  503  502  0.81879126317E+02  0.13758160483E+03  0.36024753660E+03  0.39422224308E+03  0.00000000000E+00 0. -1.
          2    1    1    2  501    0 -0.81879126317E+02 -0.13758160483E+03  0.14600444904E+04  0.14687963791E+04  0.00000000000E+00 0.  1.
<mgrwt>
<rscale>  2 0.16010275E+03</rscale>
<asrwt>0</asrwt>
<pdfrwt beam="2">  1       21 0.32866626E-02 0.16010275E+03</pdfrwt>
<pdfrwt beam="1">  1        2 0.28333147E+00 0.16010275E+03</pdfrwt>
<totfact> 0.63710098E+04</totfact>
</mgrwt>
</event>
<event>
 4    1  0.5142205E+003  0.1633969E+03  0.7546771E-02  0.1184914E+00
         21   -1    0    0  501  502  0.00000000000E+00  0.00000000000E+00  0.37047705285E+02  0.37047705285E+02  0.00000000000E+00 0. -1.
          1   -1    0    0  503    0 -0.00000000000E+00 -0.00000000000E+00 -0.82478752472E+03  0.82478752472E+03  0.00000000000E+00 0. -1.
         21    1    1    2  503  502  0.14023270618E+03  0.83865076265E+02 -0.24075436492E+03  0.29096602401E+03  0.00000000000E+00 0. -1.
          1    1    1    2  501    0 -0.14023270618E+03 -0.83865076265E+02 -0.54698545451E+03  0.57086920599E+03  0.00000000000E+00 0. -1.
<mgrwt>
<rscale>  2 0.16339695E+03</rscale>
<asrwt>0</asrwt>
<pdfrwt beam="1">  1       21 0.56996470E-02 0.16339695E+03</pdfrwt>
<pdfrwt beam="2">  1        1 0.12689039E+00 0.16339695E+03</pdfrwt>
<totfact> 0.52980467E+04</totfact>
</mgrwt>
</event>
<event>
 4    1  0.5142205E+003  0.1107559E+03  0.7546771E-02  0.1259176E+00
          2   -1    0    0  503    0 -0.00000000000E+00  0.00000000000E+00  0.24734432574E+04  0.24734432574E+04  0.00000000000E+00 0. -1.
         21   -1    0    0  501  502  0.00000000000E+00 -0.00000000000E+00 -0.31052400177E+02  0.31052400177E+02  0.00000000000E+00 0. -1.
         21    1    1    2  503  502 -0.37939968021E+00  0.11075527396E+03  0.73294415781E+02  0.13281169391E+03  0.00000000000E+00 0. -1.
          2    1    1    2  501    0  0.37939968021E+00 -0.11075527396E+03  0.23690964414E+04  0.23716839636E+04  0.00000000000E+00 0. -1.
<mgrwt>
<rscale>  2 0.11075592E+03</rscale>
<asrwt>0</asrwt>
<pdfrwt beam="2">  1       21 0.47772943E-02 0.11075592E+03</pdfrwt>
<pdfrwt beam="1">  1        2 0.38052958E+00 0.11075592E+03</pdfrwt>
<totfact> 0.16397420E+04</totfact>
</mgrwt>
</event>
<event>
 4    1  0.5142205E+003  0.1278814E+03  0.7546771E-02  0.1230634E+00
         21   -1    0    0  503  502  0.00000000000E+00  0.00000000000E+00  0.12009844997E+03  0.12009844997E+03  0.00000000000E+00 0.  1.
         -4   -1    0    0    0  501 -0.00000000000E+00 -0.00000000000E+00 -0.28022686335E+03  0.28022686335E+03  0.00000000000E+00 0. -1.
         21    1    1    2  503  501 -0.12434594485E+03 -0.29861778805E+02  0.63450773574E+02  0.14275727828E+03  0.00000000000E+00 0.  1.
         -4    1    1    2    0  502  0.12434594485E+03  0.29861778805E+02 -0.22357918695E+03  0.25756803504E+03  0.00000000000E+00 0. -1.
<mgrwt>
<rscale>  2 0.12788135E+03</rscale>
<asrwt>0</asrwt>
<pdfrwt beam="1">  1       21 0.18476685E-01 0.12788135E+03</pdfrwt>
<pdfrwt beam="2">  1       -4 0.43111825E-01 0.12788135E+03</pdfrwt>
<totfact> 0.57426607E+03</totfact>
</mgrwt>
</event>
<event>
 4    1  0.5142205E+003  0.1906280E+03  0.7546771E-02  0.1157896E+00
          2   -1    0    0  503    0 -0.00000000000E+00  0.00000000000E+00  0.22797300007E+04  0.22797300007E+04  0.00000000000E+00 0.  1.
         21   -1    0    0  501  502  0.00000000000E+00 -0.00000000000E+00 -0.37112441431E+03  0.37112441431E+03  0.00000000000E+00 0. -1.
         21    1    1    2  503  502 -0.11976713988E+02 -0.19025135041E+03 -0.34234801838E+03  0.39184331524E+03  0.00000000000E+00 0. -1.
          2    1    1    2  501    0  0.11976713988E+02  0.19025135041E+03  0.22509536048E+04  0.22590110998E+04  0.00000000000E+00 0.  1.
<mgrwt>
<rscale>  2 0.19062796E+03</rscale>
<asrwt>0</asrwt>
<pdfrwt beam="2">  1       21 0.57096065E-01 0.19062796E+03</pdfrwt>
<pdfrwt beam="1">  1        2 0.35072768E+00 0.19062796E+03</pdfrwt>
<totfact> 0.19856321E+02</totfact>
</mgrwt>
</event>
<event>
 4    1  0.5142205E+003  0.1386453E+03  0.7546771E-02  0.1215164E+00
         -4   -1    0    0    0  501 -0.00000000000E+00  0.00000000000E+00  0.86135440310E+03  0.86135440310E+03  0.00000000000E+00 0.  1.
         21   -1    0    0  501  502  0.00000000000E+00 -0.00000000000E+00 -0.26048248405E+02  0.26048248405E+02  0.00000000000E+00 0. -1.
         21    1    1    2  503  502 -0.13003282167E+03  0.48103800159E+02  0.24971420223E+03  0.28562159074E+03  0.00000000000E+00 0. -1.
         -4    1    1    2    0  503  0.13003282167E+03 -0.48103800159E+02  0.58559195246E+03  0.60178106076E+03  0.00000000000E+00 0.  1.
<mgrwt>
<rscale>  2 0.13864527E+03</rscale>
<asrwt>0</asrwt>
<pdfrwt beam="2">  1       21 0.40074235E-02 0.13864527E+03</pdfrwt>
<pdfrwt beam="1">  1       -4 0.13251604E+00 0.13864527E+03</pdfrwt>
<totfact> 0.69778135E+03</totfact>
</mgrwt>
</event>
<event>
 4    1  0.5142205E+003  0.1335294E+03  0.7546771E-02  0.1222311E+00
         21   -1    0    0  501  502  0.00000000000E+00  0.00000000000E+00  0.86134847018E+02  0.86134847018E+02  0.00000000000E+00 0.  1.
         -3   -1    0    0    0  501 -0.00000000000E+00 -0.00000000000E+00 -0.25594211603E+03  0.25594211603E+03  0.00000000000E+00 0. -1.
         21    1    1    2  503  502 -0.11391580866E+03 -0.69665606273E+02 -0.10111782146E+02  0.13391174817E+03  0.00000000000E+00 0.  1.
         -3    1    1    2    0  503  0.11391580866E+03  0.69665606273E+02 -0.15969548687E+03  0.20816521488E+03  0.00000000000E+00 0. -1.
<mgrwt>
<rscale>  2 0.13352943E+03</rscale>
<asrwt>0</asrwt>
<pdfrwt beam="1">  1       21 0.13251515E-01 0.13352943E+03</pdfrwt>
<pdfrwt beam="2">  1       -3 0.39375710E-01 0.13352943E+03</pdfrwt>
<totfact> 0.15185492E+04</totfact>
</mgrwt>
</event>
<event>
 4    1  0.5142205E+003  0.1000812E+03  0.7546771E-02  0.1280125E+00
         21   -1    0    0  501  502  0.00000000000E+00  0.00000000000E+00  0.88902369634E+02  0.88902369634E+02  0.00000000000E+00 0.  1.
          1   -1    0    0  503    0 -0.00000000000E+00 -0.00000000000E+00 -0.70990785747E+03  0.70990785747E+03  0.00000000000E+00 0.  1.
         21    1    1    2  503  502 -0.29574641073E+02 -0.95611645413E+02  0.55840227365E+02  0.11460531020E+03  0.00000000000E+00 0.  1.
          1    1    1    2  501    0  0.29574641073E+02  0.95611645413E+02 -0.67684571520E+03  0.68420491690E+03  0.00000000000E+00 0.  1.
<mgrwt>
<rscale>  2 0.10008120E+03</rscale>
<asrwt>0</asrwt>
<pdfrwt beam="1">  1       21 0.13677288E-01 0.10008120E+03</pdfrwt>
<pdfrwt beam="2">  1        1 0.10921659E+00 0.10008120E+03</pdfrwt>
<totfact> 0.14552666E+04</totfact>
</mgrwt>
</event>
<event>
 4    1  0.5142205E+003  0.1015960E+03  0.7546771E-02  0.1276975E+00
         -1   -1    0    0    0  501 -0.00000000000E+00  0.00000000000E+00  0.17745646949E+04  0.17745646949E+04  0.00000000000E+00 0. -1.
         21   -1    0    0  501  502  0.00000000000E+00 -0.00000000000E+00 -0.11744012097E+02  0.11744012097E+02  0.00000000000E+00 0. -1.
         21    1    1    2  503  502 -0.76094055540E+02 -0.67316008755E+02  0.24687676636E+03  0.26696420751E+03  0.00000000000E+00 0. -1.
         -1    1    1    2    0  503  0.76094055540E+02  0.67316008755E+02  0.15159439164E+04  0.15193444995E+04  0.00000000000E+00 0. -1.
<mgrwt>
<rscale>  2 0.10159602E+03</rscale>
<asrwt>0</asrwt>
<pdfrwt beam="2">  1       21 0.18067725E-02 0.10159602E+03</pdfrwt>
<pdfrwt beam="1">  1       -1 0.27300974E+00 0.10159602E+03</pdfrwt>
<totfact> 0.80418403E+03</totfact>
</mgrwt>
</event>
<event>
 4    1  0.5142205E+003  0.1099810E+03  0.7546771E-02  0.1260605E+00
         21   -1    0    0  501  502  0.00000000000E+00  0.00000000000E+00  0.24894162161E+02  0.24894162161E+02  0.00000000000E+00 0.  1.
          2   -1    0    0  503    0 -0.00000000000E+00 -0.00000000000E+00 -0.27741414189E+04  0.27741414189E+04  0.00000000000E+00 0.  1.
         21    1    1    2  503  502 -0.65653106090E+02  0.88235426751E+02 -0.10356375335E+03  0.15106711052E+03  0.00000000000E+00 0.  1.
          2    1    1    2  501    0  0.65653106090E+02 -0.88235426751E+02 -0.26456835034E+04  0.26479684706E+04  0.00000000000E+00 0.  1.
<mgrwt>
<rscale>  2 0.10998100E+03</rscale>
<asrwt>0</asrwt>
<pdfrwt beam="1">  1       21 0.38298715E-02 0.10998100E+03</pdfrwt>
<pdfrwt beam="2">  1        2 0.42679094E+00 0.10998100E+03</pdfrwt>
<totfact> 0.16307312E+04</totfact>
</mgrwt>
</event>
<event>
 4    1  0.5142205E+003  0.1009661E+03  0.7546771E-02  0.1278277E+00
         21   -1    0    0  501  502  0.00000000000E+00  0.00000000000E+00  0.43885108756E+02  0.43885108756E+02  0.00000000000E+00 0.  1.
          3   -1    0    0  503    0 -0.00000000000E+00 -0.00000000000E+00 -0.38563924987E+03  0.38563924987E+03  0.00000000000E+00 0.  1.
         21    1    1    2  503  502 -0.10134404507E+02 -0.10045619884E+03 -0.35450037006E+02  0.10700868733E+03  0.00000000000E+00 0.  1.
          3    1    1    2  501    0  0.10134404507E+02  0.10045619884E+03 -0.30630410411E+03  0.32251567130E+03  0.00000000000E+00 0.  1.
<mgrwt>
<rscale>  2 0.10096610E+03</rscale>
<asrwt>0</asrwt>
<pdfrwt beam="1">  1       21 0.67515553E-02 0.10096610E+03</pdfrwt>
<pdfrwt beam="2">  1        3 0.59329115E-01 0.10096610E+03</pdfrwt>
<totfact> 0.21320396E+04</totfact>
</mgrwt>
</event>
<event>
 4    1  0.5142205E+003  0.1147896E+03  0.7546771E-02  0.1251949E+00
         21   -1    0    0  501  502  0.00000000000E+00  0.00000000000E+00  0.29311475700E+03  0.29311475700E+03  0.00000000000E+00 0. -1.
          2   -1    0    0  503    0 -0.00000000000E+00 -0.00000000000E+00 -0.50875116256E+03  0.50875116256E+03  0.00000000000E+00 0.  1.
         21    1    1    2  503  502 -0.42241097874E+02 -0.10673492155E+03  0.27499167851E+03  0.29798838413E+03  0.00000000000E+00 0. -1.
          2    1    1    2  501    0  0.42241097874E+02  0.10673492155E+03 -0.49062808407E+03  0.50387753542E+03  0.00000000000E+00 0.  1.
<mgrwt>
<rscale>  2 0.11478961E+03</rscale>
<asrwt>0</asrwt>
<pdfrwt beam="1">  1       21 0.45094578E-01 0.11478961E+03</pdfrwt>
<pdfrwt beam="2">  1        2 0.78269409E-01 0.11478961E+03</pdfrwt>
<totfact> 0.37302954E+03</totfact>
</mgrwt>
</event>
<event>
 4    1  0.5142205E+003  0.1089753E+03  0.7546771E-02  0.1262479E+00
         21   -1    0    0  501  502  0.00000000000E+00  0.00000000000E+00  0.61864368547E+02  0.61864368547E+02  0.00000000000E+00 0.  1.
          2   -1    0    0  503    0 -0.00000000000E+00 -0.00000000000E+00 -0.18375189340E+04  0.18375189340E+04  0.00000000000E+00 0. -1.
         21    1    1    2  503  502  0.46871184466E+02  0.98380426502E+02  0.10890111658E+02  0.10951808428E+03  0.00000000000E+00 0.  1.
          2    1    1    2  501    0 -0.46871184466E+02 -0.98380426502E+02 -0.17865446771E+04  0.17898652183E+04  0.00000000000E+00 0. -1.
<mgrwt>
<rscale>  2 0.10897530E+03</rscale>
<asrwt>0</asrwt>
<pdfrwt beam="1">  1       21 0.95175951E-02 0.10897530E+03</pdfrwt>
<pdfrwt beam="2">  1        2 0.28269522E+00 0.10897530E+03</pdfrwt>
<totfact> 0.10775227E+04</totfact>
</mgrwt>
</event>
<event>
 4    1  0.5142205E+003  0.1195964E+03  0.7546771E-02  0.1243764E+00
          4   -1    0    0  502    0 -0.00000000000E+00  0.00000000000E+00  0.12851910261E+03  0.12851910261E+03  0.00000000000E+00 0.  1.
         21   -1    0    0  503  502  0.00000000000E+00 -0.00000000000E+00 -0.49571906079E+03  0.49571906079E+03  0.00000000000E+00 0.  1.
         21    1    1    2  503  501  0.67824651545E+02  0.98504358045E+02 -0.45845827799E+03  0.47380089127E+03  0.00000000000E+00 0.  1.
          4    1    1    2  501    0 -0.67824651545E+02 -0.98504358045E+02  0.91258319817E+02  0.15043727213E+03  0.00000000000E+00 0.  1.
<mgrwt>
<rscale>  2 0.11959637E+03</rscale>
<asrwt>0</asrwt>
<pdfrwt beam="2">  1       21 0.76264471E-01 0.11959637E+03</pdfrwt>
<pdfrwt beam="1">  1        4 0.19772170E-01 0.11959637E+03</pdfrwt>
<totfact> 0.14697729E+03</totfact>
</mgrwt>
</event>
<event>
 4    1  0.5142205E+003  0.2531515E+03  0.7546771E-02  0.1111329E+00
         -4   -1    0    0    0  501 -0.00000000000E+00  0.00000000000E+00  0.73556441245E+02  0.73556441245E+02  0.00000000000E+00 0. -1.
         21   -1    0    0  503  502  0.00000000000E+00 -0.00000000000E+00 -0.25107290723E+04  0.25107290723E+04  0.00000000000E+00 0.  1.
         21    1    1    2  503  501  0.21989234551E+03  0.12543144251E+03 -0.22627393548E+04  0.22768564026E+04  0.00000000000E+00 0.  1.
         -4    1    1    2    0  502 -0.21989234551E+03 -0.12543144251E+03 -0.17443327626E+03  0.30742911093E+03  0.00000000000E+00 0. -1.
<mgrwt>
<rscale>  2 0.25315152E+03</rscale>
<asrwt>0</asrwt>
<pdfrwt beam="2">  1       21 0.38626599E+00 0.25315152E+03</pdfrwt>
<pdfrwt beam="1">  1       -4 0.11316376E-01 0.25315152E+03</pdfrwt>
<totfact> 0.25911419E+01</totfact>
</mgrwt>
</event>
<event>
 4    1  0.5142205E+003  0.1048303E+03  0.7546771E-02  0.1270454E+00
         21   -1    0    0  501  502  0.00000000000E+00  0.00000000000E+00  0.50024339733E+03  0.50024339733E+03  0.00000000000E+00 0. -1.
          2   -1    0    0  503    0 -0.00000000000E+00 -0.00000000000E+00 -0.47294266366E+03  0.47294266366E+03  0.00000000000E+00 0.  1.
         21    1    1    2  503  502 -0.62355107130E+02 -0.84268798210E+02  0.48880795383E+03  0.49992259947E+03  0.00000000000E+00 0. -1.
          2    1    1    2  501    0  0.62355107130E+02  0.84268798210E+02 -0.46150722017E+03  0.47326346151E+03  0.00000000000E+00 0.  1.
<mgrwt>
<rscale>  2 0.10483029E+03</rscale>
<asrwt>0</asrwt>
<pdfrwt beam="1">  1       21 0.76960522E-01 0.10483029E+03</pdfrwt>
<pdfrwt beam="2">  1        2 0.72760410E-01 0.10483029E+03</pdfrwt>
<totfact> 0.13163189E+03</totfact>
</mgrwt>
</event>
<event>
 4    1  0.5142205E+003  0.1136240E+03  0.7546771E-02  0.1254002E+00
         21   -1    0    0  501  502  0.00000000000E+00  0.00000000000E+00  0.20977276215E+03  0.20977276215E+03  0.00000000000E+00 0.  1.
          1   -1    0    0  503    0 -0.00000000000E+00 -0.00000000000E+00 -0.88143581859E+02  0.88143581859E+02  0.00000000000E+00 0.  1.
         21    1    1    2  503  502  0.11307997886E+03  0.11105753203E+02  0.14264222334E+03  0.18236563068E+03  0.00000000000E+00 0.  1.
          1    1    1    2  501    0 -0.11307997886E+03 -0.11105753203E+02 -0.21013043048E+02  0.11555071333E+03  0.00000000000E+00 0.  1.
<mgrwt>
<rscale>  2 0.11362403E+03</rscale>
<asrwt>0</asrwt>
<pdfrwt beam="1">  1       21 0.32272732E-01 0.11362403E+03</pdfrwt>
<pdfrwt beam="2">  1        1 0.13560551E-01 0.11362403E+03</pdfrwt>
<totfact> 0.41768747E+04</totfact>
</mgrwt>
</event>
<event>
 4    1  0.5142205E+003  0.1564303E+03  0.7546771E-02  0.1192787E+00
         -2   -1    0    0    0  501 -0.00000000000E+00  0.00000000000E+00  0.13684949887E+04  0.13684949887E+04  0.00000000000E+00 0. -1.
         21   -1    0    0  501  502  0.00000000000E+00 -0.00000000000E+00 -0.26683667910E+02  0.26683667910E+02  0.00000000000E+00 0. -1.
         21    1    1    2  503  502 -0.83821847713E+02 -0.13207705446E+03  0.27024457335E+03  0.31225403103E+03  0.00000000000E+00 0. -1.
         -2    1    1    2    0  503  0.83821847713E+02  0.13207705446E+03  0.10715667475E+04  0.10829246256E+04  0.00000000000E+00 0. -1.
<mgrwt>
<rscale>  2 0.15643034E+03</rscale>
<asrwt>0</asrwt>
<pdfrwt beam="2">  1       21 0.41051807E-02 0.15643034E+03</pdfrwt>
<pdfrwt beam="1">  1       -2 0.21053764E+00 0.15643034E+03</pdfrwt>
<totfact> 0.38856119E+03</totfact>
</mgrwt>
</event>
<event>
 4    1  0.5142205E+003  0.1088200E+03  0.7546771E-02  0.1262771E+00
         21   -1    0    0  503  502  0.00000000000E+00  0.00000000000E+00  0.19007783026E+03  0.19007783026E+03  0.00000000000E+00 0. -1.
          1   -1    0    0  502    0 -0.00000000000E+00 -0.00000000000E+00 -0.39328801237E+03  0.39328801237E+03  0.00000000000E+00 0. -1.
         21    1    1    2  503  501 -0.10652852640E+03  0.22214018005E+02  0.16598004386E+03  0.19847207484E+03  0.00000000000E+00 0. -1.
          1    1    1    2  501    0  0.10652852640E+03 -0.22214018005E+02 -0.36919022597E+03  0.38489376779E+03  0.00000000000E+00 0. -1.
<mgrwt>
<rscale>  2 0.10881999E+03</rscale>
<asrwt>0</asrwt>
<pdfrwt beam="1">  1       21 0.29242743E-01 0.10881999E+03</pdfrwt>
<pdfrwt beam="2">  1        1 0.60505848E-01 0.10881999E+03</pdfrwt>
<totfact> 0.77967893E+03</totfact>
</mgrwt>
</event>
<event>
 4    1  0.5142205E+003  0.1088716E+03  0.7546771E-02  0.1262674E+00
         21   -1    0    0  501  502  0.00000000000E+00  0.00000000000E+00  0.14864002982E+02  0.14864002982E+02  0.00000000000E+00 0. -1.
          2   -1    0    0  503    0 -0.00000000000E+00 -0.00000000000E+00 -0.10603342621E+04  0.10603342621E+04  0.00000000000E+00 0. -1.
         21    1    1    2  503  502  0.30890413745E+02  0.10439736401E+03 -0.25504363943E+03  0.27730900686E+03  0.00000000000E+00 0. -1.
          2    1    1    2  501    0 -0.30890413745E+02 -0.10439736401E+03 -0.79042661974E+03  0.79788925827E+03  0.00000000000E+00 0. -1.
<mgrwt>
<rscale>  2 0.10887161E+03</rscale>
<asrwt>0</asrwt>
<pdfrwt beam="1">  1       21 0.22867695E-02 0.10887161E+03</pdfrwt>
<pdfrwt beam="2">  1        2 0.16312836E+00 0.10887161E+03</pdfrwt>
<totfact> 0.29868577E+05</totfact>
</mgrwt>
</event>
<event>
 4    1  0.5142205E+003  0.1134740E+03  0.7546771E-02  0.1254269E+00
          2   -1    0    0  502    0 -0.00000000000E+00  0.00000000000E+00  0.12521450849E+04  0.12521450849E+04  0.00000000000E+00 0.  1.
         21   -1    0    0  503  502  0.00000000000E+00 -0.00000000000E+00 -0.37728962432E+02  0.37728962432E+02  0.00000000000E+00 0. -1.
         21    1    1    2  503  501 -0.11130554848E+03 -0.22077620394E+02  0.57140914010E+02  0.12704892954E+03  0.00000000000E+00 0. -1.
          2    1    1    2  501    0  0.11130554848E+03  0.22077620394E+02  0.11572752084E+04  0.11628251178E+04  0.00000000000E+00 0.  1.
<mgrwt>
<rscale>  2 0.11347399E+03</rscale>
<asrwt>0</asrwt>
<pdfrwt beam="2">  1       21 0.58044567E-02 0.11347399E+03</pdfrwt>
<pdfrwt beam="1">  1        2 0.19263767E+00 0.11347399E+03</pdfrwt>
<totfact> 0.50299035E+04</totfact>
</mgrwt>
</event>
<event>
 4    1  0.5142205E+003  0.1016183E+03  0.7546771E-02  0.1276929E+00
          2   -1    0    0  503    0 -0.00000000000E+00  0.00000000000E+00  0.27499394265E+04  0.27499394265E+04  0.00000000000E+00 0.  1.
         21   -1    0    0  501  502  0.00000000000E+00 -0.00000000000E+00 -0.13155321602E+02  0.13155321602E+02  0.00000000000E+00 0.  1.
         21    1    1    2  503  502 -0.90912131291E+02  0.45401219705E+02  0.20054979254E+03  0.22482550045E+03  0.00000000000E+00 0.  1.
          2    1    1    2  501    0  0.90912131291E+02 -0.45401219705E+02  0.25362343124E+04  0.25382692477E+04  0.00000000000E+00 0.  1.
<mgrwt>
<rscale>  2 0.10161834E+03</rscale>
<asrwt>0</asrwt>
<pdfrwt beam="2">  1       21 0.20238978E-02 0.10161834E+03</pdfrwt>
<pdfrwt beam="1">  1        2 0.42306714E+00 0.10161834E+03</pdfrwt>
<totfact> 0.47703476E+04</totfact>
</mgrwt>
</event>
<event>
 4    1  0.5142205E+003  0.1081898E+03  0.7546771E-02  0.1263959E+00
          1   -1    0    0  503    0 -0.00000000000E+00  0.00000000000E+00  0.16135520257E+03  0.16135520257E+03  0.00000000000E+00 0. -1.
         21   -1    0    0  501  502  0.00000000000E+00 -0.00000000000E+00 -0.90872304984E+02  0.90872304984E+02  0.00000000000E+00 0.  1.
         21    1    1    2  503  502  0.50332343829E+02 -0.95768936657E+02 -0.21399583778E+02  0.11028588418E+03  0.00000000000E+00 0.  1.
          1    1    1    2  501    0 -0.50332343829E+02  0.95768936657E+02  0.91882481359E+02  0.14194162337E+03  0.00000000000E+00 0. -1.
<mgrwt>
<rscale>  2 0.10818981E+03</rscale>
<asrwt>0</asrwt>
<pdfrwt beam="2">  1       21 0.13980355E-01 0.10818981E+03</pdfrwt>
<pdfrwt beam="1">  1        1 0.24823877E-01 0.10818981E+03</pdfrwt>
<totfact> 0.91302562E+04</totfact>
</mgrwt>
</event>
<event>
 4    1  0.5142205E+003  0.1120806E+03  0.7546771E-02  0.1256765E+00
         21   -1    0    0  503  502  0.00000000000E+00  0.00000000000E+00  0.59004985957E+02  0.59004985957E+02  0.00000000000E+00 0. -1.
          3   -1    0    0  502    0 -0.00000000000E+00 -0.00000000000E+00 -0.23767916891E+03  0.23767916891E+03  0.00000000000E+00 0. -1.
         21    1    1    2  503  501  0.60785549997E+02 -0.94165729486E+02 -0.41438130037E+02  0.11949554937E+03  0.00000000000E+00 0. -1.
          3    1    1    2  501    0 -0.60785549997E+02  0.94165729486E+02 -0.13723605292E+03  0.17718860550E+03  0.00000000000E+00 0. -1.
<mgrwt>
<rscale>  2 0.11208063E+03</rscale>
<asrwt>0</asrwt>
<pdfrwt beam="1">  1       21 0.90776902E-02 0.11208063E+03</pdfrwt>
<pdfrwt beam="2">  1        3 0.36566026E-01 0.11208063E+03</pdfrwt>
<totfact> 0.33525684E+04</totfact>
</mgrwt>
</event>
<event>
 4    1  0.5142205E+003  0.2391986E+03  0.7546771E-02  0.1120328E+00
         21   -1    0    0  503  502  0.00000000000E+00  0.00000000000E+00  0.28621865694E+03  0.28621865694E+03  0.00000000000E+00 0. -1.
          2   -1    0    0  502    0 -0.00000000000E+00 -0.00000000000E+00 -0.50090710453E+03  0.50090710453E+03  0.00000000000E+00 0.  1.
         21    1    1    2  503  501  0.18560798276E+03  0.15088292544E+03  0.19774137865E+03  0.31035082292E+03  0.00000000000E+00 0. -1.
          2    1    1    2  501    0 -0.18560798276E+03 -0.15088292544E+03 -0.41242982624E+03  0.47677493855E+03  0.00000000000E+00 0.  1.
<mgrwt>
<rscale>  2 0.23919862E+03</rscale>
<asrwt>0</asrwt>
<pdfrwt beam="1">  1       21 0.44033640E-01 0.23919862E+03</pdfrwt>
<pdfrwt beam="2">  1        2 0.77062631E-01 0.23919862E+03</pdfrwt>
<totfact> 0.37935056E+03</totfact>
</mgrwt>
</event>
<event>
 4    1  0.5142205E+003  0.1245792E+03  0.7546771E-02  0.1235728E+00
         -1   -1    0    0    0  501 -0.00000000000E+00  0.00000000000E+00  0.12661076525E+03  0.12661076525E+03  0.00000000000E+00 0. -1.
         21   -1    0    0  503  502  0.00000000000E+00 -0.00000000000E+00 -0.30038901435E+03  0.30038901435E+03  0.00000000000E+00 0.  1.
         21    1    1    2  503  501 -0.62613320534E+02  0.10770120430E+03 -0.25114928131E+03  0.28034967241E+03  0.00000000000E+00 0.  1.
         -1    1    1    2    0  502  0.62613320534E+02 -0.10770120430E+03  0.77371032209E+02  0.14665010720E+03  0.00000000000E+00 0. -1.
<mgrwt>
<rscale>  2 0.12457920E+03</rscale>
<asrwt>0</asrwt>
<pdfrwt beam="2">  1       21 0.46213695E-01 0.12457920E+03</pdfrwt>
<pdfrwt beam="1">  1       -1 0.19478579E-01 0.12457920E+03</pdfrwt>
<totfact> 0.86280575E+03</totfact>
</mgrwt>
</event>
<event>
 4    1  0.5142205E+003  0.1691528E+03  0.7546771E-02  0.1178734E+00
         21   -1    0    0  501  502  0.00000000000E+00  0.00000000000E+00  0.53389819989E+03  0.53389819989E+03  0.00000000000E+00 0. -1.
          1   -1    0    0  503    0 -0.00000000000E+00 -0.00000000000E+00 -0.68428097611E+03  0.68428097611E+03  0.00000000000E+00 0.  1.
         21    1    1    2  503  502 -0.85706301536E+02 -0.14583241153E+03  0.50956041395E+03  0.53690267074E+03  0.00000000000E+00 0. -1.
          1    1    1    2  501    0  0.85706301536E+02  0.14583241153E+03 -0.65994319017E+03  0.68127650527E+03  0.00000000000E+00 0.  1.
<mgrwt>
<rscale>  2 0.16915278E+03</rscale>
<asrwt>0</asrwt>
<pdfrwt beam="1">  1       21 0.82138185E-01 0.16915278E+03</pdfrwt>
<pdfrwt beam="2">  1        1 0.10527400E+00 0.16915278E+03</pdfrwt>
<totfact> 0.42739426E+02</totfact>
</mgrwt>
</event>
<event>
 4    1  0.5142205E+003  0.1075548E+03  0.7546771E-02  0.1265166E+00
         -1   -1    0    0    0  501 -0.00000000000E+00  0.00000000000E+00  0.80399516807E+02  0.80399516807E+02  0.00000000000E+00 0. -1.
         21   -1    0    0  503  502  0.00000000000E+00 -0.00000000000E+00 -0.35286561160E+03  0.35286561160E+03  0.00000000000E+00 0. -1.
         21    1    1    2  503  501 -0.11660179854E+02 -0.10692087398E+03 -0.30294829392E+03  0.32147426317E+03  0.00000000000E+00 0. -1.
         -1    1    1    2    0  502  0.11660179854E+02  0.10692087398E+03  0.30482199129E+02  0.11179086524E+03  0.00000000000E+00 0. -1.
<mgrwt>
<rscale>  2 0.10755479E+03</rscale>
<asrwt>0</asrwt>
<pdfrwt beam="2">  1       21 0.54287018E-01 0.10755479E+03</pdfrwt>
<pdfrwt beam="1">  1       -1 0.12369156E-01 0.10755479E+03</pdfrwt>
<totfact> 0.12625939E+04</totfact>
</mgrwt>
</event>
<event>
 4    1  0.5142205E+003  0.1320996E+03  0.7546771E-02  0.1224373E+00
         21   -1    0    0  501  502  0.00000000000E+00  0.00000000000E+00  0.38026145955E+02  0.38026145955E+02  0.00000000000E+00 0. -1.
          2   -1    0    0  503    0 -0.00000000000E+00 -0.00000000000E+00 -0.14217867518E+04  0.14217867518E+04  0.00000000000E+00 0.  1.
         21    1    1    2  503  502 -0.11988356883E+02  0.13155449262E+03 -0.91208920960E+02  0.16052841646E+03  0.00000000000E+00 0. -1.
          2    1    1    2  501    0  0.11988356883E+02 -0.13155449262E+03 -0.12925516848E+04  0.12992844813E+04  0.00000000000E+00 0.  1.
<mgrwt>
<rscale>  2 0.13209960E+03</rscale>
<asrwt>0</asrwt>
<pdfrwt beam="1">  1       21 0.58501763E-02 0.13209960E+03</pdfrwt>
<pdfrwt beam="2">  1        2 0.21873642E+00 0.13209960E+03</pdfrwt>
<totfact> 0.40208924E+04</totfact>
</mgrwt>
</event>
<event>
 4    1  0.5142205E+003  0.1756069E+03  0.7546771E-02  0.1172124E+00
          2   -1    0    0  503    0 -0.00000000000E+00  0.00000000000E+00  0.26190516627E+04  0.26190516627E+04  0.00000000000E+00 0. -1.
         21   -1    0    0  501  502  0.00000000000E+00 -0.00000000000E+00 -0.17385251654E+02  0.17385251654E+02  0.00000000000E+00 0. -1.
         21    1    1    2  503  502 -0.74147276333E+02 -0.15918527011E+03  0.55195500525E+03  0.57921679588E+03  0.00000000000E+00 0. -1.
          2    1    1    2  501    0  0.74147276333E+02  0.15918527011E+03  0.20497114058E+04  0.20572201184E+04  0.00000000000E+00 0. -1.
<mgrwt>
<rscale>  2 0.17560686E+03</rscale>
<asrwt>0</asrwt>
<pdfrwt beam="2">  1       21 0.26746562E-02 0.17560686E+03</pdfrwt>
<pdfrwt beam="1">  1        2 0.40293071E+00 0.17560686E+03</pdfrwt>
<totfact> 0.34745573E+04</totfact>
</mgrwt>
</event>
<event>
 4    1  0.5142205E+003  0.1091952E+03  0.7546771E-02  0.1262067E+00
         21   -1    0    0  503  502  0.00000000000E+00  0.00000000000E+00  0.30202473919E+03  0.30202473919E+03  0.00000000000E+00 0.  1.
         -2   -1    0    0    0  501 -0.00000000000E+00 -0.00000000000E+00 -0.43082900632E+03  0.43082900632E+03  0.00000000000E+00 0. -1.
         21    1    1    2  503  501 -0.53323894261E+02 -0.95289888685E+02  0.28483272326E+03  0.30504635848E+03  0.00000000000E+00 0.  1.
         -2    1    1    2    0  502  0.53323894261E+02  0.95289888685E+02 -0.41363699039E+03  0.42780738704E+03  0.00000000000E+00 0. -1.
<mgrwt>
<rscale>  2 0.10919524E+03</rscale>
<asrwt>0</asrwt>
<pdfrwt beam="1">  1       21 0.46465344E-01 0.10919524E+03</pdfrwt>
<pdfrwt beam="2">  1       -2 0.66281386E-01 0.10919524E+03</pdfrwt>
<totfact> 0.80348093E+02</totfact>
</mgrwt>
</event>
<event>
 4    1  0.5142205E+003  0.1355479E+03  0.7546771E-02  0.1219448E+00
          3   -1    0    0  503    0 -0.00000000000E+00  0.00000000000E+00  0.13200647020E+03  0.13200647020E+03  0.00000000000E+00 0.  1.
         21   -1    0    0  501  502  0.00000000000E+00 -0.00000000000E+00 -0.18833579082E+03  0.18833579082E+03  0.00000000000E+00 0.  1.
         21    1    1    2  503  502  0.62637000451E+02  0.12020744606E+03 -0.10998971423E+03  0.17455933418E+03  0.00000000000E+00 0.  1.
          3    1    1    2  501    0 -0.62637000451E+02 -0.12020744606E+03  0.53660393619E+02  0.14578292683E+03  0.00000000000E+00 0.  1.
<mgrwt>
<rscale>  2 0.13554787E+03</rscale>
<asrwt>0</asrwt>
<pdfrwt beam="2">  1       21 0.28974737E-01 0.13554787E+03</pdfrwt>
<pdfrwt beam="1">  1        3 0.20308688E-01 0.13554787E+03</pdfrwt>
<totfact> 0.12066697E+04</totfact>
</mgrwt>
</event>
<event>
 4    1  0.5142205E+003  0.1122279E+03  0.7546771E-02  0.1256499E+00
          1   -1    0    0  503    0 -0.00000000000E+00  0.00000000000E+00  0.22864394464E+04  0.22864394464E+04  0.00000000000E+00 0. -1.
         21   -1    0    0  501  502  0.00000000000E+00 -0.00000000000E+00 -0.45922263115E+02  0.45922263115E+02  0.00000000000E+00 0. -1.
         21    1    1    2  503  502  0.65290279721E+02 -0.91281371800E+02  0.26256112854E+02  0.11525837465E+03  0.00000000000E+00 0. -1.
          1    1    1    2  501    0 -0.65290279721E+02  0.91281371800E+02  0.22142610705E+04  0.22171033349E+04  0.00000000000E+00 0. -1.
<mgrwt>
<rscale>  2 0.11222794E+03</rscale>
<asrwt>0</asrwt>
<pdfrwt beam="2">  1       21 0.70649653E-02 0.11222794E+03</pdfrwt>
<pdfrwt beam="1">  1        1 0.35175983E+00 0.11222794E+03</pdfrwt>
<totfact> 0.39476854E+03</totfact>
</mgrwt>
</event>
<event>
 4    1  0.5142205E+003  0.1311102E+03  0.7546771E-02  0.1225818E+00
         -2   -1    0    0    0  501 -0.00000000000E+00  0.00000000000E+00  0.16574592500E+03  0.16574592500E+03  0.00000000000E+00 0. -1.
         21   -1    0    0  501  502  0.00000000000E+00 -0.00000000000E+00 -0.45144395316E+03  0.45144395316E+03  0.00000000000E+00 0.  1.
         21    1    1    2  503  502 -0.93821443638E+02 -0.91582901920E+02 -0.41368663578E+03  0.43396603995E+03  0.00000000000E+00 0.  1.
         -2    1    1    2    0  503  0.93821443638E+02  0.91582901920E+02  0.12798860762E+03  0.18322383821E+03  0.00000000000E+00 0. -1.
<mgrwt>
<rscale>  2 0.13111023E+03</rscale>
<asrwt>0</asrwt>
<pdfrwt beam="2">  1       21 0.69452917E-01 0.13111023E+03</pdfrwt>
<pdfrwt beam="1">  1       -2 0.25499373E-01 0.13111023E+03</pdfrwt>
<totfact> 0.21101990E+03</totfact>
</mgrwt>
</event>
<event>
 4    1  0.5142205E+003  0.1046932E+03  0.7546771E-02  0.1270725E+00
         21   -1    0    0  503  502  0.00000000000E+00  0.00000000000E+00  0.42242243192E+02  0.42242243192E+02  0.00000000000E+00 0.  1.
          2   -1    0    0  502    0 -0.00000000000E+00 -0.00000000000E+00 -0.44649499297E+03  0.44649499297E+03  0.00000000000E+00 0.  1.
         21    1    1    2  503  501 -0.56304684714E+02  0.88263511113E+02 -0.43970607459E+02  0.11355209921E+03  0.00000000000E+00 0.  1.
          2    1    1    2  501    0  0.56304684714E+02 -0.88263511113E+02 -0.36028214232E+03  0.37518513695E+03  0.00000000000E+00 0.  1.
<mgrwt>
<rscale>  2 0.10469319E+03</rscale>
<asrwt>0</asrwt>
<pdfrwt beam="1">  1       21 0.64988067E-02 0.10469319E+03</pdfrwt>
<pdfrwt beam="2">  1        2 0.68691537E-01 0.10469319E+03</pdfrwt>
<totfact> 0.14880551E+05</totfact>
</mgrwt>
</event>
<event>
 4    1  0.5142205E+003  0.1087270E+03  0.7546771E-02  0.1262946E+00
          1   -1    0    0  503    0 -0.00000000000E+00  0.00000000000E+00  0.15055331634E+04  0.15055331634E+04  0.00000000000E+00 0. -1.
         21   -1    0    0  501  502  0.00000000000E+00 -0.00000000000E+00 -0.79894680207E+01  0.79894680207E+01  0.00000000000E+00 0.  1.
         21    1    1    2  503  502 -0.10683177957E+03  0.20212188338E+02  0.64953342797E+03  0.65857060042E+03  0.00000000000E+00 0.  1.
          1    1    1    2  501    0  0.10683177957E+03 -0.20212188338E+02  0.84801026736E+03  0.85495203096E+03  0.00000000000E+00 0. -1.
<mgrwt>
<rscale>  2 0.10872701E+03</rscale>
<asrwt>0</asrwt>
<pdfrwt beam="2">  1       21 0.12291501E-02 0.10872701E+03</pdfrwt>
<pdfrwt beam="1">  1        1 0.23162026E+00 0.10872701E+03</pdfrwt>
<totfact> 0.21591543E+05</totfact>
</mgrwt>
</event>
<event>
 4    1  0.5142205E+003  0.1042048E+03  0.7546771E-02  0.1271694E+00
          2   -1    0    0  502    0 -0.00000000000E+00  0.00000000000E+00  0.15331143000E+04  0.15331143000E+04  0.00000000000E+00 0. -1.
         21   -1    0    0  503  502  0.00000000000E+00 -0.00000000000E+00 -0.26640266835E+02  0.26640266835E+02  0.00000000000E+00 0. -1.
         21    1    1    2  503  501  0.10298169434E+03 -0.15919135238E+02  0.85025486794E+02  0.13449156717E+03  0.00000000000E+00 0. -1.
          2    1    1    2  501    0 -0.10298169434E+03  0.15919135238E+02  0.14214485463E+04  0.14252629996E+04  0.00000000000E+00 0. -1.
<mgrwt>
<rscale>  2 0.10420484E+03</rscale>
<asrwt>0</asrwt>
<pdfrwt beam="2">  1       21 0.40985038E-02 0.10420484E+03</pdfrwt>
<pdfrwt beam="1">  1        2 0.23586367E+00 0.10420484E+03</pdfrwt>
<totfact> 0.64118520E+04</totfact>
</mgrwt>
</event>
<event>
 4    1  0.5142205E+003  0.1081246E+03  0.7546771E-02  0.1264083E+00
         21   -1    0    0  503  502  0.00000000000E+00  0.00000000000E+00  0.26070528537E+03  0.26070528537E+03  0.00000000000E+00 0. -1.
          2   -1    0    0  502    0 -0.00000000000E+00 -0.00000000000E+00 -0.51138966458E+03  0.51138966458E+03  0.00000000000E+00 0.  1.
         21    1    1    2  503  501  0.97465562933E+02  0.46812302231E+02  0.24339086601E+03  0.26632694429E+03  0.00000000000E+00 0. -1.
          2    1    1    2  501    0 -0.97465562933E+02 -0.46812302231E+02 -0.49407524523E+03  0.50576800566E+03  0.00000000000E+00 0.  1.
<mgrwt>
<rscale>  2 0.10812459E+03</rscale>
<asrwt>0</asrwt>
<pdfrwt beam="1">  1       21 0.40108506E-01 0.10812459E+03</pdfrwt>
<pdfrwt beam="2">  1        2 0.78675332E-01 0.10812459E+03</pdfrwt>
<totfact> 0.47094005E+03</totfact>
</mgrwt>
</event>
<event>
 4    1  0.5142205E+003  0.1336158E+03  0.7546771E-02  0.1222187E+00
         -1   -1    0    0    0  501 -0.00000000000E+00  0.00000000000E+00  0.34113240132E+03  0.34113240132E+03  0.00000000000E+00 0. -1.
         21   -1    0    0  501  502  0.00000000000E+00 -0.00000000000E+00 -0.16268708355E+03  0.16268708355E+03  0.00000000000E+00 0.  1.
         21    1    1    2  503  502 -0.38932860160E+01 -0.13355910756E+03 -0.11824888101E+03  0.17842642951E+03  0.00000000000E+00 0.  1.
         -1    1    1    2    0  503  0.38932860160E+01  0.13355910756E+03  0.29669419878E+03  0.32539305536E+03  0.00000000000E+00 0. -1.
<mgrwt>
<rscale>  2 0.13361584E+03</rscale>
<asrwt>0</asrwt>
<pdfrwt beam="2">  1       21 0.25028782E-01 0.13361584E+03</pdfrwt>
<pdfrwt beam="1">  1       -1 0.52481908E-01 0.13361584E+03</pdfrwt>
<totfact> 0.53095164E+03</totfact>
</mgrwt>
</event>
<event>
 4    1  0.5142205E+003  0.2110942E+03  0.7546771E-02  0.1140702E+00
         -1   -1    0    0    0  501 -0.00000000000E+00  0.00000000000E+00  0.18073220087E+03  0.18073220087E+03  0.00000000000E+00 0.  1.
         21   -1    0    0  503  502  0.00000000000E+00 -0.00000000000E+00 -0.47585871764E+03  0.47585871764E+03  0.00000000000E+00 0.  1.
         21    1    1    2  503  501 -0.16507136171E+03 -0.13157585665E+03 -0.37545556572E+03  0.43072919839E+03  0.00000000000E+00 0.  1.
         -1    1    1    2    0  502  0.16507136171E+03  0.13157585665E+03  0.80329048952E+02  0.22586172012E+03  0.00000000000E+00 0.  1.
<mgrwt>
<rscale>  2 0.21109420E+03</rscale>
<asrwt>0</asrwt>
<pdfrwt beam="2">  1       21 0.73209031E-01 0.21109420E+03</pdfrwt>
<pdfrwt beam="1">  1       -1 0.27804955E-01 0.21109420E+03</pdfrwt>
<totfact> 0.17704355E+03</totfact>
</mgrwt>
</event>
<event>
 4    1  0.5142205E+003  0.1023346E+03  0.7546771E-02  0.1275462E+00
         21   -1    0    0  501  502  0.00000000000E+00  0.00000000000E+00  0.10568384356E+03  0.10568384356E+03  0.00000000000E+00 0. -1.
          2   -1    0    0  503    0 -0.00000000000E+00 -0.00000000000E+00 -0.10815039721E+03  0.10815039721E+03  0.00000000000E+00 0.  1.
         21    1    1    2  503  502  0.79080823222E+01 -0.10202856549E+03  0.29710399716E+02  0.10656018860E+03  0.00000000000E+00 0. -1.
          2    1    1    2  501    0 -0.79080823222E+01  0.10202856549E+03 -0.32176953370E+02  0.10727405218E+03  0.00000000000E+00 0.  1.
<mgrwt>
<rscale>  2 0.10233458E+03</rscale>
<asrwt>0</asrwt>
<pdfrwt beam="1">  1       21 0.16259053E-01 0.10233458E+03</pdfrwt>
<pdfrwt beam="2">  1        2 0.16638523E-01 0.10233458E+03</pdfrwt>
<totfact> 0.13849754E+05</totfact>
</mgrwt>
</event>
<event>
 4    1  0.5142205E+003  0.1079736E+03  0.7546771E-02  0.1264369E+00
          4   -1    0    0  502    0 -0.00000000000E+00  0.00000000000E+00  0.10093732499E+03  0.10093732499E+03  0.00000000000E+00 0.  1.
         21   -1    0    0  503  502  0.00000000000E+00 -0.00000000000E+00 -0.13578601562E+03  0.13578601562E+03  0.00000000000E+00 0.  1.
         21    1    1    2  503  501  0.18637518495E+02 -0.10635290058E+03 -0.63172983790E+02  0.12509645254E+03  0.00000000000E+00 0.  1.
          4    1    1    2  501    0 -0.18637518495E+02  0.10635290058E+03  0.28324293163E+02  0.11162688807E+03  0.00000000000E+00 0.  1.
<mgrwt>
<rscale>  2 0.10797359E+03</rscale>
<asrwt>0</asrwt>
<pdfrwt beam="2">  1       21 0.20890156E-01 0.10797359E+03</pdfrwt>
<pdfrwt beam="1">  1        4 0.15528819E-01 0.10797359E+03</pdfrwt>
<totfact> 0.29928168E+04</totfact>
</mgrwt>
</event>
<event>
 4    1  0.5142205E+003  0.1065097E+03  0.7546771E-02  0.1267173E+00
         21   -1    0    0  501  502  0.00000000000E+00  0.00000000000E+00  0.14241798653E+03  0.14241798653E+03  0.00000000000E+00 0.  1.
          2   -1    0    0  503    0 -0.00000000000E+00 -0.00000000000E+00 -0.39314150869E+03  0.39314150869E+03  0.00000000000E+00 0.  1.
         21    1    1    2  503  502 -0.93890150430E+02 -0.50288791130E+02  0.11375643034E+03  0.15583596601E+03  0.00000000000E+00 0.  1.
          2    1    1    2  501    0  0.93890150430E+02  0.50288791130E+02 -0.36447995249E+03  0.37972352920E+03  0.00000000000E+00 0.  1.
<mgrwt>
<rscale>  2 0.10650973E+03</rscale>
<asrwt>0</asrwt>
<pdfrwt beam="1">  1       21 0.21910460E-01 0.10650973E+03</pdfrwt>
<pdfrwt beam="2">  1        2 0.60483308E-01 0.10650973E+03</pdfrwt>
<totfact> 0.19924301E+04</totfact>
</mgrwt>
</event>
<event>
 4    1  0.5142205E+003  0.1121615E+03  0.7546771E-02  0.1256619E+00
         21   -1    0    0  503  502  0.00000000000E+00  0.00000000000E+00  0.29107687589E+02  0.29107687589E+02  0.00000000000E+00 0.  1.
          2   -1    0    0  502    0 -0.00000000000E+00 -0.00000000000E+00 -0.88747976147E+03  0.88747976147E+03  0.00000000000E+00 0. -1.
         21    1    1    2  503  501  0.88240053109E+02  0.69237961904E+02 -0.10093496588E+03  0.15089091980E+03  0.00000000000E+00 0.  1.
          2    1    1    2  501    0 -0.88240053109E+02 -0.69237961904E+02 -0.75743710800E+03  0.76569652926E+03  0.00000000000E+00 0. -1.
<mgrwt>
<rscale>  2 0.11216150E+03</rscale>
<asrwt>0</asrwt>
<pdfrwt beam="1">  1       21 0.44781056E-02 0.11216150E+03</pdfrwt>
<pdfrwt beam="2">  1        2 0.13653535E+00 0.11216150E+03</pdfrwt>
<totfact> 0.12620834E+05</totfact>
</mgrwt>
</event>
<event>
 4    1  0.5142205E+003  0.1071885E+03  0.7546771E-02  0.1265867E+00
          2   -1    0    0  503    0 -0.00000000000E+00  0.00000000000E+00  0.46890096517E+03  0.46890096517E+03  0.00000000000E+00 0.  1.
         21   -1    0    0  501  502  0.00000000000E+00 -0.00000000000E+00 -0.79412836248E+02  0.79412836248E+02  0.00000000000E+00 0.  1.
         21    1    1    2  503  502 -0.36445016506E+02  0.10080242780E+03 -0.33227061536E+02  0.11222034707E+03  0.00000000000E+00 0.  1.
          2    1    1    2  501    0  0.36445016506E+02 -0.10080242780E+03  0.42271519046E+03  0.43609345435E+03  0.00000000000E+00 0.  1.
<mgrwt>
<rscale>  2 0.10718847E+03</rscale>
<asrwt>0</asrwt>
<pdfrwt beam="2">  1       21 0.12217360E-01 0.10718847E+03</pdfrwt>
<pdfrwt beam="1">  1        2 0.72138608E-01 0.10718847E+03</pdfrwt>
<totfact> 0.47462638E+04</totfact>
</mgrwt>
</event>
<event>
 4    1  0.5142205E+003  0.1296010E+03  0.7546771E-02  0.1228049E+00
         21   -1    0    0  503  502  0.00000000000E+00  0.00000000000E+00  0.25849228806E+02  0.25849228806E+02  0.00000000000E+00 0. -1.
          2   -1    0    0  502    0 -0.00000000000E+00 -0.00000000000E+00 -0.15078772531E+04  0.15078772531E+04  0.00000000000E+00 0. -1.
         21    1    1    2  503  501  0.12953038423E+03  0.42785923206E+01 -0.16251575239E+03  0.20786485169E+03  0.00000000000E+00 0. -1.
          2    1    1    2  501    0 -0.12953038423E+03 -0.42785923206E+01 -0.13195122719E+04  0.13258616303E+04  0.00000000000E+00 0. -1.
<mgrwt>
<rscale>  2 0.12960103E+03</rscale>
<asrwt>0</asrwt>
<pdfrwt beam="1">  1       21 0.39768036E-02 0.12960103E+03</pdfrwt>
<pdfrwt beam="2">  1        2 0.23198116E+00 0.12960103E+03</pdfrwt>
<totfact> 0.69286866E+04</totfact>
</mgrwt>
</event>
<event>
 4    1  0.5142205E+003  0.1145856E+03  0.7546771E-02  0.1252306E+00
          1   -1    0    0  502    0 -0.00000000000E+00  0.00000000000E+00  0.67001519841E+03  0.67001519841E+03  0.00000000000E+00 0. -1.
         21   -1    0    0  503  502  0.00000000000E+00 -0.00000000000E+00 -0.34083792700E+02  0.34083792700E+02  0.00000000000E+00 0. -1.
         21    1    1    2  503  501  0.99760528582E+02  0.56371144149E+02  0.88443204519E+02  0.14474829664E+03  0.00000000000E+00 0. -1.
          1    1    1    2  501    0 -0.99760528582E+02 -0.56371144149E+02  0.54748820119E+03  0.55935069447E+03  0.00000000000E+00 0. -1.
<mgrwt>
<rscale>  2 0.11458564E+03</rscale>
<asrwt>0</asrwt>
<pdfrwt beam="2">  1       21 0.52436609E-02 0.11458564E+03</pdfrwt>
<pdfrwt beam="1">  1        1 0.10307925E+00 0.11458564E+03</pdfrwt>
<totfact> 0.82431459E+04</totfact>
</mgrwt>
</event>
<event>
 4    1  0.5142205E+003  0.1901415E+03  0.7546771E-02  0.1158334E+00
         -2   -1    0    0    0  501 -0.00000000000E+00  0.00000000000E+00  0.83889962811E+02  0.83889962811E+02  0.00000000000E+00 0.  1.
         21   -1    0    0  503  502  0.00000000000E+00 -0.00000000000E+00 -0.56390378952E+03  0.56390378952E+03  0.00000000000E+00 0.  1.
         21    1    1    2  503  501  0.59424189804E+02 -0.18061718009E+03 -0.39727005726E+03  0.44042853957E+03  0.00000000000E+00 0.  1.
         -2    1    1    2    0  502 -0.59424189804E+02  0.18061718009E+03 -0.82743769452E+02  0.20736521276E+03  0.00000000000E+00 0.  1.
<mgrwt>
<rscale>  2 0.19014153E+03</rscale>
<asrwt>0</asrwt>
<pdfrwt beam="2">  1       21 0.86754425E-01 0.19014153E+03</pdfrwt>
<pdfrwt beam="1">  1       -2 0.12906149E-01 0.19014153E+03</pdfrwt>
<totfact> 0.39603806E+03</totfact>
</mgrwt>
</event>
<event>
 4    1  0.5142205E+003  0.1130024E+03  0.7546771E-02  0.1255109E+00
         21   -1    0    0  501  502  0.00000000000E+00  0.00000000000E+00  0.15406234150E+02  0.15406234150E+02  0.00000000000E+00 0.  1.
          2   -1    0    0  503    0 -0.00000000000E+00 -0.00000000000E+00 -0.91201361661E+03  0.91201361661E+03  0.00000000000E+00 0. -1.
         21    1    1    2  503  502  0.65485636784E+02  0.92093312320E+02 -0.30828138574E+03  0.32833970152E+03  0.00000000000E+00 0.  1.
          2    1    1    2  501    0 -0.65485636784E+02 -0.92093312320E+02 -0.58832599672E+03  0.59908014924E+03  0.00000000000E+00 0. -1.
<mgrwt>
<rscale>  2 0.11300242E+03</rscale>
<asrwt>0</asrwt>
<pdfrwt beam="1">  1       21 0.23701901E-02 0.11300242E+03</pdfrwt>
<pdfrwt beam="2">  1        2 0.14030978E+00 0.11300242E+03</pdfrwt>
<totfact> 0.34613012E+05</totfact>
</mgrwt>
</event>
<event>
 4    1  0.5142205E+003  0.1052847E+03  0.7546771E-02  0.1269560E+00
          1   -1    0    0  503    0 -0.00000000000E+00  0.00000000000E+00  0.45743890147E+03  0.45743890147E+03  0.00000000000E+00 0.  1.
         21   -1    0    0  501  502  0.00000000000E+00 -0.00000000000E+00 -0.45819181704E+02  0.45819181704E+02  0.00000000000E+00 0.  1.
         21    1    1    2  503  502  0.27622574557E+02  0.10159653898E+03  0.33094648338E+02  0.11036357690E+03  0.00000000000E+00 0.  1.
          1    1    1    2  501    0 -0.27622574557E+02 -0.10159653898E+03  0.37852507143E+03  0.39289450627E+03  0.00000000000E+00 0.  1.
<mgrwt>
<rscale>  2 0.10528468E+03</rscale>
<asrwt>0</asrwt>
<pdfrwt beam="2">  1       21 0.70491052E-02 0.10528468E+03</pdfrwt>
<pdfrwt beam="1">  1        1 0.70375213E-01 0.10528468E+03</pdfrwt>
<totfact> 0.82774121E+04</totfact>
</mgrwt>
</event>
<event>
 4    1  0.5142205E+003  0.1259768E+03  0.7546771E-02  0.1233551E+00
          1   -1    0    0  502    0 -0.00000000000E+00  0.00000000000E+00  0.39546006379E+03  0.39546006379E+03  0.00000000000E+00 0.  1.
         21   -1    0    0  503  502  0.00000000000E+00 -0.00000000000E+00 -0.46203243114E+02  0.46203243114E+02  0.00000000000E+00 0.  1.
         21    1    1    2  503  501 -0.84642567457E+02  0.93304808585E+02  0.94570406100E+02  0.15752369105E+03  0.00000000000E+00 0.  1.
          1    1    1    2  501    0  0.84642567457E+02 -0.93304808585E+02  0.25468641458E+03  0.28413961586E+03  0.00000000000E+00 0.  1.
<mgrwt>
<rscale>  2 0.12597679E+03</rscale>
<asrwt>0</asrwt>
<pdfrwt beam="2">  1       21 0.71081915E-02 0.12597679E+03</pdfrwt>
<pdfrwt beam="1">  1        1 0.60840008E-01 0.12597679E+03</pdfrwt>
<totfact> 0.98611040E+04</totfact>
</mgrwt>
</event>
<event>
 4    1  0.5142205E+003  0.1344409E+03  0.7546771E-02  0.1221011E+00
         21   -1    0    0  503  502  0.00000000000E+00  0.00000000000E+00  0.62861661562E+02  0.62861661562E+02  0.00000000000E+00 0.  1.
         -1   -1    0    0    0  501 -0.00000000000E+00 -0.00000000000E+00 -0.35962414807E+03  0.35962414807E+03  0.00000000000E+00 0.  1.
         21    1    1    2  503  501 -0.76892090088E+02  0.11028122790E+03 -0.53796586973E+02  0.14480474963E+03  0.00000000000E+00 0.  1.
         -1    1    1    2    0  502  0.76892090088E+02 -0.11028122790E+03 -0.24296589953E+03  0.27768106000E+03  0.00000000000E+00 0.  1.
<mgrwt>
<rscale>  2 0.13444085E+03</rscale>
<asrwt>0</asrwt>
<pdfrwt beam="1">  1       21 0.96710250E-02 0.13444085E+03</pdfrwt>
<pdfrwt beam="2">  1       -1 0.55326791E-01 0.13444085E+03</pdfrwt>
<totfact> 0.26996748E+04</totfact>
</mgrwt>
</event>
<event>
 4    1  0.5142205E+003  0.1026418E+03  0.7546771E-02  0.1274837E+00
          1   -1    0    0  503    0 -0.00000000000E+00  0.00000000000E+00  0.89627267969E+03  0.89627267969E+03  0.00000000000E+00 0. -1.
         21   -1    0    0  501  502  0.00000000000E+00 -0.00000000000E+00 -0.30218217632E+03  0.30218217632E+03  0.00000000000E+00 0. -1.
         21    1    1    2  503  502 -0.10143730449E+03 -0.15678595216E+02 -0.29041186790E+03  0.30801687958E+03  0.00000000000E+00 0. -1.
          1    1    1    2  501    0  0.10143730449E+03  0.15678595216E+02  0.88450237127E+03  0.89043797643E+03  0.00000000000E+00 0. -1.
<mgrwt>
<rscale>  2 0.10264183E+03</rscale>
<asrwt>0</asrwt>
<pdfrwt beam="2">  1       21 0.46489566E-01 0.10264183E+03</pdfrwt>
<pdfrwt beam="1">  1        1 0.13788810E+00 0.10264183E+03</pdfrwt>
<totfact> 0.10203084E+03</totfact>
</mgrwt>
</event>
<event>
 4    1  0.5142205E+003  0.1230514E+03  0.7546771E-02  0.1238146E+00
         -2   -1    0    0    0  501 -0.00000000000E+00  0.00000000000E+00  0.69065558495E+02  0.69065558495E+02  0.00000000000E+00 0.  1.
         21   -1    0    0  501  502  0.00000000000E+00 -0.00000000000E+00 -0.23080776922E+03  0.23080776922E+03  0.00000000000E+00 0.  1.
         21    1    1    2  503  502  0.22665850056E+02 -0.12094584890E+03 -0.47298324877E+02  0.13182856542E+03  0.00000000000E+00 0.  1.
         -2    1    1    2    0  503 -0.22665850056E+02  0.12094584890E+03 -0.11444388585E+03  0.16804476229E+03  0.00000000000E+00 0.  1.
<mgrwt>
<rscale>  2 0.12305137E+03</rscale>
<asrwt>0</asrwt>
<pdfrwt beam="2">  1       21 0.35508887E-01 0.12305137E+03</pdfrwt>
<pdfrwt beam="1">  1       -2 0.10625471E-01 0.12305137E+03</pdfrwt>
<totfact> 0.35854283E+04</totfact>
</mgrwt>
</event>
<event>
 4    1  0.5142205E+003  0.1471057E+03  0.7546771E-02  0.1204075E+00
         21   -1    0    0  501  502  0.00000000000E+00  0.00000000000E+00  0.22702296550E+03  0.22702296550E+03  0.00000000000E+00 0.  1.
          1   -1    0    0  503    0 -0.00000000000E+00 -0.00000000000E+00 -0.19027275391E+03  0.19027275391E+03  0.00000000000E+00 0.  1.
         21    1    1    2  503  502  0.80369013174E+02 -0.12321084788E+03  0.16576807678E+03  0.22162839753E+03  0.00000000000E+00 0.  1.
          1    1    1    2  501    0 -0.80369013174E+02  0.12321084788E+03 -0.12901786519E+03  0.19566732188E+03  0.00000000000E+00 0.  1.
<mgrwt>
<rscale>  2 0.14710571E+03</rscale>
<asrwt>0</asrwt>
<pdfrwt beam="1">  1       21 0.34926610E-01 0.14710571E+03</pdfrwt>
<pdfrwt beam="2">  1        1 0.29272731E-01 0.14710571E+03</pdfrwt>
<totfact> 0.13468219E+04</totfact>
</mgrwt>
</event>
<event>
 4    1  0.5142205E+003  0.1537560E+03  0.7546771E-02  0.1195932E+00
         -1   -1    0    0    0  501 -0.00000000000E+00  0.00000000000E+00  0.44738256510E+02  0.44738256510E+02  0.00000000000E+00 0.  1.
         21   -1    0    0  503  502  0.00000000000E+00 -0.00000000000E+00 -0.52957513541E+03  0.52957513541E+03  0.00000000000E+00 0.  1.
         21    1    1    2  503  501  0.50801896998E+02  0.14512094712E+03 -0.25578654479E+03  0.29844208572E+03  0.00000000000E+00 0.  1.
         -1    1    1    2    0  502 -0.50801896998E+02 -0.14512094712E+03 -0.22905033411E+03  0.27587130620E+03  0.00000000000E+00 0.  1.
<mgrwt>
<rscale>  2 0.15375605E+03</rscale>
<asrwt>0</asrwt>
<pdfrwt beam="2">  1       21 0.81473102E-01 0.15375605E+03</pdfrwt>
<pdfrwt beam="1">  1       -1 0.68828084E-02 0.15375605E+03</pdfrwt>
<totfact> 0.12753644E+04</totfact>
</mgrwt>
</event>
<event>
 4    1  0.5142205E+003  0.1401471E+03  0.7546771E-02  0.1213131E+00
         21   -1    0    0  503  502  0.00000000000E+00  0.00000000000E+00  0.28510193398E+02  0.28510193398E+02  0.00000000000E+00 0.  1.
          2   -1    0    0  502    0 -0.00000000000E+00 -0.00000000000E+00 -0.68924707563E+03  0.68924707563E+03  0.00000000000E+00 0. -1.
         21    1    1    2  503  501  0.13105220640E+03 -0.49664024236E+02 -0.32253125046E+03  0.35166404939E+03  0.00000000000E+00 0.  1.
          2    1    1    2  501    0 -0.13105220640E+03  0.49664024236E+02 -0.33820563177E+03  0.36609321964E+03  0.00000000000E+00 0. -1.
<mgrwt>
<rscale>  2 0.14014705E+03</rscale>
<asrwt>0</asrwt>
<pdfrwt beam="1">  1       21 0.43861838E-02 0.14014705E+03</pdfrwt>
<pdfrwt beam="2">  1        2 0.10603801E+00 0.14014705E+03</pdfrwt>
<totfact> 0.17944901E+05</totfact>
</mgrwt>
</event>
<event>
 4    1  0.5142205E+003  0.1231348E+03  0.7546771E-02  0.1238013E+00
          3   -1    0    0  502    0 -0.00000000000E+00  0.00000000000E+00  0.53388082042E+03  0.53388082042E+03  0.00000000000E+00 0.  1.
         21   -1    0    0  503  502  0.00000000000E+00 -0.00000000000E+00 -0.30578112180E+02  0.30578112180E+02  0.00000000000E+00 0. -1.
         21    1    1    2  503  501 -0.73982442014E+02  0.98431639519E+02  0.17632586148E+03  0.21506510366E+03  0.00000000000E+00 0. -1.
          3    1    1    2  501    0  0.73982442014E+02 -0.98431639519E+02  0.32697684676E+03  0.34939382894E+03  0.00000000000E+00 0.  1.
<mgrwt>
<rscale>  2 0.12313484E+03</rscale>
<asrwt>0</asrwt>
<pdfrwt beam="2">  1       21 0.47043254E-02 0.12313484E+03</pdfrwt>
<pdfrwt beam="1">  1        3 0.82135504E-01 0.12313484E+03</pdfrwt>
<totfact> 0.20101765E+04</totfact>
</mgrwt>
</event>
<event>
 4    1  0.5142205E+003  0.1321846E+03  0.7546771E-02  0.1224250E+00
         21   -1    0    0  501  502  0.00000000000E+00  0.00000000000E+00  0.69022379489E+02  0.69022379489E+02  0.00000000000E+00 0. -1.
          3   -1    0    0  503    0 -0.00000000000E+00 -0.00000000000E+00 -0.11012777569E+04  0.11012777569E+04  0.00000000000E+00 0.  1.
         21    1    1    2  503  502 -0.87118751086E+02 -0.99413679937E+02 -0.26158924113E+01  0.13221043621E+03  0.00000000000E+00 0. -1.
          3    1    1    2  501    0  0.87118751086E+02  0.99413679937E+02 -0.10296394850E+04  0.10380897002E+04  0.00000000000E+00 0.  1.
<mgrwt>
<rscale>  2 0.13218455E+03</rscale>
<asrwt>0</asrwt>
<pdfrwt beam="1">  1       21 0.10618828E-01 0.13218455E+03</pdfrwt>
<pdfrwt beam="2">  1        3 0.16942734E+00 0.13218455E+03</pdfrwt>
<totfact> 0.91122637E+02</totfact>
</mgrwt>
</event>
<event>
 4    1  0.5142205E+003  0.2022370E+03  0.7546771E-02  0.1147865E+00
         21   -1    0    0  503  502  0.00000000000E+00  0.00000000000E+00  0.31144088572E+02  0.31144088572E+02  0.00000000000E+00 0. -1.
          2   -1    0    0  502    0 -0.00000000000E+00 -0.00000000000E+00 -0.20217587352E+04  0.20217587352E+04  0.00000000000E+00 0. -1.
         21    1    1    2  503  501 -0.14869563686E+03 -0.13707446207E+03 -0.38766495659E+03  0.43724583376E+03  0.00000000000E+00 0. -1.
          2    1    1    2  501    0  0.14869563686E+03  0.13707446207E+03 -0.16029496901E+04  0.16156569900E+04  0.00000000000E+00 0. -1.
<mgrwt>
<rscale>  2 0.20223699E+03</rscale>
<asrwt>0</asrwt>
<pdfrwt beam="1">  1       21 0.47913985E-02 0.20223699E+03</pdfrwt>
<pdfrwt beam="2">  1        2 0.31103979E+00 0.20223699E+03</pdfrwt>
<totfact> 0.27060941E+04</totfact>
</mgrwt>
</event>
<event>
 4    1  0.5142205E+003  0.1013619E+03  0.7546771E-02  0.1277458E+00
         21   -1    0    0  501  502  0.00000000000E+00  0.00000000000E+00  0.66769706929E+02  0.66769706929E+02  0.00000000000E+00 0. -1.
          2   -1    0    0  503    0 -0.00000000000E+00 -0.00000000000E+00 -0.43597134524E+04  0.43597134524E+04  0.00000000000E+00 0. -1.
         21    1    1    2  503  502 -0.66640134838E+02  0.76376282705E+02  0.27360732941E+02  0.10498977968E+03  0.00000000000E+00 0. -1.
          2    1    1    2  501    0  0.66640134838E+02 -0.76376282705E+02 -0.43203044784E+04  0.43214933796E+04  0.00000000000E+00 0. -1.
<mgrwt>
<rscale>  2 0.10136195E+03</rscale>
<asrwt>0</asrwt>
<pdfrwt beam="1">  1       21 0.10272259E-01 0.10136195E+03</pdfrwt>
<pdfrwt beam="2">  1        2 0.67072537E+00 0.10136195E+03</pdfrwt>
<totfact> 0.27094505E+02</totfact>
</mgrwt>
</event>
<event>
 4    1  0.5142205E+003  0.1473068E+03  0.7546771E-02  0.1203822E+00
         21   -1    0    0  501  502  0.00000000000E+00  0.00000000000E+00  0.28155525057E+02  0.28155525057E+02  0.00000000000E+00 0. -1.
          1   -1    0    0  503    0 -0.00000000000E+00 -0.00000000000E+00 -0.84755035435E+03  0.84755035435E+03  0.00000000000E+00 0. -1.
         21    1    1    2  503  502 -0.68333710916E+01 -0.14714823892E+03 -0.27784596524E+03  0.31448001460E+03  0.00000000000E+00 0. -1.
          1    1    1    2  501    0  0.68333710916E+01  0.14714823892E+03 -0.54154886406E+03  0.56122586482E+03  0.00000000000E+00 0. -1.
<mgrwt>
<rscale>  2 0.14730682E+03</rscale>
<asrwt>0</asrwt>
<pdfrwt beam="1">  1       21 0.43316196E-02 0.14730682E+03</pdfrwt>
<pdfrwt beam="2">  1        1 0.13039235E+00 0.14730682E+03</pdfrwt>
<totfact> 0.80680294E+04</totfact>
</mgrwt>
</event>
<event>
 4    1  0.5142205E+003  0.1060937E+03  0.7546771E-02  0.1267980E+00
         21   -1    0    0  503  502  0.00000000000E+00  0.00000000000E+00  0.25748532430E+03  0.25748532430E+03  0.00000000000E+00 0.  1.
          2   -1    0    0  502    0 -0.00000000000E+00 -0.00000000000E+00 -0.61989626836E+02  0.61989626836E+02  0.00000000000E+00 0.  1.
         21    1    1    2  503  501  0.98532968005E+02  0.39333435610E+02  0.18447926868E+03  0.21281086794E+03  0.00000000000E+00 0.  1.
          2    1    1    2  501    0 -0.98532968005E+02 -0.39333435610E+02  0.11016428782E+02  0.10666408320E+03  0.00000000000E+00 0.  1.
<mgrwt>
<rscale>  2 0.10609366E+03</rscale>
<asrwt>0</asrwt>
<pdfrwt beam="1">  1       21 0.39613126E-01 0.10609366E+03</pdfrwt>
<pdfrwt beam="2">  1        2 0.95368657E-02 0.10609366E+03</pdfrwt>
<totfact> 0.50024232E+04</totfact>
</mgrwt>
</event>
<event>
 4    1  0.5142205E+003  0.1203363E+03  0.7546771E-02  0.1242543E+00
          4   -1    0    0  502    0 -0.00000000000E+00  0.00000000000E+00  0.25064288550E+04  0.25064288550E+04  0.00000000000E+00 0. -1.
         21   -1    0    0  503  502  0.00000000000E+00 -0.00000000000E+00 -0.95686168922E+02  0.95686168922E+02  0.00000000000E+00 0. -1.
         21    1    1    2  503  501 -0.97670308000E+02  0.70294707297E+02 -0.55796099948E+02  0.13264252602E+03  0.00000000000E+00 0. -1.
          4    1    1    2  501    0  0.97670308000E+02 -0.70294707297E+02  0.24665387861E+04  0.24694724979E+04  0.00000000000E+00 0. -1.
<mgrwt>
<rscale>  2 0.12033634E+03</rscale>
<asrwt>0</asrwt>
<pdfrwt beam="2">  1       21 0.14720951E-01 0.12033634E+03</pdfrwt>
<pdfrwt beam="1">  1        4 0.38560439E+00 0.12033634E+03</pdfrwt>
<totfact> 0.19969198E+01</totfact>
</mgrwt>
</event>
<event>
 4    1  0.5142205E+003  0.1290526E+03  0.7546771E-02  0.1228868E+00
          1   -1    0    0  503    0 -0.00000000000E+00  0.00000000000E+00  0.64956054614E+03  0.64956054614E+03  0.00000000000E+00 0. -1.
         21   -1    0    0  501  502  0.00000000000E+00 -0.00000000000E+00 -0.26124204756E+02  0.26124204756E+02  0.00000000000E+00 0. -1.
         21    1    1    2  503  502 -0.11132325136E+01 -0.12904783242E+03  0.35772376967E+03  0.38029051754E+03  0.00000000000E+00 0. -1.
          1    1    1    2  501    0  0.11132325136E+01  0.12904783242E+03  0.26571257170E+03  0.29539423335E+03  0.00000000000E+00 0. -1.
<mgrwt>
<rscale>  2 0.12905263E+03</rscale>
<asrwt>0</asrwt>
<pdfrwt beam="2">  1       21 0.40191089E-02 0.12905263E+03</pdfrwt>
<pdfrwt beam="1">  1        1 0.99932379E-01 0.12905263E+03</pdfrwt>
<totfact> 0.13461715E+05</totfact>
</mgrwt>
</event>
<event>
 4    1  0.5142205E+003  0.1553166E+03  0.7546771E-02  0.1194088E+00
         21   -1    0    0  503  502  0.00000000000E+00  0.00000000000E+00  0.97577592644E+02  0.97577592644E+02  0.00000000000E+00 0. -1.
          1   -1    0    0  502    0 -0.00000000000E+00 -0.00000000000E+00 -0.36543965041E+03  0.36543965041E+03  0.00000000000E+00 0.  1.
         21    1    1    2  503  501  0.28464638251E+02 -0.15268595833E+03 -0.22563725385E+01  0.15533296083E+03  0.00000000000E+00 0. -1.
          1    1    1    2  501    0 -0.28464638251E+02  0.15268595833E+03 -0.26560568523E+03  0.30768428222E+03  0.00000000000E+00 0.  1.
<mgrwt>
<rscale>  2 0.15531657E+03</rscale>
<asrwt>0</asrwt>
<pdfrwt beam="1">  1       21 0.15011937E-01 0.15531657E+03</pdfrwt>
<pdfrwt beam="2">  1        1 0.56221484E-01 0.15531657E+03</pdfrwt>
<totfact> 0.29339263E+04</totfact>
</mgrwt>
</event>
<event>
 4    1  0.5142205E+003  0.1075661E+03  0.7546771E-02  0.1265145E+00
         21   -1    0    0  503  502  0.00000000000E+00  0.00000000000E+00  0.13747937535E+03  0.13747937535E+03  0.00000000000E+00 0.  1.
         -2   -1    0    0    0  501 -0.00000000000E+00 -0.00000000000E+00 -0.89199025141E+02  0.89199025141E+02  0.00000000000E+00 0. -1.
         21    1    1    2  503  501 -0.97314362744E+02 -0.45829969549E+02  0.51074645130E+02  0.11907598700E+03  0.00000000000E+00 0.  1.
         -2    1    1    2    0  502  0.97314362744E+02  0.45829969549E+02 -0.27942949186E+01  0.10760241349E+03  0.00000000000E+00 0. -1.
<mgrwt>
<rscale>  2 0.10756613E+03</rscale>
<asrwt>0</asrwt>
<pdfrwt beam="1">  1       21 0.21150673E-01 0.10756613E+03</pdfrwt>
<pdfrwt beam="2">  1       -2 0.13722927E-01 0.10756613E+03</pdfrwt>
<totfact> 0.63691733E+04</totfact>
</mgrwt>
</event>
<event>
 4    1  0.5142205E+003  0.1055936E+03  0.7546771E-02  0.1268954E+00
         21   -1    0    0  503  502  0.00000000000E+00  0.00000000000E+00  0.31365898666E+02  0.31365898666E+02  0.00000000000E+00 0. -1.
         -2   -1    0    0    0  501 -0.00000000000E+00 -0.00000000000E+00 -0.37903368392E+03  0.37903368392E+03  0.00000000000E+00 0. -1.
         21    1    1    2  503  501  0.66426116824E+02 -0.82082786465E+02 -0.12268351267E+03  0.16186802375E+03  0.00000000000E+00 0. -1.
         -2    1    1    2    0  502 -0.66426116824E+02  0.82082786465E+02 -0.22498427258E+03  0.24853155884E+03  0.00000000000E+00 0. -1.
<mgrwt>
<rscale>  2 0.10559362E+03</rscale>
<asrwt>0</asrwt>
<pdfrwt beam="1">  1       21 0.48255230E-02 0.10559362E+03</pdfrwt>
<pdfrwt beam="2">  1       -2 0.58312873E-01 0.10559362E+03</pdfrwt>
<totfact> 0.63342475E+04</totfact>
</mgrwt>
</event>
<event>
 4    1  0.5142205E+003  0.1369995E+03  0.7546771E-02  0.1217424E+00
          2   -1    0    0  503    0 -0.00000000000E+00  0.00000000000E+00  0.42499635899E+04  0.42499635899E+04  0.00000000000E+00 0.  1.
         21   -1    0    0  501  502  0.00000000000E+00 -0.00000000000E+00 -0.69064151813E+02  0.69064151813E+02  0.00000000000E+00 0.  1.
         21    1    1    2  503  502 -0.67782627396E+02  0.11905616804E+03  0.11203450866E+01  0.13700405431E+03  0.00000000000E+00 0.  1.
          2    1    1    2  501    0  0.67782627396E+02 -0.11905616804E+03  0.41797790930E+04  0.41820236874E+04  0.00000000000E+00 0.  1.
<mgrwt>
<rscale>  2 0.13699947E+03</rscale>
<asrwt>0</asrwt>
<pdfrwt beam="2">  1       21 0.10625257E-01 0.13699947E+03</pdfrwt>
<pdfrwt beam="1">  1        2 0.65384035E+00 0.13699947E+03</pdfrwt>
<totfact> 0.29660703E+02</totfact>
</mgrwt>
</event>
<event>
 4    1  0.5142205E+003  0.2159223E+03  0.7546771E-02  0.1136960E+00
          2   -1    0    0  502    0 -0.00000000000E+00  0.00000000000E+00  0.10881331169E+04  0.10881331169E+04  0.00000000000E+00 0.  1.
         21   -1    0    0  503  502  0.00000000000E+00 -0.00000000000E+00 -0.53733045553E+02  0.53733045553E+02  0.00000000000E+00 0.  1.
         21    1    1    2  503  501  0.20027580356E+03 -0.80697334256E+02  0.26021141378E+03  0.33813079882E+03  0.00000000000E+00 0.  1.
          2    1    1    2  501    0 -0.20027580356E+03  0.80697334256E+02  0.77418865753E+03  0.80373536360E+03  0.00000000000E+00 0.  1.
<mgrwt>
<rscale>  2 0.21592234E+03</rscale>
<asrwt>0</asrwt>
<pdfrwt beam="2">  1       21 0.82666232E-02 0.21592234E+03</pdfrwt>
<pdfrwt beam="1">  1        2 0.16740508E+00 0.21592234E+03</pdfrwt>
<totfact> 0.33401401E+04</totfact>
</mgrwt>
</event>
<event>
 4    1  0.5142205E+003  0.1170060E+03  0.7546771E-02  0.1248119E+00
          2   -1    0    0  503    0 -0.00000000000E+00  0.00000000000E+00  0.16845796332E+04  0.16845796332E+04  0.00000000000E+00 0.  1.
         21   -1    0    0  501  502  0.00000000000E+00 -0.00000000000E+00 -0.81439269205E+01  0.81439269205E+01  0.00000000000E+00 0. -1.
         21    1    1    2  503  502  0.65935340759E+02 -0.96658898444E+02  0.79951926351E+03  0.80803555895E+03  0.00000000000E+00 0. -1.
          2    1    1    2  501    0 -0.65935340759E+02  0.96658898444E+02  0.87691644277E+03  0.88468800117E+03  0.00000000000E+00 0.  1.
<mgrwt>
<rscale>  2 0.11700603E+03</rscale>
<asrwt>0</asrwt>
<pdfrwt beam="2">  1       21 0.12529132E-02 0.11700603E+03</pdfrwt>
<pdfrwt beam="1">  1        2 0.25916582E+00 0.11700603E+03</pdfrwt>
<totfact> 0.36484190E+05</totfact>
</mgrwt>
</event>
<event>
 4    1  0.5142205E+003  0.1660714E+03  0.7546771E-02  0.1182008E+00
          2   -1    0    0  503    0 -0.00000000000E+00  0.00000000000E+00  0.18243834299E+04  0.18243834299E+04  0.00000000000E+00 0. -1.
         21   -1    0    0  501  502  0.00000000000E+00 -0.00000000000E+00 -0.22425359503E+02  0.22425359503E+02  0.00000000000E+00 0.  1.
         21    1    1    2  503  502  0.16596385291E+03 -0.59767047799E+01  0.37384172205E+03  0.40906888737E+03  0.00000000000E+00 0.  1.
          2    1    1    2  501    0 -0.16596385291E+03  0.59767047799E+01  0.14281163484E+04  0.14377399021E+04  0.00000000000E+00 0. -1.
<mgrwt>
<rscale>  2 0.16607143E+03</rscale>
<asrwt>0</asrwt>
<pdfrwt beam="2">  1       21 0.34500567E-02 0.16607143E+03</pdfrwt>
<pdfrwt beam="1">  1        2 0.28067426E+00 0.16607143E+03</pdfrwt>
<totfact> 0.59930791E+04</totfact>
</mgrwt>
</event>
<event>
 4    1  0.5142205E+003  0.1349085E+03  0.7546771E-02  0.1220349E+00
          1   -1    0    0  503    0 -0.00000000000E+00  0.00000000000E+00  0.79886170156E+03  0.79886170156E+03  0.00000000000E+00 0. -1.
         21   -1    0    0  501  502  0.00000000000E+00 -0.00000000000E+00 -0.25483495020E+02  0.25483495020E+02  0.00000000000E+00 0.  1.
         21    1    1    2  503  502  0.72007594615E+02  0.11408424253E+03  0.25250927821E+03  0.28628874176E+03  0.00000000000E+00 0.  1.
          1    1    1    2  501    0 -0.72007594615E+02 -0.11408424253E+03  0.52086892833E+03  0.53805645482E+03  0.00000000000E+00 0. -1.
<mgrwt>
<rscale>  2 0.13490852E+03</rscale>
<asrwt>0</asrwt>
<pdfrwt beam="2">  1       21 0.39205383E-02 0.13490852E+03</pdfrwt>
<pdfrwt beam="1">  1        1 0.12290178E+00 0.13490852E+03</pdfrwt>
<totfact> 0.10416091E+05</totfact>
</mgrwt>
</event>
<event>
 4    1  0.5142205E+003  0.1715259E+03  0.7546771E-02  0.1176266E+00
          2   -1    0    0  503    0 -0.00000000000E+00  0.00000000000E+00  0.54850037966E+03  0.54850037966E+03  0.00000000000E+00 0.  1.
         21   -1    0    0  501  502  0.00000000000E+00 -0.00000000000E+00 -0.75736724574E+02  0.75736724574E+02  0.00000000000E+00 0.  1.
         21    1    1    2  503  502  0.14853184850E+03 -0.85787069863E+02  0.67789439966E+02  0.18443573283E+03  0.00000000000E+00 0.  1.
          2    1    1    2  501    0 -0.14853184850E+03  0.85787069863E+02  0.40497421512E+03  0.43980137140E+03  0.00000000000E+00 0.  1.
<mgrwt>
<rscale>  2 0.17152589E+03</rscale>
<asrwt>0</asrwt>
<pdfrwt beam="2">  1       21 0.11651804E-01 0.17152589E+03</pdfrwt>
<pdfrwt beam="1">  1        2 0.84384671E-01 0.17152589E+03</pdfrwt>
<totfact> 0.43508160E+04</totfact>
</mgrwt>
</event>
<event>
 4    1  0.5142205E+003  0.2012296E+03  0.7546771E-02  0.1148706E+00
         21   -1    0    0  503  502  0.00000000000E+00  0.00000000000E+00  0.14580777918E+03  0.14580777918E+03  0.00000000000E+00 0. -1.
          1   -1    0    0  502    0 -0.00000000000E+00 -0.00000000000E+00 -0.41177076570E+03  0.41177076570E+03  0.00000000000E+00 0. -1.
         21    1    1    2  503  501  0.14160756513E+03  0.14297082832E+03  0.26088085947E+02  0.20291364785E+03  0.00000000000E+00 0. -1.
          1    1    1    2  501    0 -0.14160756513E+03 -0.14297082832E+03 -0.29205107247E+03  0.35466489703E+03  0.00000000000E+00 0. -1.
<mgrwt>
<rscale>  2 0.20122962E+03</rscale>
<asrwt>0</asrwt>
<pdfrwt beam="1">  1       21 0.22431966E-01 0.20122962E+03</pdfrwt>
<pdfrwt beam="2">  1        1 0.63349348E-01 0.20122962E+03</pdfrwt>
<totfact> 0.11927274E+04</totfact>
</mgrwt>
</event>
<event>
 4    1  0.5142205E+003  0.1697370E+03  0.7546771E-02  0.1178122E+00
         21   -1    0    0  503  502  0.00000000000E+00  0.00000000000E+00  0.22195258399E+02  0.22195258399E+02  0.00000000000E+00 0.  1.
          1   -1    0    0  502    0 -0.00000000000E+00 -0.00000000000E+00 -0.20357481419E+04  0.20357481419E+04  0.00000000000E+00 0.  1.
         21    1    1    2  503  501  0.34531255922E+02 -0.16618732325E+03 -0.38736431214E+03  0.42292049414E+03  0.00000000000E+00 0.  1.
          1    1    1    2  501    0 -0.34531255922E+02  0.16618732325E+03 -0.16261885714E+04  0.16350229062E+04  0.00000000000E+00 0.  1.
<mgrwt>
<rscale>  2 0.16973696E+03</rscale>
<asrwt>0</asrwt>
<pdfrwt beam="1">  1       21 0.34146551E-02 0.16973696E+03</pdfrwt>
<pdfrwt beam="2">  1        1 0.31319203E+00 0.16973696E+03</pdfrwt>
<totfact> 0.18833887E+04</totfact>
</mgrwt>
</event>
<event>
 4    1  0.5142205E+003  0.1362660E+03  0.7546771E-02  0.1218443E+00
         21   -1    0    0  503  502  0.00000000000E+00  0.00000000000E+00  0.77176351333E+02  0.77176351333E+02  0.00000000000E+00 0. -1.
         -1   -1    0    0    0  501 -0.00000000000E+00 -0.00000000000E+00 -0.30191559143E+03  0.30191559143E+03  0.00000000000E+00 0. -1.
         21    1    1    2  503  501 -0.12792113599E+03 -0.46953265816E+02 -0.26948235559E+02  0.13890512447E+03  0.00000000000E+00 0. -1.
         -1    1    1    2    0  502  0.12792113599E+03  0.46953265816E+02 -0.19779100453E+03  0.24018681829E+03  0.00000000000E+00 0. -1.
<mgrwt>
<rscale>  2 0.13626601E+03</rscale>
<asrwt>0</asrwt>
<pdfrwt beam="1">  1       21 0.11873285E-01 0.13626601E+03</pdfrwt>
<pdfrwt beam="2">  1       -1 0.46448553E-01 0.13626601E+03</pdfrwt>
<totfact> 0.25922027E+04</totfact>
</mgrwt>
</event>
<event>
 4    1  0.5142205E+003  0.1071154E+03  0.7546771E-02  0.1266007E+00
         21   -1    0    0  501  502  0.00000000000E+00  0.00000000000E+00  0.12809858974E+03  0.12809858974E+03  0.00000000000E+00 0. -1.
         -4   -1    0    0    0  501 -0.00000000000E+00 -0.00000000000E+00 -0.11427326416E+03  0.11427326416E+03  0.00000000000E+00 0. -1.
         21    1    1    2  503  502  0.44590745446E+02 -0.97392913563E+02  0.63258559229E+02  0.12439999802E+03  0.00000000000E+00 0. -1.
         -4    1    1    2    0  503 -0.44590745446E+02  0.97392913563E+02 -0.49433233651E+02  0.11797185588E+03  0.00000000000E+00 0. -1.
<mgrwt>
<rscale>  2 0.10711542E+03</rscale>
<asrwt>0</asrwt>
<pdfrwt beam="1">  1       21 0.19707475E-01 0.10711542E+03</pdfrwt>
<pdfrwt beam="2">  1       -4 0.17580502E-01 0.10711542E+03</pdfrwt>
<totfact> 0.26777686E+04</totfact>
</mgrwt>
</event>
<event>
 4    1  0.5142205E+003  0.1173469E+03  0.7546771E-02  0.1247539E+00
         21   -1    0    0  503  502  0.00000000000E+00  0.00000000000E+00  0.93106620014E+02  0.93106620014E+02  0.00000000000E+00 0. -1.
          1   -1    0    0  502    0 -0.00000000000E+00 -0.00000000000E+00 -0.72897952927E+03  0.72897952927E+03  0.00000000000E+00 0. -1.
         21    1    1    2  503  501  0.11733834160E+03  0.14141879137E+01  0.49048441580E+02  0.12718504613E+03  0.00000000000E+00 0. -1.
          1    1    1    2  501    0 -0.11733834160E+03 -0.14141879137E+01 -0.68492135083E+03  0.69490110316E+03  0.00000000000E+00 0. -1.
<mgrwt>
<rscale>  2 0.11734686E+03</rscale>
<asrwt>0</asrwt>
<pdfrwt beam="1">  1       21 0.14324096E-01 0.11734686E+03</pdfrwt>
<pdfrwt beam="2">  1        1 0.11215069E+00 0.11734686E+03</pdfrwt>
<totfact> 0.12847413E+04</totfact>
</mgrwt>
</event>
<event>
 4    1  0.5142205E+003  0.1087622E+03  0.7546771E-02  0.1262879E+00
          2   -1    0    0  502    0 -0.00000000000E+00  0.00000000000E+00  0.61168217691E+03  0.61168217691E+03  0.00000000000E+00 0. -1.
         21   -1    0    0  503  502  0.00000000000E+00 -0.00000000000E+00 -0.55442295865E+02  0.55442295865E+02  0.00000000000E+00 0. -1.
         21    1    1    2  503  501  0.94142111375E+02  0.54465373654E+02  0.89473980407E+01  0.10912960182E+03  0.00000000000E+00 0. -1.
          2    1    1    2  501    0 -0.94142111375E+02 -0.54465373654E+02  0.54729248300E+03  0.55799487095E+03  0.00000000000E+00 0. -1.
<mgrwt>
<rscale>  2 0.10876219E+03</rscale>
<asrwt>0</asrwt>
<pdfrwt beam="2">  1       21 0.85295844E-02 0.10876219E+03</pdfrwt>
<pdfrwt beam="1">  1        2 0.94104946E-01 0.10876219E+03</pdfrwt>
<totfact> 0.66269821E+04</totfact>
</mgrwt>
</event>
<event>
 4    1  0.5142205E+003  0.1021967E+03  0.7546771E-02  0.1275743E+00
          1   -1    0    0  503    0 -0.00000000000E+00  0.00000000000E+00  0.13400829307E+03  0.13400829307E+03  0.00000000000E+00 0.  1.
         21   -1    0    0  501  502  0.00000000000E+00 -0.00000000000E+00 -0.13932023022E+03  0.13932023022E+03  0.00000000000E+00 0.  1.
         21    1    1    2  503  502 -0.26182534782E+02 -0.98785868511E+02 -0.93369811580E+02  0.13842721791E+03  0.00000000000E+00 0.  1.
          1    1    1    2  501    0  0.26182534782E+02  0.98785868511E+02  0.88057874427E+02  0.13490130538E+03  0.00000000000E+00 0.  1.
<mgrwt>
<rscale>  2 0.10219674E+03</rscale>
<asrwt>0</asrwt>
<pdfrwt beam="2">  1       21 0.21433882E-01 0.10219674E+03</pdfrwt>
<pdfrwt beam="1">  1        1 0.20616661E-01 0.10219674E+03</pdfrwt>
<totfact> 0.52931558E+04</totfact>
</mgrwt>
</event>
<event>
 4    1  0.5142205E+003  0.1398757E+03  0.7546771E-02  0.1213496E+00
          3   -1    0    0  503    0 -0.00000000000E+00  0.00000000000E+00  0.59231511631E+03  0.59231511631E+03  0.00000000000E+00 0. -1.
         21   -1    0    0  501  502  0.00000000000E+00 -0.00000000000E+00 -0.41653840789E+03  0.41653840789E+03  0.00000000000E+00 0. -1.
         21    1    1    2  503  502 -0.13925390831E+03 -0.13174582582E+02 -0.39612465237E+03  0.42009518067E+03  0.00000000000E+00 0. -1.
          3    1    1    2  501    0  0.13925390831E+03  0.13174582582E+02  0.57190136079E+03  0.58875834353E+03  0.00000000000E+00 0. -1.
<mgrwt>
<rscale>  2 0.13987573E+03</rscale>
<asrwt>0</asrwt>
<pdfrwt beam="2">  1       21 0.64082832E-01 0.13987573E+03</pdfrwt>
<pdfrwt beam="1">  1        3 0.91125403E-01 0.13987573E+03</pdfrwt>
<totfact> 0.12664220E+02</totfact>
</mgrwt>
</event>
<event>
 4    1  0.5142205E+003  0.1334372E+03  0.7546771E-02  0.1222443E+00
         21   -1    0    0  503  502  0.00000000000E+00  0.00000000000E+00  0.26297038422E+02  0.26297038422E+02  0.00000000000E+00 0. -1.
          2   -1    0    0  502    0 -0.00000000000E+00 -0.00000000000E+00 -0.10736334219E+04  0.10736334219E+04  0.00000000000E+00 0. -1.
         21    1    1    2  503  501 -0.12307004195E+03 -0.51567805730E+02 -0.18943286849E+03  0.23171164295E+03  0.00000000000E+00 0. -1.
          2    1    1    2  501    0  0.12307004195E+03  0.51567805730E+02 -0.85790351502E+03  0.86821881740E+03  0.00000000000E+00 0. -1.
<mgrwt>
<rscale>  2 0.13343715E+03</rscale>
<asrwt>0</asrwt>
<pdfrwt beam="1">  1       21 0.40456973E-02 0.13343715E+03</pdfrwt>
<pdfrwt beam="2">  1        2 0.16517441E+00 0.13343715E+03</pdfrwt>
<totfact> 0.11583061E+05</totfact>
</mgrwt>
</event>
<event>
 4    1  0.5142205E+003  0.1174018E+03  0.7546771E-02  0.1247446E+00
         21   -1    0    0  503  502  0.00000000000E+00  0.00000000000E+00  0.50078552081E+02  0.50078552081E+02  0.00000000000E+00 0.  1.
         -2   -1    0    0    0  501 -0.00000000000E+00 -0.00000000000E+00 -0.36679768343E+03  0.36679768343E+03  0.00000000000E+00 0. -1.
         21    1    1    2  503  501 -0.30179384100E+02  0.11345657828E+03 -0.54216195870E+02  0.12931583922E+03  0.00000000000E+00 0.  1.
         -2    1    1    2    0  502  0.30179384100E+02 -0.11345657828E+03 -0.26250293548E+03  0.28756039629E+03  0.00000000000E+00 0. -1.
<mgrwt>
<rscale>  2 0.11740183E+03</rscale>
<asrwt>0</asrwt>
<pdfrwt beam="1">  1       21 0.77043923E-02 0.11740183E+03</pdfrwt>
<pdfrwt beam="2">  1       -2 0.56430415E-01 0.11740183E+03</pdfrwt>
<totfact> 0.30840037E+04</totfact>
</mgrwt>
</event>
<event>
 4    1  0.5142205E+003  0.1194542E+03  0.7546771E-02  0.1244000E+00
         21   -1    0    0  503  502  0.00000000000E+00  0.00000000000E+00  0.36340945857E+03  0.36340945857E+03  0.00000000000E+00 0.  1.
          1   -1    0    0  502    0 -0.00000000000E+00 -0.00000000000E+00 -0.40198431023E+02  0.40198431023E+02  0.00000000000E+00 0.  1.
         21    1    1    2  503  501  0.49395378519E+02 -0.10876304568E+03  0.19235559622E+03  0.22642875021E+03  0.00000000000E+00 0.  1.
          1    1    1    2  501    0 -0.49395378519E+02  0.10876304568E+03  0.13085543133E+03  0.17717913939E+03  0.00000000000E+00 0.  1.
<mgrwt>
<rscale>  2 0.11945419E+03</rscale>
<asrwt>0</asrwt>
<pdfrwt beam="1">  1       21 0.55909145E-01 0.11945419E+03</pdfrwt>
<pdfrwt beam="2">  1        1 0.61843742E-02 0.11945419E+03</pdfrwt>
<totfact> 0.39174994E+04</totfact>
</mgrwt>
</event>
<event>
 4    1  0.5142205E+003  0.2150660E+03  0.7546771E-02  0.1137616E+00
          1   -1    0    0  503    0 -0.00000000000E+00  0.00000000000E+00  0.46675964753E+03  0.46675964753E+03  0.00000000000E+00 0. -1.
         21   -1    0    0  501  502  0.00000000000E+00 -0.00000000000E+00 -0.99532370768E+02  0.99532370768E+02  0.00000000000E+00 0.  1.
         21    1    1    2  503  502 -0.20095182993E+03  0.76627316906E+02  0.16483659887E+03  0.27096953330E+03  0.00000000000E+00 0.  1.
          1    1    1    2  501    0  0.20095182993E+03 -0.76627316906E+02  0.20239067788E+03  0.29532248499E+03  0.00000000000E+00 0. -1.
<mgrwt>
<rscale>  2 0.21506600E+03</rscale>
<asrwt>0</asrwt>
<pdfrwt beam="2">  1       21 0.15312673E-01 0.21506600E+03</pdfrwt>
<pdfrwt beam="1">  1        1 0.71809175E-01 0.21506600E+03</pdfrwt>
<totfact> 0.20567630E+04</totfact>
</mgrwt>
</event>
<event>
 4    1  0.5142205E+003  0.1088905E+03  0.7546771E-02  0.1262638E+00
          2   -1    0    0  503    0 -0.00000000000E+00  0.00000000000E+00  0.64211795067E+03  0.64211795067E+03  0.00000000000E+00 0.  1.
         21   -1    0    0  501  502  0.00000000000E+00 -0.00000000000E+00 -0.30292355365E+02  0.30292355365E+02  0.00000000000E+00 0.  1.
         21    1    1    2  503  502  0.10884059587E+03  0.32973179338E+01  0.95840349908E+02  0.14506040219E+03  0.00000000000E+00 0.  1.
          2    1    1    2  501    0 -0.10884059587E+03 -0.32973179338E+01  0.51598524540E+03  0.52734990384E+03  0.00000000000E+00 0.  1.
<mgrwt>
<rscale>  2 0.10889053E+03</rscale>
<asrwt>0</asrwt>
<pdfrwt beam="2">  1       21 0.46603629E-02 0.10889053E+03</pdfrwt>
<pdfrwt beam="1">  1        2 0.98787366E-01 0.10889053E+03</pdfrwt>
<totfact> 0.17454393E+05</totfact>
</mgrwt>
</event>
<event>
 4    1  0.5142205E+003  0.1086170E+03  0.7546771E-02  0.1263153E+00
          1   -1    0    0  503    0 -0.00000000000E+00  0.00000000000E+00  0.32165512966E+03  0.32165512966E+03  0.00000000000E+00 0.  1.
         21   -1    0    0  501  502  0.00000000000E+00 -0.00000000000E+00 -0.44178068254E+02  0.44178068254E+02  0.00000000000E+00 0.  1.
         21    1    1    2  503  502 -0.16790082469E+02  0.10731140598E+03  0.63370987941E+02  0.12575184625E+03  0.00000000000E+00 0.  1.
          1    1    1    2  501    0  0.16790082469E+02 -0.10731140598E+03  0.21410607347E+03  0.24008135167E+03  0.00000000000E+00 0.  1.
<mgrwt>
<rscale>  2 0.10861696E+03</rscale>
<asrwt>0</asrwt>
<pdfrwt beam="2">  1       21 0.67966261E-02 0.10861696E+03</pdfrwt>
<pdfrwt beam="1">  1        1 0.49485403E-01 0.10861696E+03</pdfrwt>
<totfact> 0.13683314E+05</totfact>
</mgrwt>
</event>
<event>
 4    1  0.5142205E+003  0.1471699E+03  0.7546771E-02  0.1203994E+00
          1   -1    0    0  503    0 -0.00000000000E+00  0.00000000000E+00  0.11494333998E+04  0.11494333998E+04  0.00000000000E+00 0. -1.
         21   -1    0    0  501  502  0.00000000000E+00 -0.00000000000E+00 -0.22493077303E+02  0.22493077303E+02  0.00000000000E+00 0. -1.
         21    1    1    2  503  502 -0.54702942606E+02 -0.13662562259E+03  0.32742958975E+03  0.35898343823E+03  0.00000000000E+00 0. -1.
          1    1    1    2  501    0  0.54702942606E+02  0.13662562259E+03  0.79951073275E+03  0.81294303887E+03  0.00000000000E+00 0. -1.
<mgrwt>
<rscale>  2 0.14716988E+03</rscale>
<asrwt>0</asrwt>
<pdfrwt beam="2">  1       21 0.34604743E-02 0.14716988E+03</pdfrwt>
<pdfrwt beam="1">  1        1 0.17683586E+00 0.14716988E+03</pdfrwt>
<totfact> 0.70173613E+04</totfact>
</mgrwt>
</event>
<event>
 4    1  0.5142205E+003  0.1109038E+03  0.7546771E-02  0.1258905E+00
          1   -1    0    0  502    0 -0.00000000000E+00  0.00000000000E+00  0.55313882712E+03  0.55313882712E+03  0.00000000000E+00 0.  1.
         21   -1    0    0  503  502  0.00000000000E+00 -0.00000000000E+00 -0.28492745821E+02  0.28492745821E+02  0.00000000000E+00 0. -1.
         21    1    1    2  503  501 -0.10133473480E+01 -0.11089916376E+03  0.12604636179E+03  0.16789084763E+03  0.00000000000E+00 0. -1.
          1    1    1    2  501    0  0.10133473480E+01  0.11089916376E+03  0.39859971950E+03  0.41374072532E+03  0.00000000000E+00 0.  1.
<mgrwt>
<rscale>  2 0.11090379E+03</rscale>
<asrwt>0</asrwt>
<pdfrwt beam="2">  1       21 0.43834998E-02 0.11090379E+03</pdfrwt>
<pdfrwt beam="1">  1        1 0.85098273E-01 0.11090379E+03</pdfrwt>
<totfact> 0.14413171E+05</totfact>
</mgrwt>
</event>
<event>
 4    1  0.5142205E+003  0.1359655E+03  0.7546771E-02  0.1218863E+00
         21   -1    0    0  503  502  0.00000000000E+00  0.00000000000E+00  0.21791182913E+03  0.21791182913E+03  0.00000000000E+00 0. -1.
         -1   -1    0    0    0  501 -0.00000000000E+00 -0.00000000000E+00 -0.31842945191E+03  0.31842945191E+03  0.00000000000E+00 0. -1.
         21    1    1    2  503  501 -0.98496627019E+02 -0.93728450777E+02  0.17942777276E+03  0.22512426270E+03  0.00000000000E+00 0. -1.
         -1    1    1    2    0  502  0.98496627019E+02  0.93728450777E+02 -0.27994539554E+03  0.31121701834E+03  0.00000000000E+00 0. -1.
<mgrwt>
<rscale>  2 0.13596547E+03</rscale>
<asrwt>0</asrwt>
<pdfrwt beam="1">  1       21 0.33524897E-01 0.13596547E+03</pdfrwt>
<pdfrwt beam="2">  1       -1 0.48989146E-01 0.13596547E+03</pdfrwt>
<totfact> 0.34307538E+03</totfact>
</mgrwt>
</event>
<event>
 4    1  0.5142205E+003  0.1079015E+03  0.7546771E-02  0.1264506E+00
         21   -1    0    0  503  502  0.00000000000E+00  0.00000000000E+00  0.71016257272E+02  0.71016257272E+02  0.00000000000E+00 0. -1.
         -1   -1    0    0    0  501 -0.00000000000E+00 -0.00000000000E+00 -0.27246654155E+03  0.27246654155E+03  0.00000000000E+00 0.  1.
         21    1    1    2  503  501 -0.10543616300E+03  0.22933648106E+02  0.76618215439E+01  0.10817319535E+03  0.00000000000E+00 0. -1.
         -1    1    1    2    0  502  0.10543616300E+03 -0.22933648106E+02 -0.20911210582E+03  0.23530960347E+03  0.00000000000E+00 0.  1.
<mgrwt>
<rscale>  2 0.10790151E+03</rscale>
<asrwt>0</asrwt>
<pdfrwt beam="1">  1       21 0.10925578E-01 0.10790151E+03</pdfrwt>
<pdfrwt beam="2">  1       -1 0.41917929E-01 0.10790151E+03</pdfrwt>
<totfact> 0.35835185E+04</totfact>
</mgrwt>
</event>
<event>
 4    1  0.5142205E+003  0.1113386E+03  0.7546771E-02  0.1258111E+00
         21   -1    0    0  503  502  0.00000000000E+00  0.00000000000E+00  0.56319370333E+02  0.56319370333E+02  0.00000000000E+00 0. -1.
         -2   -1    0    0    0  501 -0.00000000000E+00 -0.00000000000E+00 -0.94268575999E+03  0.94268575999E+03  0.00000000000E+00 0.  1.
         21    1    1    2  503  501  0.77410865115E+02  0.80024010798E+02 -0.58656886804E+01  0.11149300716E+03  0.00000000000E+00 0. -1.
         -2    1    1    2    0  502 -0.77410865115E+02 -0.80024010798E+02 -0.88050070098E+03  0.88751212317E+03  0.00000000000E+00 0.  1.
<mgrwt>
<rscale>  2 0.11133860E+03</rscale>
<asrwt>0</asrwt>
<pdfrwt beam="1">  1       21 0.86645189E-02 0.11133860E+03</pdfrwt>
<pdfrwt beam="2">  1       -2 0.14502857E+00 0.11133860E+03</pdfrwt>
<totfact> 0.30104835E+03</totfact>
</mgrwt>
</event>
<event>
 4    1  0.5142205E+003  0.1178363E+03  0.7546771E-02  0.1246710E+00
          2   -1    0    0  503    0 -0.00000000000E+00  0.00000000000E+00  0.53237217128E+03  0.53237217128E+03  0.00000000000E+00 0. -1.
         21   -1    0    0  501  502  0.00000000000E+00 -0.00000000000E+00 -0.81904242183E+02  0.81904242183E+02  0.00000000000E+00 0.  1.
         21    1    1    2  503  502  0.22912574849E+02 -0.11558723551E+03 -0.28327829424E+02  0.12119348588E+03  0.00000000000E+00 0.  1.
          2    1    1    2  501    0 -0.22912574849E+02  0.11558723551E+03  0.47879575852E+03  0.49308292758E+03  0.00000000000E+00 0. -1.
<mgrwt>
<rscale>  2 0.11783631E+03</rscale>
<asrwt>0</asrwt>
<pdfrwt beam="2">  1       21 0.12600653E-01 0.11783631E+03</pdfrwt>
<pdfrwt beam="1">  1        2 0.81903409E-01 0.11783631E+03</pdfrwt>
<totfact> 0.39153149E+04</totfact>
</mgrwt>
</event>
<event>
 4    1  0.5142205E+003  0.1602073E+03  0.7546771E-02  0.1188463E+00
          2   -1    0    0  502    0 -0.00000000000E+00  0.00000000000E+00  0.44970079921E+04  0.44970079921E+04  0.00000000000E+00 0. -1.
         21   -1    0    0  503  502  0.00000000000E+00 -0.00000000000E+00 -0.71754421144E+01  0.71754421144E+01  0.00000000000E+00 0. -1.
         21    1    1    2  503  501 -0.10611821782E+03 -0.12002212441E+03  0.12262647642E+04  0.12366857557E+04  0.00000000000E+00 0. -1.
          2    1    1    2  501    0  0.10611821782E+03  0.12002212441E+03  0.32635677858E+04  0.32674976785E+04  0.00000000000E+00 0. -1.
<mgrwt>
<rscale>  2 0.16020732E+03</rscale>
<asrwt>0</asrwt>
<pdfrwt beam="2">  1       21 0.11039178E-02 0.16020732E+03</pdfrwt>
<pdfrwt beam="1">  1        2 0.69184513E+00 0.16020732E+03</pdfrwt>
<totfact> 0.76056654E+03</totfact>
</mgrwt>
</event>
<event>
 4    1  0.5142205E+003  0.1246115E+03  0.7546771E-02  0.1235678E+00
         21   -1    0    0  501  502  0.00000000000E+00  0.00000000000E+00  0.25895328072E+02  0.25895328072E+02  0.00000000000E+00 0.  1.
          2   -1    0    0  503    0 -0.00000000000E+00 -0.00000000000E+00 -0.89759543048E+03  0.89759543048E+03  0.00000000000E+00 0.  1.
         21    1    1    2  503  502 -0.11985412122E+03 -0.34103094934E+02 -0.16981829741E+03  0.21063305912E+03  0.00000000000E+00 0.  1.
          2    1    1    2  501    0  0.11985412122E+03  0.34103094934E+02 -0.70188180499E+03  0.71285769943E+03  0.00000000000E+00 0.  1.
<mgrwt>
<rscale>  2 0.12461152E+03</rscale>
<asrwt>0</asrwt>
<pdfrwt beam="1">  1       21 0.39838972E-02 0.12461152E+03</pdfrwt>
<pdfrwt beam="2">  1        2 0.13809159E+00 0.12461152E+03</pdfrwt>
<totfact> 0.15142892E+05</totfact>
</mgrwt>
</event>
<event>
 4    1  0.5142205E+003  0.1901789E+03  0.7546771E-02  0.1158300E+00
         21   -1    0    0  501  502  0.00000000000E+00  0.00000000000E+00  0.11140562062E+03  0.11140562062E+03  0.00000000000E+00 0.  1.
          2   -1    0    0  503    0 -0.00000000000E+00 -0.00000000000E+00 -0.16595470565E+04  0.16595470565E+04  0.00000000000E+00 0. -1.
         21    1    1    2  503  502 -0.96599668503E+02 -0.16381851674E+03  0.20085275498E+02  0.19123655685E+03  0.00000000000E+00 0.  1.
          2    1    1    2  501    0  0.96599668503E+02  0.16381851674E+03 -0.15682267114E+04  0.15797161203E+04  0.00000000000E+00 0. -1.
<mgrwt>
<rscale>  2 0.19017887E+03</rscale>
<asrwt>0</asrwt>
<pdfrwt beam="1">  1       21 0.17139327E-01 0.19017887E+03</pdfrwt>
<pdfrwt beam="2">  1        2 0.25531492E+00 0.19017887E+03</pdfrwt>
<totfact> 0.44534844E+03</totfact>
</mgrwt>
</event>
<event>
 4    1  0.5142205E+003  0.1567289E+03  0.7546771E-02  0.1192440E+00
          2   -1    0    0  502    0 -0.00000000000E+00  0.00000000000E+00  0.10375505900E+04  0.10375505900E+04  0.00000000000E+00 0.  1.
         21   -1    0    0  503  502  0.00000000000E+00 -0.00000000000E+00 -0.63003498021E+02  0.63003498021E+02  0.00000000000E+00 0. -1.
         21    1    1    2  503  501  0.78583053536E+02 -0.13560481069E+03  0.52510115661E+02  0.16529147961E+03  0.00000000000E+00 0. -1.
          2    1    1    2  501    0 -0.78583053536E+02  0.13560481069E+03  0.92203697634E+03  0.93526260843E+03  0.00000000000E+00 0.  1.
<mgrwt>
<rscale>  2 0.15672894E+03</rscale>
<asrwt>0</asrwt>
<pdfrwt beam="2">  1       21 0.96928466E-02 0.15672894E+03</pdfrwt>
<pdfrwt beam="1">  1        2 0.15962315E+00 0.15672894E+03</pdfrwt>
<totfact> 0.27359320E+04</totfact>
</mgrwt>
</event>
<event>
 4    1  0.5142205E+003  0.1062567E+03  0.7546771E-02  0.1267663E+00
          4   -1    0    0  503    0 -0.00000000000E+00  0.00000000000E+00  0.14295908459E+04  0.14295908459E+04  0.00000000000E+00 0.  1.
         21   -1    0    0  501  502  0.00000000000E+00 -0.00000000000E+00 -0.23232681612E+02  0.23232681612E+02  0.00000000000E+00 0. -1.
         21    1    1    2  503  502  0.72190721129E+01 -0.10601116545E+03  0.11301224402E+03  0.15512011314E+03  0.00000000000E+00 0. -1.
          4    1    1    2  501    0 -0.72190721129E+01  0.10601116545E+03  0.12933459202E+04  0.12977034144E+04  0.00000000000E+00 0.  1.
<mgrwt>
<rscale>  2 0.10625668E+03</rscale>
<asrwt>0</asrwt>
<pdfrwt beam="2">  1       21 0.35742598E-02 0.10625668E+03</pdfrwt>
<pdfrwt beam="1">  1        4 0.21993698E+00 0.10625668E+03</pdfrwt>
<totfact> 0.21334970E+03</totfact>
</mgrwt>
</event>
<event>
 4    1  0.5142205E+003  0.1076225E+03  0.7546771E-02  0.1265037E+00
          1   -1    0    0  503    0 -0.00000000000E+00  0.00000000000E+00  0.28801609723E+04  0.28801609723E+04  0.00000000000E+00 0. -1.
         21   -1    0    0  501  502  0.00000000000E+00 -0.00000000000E+00 -0.73977427932E+01  0.73977427932E+01  0.00000000000E+00 0.  1.
         21    1    1    2  503  502  0.65586753530E+02 -0.85328597962E+02  0.46101586316E+03  0.47341125668E+03  0.00000000000E+00 0.  1.
          1    1    1    2  501    0 -0.65586753530E+02  0.85328597962E+02  0.24117473663E+04  0.24141474584E+04  0.00000000000E+00 0. -1.
<mgrwt>
<rscale>  2 0.10762245E+03</rscale>
<asrwt>0</asrwt>
<pdfrwt beam="2">  1       21 0.11381166E-02 0.10762245E+03</pdfrwt>
<pdfrwt beam="1">  1        1 0.44310079E+00 0.10762245E+03</pdfrwt>
<totfact> 0.31958384E+04</totfact>
</mgrwt>
</event>
<event>
 4    1  0.5142205E+003  0.1321701E+03  0.7546771E-02  0.1224271E+00
         21   -1    0    0  503  502  0.00000000000E+00  0.00000000000E+00  0.11982804705E+03  0.11982804705E+03  0.00000000000E+00 0. -1.
          2   -1    0    0  502    0 -0.00000000000E+00 -0.00000000000E+00 -0.30713672940E+03  0.30713672940E+03  0.00000000000E+00 0. -1.
         21    1    1    2  503  501 -0.62924992529E+02 -0.11622989855E+03  0.61079425227E+02  0.14560096218E+03  0.00000000000E+00 0. -1.
          2    1    1    2  501    0  0.62924992529E+02  0.11622989855E+03 -0.24838810757E+03  0.28136381427E+03  0.00000000000E+00 0. -1.
<mgrwt>
<rscale>  2 0.13217013E+03</rscale>
<asrwt>0</asrwt>
<pdfrwt beam="1">  1       21 0.18435085E-01 0.13217013E+03</pdfrwt>
<pdfrwt beam="2">  1        2 0.47251803E-01 0.13217013E+03</pdfrwt>
<totfact> 0.35556194E+04</totfact>
</mgrwt>
</event>
<event>
 4    1  0.5142205E+003  0.1122016E+03  0.7546771E-02  0.1256546E+00
          1   -1    0    0  503    0 -0.00000000000E+00  0.00000000000E+00  0.97920486796E+02  0.97920486796E+02  0.00000000000E+00 0.  1.
         21   -1    0    0  501  502  0.00000000000E+00 -0.00000000000E+00 -0.52620858496E+03  0.52620858496E+03  0.00000000000E+00 0.  1.
         21    1    1    2  503  502 -0.97452397583E+02 -0.55607718263E+02 -0.48542057507E+03  0.49821915140E+03  0.00000000000E+00 0.  1.
          1    1    1    2  501    0  0.97452397583E+02  0.55607718263E+02  0.57132476907E+02  0.12590992035E+03  0.00000000000E+00 0.  1.
<mgrwt>
<rscale>  2 0.11220155E+03</rscale>
<asrwt>0</asrwt>
<pdfrwt beam="2">  1       21 0.80955167E-01 0.11220155E+03</pdfrwt>
<pdfrwt beam="1">  1        1 0.15064690E-01 0.11220155E+03</pdfrwt>
<totfact> 0.54361624E+03</totfact>
</mgrwt>
</event>
<event>
 4    1  0.5142205E+003  0.1680219E+03  0.7546771E-02  0.1179926E+00
         21   -1    0    0  501  502  0.00000000000E+00  0.00000000000E+00  0.87581871545E+02  0.87581871545E+02  0.00000000000E+00 0. -1.
          2   -1    0    0  503    0 -0.00000000000E+00 -0.00000000000E+00 -0.92999087826E+03  0.92999087826E+03  0.00000000000E+00 0. -1.
         21    1    1    2  503  502 -0.16545614222E+03 -0.29251191355E+02 -0.99390139174E+01  0.16831562967E+03  0.00000000000E+00 0. -1.
          2    1    1    2  501    0  0.16545614222E+03  0.29251191355E+02 -0.83246999280E+03  0.84925712014E+03  0.00000000000E+00 0. -1.
<mgrwt>
<rscale>  2 0.16802192E+03</rscale>
<asrwt>0</asrwt>
<pdfrwt beam="1">  1       21 0.13474135E-01 0.16802192E+03</pdfrwt>
<pdfrwt beam="2">  1        2 0.14307551E+00 0.16802192E+03</pdfrwt>
<totfact> 0.17674174E+04</totfact>
</mgrwt>
</event>
<event>
 4    1  0.5142205E+003  0.1175355E+03  0.7546771E-02  0.1247219E+00
          2   -1    0    0  503    0 -0.00000000000E+00  0.00000000000E+00  0.23467740968E+04  0.23467740968E+04  0.00000000000E+00 0. -1.
         21   -1    0    0  501  502  0.00000000000E+00 -0.00000000000E+00 -0.15010590356E+02  0.15010590356E+02  0.00000000000E+00 0. -1.
         21    1    1    2  503  502  0.11733977274E+03  0.67810541876E+01  0.24521391651E+03  0.27192732450E+03  0.00000000000E+00 0. -1.
          2    1    1    2  501    0 -0.11733977274E+03 -0.67810541876E+01  0.20865495900E+04  0.20898573627E+04  0.00000000000E+00 0. -1.
<mgrwt>
<rscale>  2 0.11753555E+03</rscale>
<asrwt>0</asrwt>
<pdfrwt beam="2">  1       21 0.23093235E-02 0.11753555E+03</pdfrwt>
<pdfrwt beam="1">  1        2 0.36104188E+00 0.11753555E+03</pdfrwt>
<totfact> 0.62891962E+04</totfact>
</mgrwt>
</event>
<event>
 4    1  0.5142205E+003  0.1079987E+03  0.7546771E-02  0.1264321E+00
         -1   -1    0    0    0  501 -0.00000000000E+00  0.00000000000E+00  0.43767381821E+03  0.43767381821E+03  0.00000000000E+00 0.  1.
         21   -1    0    0  501  502  0.00000000000E+00 -0.00000000000E+00 -0.37579182907E+02  0.37579182907E+02  0.00000000000E+00 0.  1.
         21    1    1    2  503  502 -0.82561622560E+02 -0.69622548783E+02  0.71894530590E+02  0.12974029577E+03  0.00000000000E+00 0.  1.
         -1    1    1    2    0  503  0.82561622560E+02  0.69622548783E+02  0.32820010471E+03  0.34551270534E+03  0.00000000000E+00 0.  1.
<mgrwt>
<rscale>  2 0.10799871E+03</rscale>
<asrwt>0</asrwt>
<pdfrwt beam="2">  1       21 0.57814130E-02 0.10799871E+03</pdfrwt>
<pdfrwt beam="1">  1       -1 0.67334430E-01 0.10799871E+03</pdfrwt>
<totfact> 0.44641107E+04</totfact>
</mgrwt>
</event>
<event>
 4    1  0.5142205E+003  0.1105770E+03  0.7546771E-02  0.1259505E+00
          2   -1    0    0  503    0 -0.00000000000E+00  0.00000000000E+00  0.94843978613E+02  0.94843978613E+02  0.00000000000E+00 0.  1.
         21   -1    0    0  501  502  0.00000000000E+00 -0.00000000000E+00 -0.15509609220E+04  0.15509609220E+04  0.00000000000E+00 0.  1.
         21    1    1    2  503  502 -0.10552303348E+03  0.33047997258E+02 -0.15160181296E+04  0.15200454763E+04  0.00000000000E+00 0.  1.
          2    1    1    2  501    0  0.10552303348E+03 -0.33047997258E+02  0.59901186154E+02  0.12575942438E+03  0.00000000000E+00 0.  1.
<mgrwt>
<rscale>  2 0.11057704E+03</rscale>
<asrwt>0</asrwt>
<pdfrwt beam="2">  1       21 0.23860935E+00 0.11057704E+03</pdfrwt>
<pdfrwt beam="1">  1        2 0.14591383E-01 0.11057704E+03</pdfrwt>
<totfact> 0.41594643E+02</totfact>
</mgrwt>
</event>
<event>
 4    1  0.5142205E+003  0.1092698E+03  0.7546771E-02  0.1261928E+00
          1   -1    0    0  503    0 -0.00000000000E+00  0.00000000000E+00  0.66824012992E+03  0.66824012992E+03  0.00000000000E+00 0.  1.
         21   -1    0    0  501  502  0.00000000000E+00 -0.00000000000E+00 -0.30999599512E+02  0.30999599512E+02  0.00000000000E+00 0.  1.
         21    1    1    2  503  502 -0.66859101797E+02 -0.86427734505E+02  0.91067371101E+02  0.14224330868E+03  0.00000000000E+00 0.  1.
          1    1    1    2  501    0  0.66859101797E+02  0.86427734505E+02  0.54617315931E+03  0.55699642075E+03  0.00000000000E+00 0.  1.
<mgrwt>
<rscale>  2 0.10926982E+03</rscale>
<asrwt>0</asrwt>
<pdfrwt beam="2">  1       21 0.47691696E-02 0.10926982E+03</pdfrwt>
<pdfrwt beam="1">  1        1 0.10280616E+00 0.10926982E+03</pdfrwt>
<totfact> 0.96869063E+04</totfact>
</mgrwt>
</event>
<event>
 4    1  0.5142205E+003  0.2003472E+03  0.7546771E-02  0.1149446E+00
         21   -1    0    0  503  502  0.00000000000E+00  0.00000000000E+00  0.19684460931E+03  0.19684460931E+03  0.00000000000E+00 0.  1.
          2   -1    0    0  502    0 -0.00000000000E+00 -0.00000000000E+00 -0.10196031770E+04  0.10196031770E+04  0.00000000000E+00 0. -1.
         21    1    1    2  503  501  0.11742488931E+03 -0.16232800222E+03  0.13263557225E+03  0.24027313616E+03  0.00000000000E+00 0.  1.
          2    1    1    2  501    0 -0.11742488931E+03  0.16232800222E+03 -0.95539413996E+03  0.97617465015E+03  0.00000000000E+00 0. -1.
<mgrwt>
<rscale>  2 0.20034716E+03</rscale>
<asrwt>0</asrwt>
<pdfrwt beam="1">  1       21 0.30283786E-01 0.20034716E+03</pdfrwt>
<pdfrwt beam="2">  1        2 0.15686203E+00 0.20034716E+03</pdfrwt>
<totfact> 0.33877883E+03</totfact>
</mgrwt>
</event>
<event>
 4    1  0.5142205E+003  0.1827968E+03  0.7546771E-02  0.1165123E+00
          2   -1    0    0  502    0 -0.00000000000E+00  0.00000000000E+00  0.54155146334E+03  0.54155146334E+03  0.00000000000E+00 0.  1.
         21   -1    0    0  503  502  0.00000000000E+00 -0.00000000000E+00 -0.16732573752E+03  0.16732573752E+03  0.00000000000E+00 0. -1.
         21    1    1    2  503  501 -0.10956536608E+02 -0.18246817141E+03 -0.94492482781E+02  0.20577538379E+03  0.00000000000E+00 0. -1.
          2    1    1    2  501    0  0.10956536608E+02  0.18246817141E+03  0.46871820859E+03  0.50310181707E+03  0.00000000000E+00 0.  1.
<mgrwt>
<rscale>  2 0.18279683E+03</rscale>
<asrwt>0</asrwt>
<pdfrwt beam="2">  1       21 0.25742421E-01 0.18279683E+03</pdfrwt>
<pdfrwt beam="1">  1        2 0.83315609E-01 0.18279683E+03</pdfrwt>
<totfact> 0.10234004E+04</totfact>
</mgrwt>
</event>
<event>
 4    1  0.5142205E+003  0.1137454E+03  0.7546771E-02  0.1253787E+00
         21   -1    0    0  503  502  0.00000000000E+00  0.00000000000E+00  0.84601378569E+01  0.84601378569E+01  0.00000000000E+00 0.  1.
         -2   -1    0    0    0  501 -0.00000000000E+00 -0.00000000000E+00 -0.28281984561E+04  0.28281984561E+04  0.00000000000E+00 0.  1.
         21    1    1    2  503  501 -0.10244677710E+03  0.49423337104E+02 -0.44867455727E+03  0.46286808783E+03  0.00000000000E+00 0.  1.
         -2    1    1    2    0  502  0.10244677710E+03 -0.49423337104E+02 -0.23710637610E+04  0.23737905062E+04  0.00000000000E+00 0.  1.
<mgrwt>
<rscale>  2 0.11374537E+03</rscale>
<asrwt>0</asrwt>
<pdfrwt beam="1">  1       21 0.13015586E-02 0.11374537E+03</pdfrwt>
<pdfrwt beam="2">  1       -2 0.43510780E+00 0.11374537E+03</pdfrwt>
<totfact> 0.11608757E+03</totfact>
</mgrwt>
</event>
<event>
 4    1  0.5142205E+003  0.1472637E+03  0.7546771E-02  0.1203876E+00
          3   -1    0    0  503    0 -0.00000000000E+00  0.00000000000E+00  0.67664882329E+03  0.67664882329E+03  0.00000000000E+00 0. -1.
         21   -1    0    0  501  502  0.00000000000E+00 -0.00000000000E+00 -0.36233673468E+02  0.36233673468E+02  0.00000000000E+00 0. -1.
         21    1    1    2  503  502 -0.28636393886E+01 -0.14723585505E+03  0.19908908164E+03  0.24763493266E+03  0.00000000000E+00 0. -1.
          3    1    1    2  501    0  0.28636393886E+01  0.14723585505E+03  0.44132606819E+03  0.46524756410E+03  0.00000000000E+00 0. -1.
<mgrwt>
<rscale>  2 0.14726370E+03</rscale>
<asrwt>0</asrwt>
<pdfrwt beam="2">  1       21 0.55744118E-02 0.14726370E+03</pdfrwt>
<pdfrwt beam="1">  1        3 0.10409981E+00 0.14726370E+03</pdfrwt>
<totfact> 0.90179981E+03</totfact>
</mgrwt>
</event>
<event>
 4    1  0.5142205E+003  0.1053849E+03  0.7546771E-02  0.1269363E+00
         21   -1    0    0  501  502  0.00000000000E+00  0.00000000000E+00  0.62424505686E+03  0.62424505686E+03  0.00000000000E+00 0. -1.
         -3   -1    0    0    0  501 -0.00000000000E+00 -0.00000000000E+00 -0.39320102293E+02  0.39320102293E+02  0.00000000000E+00 0. -1.
         21    1    1    2  503  502 -0.42748766565E+02  0.96325022288E+02  0.53796663214E+03  0.54819163096E+03  0.00000000000E+00 0. -1.
         -3    1    1    2    0  503  0.42748766565E+02 -0.96325022288E+02  0.46958322425E+02  0.11537352819E+03  0.00000000000E+00 0. -1.
<mgrwt>
<rscale>  2 0.10538485E+03</rscale>
<asrwt>0</asrwt>
<pdfrwt beam="1">  1       21 0.96037694E-01 0.10538485E+03</pdfrwt>
<pdfrwt beam="2">  1       -3 0.60492469E-02 0.10538485E+03</pdfrwt>
<totfact> 0.73401909E+03</totfact>
</mgrwt>
</event>
<event>
 4    1  0.5142205E+003  0.1322298E+03  0.7546771E-02  0.1224184E+00
         21   -1    0    0  503  502  0.00000000000E+00  0.00000000000E+00  0.40670854902E+02  0.40670854902E+02  0.00000000000E+00 0. -1.
         -2   -1    0    0    0  501 -0.00000000000E+00 -0.00000000000E+00 -0.52088562897E+03  0.52088562897E+03  0.00000000000E+00 0. -1.
         21    1    1    2  503  501 -0.12291176433E+03 -0.48758661184E+02 -0.12276347312E+03  0.18043164684E+03  0.00000000000E+00 0. -1.
         -2    1    1    2    0  502  0.12291176433E+03  0.48758661184E+02 -0.35745130095E+03  0.38112483703E+03  0.00000000000E+00 0. -1.
<mgrwt>
<rscale>  2 0.13222976E+03</rscale>
<asrwt>0</asrwt>
<pdfrwt beam="1">  1       21 0.62570544E-02 0.13222976E+03</pdfrwt>
<pdfrwt beam="2">  1       -2 0.80136253E-01 0.13222976E+03</pdfrwt>
<totfact> 0.21132470E+04</totfact>
</mgrwt>
</event>
<event>
 4    1  0.5142205E+003  0.1076255E+03  0.7546771E-02  0.1265031E+00
         21   -1    0    0  501  502  0.00000000000E+00  0.00000000000E+00  0.23768780194E+02  0.23768780194E+02  0.00000000000E+00 0.  1.
         -1   -1    0    0    0  501 -0.00000000000E+00 -0.00000000000E+00 -0.11100597951E+04  0.11100597951E+04  0.00000000000E+00 0. -1.
         21    1    1    2  503  502 -0.10709784559E+03  0.10644412528E+02 -0.11853195000E+03  0.16010332670E+03  0.00000000000E+00 0.  1.
         -1    1    1    2    0  503  0.10709784559E+03 -0.10644412528E+02 -0.96775906494E+03  0.97372524863E+03  0.00000000000E+00 0. -1.
<mgrwt>
<rscale>  2 0.10762552E+03</rscale>
<asrwt>0</asrwt>
<pdfrwt beam="1">  1       21 0.36567361E-02 0.10762552E+03</pdfrwt>
<pdfrwt beam="2">  1       -1 0.17077840E+00 0.10762552E+03</pdfrwt>
<totfact> 0.11532990E+04</totfact>
</mgrwt>
</event>
<event>
 4    1  0.5142205E+003  0.1314287E+03  0.7546771E-02  0.1225351E+00
         21   -1    0    0  503  502  0.00000000000E+00  0.00000000000E+00  0.85745192370E+01  0.85745192370E+01  0.00000000000E+00 0.  1.
          2   -1    0    0  502    0 -0.00000000000E+00 -0.00000000000E+00 -0.25242778504E+04  0.25242778504E+04  0.00000000000E+00 0.  1.
         21    1    1    2  503  501  0.11971430991E+03 -0.54240206311E+02 -0.68874393817E+03  0.70117168250E+03  0.00000000000E+00 0.  1.
          2    1    1    2  501    0 -0.11971430991E+03  0.54240206311E+02 -0.18269593930E+04  0.18316806871E+04  0.00000000000E+00 0.  1.
<mgrwt>
<rscale>  2 0.13142875E+03</rscale>
<asrwt>0</asrwt>
<pdfrwt beam="1">  1       21 0.13191563E-02 0.13142875E+03</pdfrwt>
<pdfrwt beam="2">  1        2 0.38835057E+00 0.13142875E+03</pdfrwt>
<totfact> 0.12407215E+05</totfact>
</mgrwt>
</event>
<event>
 4    1  0.5142205E+003  0.1020891E+03  0.7546771E-02  0.1275963E+00
          2   -1    0    0  502    0 -0.00000000000E+00  0.00000000000E+00  0.73421126823E+03  0.73421126823E+03  0.00000000000E+00 0. -1.
         21   -1    0    0  503  502  0.00000000000E+00 -0.00000000000E+00 -0.67480043266E+03  0.67480043266E+03  0.00000000000E+00 0. -1.
         21    1    1    2  503  501 -0.94208989993E+02 -0.39329988289E+02 -0.66735107144E+03  0.67511453422E+03  0.00000000000E+00 0. -1.
          2    1    1    2  501    0  0.94208989993E+02  0.39329988289E+02  0.72676190700E+03  0.73389716666E+03  0.00000000000E+00 0. -1.
<mgrwt>
<rscale>  2 0.10208909E+03</rscale>
<asrwt>0</asrwt>
<pdfrwt beam="2">  1       21 0.10381545E+00 0.10208909E+03</pdfrwt>
<pdfrwt beam="1">  1        2 0.11295558E+00 0.10208909E+03</pdfrwt>
<totfact> 0.40799681E+02</totfact>
</mgrwt>
</event>
<event>
 4    1  0.5142205E+003  0.1096949E+03  0.7546771E-02  0.1261136E+00
         21   -1    0    0  503  502  0.00000000000E+00  0.00000000000E+00  0.30036515978E+03  0.30036515978E+03  0.00000000000E+00 0.  1.
          1   -1    0    0  502    0 -0.00000000000E+00 -0.00000000000E+00 -0.16535350135E+04  0.16535350135E+04  0.00000000000E+00 0. -1.
         21    1    1    2  503  501  0.87642889570E+02  0.65967351428E+02  0.28845803585E+03  0.30861141585E+03  0.00000000000E+00 0.  1.
          1    1    1    2  501    0 -0.87642889570E+02 -0.65967351428E+02 -0.16416278896E+04  0.16452887574E+04  0.00000000000E+00 0. -1.
<mgrwt>
<rscale>  2 0.10969488E+03</rscale>
<asrwt>0</asrwt>
<pdfrwt beam="1">  1       21 0.46210025E-01 0.10969488E+03</pdfrwt>
<pdfrwt beam="2">  1        1 0.25439000E+00 0.10969488E+03</pdfrwt>
<totfact> 0.31517169E+02</totfact>
</mgrwt>
</event>
<event>
 4    1  0.5142205E+003  0.1329259E+03  0.7546771E-02  0.1223178E+00
          2   -1    0    0  503    0 -0.00000000000E+00  0.00000000000E+00  0.41166393560E+02  0.41166393560E+02  0.00000000000E+00 0.  1.
         21   -1    0    0  501  502  0.00000000000E+00 -0.00000000000E+00 -0.46546416398E+03  0.46546416398E+03  0.00000000000E+00 0. -1.
         21    1    1    2  503  502  0.11747059979E+03  0.62209009199E+02 -0.28283875998E+03  0.31251730638E+03  0.00000000000E+00 0. -1.
          2    1    1    2  501    0 -0.11747059979E+03 -0.62209009199E+02 -0.14145901044E+03  0.19411325116E+03  0.00000000000E+00 0.  1.
<mgrwt>
<rscale>  2 0.13292593E+03</rscale>
<asrwt>0</asrwt>
<pdfrwt beam="2">  1       21 0.71609876E-01 0.13292593E+03</pdfrwt>
<pdfrwt beam="1">  1        2 0.63332910E-02 0.13292593E+03</pdfrwt>
<totfact> 0.24430239E+04</totfact>
</mgrwt>
</event>
<event>
 4    1  0.5142205E+003  0.1000127E+03  0.7546771E-02  0.1280269E+00
          2   -1    0    0  502    0 -0.00000000000E+00  0.00000000000E+00  0.83502810608E+03  0.83502810608E+03  0.00000000000E+00 0.  1.
         21   -1    0    0  503  502  0.00000000000E+00 -0.00000000000E+00 -0.28526361633E+03  0.28526361633E+03  0.00000000000E+00 0.  1.
         21    1    1    2  503  501  0.73744655866E+01  0.99740469746E+02 -0.27337676496E+03  0.29109689052E+03  0.00000000000E+00 0.  1.
          2    1    1    2  501    0 -0.73744655866E+01 -0.99740469746E+02  0.82314125470E+03  0.82919483190E+03  0.00000000000E+00 0.  1.
<mgrwt>
<rscale>  2 0.10001272E+03</rscale>
<asrwt>0</asrwt>
<pdfrwt beam="2">  1       21 0.43886711E-01 0.10001272E+03</pdfrwt>
<pdfrwt beam="1">  1        2 0.12846586E+00 0.10001272E+03</pdfrwt>
<totfact> 0.22424733E+03</totfact>
</mgrwt>
</event>
<event>
 4    1  0.5142205E+003  0.1375325E+03  0.7546771E-02  0.1216688E+00
          2   -1    0    0  502    0 -0.00000000000E+00  0.00000000000E+00  0.88002004883E+03  0.88002004883E+03  0.00000000000E+00 0. -1.
         21   -1    0    0  503  502  0.00000000000E+00 -0.00000000000E+00 -0.27882336283E+02  0.27882336283E+02  0.00000000000E+00 0.  1.
         21    1    1    2  503  501 -0.12833354538E+03  0.49453829376E+02  0.20878005775E+03  0.25000858510E+03  0.00000000000E+00 0.  1.
          2    1    1    2  501    0  0.12833354538E+03 -0.49453829376E+02  0.64335765480E+03  0.65789380001E+03  0.00000000000E+00 0. -1.
<mgrwt>
<rscale>  2 0.13753247E+03</rscale>
<asrwt>0</asrwt>
<pdfrwt beam="2">  1       21 0.42895909E-02 0.13753247E+03</pdfrwt>
<pdfrwt beam="1">  1        2 0.13538768E+00 0.13753247E+03</pdfrwt>
<totfact> 0.13768806E+05</totfact>
</mgrwt>
</event>
<event>
 4    1  0.5142205E+003  0.1068980E+03  0.7546771E-02  0.1266425E+00
         21   -1    0    0  501  502  0.00000000000E+00  0.00000000000E+00  0.17872784519E+02  0.17872784519E+02  0.00000000000E+00 0. -1.
          2   -1    0    0  503    0 -0.00000000000E+00 -0.00000000000E+00 -0.63941172405E+03  0.63941172405E+03  0.00000000000E+00 0. -1.
         21    1    1    2  503  502 -0.47018754952E+02  0.96002175327E+02 -0.31366476889E+03  0.33138009631E+03  0.00000000000E+00 0. -1.
          2    1    1    2  501    0  0.47018754952E+02 -0.96002175327E+02 -0.30787417063E+03  0.32590441226E+03  0.00000000000E+00 0. -1.
<mgrwt>
<rscale>  2 0.10689799E+03</rscale>
<asrwt>0</asrwt>
<pdfrwt beam="1">  1       21 0.27496589E-02 0.10689799E+03</pdfrwt>
<pdfrwt beam="2">  1        2 0.98371044E-01 0.10689799E+03</pdfrwt>
<totfact> 0.41756250E+05</totfact>
</mgrwt>
</event>
<event>
 4    1  0.5142205E+003  0.1254107E+03  0.7546771E-02  0.1234429E+00
         21   -1    0    0  503  502  0.00000000000E+00  0.00000000000E+00  0.11018783262E+02  0.11018783262E+02  0.00000000000E+00 0.  1.
          1   -1    0    0  502    0 -0.00000000000E+00 -0.00000000000E+00 -0.31386140661E+04  0.31386140661E+04  0.00000000000E+00 0. -1.
         21    1    1    2  503  501 -0.10110954184E+03  0.74193747163E+02 -0.40096479720E+03  0.42011976883E+03  0.00000000000E+00 0.  1.
          1    1    1    2  501    0  0.10110954184E+03 -0.74193747163E+02 -0.27266304857E+04  0.27295130806E+04  0.00000000000E+00 0. -1.
<mgrwt>
<rscale>  2 0.12541073E+03</rscale>
<asrwt>0</asrwt>
<pdfrwt beam="1">  1       21 0.16951977E-02 0.12541073E+03</pdfrwt>
<pdfrwt beam="2">  1        1 0.48286363E+00 0.12541073E+03</pdfrwt>
<totfact> 0.11186437E+04</totfact>
</mgrwt>
</event>
<event>
 4    1  0.5142205E+003  0.1072762E+03  0.7546771E-02  0.1265699E+00
          2   -1    0    0  502    0 -0.00000000000E+00  0.00000000000E+00  0.28281823682E+04  0.28281823682E+04  0.00000000000E+00 0. -1.
         21   -1    0    0  503  502  0.00000000000E+00 -0.00000000000E+00 -0.68057664503E+02  0.68057664503E+02  0.00000000000E+00 0. -1.
         21    1    1    2  503  501  0.67775410595E+02 -0.83154578741E+02 -0.24099530555E+02  0.10994988686E+03  0.00000000000E+00 0. -1.
          2    1    1    2  501    0 -0.67775410595E+02  0.83154578741E+02  0.27842242343E+04  0.27862901459E+04  0.00000000000E+00 0. -1.
<mgrwt>
<rscale>  2 0.10727623E+03</rscale>
<asrwt>0</asrwt>
<pdfrwt beam="2">  1       21 0.10470412E-01 0.10727623E+03</pdfrwt>
<pdfrwt beam="1">  1        2 0.43510489E+00 0.10727623E+03</pdfrwt>
<totfact> 0.27740641E+03</totfact>
</mgrwt>
</event>
<event>
 4    1  0.5142205E+003  0.1172970E+03  0.7546771E-02  0.1247624E+00
         21   -1    0    0  501  502  0.00000000000E+00  0.00000000000E+00  0.11333119176E+02  0.11333119176E+02  0.00000000000E+00 0. -1.
          2   -1    0    0  503    0 -0.00000000000E+00 -0.00000000000E+00 -0.17837153604E+04  0.17837153604E+04  0.00000000000E+00 0. -1.
         21    1    1    2  503  502 -0.65813462828E+02 -0.97093601135E+02 -0.37895920704E+03  0.39669718914E+03  0.00000000000E+00 0. -1.
          2    1    1    2  501    0  0.65813462828E+02  0.97093601135E+02 -0.13934230342E+04  0.13983512905E+04  0.00000000000E+00 0. -1.
<mgrwt>
<rscale>  2 0.11729697E+03</rscale>
<asrwt>0</asrwt>
<pdfrwt beam="1">  1       21 0.17435576E-02 0.11729697E+03</pdfrwt>
<pdfrwt beam="2">  1        2 0.27441763E+00 0.11729697E+03</pdfrwt>
<totfact> 0.19194099E+05</totfact>
</mgrwt>
</event>
<event>
 4    1  0.5142205E+003  0.1468567E+03  0.7546771E-02  0.1204390E+00
         21   -1    0    0  503  502  0.00000000000E+00  0.00000000000E+00  0.10216300827E+03  0.10216300827E+03  0.00000000000E+00 0. -1.
          1   -1    0    0  502    0 -0.00000000000E+00 -0.00000000000E+00 -0.32099489350E+03  0.32099489350E+03  0.00000000000E+00 0.  1.
         21    1    1    2  503  501 -0.12280961657E+03 -0.80527589901E+02  0.14380073358E+02  0.14755907687E+03  0.00000000000E+00 0. -1.
          1    1    1    2  501    0  0.12280961657E+03  0.80527589901E+02 -0.23321195858E+03  0.27559882490E+03  0.00000000000E+00 0.  1.
<mgrwt>
<rscale>  2 0.14685671E+03</rscale>
<asrwt>0</asrwt>
<pdfrwt beam="1">  1       21 0.15717386E-01 0.14685671E+03</pdfrwt>
<pdfrwt beam="2">  1        1 0.49383830E-01 0.14685671E+03</pdfrwt>
<totfact> 0.31746300E+04</totfact>
</mgrwt>
</event>
<event>
 4    1  0.5142205E+003  0.1010418E+03  0.7546771E-02  0.1278120E+00
         -4   -1    0    0    0  501 -0.00000000000E+00  0.00000000000E+00  0.17564177368E+03  0.17564177368E+03  0.00000000000E+00 0.  1.
         21   -1    0    0  501  502  0.00000000000E+00 -0.00000000000E+00 -0.10734645101E+03  0.10734645101E+03  0.00000000000E+00 0. -1.
         21    1    1    2  503  502 -0.70699079625E+02  0.72187829653E+02 -0.61663275292E+02  0.11837145826E+03  0.00000000000E+00 0. -1.
         -4    1    1    2    0  503  0.70699079625E+02 -0.72187829653E+02  0.12995859795E+03  0.16461676644E+03  0.00000000000E+00 0.  1.
<mgrwt>
<rscale>  2 0.10104179E+03</rscale>
<asrwt>0</asrwt>
<pdfrwt beam="2">  1       21 0.16514839E-01 0.10104179E+03</pdfrwt>
<pdfrwt beam="1">  1       -4 0.27021811E-01 0.10104179E+03</pdfrwt>
<totfact> 0.16875604E+04</totfact>
</mgrwt>
</event>
<event>
 4    1  0.5142205E+003  0.2390954E+03  0.7546771E-02  0.1120397E+00
          1   -1    0    0  502    0 -0.00000000000E+00  0.00000000000E+00  0.10755579619E+04  0.10755579619E+04  0.00000000000E+00 0. -1.
         21   -1    0    0  503  502  0.00000000000E+00 -0.00000000000E+00 -0.79620885402E+02  0.79620885402E+02  0.00000000000E+00 0. -1.
         21    1    1    2  503  501  0.88826832869E+02  0.22198287150E+03  0.16493754101E+03  0.29046685510E+03  0.00000000000E+00 0. -1.
          1    1    1    2  501    0 -0.88826832869E+02 -0.22198287150E+03  0.83099953547E+03  0.86471199219E+03  0.00000000000E+00 0. -1.
<mgrwt>
<rscale>  2 0.23909538E+03</rscale>
<asrwt>0</asrwt>
<pdfrwt beam="2">  1       21 0.12249368E-01 0.23909538E+03</pdfrwt>
<pdfrwt beam="1">  1        1 0.16547044E+00 0.23909538E+03</pdfrwt>
<totfact> 0.88295998E+03</totfact>
</mgrwt>
</event>
<event>
 4    1  0.5142205E+003  0.1209441E+03  0.7546771E-02  0.1241548E+00
         21   -1    0    0  503  502  0.00000000000E+00  0.00000000000E+00  0.16764368267E+03  0.16764368267E+03  0.00000000000E+00 0. -1.
          1   -1    0    0  502    0 -0.00000000000E+00 -0.00000000000E+00 -0.50648240757E+03  0.50648240757E+03  0.00000000000E+00 0.  1.
         21    1    1    2  503  501 -0.95799114931E+02  0.73824140424E+02  0.13723887994E+03  0.18292617171E+03  0.00000000000E+00 0. -1.
          1    1    1    2  501    0  0.95799114931E+02 -0.73824140424E+02 -0.47607760483E+03  0.49119991852E+03  0.00000000000E+00 0.  1.
<mgrwt>
<rscale>  2 0.12094410E+03</rscale>
<asrwt>0</asrwt>
<pdfrwt beam="1">  1       21 0.25791336E-01 0.12094410E+03</pdfrwt>
<pdfrwt beam="2">  1        1 0.77920370E-01 0.12094410E+03</pdfrwt>
<totfact> 0.71490195E+03</totfact>
</mgrwt>
</event>
<event>
 4    1  0.5142205E+003  0.1066371E+03  0.7546771E-02  0.1266927E+00
          2   -1    0    0  502    0 -0.00000000000E+00  0.00000000000E+00  0.36584724383E+03  0.36584724383E+03  0.00000000000E+00 0.  1.
         21   -1    0    0  503  502  0.00000000000E+00 -0.00000000000E+00 -0.32814844357E+02  0.32814844357E+02  0.00000000000E+00 0.  1.
         21    1    1    2  503  501  0.63182427995E+02 -0.85903728457E+02  0.12071793077E+03  0.16107230854E+03  0.00000000000E+00 0.  1.
          2    1    1    2  501    0 -0.63182427995E+02  0.85903728457E+02  0.21231446871E+03  0.23758977965E+03  0.00000000000E+00 0.  1.
<mgrwt>
<rscale>  2 0.10663709E+03</rscale>
<asrwt>0</asrwt>
<pdfrwt beam="2">  1       21 0.50484379E-02 0.10663709E+03</pdfrwt>
<pdfrwt beam="1">  1        2 0.56284188E-01 0.10663709E+03</pdfrwt>
<totfact> 0.28144805E+05</totfact>
</mgrwt>
</event>
<event>
 4    1  0.5142205E+003  0.3204768E+03  0.7546771E-02  0.1075430E+00
         21   -1    0    0  501  502  0.00000000000E+00  0.00000000000E+00  0.37830248504E+03  0.37830248504E+03  0.00000000000E+00 0. -1.
          3   -1    0    0  503    0 -0.00000000000E+00 -0.00000000000E+00 -0.47216787904E+03  0.47216787904E+03  0.00000000000E+00 0.  1.
         21    1    1    2  503  502 -0.48759309256E+02 -0.31674576413E+03  0.23029122190E+03  0.39463831063E+03  0.00000000000E+00 0. -1.
          3    1    1    2  501    0  0.48759309256E+02  0.31674576413E+03 -0.32415661589E+03  0.45583205346E+03  0.00000000000E+00 0.  1.
<mgrwt>
<rscale>  2 0.32047675E+03</rscale>
<asrwt>0</asrwt>
<pdfrwt beam="1">  1       21 0.58200383E-01 0.32047675E+03</pdfrwt>
<pdfrwt beam="2">  1        3 0.72641212E-01 0.32047675E+03</pdfrwt>
<totfact> 0.24428662E+02</totfact>
</mgrwt>
</event>
<event>
 4    1  0.5142205E+003  0.1381451E+03  0.7546771E-02  0.1215847E+00
          2   -1    0    0  503    0 -0.00000000000E+00  0.00000000000E+00  0.49662154376E+03  0.49662154376E+03  0.00000000000E+00 0. -1.
         21   -1    0    0  501  502  0.00000000000E+00 -0.00000000000E+00 -0.43718585781E+02  0.43718585781E+02  0.00000000000E+00 0. -1.
         21    1    1    2  503  502 -0.36929342314E+02 -0.13311758266E+03  0.13246513038E+03  0.19139247087E+03  0.00000000000E+00 0. -1.
          2    1    1    2  501    0  0.36929342314E+02  0.13311758266E+03  0.32043782760E+03  0.34894765868E+03  0.00000000000E+00 0. -1.
<mgrwt>
<rscale>  2 0.13814509E+03</rscale>
<asrwt>0</asrwt>
<pdfrwt beam="2">  1       21 0.67259366E-02 0.13814509E+03</pdfrwt>
<pdfrwt beam="1">  1        2 0.76403310E-01 0.13814509E+03</pdfrwt>
<totfact> 0.12633449E+05</totfact>
</mgrwt>
</event>
<event>
 4    1  0.5142205E+003  0.1394098E+03  0.7546771E-02  0.1214125E+00
         21   -1    0    0  501  502  0.00000000000E+00  0.00000000000E+00  0.12211350580E+03  0.12211350580E+03  0.00000000000E+00 0. -1.
         -2   -1    0    0    0  501 -0.00000000000E+00 -0.00000000000E+00 -0.99868037461E+03  0.99868037461E+03  0.00000000000E+00 0.  1.
         21    1    1    2  503  502 -0.40335667757E+02  0.13344709598E+03  0.75522552266E+02  0.15855204010E+03  0.00000000000E+00 0. -1.
         -2    1    1    2    0  503  0.40335667757E+02 -0.13344709598E+03 -0.95208942108E+03  0.96224184031E+03  0.00000000000E+00 0.  1.
<mgrwt>
<rscale>  2 0.13940980E+03</rscale>
<asrwt>0</asrwt>
<pdfrwt beam="1">  1       21 0.18786694E-01 0.13940980E+03</pdfrwt>
<pdfrwt beam="2">  1       -2 0.15364313E+00 0.13940980E+03</pdfrwt>
<totfact> 0.65113717E+02</totfact>
</mgrwt>
</event>
<event>
 4    1  0.5142205E+003  0.1170338E+03  0.7546771E-02  0.1248072E+00
          1   -1    0    0  503    0 -0.00000000000E+00  0.00000000000E+00  0.70233894517E+02  0.70233894517E+02  0.00000000000E+00 0.  1.
         21   -1    0    0  501  502  0.00000000000E+00 -0.00000000000E+00 -0.29915937825E+03  0.29915937825E+03  0.00000000000E+00 0. -1.
         21    1    1    2  503  502  0.11617347741E+03  0.14164884273E+02 -0.22343549814E+03  0.25223073292E+03  0.00000000000E+00 0. -1.
          1    1    1    2  501    0 -0.11617347741E+03 -0.14164884273E+02 -0.54899855883E+01  0.11716253984E+03  0.00000000000E+00 0.  1.
<mgrwt>
<rscale>  2 0.11703384E+03</rscale>
<asrwt>0</asrwt>
<pdfrwt beam="2">  1       21 0.46024519E-01 0.11703384E+03</pdfrwt>
<pdfrwt beam="1">  1        1 0.10805215E-01 0.11703384E+03</pdfrwt>
<totfact> 0.27794607E+04</totfact>
</mgrwt>
</event>
<event>
 4    1  0.5142205E+003  0.1270371E+03  0.7546771E-02  0.1231920E+00
          2   -1    0    0  502    0 -0.00000000000E+00  0.00000000000E+00  0.53057497552E+03  0.53057497552E+03  0.00000000000E+00 0.  1.
         21   -1    0    0  503  502  0.00000000000E+00 -0.00000000000E+00 -0.85334896408E+02  0.85334896408E+02  0.00000000000E+00 0.  1.
         21    1    1    2  503  501  0.93609696786E+02 -0.85881604103E+02 -0.24427955227E+02  0.12936440875E+03  0.00000000000E+00 0.  1.
          2    1    1    2  501    0 -0.93609696786E+02  0.85881604103E+02  0.46966803434E+03  0.48654546317E+03  0.00000000000E+00 0.  1.
<mgrwt>
<rscale>  2 0.12703710E+03</rscale>
<asrwt>0</asrwt>
<pdfrwt beam="2">  1       21 0.13128446E-01 0.12703710E+03</pdfrwt>
<pdfrwt beam="1">  1        2 0.81626918E-01 0.12703710E+03</pdfrwt>
<totfact> 0.36536941E+04</totfact>
</mgrwt>
</event>
<event>
 4    1  0.5142205E+003  0.1070319E+03  0.7546771E-02  0.1266167E+00
         21   -1    0    0  501  502  0.00000000000E+00  0.00000000000E+00  0.87978404052E+02  0.87978404052E+02  0.00000000000E+00 0.  1.
          2   -1    0    0  503    0 -0.00000000000E+00 -0.00000000000E+00 -0.14602500081E+03  0.14602500081E+03  0.00000000000E+00 0.  1.
         21    1    1    2  503  502  0.49056290897E+02 -0.95127816261E+02  0.94792331117E+01  0.10745081183E+03  0.00000000000E+00 0.  1.
          2    1    1    2  501    0 -0.49056290897E+02  0.95127816261E+02 -0.67525829871E+02  0.12655259303E+03  0.00000000000E+00 0.  1.
<mgrwt>
<rscale>  2 0.10703187E+03</rscale>
<asrwt>0</asrwt>
<pdfrwt beam="1">  1       21 0.13535139E-01 0.10703187E+03</pdfrwt>
<pdfrwt beam="2">  1        2 0.22465385E-01 0.10703187E+03</pdfrwt>
<totfact> 0.13746247E+05</totfact>
</mgrwt>
</event>
<event>
 4    1  0.5142205E+003  0.1030906E+03  0.7546771E-02  0.1273928E+00
         21   -1    0    0  503  502  0.00000000000E+00  0.00000000000E+00  0.54786904473E+02  0.54786904473E+02  0.00000000000E+00 0. -1.
          2   -1    0    0  502    0 -0.00000000000E+00 -0.00000000000E+00 -0.40750417335E+03  0.40750417335E+03  0.00000000000E+00 0. -1.
         21    1    1    2  503  501 -0.37762865351E+02 -0.95925189088E+02 -0.90413035094E+01  0.10348633277E+03  0.00000000000E+00 0. -1.
          2    1    1    2  501    0  0.37762865351E+02  0.95925189088E+02 -0.34367596537E+03  0.35880474505E+03  0.00000000000E+00 0. -1.
<mgrwt>
<rscale>  2 0.10309062E+03</rscale>
<asrwt>0</asrwt>
<pdfrwt beam="1">  1       21 0.84287541E-02 0.10309062E+03</pdfrwt>
<pdfrwt beam="2">  1        2 0.62692953E-01 0.10309062E+03</pdfrwt>
<totfact> 0.10516119E+05</totfact>
</mgrwt>
</event>
<event>
 4    1  0.5142205E+003  0.1129054E+03  0.7546771E-02  0.1255282E+00
         21   -1    0    0  501  502  0.00000000000E+00  0.00000000000E+00  0.25797617054E+03  0.25797617054E+03  0.00000000000E+00 0. -1.
          2   -1    0    0  503    0 -0.00000000000E+00 -0.00000000000E+00 -0.66707744229E+02  0.66707744229E+02  0.00000000000E+00 0. -1.
         21    1    1    2  503  502 -0.11668632912E+02  0.11230084437E+03  0.17829262595E+03  0.21103529825E+03  0.00000000000E+00 0. -1.
          2    1    1    2  501    0  0.11668632912E+02 -0.11230084437E+03  0.12975800361E+02  0.11364861651E+03  0.00000000000E+00 0. -1.
<mgrwt>
<rscale>  2 0.11290543E+03</rscale>
<asrwt>0</asrwt>
<pdfrwt beam="1">  1       21 0.39688641E-01 0.11290543E+03</pdfrwt>
<pdfrwt beam="2">  1        2 0.10262730E-01 0.11290543E+03</pdfrwt>
<totfact> 0.45631559E+04</totfact>
</mgrwt>
</event>
<event>
 4    1  0.5142205E+003  0.2996964E+03  0.7546771E-02  0.1085392E+00
          2   -1    0    0  503    0 -0.00000000000E+00  0.00000000000E+00  0.17698402675E+04  0.17698402675E+04  0.00000000000E+00 0.  1.
         21   -1    0    0  501  502  0.00000000000E+00 -0.00000000000E+00 -0.70306870151E+02  0.70306870151E+02  0.00000000000E+00 0.  1.
         21    1    1    2  503  502 -0.97425375957E+02  0.28341886432E+03  0.36449790512E+03  0.47188629920E+03  0.00000000000E+00 0.  1.
          2    1    1    2  501    0  0.97425375957E+02 -0.28341886432E+03  0.13350354922E+04  0.13682608384E+04  0.00000000000E+00 0.  1.
<mgrwt>
<rscale>  2 0.29969644E+03</rscale>
<asrwt>0</asrwt>
<pdfrwt beam="2">  1       21 0.10816443E-01 0.29969644E+03</pdfrwt>
<pdfrwt beam="1">  1        2 0.27228308E+00 0.29969644E+03</pdfrwt>
<totfact> 0.86313218E+03</totfact>
</mgrwt>
</event>
<event>
 4    1  0.5142205E+003  0.1174483E+03  0.7546771E-02  0.1247367E+00
         21   -1    0    0  501  502  0.00000000000E+00  0.00000000000E+00  0.18321680334E+03  0.18321680334E+03  0.00000000000E+00 0. -1.
          2   -1    0    0  503    0 -0.00000000000E+00 -0.00000000000E+00 -0.10157569798E+03  0.10157569798E+03  0.00000000000E+00 0.  1.
         21    1    1    2  503  502  0.11660298195E+03  0.14066081619E+02  0.11326017319E+03  0.16316242485E+03  0.00000000000E+00 0. -1.
          2    1    1    2  501    0 -0.11660298195E+03 -0.14066081619E+02 -0.31619067839E+02  0.12163007647E+03  0.00000000000E+00 0.  1.
<mgrwt>
<rscale>  2 0.11744833E+03</rscale>
<asrwt>0</asrwt>
<pdfrwt beam="1">  1       21 0.28187200E-01 0.11744833E+03</pdfrwt>
<pdfrwt beam="2">  1        2 0.15627031E-01 0.11744833E+03</pdfrwt>
<totfact> 0.53964298E+04</totfact>
</mgrwt>
</event>
<event>
 4    1  0.5142205E+003  0.1448237E+03  0.7546771E-02  0.1206982E+00
         21   -1    0    0  503  502  0.00000000000E+00  0.00000000000E+00  0.72027588428E+02  0.72027588428E+02  0.00000000000E+00 0.  1.
          1   -1    0    0  502    0 -0.00000000000E+00 -0.00000000000E+00 -0.22664126026E+04  0.22664126026E+04  0.00000000000E+00 0. -1.
         21    1    1    2  503  501 -0.70858311606E+02  0.12630522993E+03 -0.56654541223E+01  0.14493449831E+03  0.00000000000E+00 0.  1.
          1    1    1    2  501    0  0.70858311606E+02 -0.12630522993E+03 -0.21887195600E+04  0.21935056927E+04  0.00000000000E+00 0. -1.
<mgrwt>
<rscale>  2 0.14482373E+03</rscale>
<asrwt>0</asrwt>
<pdfrwt beam="1">  1       21 0.11081170E-01 0.14482373E+03</pdfrwt>
<pdfrwt beam="2">  1        1 0.34867879E+00 0.14482373E+03</pdfrwt>
<totfact> 0.18159238E+03</totfact>
</mgrwt>
</event>
<event>
 4    1  0.5142205E+003  0.1437117E+03  0.7546771E-02  0.1208420E+00
         21   -1    0    0  501  502  0.00000000000E+00  0.00000000000E+00  0.14752731722E+03  0.14752731722E+03  0.00000000000E+00 0. -1.
          1   -1    0    0  503    0 -0.00000000000E+00 -0.00000000000E+00 -0.59218539810E+03  0.59218539810E+03  0.00000000000E+00 0.  1.
         21    1    1    2  503  502  0.13178974814E+03  0.57310739999E+02  0.10086623304E+03  0.17557635263E+03  0.00000000000E+00 0. -1.
          1    1    1    2  501    0 -0.13178974814E+03 -0.57310739999E+02 -0.54552431392E+03  0.56413636269E+03  0.00000000000E+00 0.  1.
<mgrwt>
<rscale>  2 0.14371172E+03</rscale>
<asrwt>0</asrwt>
<pdfrwt beam="1">  1       21 0.22696510E-01 0.14371172E+03</pdfrwt>
<pdfrwt beam="2">  1        1 0.91105446E-01 0.14371172E+03</pdfrwt>
<totfact> 0.73370449E+03</totfact>
</mgrwt>
</event>
<event>
 4    1  0.5142205E+003  0.1321446E+03  0.7546771E-02  0.1224308E+00
         -1   -1    0    0    0  501 -0.00000000000E+00  0.00000000000E+00  0.11673011573E+04  0.11673011573E+04  0.00000000000E+00 0. -1.
         21   -1    0    0  503  502  0.00000000000E+00 -0.00000000000E+00 -0.18782283409E+02  0.18782283409E+02  0.00000000000E+00 0.  1.
         21    1    1    2  503  501  0.10271531445E+03 -0.83136940621E+02  0.30671028901E+03  0.33396614813E+03  0.00000000000E+00 0.  1.
         -1    1    1    2    0  502 -0.10271531445E+03  0.83136940621E+02  0.84180858491E+03  0.85211729260E+03  0.00000000000E+00 0. -1.
<mgrwt>
<rscale>  2 0.13214457E+03</rscale>
<asrwt>0</asrwt>
<pdfrwt beam="2">  1       21 0.28895830E-02 0.13214457E+03</pdfrwt>
<pdfrwt beam="1">  1       -1 0.17958474E+00 0.13214457E+03</pdfrwt>
<totfact> 0.14760424E+04</totfact>
</mgrwt>
</event>
<event>
 4    1  0.5142205E+003  0.1154490E+03  0.7546771E-02  0.1250799E+00
         21   -1    0    0  501  502  0.00000000000E+00  0.00000000000E+00  0.29330372840E+02  0.29330372840E+02  0.00000000000E+00 0.  1.
          2   -1    0    0  503    0 -0.00000000000E+00 -0.00000000000E+00 -0.22517941307E+04  0.22517941307E+04  0.00000000000E+00 0.  1.
         21    1    1    2  503  502  0.10962685767E+03 -0.36199913408E+02 -0.92234232879E+02  0.14776885791E+03  0.00000000000E+00 0.  1.
          2    1    1    2  501    0 -0.10962685767E+03  0.36199913408E+02 -0.21302295249E+04  0.21333556456E+04  0.00000000000E+00 0.  1.
<mgrwt>
<rscale>  2 0.11544904E+03</rscale>
<asrwt>0</asrwt>
<pdfrwt beam="1">  1       21 0.45123654E-02 0.11544904E+03</pdfrwt>
<pdfrwt beam="2">  1        2 0.34642984E+00 0.11544904E+03</pdfrwt>
<totfact> 0.23476733E+04</totfact>
</mgrwt>
</event>
<event>
 4    1  0.5142205E+003  0.1339716E+03  0.7546771E-02  0.1221679E+00
         21   -1    0    0  501  502  0.00000000000E+00  0.00000000000E+00  0.43107223976E+03  0.43107223976E+03  0.00000000000E+00 0.  1.
          3   -1    0    0  503    0 -0.00000000000E+00 -0.00000000000E+00 -0.10321324926E+03  0.10321324926E+03  0.00000000000E+00 0.  1.
         21    1    1    2  503  502  0.13241727477E+03  0.20348451868E+02  0.37026957244E+03  0.39376128609E+03  0.00000000000E+00 0.  1.
          3    1    1    2  501    0 -0.13241727477E+03 -0.20348451868E+02 -0.42410581935E+02  0.14052420293E+03  0.00000000000E+00 0.  1.
<mgrwt>
<rscale>  2 0.13397162E+03</rscale>
<asrwt>0</asrwt>
<pdfrwt beam="1">  1       21 0.66318805E-01 0.13397162E+03</pdfrwt>
<pdfrwt beam="2">  1        3 0.15878962E-01 0.13397162E+03</pdfrwt>
<totfact> 0.34407881E+03</totfact>
</mgrwt>
</event>
<event>
 4    1  0.5142205E+003  0.1155400E+03  0.7546771E-02  0.1250641E+00
         21   -1    0    0  503  502  0.00000000000E+00  0.00000000000E+00  0.23772569624E+03  0.23772569624E+03  0.00000000000E+00 0.  1.
          2   -1    0    0  502    0 -0.00000000000E+00 -0.00000000000E+00 -0.24897373493E+03  0.24897373493E+03  0.00000000000E+00 0. -1.
         21    1    1    2  503  501  0.36382054673E+02  0.10966238931E+03  0.20853119683E+03  0.23840040601E+03  0.00000000000E+00 0.  1.
          2    1    1    2  501    0 -0.36382054673E+02 -0.10966238931E+03 -0.21977923552E+03  0.24829902517E+03  0.00000000000E+00 0. -1.
<mgrwt>
<rscale>  2 0.11554001E+03</rscale>
<asrwt>0</asrwt>
<pdfrwt beam="1">  1       21 0.36573184E-01 0.11554001E+03</pdfrwt>
<pdfrwt beam="2">  1        2 0.38303651E-01 0.11554001E+03</pdfrwt>
<totfact> 0.12110203E+04</totfact>
</mgrwt>
</event>
<event>
 4    1  0.5142205E+003  0.1015667E+03  0.7546771E-02  0.1277035E+00
          2   -1    0    0  502    0 -0.00000000000E+00  0.00000000000E+00  0.36579040838E+03  0.36579040838E+03  0.00000000000E+00 0. -1.
         21   -1    0    0  503  502  0.00000000000E+00 -0.00000000000E+00 -0.42069306091E+02  0.42069306091E+02  0.00000000000E+00 0. -1.
         21    1    1    2  503  501 -0.72058943427E+02  0.71577243705E+02  0.44774826032E+02  0.11099809994E+03  0.00000000000E+00 0. -1.
          2    1    1    2  501    0  0.72058943427E+02 -0.71577243705E+02  0.27894627625E+03  0.29686161453E+03  0.00000000000E+00 0. -1.
<mgrwt>
<rscale>  2 0.10156669E+03</rscale>
<asrwt>0</asrwt>
<pdfrwt beam="2">  1       21 0.64722012E-02 0.10156669E+03</pdfrwt>
<pdfrwt beam="1">  1        2 0.56275445E-01 0.10156669E+03</pdfrwt>
<totfact> 0.18482108E+05</totfact>
</mgrwt>
</event>
<event>
 4    1  0.5142205E+003  0.1180856E+03  0.7546771E-02  0.1246289E+00
         -1   -1    0    0    0  501 -0.00000000000E+00  0.00000000000E+00  0.61109668485E+02  0.61109668485E+02  0.00000000000E+00 0. -1.
         21   -1    0    0  503  502  0.00000000000E+00 -0.00000000000E+00 -0.88684768065E+03  0.88684768065E+03  0.00000000000E+00 0.  1.
         21    1    1    2  503  501  0.11647835330E+03 -0.19416768758E+02 -0.82134478531E+03  0.82979001805E+03  0.00000000000E+00 0.  1.
         -1    1    1    2    0  502 -0.11647835330E+03  0.19416768758E+02 -0.43932268623E+01  0.11816733109E+03  0.00000000000E+00 0. -1.
<mgrwt>
<rscale>  2 0.11808564E+03</rscale>
<asrwt>0</asrwt>
<pdfrwt beam="2">  1       21 0.13643810E+00 0.11808564E+03</pdfrwt>
<pdfrwt beam="1">  1       -1 0.94014877E-02 0.11808564E+03</pdfrwt>
<totfact> 0.23632948E+03</totfact>
</mgrwt>
</event>
<event>
 4    1  0.5142205E+003  0.1096841E+03  0.7546771E-02  0.1261156E+00
         21   -1    0    0  501  502  0.00000000000E+00  0.00000000000E+00  0.37341419274E+03  0.37341419274E+03  0.00000000000E+00 0.  1.
          1   -1    0    0  503    0 -0.00000000000E+00 -0.00000000000E+00 -0.37544960068E+03  0.37544960068E+03  0.00000000000E+00 0.  1.
         21    1    1    2  503  502 -0.41327114120E+02 -0.10160050873E+03  0.35698866840E+03  0.37345883723E+03  0.00000000000E+00 0.  1.
          1    1    1    2  501    0  0.41327114120E+02  0.10160050873E+03 -0.35902407634E+03  0.37540495619E+03  0.00000000000E+00 0.  1.
<mgrwt>
<rscale>  2 0.10968406E+03</rscale>
<asrwt>0</asrwt>
<pdfrwt beam="1">  1       21 0.57448337E-01 0.10968406E+03</pdfrwt>
<pdfrwt beam="2">  1        1 0.57761477E-01 0.10968406E+03</pdfrwt>
<totfact> 0.21403331E+03</totfact>
</mgrwt>
</event>
<event>
 4    1  0.5142205E+003  0.1156953E+03  0.7546771E-02  0.1250372E+00
         21   -1    0    0  501  502  0.00000000000E+00  0.00000000000E+00  0.34657826694E+03  0.34657826694E+03  0.00000000000E+00 0.  1.
          1   -1    0    0  503    0 -0.00000000000E+00 -0.00000000000E+00 -0.18644969285E+04  0.18644969285E+04  0.00000000000E+00 0. -1.
         21    1    1    2  503  502 -0.33761285683E+02 -0.11065974359E+03  0.33506817814E+03  0.35448002379E+03  0.00000000000E+00 0.  1.
          1    1    1    2  501    0  0.33761285683E+02  0.11065974359E+03 -0.18529868397E+04  0.18565951716E+04  0.00000000000E+00 0. -1.
<mgrwt>
<rscale>  2 0.11569530E+03</rscale>
<asrwt>0</asrwt>
<pdfrwt beam="1">  1       21 0.53319733E-01 0.11569530E+03</pdfrwt>
<pdfrwt beam="2">  1        1 0.28684568E+00 0.11569530E+03</pdfrwt>
<totfact> 0.17131342E+02</totfact>
</mgrwt>
</event>
<event>
 4    1  0.5142205E+003  0.1217402E+03  0.7546771E-02  0.1240254E+00
         21   -1    0    0  503  502  0.00000000000E+00  0.00000000000E+00  0.15441950737E+03  0.15441950737E+03  0.00000000000E+00 0. -1.
         -1   -1    0    0    0  501 -0.00000000000E+00 -0.00000000000E+00 -0.20291542951E+03  0.20291542951E+03  0.00000000000E+00 0. -1.
         21    1    1    2  503  501 -0.52334149618E+02 -0.10991732353E+03  0.10545663714E+03  0.16106453224E+03  0.00000000000E+00 0. -1.
         -1    1    1    2    0  502  0.52334149618E+02  0.10991732353E+03 -0.15395255928E+03  0.19627040464E+03  0.00000000000E+00 0. -1.
<mgrwt>
<rscale>  2 0.12174022E+03</rscale>
<asrwt>0</asrwt>
<pdfrwt beam="1">  1       21 0.23756847E-01 0.12174022E+03</pdfrwt>
<pdfrwt beam="2">  1       -1 0.31217758E-01 0.12174022E+03</pdfrwt>
<totfact> 0.14604309E+04</totfact>
</mgrwt>
</event>
<event>
 4    1  0.5142205E+003  0.1065986E+03  0.7546771E-02  0.1267002E+00
         21   -1    0    0  501  502  0.00000000000E+00  0.00000000000E+00  0.15137662863E+03  0.15137662863E+03  0.00000000000E+00 0.  1.
          2   -1    0    0  503    0 -0.00000000000E+00 -0.00000000000E+00 -0.77056622430E+03  0.77056622430E+03  0.00000000000E+00 0.  1.
         21    1    1    2  503  502  0.47333401754E+02  0.95513432557E+02  0.12834821296E+03  0.16684283171E+03  0.00000000000E+00 0.  1.
          2    1    1    2  501    0 -0.47333401754E+02 -0.95513432557E+02 -0.74753780864E+03  0.75510002123E+03  0.00000000000E+00 0.  1.
<mgrwt>
<rscale>  2 0.10659862E+03</rscale>
<asrwt>0</asrwt>
<pdfrwt beam="1">  1       21 0.23288712E-01 0.10659862E+03</pdfrwt>
<pdfrwt beam="2">  1        2 0.11854865E+00 0.10659862E+03</pdfrwt>
<totfact> 0.83937096E+03</totfact>
</mgrwt>
</event>
<event>
 4    1  0.5142205E+003  0.1182019E+03  0.7546771E-02  0.1246093E+00
         21   -1    0    0  501  502  0.00000000000E+00  0.00000000000E+00  0.20008686254E+02  0.20008686254E+02  0.00000000000E+00 0. -1.
          1   -1    0    0  503    0 -0.00000000000E+00 -0.00000000000E+00 -0.96636303512E+03  0.96636303512E+03  0.00000000000E+00 0. -1.
         21    1    1    2  503  502 -0.11738858842E+03  0.13842536675E+02 -0.21341622052E+03  0.24396348025E+03  0.00000000000E+00 0. -1.
          1    1    1    2  501    0  0.11738858842E+03 -0.13842536675E+02 -0.73293812834E+03  0.74240824112E+03  0.00000000000E+00 0. -1.
<mgrwt>
<rscale>  2 0.11820193E+03</rscale>
<asrwt>0</asrwt>
<pdfrwt beam="1">  1       21 0.30782593E-02 0.11820193E+03</pdfrwt>
<pdfrwt beam="2">  1        1 0.14867124E+00 0.11820193E+03</pdfrwt>
<totfact> 0.11481909E+05</totfact>
</mgrwt>
</event>
<event>
 4    1  0.5142205E+003  0.1189477E+03  0.7546771E-02  0.1244843E+00
         21   -1    0    0  501  502  0.00000000000E+00  0.00000000000E+00  0.98450029399E+02  0.98450029399E+02  0.00000000000E+00 0.  1.
          1   -1    0    0  503    0 -0.00000000000E+00 -0.00000000000E+00 -0.16110267780E+03  0.16110267780E+03  0.00000000000E+00 0.  1.
         21    1    1    2  503  502  0.11395392225E+03  0.34103507196E+02  0.11311044614E+02  0.11948424721E+03  0.00000000000E+00 0.  1.
          1    1    1    2  501    0 -0.11395392225E+03 -0.34103507196E+02 -0.73963693014E+02  0.14006845999E+03  0.00000000000E+00 0.  1.
<mgrwt>
<rscale>  2 0.11894766E+03</rscale>
<asrwt>0</asrwt>
<pdfrwt beam="1">  1       21 0.15146158E-01 0.11894766E+03</pdfrwt>
<pdfrwt beam="2">  1        1 0.24785027E-01 0.11894766E+03</pdfrwt>
<totfact> 0.79522591E+04</totfact>
</mgrwt>
</event>
<event>
 4    1  0.5142205E+003  0.1019454E+03  0.7546771E-02  0.1276257E+00
          1   -1    0    0  503    0 -0.00000000000E+00  0.00000000000E+00  0.15096212994E+04  0.15096212994E+04  0.00000000000E+00 0.  1.
         21   -1    0    0  501  502  0.00000000000E+00 -0.00000000000E+00 -0.69516796647E+01  0.69516796647E+01  0.00000000000E+00 0.  1.
         21    1    1    2  503  502 -0.81267637195E+02 -0.61550240333E+02  0.67674510456E+03  0.68438059403E+03  0.00000000000E+00 0.  1.
          1    1    1    2  501    0  0.81267637195E+02  0.61550240333E+02  0.82592451517E+03  0.83219238502E+03  0.00000000000E+00 0.  1.
<mgrwt>
<rscale>  2 0.10194538E+03</rscale>
<asrwt>0</asrwt>
<pdfrwt beam="2">  1       21 0.10694904E-02 0.10194538E+03</pdfrwt>
<pdfrwt beam="1">  1        1 0.23224917E+00 0.10194538E+03</pdfrwt>
<totfact> 0.26674875E+05</totfact>
</mgrwt>
</event>
<event>
 4    1  0.5142205E+003  0.1206983E+03  0.7546771E-02  0.1241949E+00
         21   -1    0    0  503  502  0.00000000000E+00  0.00000000000E+00  0.13420032613E+02  0.13420032613E+02  0.00000000000E+00 0.  1.
          2   -1    0    0  502    0 -0.00000000000E+00 -0.00000000000E+00 -0.23733861847E+04  0.23733861847E+04  0.00000000000E+00 0.  1.
         21    1    1    2  503  501 -0.11375628124E+03  0.40343429504E+02 -0.30089238582E+03  0.32419795136E+03  0.00000000000E+00 0.  1.
          2    1    1    2  501    0  0.11375628124E+03 -0.40343429504E+02 -0.20590737662E+04  0.20626082659E+04  0.00000000000E+00 0.  1.
<mgrwt>
<rscale>  2 0.12069832E+03</rscale>
<asrwt>0</asrwt>
<pdfrwt beam="1">  1       21 0.20646198E-02 0.12069832E+03</pdfrwt>
<pdfrwt beam="2">  1        2 0.36513644E+00 0.12069832E+03</pdfrwt>
<totfact> 0.72935606E+04</totfact>
</mgrwt>
</event>
<event>
 4    1  0.5142205E+003  0.1060481E+03  0.7546771E-02  0.1268068E+00
         -3   -1    0    0    0  501 -0.00000000000E+00  0.00000000000E+00  0.22602879307E+02  0.22602879307E+02  0.00000000000E+00 0. -1.
         21   -1    0    0  501  502  0.00000000000E+00 -0.00000000000E+00 -0.62582889192E+03  0.62582889192E+03  0.00000000000E+00 0. -1.
         21    1    1    2  503  502  0.36061460876E+02 -0.99728534517E+02 -0.44839510041E+03  0.46076498958E+03  0.00000000000E+00 0. -1.
         -3    1    1    2    0  503 -0.36061460876E+02  0.99728534517E+02 -0.15483091220E+03  0.18766678164E+03  0.00000000000E+00 0. -1.
<mgrwt>
<rscale>  2 0.10604815E+03</rscale>
<asrwt>0</asrwt>
<pdfrwt beam="2">  1       21 0.96281378E-01 0.10604815E+03</pdfrwt>
<pdfrwt beam="1">  1       -3 0.34773657E-02 0.10604815E+03</pdfrwt>
<totfact> 0.17378008E+04</totfact>
</mgrwt>
</event>
<event>
 4    1  0.5142205E+003  0.1124148E+03  0.7546771E-02  0.1256162E+00
         21   -1    0    0  501  502  0.00000000000E+00  0.00000000000E+00  0.90937485469E+03  0.90937485469E+03  0.00000000000E+00 0.  1.
          2   -1    0    0  503    0 -0.00000000000E+00 -0.00000000000E+00 -0.54504856727E+02  0.54504856727E+02  0.00000000000E+00 0.  1.
         21    1    1    2  503  502  0.10853267140E+03 -0.29287275081E+02  0.84342529458E+03  0.85088384212E+03  0.00000000000E+00 0.  1.
          2    1    1    2  501    0 -0.10853267140E+03  0.29287275081E+02  0.11444703383E+02  0.11299586930E+03  0.00000000000E+00 0.  1.
<mgrwt>
<rscale>  2 0.11241479E+03</rscale>
<asrwt>0</asrwt>
<pdfrwt beam="1">  1       21 0.13990381E+00 0.11241479E+03</pdfrwt>
<pdfrwt beam="2">  1        2 0.83853633E-02 0.11241479E+03</pdfrwt>
<totfact> 0.35876791E+03</totfact>
</mgrwt>
</event>
<event>
 4    1  0.5142205E+003  0.1159452E+03  0.7546771E-02  0.1249940E+00
         21   -1    0    0  503  502  0.00000000000E+00  0.00000000000E+00  0.19599291352E+02  0.19599291352E+02  0.00000000000E+00 0.  1.
         -4   -1    0    0    0  501 -0.00000000000E+00 -0.00000000000E+00 -0.75018737976E+03  0.75018737976E+03  0.00000000000E+00 0.  1.
         21    1    1    2  503  501  0.98446184230E+02 -0.61250703933E+02 -0.47796013263E+03  0.49182231375E+03  0.00000000000E+00 0.  1.
         -4    1    1    2    0  502 -0.98446184230E+02  0.61250703933E+02 -0.25262795578E+03  0.27796435736E+03  0.00000000000E+00 0.  1.
<mgrwt>
<rscale>  2 0.11594525E+03</rscale>
<asrwt>0</asrwt>
<pdfrwt beam="1">  1       21 0.30152756E-02 0.11594525E+03</pdfrwt>
<pdfrwt beam="2">  1       -4 0.11541344E+00 0.11594525E+03</pdfrwt>
<totfact> 0.15317652E+04</totfact>
</mgrwt>
</event>
<event>
 4    1  0.5142205E+003  0.1002527E+03  0.7546771E-02  0.1279765E+00
         21   -1    0    0  501  502  0.00000000000E+00  0.00000000000E+00  0.69833835721E+02  0.69833835721E+02  0.00000000000E+00 0. -1.
          2   -1    0    0  503    0 -0.00000000000E+00 -0.00000000000E+00 -0.20536041282E+03  0.20536041282E+03  0.00000000000E+00 0. -1.
         21    1    1    2  503  502 -0.96367928722E+02  0.27637331870E+02  0.74981088625E+01  0.10053268839E+03  0.00000000000E+00 0. -1.
          2    1    1    2  501    0  0.96367928722E+02 -0.27637331870E+02 -0.14302468596E+03  0.17466156015E+03  0.00000000000E+00 0. -1.
<mgrwt>
<rscale>  2 0.10025268E+03</rscale>
<asrwt>0</asrwt>
<pdfrwt beam="1">  1       21 0.10743667E-01 0.10025268E+03</pdfrwt>
<pdfrwt beam="2">  1        2 0.31593909E-01 0.10025268E+03</pdfrwt>
<totfact> 0.14208610E+05</totfact>
</mgrwt>
</event>
<event>
 4    1  0.5142205E+003  0.1178773E+03  0.7546771E-02  0.1246640E+00
          2   -1    0    0  503    0 -0.00000000000E+00  0.00000000000E+00  0.45822894566E+03  0.45822894566E+03  0.00000000000E+00 0. -1.
         21   -1    0    0  501  502  0.00000000000E+00 -0.00000000000E+00 -0.81663719014E+02  0.81663719014E+02  0.00000000000E+00 0. -1.
         21    1    1    2  503  502 -0.11025644045E+03 -0.41696201950E+02 -0.25756020249E+02  0.12065831300E+03  0.00000000000E+00 0. -1.
          2    1    1    2  501    0  0.11025644045E+03  0.41696201950E+02  0.40232124690E+03  0.41923435167E+03  0.00000000000E+00 0. -1.
<mgrwt>
<rscale>  2 0.11787729E+03</rscale>
<asrwt>0</asrwt>
<pdfrwt beam="2">  1       21 0.12563649E-01 0.11787729E+03</pdfrwt>
<pdfrwt beam="1">  1        2 0.70496760E-01 0.11787729E+03</pdfrwt>
<totfact> 0.46350399E+04</totfact>
</mgrwt>
</event>
<event>
 4    1  0.5142205E+003  0.2138467E+03  0.7546771E-02  0.1138556E+00
         21   -1    0    0  501  502  0.00000000000E+00  0.00000000000E+00  0.56611735234E+02  0.56611735234E+02  0.00000000000E+00 0. -1.
          1   -1    0    0  503    0 -0.00000000000E+00 -0.00000000000E+00 -0.22326458448E+04  0.22326458448E+04  0.00000000000E+00 0.  1.
         21    1    1    2  503  502 -0.28061378386E+02 -0.21199754951E+03 -0.17360869528E+03  0.27544578602E+03  0.00000000000E+00 0. -1.
          1    1    1    2  501    0  0.28061378386E+02  0.21199754951E+03 -0.20024254143E+04  0.20138117940E+04  0.00000000000E+00 0.  1.
<mgrwt>
<rscale>  2 0.21384668E+03</rscale>
<asrwt>0</asrwt>
<pdfrwt beam="1">  1       21 0.87094967E-02 0.21384668E+03</pdfrwt>
<pdfrwt beam="2">  1        1 0.34348402E+00 0.21384668E+03</pdfrwt>
<totfact> 0.27968573E+03</totfact>
</mgrwt>
</event>
<event>
 4    1  0.5142205E+003  0.1045103E+03  0.7546771E-02  0.1271088E+00
          2   -1    0    0  502    0 -0.00000000000E+00  0.00000000000E+00  0.16735903325E+04  0.16735903325E+04  0.00000000000E+00 0. -1.
         21   -1    0    0  503  502  0.00000000000E+00 -0.00000000000E+00 -0.35117011462E+02  0.35117011462E+02  0.00000000000E+00 0.  1.
         21    1    1    2  503  501  0.48483451294E+02 -0.92583749665E+02  0.48348809952E+02  0.11515208715E+03  0.00000000000E+00 0.  1.
          2    1    1    2  501    0 -0.48483451294E+02  0.92583749665E+02  0.15901245111E+04  0.15935552568E+04  0.00000000000E+00 0. -1.
<mgrwt>
<rscale>  2 0.10451027E+03</rscale>
<asrwt>0</asrwt>
<pdfrwt beam="2">  1       21 0.54026184E-02 0.10451027E+03</pdfrwt>
<pdfrwt beam="1">  1        2 0.25747537E+00 0.10451027E+03</pdfrwt>
<totfact> 0.34321503E+04</totfact>
</mgrwt>
</event>
<event>
 4    1  0.5142205E+003  0.1057815E+03  0.7546771E-02  0.1268587E+00
          2   -1    0    0  503    0 -0.00000000000E+00  0.00000000000E+00  0.10200841080E+04  0.10200841080E+04  0.00000000000E+00 0.  1.
         21   -1    0    0  501  502  0.00000000000E+00 -0.00000000000E+00 -0.13187516245E+02  0.13187516245E+02  0.00000000000E+00 0.  1.
         21    1    1    2  503  502  0.77818149048E+02 -0.71652391707E+02  0.29156665058E+03  0.31016260459E+03  0.00000000000E+00 0.  1.
          2    1    1    2  501    0 -0.77818149048E+02  0.71652391707E+02  0.71532994122E+03  0.72310901970E+03  0.00000000000E+00 0.  1.
<mgrwt>
<rscale>  2 0.10578152E+03</rscale>
<asrwt>0</asrwt>
<pdfrwt beam="2">  1       21 0.20288495E-02 0.10578152E+03</pdfrwt>
<pdfrwt beam="1">  1        2 0.15693595E+00 0.10578152E+03</pdfrwt>
<totfact> 0.38171250E+05</totfact>
</mgrwt>
</event>
<event>
 4    1  0.5142205E+003  0.1158938E+03  0.7546771E-02  0.1250029E+00
         21   -1    0    0  501  502  0.00000000000E+00  0.00000000000E+00  0.24525538252E+02  0.24525538252E+02  0.00000000000E+00 0.  1.
          2   -1    0    0  503    0 -0.00000000000E+00 -0.00000000000E+00 -0.68822844804E+03  0.68822844804E+03  0.00000000000E+00 0.  1.
         21    1    1    2  503  502  0.75014960106E+02  0.88340991000E+02 -0.17078503906E+03  0.20639502052E+03  0.00000000000E+00 0.  1.
          2    1    1    2  501    0 -0.75014960106E+02 -0.88340991000E+02 -0.49291787073E+03  0.50635896577E+03  0.00000000000E+00 0.  1.
<mgrwt>
<rscale>  2 0.11589381E+03</rscale>
<asrwt>0</asrwt>
<pdfrwt beam="1">  1       21 0.37731596E-02 0.11589381E+03</pdfrwt>
<pdfrwt beam="2">  1        2 0.10588130E+00 0.11589381E+03</pdfrwt>
<totfact> 0.22922137E+05</totfact>
</mgrwt>
</event>
<event>
 4    1  0.5142205E+003  0.1030973E+03  0.7546771E-02  0.1273914E+00
          2   -1    0    0  503    0 -0.00000000000E+00  0.00000000000E+00  0.10312479346E+04  0.10312479346E+04  0.00000000000E+00 0.  1.
         21   -1    0    0  501  502  0.00000000000E+00 -0.00000000000E+00 -0.15721504794E+02  0.15721504794E+02  0.00000000000E+00 0.  1.
         21    1    1    2  503  502  0.80795799241E+02  0.64039798377E+02  0.20055209777E+03  0.22549989106E+03  0.00000000000E+00 0.  1.
          2    1    1    2  501    0 -0.80795799241E+02 -0.64039798377E+02  0.81497433207E+03  0.82146954836E+03  0.00000000000E+00 0.  1.
<mgrwt>
<rscale>  2 0.10309732E+03</rscale>
<asrwt>0</asrwt>
<pdfrwt beam="2">  1       21 0.24186939E-02 0.10309732E+03</pdfrwt>
<pdfrwt beam="1">  1        2 0.15865348E+00 0.10309732E+03</pdfrwt>
<totfact> 0.28293070E+05</totfact>
</mgrwt>
</event>
<event>
 4    1  0.5142205E+003  0.1258865E+03  0.7546771E-02  0.1233690E+00
         21   -1    0    0  503  502  0.00000000000E+00  0.00000000000E+00  0.88781534513E+02  0.88781534513E+02  0.00000000000E+00 0. -1.
          4   -1    0    0  502    0 -0.00000000000E+00 -0.00000000000E+00 -0.34719382126E+03  0.34719382126E+03  0.00000000000E+00 0.  1.
         21    1    1    2  503  501 -0.95444842285E+02  0.82083383697E+02  0.22742577580E+02  0.12792429258E+03  0.00000000000E+00 0. -1.
          4    1    1    2  501    0  0.95444842285E+02 -0.82083383697E+02 -0.28115486433E+03  0.30805106319E+03  0.00000000000E+00 0.  1.
<mgrwt>
<rscale>  2 0.12588646E+03</rscale>
<asrwt>0</asrwt>
<pdfrwt beam="1">  1       21 0.13658698E-01 0.12588646E+03</pdfrwt>
<pdfrwt beam="2">  1        4 0.53414433E-01 0.12588646E+03</pdfrwt>
<totfact> 0.64278977E+03</totfact>
</mgrwt>
</event>
<event>
 4    1  0.5142205E+003  0.2687007E+03  0.7546771E-02  0.1102026E+00
          2   -1    0    0  502    0 -0.00000000000E+00  0.00000000000E+00  0.96552935592E+03  0.96552935592E+03  0.00000000000E+00 0. -1.
         21   -1    0    0  503  502  0.00000000000E+00 -0.00000000000E+00 -0.78326936996E+02  0.78326936996E+02  0.00000000000E+00 0. -1.
         21    1    1    2  503  501  0.19083716051E+02  0.26802217052E+03  0.33249913577E+03  0.42749941216E+03  0.00000000000E+00 0. -1.
          2    1    1    2  501    0 -0.19083716051E+02 -0.26802217052E+03  0.55470328315E+03  0.61635688075E+03  0.00000000000E+00 0. -1.
<mgrwt>
<rscale>  2 0.26870071E+03</rscale>
<asrwt>0</asrwt>
<pdfrwt beam="2">  1       21 0.12050299E-01 0.26870071E+03</pdfrwt>
<pdfrwt beam="1">  1        2 0.14854297E+00 0.26870071E+03</pdfrwt>
<totfact> 0.20105971E+04</totfact>
</mgrwt>
</event>
<event>
 4    1  0.5142205E+003  0.1053910E+03  0.7546771E-02  0.1269351E+00
          2   -1    0    0  503    0 -0.00000000000E+00  0.00000000000E+00  0.12482805911E+04  0.12482805911E+04  0.00000000000E+00 0.  1.
         21   -1    0    0  501  502  0.00000000000E+00 -0.00000000000E+00 -0.10478878477E+03  0.10478878477E+03  0.00000000000E+00 0. -1.
         21    1    1    2  503  502 -0.50664081188E+01  0.10526914204E+03 -0.75427997437E+02  0.12960186555E+03  0.00000000000E+00 0. -1.
          2    1    1    2  501    0  0.50664081188E+01 -0.10526914204E+03  0.12189198037E+04  0.12234675103E+04  0.00000000000E+00 0.  1.
<mgrwt>
<rscale>  2 0.10539099E+03</rscale>
<asrwt>0</asrwt>
<pdfrwt beam="2">  1       21 0.16121352E-01 0.10539099E+03</pdfrwt>
<pdfrwt beam="1">  1        2 0.19204316E+00 0.10539099E+03</pdfrwt>
<totfact> 0.85625375E+03</totfact>
</mgrwt>
</event>
<event>
 4    1  0.5142205E+003  0.1013237E+03  0.7546771E-02  0.1277537E+00
         21   -1    0    0  501  502  0.00000000000E+00  0.00000000000E+00  0.69531556171E+02  0.69531556171E+02  0.00000000000E+00 0.  1.
          1   -1    0    0  503    0 -0.00000000000E+00 -0.00000000000E+00 -0.54530644169E+03  0.54530644169E+03  0.00000000000E+00 0. -1.
         21    1    1    2  503  502 -0.85758186625E+02  0.53963151022E+02  0.24633038523E+02  0.10427499618E+03  0.00000000000E+00 0.  1.
          1    1    1    2  501    0  0.85758186625E+02 -0.53963151022E+02 -0.50040792405E+03  0.51056300169E+03  0.00000000000E+00 0. -1.
<mgrwt>
<rscale>  2 0.10132368E+03</rscale>
<asrwt>0</asrwt>
<pdfrwt beam="1">  1       21 0.10697163E-01 0.10132368E+03</pdfrwt>
<pdfrwt beam="2">  1        1 0.83893297E-01 0.10132368E+03</pdfrwt>
<totfact> 0.32128568E+04</totfact>
</mgrwt>
</event>
<event>
 4    1  0.5142205E+003  0.1007605E+03  0.7546771E-02  0.1278705E+00
         21   -1    0    0  501  502  0.00000000000E+00  0.00000000000E+00  0.12037399701E+03  0.12037399701E+03  0.00000000000E+00 0. -1.
          3   -1    0    0  503    0 -0.00000000000E+00 -0.00000000000E+00 -0.16851782596E+03  0.16851782596E+03  0.00000000000E+00 0. -1.
         21    1    1    2  503  502  0.10353994297E+02 -0.10022711283E+03  0.78015915532E+02  0.12743297226E+03  0.00000000000E+00 0. -1.
          3    1    1    2  501    0 -0.10353994297E+02  0.10022711283E+03 -0.12615974448E+03  0.16145885070E+03  0.00000000000E+00 0. -1.
<mgrwt>
<rscale>  2 0.10076050E+03</rscale>
<asrwt>0</asrwt>
<pdfrwt beam="1">  1       21 0.18519076E-01 0.10076050E+03</pdfrwt>
<pdfrwt beam="2">  1        3 0.25925819E-01 0.10076050E+03</pdfrwt>
<totfact> 0.17675714E+04</totfact>
</mgrwt>
</event>
<event>
 4    1  0.5142205E+003  0.1306571E+03  0.7546771E-02  0.1226484E+00
         21   -1    0    0  501  502  0.00000000000E+00  0.00000000000E+00  0.26797019494E+02  0.26797019494E+02  0.00000000000E+00 0. -1.
          1   -1    0    0  503    0 -0.00000000000E+00 -0.00000000000E+00 -0.89550406600E+03  0.89550406600E+03  0.00000000000E+00 0. -1.
         21    1    1    2  503  502  0.12839068009E+03  0.24230489696E+02 -0.18661528958E+03  0.22780814224E+03  0.00000000000E+00 0. -1.
          1    1    1    2  501    0 -0.12839068009E+03 -0.24230489696E+02 -0.68209175692E+03  0.69449294325E+03  0.00000000000E+00 0. -1.
<mgrwt>
<rscale>  2 0.13065712E+03</rscale>
<asrwt>0</asrwt>
<pdfrwt beam="1">  1       21 0.41226179E-02 0.13065712E+03</pdfrwt>
<pdfrwt beam="2">  1        1 0.13776987E+00 0.13065712E+03</pdfrwt>
<totfact> 0.80282998E+04</totfact>
</mgrwt>
</event>
<event>
 4    1  0.5142205E+003  0.1071128E+03  0.7546771E-02  0.1266012E+00
         21   -1    0    0  503  502  0.00000000000E+00  0.00000000000E+00  0.96547246167E+01  0.96547246167E+01  0.00000000000E+00 0.  1.
          2   -1    0    0  502    0 -0.00000000000E+00 -0.00000000000E+00 -0.27435508163E+04  0.27435508163E+04  0.00000000000E+00 0.  1.
         21    1    1    2  503  501  0.30519372976E+02  0.10267284715E+03 -0.33050356620E+03  0.34742733476E+03  0.00000000000E+00 0.  1.
          2    1    1    2  501    0 -0.30519372976E+02 -0.10267284715E+03 -0.24033925255E+04  0.24057782062E+04  0.00000000000E+00 0.  1.
<mgrwt>
<rscale>  2 0.10711277E+03</rscale>
<asrwt>0</asrwt>
<pdfrwt beam="1">  1       21 0.14853407E-02 0.10711277E+03</pdfrwt>
<pdfrwt beam="2">  1        2 0.42208519E+00 0.10711277E+03</pdfrwt>
<totfact> 0.78650676E+04</totfact>
</mgrwt>
</event>
<event>
 4    1  0.5142205E+003  0.1008077E+03  0.7546771E-02  0.1278607E+00
         21   -1    0    0  501  502  0.00000000000E+00  0.00000000000E+00  0.56902569587E+02  0.56902569587E+02  0.00000000000E+00 0. -1.
          2   -1    0    0  503    0 -0.00000000000E+00 -0.00000000000E+00 -0.43531847839E+03  0.43531847839E+03  0.00000000000E+00 0.  1.
         21    1    1    2  503  502 -0.10077816475E+03  0.24389740399E+01 -0.20687099783E+00  0.10080788601E+03  0.00000000000E+00 0. -1.
          2    1    1    2  501    0  0.10077816475E+03 -0.24389740399E+01 -0.37820903780E+03  0.39141316197E+03  0.00000000000E+00 0.  1.
<mgrwt>
<rscale>  2 0.10080767E+03</rscale>
<asrwt>0</asrwt>
<pdfrwt beam="1">  1       21 0.87542414E-02 0.10080767E+03</pdfrwt>
<pdfrwt beam="2">  1        2 0.66972074E-01 0.10080767E+03</pdfrwt>
<totfact> 0.91779046E+04</totfact>
</mgrwt>
</event>
<event>
 4    1  0.5142205E+003  0.1152149E+03  0.7546771E-02  0.1251207E+00
         21   -1    0    0  503  502  0.00000000000E+00  0.00000000000E+00  0.80783056171E+03  0.80783056171E+03  0.00000000000E+00 0. -1.
          2   -1    0    0  502    0 -0.00000000000E+00 -0.00000000000E+00 -0.64847223001E+03  0.64847223001E+03  0.00000000000E+00 0.  1.
         21    1    1    2  503  501 -0.10485139938E+03  0.47756135256E+02  0.79854571364E+03  0.80681455192E+03  0.00000000000E+00 0. -1.
          2    1    1    2  501    0  0.10485139938E+03 -0.47756135256E+02 -0.63918738194E+03  0.64948823980E+03  0.00000000000E+00 0.  1.
<mgrwt>
<rscale>  2 0.11521486E+03</rscale>
<asrwt>0</asrwt>
<pdfrwt beam="1">  1       21 0.12428163E+00 0.11521486E+03</pdfrwt>
<pdfrwt beam="2">  1        2 0.99764958E-01 0.11521486E+03</pdfrwt>
<totfact> 0.30169018E+02</totfact>
</mgrwt>
</event>
<event>
 4    1  0.5142205E+003  0.1015749E+03  0.7546771E-02  0.1277019E+00
          1   -1    0    0  503    0 -0.00000000000E+00  0.00000000000E+00  0.82070589300E+03  0.82070589300E+03  0.00000000000E+00 0. -1.
         21   -1    0    0  501  502  0.00000000000E+00 -0.00000000000E+00 -0.25662368177E+02  0.25662368177E+02  0.00000000000E+00 0.  1.
         21    1    1    2  503  502  0.66404489910E+02 -0.76862842382E+02  0.95271790288E+02  0.13926294139E+03  0.00000000000E+00 0.  1.
          1    1    1    2  501    0 -0.66404489910E+02  0.76862842382E+02  0.69977173454E+03  0.70710531979E+03  0.00000000000E+00 0. -1.
<mgrwt>
<rscale>  2 0.10157486E+03</rscale>
<asrwt>0</asrwt>
<pdfrwt beam="2">  1       21 0.39480573E-02 0.10157486E+03</pdfrwt>
<pdfrwt beam="1">  1        1 0.12626243E+00 0.10157486E+03</pdfrwt>
<totfact> 0.98266540E+04</totfact>
</mgrwt>
</event>
<event>
 4    1  0.5142205E+003  0.1500100E+03  0.7546771E-02  0.1200461E+00
         -2   -1    0    0    0  501 -0.00000000000E+00  0.00000000000E+00  0.77593825541E+03  0.77593825541E+03  0.00000000000E+00 0.  1.
         21   -1    0    0  503  502  0.00000000000E+00 -0.00000000000E+00 -0.55870621463E+02  0.55870621463E+02  0.00000000000E+00 0. -1.
         21    1    1    2  503  501  0.88270113015E+02 -0.12129046490E+03  0.71609061943E+02  0.16622529134E+03  0.00000000000E+00 0. -1.
         -2    1    1    2    0  502 -0.88270113015E+02  0.12129046490E+03  0.64845857200E+03  0.66558358553E+03  0.00000000000E+00 0.  1.
<mgrwt>
<rscale>  2 0.15000997E+03</rscale>
<asrwt>0</asrwt>
<pdfrwt beam="2">  1       21 0.85954808E-02 0.15000997E+03</pdfrwt>
<pdfrwt beam="1">  1       -2 0.11937511E+00 0.15000997E+03</pdfrwt>
<totfact> 0.49186698E+03</totfact>
</mgrwt>
</event>
<event>
 4    1  0.5142205E+003  0.1324200E+03  0.7546771E-02  0.1223908E+00
          2   -1    0    0  502    0 -0.00000000000E+00  0.00000000000E+00  0.18461274894E+04  0.18461274894E+04  0.00000000000E+00 0.  1.
         21   -1    0    0  503  502  0.00000000000E+00 -0.00000000000E+00 -0.34517475247E+02  0.34517475247E+02  0.00000000000E+00 0. -1.
         21    1    1    2  503  501 -0.12429663950E+03 -0.45666298590E+02  0.10524509741E+03  0.16914962591E+03  0.00000000000E+00 0. -1.
          2    1    1    2  501    0  0.12429663950E+03  0.45666298590E+02  0.17063649168E+04  0.17114953388E+04  0.00000000000E+00 0.  1.
<mgrwt>
<rscale>  2 0.13242003E+03</rscale>
<asrwt>0</asrwt>
<pdfrwt beam="2">  1       21 0.53103822E-02 0.13242003E+03</pdfrwt>
<pdfrwt beam="1">  1        2 0.28401954E+00 0.13242003E+03</pdfrwt>
<totfact> 0.28626637E+04</totfact>
</mgrwt>
</event>
<event>
 4    1  0.5142205E+003  0.1129235E+03  0.7546771E-02  0.1255250E+00
          1   -1    0    0  502    0 -0.00000000000E+00  0.00000000000E+00  0.13915229841E+04  0.13915229841E+04  0.00000000000E+00 0.  1.
         21   -1    0    0  503  502  0.00000000000E+00 -0.00000000000E+00 -0.12898441502E+02  0.12898441502E+02  0.00000000000E+00 0. -1.
         21    1    1    2  503  501 -0.41675832173E+02  0.10495159275E+03  0.31146158061E+03  0.33130051012E+03  0.00000000000E+00 0. -1.
          1    1    1    2  501    0  0.41675832173E+02 -0.10495159275E+03  0.10671629620E+04  0.10731209155E+04  0.00000000000E+00 0.  1.
<mgrwt>
<rscale>  2 0.11292348E+03</rscale>
<asrwt>0</asrwt>
<pdfrwt beam="2">  1       21 0.19843767E-02 0.11292348E+03</pdfrwt>
<pdfrwt beam="1">  1        1 0.21408034E+00 0.11292348E+03</pdfrwt>
<totfact> 0.11935840E+05</totfact>
</mgrwt>
</event>
<event>
 4    1  0.5142205E+003  0.1696493E+03  0.7546771E-02  0.1178214E+00
         -2   -1    0    0    0  501 -0.00000000000E+00  0.00000000000E+00  0.13831226743E+04  0.13831226743E+04  0.00000000000E+00 0.  1.
         21   -1    0    0  503  502  0.00000000000E+00 -0.00000000000E+00 -0.21076803487E+02  0.21076803487E+02  0.00000000000E+00 0. -1.
         21    1    1    2  503  501 -0.14348880668E+02 -0.16904138764E+03  0.76021987062E+03  0.77891920813E+03  0.00000000000E+00 0. -1.
         -2    1    1    2    0  502  0.14348880668E+02  0.16904138764E+03  0.60182600021E+03  0.62528026967E+03  0.00000000000E+00 0.  1.
<mgrwt>
<rscale>  2 0.16964929E+03</rscale>
<asrwt>0</asrwt>
<pdfrwt beam="2">  1       21 0.32425862E-02 0.16964929E+03</pdfrwt>
<pdfrwt beam="1">  1       -2 0.21278803E+00 0.16964929E+03</pdfrwt>
<totfact> 0.55674906E+03</totfact>
</mgrwt>
</event>
<event>
 4    1  0.5142205E+003  0.1369868E+03  0.7546771E-02  0.1217442E+00
         21   -1    0    0  501  502  0.00000000000E+00  0.00000000000E+00  0.16386454207E+02  0.16386454207E+02  0.00000000000E+00 0.  1.
          1   -1    0    0  503    0 -0.00000000000E+00 -0.00000000000E+00 -0.13113159195E+04  0.13113159195E+04  0.00000000000E+00 0. -1.
         21    1    1    2  503  502 -0.13656869922E+03  0.10694187883E+02 -0.41117003682E+03  0.43338917204E+03  0.00000000000E+00 0.  1.
          1    1    1    2  501    0  0.13656869922E+03 -0.10694187883E+02 -0.88375942844E+03  0.89431320164E+03  0.00000000000E+00 0. -1.
<mgrwt>
<rscale>  2 0.13698677E+03</rscale>
<asrwt>0</asrwt>
<pdfrwt beam="1">  1       21 0.25209925E-02 0.13698677E+03</pdfrwt>
<pdfrwt beam="2">  1        1 0.20174094E+00 0.13698677E+03</pdfrwt>
<totfact> 0.91622312E+04</totfact>
</mgrwt>
</event>
<event>
 4    1  0.5142205E+003  0.1468520E+03  0.7546771E-02  0.1204395E+00
         21   -1    0    0  501  502  0.00000000000E+00  0.00000000000E+00  0.17947877277E+04  0.17947877277E+04  0.00000000000E+00 0.  1.
          2   -1    0    0  503    0 -0.00000000000E+00 -0.00000000000E+00 -0.13494665405E+03  0.13494665405E+03  0.00000000000E+00 0. -1.
         21    1    1    2  503  502 -0.49428791684E+02 -0.13828346492E+03  0.17508305851E+04  0.17569784460E+04  0.00000000000E+00 0.  1.
          2    1    1    2  501    0  0.49428791684E+02  0.13828346492E+03 -0.90989511470E+02  0.17275593569E+03  0.00000000000E+00 0. -1.
<mgrwt>
<rscale>  2 0.14685204E+03</rscale>
<asrwt>0</asrwt>
<pdfrwt beam="1">  1       21 0.27612117E+00 0.14685204E+03</pdfrwt>
<pdfrwt beam="2">  1        2 0.20761025E-01 0.14685204E+03</pdfrwt>
<totfact> 0.16112675E+02</totfact>
</mgrwt>
</event>
<event>
 4    1  0.5142205E+003  0.1080617E+03  0.7546771E-02  0.1264202E+00
         21   -1    0    0  503  502  0.00000000000E+00  0.00000000000E+00  0.12116165387E+02  0.12116165387E+02  0.00000000000E+00 0. -1.
          2   -1    0    0  502    0 -0.00000000000E+00 -0.00000000000E+00 -0.11779567091E+04  0.11779567091E+04  0.00000000000E+00 0.  1.
         21    1    1    2  503  501  0.57810670823E+02 -0.91297656472E+02 -0.32919511971E+03  0.34647765091E+03  0.00000000000E+00 0. -1.
          2    1    1    2  501    0 -0.57810670823E+02  0.91297656472E+02 -0.83664542400E+03  0.84359522358E+03  0.00000000000E+00 0.  1.
<mgrwt>
<rscale>  2 0.10806172E+03</rscale>
<asrwt>0</asrwt>
<pdfrwt beam="1">  1       21 0.18640252E-02 0.10806172E+03</pdfrwt>
<pdfrwt beam="2">  1        2 0.18122413E+00 0.10806172E+03</pdfrwt>
<totfact> 0.35621465E+05</totfact>
</mgrwt>
</event>
<event>
 4    1  0.5142205E+003  0.1674028E+03  0.7546771E-02  0.1180584E+00
         21   -1    0    0  503  502  0.00000000000E+00  0.00000000000E+00  0.85716389062E+01  0.85716389062E+01  0.00000000000E+00 0. -1.
          2   -1    0    0  502    0 -0.00000000000E+00 -0.00000000000E+00 -0.35546167582E+04  0.35546167582E+04  0.00000000000E+00 0. -1.
         21    1    1    2  503  501 -0.14002718264E+03 -0.91739169777E+02 -0.12683170724E+04  0.12793169597E+04  0.00000000000E+00 0. -1.
          2    1    1    2  501    0  0.14002718264E+03  0.91739169777E+02 -0.22777280468E+04  0.22838714374E+04  0.00000000000E+00 0. -1.
<mgrwt>
<rscale>  2 0.16740277E+03</rscale>
<asrwt>0</asrwt>
<pdfrwt beam="1">  1       21 0.13187167E-02 0.16740277E+03</pdfrwt>
<pdfrwt beam="2">  1        2 0.54686286E+00 0.16740277E+03</pdfrwt>
<totfact> 0.30297091E+04</totfact>
</mgrwt>
</event>
<event>
 4    1  0.5142205E+003  0.1385695E+03  0.7546771E-02  0.1215267E+00
          1   -1    0    0  503    0 -0.00000000000E+00  0.00000000000E+00  0.16508236703E+04  0.16508236703E+04  0.00000000000E+00 0.  1.
         21   -1    0    0  501  502  0.00000000000E+00 -0.00000000000E+00 -0.19265688678E+02  0.19265688678E+02  0.00000000000E+00 0.  1.
         21    1    1    2  503  502  0.12231182323E+03 -0.65125424064E+02  0.29012520759E+03  0.32151848943E+03  0.00000000000E+00 0.  1.
          1    1    1    2  501    0 -0.12231182323E+03  0.65125424064E+02  0.13414327740E+04  0.13485708695E+04  0.00000000000E+00 0.  1.
<mgrwt>
<rscale>  2 0.13856949E+03</rscale>
<asrwt>0</asrwt>
<pdfrwt beam="2">  1       21 0.29639534E-02 0.13856949E+03</pdfrwt>
<pdfrwt beam="1">  1        1 0.25397276E+00 0.13856949E+03</pdfrwt>
<totfact> 0.42251696E+04</totfact>
</mgrwt>
</event>
<event>
 4    1  0.5142205E+003  0.1327436E+03  0.7546771E-02  0.1223441E+00
          1   -1    0    0  503    0 -0.00000000000E+00  0.00000000000E+00  0.33028050634E+03  0.33028050634E+03  0.00000000000E+00 0. -1.
         21   -1    0    0  501  502  0.00000000000E+00 -0.00000000000E+00 -0.86915435511E+02  0.86915435511E+02  0.00000000000E+00 0.  1.
         21    1    1    2  503  502 -0.12182272532E+03 -0.52726553823E+02 -0.79457914117E+01  0.13298120725E+03  0.00000000000E+00 0.  1.
          1    1    1    2  501    0  0.12182272532E+03  0.52726553823E+02  0.25131086224E+03  0.28421473459E+03  0.00000000000E+00 0. -1.
<mgrwt>
<rscale>  2 0.13274361E+03</rscale>
<asrwt>0</asrwt>
<pdfrwt beam="2">  1       21 0.13371606E-01 0.13274361E+03</pdfrwt>
<pdfrwt beam="1">  1        1 0.50812385E-01 0.13274361E+03</pdfrwt>
<totfact> 0.40979306E+04</totfact>
</mgrwt>
</event>
<event>
 4    1  0.5142205E+003  0.1145834E+03  0.7546771E-02  0.1252310E+00
          2   -1    0    0  502    0 -0.00000000000E+00  0.00000000000E+00  0.11742823514E+04  0.11742823514E+04  0.00000000000E+00 0.  1.
         21   -1    0    0  503  502  0.00000000000E+00 -0.00000000000E+00 -0.11567328903E+02  0.11567328903E+02  0.00000000000E+00 0.  1.
         21    1    1    2  503  501 -0.11452268793E+03  0.37293571465E+01  0.47296388884E+03  0.48664586128E+03  0.00000000000E+00 0.  1.
          2    1    1    2  501    0  0.11452268793E+03 -0.37293571465E+01  0.68975113363E+03  0.69920381900E+03  0.00000000000E+00 0.  1.
<mgrwt>
<rscale>  2 0.11458339E+03</rscale>
<asrwt>0</asrwt>
<pdfrwt beam="2">  1       21 0.17795900E-02 0.11458339E+03</pdfrwt>
<pdfrwt beam="1">  1        2 0.18065873E+00 0.11458339E+03</pdfrwt>
<totfact> 0.38640163E+05</totfact>
</mgrwt>
</event>
<event>
 4    1  0.5142205E+003  0.1199479E+03  0.7546771E-02  0.1243183E+00
         21   -1    0    0  503  502  0.00000000000E+00  0.00000000000E+00  0.51328549122E+03  0.51328549122E+03  0.00000000000E+00 0.  1.
         -4   -1    0    0    0  501 -0.00000000000E+00 -0.00000000000E+00 -0.68669422283E+02  0.68669422283E+02  0.00000000000E+00 0. -1.
         21    1    1    2  503  501  0.11074083076E+03  0.46086504807E+02  0.44615453765E+03  0.46199715258E+03  0.00000000000E+00 0.  1.
         -4    1    1    2    0  502 -0.11074083076E+03 -0.46086504807E+02 -0.15384687097E+01  0.11995776093E+03  0.00000000000E+00 0. -1.
<mgrwt>
<rscale>  2 0.11994790E+03</rscale>
<asrwt>0</asrwt>
<pdfrwt beam="1">  1       21 0.78966996E-01 0.11994790E+03</pdfrwt>
<pdfrwt beam="2">  1       -4 0.10564527E-01 0.11994790E+03</pdfrwt>
<totfact> 0.40411240E+03</totfact>
</mgrwt>
</event>
<event>
 4    1  0.5142205E+003  0.1637802E+03  0.7546771E-02  0.1184494E+00
         21   -1    0    0  503  502  0.00000000000E+00  0.00000000000E+00  0.39530114528E+02  0.39530114528E+02  0.00000000000E+00 0.  1.
          2   -1    0    0  502    0 -0.00000000000E+00 -0.00000000000E+00 -0.95828201035E+03  0.95828201035E+03  0.00000000000E+00 0.  1.
         21    1    1    2  503  501  0.60772450491E+02  0.15208772889E+03 -0.18983340984E+03  0.25072034523E+03  0.00000000000E+00 0.  1.
          2    1    1    2  501    0 -0.60772450491E+02 -0.15208772889E+03 -0.72891848598E+03  0.74709177965E+03  0.00000000000E+00 0.  1.
<mgrwt>
<rscale>  2 0.16378024E+03</rscale>
<asrwt>0</asrwt>
<pdfrwt beam="1">  1       21 0.60815563E-02 0.16378024E+03</pdfrwt>
<pdfrwt beam="2">  1        2 0.14742800E+00 0.16378024E+03</pdfrwt>
<totfact> 0.68339878E+04</totfact>
</mgrwt>
</event>
<event>
 4    1  0.5142205E+003  0.1209237E+03  0.7546771E-02  0.1241581E+00
         21   -1    0    0  501  502  0.00000000000E+00  0.00000000000E+00  0.19614925208E+03  0.19614925208E+03  0.00000000000E+00 0.  1.
         -2   -1    0    0    0  501 -0.00000000000E+00 -0.00000000000E+00 -0.16449742928E+03  0.16449742928E+03  0.00000000000E+00 0. -1.
         21    1    1    2  503  502 -0.11070829603E+03 -0.48643862361E+02  0.14916926545E+03  0.19202609696E+03  0.00000000000E+00 0.  1.
         -2    1    1    2    0  503  0.11070829603E+03  0.48643862361E+02 -0.11751744266E+03  0.16862058440E+03  0.00000000000E+00 0. -1.
<mgrwt>
<rscale>  2 0.12092375E+03</rscale>
<asrwt>0</asrwt>
<pdfrwt beam="1">  1       21 0.30176808E-01 0.12092375E+03</pdfrwt>
<pdfrwt beam="2">  1       -2 0.25307297E-01 0.12092375E+03</pdfrwt>
<totfact> 0.11740362E+04</totfact>
</mgrwt>
</event>
<event>
 4    1  0.5142205E+003  0.1128952E+03  0.7546771E-02  0.1255300E+00
         21   -1    0    0  501  502  0.00000000000E+00  0.00000000000E+00  0.59798341558E+02  0.59798341558E+02  0.00000000000E+00 0.  1.
          3   -1    0    0  503    0 -0.00000000000E+00 -0.00000000000E+00 -0.22484636612E+03  0.22484636612E+03  0.00000000000E+00 0.  1.
         21    1    1    2  503  502  0.46834534075E+02  0.10272222372E+03 -0.50047524696E+02  0.12349122866E+03  0.00000000000E+00 0.  1.
          3    1    1    2  501    0 -0.46834534075E+02 -0.10272222372E+03 -0.11500049987E+03  0.16115347901E+03  0.00000000000E+00 0.  1.
<mgrwt>
<rscale>  2 0.11289521E+03</rscale>
<asrwt>0</asrwt>
<pdfrwt beam="1">  1       21 0.91997449E-02 0.11289521E+03</pdfrwt>
<pdfrwt beam="2">  1        3 0.34591749E-01 0.11289521E+03</pdfrwt>
<totfact> 0.36395849E+04</totfact>
</mgrwt>
</event>
<event>
 4    1  0.5142205E+003  0.1156454E+03  0.7546771E-02  0.1250459E+00
         21   -1    0    0  501  502  0.00000000000E+00  0.00000000000E+00  0.27446916464E+02  0.27446916464E+02  0.00000000000E+00 0. -1.
          2   -1    0    0  503    0 -0.00000000000E+00 -0.00000000000E+00 -0.27214837795E+04  0.27214837795E+04  0.00000000000E+00 0.  1.
         21    1    1    2  503  502 -0.46316657074E+02  0.10596523232E+03 -0.10166111541E+03  0.15397676958E+03  0.00000000000E+00 0. -1.
          2    1    1    2  501    0  0.46316657074E+02 -0.10596523232E+03 -0.25923757476E+04  0.25949539264E+04  0.00000000000E+00 0.  1.
<mgrwt>
<rscale>  2 0.11564542E+03</rscale>
<asrwt>0</asrwt>
<pdfrwt beam="1">  1       21 0.42226023E-02 0.11564542E+03</pdfrwt>
<pdfrwt beam="2">  1        2 0.41868983E+00 0.11564542E+03</pdfrwt>
<totfact> 0.14773441E+04</totfact>
</mgrwt>
</event>
<event>
 4    1  0.5142205E+003  0.1063783E+03  0.7546771E-02  0.1267428E+00
         21   -1    0    0  501  502  0.00000000000E+00  0.00000000000E+00  0.17978586218E+02  0.17978586218E+02  0.00000000000E+00 0. -1.
          2   -1    0    0  503    0 -0.00000000000E+00 -0.00000000000E+00 -0.99148564177E+03  0.99148564177E+03  0.00000000000E+00 0. -1.
         21    1    1    2  503  502  0.43789068361E+02  0.96947687298E+02 -0.18175139304E+03  0.21059417241E+03  0.00000000000E+00 0. -1.
          2    1    1    2  501    0 -0.43789068361E+02 -0.96947687298E+02 -0.79175566251E+03  0.79887005558E+03  0.00000000000E+00 0. -1.
<mgrwt>
<rscale>  2 0.10637827E+03</rscale>
<asrwt>0</asrwt>
<pdfrwt beam="1">  1       21 0.27659357E-02 0.10637827E+03</pdfrwt>
<pdfrwt beam="2">  1        2 0.15253629E+00 0.10637827E+03</pdfrwt>
<totfact> 0.24049106E+05</totfact>
</mgrwt>
</event>
<event>
 4    1  0.5142205E+003  0.1217256E+03  0.7546771E-02  0.1240277E+00
          4   -1    0    0  503    0 -0.00000000000E+00  0.00000000000E+00  0.28607174658E+02  0.28607174658E+02  0.00000000000E+00 0. -1.
         21   -1    0    0  501  502  0.00000000000E+00 -0.00000000000E+00 -0.53723100207E+03  0.53723100207E+03  0.00000000000E+00 0. -1.
         21    1    1    2  503  502  0.11044675374E+03 -0.51172555455E+02 -0.30790821414E+03  0.33109603467E+03  0.00000000000E+00 0. -1.
          4    1    1    2  501    0 -0.11044675374E+03  0.51172555455E+02 -0.20071561328E+03  0.23474214206E+03  0.00000000000E+00 0. -1.
<mgrwt>
<rscale>  2 0.12172558E+03</rscale>
<asrwt>0</asrwt>
<pdfrwt beam="2">  1       21 0.82650921E-01 0.12172558E+03</pdfrwt>
<pdfrwt beam="1">  1        4 0.44011039E-02 0.12172558E+03</pdfrwt>
<totfact> 0.15311633E+04</totfact>
</mgrwt>
</event>
<event>
 4    1  0.5142205E+003  0.1567503E+03  0.7546771E-02  0.1192415E+00
          1   -1    0    0  502    0 -0.00000000000E+00  0.00000000000E+00  0.60203697076E+03  0.60203697076E+03  0.00000000000E+00 0. -1.
         21   -1    0    0  503  502  0.00000000000E+00 -0.00000000000E+00 -0.77607804054E+02  0.77607804054E+02  0.00000000000E+00 0.  1.
         21    1    1    2  503  501 -0.13659748511E+03  0.76888025268E+02  0.28225598289E+02  0.15927123333E+03  0.00000000000E+00 0.  1.
          1    1    1    2  501    0  0.13659748511E+03 -0.76888025268E+02  0.49620356841E+03  0.52037354148E+03  0.00000000000E+00 0. -1.
<mgrwt>
<rscale>  2 0.15675025E+03</rscale>
<asrwt>0</asrwt>
<pdfrwt beam="2">  1       21 0.11939663E-01 0.15675025E+03</pdfrwt>
<pdfrwt beam="1">  1        1 0.92621069E-01 0.15675025E+03</pdfrwt>
<totfact> 0.23113262E+04</totfact>
</mgrwt>
</event>
<event>
 4    1  0.5142205E+003  0.1134140E+03  0.7546771E-02  0.1254375E+00
         21   -1    0    0  503  502  0.00000000000E+00  0.00000000000E+00  0.21274417112E+02  0.21274417112E+02  0.00000000000E+00 0. -1.
          2   -1    0    0  502    0 -0.00000000000E+00 -0.00000000000E+00 -0.10147617482E+04  0.10147617482E+04  0.00000000000E+00 0. -1.
         21    1    1    2  503  501 -0.10838562282E+03 -0.33396118420E+02 -0.16741108587E+03  0.20221081977E+03  0.00000000000E+00 0. -1.
          2    1    1    2  501    0  0.10838562282E+03  0.33396118420E+02 -0.82607624520E+03  0.83382534553E+03  0.00000000000E+00 0. -1.
<mgrwt>
<rscale>  2 0.11341404E+03</rscale>
<asrwt>0</asrwt>
<pdfrwt beam="1">  1       21 0.32729870E-02 0.11341404E+03</pdfrwt>
<pdfrwt beam="2">  1        2 0.15611720E+00 0.11341404E+03</pdfrwt>
<totfact> 0.17734490E+05</totfact>
</mgrwt>
</event>
<event>
 4    1  0.5142205E+003  0.1105383E+03  0.7546771E-02  0.1259576E+00
         21   -1    0    0  501  502  0.00000000000E+00  0.00000000000E+00  0.20363699860E+03  0.20363699860E+03  0.00000000000E+00 0. -1.
          2   -1    0    0  503    0 -0.00000000000E+00 -0.00000000000E+00 -0.76355154669E+02  0.76355154669E+02  0.00000000000E+00 0. -1.
         21    1    1    2  503  502 -0.88628460915E+02  0.66058436417E+02  0.12842843844E+03  0.16944788257E+03  0.00000000000E+00 0. -1.
          2    1    1    2  501    0  0.88628460915E+02 -0.66058436417E+02 -0.11465945122E+01  0.11054427070E+03  0.00000000000E+00 0. -1.
<mgrwt>
<rscale>  2 0.11053832E+03</rscale>
<asrwt>0</asrwt>
<pdfrwt beam="1">  1       21 0.31328769E-01 0.11053832E+03</pdfrwt>
<pdfrwt beam="2">  1        2 0.11746947E-01 0.11053832E+03</pdfrwt>
<totfact> 0.61581312E+04</totfact>
</mgrwt>
</event>
<event>
 4    1  0.5142205E+003  0.1042133E+03  0.7546771E-02  0.1271677E+00
         21   -1    0    0  501  502  0.00000000000E+00  0.00000000000E+00  0.72185149858E+02  0.72185149858E+02  0.00000000000E+00 0. -1.
          2   -1    0    0  503    0 -0.00000000000E+00 -0.00000000000E+00 -0.13943495523E+04  0.13943495523E+04  0.00000000000E+00 0. -1.
         21    1    1    2  503  502 -0.36444653356E+02  0.97632943236E+02  0.31495993536E+02  0.10886873735E+03  0.00000000000E+00 0. -1.
          2    1    1    2  501    0  0.36444653356E+02 -0.97632943236E+02 -0.13536603960E+04  0.13576659648E+04  0.00000000000E+00 0. -1.
<mgrwt>
<rscale>  2 0.10421326E+03</rscale>
<asrwt>0</asrwt>
<pdfrwt beam="1">  1       21 0.11105408E-01 0.10421326E+03</pdfrwt>
<pdfrwt beam="2">  1        2 0.21451530E+00 0.10421326E+03</pdfrwt>
<totfact> 0.13899770E+04</totfact>
</mgrwt>
</event>
<event>
 4    1  0.5142205E+003  0.1856291E+03  0.7546771E-02  0.1162464E+00
         -1   -1    0    0    0  501 -0.00000000000E+00  0.00000000000E+00  0.56786502539E+03  0.56786502539E+03  0.00000000000E+00 0. -1.
         21   -1    0    0  501  502  0.00000000000E+00 -0.00000000000E+00 -0.12826183981E+03  0.12826183981E+03  0.00000000000E+00 0. -1.
         21    1    1    2  503  502 -0.17970461369E+03 -0.46523146114E+02 -0.32851196308E+02  0.18851353375E+03  0.00000000000E+00 0. -1.
         -1    1    1    2    0  503  0.17970461369E+03  0.46523146114E+02  0.47245438189E+03  0.50761333146E+03  0.00000000000E+00 0. -1.
<mgrwt>
<rscale>  2 0.18562907E+03</rscale>
<asrwt>0</asrwt>
<pdfrwt beam="2">  1       21 0.19732591E-01 0.18562907E+03</pdfrwt>
<pdfrwt beam="1">  1       -1 0.87363849E-01 0.18562907E+03</pdfrwt>
<totfact> 0.30060104E+03</totfact>
</mgrwt>
</event>
<event>
 4    1  0.5142205E+003  0.1034702E+03  0.7546771E-02  0.1273163E+00
         21   -1    0    0  503  502  0.00000000000E+00  0.00000000000E+00  0.21416730904E+02  0.21416730904E+02  0.00000000000E+00 0.  1.
          2   -1    0    0  502    0 -0.00000000000E+00 -0.00000000000E+00 -0.15085287973E+04  0.15085287973E+04  0.00000000000E+00 0.  1.
         21    1    1    2  503  501 -0.10302775302E+02  0.10295599792E+03 -0.11804316243E+03  0.15697220417E+03  0.00000000000E+00 0.  1.
          2    1    1    2  501    0  0.10302775302E+02 -0.10295599792E+03 -0.13690689039E+04  0.13729733240E+04  0.00000000000E+00 0.  1.
<mgrwt>
<rscale>  2 0.10347021E+03</rscale>
<asrwt>0</asrwt>
<pdfrwt beam="1">  1       21 0.32948818E-02 0.10347021E+03</pdfrwt>
<pdfrwt beam="2">  1        2 0.23208134E+00 0.10347021E+03</pdfrwt>
<totfact> 0.94540204E+04</totfact>
</mgrwt>
</event>
<event>
 4    1  0.5142205E+003  0.1059143E+03  0.7546771E-02  0.1268329E+00
          1   -1    0    0  503    0 -0.00000000000E+00  0.00000000000E+00  0.53442083324E+03  0.53442083324E+03  0.00000000000E+00 0.  1.
         21   -1    0    0  501  502  0.00000000000E+00 -0.00000000000E+00 -0.33667972351E+02  0.33667972351E+02  0.00000000000E+00 0.  1.
         21    1    1    2  503  502 -0.22995970909E+02 -0.10338769619E+03  0.76078652528E+02  0.13040625665E+03  0.00000000000E+00 0.  1.
          1    1    1    2  501    0  0.22995970909E+02  0.10338769619E+03  0.42467420836E+03  0.43768254894E+03  0.00000000000E+00 0.  1.
<mgrwt>
<rscale>  2 0.10591426E+03</rscale>
<asrwt>0</asrwt>
<pdfrwt beam="2">  1       21 0.51796884E-02 0.10591426E+03</pdfrwt>
<pdfrwt beam="1">  1        1 0.82218584E-01 0.10591426E+03</pdfrwt>
<totfact> 0.11396048E+05</totfact>
</mgrwt>
</event>
<event>
 4    1  0.5142205E+003  0.1001536E+03  0.7546771E-02  0.1279973E+00
         21   -1    0    0  501  502  0.00000000000E+00  0.00000000000E+00  0.16027249785E+03  0.16027249785E+03  0.00000000000E+00 0. -1.
          1   -1    0    0  503    0 -0.00000000000E+00 -0.00000000000E+00 -0.12720568968E+03  0.12720568968E+03  0.00000000000E+00 0. -1.
         21    1    1    2  503  502 -0.67659371729E+02  0.73844178977E+02  0.11898184443E+03  0.15552309364E+03  0.00000000000E+00 0. -1.
          1    1    1    2  501    0  0.67659371729E+02 -0.73844178977E+02 -0.85915036250E+02  0.13195509390E+03  0.00000000000E+00 0. -1.
<mgrwt>
<rscale>  2 0.10015365E+03</rscale>
<asrwt>0</asrwt>
<pdfrwt beam="1">  1       21 0.24657308E-01 0.10015365E+03</pdfrwt>
<pdfrwt beam="2">  1        1 0.19570106E-01 0.10015365E+03</pdfrwt>
<totfact> 0.43523395E+04</totfact>
</mgrwt>
</event>
<event>
 4    1  0.5142205E+003  0.1172032E+03  0.7546771E-02  0.1247783E+00
          1   -1    0    0  503    0 -0.00000000000E+00  0.00000000000E+00  0.46569100564E+03  0.46569100564E+03  0.00000000000E+00 0.  1.
         21   -1    0    0  501  502  0.00000000000E+00 -0.00000000000E+00 -0.39577901401E+02  0.39577901401E+02  0.00000000000E+00 0. -1.
         21    1    1    2  503  502  0.58002971886E+02  0.10184426504E+03  0.85556393793E+02  0.14510856483E+03  0.00000000000E+00 0. -1.
          1    1    1    2  501    0 -0.58002971886E+02 -0.10184426504E+03  0.34055671045E+03  0.36016034221E+03  0.00000000000E+00 0.  1.
<mgrwt>
<rscale>  2 0.11720324E+03</rscale>
<asrwt>0</asrwt>
<pdfrwt beam="2">  1       21 0.60889082E-02 0.11720324E+03</pdfrwt>
<pdfrwt beam="1">  1        1 0.71644766E-01 0.11720324E+03</pdfrwt>
<totfact> 0.10408370E+05</totfact>
</mgrwt>
</event>
<event>
 4    1  0.5142205E+003  0.1600302E+03  0.7546771E-02  0.1188663E+00
         21   -1    0    0  501  502  0.00000000000E+00  0.00000000000E+00  0.24666440103E+02  0.24666440103E+02  0.00000000000E+00 0. -1.
          2   -1    0    0  503    0 -0.00000000000E+00 -0.00000000000E+00 -0.28026478968E+04  0.28026478968E+04  0.00000000000E+00 0. -1.
         21    1    1    2  503  502  0.12991022092E+03  0.93450523798E+02 -0.26733540847E+03  0.31157324423E+03  0.00000000000E+00 0. -1.
          2    1    1    2  501    0 -0.12991022092E+03 -0.93450523798E+02 -0.25106460482E+04  0.25157410927E+04  0.00000000000E+00 0. -1.
<mgrwt>
<rscale>  2 0.16003020E+03</rscale>
<asrwt>0</asrwt>
<pdfrwt beam="1">  1       21 0.37948366E-02 0.16003020E+03</pdfrwt>
<pdfrwt beam="2">  1        2 0.43117664E+00 0.16003020E+03</pdfrwt>
<totfact> 0.15513235E+04</totfact>
</mgrwt>
</event>
<event>
 4    1  0.5142205E+003  0.1042634E+03  0.7546771E-02  0.1271578E+00
         21   -1    0    0  501  502  0.00000000000E+00  0.00000000000E+00  0.12609836870E+03  0.12609836870E+03  0.00000000000E+00 0. -1.
          3   -1    0    0  503    0 -0.00000000000E+00 -0.00000000000E+00 -0.32612240318E+03  0.32612240318E+03  0.00000000000E+00 0.  1.
         21    1    1    2  503  502  0.10061199022E+03  0.27351157466E+02  0.93923401948E+02  0.14032983939E+03  0.00000000000E+00 0. -1.
          3    1    1    2  501    0 -0.10061199022E+03 -0.27351157466E+02 -0.29394743642E+03  0.31189093249E+03  0.00000000000E+00 0.  1.
<mgrwt>
<rscale>  2 0.10426341E+03</rscale>
<asrwt>0</asrwt>
<pdfrwt beam="1">  1       21 0.19399749E-01 0.10426341E+03</pdfrwt>
<pdfrwt beam="2">  1        3 0.50172677E-01 0.10426341E+03</pdfrwt>
<totfact> 0.46808059E+03</totfact>
</mgrwt>
</event>
<event>
 4    1  0.5142205E+003  0.1218871E+03  0.7546771E-02  0.1240016E+00
          1   -1    0    0  503    0 -0.00000000000E+00  0.00000000000E+00  0.78803046111E+03  0.78803046111E+03  0.00000000000E+00 0.  1.
         21   -1    0    0  501  502  0.00000000000E+00 -0.00000000000E+00 -0.30083920406E+02  0.30083920406E+02  0.00000000000E+00 0. -1.
         21    1    1    2  503  502 -0.85655161963E+02 -0.86716032262E+02  0.12903607002E+03  0.17750150531E+03  0.00000000000E+00 0. -1.
          1    1    1    2  501    0  0.85655161963E+02  0.86716032262E+02  0.62891047068E+03  0.64061287620E+03  0.00000000000E+00 0.  1.
<mgrwt>
<rscale>  2 0.12188715E+03</rscale>
<asrwt>0</asrwt>
<pdfrwt beam="2">  1       21 0.46282961E-02 0.12188715E+03</pdfrwt>
<pdfrwt beam="1">  1        1 0.12123544E+00 0.12188715E+03</pdfrwt>
<totfact> 0.80490256E+04</totfact>
</mgrwt>
</event>
<event>
 4    1  0.5142205E+003  0.1030535E+03  0.7546771E-02  0.1274003E+00
         21   -1    0    0  503  502  0.00000000000E+00  0.00000000000E+00  0.16724822672E+02  0.16724822672E+02  0.00000000000E+00 0.  1.
          4   -1    0    0  502    0 -0.00000000000E+00 -0.00000000000E+00 -0.63745302007E+03  0.63745302007E+03  0.00000000000E+00 0.  1.
         21    1    1    2  503  501  0.38629397030E+02 -0.95539464126E+02 -0.33071454881E+03  0.34639880530E+03  0.00000000000E+00 0.  1.
          4    1    1    2  501    0 -0.38629397030E+02  0.95539464126E+02 -0.29001364858E+03  0.30777903744E+03  0.00000000000E+00 0.  1.
<mgrwt>
<rscale>  2 0.10305348E+03</rscale>
<asrwt>0</asrwt>
<pdfrwt beam="1">  1       21 0.25730493E-02 0.10305348E+03</pdfrwt>
<pdfrwt beam="2">  1        4 0.98069707E-01 0.10305348E+03</pdfrwt>
<totfact> 0.28564850E+04</totfact>
</mgrwt>
</event>
<event>
 4    1  0.5142205E+003  0.1116668E+03  0.7546771E-02  0.1257514E+00
         21   -1    0    0  501  502  0.00000000000E+00  0.00000000000E+00  0.22935965849E+03  0.22935965849E+03  0.00000000000E+00 0.  1.
          2   -1    0    0  503    0 -0.00000000000E+00 -0.00000000000E+00 -0.59578805724E+02  0.59578805724E+02  0.00000000000E+00 0.  1.
         21    1    1    2  503  502 -0.10839584534E+03  0.26829526999E+02  0.12762154271E+03  0.16957812645E+03  0.00000000000E+00 0.  1.
          2    1    1    2  501    0  0.10839584534E+03 -0.26829526999E+02  0.42159310053E+02  0.11936033776E+03  0.00000000000E+00 0.  1.
<mgrwt>
<rscale>  2 0.11166684E+03</rscale>
<asrwt>0</asrwt>
<pdfrwt beam="1">  1       21 0.35286101E-01 0.11166684E+03</pdfrwt>
<pdfrwt beam="2">  1        2 0.91659702E-02 0.11166684E+03</pdfrwt>
<totfact> 0.66067920E+04</totfact>
</mgrwt>
</event>
<event>
 4    1  0.5142205E+003  0.1079847E+03  0.7546771E-02  0.1264348E+00
          2   -1    0    0  503    0 -0.00000000000E+00  0.00000000000E+00  0.14886211222E+02  0.14886211222E+02  0.00000000000E+00 0.  1.
         21   -1    0    0  501  502  0.00000000000E+00 -0.00000000000E+00 -0.11724541328E+04  0.11724541328E+04  0.00000000000E+00 0.  1.
         21    1    1    2  503  502 -0.32598384845E+02 -0.10294679051E+03 -0.92079951659E+03  0.92710972712E+03  0.00000000000E+00 0.  1.
          2    1    1    2  501    0  0.32598384845E+02  0.10294679051E+03 -0.23676840495E+03  0.26023061686E+03  0.00000000000E+00 0.  1.
<mgrwt>
<rscale>  2 0.10798470E+03</rscale>
<asrwt>0</asrwt>
<pdfrwt beam="2">  1       21 0.18037748E+00 0.10798470E+03</pdfrwt>
<pdfrwt beam="1">  1        2 0.22901873E-02 0.10798470E+03</pdfrwt>
<totfact> 0.10025634E+04</totfact>
</mgrwt>
</event>
<event>
 4    1  0.5142205E+003  0.1028430E+03  0.7546771E-02  0.1274429E+00
          2   -1    0    0  503    0 -0.00000000000E+00  0.00000000000E+00  0.12226889459E+03  0.12226889459E+03  0.00000000000E+00 0.  1.
         21   -1    0    0  501  502  0.00000000000E+00 -0.00000000000E+00 -0.13364364234E+03  0.13364364234E+03  0.00000000000E+00 0. -1.
         21    1    1    2  503  502  0.18845821948E+02  0.10110154006E+03 -0.81682001971E+02  0.13133406205E+03  0.00000000000E+00 0. -1.
          2    1    1    2  501    0 -0.18845821948E+02 -0.10110154006E+03  0.70307254220E+02  0.12457847488E+03  0.00000000000E+00 0.  1.
<mgrwt>
<rscale>  2 0.10284302E+03</rscale>
<asrwt>0</asrwt>
<pdfrwt beam="2">  1       21 0.20560560E-01 0.10284302E+03</pdfrwt>
<pdfrwt beam="1">  1        2 0.18810599E-01 0.10284302E+03</pdfrwt>
<totfact> 0.78547224E+04</totfact>
</mgrwt>
</event>
<event>
 4    1  0.5142205E+003  0.1618184E+03  0.7546771E-02  0.1186659E+00
         21   -1    0    0  501  502  0.00000000000E+00  0.00000000000E+00  0.78940732633E+02  0.78940732633E+02  0.00000000000E+00 0. -1.
          2   -1    0    0  503    0 -0.00000000000E+00 -0.00000000000E+00 -0.18435743711E+04  0.18435743711E+04  0.00000000000E+00 0. -1.
         21    1    1    2  503  502 -0.31404331954E+02  0.15874177786E+03 -0.11821784775E+02  0.16224961849E+03  0.00000000000E+00 0. -1.
          2    1    1    2  501    0  0.31404331954E+02 -0.15874177786E+03 -0.17528118537E+04  0.17602654852E+04  0.00000000000E+00 0. -1.
<mgrwt>
<rscale>  2 0.16181837E+03</rscale>
<asrwt>0</asrwt>
<pdfrwt beam="1">  1       21 0.12144728E-01 0.16181837E+03</pdfrwt>
<pdfrwt beam="2">  1        2 0.28362682E+00 0.16181837E+03</pdfrwt>
<totfact> 0.67716925E+03</totfact>
</mgrwt>
</event>
<event>
 4    1  0.5142205E+003  0.1247513E+03  0.7546771E-02  0.1235458E+00
          2   -1    0    0  503    0 -0.00000000000E+00  0.00000000000E+00  0.28699668806E+02  0.28699668806E+02  0.00000000000E+00 0.  1.
         21   -1    0    0  501  502  0.00000000000E+00 -0.00000000000E+00 -0.55002600742E+03  0.55002600742E+03  0.00000000000E+00 0. -1.
         21    1    1    2  503  502 -0.60480801266E+02  0.10910984589E+03 -0.29503097469E+03  0.32032196587E+03  0.00000000000E+00 0. -1.
          2    1    1    2  501    0  0.60480801266E+02 -0.10910984589E+03 -0.22629536393E+03  0.25840371036E+03  0.00000000000E+00 0.  1.
<mgrwt>
<rscale>  2 0.12475130E+03</rscale>
<asrwt>0</asrwt>
<pdfrwt beam="2">  1       21 0.84619379E-01 0.12475130E+03</pdfrwt>
<pdfrwt beam="1">  1        2 0.44153340E-02 0.12475130E+03</pdfrwt>
<totfact> 0.26917306E+04</totfact>
</mgrwt>
</event>
<event>
 4    1  0.5142205E+003  0.1076113E+03  0.7546771E-02  0.1265058E+00
         21   -1    0    0  501  502  0.00000000000E+00  0.00000000000E+00  0.19356351267E+03  0.19356351267E+03  0.00000000000E+00 0. -1.
          2   -1    0    0  503    0 -0.00000000000E+00 -0.00000000000E+00 -0.78555427117E+02  0.78555427117E+02  0.00000000000E+00 0. -1.
         21    1    1    2  503  502 -0.15845596857E+02 -0.10643823993E+03  0.12393948964E+03  0.16413768291E+03  0.00000000000E+00 0. -1.
          2    1    1    2  501    0  0.15845596857E+02  0.10643823993E+03 -0.89314040836E+01  0.10798125688E+03  0.00000000000E+00 0. -1.
<mgrwt>
<rscale>  2 0.10761125E+03</rscale>
<asrwt>0</asrwt>
<pdfrwt beam="1">  1       21 0.29779002E-01 0.10761125E+03</pdfrwt>
<pdfrwt beam="2">  1        2 0.12085450E-01 0.10761125E+03</pdfrwt>
<totfact> 0.65574728E+04</totfact>
</mgrwt>
</event>
<event>
 4    1  0.5142205E+003  0.1115048E+03  0.7546771E-02  0.1257808E+00
         21   -1    0    0  501  502  0.00000000000E+00  0.00000000000E+00  0.11299326130E+03  0.11299326130E+03  0.00000000000E+00 0.  1.
         -2   -1    0    0    0  501 -0.00000000000E+00 -0.00000000000E+00 -0.16058730243E+03  0.16058730243E+03  0.00000000000E+00 0. -1.
         21    1    1    2  503  502  0.85013967778E+02  0.72152194627E+02  0.52950843293E+02  0.12343867187E+03  0.00000000000E+00 0.  1.
         -2    1    1    2    0  503 -0.85013967778E+02 -0.72152194627E+02 -0.10054488442E+03  0.15014189186E+03  0.00000000000E+00 0. -1.
<mgrwt>
<rscale>  2 0.11150477E+03</rscale>
<asrwt>0</asrwt>
<pdfrwt beam="1">  1       21 0.17383579E-01 0.11150477E+03</pdfrwt>
<pdfrwt beam="2">  1       -2 0.24705739E-01 0.11150477E+03</pdfrwt>
<totfact> 0.34280050E+04</totfact>
</mgrwt>
</event>
<event>
 4    1  0.5142205E+003  0.1083412E+03  0.7546771E-02  0.1263673E+00
          2   -1    0    0  502    0 -0.00000000000E+00  0.00000000000E+00  0.65566458102E+03  0.65566458102E+03  0.00000000000E+00 0.  1.
         21   -1    0    0  503  502  0.00000000000E+00 -0.00000000000E+00 -0.32946739196E+02  0.32946739196E+02  0.00000000000E+00 0. -1.
         21    1    1    2  503  501 -0.94224259154E+02 -0.53475364911E+02  0.78695735397E+02  0.13390610305E+03  0.00000000000E+00 0. -1.
          2    1    1    2  501    0  0.94224259154E+02  0.53475364911E+02  0.54402210643E+03  0.55470521716E+03  0.00000000000E+00 0.  1.
<mgrwt>
<rscale>  2 0.10834125E+03</rscale>
<asrwt>0</asrwt>
<pdfrwt beam="2">  1       21 0.50687296E-02 0.10834125E+03</pdfrwt>
<pdfrwt beam="1">  1        2 0.10087146E+00 0.10834125E+03</pdfrwt>
<totfact> 0.14806990E+05</totfact>
</mgrwt>
</event>
<event>
 4    1  0.5142205E+003  0.1051662E+03  0.7546771E-02  0.1269793E+00
          1   -1    0    0  502    0 -0.00000000000E+00  0.00000000000E+00  0.28802380866E+03  0.28802380866E+03  0.00000000000E+00 0.  1.
         21   -1    0    0  503  502  0.00000000000E+00 -0.00000000000E+00 -0.60913396895E+02  0.60913396895E+02  0.00000000000E+00 0.  1.
         21    1    1    2  503  501  0.91972310076E+02 -0.51000144223E+02  0.74863523844E+01  0.10543228160E+03  0.00000000000E+00 0.  1.
          1    1    1    2  501    0 -0.91972310076E+02  0.51000144223E+02  0.21962405939E+03  0.24350492396E+03  0.00000000000E+00 0.  1.
<mgrwt>
<rscale>  2 0.10516616E+03</rscale>
<asrwt>0</asrwt>
<pdfrwt beam="2">  1       21 0.93712920E-02 0.10516616E+03</pdfrwt>
<pdfrwt beam="1">  1        1 0.44311354E-01 0.10516616E+03</pdfrwt>
<totfact> 0.90188436E+04</totfact>
</mgrwt>
</event>
<event>
 4    1  0.5142205E+003  0.1118347E+03  0.7546771E-02  0.1257210E+00
         21   -1    0    0  501  502  0.00000000000E+00  0.00000000000E+00  0.29721113868E+02  0.29721113868E+02  0.00000000000E+00 0. -1.
          2   -1    0    0  503    0 -0.00000000000E+00 -0.00000000000E+00 -0.46010862671E+03  0.46010862671E+03  0.00000000000E+00 0. -1.
         21    1    1    2  503  502  0.91422634475E+02 -0.64411885714E+02 -0.14361817566E+03  0.18202518918E+03  0.00000000000E+00 0. -1.
          2    1    1    2  501    0 -0.91422634475E+02  0.64411885714E+02 -0.28676933718E+03  0.30780455140E+03  0.00000000000E+00 0. -1.
<mgrwt>
<rscale>  2 0.11183465E+03</rscale>
<asrwt>0</asrwt>
<pdfrwt beam="1">  1       21 0.45724790E-02 0.11183465E+03</pdfrwt>
<pdfrwt beam="2">  1        2 0.70785943E-01 0.11183465E+03</pdfrwt>
<totfact> 0.26092229E+05</totfact>
</mgrwt>
</event>
<event>
 4    1  0.5142205E+003  0.1077672E+03  0.7546771E-02  0.1264761E+00
         -2   -1    0    0    0  501 -0.00000000000E+00  0.00000000000E+00  0.32028654626E+03  0.32028654626E+03  0.00000000000E+00 0.  1.
         21   -1    0    0  503  502  0.00000000000E+00 -0.00000000000E+00 -0.24666989142E+03  0.24666989142E+03  0.00000000000E+00 0. -1.
         21    1    1    2  503  501 -0.25039621210E+02 -0.10481790431E+03 -0.22500641796E+03  0.24948279263E+03  0.00000000000E+00 0. -1.
         -2    1    1    2    0  502  0.25039621210E+02  0.10481790431E+03  0.29862307280E+03  0.31747364505E+03  0.00000000000E+00 0.  1.
<mgrwt>
<rscale>  2 0.10776723E+03</rscale>
<asrwt>0</asrwt>
<pdfrwt beam="2">  1       21 0.37949214E-01 0.10776723E+03</pdfrwt>
<pdfrwt beam="1">  1       -2 0.49274853E-01 0.10776723E+03</pdfrwt>
<totfact> 0.21983628E+03</totfact>
</mgrwt>
</event>
<event>
 4    1  0.5142205E+003  0.1391943E+03  0.7546771E-02  0.1214417E+00
          1   -1    0    0  503    0 -0.00000000000E+00  0.00000000000E+00  0.20484107376E+03  0.20484107376E+03  0.00000000000E+00 0. -1.
         21   -1    0    0  501  502  0.00000000000E+00 -0.00000000000E+00 -0.12271337818E+03  0.12271337818E+03  0.00000000000E+00 0. -1.
         21    1    1    2  503  502 -0.39188152857E+02  0.13356394778E+03 -0.37346680409E+02  0.14411736193E+03  0.00000000000E+00 0. -1.
          1    1    1    2  501    0  0.39188152857E+02 -0.13356394778E+03  0.11947437599E+03  0.18343709001E+03  0.00000000000E+00 0. -1.
<mgrwt>
<rscale>  2 0.13919425E+03</rscale>
<asrwt>0</asrwt>
<pdfrwt beam="2">  1       21 0.18878981E-01 0.13919425E+03</pdfrwt>
<pdfrwt beam="1">  1        1 0.31514012E-01 0.13919425E+03</pdfrwt>
<totfact> 0.39615659E+04</totfact>
</mgrwt>
</event>
<event>
 4    1  0.5142205E+003  0.1109727E+03  0.7546771E-02  0.1258779E+00
         21   -1    0    0  501  502  0.00000000000E+00  0.00000000000E+00  0.38377930023E+02  0.38377930023E+02  0.00000000000E+00 0. -1.
         -2   -1    0    0    0  501 -0.00000000000E+00 -0.00000000000E+00 -0.37859702734E+03  0.37859702734E+03  0.00000000000E+00 0. -1.
         21    1    1    2  503  502  0.75847550049E+02 -0.81006664096E+02 -0.88710044696E+02  0.14207182165E+03  0.00000000000E+00 0. -1.
         -2    1    1    2    0  503 -0.75847550049E+02  0.81006664096E+02 -0.25150905262E+03  0.27490313572E+03  0.00000000000E+00 0. -1.
<mgrwt>
<rscale>  2 0.11097266E+03</rscale>
<asrwt>0</asrwt>
<pdfrwt beam="1">  1       21 0.59042968E-02 0.11097266E+03</pdfrwt>
<pdfrwt beam="2">  1       -2 0.58245698E-01 0.11097266E+03</pdfrwt>
<totfact> 0.45383461E+04</totfact>
</mgrwt>
</event>
<event>
 4    1  0.5142205E+003  0.1006704E+03  0.7546771E-02  0.1278892E+00
          2   -1    0    0  502    0 -0.00000000000E+00  0.00000000000E+00  0.15448074719E+04  0.15448074719E+04  0.00000000000E+00 0. -1.
         21   -1    0    0  503  502  0.00000000000E+00 -0.00000000000E+00 -0.12634550754E+03  0.12634550754E+03  0.00000000000E+00 0.  1.
         21    1    1    2  503  501  0.38792448069E+02  0.92896052984E+02 -0.10436304519E+03  0.14500405473E+03  0.00000000000E+00 0.  1.
          2    1    1    2  501    0 -0.38792448069E+02 -0.92896052984E+02  0.15228250095E+04  0.15261489247E+04  0.00000000000E+00 0. -1.
<mgrwt>
<rscale>  2 0.10067041E+03</rscale>
<asrwt>0</asrwt>
<pdfrwt beam="2">  1       21 0.19437771E-01 0.10067041E+03</pdfrwt>
<pdfrwt beam="1">  1        2 0.23766267E+00 0.10067041E+03</pdfrwt>
<totfact> 0.42781542E+03</totfact>
</mgrwt>
</event>
<event>
 4    1  0.5142205E+003  0.1342994E+03  0.7546771E-02  0.1221212E+00
         -2   -1    0    0    0  501 -0.00000000000E+00  0.00000000000E+00  0.44156524897E+03  0.44156524897E+03  0.00000000000E+00 0.  1.
         21   -1    0    0  503  502  0.00000000000E+00 -0.00000000000E+00 -0.12200622115E+03  0.12200622115E+03  0.00000000000E+00 0.  1.
         21    1    1    2  503  501 -0.79659828444E+02  0.10812330913E+03 -0.70046207748E+02  0.15146883991E+03  0.00000000000E+00 0.  1.
         -2    1    1    2    0  502  0.79659828444E+02 -0.10812330913E+03  0.38960523557E+03  0.41210263021E+03  0.00000000000E+00 0.  1.
<mgrwt>
<rscale>  2 0.13429944E+03</rscale>
<asrwt>0</asrwt>
<pdfrwt beam="2">  1       21 0.18770188E-01 0.13429944E+03</pdfrwt>
<pdfrwt beam="1">  1       -2 0.67933114E-01 0.13429944E+03</pdfrwt>
<totfact> 0.43423727E+03</totfact>
</mgrwt>
</event>
<event>
 4    1  0.5142205E+003  0.1147397E+03  0.7546771E-02  0.1252036E+00
         21   -1    0    0  503  502  0.00000000000E+00  0.00000000000E+00  0.34764899997E+02  0.34764899997E+02  0.00000000000E+00 0. -1.
          2   -1    0    0  502    0 -0.00000000000E+00 -0.00000000000E+00 -0.12655843308E+04  0.12655843308E+04  0.00000000000E+00 0. -1.
         21    1    1    2  503  501  0.11032668388E+03  0.31515545682E+02 -0.71132952897E+02  0.13500038439E+03  0.00000000000E+00 0. -1.
          2    1    1    2  501    0 -0.11032668388E+03 -0.31515545682E+02 -0.11596864779E+04  0.11653488464E+04  0.00000000000E+00 0. -1.
<mgrwt>
<rscale>  2 0.11473974E+03</rscale>
<asrwt>0</asrwt>
<pdfrwt beam="1">  1       21 0.53484459E-02 0.11473974E+03</pdfrwt>
<pdfrwt beam="2">  1        2 0.19470529E+00 0.11473974E+03</pdfrwt>
<totfact> 0.56764866E+04</totfact>
</mgrwt>
</event>
<event>
 4    1  0.5142205E+003  0.1088839E+03  0.7546771E-02  0.1262651E+00
          2   -1    0    0  502    0 -0.00000000000E+00  0.00000000000E+00  0.12542379247E+04  0.12542379247E+04  0.00000000000E+00 0.  1.
         21   -1    0    0  503  502  0.00000000000E+00 -0.00000000000E+00 -0.50551399946E+02  0.50551399946E+02  0.00000000000E+00 0. -1.
         21    1    1    2  503  501 -0.58871115064E+02 -0.91596360995E+02  0.13597468656E+02  0.10972963451E+03  0.00000000000E+00 0. -1.
          2    1    1    2  501    0  0.58871115064E+02  0.91596360995E+02  0.11900890561E+04  0.11950596901E+04  0.00000000000E+00 0.  1.
<mgrwt>
<rscale>  2 0.10888389E+03</rscale>
<asrwt>0</asrwt>
<pdfrwt beam="2">  1       21 0.77771394E-02 0.10888389E+03</pdfrwt>
<pdfrwt beam="1">  1        2 0.19295966E+00 0.10888389E+03</pdfrwt>
<totfact> 0.30528216E+04</totfact>
</mgrwt>
</event>
<event>
 4    1  0.5142205E+003  0.1836252E+03  0.7546771E-02  0.1164340E+00
          2   -1    0    0  502    0 -0.00000000000E+00  0.00000000000E+00  0.80012783645E+03  0.80012783645E+03  0.00000000000E+00 0.  1.
         21   -1    0    0  503  502  0.00000000000E+00 -0.00000000000E+00 -0.55718998533E+02  0.55718998533E+02  0.00000000000E+00 0.  1.
         21    1    1    2  503  501  0.15001044773E+03 -0.10590120445E+03  0.16096156145E+03  0.24418604341E+03  0.00000000000E+00 0.  1.
          2    1    1    2  501    0 -0.15001044773E+03  0.10590120445E+03  0.58344727647E+03  0.61166079158E+03  0.00000000000E+00 0.  1.
<mgrwt>
<rscale>  2 0.18362516E+03</rscale>
<asrwt>0</asrwt>
<pdfrwt beam="2">  1       21 0.85721542E-02 0.18362516E+03</pdfrwt>
<pdfrwt beam="1">  1        2 0.12309658E+00 0.18362516E+03</pdfrwt>
<totfact> 0.47759413E+04</totfact>
</mgrwt>
</event>
<event>
 4    1  0.5142205E+003  0.1179331E+03  0.7546771E-02  0.1246546E+00
         21   -1    0    0  501  502  0.00000000000E+00  0.00000000000E+00  0.14145399190E+03  0.14145399190E+03  0.00000000000E+00 0.  1.
         -3   -1    0    0    0  501 -0.00000000000E+00 -0.00000000000E+00 -0.24931709074E+03  0.24931709074E+03  0.00000000000E+00 0.  1.
         21    1    1    2  503  502 -0.45887834470E+02 -0.10863938543E+03  0.98121831907E+02  0.15341480800E+03  0.00000000000E+00 0.  1.
         -3    1    1    2    0  503  0.45887834470E+02  0.10863938543E+03 -0.20598493074E+03  0.23735627464E+03  0.00000000000E+00 0.  1.
<mgrwt>
<rscale>  2 0.11793307E+03</rscale>
<asrwt>0</asrwt>
<pdfrwt beam="1">  1       21 0.21762153E-01 0.11793307E+03</pdfrwt>
<pdfrwt beam="2">  1       -3 0.38356475E-01 0.11793307E+03</pdfrwt>
<totfact> 0.64211349E+03</totfact>
</mgrwt>
</event>
<event>
 4    1  0.5142205E+003  0.1027119E+03  0.7546771E-02  0.1274694E+00
          1   -1    0    0  502    0 -0.00000000000E+00  0.00000000000E+00  0.25694287966E+03  0.25694287966E+03  0.00000000000E+00 0. -1.
         21   -1    0    0  503  502  0.00000000000E+00 -0.00000000000E+00 -0.13235721024E+03  0.13235721024E+03  0.00000000000E+00 0. -1.
         21    1    1    2  503  501 -0.25155872751E+02 -0.99583718213E+02 -0.99370898933E+02  0.14291364673E+03  0.00000000000E+00 0. -1.
          1    1    1    2  501    0  0.25155872751E+02  0.99583718213E+02  0.22395656836E+03  0.24638644317E+03  0.00000000000E+00 0. -1.
<mgrwt>
<rscale>  2 0.10271190E+03</rscale>
<asrwt>0</asrwt>
<pdfrwt beam="2">  1       21 0.20362648E-01 0.10271190E+03</pdfrwt>
<pdfrwt beam="1">  1        1 0.39529674E-01 0.10271190E+03</pdfrwt>
<totfact> 0.25996462E+04</totfact>
</mgrwt>
</event>
<event>
 4    1  0.5142205E+003  0.1095588E+03  0.7546771E-02  0.1261389E+00
          1   -1    0    0  502    0 -0.00000000000E+00  0.00000000000E+00  0.22009717453E+04  0.22009717453E+04  0.00000000000E+00 0. -1.
         21   -1    0    0  503  502  0.00000000000E+00 -0.00000000000E+00 -0.11983008094E+02  0.11983008094E+02  0.00000000000E+00 0. -1.
         21    1    1    2  503  501 -0.10914790963E+03 -0.94793566044E+01  0.27772779389E+03  0.29855627925E+03  0.00000000000E+00 0. -1.
          1    1    1    2  501    0  0.10914790963E+03  0.94793566044E+01  0.19112609433E+04  0.19143984742E+04  0.00000000000E+00 0. -1.
<mgrwt>
<rscale>  2 0.10955877E+03</rscale>
<asrwt>0</asrwt>
<pdfrwt beam="2">  1       21 0.18435415E-02 0.10955877E+03</pdfrwt>
<pdfrwt beam="1">  1        1 0.33861072E+00 0.10955877E+03</pdfrwt>
<totfact> 0.41094517E+04</totfact>
</mgrwt>
</event>
<event>
 4    1  0.5142205E+003  0.1210331E+03  0.7546771E-02  0.1241402E+00
         21   -1    0    0  501  502  0.00000000000E+00  0.00000000000E+00  0.34995856267E+03  0.34995856267E+03  0.00000000000E+00 0.  1.
          2   -1    0    0  503    0 -0.00000000000E+00 -0.00000000000E+00 -0.98700585181E+03  0.98700585181E+03  0.00000000000E+00 0. -1.
         21    1    1    2  503  502 -0.26449370784E+02 -0.11810777831E+03  0.33562970304E+03  0.35678609008E+03  0.00000000000E+00 0.  1.
          2    1    1    2  501    0  0.26449370784E+02  0.11810777831E+03 -0.97267699218E+03  0.98017832440E+03  0.00000000000E+00 0. -1.
<mgrwt>
<rscale>  2 0.12103312E+03</rscale>
<asrwt>0</asrwt>
<pdfrwt beam="1">  1       21 0.53839778E-01 0.12103312E+03</pdfrwt>
<pdfrwt beam="2">  1        2 0.15184706E+00 0.12103312E+03</pdfrwt>
<totfact> 0.11664139E+03</totfact>
</mgrwt>
</event>
<event>
 4    1  0.5142205E+003  0.1112061E+03  0.7546771E-02  0.1258352E+00
         21   -1    0    0  501  502  0.00000000000E+00  0.00000000000E+00  0.18238667296E+03  0.18238667296E+03  0.00000000000E+00 0. -1.
          2   -1    0    0  503    0 -0.00000000000E+00 -0.00000000000E+00 -0.25820531081E+03  0.25820531081E+03  0.00000000000E+00 0.  1.
         21    1    1    2  503  502 -0.11043662122E+03 -0.13059722087E+02  0.15126290346E+03  0.18774256207E+03  0.00000000000E+00 0. -1.
          2    1    1    2  501    0  0.11043662122E+03  0.13059722087E+02 -0.22708154132E+03  0.25284942170E+03  0.00000000000E+00 0.  1.
<mgrwt>
<rscale>  2 0.11120613E+03</rscale>
<asrwt>0</asrwt>
<pdfrwt beam="1">  1       21 0.28059488E-01 0.11120613E+03</pdfrwt>
<pdfrwt beam="2">  1        2 0.39723894E-01 0.11120613E+03</pdfrwt>
<totfact> 0.19480884E+04</totfact>
</mgrwt>
</event>
<event>
 4    1  0.5142205E+003  0.1676401E+03  0.7546771E-02  0.1180331E+00
          1   -1    0    0  503    0 -0.00000000000E+00  0.00000000000E+00  0.12167159731E+04  0.12167159731E+04  0.00000000000E+00 0.  1.
         21   -1    0    0  501  502  0.00000000000E+00 -0.00000000000E+00 -0.49699771298E+02  0.49699771298E+02  0.00000000000E+00 0.  1.
         21    1    1    2  503  502 -0.14991832014E+03  0.75018081644E+02  0.12024503487E+03  0.20630580142E+03  0.00000000000E+00 0.  1.
          1    1    1    2  501    0  0.14991832014E+03 -0.75018081644E+02  0.10467711669E+04  0.10601099430E+04  0.00000000000E+00 0.  1.
<mgrwt>
<rscale>  2 0.16764014E+03</rscale>
<asrwt>0</asrwt>
<pdfrwt beam="2">  1       21 0.76461196E-02 0.16764014E+03</pdfrwt>
<pdfrwt beam="1">  1        1 0.18718705E+00 0.16764014E+03</pdfrwt>
<totfact> 0.16451912E+04</totfact>
</mgrwt>
</event>
<event>
 4    1  0.5142205E+003  0.2495848E+03  0.7546771E-02  0.1113567E+00
         21   -1    0    0  501  502  0.00000000000E+00  0.00000000000E+00  0.31592009351E+03  0.31592009351E+03  0.00000000000E+00 0.  1.
         -3   -1    0    0    0  501 -0.00000000000E+00 -0.00000000000E+00 -0.69400760243E+03  0.69400760243E+03  0.00000000000E+00 0.  1.
         21    1    1    2  503  502 -0.19410573647E+03 -0.15689345587E+03  0.23820594395E+03  0.34501400719E+03  0.00000000000E+00 0.  1.
         -3    1    1    2    0  503  0.19410573647E+03  0.15689345587E+03 -0.61629345287E+03  0.66491368874E+03  0.00000000000E+00 0.  1.
<mgrwt>
<rscale>  2 0.24958484E+03</rscale>
<asrwt>0</asrwt>
<pdfrwt beam="1">  1       21 0.48603091E-01 0.24958484E+03</pdfrwt>
<pdfrwt beam="2">  1       -3 0.10677040E+00 0.24958484E+03</pdfrwt>
<totfact> 0.15289879E+02</totfact>
</mgrwt>
</event>
<event>
 4    1  0.5142205E+003  0.1000840E+03  0.7546771E-02  0.1280119E+00
          2   -1    0    0  503    0 -0.00000000000E+00  0.00000000000E+00  0.83179724108E+03  0.83179724108E+03  0.00000000000E+00 0. -1.
         21   -1    0    0  501  502  0.00000000000E+00 -0.00000000000E+00 -0.14959880119E+02  0.14959880119E+02  0.00000000000E+00 0. -1.
         21    1    1    2  503  502  0.34384775937E+01  0.10002496415E+03  0.22144933200E+03  0.24301568514E+03  0.00000000000E+00 0. -1.
          2    1    1    2  501    0 -0.34384775937E+01 -0.10002496415E+03  0.59538802896E+03  0.60374143606E+03  0.00000000000E+00 0. -1.
<mgrwt>
<rscale>  2 0.10008405E+03</rscale>
<asrwt>0</asrwt>
<pdfrwt beam="2">  1       21 0.23015207E-02 0.10008405E+03</pdfrwt>
<pdfrwt beam="1">  1        2 0.12796877E+00 0.10008405E+03</pdfrwt>
<totfact> 0.40553760E+05</totfact>
</mgrwt>
</event>
<event>
 4    1  0.5142205E+003  0.1226763E+03  0.7546771E-02  0.1238746E+00
         21   -1    0    0  501  502  0.00000000000E+00  0.00000000000E+00  0.99664790841E+03  0.99664790841E+03  0.00000000000E+00 0. -1.
          2   -1    0    0  503    0 -0.00000000000E+00 -0.00000000000E+00 -0.10079732575E+03  0.10079732575E+03  0.00000000000E+00 0. -1.
         21    1    1    2  503  502 -0.24337561013E+02 -0.12023788126E+03  0.95388016501E+03  0.96173636417E+03  0.00000000000E+00 0. -1.
          2    1    1    2  501    0  0.24337561013E+02  0.12023788126E+03 -0.58029582349E+02  0.13570886999E+03  0.00000000000E+00 0. -1.
<mgrwt>
<rscale>  2 0.12267626E+03</rscale>
<asrwt>0</asrwt>
<pdfrwt beam="1">  1       21 0.15333044E+00 0.12267626E+03</pdfrwt>
<pdfrwt beam="2">  1        2 0.15507282E-01 0.12267626E+03</pdfrwt>
<totfact> 0.13444067E+03</totfact>
</mgrwt>
</event>
<event>
 4    1  0.5142205E+003  0.1080632E+03  0.7546771E-02  0.1264199E+00
          2   -1    0    0  503    0 -0.00000000000E+00  0.00000000000E+00  0.41570303599E+03  0.41570303599E+03  0.00000000000E+00 0.  1.
         21   -1    0    0  501  502  0.00000000000E+00 -0.00000000000E+00 -0.32150939342E+02  0.32150939342E+02  0.00000000000E+00 0.  1.
         21    1    1    2  503  502  0.38819556182E+02 -0.10084983335E+03  0.11220551212E+03  0.15578101225E+03  0.00000000000E+00 0.  1.
          2    1    1    2  501    0 -0.38819556182E+02  0.10084983335E+03  0.27134658453E+03  0.29207296308E+03  0.00000000000E+00 0.  1.
<mgrwt>
<rscale>  2 0.10806316E+03</rscale>
<asrwt>0</asrwt>
<pdfrwt beam="2">  1       21 0.49462986E-02 0.10806316E+03</pdfrwt>
<pdfrwt beam="1">  1        2 0.63954310E-01 0.10806316E+03</pdfrwt>
<totfact> 0.25461383E+05</totfact>
</mgrwt>
</event>
<event>
 4    1  0.5142205E+003  0.1076161E+03  0.7546771E-02  0.1265049E+00
          2   -1    0    0  503    0 -0.00000000000E+00  0.00000000000E+00  0.30326813847E+04  0.30326813847E+04  0.00000000000E+00 0.  1.
         21   -1    0    0  501  502  0.00000000000E+00 -0.00000000000E+00 -0.33586650351E+02  0.33586650351E+02  0.00000000000E+00 0. -1.
         21    1    1    2  503  502  0.76195661724E+01 -0.10734599455E+03  0.56201309961E+02  0.12140760922E+03  0.00000000000E+00 0. -1.
          2    1    1    2  501    0 -0.76195661724E+01  0.10734599455E+03  0.29428934244E+04  0.29448604259E+04  0.00000000000E+00 0.  1.
<mgrwt>
<rscale>  2 0.10761608E+03</rscale>
<asrwt>0</asrwt>
<pdfrwt beam="2">  1       21 0.51671794E-02 0.10761608E+03</pdfrwt>
<pdfrwt beam="1">  1        2 0.46656615E+00 0.10761608E+03</pdfrwt>
<totfact> 0.70999733E+03</totfact>
</mgrwt>
</event>
<event>
 4    1  0.5142205E+003  0.1874306E+03  0.7546771E-02  0.1160799E+00
         -1   -1    0    0    0  501 -0.00000000000E+00  0.00000000000E+00  0.18586859849E+04  0.18586859849E+04  0.00000000000E+00 0. -1.
         21   -1    0    0  501  502  0.00000000000E+00 -0.00000000000E+00 -0.34843642293E+02  0.34843642293E+02  0.00000000000E+00 0.  1.
         21    1    1    2  503  502 -0.12688571032E+02 -0.18700064596E+03  0.27149920468E+03  0.32991219978E+03  0.00000000000E+00 0.  1.
         -1    1    1    2    0  503  0.12688571032E+02  0.18700064596E+03  0.15523431380E+04  0.15636174275E+04  0.00000000000E+00 0. -1.
<mgrwt>
<rscale>  2 0.18743063E+03</rscale>
<asrwt>0</asrwt>
<pdfrwt beam="2">  1       21 0.53605618E-02 0.18743063E+03</pdfrwt>
<pdfrwt beam="1">  1       -1 0.28595161E+00 0.18743063E+03</pdfrwt>
<totfact> 0.10898264E+03</totfact>
</mgrwt>
</event>
<event>
 4    1  0.5142205E+003  0.1045574E+03  0.7546771E-02  0.1270994E+00
         21   -1    0    0  503  502  0.00000000000E+00  0.00000000000E+00  0.88680995342E+02  0.88680995342E+02  0.00000000000E+00 0.  1.
          1   -1    0    0  502    0 -0.00000000000E+00 -0.00000000000E+00 -0.56749831197E+03  0.56749831197E+03  0.00000000000E+00 0. -1.
         21    1    1    2  503  501  0.10385816606E+03 -0.12072091246E+02  0.50866817589E+02  0.11627418964E+03  0.00000000000E+00 0.  1.
          1    1    1    2  501    0 -0.10385816606E+03  0.12072091246E+02 -0.52968413421E+03  0.53990511767E+03  0.00000000000E+00 0. -1.
<mgrwt>
<rscale>  2 0.10455742E+03</rscale>
<asrwt>0</asrwt>
<pdfrwt beam="1">  1       21 0.13643230E-01 0.10455742E+03</pdfrwt>
<pdfrwt beam="2">  1        1 0.87307430E-01 0.10455742E+03</pdfrwt>
<totfact> 0.19850961E+04</totfact>
</mgrwt>
</event>
