<event>
 4    1  0.5694171E+003  0.1914410E+03  0.7546771E-02  0.1157168E+00
         21   -1    0    0  504  501  0.00000000000E+00  0.00000000000E+00  0.35337477878E+03  0.35337477878E+03  0.00000000000E+00 0. -1.
         21   -1    0    0  503  502 -0.00000000000E+00 -0.00000000000E+00 -0.20367720944E+03  0.20367720944E+03  0.00000000000E+00 0. -1.
         21    1    1    2  503  501 -0.80086310541E+02  0.17388459992E+03  0.26997521044E+03  0.33096266478E+03  0.00000000000E+00 0. -1.
         21    1    1    2  504  502  0.80086310541E+02 -0.17388459992E+03 -0.12027764110E+03  0.22608932344E+03  0.00000000000E+00 0. -1.
<mgrwt>
<rscale>  2 0.19144104E+03</rscale>
<asrwt>0</asrwt>
<pdfrwt beam="1">  1       21 0.54365350E-01 0.19144104E+03</pdfrwt>
<pdfrwt beam="2">  1       21 0.31334955E-01 0.19144104E+03</pdfrwt>
<totfact> 0.31307792E+04</totfact>
</mgrwt>
</event>
<event>
 4    1  0.5694171E+003  0.1054629E+03  0.7546771E-02  0.1269210E+00
         21   -1    0    0  503  501  0.00000000000E+00  0.00000000000E+00  0.93610720139E+02  0.93610720139E+02  0.00000000000E+00 0. -1.
         21   -1    0    0  504  502 -0.00000000000E+00 -0.00000000000E+00 -0.26548700858E+03  0.26548700858E+03  0.00000000000E+00 0.  1.
         21    1    1    2  503  502 -0.25168478215E+02 -0.10241571595E+03 -0.21939272442E+03  0.24342472902E+03  0.00000000000E+00 0.  1.
         21    1    1    2  504  501  0.25168478215E+02  0.10241571595E+03  0.47516435985E+02  0.11567299969E+03  0.00000000000E+00 0. -1.
<mgrwt>
<rscale>  2 0.10546294E+03</rscale>
<asrwt>0</asrwt>
<pdfrwt beam="1">  1       21 0.14401649E-01 0.10546294E+03</pdfrwt>
<pdfrwt beam="2">  1       21 0.40844156E-01 0.10546294E+03</pdfrwt>
<totfact> 0.24903064E+05</totfact>
</mgrwt>
</event>
<event>
 4    1  0.5694171E+003  0.1127095E+03  0.7546771E-02  0.1255633E+00
         21   -1    0    0  503  501  0.00000000000E+00  0.00000000000E+00  0.69096956496E+02  0.69096956496E+02  0.00000000000E+00 0. -1.
         21   -1    0    0  504  502 -0.00000000000E+00 -0.00000000000E+00 -0.18430944281E+03  0.18430944281E+03  0.00000000000E+00 0. -1.
         21    1    1    2  503  502  0.70182163683E+02  0.88192320012E+02 -0.51274856066E+02  0.12382460286E+03  0.00000000000E+00 0. -1.
         21    1    1    2  504  501 -0.70182163683E+02 -0.88192320012E+02 -0.63937630244E+02  0.12958179644E+03  0.00000000000E+00 0. -1.
<mgrwt>
<rscale>  2 0.11270946E+03</rscale>
<asrwt>0</asrwt>
<pdfrwt beam="1">  1       21 0.10630301E-01 0.11270946E+03</pdfrwt>
<pdfrwt beam="2">  1       21 0.28355299E-01 0.11270946E+03</pdfrwt>
<totfact> 0.86734017E+05</totfact>
</mgrwt>
</event>
<event>
 4    1  0.5694171E+003  0.2008880E+03  0.7546771E-02  0.1148992E+00
         21   -1    0    0  503  501  0.00000000000E+00  0.00000000000E+00  0.21325697695E+03  0.21325697695E+03  0.00000000000E+00 0. -1.
         21   -1    0    0  504  502 -0.00000000000E+00 -0.00000000000E+00 -0.19250469971E+03  0.19250469971E+03  0.00000000000E+00 0.  1.
         21    1    1    2  503  502 -0.20078770455E+03  0.63466760959E+01  0.36811259418E+02  0.20423283628E+03  0.00000000000E+00 0. -1.
         21    1    1    2  504  501  0.20078770455E+03 -0.63466760959E+01 -0.16058982176E+02  0.20152884038E+03  0.00000000000E+00 0.  1.
<mgrwt>
<rscale>  2 0.20088799E+03</rscale>
<asrwt>0</asrwt>
<pdfrwt beam="1">  1       21 0.32808766E-01 0.20088799E+03</pdfrwt>
<pdfrwt beam="2">  1       21 0.29616108E-01 0.20088799E+03</pdfrwt>
<totfact> 0.97386509E+04</totfact>
</mgrwt>
</event>
<event>
 4    1  0.5694171E+003  0.1122877E+03  0.7546771E-02  0.1256391E+00
         21   -1    0    0  504  501  0.00000000000E+00  0.00000000000E+00  0.14698599847E+02  0.14698599847E+02  0.00000000000E+00 0. -1.
         21   -1    0    0  503  502 -0.00000000000E+00 -0.00000000000E+00 -0.89635350615E+03  0.89635350615E+03  0.00000000000E+00 0. -1.
         21    1    1    2  503  501  0.41541132620E+02 -0.10432092582E+03 -0.53529477869E+03  0.54694517216E+03  0.00000000000E+00 0. -1.
         21    1    1    2  504  502 -0.41541132620E+02  0.10432092582E+03 -0.34636012762E+03  0.36410693383E+03  0.00000000000E+00 0. -1.
<mgrwt>
<rscale>  2 0.11228767E+03</rscale>
<asrwt>0</asrwt>
<pdfrwt beam="1">  1       21 0.22613234E-02 0.11228767E+03</pdfrwt>
<pdfrwt beam="2">  1       21 0.13790052E+00 0.11228767E+03</pdfrwt>
<totfact> 0.38342707E+05</totfact>
</mgrwt>
</event>
<event>
 4    1  0.5694171E+003  0.1221973E+03  0.7546771E-02  0.1239516E+00
         21   -1    0    0  503  501  0.00000000000E+00  0.00000000000E+00  0.28888221963E+02  0.28888221963E+02  0.00000000000E+00 0.  1.
         21   -1    0    0  501  502 -0.00000000000E+00 -0.00000000000E+00 -0.99473526695E+03  0.99473526695E+03  0.00000000000E+00 0.  1.
         21    1    1    2  503  504 -0.11062213185E+03 -0.51912609578E+02 -0.12819353828E+03  0.17710380670E+03  0.00000000000E+00 0.  1.
         21    1    1    2  504  502  0.11062213185E+03  0.51912609578E+02 -0.83765350671E+03  0.84651968222E+03  0.00000000000E+00 0.  1.
<mgrwt>
<rscale>  2 0.12219728E+03</rscale>
<asrwt>0</asrwt>
<pdfrwt beam="1">  1       21 0.44443414E-02 0.12219728E+03</pdfrwt>
<pdfrwt beam="2">  1       21 0.15303621E+00 0.12219728E+03</pdfrwt>
<totfact> 0.96532634E+04</totfact>
</mgrwt>
</event>
<event>
 4    1  0.5694171E+003  0.1097673E+03  0.7546771E-02  0.1261001E+00
         21   -1    0    0  503  501  0.00000000000E+00  0.00000000000E+00  0.61561810420E+02  0.61561810420E+02  0.00000000000E+00 0. -1.
         21   -1    0    0  501  502 -0.00000000000E+00 -0.00000000000E+00 -0.76206075281E+03  0.76206075281E+03  0.00000000000E+00 0.  1.
         21    1    1    2  503  504 -0.49889278472E+01 -0.10965391145E+03  0.47620095536E+01  0.10987058948E+03  0.00000000000E+00 0. -1.
         21    1    1    2  504  502  0.49889278472E+01  0.10965391145E+03 -0.70526095194E+03  0.71375197375E+03  0.00000000000E+00 0.  1.
<mgrwt>
<rscale>  2 0.10976734E+03</rscale>
<asrwt>0</asrwt>
<pdfrwt beam="1">  1       21 0.94710478E-02 0.10976734E+03</pdfrwt>
<pdfrwt beam="2">  1       21 0.11724011E+00 0.10976734E+03</pdfrwt>
<totfact> 0.52369500E+04</totfact>
</mgrwt>
</event>
<event>
 4    1  0.5694171E+003  0.1136840E+03  0.7546771E-02  0.1253896E+00
         21   -1    0    0  503  501  0.00000000000E+00  0.00000000000E+00  0.91932836763E+02  0.91932836763E+02  0.00000000000E+00 0. -1.
         21   -1    0    0  504  502 -0.00000000000E+00 -0.00000000000E+00 -0.27152094473E+03  0.27152094473E+03  0.00000000000E+00 0. -1.
         21    1    1    2  503  502  0.98438827001E+02  0.56866852662E+02  0.36404110148E+02  0.11937043532E+03  0.00000000000E+00 0. -1.
         21    1    1    2  504  501 -0.98438827001E+02 -0.56866852662E+02 -0.21599221812E+03  0.24408334618E+03  0.00000000000E+00 0. -1.
<mgrwt>
<rscale>  2 0.11368395E+03</rscale>
<asrwt>0</asrwt>
<pdfrwt beam="1">  1       21 0.14143514E-01 0.11368395E+03</pdfrwt>
<pdfrwt beam="2">  1       21 0.41772452E-01 0.11368395E+03</pdfrwt>
<totfact> 0.24544508E+05</totfact>
</mgrwt>
</event>
<event>
 4    1  0.5694171E+003  0.1199819E+03  0.7546771E-02  0.1243127E+00
         21   -1    0    0  504  501  0.00000000000E+00  0.00000000000E+00  0.46170267745E+03  0.46170267745E+03  0.00000000000E+00 0. -1.
         21   -1    0    0  503  502 -0.00000000000E+00 -0.00000000000E+00 -0.38299538546E+02  0.38299538546E+02  0.00000000000E+00 0. -1.
         21    1    1    2  503  501  0.40334016832E+01 -0.11991409958E+03  0.31949350508E+03  0.34127959124E+03  0.00000000000E+00 0. -1.
         21    1    1    2  504  502 -0.40334016832E+01  0.11991409958E+03  0.10390963382E+03  0.15872262476E+03  0.00000000000E+00 0. -1.
<mgrwt>
<rscale>  2 0.11998191E+03</rscale>
<asrwt>0</asrwt>
<pdfrwt beam="1">  1       21 0.71031177E-01 0.11998191E+03</pdfrwt>
<pdfrwt beam="2">  1       21 0.58922370E-02 0.11998191E+03</pdfrwt>
<totfact> 0.37010193E+05</totfact>
</mgrwt>
</event>
<event>
 4    1  0.5694171E+003  0.1347624E+03  0.7546771E-02  0.1220555E+00
         21   -1    0    0  503  501  0.00000000000E+00  0.00000000000E+00  0.12136183697E+03  0.12136183697E+03  0.00000000000E+00 0. -1.
         21   -1    0    0  504  502 -0.00000000000E+00 -0.00000000000E+00 -0.16586998818E+03  0.16586998818E+03  0.00000000000E+00 0. -1.
         21    1    1    2  503  502 -0.12604906244E+02  0.13417162288E+03  0.22666175115E+02  0.13665527264E+03  0.00000000000E+00 0. -1.
         21    1    1    2  504  501  0.12604906244E+02 -0.13417162288E+03 -0.67174326325E+02  0.15057655250E+03  0.00000000000E+00 0. -1.
<mgrwt>
<rscale>  2 0.13476241E+03</rscale>
<asrwt>0</asrwt>
<pdfrwt beam="1">  1       21 0.18671052E-01 0.13476241E+03</pdfrwt>
<pdfrwt beam="2">  1       21 0.25518460E-01 0.13476241E+03</pdfrwt>
<totfact> 0.38589384E+05</totfact>
</mgrwt>
</event>
<event>
 4    1  0.5694171E+003  0.1164584E+03  0.7546771E-02  0.1249057E+00
         21   -1    0    0  504  501  0.00000000000E+00  0.00000000000E+00  0.44044296713E+02  0.44044296713E+02  0.00000000000E+00 0. -1.
         21   -1    0    0  503  502 -0.00000000000E+00 -0.00000000000E+00 -0.46298249498E+03  0.46298249498E+03  0.00000000000E+00 0. -1.
         21    1    1    2  503  501  0.82015877649E+02  0.82679803472E+02 -0.62759610341E+02  0.13229256509E+03  0.00000000000E+00 0. -1.
         21    1    1    2  504  502 -0.82015877649E+02 -0.82679803472E+02 -0.35617858792E+03  0.37473422660E+03  0.00000000000E+00 0. -1.
<mgrwt>
<rscale>  2 0.11645838E+03</rscale>
<asrwt>0</asrwt>
<pdfrwt beam="1">  1       21 0.67760459E-02 0.11645838E+03</pdfrwt>
<pdfrwt beam="2">  1       21 0.71228073E-01 0.11645838E+03</pdfrwt>
<totfact> 0.29040139E+05</totfact>
</mgrwt>
</event>
<event>
 4    1  0.5694171E+003  0.1162226E+03  0.7546771E-02  0.1249462E+00
         21   -1    0    0  502  501  0.00000000000E+00  0.00000000000E+00  0.15046101398E+03  0.15046101398E+03  0.00000000000E+00 0.  1.
         21   -1    0    0  503  502 -0.00000000000E+00 -0.00000000000E+00 -0.11327093692E+03  0.11327093692E+03  0.00000000000E+00 0.  1.
         21    1    1    2  503  504 -0.48543631647E+01  0.11612113625E+03 -0.41462439143E+02  0.12339698937E+03  0.00000000000E+00 0.  1.
         21    1    1    2  504  501  0.48543631647E+01 -0.11612113625E+03  0.78652516197E+02  0.14033496154E+03  0.00000000000E+00 0.  1.
<mgrwt>
<rscale>  2 0.11622256E+03</rscale>
<asrwt>0</asrwt>
<pdfrwt beam="1">  1       21 0.23147848E-01 0.11622256E+03</pdfrwt>
<pdfrwt beam="2">  1       21 0.17426298E-01 0.11622256E+03</pdfrwt>
<totfact> 0.52689650E+05</totfact>
</mgrwt>
</event>
<event>
 4    1  0.5694171E+003  0.1218658E+03  0.7546771E-02  0.1240050E+00
         21   -1    0    0  504  501  0.00000000000E+00  0.00000000000E+00  0.50560677509E+02  0.50560677509E+02  0.00000000000E+00 0. -1.
         21   -1    0    0  501  502 -0.00000000000E+00 -0.00000000000E+00 -0.71716149103E+03  0.71716149103E+03  0.00000000000E+00 0. -1.
         21    1    1    2  503  502  0.52932604528E+01 -0.12175079381E+03 -0.62825577413E+03  0.63996608670E+03  0.00000000000E+00 0. -1.
         21    1    1    2  504  503 -0.52932604528E+01  0.12175079381E+03 -0.38345039391E+02  0.12775608184E+03  0.00000000000E+00 0. -1.
<mgrwt>
<rscale>  2 0.12186580E+03</rscale>
<asrwt>0</asrwt>
<pdfrwt beam="1">  1       21 0.77785660E-02 0.12186580E+03</pdfrwt>
<pdfrwt beam="2">  1       21 0.11033253E+00 0.12186580E+03</pdfrwt>
<totfact> 0.84454837E+04</totfact>
</mgrwt>
</event>
<event>
 4    1  0.5694171E+003  0.1115974E+03  0.7546771E-02  0.1257640E+00
         21   -1    0    0  503  501  0.00000000000E+00  0.00000000000E+00  0.30337026133E+03  0.30337026133E+03  0.00000000000E+00 0.  1.
         21   -1    0    0  504  502 -0.00000000000E+00 -0.00000000000E+00 -0.42856745120E+02  0.42856745120E+02  0.00000000000E+00 0.  1.
         21    1    1    2  503  502 -0.47231317928E+02  0.10110973040E+03  0.94732767017E+02  0.14638398861E+03  0.00000000000E+00 0.  1.
         21    1    1    2  504  501  0.47231317928E+02 -0.10110973040E+03  0.16578074919E+03  0.19984301783E+03  0.00000000000E+00 0.  1.
<mgrwt>
<rscale>  2 0.11159738E+03</rscale>
<asrwt>0</asrwt>
<pdfrwt beam="1">  1       21 0.46672347E-01 0.11159738E+03</pdfrwt>
<pdfrwt beam="2">  1       21 0.65933456E-02 0.11159738E+03</pdfrwt>
<totfact> 0.74074870E+05</totfact>
</mgrwt>
</event>
<event>
 4    1  0.5694171E+003  0.1471313E+03  0.7546771E-02  0.1204043E+00
         21   -1    0    0  502  501  0.00000000000E+00  0.00000000000E+00  0.14863098661E+04  0.14863098661E+04  0.00000000000E+00 0. -1.
         21   -1    0    0  504  502 -0.00000000000E+00 -0.00000000000E+00 -0.73074336392E+02  0.73074336392E+02  0.00000000000E+00 0. -1.
         21    1    1    2  503  501  0.87890642294E+02  0.11799516364E+03  0.14042948808E+04  0.14119814927E+04  0.00000000000E+00 0. -1.
         21    1    1    2  504  503 -0.87890642294E+02 -0.11799516364E+03  0.89406489482E+01  0.14740270978E+03  0.00000000000E+00 0. -1.
<mgrwt>
<rscale>  2 0.14713131E+03</rscale>
<asrwt>0</asrwt>
<pdfrwt beam="1">  1       21 0.22866303E+00 0.14713131E+03</pdfrwt>
<pdfrwt beam="2">  1       21 0.11242207E-01 0.14713131E+03</pdfrwt>
<totfact> 0.61649908E+03</totfact>
</mgrwt>
</event>
<event>
 4    1  0.5694171E+003  0.1131884E+03  0.7546771E-02  0.1254777E+00
         21   -1    0    0  503  501  0.00000000000E+00  0.00000000000E+00  0.31762979641E+03  0.31762979641E+03  0.00000000000E+00 0.  1.
         21   -1    0    0  504  502 -0.00000000000E+00 -0.00000000000E+00 -0.16970436316E+03  0.16970436316E+03  0.00000000000E+00 0.  1.
         21    1    1    2  503  502  0.17992683360E+02 -0.11174916691E+03 -0.13878553250E+03  0.17908946645E+03  0.00000000000E+00 0.  1.
         21    1    1    2  504  501 -0.17992683360E+02  0.11174916691E+03  0.28671096575E+03  0.30824469313E+03  0.00000000000E+00 0.  1.
<mgrwt>
<rscale>  2 0.11318840E+03</rscale>
<asrwt>0</asrwt>
<pdfrwt beam="1">  1       21 0.48866123E-01 0.11318840E+03</pdfrwt>
<pdfrwt beam="2">  1       21 0.26108364E-01 0.11318840E+03</pdfrwt>
<totfact> 0.57942919E+04</totfact>
</mgrwt>
</event>
<event>
 4    1  0.5694171E+003  0.1571877E+03  0.7546771E-02  0.1191909E+00
         21   -1    0    0  503  501  0.00000000000E+00  0.00000000000E+00  0.45332212058E+02  0.45332212058E+02  0.00000000000E+00 0.  1.
         21   -1    0    0  504  502 -0.00000000000E+00 -0.00000000000E+00 -0.55322326129E+03  0.55322326129E+03  0.00000000000E+00 0.  1.
         21    1    1    2  503  502  0.15718563777E+03  0.80376052497E+00 -0.21755169537E+03  0.26839655532E+03  0.00000000000E+00 0.  1.
         21    1    1    2  504  501 -0.15718563777E+03 -0.80376052497E+00 -0.29033935386E+03  0.33015891802E+03  0.00000000000E+00 0.  1.
<mgrwt>
<rscale>  2 0.15718769E+03</rscale>
<asrwt>0</asrwt>
<pdfrwt beam="1">  1       21 0.69741863E-02 0.15718769E+03</pdfrwt>
<pdfrwt beam="2">  1       21 0.85111273E-01 0.15718769E+03</pdfrwt>
<totfact> 0.18401415E+05</totfact>
</mgrwt>
</event>
<event>
 4    1  0.5694171E+003  0.1073418E+03  0.7546771E-02  0.1265573E+00
         21   -1    0    0  503  501  0.00000000000E+00  0.00000000000E+00  0.41096768881E+02  0.41096768881E+02  0.00000000000E+00 0.  1.
         21   -1    0    0  501  502 -0.00000000000E+00 -0.00000000000E+00 -0.51517704754E+03  0.51517704754E+03  0.00000000000E+00 0. -1.
         21    1    1    2  503  504  0.95127850410E+02 -0.49728862428E+02 -0.49265608536E+02  0.11810744205E+03  0.00000000000E+00 0.  1.
         21    1    1    2  504  502 -0.95127850410E+02  0.49728862428E+02 -0.42481467012E+03  0.43816637437E+03  0.00000000000E+00 0. -1.
<mgrwt>
<rscale>  2 0.10734183E+03</rscale>
<asrwt>0</asrwt>
<pdfrwt beam="1">  1       21 0.63225798E-02 0.10734183E+03</pdfrwt>
<pdfrwt beam="2">  1       21 0.79258007E-01 0.10734183E+03</pdfrwt>
<totfact> 0.25883701E+05</totfact>
</mgrwt>
</event>
<event>
 4    1  0.5694171E+003  0.1016421E+03  0.7546771E-02  0.1276880E+00
         21   -1    0    0  502  501  0.00000000000E+00  0.00000000000E+00  0.90737689923E+02  0.90737689923E+02  0.00000000000E+00 0. -1.
         21   -1    0    0  504  502 -0.00000000000E+00 -0.00000000000E+00 -0.11486240323E+03  0.11486240323E+03  0.00000000000E+00 0. -1.
         21    1    1    2  503  501 -0.16614902775E+02 -0.10027488480E+03 -0.24438648059E+01  0.10167143153E+03  0.00000000000E+00 0. -1.
         21    1    1    2  504  503  0.16614902775E+02  0.10027488480E+03 -0.21680848505E+02  0.10392866162E+03  0.00000000000E+00 0. -1.
<mgrwt>
<rscale>  2 0.10164206E+03</rscale>
<asrwt>0</asrwt>
<pdfrwt beam="1">  1       21 0.13959645E-01 0.10164206E+03</pdfrwt>
<pdfrwt beam="2">  1       21 0.17671139E-01 0.10164206E+03</pdfrwt>
<totfact> 0.12902416E+06</totfact>
</mgrwt>
</event>
<event>
 4    1  0.5694171E+003  0.1243530E+03  0.7546771E-02  0.1236084E+00
         21   -1    0    0  504  501  0.00000000000E+00  0.00000000000E+00  0.60951076664E+02  0.60951076664E+02  0.00000000000E+00 0.  1.
         21   -1    0    0  503  502 -0.00000000000E+00 -0.00000000000E+00 -0.83389201851E+03  0.83389201851E+03  0.00000000000E+00 0. -1.
         21    1    1    2  503  501 -0.83531184335E+01  0.12407209452E+03 -0.13267077868E+02  0.12505868455E+03  0.00000000000E+00 0.  1.
         21    1    1    2  504  502  0.83531184335E+01 -0.12407209452E+03 -0.75967386397E+03  0.76978441062E+03  0.00000000000E+00 0. -1.
<mgrwt>
<rscale>  2 0.12435296E+03</rscale>
<asrwt>0</asrwt>
<pdfrwt beam="1">  1       21 0.93770895E-02 0.12435296E+03</pdfrwt>
<pdfrwt beam="2">  1       21 0.12829107E+00 0.12435296E+03</pdfrwt>
<totfact> 0.42316466E+04</totfact>
</mgrwt>
</event>
<event>
 4    1  0.5694171E+003  0.1303906E+03  0.7546771E-02  0.1226877E+00
         21   -1    0    0  504  501  0.00000000000E+00  0.00000000000E+00  0.19312150353E+03  0.19312150353E+03  0.00000000000E+00 0.  1.
         21   -1    0    0  503  502 -0.00000000000E+00 -0.00000000000E+00 -0.93103758594E+02  0.93103758594E+02  0.00000000000E+00 0.  1.
         21    1    1    2  503  501 -0.11858668702E+03 -0.54211721489E+02  0.16621123318E+02  0.13144571056E+03  0.00000000000E+00 0.  1.
         21    1    1    2  504  502  0.11858668702E+03  0.54211721489E+02  0.83396621614E+02  0.15477955156E+03  0.00000000000E+00 0.  1.
<mgrwt>
<rscale>  2 0.13039062E+03</rscale>
<asrwt>0</asrwt>
<pdfrwt beam="1">  1       21 0.29711001E-01 0.13039062E+03</pdfrwt>
<pdfrwt beam="2">  1       21 0.14323655E-01 0.13039062E+03</pdfrwt>
<totfact> 0.46726592E+05</totfact>
</mgrwt>
</event>
<event>
 4    1  0.5694171E+003  0.1132269E+03  0.7546771E-02  0.1254708E+00
         21   -1    0    0  504  501  0.00000000000E+00  0.00000000000E+00  0.29727365347E+02  0.29727365347E+02  0.00000000000E+00 0.  1.
         21   -1    0    0  503  502 -0.00000000000E+00 -0.00000000000E+00 -0.46197827839E+03  0.46197827839E+03  0.00000000000E+00 0.  1.
         21    1    1    2  503  501  0.88441448093E+02  0.70699724417E+02 -0.15273337891E+03  0.19012581573E+03  0.00000000000E+00 0.  1.
         21    1    1    2  504  502 -0.88441448093E+02 -0.70699724417E+02 -0.27951753414E+03  0.30157982801E+03  0.00000000000E+00 0.  1.
<mgrwt>
<rscale>  2 0.11322694E+03</rscale>
<asrwt>0</asrwt>
<pdfrwt beam="1">  1       21 0.45734413E-02 0.11322694E+03</pdfrwt>
<pdfrwt beam="2">  1       21 0.71073574E-01 0.11322694E+03</pdfrwt>
<totfact> 0.56601731E+05</totfact>
</mgrwt>
</event>
<event>
 4    1  0.5694171E+003  0.1327744E+03  0.7546771E-02  0.1223396E+00
         21   -1    0    0  502  501  0.00000000000E+00  0.00000000000E+00  0.16848066854E+03  0.16848066854E+03  0.00000000000E+00 0. -1.
         21   -1    0    0  504  502 -0.00000000000E+00 -0.00000000000E+00 -0.61810491946E+03  0.61810491946E+03  0.00000000000E+00 0.  1.
         21    1    1    2  503  501  0.13253999125E+03 -0.78855099409E+01  0.13364915546E+03  0.18839088965E+03  0.00000000000E+00 0. -1.
         21    1    1    2  504  503 -0.13253999125E+03  0.78855099409E+01 -0.58327340638E+03  0.59819469835E+03  0.00000000000E+00 0.  1.
<mgrwt>
<rscale>  2 0.13277436E+03</rscale>
<asrwt>0</asrwt>
<pdfrwt beam="1">  1       21 0.25920102E-01 0.13277436E+03</pdfrwt>
<pdfrwt beam="2">  1       21 0.95093067E-01 0.13277436E+03</pdfrwt>
<totfact> 0.13645336E+04</totfact>
</mgrwt>
</event>
<event>
 4    1  0.5694171E+003  0.1057582E+03  0.7546771E-02  0.1268633E+00
         21   -1    0    0  503  501  0.00000000000E+00  0.00000000000E+00  0.80973385818E+02  0.80973385818E+02  0.00000000000E+00 0.  1.
         21   -1    0    0  504  502 -0.00000000000E+00 -0.00000000000E+00 -0.44232329205E+03  0.44232329205E+03  0.00000000000E+00 0. -1.
         21    1    1    2  503  502 -0.96342211727E+02  0.43623087917E+02  0.36306896591E+02  0.11181675322E+03  0.00000000000E+00 0.  1.
         21    1    1    2  504  501  0.96342211727E+02 -0.43623087917E+02 -0.39765680282E+03  0.41147992465E+03  0.00000000000E+00 0. -1.
<mgrwt>
<rscale>  2 0.10575819E+03</rscale>
<asrwt>0</asrwt>
<pdfrwt beam="1">  1       21 0.12457444E-01 0.10575819E+03</pdfrwt>
<pdfrwt beam="2">  1       21 0.68049737E-01 0.10575819E+03</pdfrwt>
<totfact> 0.11197573E+05</totfact>
</mgrwt>
</event>
<event>
 4    1  0.5694171E+003  0.1230748E+03  0.7546771E-02  0.1238109E+00
         21   -1    0    0  503  501  0.00000000000E+00  0.00000000000E+00  0.20923843471E+03  0.20923843471E+03  0.00000000000E+00 0.  1.
         21   -1    0    0  504  502 -0.00000000000E+00 -0.00000000000E+00 -0.32133574328E+03  0.32133574328E+03  0.00000000000E+00 0.  1.
         21    1    1    2  503  502  0.11638447332E+03 -0.40025798020E+02 -0.28954832960E+03  0.31461984253E+03  0.00000000000E+00 0.  1.
         21    1    1    2  504  501 -0.11638447332E+03  0.40025798020E+02  0.17745102103E+03  0.21595433546E+03  0.00000000000E+00 0.  1.
<mgrwt>
<rscale>  2 0.12307482E+03</rscale>
<asrwt>0</asrwt>
<pdfrwt beam="1">  1       21 0.32190528E-01 0.12307482E+03</pdfrwt>
<pdfrwt beam="2">  1       21 0.49436268E-01 0.12307482E+03</pdfrwt>
<totfact> 0.37643140E+04</totfact>
</mgrwt>
</event>
<event>
 4    1  0.5694171E+003  0.1309083E+03  0.7546771E-02  0.1226114E+00
         21   -1    0    0  504  501  0.00000000000E+00  0.00000000000E+00  0.16295314644E+03  0.16295314644E+03  0.00000000000E+00 0.  1.
         21   -1    0    0  501  502 -0.00000000000E+00 -0.00000000000E+00 -0.36262459078E+03  0.36262459078E+03  0.00000000000E+00 0.  1.
         21    1    1    2  503  502  0.60498361322E+02  0.11609017138E+03 -0.32126386353E+03  0.34691129936E+03  0.00000000000E+00 0.  1.
         21    1    1    2  504  503 -0.60498361322E+02 -0.11609017138E+03  0.12159241919E+03  0.17866643786E+03  0.00000000000E+00 0.  1.
<mgrwt>
<rscale>  2 0.13090829E+03</rscale>
<asrwt>0</asrwt>
<pdfrwt beam="1">  1       21 0.25069715E-01 0.13090829E+03</pdfrwt>
<pdfrwt beam="2">  1       21 0.55788398E-01 0.13090829E+03</pdfrwt>
<totfact> 0.47059827E+04</totfact>
</mgrwt>
</event>
<event>
 4    1  0.5694171E+003  0.1687098E+03  0.7546771E-02  0.1179200E+00
         21   -1    0    0  504  501  0.00000000000E+00  0.00000000000E+00  0.15166318082E+03  0.15166318082E+03  0.00000000000E+00 0.  1.
         21   -1    0    0  501  502 -0.00000000000E+00 -0.00000000000E+00 -0.26699796742E+03  0.26699796742E+03  0.00000000000E+00 0. -1.
         21    1    1    2  503  502 -0.73101877163E+02 -0.15204965311E+03 -0.17176735310E+03  0.24076337979E+03  0.00000000000E+00 0. -1.
         21    1    1    2  504  503  0.73101877163E+02  0.15204965311E+03  0.56432566494E+02  0.17789776845E+03  0.00000000000E+00 0.  1.
<mgrwt>
<rscale>  2 0.16870976E+03</rscale>
<asrwt>0</asrwt>
<pdfrwt beam="1">  1       21 0.23332797E-01 0.16870976E+03</pdfrwt>
<pdfrwt beam="2">  1       21 0.41076610E-01 0.16870976E+03</pdfrwt>
<totfact> 0.99509467E+04</totfact>
</mgrwt>
</event>
<event>
 4    1  0.5694171E+003  0.1041256E+03  0.7546771E-02  0.1271852E+00
         21   -1    0    0  504  501  0.00000000000E+00  0.00000000000E+00  0.13932124028E+04  0.13932124028E+04  0.00000000000E+00 0. -1.
         21   -1    0    0  503  502 -0.00000000000E+00 -0.00000000000E+00 -0.78085951806E+01  0.78085951806E+01  0.00000000000E+00 0. -1.
         21    1    1    2  503  501 -0.79352789249E+02 -0.67418660510E+02  0.65190961986E+03  0.66017292690E+03  0.00000000000E+00 0. -1.
         21    1    1    2  504  502  0.79352789249E+02  0.67418660510E+02  0.73349418780E+03  0.74084807112E+03  0.00000000000E+00 0. -1.
<mgrwt>
<rscale>  2 0.10412560E+03</rscale>
<asrwt>0</asrwt>
<pdfrwt beam="1">  1       21 0.21434017E+00 0.10412560E+03</pdfrwt>
<pdfrwt beam="2">  1       21 0.12013234E-02 0.10412560E+03</pdfrwt>
<totfact> 0.31987807E+05</totfact>
</mgrwt>
</event>
<event>
 4    1  0.5694171E+003  0.1342128E+03  0.7546771E-02  0.1221335E+00
         21   -1    0    0  502  501  0.00000000000E+00  0.00000000000E+00  0.66844229607E+03  0.66844229607E+03  0.00000000000E+00 0.  1.
         21   -1    0    0  504  502 -0.00000000000E+00 -0.00000000000E+00 -0.10198755833E+03  0.10198755833E+03  0.00000000000E+00 0.  1.
         21    1    1    2  503  501  0.12417108480E+02 -0.13363717947E+03  0.61365403584E+03  0.62815949887E+03  0.00000000000E+00 0.  1.
         21    1    1    2  504  503 -0.12417108480E+02  0.13363717947E+03 -0.47199298100E+02  0.14227035553E+03  0.00000000000E+00 0.  1.
<mgrwt>
<rscale>  2 0.13421282E+03</rscale>
<asrwt>0</asrwt>
<pdfrwt beam="1">  1       21 0.10283727E+00 0.13421282E+03</pdfrwt>
<pdfrwt beam="2">  1       21 0.15690394E-01 0.13421282E+03</pdfrwt>
<totfact> 0.28768170E+04</totfact>
</mgrwt>
</event>
<event>
 4    1  0.5694171E+003  0.1163715E+03  0.7546771E-02  0.1249206E+00
         21   -1    0    0  503  501  0.00000000000E+00  0.00000000000E+00  0.90138753910E+02  0.90138753910E+02  0.00000000000E+00 0. -1.
         21   -1    0    0  504  502 -0.00000000000E+00 -0.00000000000E+00 -0.15332750209E+03  0.15332750209E+03  0.00000000000E+00 0. -1.
         21    1    1    2  503  502  0.42162547949E+02 -0.10846498146E+03 -0.14316468116E+02  0.11724885463E+03  0.00000000000E+00 0. -1.
         21    1    1    2  504  501 -0.42162547949E+02  0.10846498146E+03 -0.48872280069E+02  0.12621740138E+03  0.00000000000E+00 0. -1.
<mgrwt>
<rscale>  2 0.11637153E+03</rscale>
<asrwt>0</asrwt>
<pdfrwt beam="1">  1       21 0.13867501E-01 0.11637153E+03</pdfrwt>
<pdfrwt beam="2">  1       21 0.23588846E-01 0.11637153E+03</pdfrwt>
<totfact> 0.76783771E+05</totfact>
</mgrwt>
</event>
<event>
 4    1  0.5694171E+003  0.1097905E+03  0.7546771E-02  0.1260958E+00
         21   -1    0    0  503  501  0.00000000000E+00  0.00000000000E+00  0.67369187367E+02  0.67369187367E+02  0.00000000000E+00 0. -1.
         21   -1    0    0  504  502 -0.00000000000E+00 -0.00000000000E+00 -0.18301010074E+03  0.18301010074E+03  0.00000000000E+00 0. -1.
         21    1    1    2  503  502  0.71513189205E+02 -0.83305573581E+02 -0.39113935513E+02  0.11654979524E+03  0.00000000000E+00 0. -1.
         21    1    1    2  504  501 -0.71513189205E+02  0.83305573581E+02 -0.76526977864E+02  0.13382949287E+03  0.00000000000E+00 0. -1.
<mgrwt>
<rscale>  2 0.10979050E+03</rscale>
<asrwt>0</asrwt>
<pdfrwt beam="1">  1       21 0.10364491E-01 0.10979050E+03</pdfrwt>
<pdfrwt beam="2">  1       21 0.28155400E-01 0.10979050E+03</pdfrwt>
<totfact> 0.91875115E+05</totfact>
</mgrwt>
</event>
<event>
 4    1  0.5694171E+003  0.1085914E+03  0.7546771E-02  0.1263201E+00
         21   -1    0    0  504  501  0.00000000000E+00  0.00000000000E+00  0.87258042967E+03  0.87258042967E+03  0.00000000000E+00 0.  1.
         21   -1    0    0  501  502 -0.00000000000E+00 -0.00000000000E+00 -0.14028652506E+02  0.14028652506E+02  0.00000000000E+00 0.  1.
         21    1    1    2  503  502 -0.10630840997E+03  0.22149802313E+02  0.34437114022E+03  0.36108665718E+03  0.00000000000E+00 0.  1.
         21    1    1    2  504  503  0.10630840997E+03 -0.22149802313E+02  0.51418063694E+03  0.52552242499E+03  0.00000000000E+00 0.  1.
<mgrwt>
<rscale>  2 0.10859140E+03</rscale>
<asrwt>0</asrwt>
<pdfrwt beam="1">  1       21 0.13424310E+00 0.10859140E+03</pdfrwt>
<pdfrwt beam="2">  1       21 0.21582549E-02 0.10859140E+03</pdfrwt>
<totfact> 0.44258453E+05</totfact>
</mgrwt>
</event>
<event>
 4    1  0.5694171E+003  0.1231320E+03  0.7546771E-02  0.1238018E+00
         21   -1    0    0  504  501  0.00000000000E+00  0.00000000000E+00  0.65258331273E+03  0.65258331273E+03  0.00000000000E+00 0.  1.
         21   -1    0    0  501  502 -0.00000000000E+00 -0.00000000000E+00 -0.90119264841E+02  0.90119264841E+02  0.00000000000E+00 0.  1.
         21    1    1    2  503  502  0.12196998318E+03 -0.16876314673E+02 -0.38690262102E+02  0.12906751402E+03  0.00000000000E+00 0.  1.
         21    1    1    2  504  503 -0.12196998318E+03  0.16876314673E+02  0.60115430999E+03  0.61363506355E+03  0.00000000000E+00 0.  1.
<mgrwt>
<rscale>  2 0.12313199E+03</rscale>
<asrwt>0</asrwt>
<pdfrwt beam="1">  1       21 0.10039743E+00 0.12313199E+03</pdfrwt>
<pdfrwt beam="2">  1       21 0.13864503E-01 0.12313199E+03</pdfrwt>
<totfact> 0.38323452E+04</totfact>
</mgrwt>
</event>
<event>
 4    1  0.5694171E+003  0.1010544E+03  0.7546771E-02  0.1278094E+00
         21   -1    0    0  503  501  0.00000000000E+00  0.00000000000E+00  0.13678358941E+03  0.13678358941E+03  0.00000000000E+00 0.  1.
         21   -1    0    0  504  502 -0.00000000000E+00 -0.00000000000E+00 -0.77583988734E+02  0.77583988734E+02  0.00000000000E+00 0.  1.
         21    1    1    2  503  502  0.23872518330E+02 -0.98194198352E+02  0.50414721245E+02  0.11293202309E+03  0.00000000000E+00 0.  1.
         21    1    1    2  504  501 -0.23872518330E+02  0.98194198352E+02  0.87848794263E+01  0.10143555505E+03  0.00000000000E+00 0.  1.
<mgrwt>
<rscale>  2 0.10105443E+03</rscale>
<asrwt>0</asrwt>
<pdfrwt beam="1">  1       21 0.21043629E-01 0.10105443E+03</pdfrwt>
<pdfrwt beam="2">  1       21 0.11935998E-01 0.10105443E+03</pdfrwt>
<totfact> 0.12363833E+06</totfact>
</mgrwt>
</event>
<event>
 4    1  0.5694171E+003  0.1127380E+03  0.7546771E-02  0.1255582E+00
         21   -1    0    0  503  501  0.00000000000E+00  0.00000000000E+00  0.38783950663E+02  0.38783950663E+02  0.00000000000E+00 0.  1.
         21   -1    0    0  504  502 -0.00000000000E+00 -0.00000000000E+00 -0.39059110754E+03  0.39059110754E+03  0.00000000000E+00 0. -1.
         21    1    1    2  503  502  0.10751040493E+03  0.33931820663E+02 -0.89762826599E+02  0.14410836430E+03  0.00000000000E+00 0.  1.
         21    1    1    2  504  501 -0.10751040493E+03 -0.33931820663E+02 -0.26204433028E+03  0.28526669391E+03  0.00000000000E+00 0. -1.
<mgrwt>
<rscale>  2 0.11273800E+03</rscale>
<asrwt>0</asrwt>
<pdfrwt beam="1">  1       21 0.59667619E-02 0.11273800E+03</pdfrwt>
<pdfrwt beam="2">  1       21 0.60090937E-01 0.11273800E+03</pdfrwt>
<totfact> 0.51945072E+05</totfact>
</mgrwt>
</event>
<event>
 4    1  0.5694171E+003  0.1182407E+03  0.7546771E-02  0.1246028E+00
         21   -1    0    0  503  501  0.00000000000E+00  0.00000000000E+00  0.65985434375E+03  0.65985434375E+03  0.00000000000E+00 0.  1.
         21   -1    0    0  504  502 -0.00000000000E+00 -0.00000000000E+00 -0.18378555607E+03  0.18378555607E+03  0.00000000000E+00 0. -1.
         21    1    1    2  503  502 -0.42929402812E+02 -0.11017225613E+03 -0.15872635918E+03  0.19792654381E+03  0.00000000000E+00 0. -1.
         21    1    1    2  504  501  0.42929402812E+02  0.11017225613E+03  0.63479514686E+03  0.64571335600E+03  0.00000000000E+00 0.  1.
<mgrwt>
<rscale>  2 0.11824069E+03</rscale>
<asrwt>0</asrwt>
<pdfrwt beam="1">  1       21 0.10151605E+00 0.11824069E+03</pdfrwt>
<pdfrwt beam="2">  1       21 0.28274701E-01 0.11824069E+03</pdfrwt>
<totfact> 0.10062584E+04</totfact>
</mgrwt>
</event>
<event>
 4    1  0.5694171E+003  0.1019416E+03  0.7546771E-02  0.1276265E+00
         21   -1    0    0  502  501  0.00000000000E+00  0.00000000000E+00  0.13516337765E+03  0.13516337765E+03  0.00000000000E+00 0. -1.
         21   -1    0    0  504  502 -0.00000000000E+00 -0.00000000000E+00 -0.31736815639E+03  0.31736815639E+03  0.00000000000E+00 0. -1.
         21    1    1    2  503  501 -0.79624418044E+02  0.63655617604E+02  0.10585812962E+03  0.14696267964E+03  0.00000000000E+00 0. -1.
         21    1    1    2  504  503  0.79624418044E+02 -0.63655617604E+02 -0.28806290837E+03  0.30556885440E+03  0.00000000000E+00 0. -1.
<mgrwt>
<rscale>  2 0.10194158E+03</rscale>
<asrwt>0</asrwt>
<pdfrwt beam="1">  1       21 0.20794366E-01 0.10194158E+03</pdfrwt>
<pdfrwt beam="2">  1       21 0.48825870E-01 0.10194158E+03</pdfrwt>
<totfact> 0.89325086E+04</totfact>
</mgrwt>
</event>
<event>
 4    1  0.5694171E+003  0.1012893E+03  0.7546771E-02  0.1277608E+00
         21   -1    0    0  502  501  0.00000000000E+00  0.00000000000E+00  0.31923043755E+03  0.31923043755E+03  0.00000000000E+00 0. -1.
         21   -1    0    0  504  502 -0.00000000000E+00 -0.00000000000E+00 -0.10881810439E+03  0.10881810439E+03  0.00000000000E+00 0. -1.
         21    1    1    2  503  501 -0.30485161149E+02  0.96592856643E+02  0.28486680298E+03  0.30233858577E+03  0.00000000000E+00 0. -1.
         21    1    1    2  504  503  0.30485161149E+02 -0.96592856643E+02 -0.74454469817E+02  0.12570995617E+03  0.00000000000E+00 0. -1.
<mgrwt>
<rscale>  2 0.10128931E+03</rscale>
<asrwt>0</asrwt>
<pdfrwt beam="1">  1       21 0.49112374E-01 0.10128931E+03</pdfrwt>
<pdfrwt beam="2">  1       21 0.16741247E-01 0.10128931E+03</pdfrwt>
<totfact> 0.13114799E+05</totfact>
</mgrwt>
</event>
<event>
 4    1  0.5694171E+003  0.1210287E+03  0.7546771E-02  0.1241410E+00
         21   -1    0    0  504  501  0.00000000000E+00  0.00000000000E+00  0.51516306453E+03  0.51516306453E+03  0.00000000000E+00 0. -1.
         21   -1    0    0  503  502 -0.00000000000E+00 -0.00000000000E+00 -0.30826803006E+02  0.30826803006E+02  0.00000000000E+00 0. -1.
         21    1    1    2  503  501 -0.12024122240E+03 -0.13783756409E+02  0.31823220545E+03  0.34046979321E+03  0.00000000000E+00 0. -1.
         21    1    1    2  504  502  0.12024122240E+03  0.13783756409E+02  0.16610405608E+03  0.20552007433E+03  0.00000000000E+00 0. -1.
<mgrwt>
<rscale>  2 0.12102869E+03</rscale>
<asrwt>0</asrwt>
<pdfrwt beam="1">  1       21 0.79255850E-01 0.12102869E+03</pdfrwt>
<pdfrwt beam="2">  1       21 0.47425854E-02 0.12102869E+03</pdfrwt>
<totfact> 0.41871325E+05</totfact>
</mgrwt>
</event>
<event>
 4    1  0.5694171E+003  0.1001236E+03  0.7546771E-02  0.1280036E+00
         21   -1    0    0  502  501  0.00000000000E+00  0.00000000000E+00  0.62597035316E+02  0.62597035316E+02  0.00000000000E+00 0. -1.
         21   -1    0    0  503  502 -0.00000000000E+00 -0.00000000000E+00 -0.26802955240E+03  0.26802955240E+03  0.00000000000E+00 0. -1.
         21    1    1    2  503  504 -0.24127603124E+02  0.97173050411E+02 -0.20759598485E+03  0.23047957802E+03  0.00000000000E+00 0. -1.
         21    1    1    2  504  501  0.24127603124E+02 -0.97173050411E+02  0.21634677635E+01  0.10014700970E+03  0.00000000000E+00 0. -1.
<mgrwt>
<rscale>  2 0.10012364E+03</rscale>
<asrwt>0</asrwt>
<pdfrwt beam="1">  1       21 0.96303129E-02 0.10012364E+03</pdfrwt>
<pdfrwt beam="2">  1       21 0.41235317E-01 0.10012364E+03</pdfrwt>
<totfact> 0.49634014E+05</totfact>
</mgrwt>
</event>
<event>
 4    1  0.5694171E+003  0.1989232E+03  0.7546771E-02  0.1150651E+00
         21   -1    0    0  503  501  0.00000000000E+00  0.00000000000E+00  0.14329997248E+03  0.14329997248E+03  0.00000000000E+00 0.  1.
         21   -1    0    0  504  502 -0.00000000000E+00 -0.00000000000E+00 -0.34047208946E+03  0.34047208946E+03  0.00000000000E+00 0.  1.
         21    1    1    2  503  502  0.18046632007E+03  0.83680014598E+02  0.65601648374E+01  0.19903133745E+03  0.00000000000E+00 0.  1.
         21    1    1    2  504  501 -0.18046632007E+03 -0.83680014598E+02 -0.20373228182E+03  0.28474072449E+03  0.00000000000E+00 0.  1.
<mgrwt>
<rscale>  2 0.19892320E+03</rscale>
<asrwt>0</asrwt>
<pdfrwt beam="1">  1       21 0.22046150E-01 0.19892320E+03</pdfrwt>
<pdfrwt beam="2">  1       21 0.52380321E-01 0.19892320E+03</pdfrwt>
<totfact> 0.66280378E+04</totfact>
</mgrwt>
</event>
<event>
 4    1  0.5694171E+003  0.1460857E+03  0.7546771E-02  0.1205367E+00
         21   -1    0    0  504  501  0.00000000000E+00  0.00000000000E+00  0.22113439609E+03  0.22113439609E+03  0.00000000000E+00 0.  1.
         21   -1    0    0  501  502 -0.00000000000E+00 -0.00000000000E+00 -0.19123189531E+03  0.19123189531E+03  0.00000000000E+00 0.  1.
         21    1    1    2  503  502  0.13911053664E+03 -0.44601348430E+02 -0.13016131393E+03  0.19566039285E+03  0.00000000000E+00 0.  1.
         21    1    1    2  504  503 -0.13911053664E+03  0.44601348430E+02  0.16006381472E+03  0.21670589855E+03  0.00000000000E+00 0.  1.
<mgrwt>
<rscale>  2 0.14608567E+03</rscale>
<asrwt>0</asrwt>
<pdfrwt beam="1">  1       21 0.34020676E-01 0.14608567E+03</pdfrwt>
<pdfrwt beam="2">  1       21 0.29420292E-01 0.14608567E+03</pdfrwt>
<totfact> 0.93842228E+04</totfact>
</mgrwt>
</event>
<event>
 4    1  0.5694171E+003  0.1024151E+03  0.7546771E-02  0.1275298E+00
         21   -1    0    0  504  501  0.00000000000E+00  0.00000000000E+00  0.84261059861E+03  0.84261059861E+03  0.00000000000E+00 0. -1.
         21   -1    0    0  503  502 -0.00000000000E+00 -0.00000000000E+00 -0.65163592930E+02  0.65163592930E+02  0.00000000000E+00 0. -1.
         21    1    1    2  503  501 -0.10177998822E+03 -0.11388302655E+02  0.79696266477E+03  0.80351624034E+03  0.00000000000E+00 0. -1.
         21    1    1    2  504  502  0.10177998822E+03  0.11388302655E+02 -0.19515659097E+02  0.10425795120E+03  0.00000000000E+00 0. -1.
<mgrwt>
<rscale>  2 0.10241513E+03</rscale>
<asrwt>0</asrwt>
<pdfrwt beam="1">  1       21 0.12963239E+00 0.10241513E+03</pdfrwt>
<pdfrwt beam="2">  1       21 0.10025169E-01 0.10241513E+03</pdfrwt>
<totfact> 0.37340961E+04</totfact>
</mgrwt>
</event>
<event>
 4    1  0.5694171E+003  0.1350842E+03  0.7546771E-02  0.1220101E+00
         21   -1    0    0  504  501  0.00000000000E+00  0.00000000000E+00  0.86377741211E+03  0.86377741211E+03  0.00000000000E+00 0. -1.
         21   -1    0    0  501  502 -0.00000000000E+00 -0.00000000000E+00 -0.28638172121E+02  0.28638172121E+02  0.00000000000E+00 0. -1.
         21    1    1    2  503  502  0.13480303937E+03 -0.87109475174E+01  0.18903006616E+03  0.23233619163E+03  0.00000000000E+00 0. -1.
         21    1    1    2  504  503 -0.13480303937E+03  0.87109475174E+01  0.64610917383E+03  0.66007939260E+03  0.00000000000E+00 0. -1.
<mgrwt>
<rscale>  2 0.13508420E+03</rscale>
<asrwt>0</asrwt>
<pdfrwt beam="1">  1       21 0.13288881E+00 0.13508420E+03</pdfrwt>
<pdfrwt beam="2">  1       21 0.44058733E-02 0.13508420E+03</pdfrwt>
<totfact> 0.13952228E+05</totfact>
</mgrwt>
</event>
<event>
 4    1  0.5694171E+003  0.1033032E+03  0.7546771E-02  0.1273499E+00
         21   -1    0    0  503  501  0.00000000000E+00  0.00000000000E+00  0.11035258309E+03  0.11035258309E+03  0.00000000000E+00 0. -1.
         21   -1    0    0  504  502 -0.00000000000E+00 -0.00000000000E+00 -0.22301800930E+03  0.22301800930E+03  0.00000000000E+00 0. -1.
         21    1    1    2  503  502 -0.10323507219E+03 -0.37505316108E+01  0.69112161405E+02  0.12429013424E+03  0.00000000000E+00 0. -1.
         21    1    1    2  504  501  0.10323507219E+03  0.37505316108E+01 -0.18177758762E+03  0.20908045814E+03  0.00000000000E+00 0. -1.
<mgrwt>
<rscale>  2 0.10330318E+03</rscale>
<asrwt>0</asrwt>
<pdfrwt beam="1">  1       21 0.16977321E-01 0.10330318E+03</pdfrwt>
<pdfrwt beam="2">  1       21 0.34310463E-01 0.10330318E+03</pdfrwt>
<totfact> 0.26124693E+05</totfact>
</mgrwt>
</event>
<event>
 4    1  0.5694171E+003  0.1074329E+03  0.7546771E-02  0.1265399E+00
         21   -1    0    0  504  501  0.00000000000E+00  0.00000000000E+00  0.49962781438E+02  0.49962781438E+02  0.00000000000E+00 0.  1.
         21   -1    0    0  503  502 -0.00000000000E+00 -0.00000000000E+00 -0.27070277545E+03  0.27070277545E+03  0.00000000000E+00 0. -1.
         21    1    1    2  503  501 -0.96831308231E+02  0.46535184206E+02 -0.48973997186E+02  0.11806895453E+03  0.00000000000E+00 0.  1.
         21    1    1    2  504  502  0.96831308231E+02 -0.46535184206E+02 -0.17176599682E+03  0.20259660236E+03  0.00000000000E+00 0. -1.
<mgrwt>
<rscale>  2 0.10743289E+03</rscale>
<asrwt>0</asrwt>
<pdfrwt beam="1">  1       21 0.76865818E-02 0.10743289E+03</pdfrwt>
<pdfrwt beam="2">  1       21 0.41646581E-01 0.10743289E+03</pdfrwt>
<totfact> 0.71747517E+05</totfact>
</mgrwt>
</event>
<event>
 4    1  0.5694171E+003  0.1556663E+03  0.7546771E-02  0.1193678E+00
         21   -1    0    0  502  501  0.00000000000E+00  0.00000000000E+00  0.16271420666E+03  0.16271420666E+03  0.00000000000E+00 0. -1.
         21   -1    0    0  503  502 -0.00000000000E+00 -0.00000000000E+00 -0.15893891384E+03  0.15893891384E+03  0.00000000000E+00 0. -1.
         21    1    1    2  503  504 -0.12982307787E+03 -0.85895139580E+02 -0.38483596462E+02  0.16035271668E+03  0.00000000000E+00 0. -1.
         21    1    1    2  504  501  0.12982307787E+03  0.85895139580E+02  0.42258889272E+02  0.16130040382E+03  0.00000000000E+00 0. -1.
<mgrwt>
<rscale>  2 0.15566633E+03</rscale>
<asrwt>0</asrwt>
<pdfrwt beam="1">  1       21 0.25032955E-01 0.15566633E+03</pdfrwt>
<pdfrwt beam="2">  1       21 0.24452140E-01 0.15566633E+03</pdfrwt>
<totfact> 0.24103745E+05</totfact>
</mgrwt>
</event>
<event>
 4    1  0.5694171E+003  0.1017756E+03  0.7546771E-02  0.1276606E+00
         21   -1    0    0  502  501  0.00000000000E+00  0.00000000000E+00  0.36987206210E+03  0.36987206210E+03  0.00000000000E+00 0. -1.
         21   -1    0    0  503  502 -0.00000000000E+00 -0.00000000000E+00 -0.75737177182E+02  0.75737177182E+02  0.00000000000E+00 0.  1.
         21    1    1    2  503  504 -0.66604796149E+01  0.10155740075E+03 -0.29811140184E+02  0.10605174074E+03  0.00000000000E+00 0.  1.
         21    1    1    2  504  501  0.66604796149E+01 -0.10155740075E+03  0.32394602511E+03  0.33955749854E+03  0.00000000000E+00 0. -1.
<mgrwt>
<rscale>  2 0.10177557E+03</rscale>
<asrwt>0</asrwt>
<pdfrwt beam="1">  1       21 0.56903393E-01 0.10177557E+03</pdfrwt>
<pdfrwt beam="2">  1       21 0.11651874E-01 0.10177557E+03</pdfrwt>
<totfact> 0.18446601E+05</totfact>
</mgrwt>
</event>
<event>
 4    1  0.5694171E+003  0.1281562E+03  0.7546771E-02  0.1230218E+00
         21   -1    0    0  503  501  0.00000000000E+00  0.00000000000E+00  0.23760996207E+03  0.23760996207E+03  0.00000000000E+00 0. -1.
         21   -1    0    0  504  502 -0.00000000000E+00 -0.00000000000E+00 -0.30679202526E+03  0.30679202526E+03  0.00000000000E+00 0. -1.
         21    1    1    2  503  502  0.10362139094E+03  0.75409657532E+02  0.20499149227E+03  0.24175508478E+03  0.00000000000E+00 0. -1.
         21    1    1    2  504  501 -0.10362139094E+03 -0.75409657532E+02 -0.27417355546E+03  0.30264690256E+03  0.00000000000E+00 0. -1.
<mgrwt>
<rscale>  2 0.12815619E+03</rscale>
<asrwt>0</asrwt>
<pdfrwt beam="1">  1       21 0.36555379E-01 0.12815619E+03</pdfrwt>
<pdfrwt beam="2">  1       21 0.47198773E-01 0.12815619E+03</pdfrwt>
<totfact> 0.32165089E+04</totfact>
</mgrwt>
</event>
<event>
 4    1  0.5694171E+003  0.1532545E+03  0.7546771E-02  0.1196530E+00
         21   -1    0    0  502  501  0.00000000000E+00  0.00000000000E+00  0.80723900323E+02  0.80723900323E+02  0.00000000000E+00 0. -1.
         21   -1    0    0  503  502 -0.00000000000E+00 -0.00000000000E+00 -0.46033897688E+03  0.46033897688E+03  0.00000000000E+00 0. -1.
         21    1    1    2  503  504 -0.29352108915E+02 -0.15041738306E+03 -0.35391049729E+03  0.38566770090E+03  0.00000000000E+00 0. -1.
         21    1    1    2  504  501  0.29352108915E+02  0.15041738306E+03 -0.25704579273E+02  0.15539517631E+03  0.00000000000E+00 0. -1.
<mgrwt>
<rscale>  2 0.15325448E+03</rscale>
<asrwt>0</asrwt>
<pdfrwt beam="1">  1       21 0.12419062E-01 0.15325448E+03</pdfrwt>
<pdfrwt beam="2">  1       21 0.70821379E-01 0.15325448E+03</pdfrwt>
<totfact> 0.10122399E+05</totfact>
</mgrwt>
</event>
<event>
 4    1  0.5694171E+003  0.1445100E+03  0.7546771E-02  0.1207386E+00
         21   -1    0    0  503  501  0.00000000000E+00  0.00000000000E+00  0.23949978716E+03  0.23949978716E+03  0.00000000000E+00 0.  1.
         21   -1    0    0  501  502 -0.00000000000E+00 -0.00000000000E+00 -0.87693276141E+02  0.87693276141E+02  0.00000000000E+00 0.  1.
         21    1    1    2  503  504  0.19409017868E+02  0.14320071035E+03  0.63569892310E+02  0.15787426842E+03  0.00000000000E+00 0.  1.
         21    1    1    2  504  502 -0.19409017868E+02 -0.14320071035E+03  0.88236618713E+02  0.16931879489E+03  0.00000000000E+00 0.  1.
<mgrwt>
<rscale>  2 0.14451005E+03</rscale>
<asrwt>0</asrwt>
<pdfrwt beam="1">  1       21 0.36846121E-01 0.14451005E+03</pdfrwt>
<pdfrwt beam="2">  1       21 0.13491273E-01 0.14451005E+03</pdfrwt>
<totfact> 0.34098714E+05</totfact>
</mgrwt>
</event>
<event>
 4    1  0.5694171E+003  0.1066579E+03  0.7546771E-02  0.1266887E+00
         21   -1    0    0  503  501  0.00000000000E+00  0.00000000000E+00  0.15821345942E+03  0.15821345942E+03  0.00000000000E+00 0.  1.
         21   -1    0    0  504  502 -0.00000000000E+00 -0.00000000000E+00 -0.27895131609E+03  0.27895131609E+03  0.00000000000E+00 0.  1.
         21    1    1    2  503  502 -0.10617090500E+03 -0.10181034512E+02 -0.24868506010E+03  0.27059226458E+03  0.00000000000E+00 0.  1.
         21    1    1    2  504  501  0.10617090500E+03  0.10181034512E+02  0.12794720344E+03  0.16657251094E+03  0.00000000000E+00 0.  1.
<mgrwt>
<rscale>  2 0.10665793E+03</rscale>
<asrwt>0</asrwt>
<pdfrwt beam="1">  1       21 0.24340532E-01 0.10665793E+03</pdfrwt>
<pdfrwt beam="2">  1       21 0.42915587E-01 0.10665793E+03</pdfrwt>
<totfact> 0.86348934E+04</totfact>
</mgrwt>
</event>
<event>
 4    1  0.5694171E+003  0.1300806E+03  0.7546771E-02  0.1227336E+00
         21   -1    0    0  502  501  0.00000000000E+00  0.00000000000E+00  0.15685632492E+02  0.15685632492E+02  0.00000000000E+00 0.  1.
         21   -1    0    0  503  502 -0.00000000000E+00 -0.00000000000E+00 -0.13619194699E+04  0.13619194699E+04  0.00000000000E+00 0. -1.
         21    1    1    2  503  504 -0.32401620901E+02 -0.12598054022E+03 -0.98719531630E+03  0.99572865485E+03  0.00000000000E+00 0. -1.
         21    1    1    2  504  501  0.32401620901E+02  0.12598054022E+03 -0.35903852106E+03  0.38187644750E+03  0.00000000000E+00 0.  1.
<mgrwt>
<rscale>  2 0.13008060E+03</rscale>
<asrwt>0</asrwt>
<pdfrwt beam="1">  1       21 0.24131738E-02 0.13008060E+03</pdfrwt>
<pdfrwt beam="2">  1       21 0.20952611E+00 0.13008060E+03</pdfrwt>
<totfact> 0.11006074E+05</totfact>
</mgrwt>
</event>
<event>
 4    1  0.5694171E+003  0.1136624E+03  0.7546771E-02  0.1253934E+00
         21   -1    0    0  503  501  0.00000000000E+00  0.00000000000E+00  0.10947989721E+03  0.10947989721E+03  0.00000000000E+00 0.  1.
         21   -1    0    0  504  502 -0.00000000000E+00 -0.00000000000E+00 -0.35981054552E+03  0.35981054552E+03  0.00000000000E+00 0. -1.
         21    1    1    2  503  502 -0.45559336799E+02  0.10413205361E+03 -0.31752241762E+03  0.33725305551E+03  0.00000000000E+00 0. -1.
         21    1    1    2  504  501  0.45559336799E+02 -0.10413205361E+03  0.67191769311E+02  0.13203738721E+03  0.00000000000E+00 0.  1.
<mgrwt>
<rscale>  2 0.11366238E+03</rscale>
<asrwt>0</asrwt>
<pdfrwt beam="1">  1       21 0.16843061E-01 0.11366238E+03</pdfrwt>
<pdfrwt beam="2">  1       21 0.55355468E-01 0.11366238E+03</pdfrwt>
<totfact> 0.10077040E+05</totfact>
</mgrwt>
</event>
<event>
 4    1  0.5694171E+003  0.1002477E+03  0.7546771E-02  0.1279776E+00
         21   -1    0    0  503  501  0.00000000000E+00  0.00000000000E+00  0.65166984331E+03  0.65166984331E+03  0.00000000000E+00 0. -1.
         21   -1    0    0  504  502 -0.00000000000E+00 -0.00000000000E+00 -0.20956510824E+02  0.20956510824E+02  0.00000000000E+00 0. -1.
         21    1    1    2  503  502 -0.96586235286E+02  0.26845679085E+02  0.14251367668E+03  0.17424046423E+03  0.00000000000E+00 0. -1.
         21    1    1    2  504  501  0.96586235286E+02 -0.26845679085E+02  0.48819965580E+03  0.49838588990E+03  0.00000000000E+00 0. -1.
<mgrwt>
<rscale>  2 0.10024765E+03</rscale>
<asrwt>0</asrwt>
<pdfrwt beam="1">  1       21 0.10025688E+00 0.10024765E+03</pdfrwt>
<pdfrwt beam="2">  1       21 0.32240791E-02 0.10024765E+03</pdfrwt>
<totfact> 0.46611611E+05</totfact>
</mgrwt>
</event>
<event>
 4    1  0.5694171E+003  0.1264770E+03  0.7546771E-02  0.1232779E+00
         21   -1    0    0  503  501  0.00000000000E+00  0.00000000000E+00  0.16644676718E+04  0.16644676718E+04  0.00000000000E+00 0.  1.
         21   -1    0    0  504  502 -0.00000000000E+00 -0.00000000000E+00 -0.11571823325E+02  0.11571823325E+02  0.00000000000E+00 0.  1.
         21    1    1    2  503  502  0.73555906934E+02 -0.10288806686E+03  0.48144401577E+03  0.49777983694E+03  0.00000000000E+00 0.  1.
         21    1    1    2  504  501 -0.73555906934E+02  0.10288806686E+03  0.11714518327E+04  0.11782596582E+04  0.00000000000E+00 0.  1.
<mgrwt>
<rscale>  2 0.12647698E+03</rscale>
<asrwt>0</asrwt>
<pdfrwt beam="1">  1       21 0.25607176E+00 0.12647698E+03</pdfrwt>
<pdfrwt beam="2">  1       21 0.17802818E-02 0.12647698E+03</pdfrwt>
<totfact> 0.96049877E+04</totfact>
</mgrwt>
</event>
<event>
 4    1  0.5694171E+003  0.1409001E+03  0.7546771E-02  0.1212123E+00
         21   -1    0    0  503  501  0.00000000000E+00  0.00000000000E+00  0.14274318623E+03  0.14274318623E+03  0.00000000000E+00 0.  1.
         21   -1    0    0  504  502 -0.00000000000E+00 -0.00000000000E+00 -0.59239556786E+03  0.59239556786E+03  0.00000000000E+00 0.  1.
         21    1    1    2  503  502 -0.71220989301E+02 -0.12157472903E+03 -0.54636494926E+03  0.56424064178E+03  0.00000000000E+00 0.  1.
         21    1    1    2  504  501  0.71220989301E+02  0.12157472903E+03  0.96712567625E+02  0.17089811231E+03  0.00000000000E+00 0.  1.
<mgrwt>
<rscale>  2 0.14090012E+03</rscale>
<asrwt>0</asrwt>
<pdfrwt beam="1">  1       21 0.21960490E-01 0.14090012E+03</pdfrwt>
<pdfrwt beam="2">  1       21 0.91137780E-01 0.14090012E+03</pdfrwt>
<totfact> 0.20440171E+04</totfact>
</mgrwt>
</event>
<event>
 4    1  0.5694171E+003  0.1616556E+03  0.7546771E-02  0.1186840E+00
         21   -1    0    0  504  501  0.00000000000E+00  0.00000000000E+00  0.32789273603E+03  0.32789273603E+03  0.00000000000E+00 0. -1.
         21   -1    0    0  503  502 -0.00000000000E+00 -0.00000000000E+00 -0.82307035185E+02  0.82307035185E+02  0.00000000000E+00 0.  1.
         21    1    1    2  503  501 -0.15503726336E+03 -0.45781846002E+02  0.86279423720E+02  0.18323937735E+03  0.00000000000E+00 0.  1.
         21    1    1    2  504  502  0.15503726336E+03  0.45781846002E+02  0.15930627712E+03  0.22696039387E+03  0.00000000000E+00 0. -1.
<mgrwt>
<rscale>  2 0.16165559E+03</rscale>
<asrwt>0</asrwt>
<pdfrwt beam="1">  1       21 0.50445036E-01 0.16165559E+03</pdfrwt>
<pdfrwt beam="2">  1       21 0.12662621E-01 0.16165559E+03</pdfrwt>
<totfact> 0.20120579E+05</totfact>
</mgrwt>
</event>
<event>
 4    1  0.5694171E+003  0.1097345E+03  0.7546771E-02  0.1261062E+00
         21   -1    0    0  503  501  0.00000000000E+00  0.00000000000E+00  0.81123288444E+03  0.81123288444E+03  0.00000000000E+00 0.  1.
         21   -1    0    0  504  502 -0.00000000000E+00 -0.00000000000E+00 -0.15748499042E+02  0.15748499042E+02  0.00000000000E+00 0.  1.
         21    1    1    2  503  502  0.10977822741E+02 -0.10918405728E+03  0.29862931371E+03  0.31815269598E+03  0.00000000000E+00 0.  1.
         21    1    1    2  504  501 -0.10977822741E+02  0.10918405728E+03  0.49685507169E+03  0.50882868750E+03  0.00000000000E+00 0.  1.
<mgrwt>
<rscale>  2 0.10973455E+03</rscale>
<asrwt>0</asrwt>
<pdfrwt beam="1">  1       21 0.12480503E+00 0.10973455E+03</pdfrwt>
<pdfrwt beam="2">  1       21 0.24228466E-02 0.10973455E+03</pdfrwt>
<totfact> 0.43943794E+05</totfact>
</mgrwt>
</event>
<event>
 4    1  0.5694171E+003  0.2043729E+03  0.7546771E-02  0.1146101E+00
         21   -1    0    0  503  501  0.00000000000E+00  0.00000000000E+00  0.12534856027E+04  0.12534856027E+04  0.00000000000E+00 0.  1.
         21   -1    0    0  504  502 -0.00000000000E+00 -0.00000000000E+00 -0.35142723691E+02  0.35142723691E+02  0.00000000000E+00 0.  1.
         21    1    1    2  503  502 -0.19005267929E+03 -0.75154788679E+02  0.75584050747E+03  0.78298348380E+03  0.00000000000E+00 0.  1.
         21    1    1    2  504  501  0.19005267929E+03  0.75154788679E+02  0.46250237156E+03  0.50564484262E+03  0.00000000000E+00 0.  1.
<mgrwt>
<rscale>  2 0.20437285E+03</rscale>
<asrwt>0</asrwt>
<pdfrwt beam="1">  1       21 0.19284391E+00 0.20437285E+03</pdfrwt>
<pdfrwt beam="2">  1       21 0.54065738E-02 0.20437285E+03</pdfrwt>
<totfact> 0.34911936E+04</totfact>
</mgrwt>
</event>
<event>
 4    1  0.5694171E+003  0.1683179E+03  0.7546771E-02  0.1179613E+00
         21   -1    0    0  502  501  0.00000000000E+00  0.00000000000E+00  0.15404831988E+03  0.15404831988E+03  0.00000000000E+00 0.  1.
         21   -1    0    0  503  502 -0.00000000000E+00 -0.00000000000E+00 -0.32415922332E+03  0.32415922332E+03  0.00000000000E+00 0.  1.
         21    1    1    2  503  504 -0.16110907570E+03 -0.48731778817E+02 -0.24233003120E+03  0.29505044409E+03  0.00000000000E+00 0.  1.
         21    1    1    2  504  501  0.16110907570E+03  0.48731778817E+02  0.72219127761E+02  0.18315709911E+03  0.00000000000E+00 0.  1.
<mgrwt>
<rscale>  2 0.16831792E+03</rscale>
<asrwt>0</asrwt>
<pdfrwt beam="1">  1       21 0.23699742E-01 0.16831792E+03</pdfrwt>
<pdfrwt beam="2">  1       21 0.49870649E-01 0.16831792E+03</pdfrwt>
<totfact> 0.64944123E+04</totfact>
</mgrwt>
</event>
<event>
 4    1  0.5694171E+003  0.1093733E+03  0.7546771E-02  0.1261735E+00
         21   -1    0    0  503  501  0.00000000000E+00  0.00000000000E+00  0.27115594075E+03  0.27115594075E+03  0.00000000000E+00 0. -1.
         21   -1    0    0  504  502 -0.00000000000E+00 -0.00000000000E+00 -0.44269170219E+02  0.44269170219E+02  0.00000000000E+00 0. -1.
         21    1    1    2  503  502 -0.89959725698E+02 -0.62207417973E+02  0.12269796224E+03  0.16436941637E+03  0.00000000000E+00 0. -1.
         21    1    1    2  504  501  0.89959725698E+02  0.62207417973E+02  0.10418880828E+03  0.15105569460E+03  0.00000000000E+00 0. -1.
<mgrwt>
<rscale>  2 0.10937328E+03</rscale>
<asrwt>0</asrwt>
<pdfrwt beam="1">  1       21 0.41716298E-01 0.10937328E+03</pdfrwt>
<pdfrwt beam="2">  1       21 0.68106417E-02 0.10937328E+03</pdfrwt>
<totfact> 0.87916836E+05</totfact>
</mgrwt>
</event>
<event>
 4    1  0.5694171E+003  0.1044988E+03  0.7546771E-02  0.1271110E+00
         21   -1    0    0  503  501  0.00000000000E+00  0.00000000000E+00  0.40945005569E+02  0.40945005569E+02  0.00000000000E+00 0. -1.
         21   -1    0    0  504  502 -0.00000000000E+00 -0.00000000000E+00 -0.44287823006E+03  0.44287823006E+03  0.00000000000E+00 0.  1.
         21    1    1    2  503  502  0.95822469793E+02 -0.41690016924E+02 -0.48388732157E+02  0.11515846746E+03  0.00000000000E+00 0. -1.
         21    1    1    2  504  501 -0.95822469793E+02  0.41690016924E+02 -0.35354449233E+03  0.36866476817E+03  0.00000000000E+00 0.  1.
<mgrwt>
<rscale>  2 0.10449882E+03</rscale>
<asrwt>0</asrwt>
<pdfrwt beam="1">  1       21 0.62992319E-02 0.10449882E+03</pdfrwt>
<pdfrwt beam="2">  1       21 0.68135110E-01 0.10449882E+03</pdfrwt>
<totfact> 0.36274238E+05</totfact>
</mgrwt>
</event>
<event>
 4    1  0.5694171E+003  0.1049379E+03  0.7546771E-02  0.1270242E+00
         21   -1    0    0  502  501  0.00000000000E+00  0.00000000000E+00  0.21305311274E+02  0.21305311274E+02  0.00000000000E+00 0. -1.
         21   -1    0    0  503  502 -0.00000000000E+00 -0.00000000000E+00 -0.60817714141E+03  0.60817714141E+03  0.00000000000E+00 0.  1.
         21    1    1    2  503  504 -0.55780200690E+02 -0.88884975208E+02 -0.41539182804E+03  0.42844175848E+03  0.00000000000E+00 0.  1.
         21    1    1    2  504  501  0.55780200690E+02  0.88884975208E+02 -0.17148000209E+03  0.20104069420E+03  0.00000000000E+00 0. -1.
<mgrwt>
<rscale>  2 0.10493793E+03</rscale>
<asrwt>0</asrwt>
<pdfrwt beam="1">  1       21 0.32777402E-02 0.10493793E+03</pdfrwt>
<pdfrwt beam="2">  1       21 0.93565715E-01 0.10493793E+03</pdfrwt>
<totfact> 0.53166798E+05</totfact>
</mgrwt>
</event>
<event>
 4    1  0.5694171E+003  0.1190814E+03  0.7546771E-02  0.1244620E+00
         21   -1    0    0  504  501  0.00000000000E+00  0.00000000000E+00  0.34364467914E+03  0.34364467914E+03  0.00000000000E+00 0.  1.
         21   -1    0    0  503  502 -0.00000000000E+00 -0.00000000000E+00 -0.12299416884E+03  0.12299416884E+03  0.00000000000E+00 0. -1.
         21    1    1    2  503  501  0.33773391311E+02 -0.11419165216E+03 -0.79869318145E+02  0.14338578509E+03  0.00000000000E+00 0. -1.
         21    1    1    2  504  502 -0.33773391311E+02  0.11419165216E+03  0.30051982844E+03  0.32325306289E+03  0.00000000000E+00 0.  1.
<mgrwt>
<rscale>  2 0.11908138E+03</rscale>
<asrwt>0</asrwt>
<pdfrwt beam="1">  1       21 0.52868412E-01 0.11908138E+03</pdfrwt>
<pdfrwt beam="2">  1       21 0.18922180E-01 0.11908138E+03</pdfrwt>
<totfact> 0.89451925E+04</totfact>
</mgrwt>
</event>
<event>
 4    1  0.5694171E+003  0.1214540E+03  0.7546771E-02  0.1240717E+00
         21   -1    0    0  504  501  0.00000000000E+00  0.00000000000E+00  0.65750305941E+03  0.65750305941E+03  0.00000000000E+00 0. -1.
         21   -1    0    0  503  502 -0.00000000000E+00 -0.00000000000E+00 -0.24820820300E+02  0.24820820300E+02  0.00000000000E+00 0.  1.
         21    1    1    2  503  501 -0.10052169034E+03 -0.68165014092E+02  0.21056889979E+03  0.24308504876E+03  0.00000000000E+00 0.  1.
         21    1    1    2  504  502  0.10052169034E+03  0.68165014092E+02  0.42211333932E+03  0.43923883095E+03  0.00000000000E+00 0. -1.
<mgrwt>
<rscale>  2 0.12145402E+03</rscale>
<asrwt>0</asrwt>
<pdfrwt beam="1">  1       21 0.10115430E+00 0.12145402E+03</pdfrwt>
<pdfrwt beam="2">  1       21 0.38185882E-02 0.12145402E+03</pdfrwt>
<totfact> 0.34416759E+05</totfact>
</mgrwt>
</event>
<event>
 4    1  0.5694171E+003  0.1154490E+03  0.7546771E-02  0.1250799E+00
         21   -1    0    0  503  501  0.00000000000E+00  0.00000000000E+00  0.25343023508E+02  0.25343023508E+02  0.00000000000E+00 0.  1.
         21   -1    0    0  504  502 -0.00000000000E+00 -0.00000000000E+00 -0.88255884591E+03  0.88255884591E+03  0.00000000000E+00 0.  1.
         21    1    1    2  503  502 -0.85521896906E+02 -0.77553071324E+02 -0.14003889393E+03  0.18149205364E+03  0.00000000000E+00 0.  1.
         21    1    1    2  504  501  0.85521896906E+02  0.77553071324E+02 -0.71717692847E+03  0.72640981578E+03  0.00000000000E+00 0.  1.
<mgrwt>
<rscale>  2 0.11544901E+03</rscale>
<asrwt>0</asrwt>
<pdfrwt beam="1">  1       21 0.38989273E-02 0.11544901E+03</pdfrwt>
<pdfrwt beam="2">  1       21 0.13577826E+00 0.11544901E+03</pdfrwt>
<totfact> 0.16343731E+05</totfact>
</mgrwt>
</event>
<event>
 4    1  0.5694171E+003  0.1094307E+03  0.7546771E-02  0.1261628E+00
         21   -1    0    0  504  501  0.00000000000E+00  0.00000000000E+00  0.10819944060E+03  0.10819944060E+03  0.00000000000E+00 0.  1.
         21   -1    0    0  503  502 -0.00000000000E+00 -0.00000000000E+00 -0.25710489157E+03  0.25710489157E+03  0.00000000000E+00 0. -1.
         21    1    1    2  503  501 -0.25358972695E+02  0.10645184808E+03 -0.21229522893E+03  0.23883956473E+03  0.00000000000E+00 0. -1.
         21    1    1    2  504  502  0.25358972695E+02 -0.10645184808E+03  0.63389777951E+02  0.12646476744E+03  0.00000000000E+00 0.  1.
<mgrwt>
<rscale>  2 0.10943068E+03</rscale>
<asrwt>0</asrwt>
<pdfrwt beam="1">  1       21 0.16646068E-01 0.10943068E+03</pdfrwt>
<pdfrwt beam="2">  1       21 0.39554599E-01 0.10943068E+03</pdfrwt>
<totfact> 0.20437807E+05</totfact>
</mgrwt>
</event>
<event>
 4    1  0.5694171E+003  0.1275003E+03  0.7546771E-02  0.1231213E+00
         21   -1    0    0  503  501  0.00000000000E+00  0.00000000000E+00  0.78288350312E+03  0.78288350312E+03  0.00000000000E+00 0. -1.
         21   -1    0    0  504  502 -0.00000000000E+00 -0.00000000000E+00 -0.62633405874E+02  0.62633405874E+02  0.00000000000E+00 0.  1.
         21    1    1    2  503  502 -0.98985984420E+02  0.80362391569E+02  0.14477031950E+02  0.12831961481E+03  0.00000000000E+00 0.  1.
         21    1    1    2  504  501  0.98985984420E+02 -0.80362391569E+02  0.70577306530E+03  0.71719729419E+03  0.00000000000E+00 0. -1.
<mgrwt>
<rscale>  2 0.12750035E+03</rscale>
<asrwt>0</asrwt>
<pdfrwt beam="1">  1       21 0.12044361E+00 0.12750035E+03</pdfrwt>
<pdfrwt beam="2">  1       21 0.96359091E-02 0.12750035E+03</pdfrwt>
<totfact> 0.47041366E+04</totfact>
</mgrwt>
</event>
<event>
 4    1  0.5694171E+003  0.1032296E+03  0.7546771E-02  0.1273648E+00
         21   -1    0    0  502  501  0.00000000000E+00  0.00000000000E+00  0.49315428695E+02  0.49315428695E+02  0.00000000000E+00 0. -1.
         21   -1    0    0  504  502 -0.00000000000E+00 -0.00000000000E+00 -0.23849381820E+03  0.23849381820E+03  0.00000000000E+00 0.  1.
         21    1    1    2  503  501  0.45110130662E+02 -0.92851621837E+02 -0.50478783123E+02  0.11491063968E+03  0.00000000000E+00 0. -1.
         21    1    1    2  504  503 -0.45110130662E+02  0.92851621837E+02 -0.13869960638E+03  0.17289860721E+03  0.00000000000E+00 0.  1.
<mgrwt>
<rscale>  2 0.10322959E+03</rscale>
<asrwt>0</asrwt>
<pdfrwt beam="1">  1       21 0.75869892E-02 0.10322959E+03</pdfrwt>
<pdfrwt beam="2">  1       21 0.36691356E-01 0.10322959E+03</pdfrwt>
<totfact> 0.94265757E+05</totfact>
</mgrwt>
</event>
<event>
 4    1  0.5694171E+003  0.1132362E+03  0.7546771E-02  0.1254692E+00
         21   -1    0    0  503  501  0.00000000000E+00  0.00000000000E+00  0.44582304538E+02  0.44582304538E+02  0.00000000000E+00 0. -1.
         21   -1    0    0  504  502 -0.00000000000E+00 -0.00000000000E+00 -0.28782648973E+03  0.28782648973E+03  0.00000000000E+00 0. -1.
         21    1    1    2  503  502  0.67915063257E+02 -0.90608907313E+02 -0.12615348584E+03  0.16952029935E+03  0.00000000000E+00 0. -1.
         21    1    1    2  504  501 -0.67915063257E+02  0.90608907313E+02 -0.11709069935E+03  0.16288849491E+03  0.00000000000E+00 0. -1.
<mgrwt>
<rscale>  2 0.11323617E+03</rscale>
<asrwt>0</asrwt>
<pdfrwt beam="1">  1       21 0.68588162E-02 0.11323617E+03</pdfrwt>
<pdfrwt beam="2">  1       21 0.44280998E-01 0.11323617E+03</pdfrwt>
<totfact> 0.77059096E+05</totfact>
</mgrwt>
</event>
<event>
 4    1  0.5694171E+003  0.1306916E+03  0.7546771E-02  0.1226433E+00
         21   -1    0    0  503  501  0.00000000000E+00  0.00000000000E+00  0.47302678309E+03  0.47302678309E+03  0.00000000000E+00 0.  1.
         21   -1    0    0  504  502 -0.00000000000E+00 -0.00000000000E+00 -0.91654692438E+02  0.91654692438E+02  0.00000000000E+00 0. -1.
         21    1    1    2  503  502  0.84235810808E+02 -0.99923130165E+02 -0.29111686566E+02  0.13389471259E+03  0.00000000000E+00 0. -1.
         21    1    1    2  504  501 -0.84235810808E+02  0.99923130165E+02  0.41048377722E+03  0.43078676294E+03  0.00000000000E+00 0.  1.
<mgrwt>
<rscale>  2 0.13069164E+03</rscale>
<asrwt>0</asrwt>
<pdfrwt beam="1">  1       21 0.72773350E-01 0.13069164E+03</pdfrwt>
<pdfrwt beam="2">  1       21 0.14100722E-01 0.13069164E+03</pdfrwt>
<totfact> 0.76696021E+04</totfact>
</mgrwt>
</event>
<event>
 4    1  0.5694171E+003  0.1096254E+03  0.7546771E-02  0.1261265E+00
         21   -1    0    0  503  501  0.00000000000E+00  0.00000000000E+00  0.55053353899E+02  0.55053353899E+02  0.00000000000E+00 0. -1.
         21   -1    0    0  504  502 -0.00000000000E+00 -0.00000000000E+00 -0.21945277505E+03  0.21945277505E+03  0.00000000000E+00 0. -1.
         21    1    1    2  503  502 -0.81991353189E+02 -0.72767778006E+02 -0.92179958047E+02  0.14323015108E+03  0.00000000000E+00 0. -1.
         21    1    1    2  504  501  0.81991353189E+02  0.72767778006E+02 -0.72219463106E+02  0.13127597787E+03  0.00000000000E+00 0. -1.
<mgrwt>
<rscale>  2 0.10962541E+03</rscale>
<asrwt>0</asrwt>
<pdfrwt beam="1">  1       21 0.84697467E-02 0.10962541E+03</pdfrwt>
<pdfrwt beam="2">  1       21 0.33761966E-01 0.10962541E+03</pdfrwt>
<totfact> 0.91902292E+05</totfact>
</mgrwt>
</event>
<event>
 4    1  0.5694171E+003  0.1235702E+03  0.7546771E-02  0.1237321E+00
         21   -1    0    0  504  501  0.00000000000E+00  0.00000000000E+00  0.33451555603E+03  0.33451555603E+03  0.00000000000E+00 0.  1.
         21   -1    0    0  503  502 -0.00000000000E+00 -0.00000000000E+00 -0.45731597246E+02  0.45731597246E+02  0.00000000000E+00 0.  1.
         21    1    1    2  503  501  0.54613112369E+02 -0.11084673440E+03  0.13620883150E+03  0.18390877181E+03  0.00000000000E+00 0.  1.
         21    1    1    2  504  502 -0.54613112369E+02  0.11084673440E+03  0.15257512729E+03  0.19633838147E+03  0.00000000000E+00 0.  1.
<mgrwt>
<rscale>  2 0.12357018E+03</rscale>
<asrwt>0</asrwt>
<pdfrwt beam="1">  1       21 0.51463930E-01 0.12357018E+03</pdfrwt>
<pdfrwt beam="2">  1       21 0.70356306E-02 0.12357018E+03</pdfrwt>
<totfact> 0.54247186E+05</totfact>
</mgrwt>
</event>
<event>
 4    1  0.5694171E+003  0.1335704E+03  0.7546771E-02  0.1222252E+00
         21   -1    0    0  503  501  0.00000000000E+00  0.00000000000E+00  0.12544461125E+03  0.12544461125E+03  0.00000000000E+00 0. -1.
         21   -1    0    0  501  502 -0.00000000000E+00 -0.00000000000E+00 -0.20206854450E+03  0.20206854450E+03  0.00000000000E+00 0.  1.
         21    1    1    2  503  504  0.63428261936E+02  0.11754955090E+03  0.50806409543E+02  0.14290672685E+03  0.00000000000E+00 0. -1.
         21    1    1    2  504  502 -0.63428261936E+02 -0.11754955090E+03 -0.12743034279E+03  0.18460642891E+03  0.00000000000E+00 0.  1.
<mgrwt>
<rscale>  2 0.13357036E+03</rscale>
<asrwt>0</asrwt>
<pdfrwt beam="1">  1       21 0.19299171E-01 0.13357036E+03</pdfrwt>
<pdfrwt beam="2">  1       21 0.31087468E-01 0.13357036E+03</pdfrwt>
<totfact> 0.24873645E+05</totfact>
</mgrwt>
</event>
<event>
 4    1  0.5694171E+003  0.1476985E+03  0.7546771E-02  0.1203330E+00
         21   -1    0    0  504  501  0.00000000000E+00  0.00000000000E+00  0.14015920736E+04  0.14015920736E+04  0.00000000000E+00 0. -1.
         21   -1    0    0  503  502 -0.00000000000E+00 -0.00000000000E+00 -0.17297680315E+02  0.17297680315E+02  0.00000000000E+00 0. -1.
         21    1    1    2  503  501 -0.81632218986E+02  0.12308955593E+03  0.91672479345E+03  0.92854682428E+03  0.00000000000E+00 0. -1.
         21    1    1    2  504  502  0.81632218986E+02 -0.12308955593E+03  0.46756959985E+03  0.49034292965E+03  0.00000000000E+00 0. -1.
<mgrwt>
<rscale>  2 0.14769854E+03</rscale>
<asrwt>0</asrwt>
<pdfrwt beam="1">  1       21 0.21562946E+00 0.14769854E+03</pdfrwt>
<pdfrwt beam="2">  1       21 0.26611827E-02 0.14769854E+03</pdfrwt>
<totfact> 0.85042999E+04</totfact>
</mgrwt>
</event>
<event>
 4    1  0.5694171E+003  0.1006414E+03  0.7546771E-02  0.1278953E+00
         21   -1    0    0  503  501  0.00000000000E+00  0.00000000000E+00  0.37884502263E+02  0.37884502263E+02  0.00000000000E+00 0. -1.
         21   -1    0    0  501  502 -0.00000000000E+00 -0.00000000000E+00 -0.28959181336E+03  0.28959181336E+03  0.00000000000E+00 0. -1.
         21    1    1    2  503  504  0.55753609494E+02  0.83786802747E+02 -0.80483334724E+02  0.12886528025E+03  0.00000000000E+00 0. -1.
         21    1    1    2  504  502 -0.55753609494E+02 -0.83786802747E+02 -0.17122397637E+03  0.19861103537E+03  0.00000000000E+00 0. -1.
<mgrwt>
<rscale>  2 0.10064141E+03</rscale>
<asrwt>0</asrwt>
<pdfrwt beam="1">  1       21 0.58283851E-02 0.10064141E+03</pdfrwt>
<pdfrwt beam="2">  1       21 0.44552585E-01 0.10064141E+03</pdfrwt>
<totfact> 0.10015808E+06</totfact>
</mgrwt>
</event>
<event>
 4    1  0.5694171E+003  0.1154098E+03  0.7546771E-02  0.1250868E+00
         21   -1    0    0  502  501  0.00000000000E+00  0.00000000000E+00  0.12296643566E+03  0.12296643566E+03  0.00000000000E+00 0. -1.
         21   -1    0    0  504  502 -0.00000000000E+00 -0.00000000000E+00 -0.14423835271E+03  0.14423835271E+03  0.00000000000E+00 0. -1.
         21    1    1    2  503  501 -0.30898479196E+01  0.11536838684E+03  0.56036647576E+02  0.12829465193E+03  0.00000000000E+00 0. -1.
         21    1    1    2  504  503  0.30898479196E+01 -0.11536838684E+03 -0.77308564631E+02  0.13891013644E+03  0.00000000000E+00 0. -1.
<mgrwt>
<rscale>  2 0.11540976E+03</rscale>
<asrwt>0</asrwt>
<pdfrwt beam="1">  1       21 0.18917913E-01 0.11540976E+03</pdfrwt>
<pdfrwt beam="2">  1       21 0.22190516E-01 0.11540976E+03</pdfrwt>
<totfact> 0.49070279E+05</totfact>
</mgrwt>
</event>
<event>
 4    1  0.5694171E+003  0.1021012E+03  0.7546771E-02  0.1275938E+00
         21   -1    0    0  504  501  0.00000000000E+00  0.00000000000E+00  0.92634427118E+03  0.92634427118E+03  0.00000000000E+00 0.  1.
         21   -1    0    0  503  502 -0.00000000000E+00 -0.00000000000E+00 -0.11840779905E+02  0.11840779905E+02  0.00000000000E+00 0.  1.
         21    1    1    2  503  501 -0.79253833876E+02 -0.64369949437E+02  0.56171723411E+03  0.57092110809E+03  0.00000000000E+00 0.  1.
         21    1    1    2  504  502  0.79253833876E+02  0.64369949437E+02  0.35278625717E+03  0.36726394299E+03  0.00000000000E+00 0.  1.
<mgrwt>
<rscale>  2 0.10210123E+03</rscale>
<asrwt>0</asrwt>
<pdfrwt beam="1">  1       21 0.14251445E+00 0.10210123E+03</pdfrwt>
<pdfrwt beam="2">  1       21 0.18216592E-02 0.10210123E+03</pdfrwt>
<totfact> 0.50083289E+05</totfact>
</mgrwt>
</event>
<event>
 4    1  0.5694171E+003  0.1036990E+03  0.7546771E-02  0.1272704E+00
         21   -1    0    0  504  501  0.00000000000E+00  0.00000000000E+00  0.12840188784E+02  0.12840188784E+02  0.00000000000E+00 0. -1.
         21   -1    0    0  503  502 -0.00000000000E+00 -0.00000000000E+00 -0.84001345763E+03  0.84001345763E+03  0.00000000000E+00 0. -1.
         21    1    1    2  503  501 -0.75301974620E+02 -0.71295765084E+02 -0.39019418283E+03  0.40373874450E+03  0.00000000000E+00 0. -1.
         21    1    1    2  504  502  0.75301974620E+02  0.71295765084E+02 -0.43697908602E+03  0.44911490191E+03  0.00000000000E+00 0. -1.
<mgrwt>
<rscale>  2 0.10369896E+03</rscale>
<asrwt>0</asrwt>
<pdfrwt beam="1">  1       21 0.19754139E-02 0.10369896E+03</pdfrwt>
<pdfrwt beam="2">  1       21 0.12923282E+00 0.10369896E+03</pdfrwt>
<totfact> 0.56123731E+05</totfact>
</mgrwt>
</event>
<event>
 4    1  0.5694171E+003  0.1238291E+03  0.7546771E-02  0.1236911E+00
         21   -1    0    0  503  501  0.00000000000E+00  0.00000000000E+00  0.10345011529E+03  0.10345011529E+03  0.00000000000E+00 0.  1.
         21   -1    0    0  501  502 -0.00000000000E+00 -0.00000000000E+00 -0.16901015522E+03  0.16901015522E+03  0.00000000000E+00 0.  1.
         21    1    1    2  503  504 -0.12090363385E+03  0.26757283271E+02  0.14996984494E+02  0.12473391852E+03  0.00000000000E+00 0.  1.
         21    1    1    2  504  502  0.12090363385E+03 -0.26757283271E+02 -0.80557024422E+02  0.14772635198E+03  0.00000000000E+00 0.  1.
<mgrwt>
<rscale>  2 0.12382908E+03</rscale>
<asrwt>0</asrwt>
<pdfrwt beam="1">  1       21 0.15915403E-01 0.12382908E+03</pdfrwt>
<pdfrwt beam="2">  1       21 0.26001562E-01 0.12382908E+03</pdfrwt>
<totfact> 0.49883678E+05</totfact>
</mgrwt>
</event>
<event>
 4    1  0.5694171E+003  0.1518484E+03  0.7546771E-02  0.1198220E+00
         21   -1    0    0  503  501  0.00000000000E+00  0.00000000000E+00  0.91043820191E+02  0.91043820191E+02  0.00000000000E+00 0. -1.
         21   -1    0    0  504  502 -0.00000000000E+00 -0.00000000000E+00 -0.25384819986E+03  0.25384819986E+03  0.00000000000E+00 0. -1.
         21    1    1    2  503  502 -0.47819233689E+01  0.15177304127E+03 -0.89690360628E+02  0.17635839543E+03  0.00000000000E+00 0. -1.
         21    1    1    2  504  501  0.47819233689E+01 -0.15177304127E+03 -0.73114019039E+02  0.16853362462E+03  0.00000000000E+00 0. -1.
<mgrwt>
<rscale>  2 0.15184835E+03</rscale>
<asrwt>0</asrwt>
<pdfrwt beam="1">  1       21 0.14006742E-01 0.15184835E+03</pdfrwt>
<pdfrwt beam="2">  1       21 0.39053569E-01 0.15184835E+03</pdfrwt>
<totfact> 0.28354048E+05</totfact>
</mgrwt>
</event>
<event>
 4    1  0.5694171E+003  0.2274802E+03  0.7546771E-02  0.1128426E+00
         21   -1    0    0  504  501  0.00000000000E+00  0.00000000000E+00  0.57305745214E+02  0.57305745214E+02  0.00000000000E+00 0. -1.
         21   -1    0    0  501  502 -0.00000000000E+00 -0.00000000000E+00 -0.12012195376E+04  0.12012195376E+04  0.00000000000E+00 0. -1.
         21    1    1    2  503  502 -0.22674320788E+03  0.18296775269E+02 -0.88549237216E+03  0.91424504125E+03  0.00000000000E+00 0. -1.
         21    1    1    2  504  503  0.22674320788E+03 -0.18296775269E+02 -0.25842142027E+03  0.34428024160E+03  0.00000000000E+00 0. -1.
<mgrwt>
<rscale>  2 0.22748023E+03</rscale>
<asrwt>0</asrwt>
<pdfrwt beam="1">  1       21 0.88162680E-02 0.22748023E+03</pdfrwt>
<pdfrwt beam="2">  1       21 0.18480302E+00 0.22748023E+03</pdfrwt>
<totfact> 0.16681998E+04</totfact>
</mgrwt>
</event>
<event>
 4    1  0.5694171E+003  0.1105950E+03  0.7546771E-02  0.1259472E+00
         21   -1    0    0  504  501  0.00000000000E+00  0.00000000000E+00  0.15700765948E+03  0.15700765948E+03  0.00000000000E+00 0.  1.
         21   -1    0    0  503  502 -0.00000000000E+00 -0.00000000000E+00 -0.22153653889E+03  0.22153653889E+03  0.00000000000E+00 0. -1.
         21    1    1    2  503  501 -0.10159088283E+03  0.43709717113E+02  0.12013838264E+03  0.16329261413E+03  0.00000000000E+00 0.  1.
         21    1    1    2  504  502  0.10159088283E+03 -0.43709717113E+02 -0.18466726205E+03  0.21525158424E+03  0.00000000000E+00 0. -1.
<mgrwt>
<rscale>  2 0.11059497E+03</rscale>
<asrwt>0</asrwt>
<pdfrwt beam="1">  1       21 0.24155024E-01 0.11059497E+03</pdfrwt>
<pdfrwt beam="2">  1       21 0.34082545E-01 0.11059497E+03</pdfrwt>
<totfact> 0.13794212E+05</totfact>
</mgrwt>
</event>
<event>
 4    1  0.5694171E+003  0.1381205E+03  0.7546771E-02  0.1215881E+00
         21   -1    0    0  504  501  0.00000000000E+00  0.00000000000E+00  0.19843637678E+04  0.19843637678E+04  0.00000000000E+00 0.  1.
         21   -1    0    0  503  502 -0.00000000000E+00 -0.00000000000E+00 -0.72298492352E+02  0.72298492352E+02  0.00000000000E+00 0. -1.
         21    1    1    2  503  501 -0.29823667600E+02  0.13486226048E+03 -0.14901203724E+01  0.13812856659E+03  0.00000000000E+00 0. -1.
         21    1    1    2  504  502  0.29823667600E+02 -0.13486226048E+03  0.19135553959E+04  0.19185336936E+04  0.00000000000E+00 0.  1.
<mgrwt>
<rscale>  2 0.13812053E+03</rscale>
<asrwt>0</asrwt>
<pdfrwt beam="1">  1       21 0.30528669E+00 0.13812053E+03</pdfrwt>
<pdfrwt beam="2">  1       21 0.11122846E-01 0.13812053E+03</pdfrwt>
<totfact> 0.23149710E+03</totfact>
</mgrwt>
</event>
<event>
 4    1  0.5694171E+003  0.1027923E+03  0.7546771E-02  0.1274531E+00
         21   -1    0    0  504  501  0.00000000000E+00  0.00000000000E+00  0.19551976729E+03  0.19551976729E+03  0.00000000000E+00 0.  1.
         21   -1    0    0  501  502 -0.00000000000E+00 -0.00000000000E+00 -0.11588957900E+03  0.11588957900E+03  0.00000000000E+00 0.  1.
         21    1    1    2  503  502  0.40364707581E+02  0.94535404374E+02 -0.73932256706E+02  0.12661844605E+03  0.00000000000E+00 0.  1.
         21    1    1    2  504  503 -0.40364707581E+02 -0.94535404374E+02  0.15356244500E+03  0.18479090024E+03  0.00000000000E+00 0.  1.
<mgrwt>
<rscale>  2 0.10279228E+03</rscale>
<asrwt>0</asrwt>
<pdfrwt beam="1">  1       21 0.30079964E-01 0.10279228E+03</pdfrwt>
<pdfrwt beam="2">  1       21 0.17829166E-01 0.10279228E+03</pdfrwt>
<totfact> 0.30828513E+05</totfact>
</mgrwt>
</event>
<event>
 4    1  0.5694171E+003  0.1357082E+03  0.7546771E-02  0.1219223E+00
         21   -1    0    0  503  501  0.00000000000E+00  0.00000000000E+00  0.34728331428E+02  0.34728331428E+02  0.00000000000E+00 0.  1.
         21   -1    0    0  504  502 -0.00000000000E+00 -0.00000000000E+00 -0.59337079612E+03  0.59337079612E+03  0.00000000000E+00 0. -1.
         21    1    1    2  503  502  0.12577107133E+03 -0.50974012363E+02 -0.38170277960E+03  0.40510952133E+03  0.00000000000E+00 0. -1.
         21    1    1    2  504  501 -0.12577107133E+03  0.50974012363E+02 -0.17693968509E+03  0.22298960621E+03  0.00000000000E+00 0.  1.
<mgrwt>
<rscale>  2 0.13570819E+03</rscale>
<asrwt>0</asrwt>
<pdfrwt beam="1">  1       21 0.53428203E-02 0.13570819E+03</pdfrwt>
<pdfrwt beam="2">  1       21 0.91287813E-01 0.13570819E+03</pdfrwt>
<totfact> 0.24824512E+05</totfact>
</mgrwt>
</event>
<event>
 4    1  0.5694171E+003  0.1112737E+03  0.7546771E-02  0.1258229E+00
         21   -1    0    0  504  501  0.00000000000E+00  0.00000000000E+00  0.15466268538E+03  0.15466268538E+03  0.00000000000E+00 0. -1.
         21   -1    0    0  503  502 -0.00000000000E+00 -0.00000000000E+00 -0.81573652304E+02  0.81573652304E+02  0.00000000000E+00 0. -1.
         21    1    1    2  503  501 -0.94983889740E+02 -0.57964644881E+02  0.20438925980E+02  0.11313526887E+03  0.00000000000E+00 0. -1.
         21    1    1    2  504  502  0.94983889740E+02  0.57964644881E+02  0.52650107094E+02  0.12310106882E+03  0.00000000000E+00 0. -1.
<mgrwt>
<rscale>  2 0.11127371E+03</rscale>
<asrwt>0</asrwt>
<pdfrwt beam="1">  1       21 0.23794259E-01 0.11127371E+03</pdfrwt>
<pdfrwt beam="2">  1       21 0.12549793E-01 0.11127371E+03</pdfrwt>
<totfact> 0.90206324E+05</totfact>
</mgrwt>
</event>
<event>
 4    1  0.5694171E+003  0.1096931E+03  0.7546771E-02  0.1261139E+00
         21   -1    0    0  502  501  0.00000000000E+00  0.00000000000E+00  0.28654726439E+02  0.28654726439E+02  0.00000000000E+00 0. -1.
         21   -1    0    0  503  502 -0.00000000000E+00 -0.00000000000E+00 -0.79632653515E+03  0.79632653515E+03  0.00000000000E+00 0. -1.
         21    1    1    2  503  504 -0.10500080456E+03 -0.31739691416E+02 -0.66743144841E+03  0.67638547833E+03  0.00000000000E+00 0. -1.
         21    1    1    2  504  501  0.10500080456E+03  0.31739691416E+02 -0.10024036030E+03  0.14859578326E+03  0.00000000000E+00 0. -1.
<mgrwt>
<rscale>  2 0.10969310E+03</rscale>
<asrwt>0</asrwt>
<pdfrwt beam="1">  1       21 0.44084202E-02 0.10969310E+03</pdfrwt>
<pdfrwt beam="2">  1       21 0.12251175E+00 0.10969310E+03</pdfrwt>
<totfact> 0.17230133E+05</totfact>
</mgrwt>
</event>
<event>
 4    1  0.5694171E+003  0.1045322E+03  0.7546771E-02  0.1271044E+00
         21   -1    0    0  504  501  0.00000000000E+00  0.00000000000E+00  0.57584253310E+02  0.57584253310E+02  0.00000000000E+00 0. -1.
         21   -1    0    0  503  502 -0.00000000000E+00 -0.00000000000E+00 -0.38292461273E+03  0.38292461273E+03  0.00000000000E+00 0.  1.
         21    1    1    2  503  501 -0.10203452256E+03 -0.22714149400E+02 -0.62344578405E+01  0.10471792989E+03  0.00000000000E+00 0. -1.
         21    1    1    2  504  502  0.10203452256E+03  0.22714149400E+02 -0.31910590158E+03  0.33579093615E+03  0.00000000000E+00 0.  1.
<mgrwt>
<rscale>  2 0.10453218E+03</rscale>
<asrwt>0</asrwt>
<pdfrwt beam="1">  1       21 0.88591162E-02 0.10453218E+03</pdfrwt>
<pdfrwt beam="2">  1       21 0.58911477E-01 0.10453218E+03</pdfrwt>
<totfact> 0.27618534E+05</totfact>
</mgrwt>
</event>
<event>
 4    1  0.5694171E+003  0.1068357E+03  0.7546771E-02  0.1266544E+00
         21   -1    0    0  503  501  0.00000000000E+00  0.00000000000E+00  0.10503778584E+03  0.10503778584E+03  0.00000000000E+00 0.  1.
         21   -1    0    0  501  502 -0.00000000000E+00 -0.00000000000E+00 -0.43640688505E+03  0.43640688505E+03  0.00000000000E+00 0. -1.
         21    1    1    2  503  504  0.59404927510E+02 -0.88797043794E+02  0.68924472893E+02  0.12713946422E+03  0.00000000000E+00 0.  1.
         21    1    1    2  504  502 -0.59404927510E+02  0.88797043794E+02 -0.40029357211E+03  0.41430520666E+03  0.00000000000E+00 0. -1.
<mgrwt>
<rscale>  2 0.10683567E+03</rscale>
<asrwt>0</asrwt>
<pdfrwt beam="1">  1       21 0.16159660E-01 0.10683567E+03</pdfrwt>
<pdfrwt beam="2">  1       21 0.67139520E-01 0.10683567E+03</pdfrwt>
<totfact> 0.72393521E+04</totfact>
</mgrwt>
</event>
<event>
 4    1  0.5694171E+003  0.1051134E+03  0.7546771E-02  0.1269896E+00
         21   -1    0    0  504  501  0.00000000000E+00  0.00000000000E+00  0.78153880043E+03  0.78153880043E+03  0.00000000000E+00 0.  1.
         21   -1    0    0  501  502 -0.00000000000E+00 -0.00000000000E+00 -0.46994517835E+02  0.46994517835E+02  0.00000000000E+00 0.  1.
         21    1    1    2  503  502 -0.10040005753E+03  0.31123105824E+02  0.20876815182E+02  0.10716650914E+03  0.00000000000E+00 0.  1.
         21    1    1    2  504  503  0.10040005753E+03 -0.31123105824E+02  0.71366746741E+03  0.72136680913E+03  0.00000000000E+00 0.  1.
<mgrwt>
<rscale>  2 0.10511336E+03</rscale>
<asrwt>0</asrwt>
<pdfrwt beam="1">  1       21 0.12023673E+00 0.10511336E+03</pdfrwt>
<pdfrwt beam="2">  1       21 0.72299264E-02 0.10511336E+03</pdfrwt>
<totfact> 0.78632993E+04</totfact>
</mgrwt>
</event>
<event>
 4    1  0.5694171E+003  0.1324813E+03  0.7546771E-02  0.1223820E+00
         21   -1    0    0  503  501  0.00000000000E+00  0.00000000000E+00  0.42363454320E+02  0.42363454320E+02  0.00000000000E+00 0.  1.
         21   -1    0    0  504  502 -0.00000000000E+00 -0.00000000000E+00 -0.41529709896E+03  0.41529709896E+03  0.00000000000E+00 0.  1.
         21    1    1    2  503  502 -0.13029597360E+03  0.23963763200E+02 -0.17527071502E+03  0.21970690983E+03  0.00000000000E+00 0.  1.
         21    1    1    2  504  501  0.13029597360E+03 -0.23963763200E+02 -0.19766292963E+03  0.23795364345E+03  0.00000000000E+00 0.  1.
<mgrwt>
<rscale>  2 0.13248133E+03</rscale>
<asrwt>0</asrwt>
<pdfrwt beam="1">  1       21 0.65174545E-02 0.13248133E+03</pdfrwt>
<pdfrwt beam="2">  1       21 0.63891861E-01 0.13248133E+03</pdfrwt>
<totfact> 0.39146849E+05</totfact>
</mgrwt>
</event>
<event>
 4    1  0.5694171E+003  0.1192669E+03  0.7546771E-02  0.1244311E+00
         21   -1    0    0  503  501  0.00000000000E+00  0.00000000000E+00  0.77542867449E+03  0.77542867449E+03  0.00000000000E+00 0. -1.
         21   -1    0    0  504  502 -0.00000000000E+00 -0.00000000000E+00 -0.29701868925E+02  0.29701868925E+02  0.00000000000E+00 0. -1.
         21    1    1    2  503  502  0.10893819881E+03 -0.48549690562E+02  0.12392643671E+03  0.17199524798E+03  0.00000000000E+00 0. -1.
         21    1    1    2  504  501 -0.10893819881E+03  0.48549690562E+02  0.62180036886E+03  0.63313529543E+03  0.00000000000E+00 0. -1.
<mgrwt>
<rscale>  2 0.11926694E+03</rscale>
<asrwt>0</asrwt>
<pdfrwt beam="1">  1       21 0.11929670E+00 0.11926694E+03</pdfrwt>
<pdfrwt beam="2">  1       21 0.45695189E-02 0.11926694E+03</pdfrwt>
<totfact> 0.17249005E+05</totfact>
</mgrwt>
</event>
<event>
 4    1  0.5694171E+003  0.1342630E+03  0.7546771E-02  0.1221264E+00
         21   -1    0    0  503  501  0.00000000000E+00  0.00000000000E+00  0.26059737079E+02  0.26059737079E+02  0.00000000000E+00 0. -1.
         21   -1    0    0  504  502 -0.00000000000E+00 -0.00000000000E+00 -0.69406295366E+03  0.69406295366E+03  0.00000000000E+00 0. -1.
         21    1    1    2  503  502  0.11416175747E+03  0.70665743836E+02 -0.35483342446E+03  0.37938544164E+03  0.00000000000E+00 0. -1.
         21    1    1    2  504  501 -0.11416175747E+03 -0.70665743836E+02 -0.31316979212E+03  0.34073724909E+03  0.00000000000E+00 0. -1.
<mgrwt>
<rscale>  2 0.13426300E+03</rscale>
<asrwt>0</asrwt>
<pdfrwt beam="1">  1       21 0.40091906E-02 0.13426300E+03</pdfrwt>
<pdfrwt beam="2">  1       21 0.10677891E+00 0.13426300E+03</pdfrwt>
<totfact> 0.27844687E+05</totfact>
</mgrwt>
</event>
<event>
 4    1  0.5694171E+003  0.1242970E+03  0.7546771E-02  0.1236172E+00
         21   -1    0    0  503  501  0.00000000000E+00  0.00000000000E+00  0.98183675994E+02  0.98183675994E+02  0.00000000000E+00 0. -1.
         21   -1    0    0  501  502 -0.00000000000E+00 -0.00000000000E+00 -0.97604566346E+03  0.97604566346E+03  0.00000000000E+00 0.  1.
         21    1    1    2  503  504  0.73794676886E+02  0.10002040609E+03  0.52985910426E+02  0.13511936454E+03  0.00000000000E+00 0. -1.
         21    1    1    2  504  502 -0.73794676886E+02 -0.10002040609E+03 -0.93084789789E+03  0.93910997491E+03  0.00000000000E+00 0.  1.
<mgrwt>
<rscale>  2 0.12429697E+03</rscale>
<asrwt>0</asrwt>
<pdfrwt beam="1">  1       21 0.15105180E-01 0.12429697E+03</pdfrwt>
<pdfrwt beam="2">  1       21 0.15016088E+00 0.12429697E+03</pdfrwt>
<totfact> 0.12222187E+04</totfact>
</mgrwt>
</event>
<event>
 4    1  0.5694171E+003  0.1022185E+03  0.7546771E-02  0.1275699E+00
         21   -1    0    0  502  501  0.00000000000E+00  0.00000000000E+00  0.20564406698E+02  0.20564406698E+02  0.00000000000E+00 0. -1.
         21   -1    0    0  504  502 -0.00000000000E+00 -0.00000000000E+00 -0.67211618873E+03  0.67211618873E+03  0.00000000000E+00 0. -1.
         21    1    1    2  503  501 -0.95006949949E+02  0.37713352250E+02 -0.15468206042E+03  0.18540538636E+03  0.00000000000E+00 0. -1.
         21    1    1    2  504  503  0.95006949949E+02 -0.37713352250E+02 -0.49686972162E+03  0.50727520907E+03  0.00000000000E+00 0. -1.
<mgrwt>
<rscale>  2 0.10221848E+03</rscale>
<asrwt>0</asrwt>
<pdfrwt beam="1">  1       21 0.31637545E-02 0.10221848E+03</pdfrwt>
<pdfrwt beam="2">  1       21 0.10340250E+00 0.10221848E+03</pdfrwt>
<totfact> 0.44710689E+05</totfact>
</mgrwt>
</event>
<event>
 4    1  0.5694171E+003  0.1013801E+03  0.7546771E-02  0.1277420E+00
         21   -1    0    0  504  501  0.00000000000E+00  0.00000000000E+00  0.16446150917E+02  0.16446150917E+02  0.00000000000E+00 0. -1.
         21   -1    0    0  503  502 -0.00000000000E+00 -0.00000000000E+00 -0.81039432081E+03  0.81039432081E+03  0.00000000000E+00 0.  1.
         21    1    1    2  503  501  0.79031096644E+02 -0.63498135867E+02 -0.19920562369E+03  0.22351914460E+03  0.00000000000E+00 0. -1.
         21    1    1    2  504  502 -0.79031096644E+02  0.63498135867E+02 -0.59474254621E+03  0.60332132713E+03  0.00000000000E+00 0.  1.
<mgrwt>
<rscale>  2 0.10138011E+03</rscale>
<asrwt>0</asrwt>
<pdfrwt beam="1">  1       21 0.25301770E-02 0.10138011E+03</pdfrwt>
<pdfrwt beam="2">  1       21 0.12467605E+00 0.10138011E+03</pdfrwt>
<totfact> 0.41148165E+05</totfact>
</mgrwt>
</event>
<event>
 4    1  0.5694171E+003  0.1074660E+03  0.7546771E-02  0.1265336E+00
         21   -1    0    0  504  501  0.00000000000E+00  0.00000000000E+00  0.13001134103E+02  0.13001134103E+02  0.00000000000E+00 0.  1.
         21   -1    0    0  503  502 -0.00000000000E+00 -0.00000000000E+00 -0.17384563893E+04  0.17384563893E+04  0.00000000000E+00 0. -1.
         21    1    1    2  503  501  0.28373025800E+02 -0.10365283825E+03 -0.25032577583E+03  0.27241867322E+03  0.00000000000E+00 0.  1.
         21    1    1    2  504  502 -0.28373025800E+02  0.10365283825E+03 -0.14751294794E+04  0.14790388502E+04  0.00000000000E+00 0. -1.
<mgrwt>
<rscale>  2 0.10746599E+03</rscale>
<asrwt>0</asrwt>
<pdfrwt beam="1">  1       21 0.20001754E-02 0.10746599E+03</pdfrwt>
<pdfrwt beam="2">  1       21 0.26745470E+00 0.10746599E+03</pdfrwt>
<totfact> 0.70125519E+04</totfact>
</mgrwt>
</event>
<event>
 4    1  0.5694171E+003  0.1917690E+03  0.7546771E-02  0.1156875E+00
         21   -1    0    0  503  501  0.00000000000E+00  0.00000000000E+00  0.15889719361E+04  0.15889719361E+04  0.00000000000E+00 0.  1.
         21   -1    0    0  504  502 -0.00000000000E+00 -0.00000000000E+00 -0.41004047964E+02  0.41004047964E+02  0.00000000000E+00 0.  1.
         21    1    1    2  503  502  0.13586905705E+03 -0.13533268113E+03  0.23611327436E+03  0.30417891704E+03  0.00000000000E+00 0.  1.
         21    1    1    2  504  501 -0.13586905705E+03  0.13533268113E+03  0.13118546138E+04  0.13257970671E+04  0.00000000000E+00 0.  1.
<mgrwt>
<rscale>  2 0.19176896E+03</rscale>
<asrwt>0</asrwt>
<pdfrwt beam="1">  1       21 0.24445717E+00 0.19176896E+03</pdfrwt>
<pdfrwt beam="2">  1       21 0.63083163E-02 0.19176896E+03</pdfrwt>
<totfact> 0.12982818E+04</totfact>
</mgrwt>
</event>
<event>
 4    1  0.5694171E+003  0.1030968E+03  0.7546771E-02  0.1273915E+00
         21   -1    0    0  503  501  0.00000000000E+00  0.00000000000E+00  0.15111767675E+03  0.15111767675E+03  0.00000000000E+00 0.  1.
         21   -1    0    0  501  502 -0.00000000000E+00 -0.00000000000E+00 -0.87435723973E+02  0.87435723973E+02  0.00000000000E+00 0.  1.
         21    1    1    2  503  504  0.63593455193E+02  0.81146907148E+02  0.84589603285E+02  0.13335797339E+03  0.00000000000E+00 0.  1.
         21    1    1    2  504  502 -0.63593455193E+02 -0.81146907148E+02 -0.20907650503E+02  0.10519542734E+03  0.00000000000E+00 0.  1.
<mgrwt>
<rscale>  2 0.10309679E+03</rscale>
<asrwt>0</asrwt>
<pdfrwt beam="1">  1       21 0.23248873E-01 0.10309679E+03</pdfrwt>
<pdfrwt beam="2">  1       21 0.13451650E-01 0.10309679E+03</pdfrwt>
<totfact> 0.83221140E+05</totfact>
</mgrwt>
</event>
<event>
 4    1  0.5694171E+003  0.1097901E+03  0.7546771E-02  0.1260959E+00
         21   -1    0    0  502  501  0.00000000000E+00  0.00000000000E+00  0.10440445543E+03  0.10440445543E+03  0.00000000000E+00 0.  1.
         21   -1    0    0  503  502 -0.00000000000E+00 -0.00000000000E+00 -0.31754164471E+03  0.31754164471E+03  0.00000000000E+00 0.  1.
         21    1    1    2  503  504 -0.25044503628E+02 -0.10689543649E+03 -0.27487360211E+03  0.29598878128E+03  0.00000000000E+00 0.  1.
         21    1    1    2  504  501  0.25044503628E+02  0.10689543649E+03  0.61736412836E+02  0.12595731886E+03  0.00000000000E+00 0.  1.
<mgrwt>
<rscale>  2 0.10979008E+03</rscale>
<asrwt>0</asrwt>
<pdfrwt beam="1">  1       21 0.16062224E-01 0.10979008E+03</pdfrwt>
<pdfrwt beam="2">  1       21 0.48852559E-01 0.10979008E+03</pdfrwt>
<totfact> 0.14240446E+05</totfact>
</mgrwt>
</event>
<event>
 4    1  0.5694171E+003  0.1056783E+03  0.7546771E-02  0.1268789E+00
         21   -1    0    0  504  501  0.00000000000E+00  0.00000000000E+00  0.50724518269E+03  0.50724518269E+03  0.00000000000E+00 0. -1.
         21   -1    0    0  503  502 -0.00000000000E+00 -0.00000000000E+00 -0.22739915453E+02  0.22739915453E+02  0.00000000000E+00 0.  1.
         21    1    1    2  503  501 -0.10552207052E+03  0.57440747338E+01  0.28950802190E+03  0.30819279113E+03  0.00000000000E+00 0. -1.
         21    1    1    2  504  502  0.10552207052E+03 -0.57440747338E+01  0.19499724533E+03  0.22179230701E+03  0.00000000000E+00 0.  1.
<mgrwt>
<rscale>  2 0.10567829E+03</rscale>
<asrwt>0</asrwt>
<pdfrwt beam="1">  1       21 0.78037712E-01 0.10567829E+03</pdfrwt>
<pdfrwt beam="2">  1       21 0.34984489E-02 0.10567829E+03</pdfrwt>
<totfact> 0.71852115E+05</totfact>
</mgrwt>
</event>
<event>
 4    1  0.5694171E+003  0.1173033E+03  0.7546771E-02  0.1247613E+00
         21   -1    0    0  503  501  0.00000000000E+00  0.00000000000E+00  0.11024046468E+03  0.11024046468E+03  0.00000000000E+00 0. -1.
         21   -1    0    0  504  502 -0.00000000000E+00 -0.00000000000E+00 -0.14953550952E+03  0.14953550952E+03  0.00000000000E+00 0. -1.
         21    1    1    2  503  502  0.97812548838E+02  0.64751546376E+02 -0.72454844169E+02  0.13787589315E+03  0.00000000000E+00 0. -1.
         21    1    1    2  504  501 -0.97812548838E+02 -0.64751546376E+02  0.33159799325E+02  0.12190008105E+03  0.00000000000E+00 0. -1.
<mgrwt>
<rscale>  2 0.11730327E+03</rscale>
<asrwt>0</asrwt>
<pdfrwt beam="1">  1       21 0.16960071E-01 0.11730327E+03</pdfrwt>
<pdfrwt beam="2">  1       21 0.23005463E-01 0.11730327E+03</pdfrwt>
<totfact> 0.55992057E+05</totfact>
</mgrwt>
</event>
<event>
 4    1  0.5694171E+003  0.1375676E+03  0.7546771E-02  0.1216640E+00
         21   -1    0    0  504  501  0.00000000000E+00  0.00000000000E+00  0.21320497598E+02  0.21320497598E+02  0.00000000000E+00 0.  1.
         21   -1    0    0  503  502 -0.00000000000E+00 -0.00000000000E+00 -0.96456289602E+03  0.96456289602E+03  0.00000000000E+00 0.  1.
         21    1    1    2  503  501 -0.13636088544E+03  0.18181168804E+02 -0.33241173803E+03  0.35975326205E+03  0.00000000000E+00 0.  1.
         21    1    1    2  504  502  0.13636088544E+03 -0.18181168804E+02 -0.61083066039E+03  0.62613013156E+03  0.00000000000E+00 0.  1.
<mgrwt>
<rscale>  2 0.13756761E+03</rscale>
<asrwt>0</asrwt>
<pdfrwt beam="1">  1       21 0.32800768E-02 0.13756761E+03</pdfrwt>
<pdfrwt beam="2">  1       21 0.14839428E+00 0.13756761E+03</pdfrwt>
<totfact> 0.17167971E+05</totfact>
</mgrwt>
</event>
<event>
 4    1  0.5694171E+003  0.1072637E+03  0.7546771E-02  0.1265723E+00
         21   -1    0    0  504  501  0.00000000000E+00  0.00000000000E+00  0.17236714034E+03  0.17236714034E+03  0.00000000000E+00 0.  1.
         21   -1    0    0  503  502 -0.00000000000E+00 -0.00000000000E+00 -0.84418445653E+02  0.84418445653E+02  0.00000000000E+00 0.  1.
         21    1    1    2  503  501 -0.10053600630E+03 -0.37390041976E+02  0.10271264340E+03  0.14851057510E+03  0.00000000000E+00 0.  1.
         21    1    1    2  504  502  0.10053600630E+03  0.37390041976E+02 -0.14763948715E+02  0.10827501089E+03  0.00000000000E+00 0.  1.
<mgrwt>
<rscale>  2 0.10726371E+03</rscale>
<asrwt>0</asrwt>
<pdfrwt beam="1">  1       21 0.26518022E-01 0.10726371E+03</pdfrwt>
<pdfrwt beam="2">  1       21 0.12987453E-01 0.10726371E+03</pdfrwt>
<totfact> 0.69206436E+05</totfact>
</mgrwt>
</event>
<event>
 4    1  0.5694171E+003  0.1173108E+03  0.7546771E-02  0.1247600E+00
         21   -1    0    0  503  501  0.00000000000E+00  0.00000000000E+00  0.24930408994E+03  0.24930408994E+03  0.00000000000E+00 0. -1.
         21   -1    0    0  504  502 -0.00000000000E+00 -0.00000000000E+00 -0.31464276353E+03  0.31464276353E+03  0.00000000000E+00 0. -1.
         21    1    1    2  503  502  0.11113794788E+03  0.37552456872E+02 -0.28871608671E+03  0.31163890836E+03  0.00000000000E+00 0. -1.
         21    1    1    2  504  501 -0.11113794788E+03 -0.37552456872E+02  0.22337741312E+03  0.25230794512E+03  0.00000000000E+00 0. -1.
<mgrwt>
<rscale>  2 0.11731083E+03</rscale>
<asrwt>0</asrwt>
<pdfrwt beam="1">  1       21 0.38354475E-01 0.11731083E+03</pdfrwt>
<pdfrwt beam="2">  1       21 0.48406579E-01 0.11731083E+03</pdfrwt>
<totfact> 0.27984009E+04</totfact>
</mgrwt>
</event>
<event>
 4    1  0.5694171E+003  0.1330515E+03  0.7546771E-02  0.1222997E+00
         21   -1    0    0  504  501  0.00000000000E+00  0.00000000000E+00  0.13726297178E+02  0.13726297178E+02  0.00000000000E+00 0.  1.
         21   -1    0    0  503  502 -0.00000000000E+00 -0.00000000000E+00 -0.13623843677E+04  0.13623843677E+04  0.00000000000E+00 0.  1.
         21    1    1    2  503  501 -0.63939424605E+02  0.11668093190E+03 -0.83326390955E+03  0.84381954993E+03  0.00000000000E+00 0.  1.
         21    1    1    2  504  502  0.63939424605E+02 -0.11668093190E+03 -0.51539416097E+03  0.53229111494E+03  0.00000000000E+00 0.  1.
<mgrwt>
<rscale>  2 0.13305146E+03</rscale>
<asrwt>0</asrwt>
<pdfrwt beam="1">  1       21 0.21117370E-02 0.13305146E+03</pdfrwt>
<pdfrwt beam="2">  1       21 0.20959770E+00 0.13305146E+03</pdfrwt>
<totfact> 0.13623385E+05</totfact>
</mgrwt>
</event>
<event>
 4    1  0.5694171E+003  0.1076460E+03  0.7546771E-02  0.1264992E+00
         21   -1    0    0  503  501  0.00000000000E+00  0.00000000000E+00  0.11137471466E+02  0.11137471466E+02  0.00000000000E+00 0.  1.
         21   -1    0    0  504  502 -0.00000000000E+00 -0.00000000000E+00 -0.11133616548E+04  0.11133616548E+04  0.00000000000E+00 0.  1.
         21    1    1    2  503  502 -0.10646524029E+03 -0.15900138576E+02 -0.69502346953E+03  0.70331023381E+03  0.00000000000E+00 0.  1.
         21    1    1    2  504  501  0.10646524029E+03  0.15900138576E+02 -0.40720071377E+03  0.42118889242E+03  0.00000000000E+00 0.  1.
<mgrwt>
<rscale>  2 0.10764600E+03</rscale>
<asrwt>0</asrwt>
<pdfrwt beam="1">  1       21 0.17134570E-02 0.10764600E+03</pdfrwt>
<pdfrwt beam="2">  1       21 0.17128643E+00 0.10764600E+03</pdfrwt>
<totfact> 0.34153300E+05</totfact>
</mgrwt>
</event>
<event>
 4    1  0.5694171E+003  0.1076480E+03  0.7546771E-02  0.1264988E+00
         21   -1    0    0  503  501  0.00000000000E+00  0.00000000000E+00  0.20590652704E+03  0.20590652704E+03  0.00000000000E+00 0.  1.
         21   -1    0    0  504  502 -0.00000000000E+00 -0.00000000000E+00 -0.57098901949E+02  0.57098901949E+02  0.00000000000E+00 0.  1.
         21    1    1    2  503  502  0.57193456143E+02 -0.91197612674E+02  0.58640306485E+02  0.12258377351E+03  0.00000000000E+00 0.  1.
         21    1    1    2  504  501 -0.57193456143E+02  0.91197612674E+02  0.90167318606E+02  0.14042165548E+03  0.00000000000E+00 0.  1.
<mgrwt>
<rscale>  2 0.10764802E+03</rscale>
<asrwt>0</asrwt>
<pdfrwt beam="1">  1       21 0.31677927E-01 0.10764802E+03</pdfrwt>
<pdfrwt beam="2">  1       21 0.87844465E-02 0.10764802E+03</pdfrwt>
<totfact> 0.97624663E+05</totfact>
</mgrwt>
</event>
<event>
 4    1  0.5694171E+003  0.1108834E+03  0.7546771E-02  0.1258943E+00
         21   -1    0    0  504  501  0.00000000000E+00  0.00000000000E+00  0.27875895069E+02  0.27875895069E+02  0.00000000000E+00 0.  1.
         21   -1    0    0  503  502 -0.00000000000E+00 -0.00000000000E+00 -0.59840492240E+03  0.59840492240E+03  0.00000000000E+00 0.  1.
         21    1    1    2  503  501  0.55142646638E+02  0.96199830835E+02 -0.12469645525E+03  0.16686618855E+03  0.00000000000E+00 0.  1.
         21    1    1    2  504  502 -0.55142646638E+02 -0.96199830835E+02 -0.44583257208E+03  0.45941462892E+03  0.00000000000E+00 0.  1.
<mgrwt>
<rscale>  2 0.11088336E+03</rscale>
<asrwt>0</asrwt>
<pdfrwt beam="1">  1       21 0.42885990E-02 0.11088336E+03</pdfrwt>
<pdfrwt beam="2">  1       21 0.92062300E-01 0.11088336E+03</pdfrwt>
<totfact> 0.35385873E+05</totfact>
</mgrwt>
</event>
<event>
 4    1  0.5694171E+003  0.1153674E+03  0.7546771E-02  0.1250941E+00
         21   -1    0    0  504  501  0.00000000000E+00  0.00000000000E+00  0.57601188681E+03  0.57601188681E+03  0.00000000000E+00 0. -1.
         21   -1    0    0  501  502 -0.00000000000E+00 -0.00000000000E+00 -0.47922436500E+02  0.47922436500E+02  0.00000000000E+00 0.  1.
         21    1    1    2  503  502  0.18306121722E+02  0.11390574719E+03  0.39550823454E+02  0.12195860351E+03  0.00000000000E+00 0.  1.
         21    1    1    2  504  503 -0.18306121722E+02 -0.11390574719E+03  0.48853862685E+03  0.50197571979E+03  0.00000000000E+00 0. -1.
<mgrwt>
<rscale>  2 0.11536738E+03</rscale>
<asrwt>0</asrwt>
<pdfrwt beam="1">  1       21 0.88617209E-01 0.11536738E+03</pdfrwt>
<pdfrwt beam="2">  1       21 0.73726829E-02 0.11536738E+03</pdfrwt>
<totfact> 0.15471715E+05</totfact>
</mgrwt>
</event>
<event>
 4    1  0.5694171E+003  0.1154296E+03  0.7546771E-02  0.1250833E+00
         21   -1    0    0  502  501  0.00000000000E+00  0.00000000000E+00  0.82577657977E+03  0.82577657977E+03  0.00000000000E+00 0. -1.
         21   -1    0    0  503  502 -0.00000000000E+00 -0.00000000000E+00 -0.22937096715E+02  0.22937096715E+02  0.00000000000E+00 0. -1.
         21    1    1    2  503  504 -0.11530303314E+03  0.54039877856E+01  0.17033035281E+03  0.20575816295E+03  0.00000000000E+00 0. -1.
         21    1    1    2  504  501  0.11530303314E+03 -0.54039877856E+01  0.63250913024E+03  0.64295551353E+03  0.00000000000E+00 0. -1.
<mgrwt>
<rscale>  2 0.11542960E+03</rscale>
<asrwt>0</asrwt>
<pdfrwt beam="1">  1       21 0.12704253E+00 0.11542960E+03</pdfrwt>
<pdfrwt beam="2">  1       21 0.35287847E-02 0.11542960E+03</pdfrwt>
<totfact> 0.22726360E+05</totfact>
</mgrwt>
</event>
<event>
 4    1  0.5694171E+003  0.1150294E+03  0.7546771E-02  0.1251530E+00
         21   -1    0    0  503  501  0.00000000000E+00  0.00000000000E+00  0.16119683657E+04  0.16119683657E+04  0.00000000000E+00 0. -1.
         21   -1    0    0  504  502 -0.00000000000E+00 -0.00000000000E+00 -0.12502930191E+02  0.12502930191E+02  0.00000000000E+00 0. -1.
         21    1    1    2  503  502 -0.84686597098E+02  0.77845684363E+02  0.32370616747E+03  0.34353668386E+03  0.00000000000E+00 0. -1.
         21    1    1    2  504  501  0.84686597098E+02 -0.77845684363E+02  0.12757592680E+04  0.12809346120E+04  0.00000000000E+00 0. -1.
<mgrwt>
<rscale>  2 0.11502943E+03</rscale>
<asrwt>0</asrwt>
<pdfrwt beam="1">  1       21 0.24799497E+00 0.11502943E+03</pdfrwt>
<pdfrwt beam="2">  1       21 0.19235290E-02 0.11502943E+03</pdfrwt>
<totfact> 0.95365784E+04</totfact>
</mgrwt>
</event>
<event>
 4    1  0.5694171E+003  0.1230733E+03  0.7546771E-02  0.1238111E+00
         21   -1    0    0  502  501  0.00000000000E+00  0.00000000000E+00  0.16419353519E+03  0.16419353519E+03  0.00000000000E+00 0.  1.
         21   -1    0    0  503  502 -0.00000000000E+00 -0.00000000000E+00 -0.97017815893E+02  0.97017815893E+02  0.00000000000E+00 0.  1.
         21    1    1    2  503  504  0.46110699340E+02  0.11410888671E+03  0.62537677125E+02  0.13805069967E+03  0.00000000000E+00 0.  1.
         21    1    1    2  504  501 -0.46110699340E+02 -0.11410888671E+03  0.46380421729E+01  0.12316065141E+03  0.00000000000E+00 0.  1.
<mgrwt>
<rscale>  2 0.12307329E+03</rscale>
<asrwt>0</asrwt>
<pdfrwt beam="1">  1       21 0.25260544E-01 0.12307329E+03</pdfrwt>
<pdfrwt beam="2">  1       21 0.14925818E-01 0.12307329E+03</pdfrwt>
<totfact> 0.59162566E+05</totfact>
</mgrwt>
</event>
<event>
 4    1  0.5694171E+003  0.1011157E+03  0.7546771E-02  0.1277967E+00
         21   -1    0    0  503  501  0.00000000000E+00  0.00000000000E+00  0.31020859341E+03  0.31020859341E+03  0.00000000000E+00 0.  1.
         21   -1    0    0  504  502 -0.00000000000E+00 -0.00000000000E+00 -0.33939062136E+02  0.33939062136E+02  0.00000000000E+00 0.  1.
         21    1    1    2  503  502  0.15505091135E+01  0.10110382639E+03  0.10890451468E+03  0.14860881907E+03  0.00000000000E+00 0.  1.
         21    1    1    2  504  501 -0.15505091135E+01 -0.10110382639E+03  0.16736501660E+03  0.19553883648E+03  0.00000000000E+00 0.  1.
<mgrwt>
<rscale>  2 0.10111571E+03</rscale>
<asrwt>0</asrwt>
<pdfrwt beam="1">  1       21 0.47724397E-01 0.10111571E+03</pdfrwt>
<pdfrwt beam="2">  1       21 0.52213944E-02 0.10111571E+03</pdfrwt>
<totfact> 0.10479903E+06</totfact>
</mgrwt>
</event>
<event>
 4    1  0.5694171E+003  0.1687216E+03  0.7546771E-02  0.1179188E+00
         21   -1    0    0  504  501  0.00000000000E+00  0.00000000000E+00  0.85237032332E+03  0.85237032332E+03  0.00000000000E+00 0. -1.
         21   -1    0    0  503  502 -0.00000000000E+00 -0.00000000000E+00 -0.96896769447E+02  0.96896769447E+02  0.00000000000E+00 0.  1.
         21    1    1    2  503  501 -0.15773250059E+03  0.59895318133E+02 -0.64906250579E+01  0.16884643642E+03  0.00000000000E+00 0.  1.
         21    1    1    2  504  502  0.15773250059E+03 -0.59895318133E+02  0.76196417893E+03  0.78042065635E+03  0.00000000000E+00 0. -1.
<mgrwt>
<rscale>  2 0.16872164E+03</rscale>
<asrwt>0</asrwt>
<pdfrwt beam="1">  1       21 0.13113389E+00 0.16872164E+03</pdfrwt>
<pdfrwt beam="2">  1       21 0.14907196E-01 0.16872164E+03</pdfrwt>
<totfact> 0.17056508E+04</totfact>
</mgrwt>
</event>
<event>
 4    1  0.5694171E+003  0.1232292E+03  0.7546771E-02  0.1237863E+00
         21   -1    0    0  504  501  0.00000000000E+00  0.00000000000E+00  0.83744077137E+02  0.83744077137E+02  0.00000000000E+00 0.  1.
         21   -1    0    0  503  502 -0.00000000000E+00 -0.00000000000E+00 -0.49816464101E+03  0.49816464101E+03  0.00000000000E+00 0.  1.
         21    1    1    2  503  501  0.12309368080E+03 -0.57766150005E+01  0.24824904691E+02  0.12570481068E+03  0.00000000000E+00 0.  1.
         21    1    1    2  504  502 -0.12309368080E+03  0.57766150005E+01 -0.43924546856E+03  0.45620390747E+03  0.00000000000E+00 0.  1.
<mgrwt>
<rscale>  2 0.12322915E+03</rscale>
<asrwt>0</asrwt>
<pdfrwt beam="1">  1       21 0.12883704E-01 0.12322915E+03</pdfrwt>
<pdfrwt beam="2">  1       21 0.76640714E-01 0.12322915E+03</pdfrwt>
<totfact> 0.80685680E+04</totfact>
</mgrwt>
</event>
<event>
 4    1  0.5694171E+003  0.1075035E+03  0.7546771E-02  0.1265264E+00
         21   -1    0    0  502  501  0.00000000000E+00  0.00000000000E+00  0.11252412291E+02  0.11252412291E+02  0.00000000000E+00 0.  1.
         21   -1    0    0  504  502 -0.00000000000E+00 -0.00000000000E+00 -0.10803986269E+04  0.10803986269E+04  0.00000000000E+00 0.  1.
         21    1    1    2  503  501 -0.72491431841E+02 -0.79385069243E+02 -0.41330443986E+03  0.42705685443E+03  0.00000000000E+00 0.  1.
         21    1    1    2  504  503  0.72491431841E+02  0.79385069243E+02 -0.65584177474E+03  0.66459418475E+03  0.00000000000E+00 0.  1.
<mgrwt>
<rscale>  2 0.10750347E+03</rscale>
<asrwt>0</asrwt>
<pdfrwt beam="1">  1       21 0.17311401E-02 0.10750347E+03</pdfrwt>
<pdfrwt beam="2">  1       21 0.16621520E+00 0.10750347E+03</pdfrwt>
<totfact> 0.36409227E+05</totfact>
</mgrwt>
</event>
<event>
 4    1  0.5694171E+003  0.1016516E+03  0.7546771E-02  0.1276861E+00
         21   -1    0    0  503  501  0.00000000000E+00  0.00000000000E+00  0.12927791591E+03  0.12927791591E+03  0.00000000000E+00 0. -1.
         21   -1    0    0  504  502 -0.00000000000E+00 -0.00000000000E+00 -0.87568403777E+02  0.87568403777E+02  0.00000000000E+00 0. -1.
         21    1    1    2  503  502 -0.27264835137E+02  0.97926894886E+02  0.52879046739E+02  0.11458290257E+03  0.00000000000E+00 0. -1.
         21    1    1    2  504  501  0.27264835137E+02 -0.97926894886E+02 -0.11169534607E+02  0.10226341712E+03  0.00000000000E+00 0. -1.
<mgrwt>
<rscale>  2 0.10165160E+03</rscale>
<asrwt>0</asrwt>
<pdfrwt beam="1">  1       21 0.19888910E-01 0.10165160E+03</pdfrwt>
<pdfrwt beam="2">  1       21 0.13472062E-01 0.10165160E+03</pdfrwt>
<totfact> 0.11076166E+06</totfact>
</mgrwt>
</event>
<event>
 4    1  0.5694171E+003  0.1020209E+03  0.7546771E-02  0.1276103E+00
         21   -1    0    0  502  501  0.00000000000E+00  0.00000000000E+00  0.55155773066E+03  0.55155773066E+03  0.00000000000E+00 0. -1.
         21   -1    0    0  503  502 -0.00000000000E+00 -0.00000000000E+00 -0.23596620419E+02  0.23596620419E+02  0.00000000000E+00 0. -1.
         21    1    1    2  503  504  0.24401749396E+02 -0.99059657804E+02  0.13528180779E+03  0.16943856910E+03  0.00000000000E+00 0. -1.
         21    1    1    2  504  501 -0.24401749396E+02  0.99059657804E+02  0.39267930245E+03  0.40571578198E+03  0.00000000000E+00 0. -1.
<mgrwt>
<rscale>  2 0.10202089E+03</rscale>
<asrwt>0</asrwt>
<pdfrwt beam="1">  1       21 0.84855025E-01 0.10202089E+03</pdfrwt>
<pdfrwt beam="2">  1       21 0.36302497E-02 0.10202089E+03</pdfrwt>
<totfact> 0.56119812E+05</totfact>
</mgrwt>
</event>
<event>
 4    1  0.5694171E+003  0.1279046E+03  0.7546771E-02  0.1230599E+00
         21   -1    0    0  503  501  0.00000000000E+00  0.00000000000E+00  0.29736422129E+03  0.29736422129E+03  0.00000000000E+00 0.  1.
         21   -1    0    0  504  502 -0.00000000000E+00 -0.00000000000E+00 -0.12317384389E+03  0.12317384389E+03  0.00000000000E+00 0.  1.
         21    1    1    2  503  502 -0.12282479171E+03 -0.35688238731E+02  0.24350941205E+03  0.27505710970E+03  0.00000000000E+00 0.  1.
         21    1    1    2  504  501  0.12282479171E+03  0.35688238731E+02 -0.69319034648E+02  0.14548095548E+03  0.00000000000E+00 0.  1.
<mgrwt>
<rscale>  2 0.12790457E+03</rscale>
<asrwt>0</asrwt>
<pdfrwt beam="1">  1       21 0.45748341E-01 0.12790457E+03</pdfrwt>
<pdfrwt beam="2">  1       21 0.18949822E-01 0.12790457E+03</pdfrwt>
<totfact> 0.11966521E+05</totfact>
</mgrwt>
</event>
<event>
 4    1  0.5694171E+003  0.1448512E+03  0.7546771E-02  0.1206946E+00
         21   -1    0    0  503  501  0.00000000000E+00  0.00000000000E+00  0.20136914304E+03  0.20136914304E+03  0.00000000000E+00 0.  1.
         21   -1    0    0  504  502 -0.00000000000E+00 -0.00000000000E+00 -0.10917331353E+03  0.10917331353E+03  0.00000000000E+00 0.  1.
         21    1    1    2  503  502  0.13285211669E+03  0.57725162804E+02  0.79251147821E+02  0.16511397204E+03  0.00000000000E+00 0.  1.
         21    1    1    2  504  501 -0.13285211669E+03 -0.57725162804E+02  0.12944681686E+02  0.14542848454E+03  0.00000000000E+00 0.  1.
<mgrwt>
<rscale>  2 0.14485123E+03</rscale>
<asrwt>0</asrwt>
<pdfrwt beam="1">  1       21 0.30979868E-01 0.14485123E+03</pdfrwt>
<pdfrwt beam="2">  1       21 0.16795894E-01 0.14485123E+03</pdfrwt>
<totfact> 0.32239199E+05</totfact>
</mgrwt>
</event>
<event>
 4    1  0.5694171E+003  0.1434638E+03  0.7546771E-02  0.1208743E+00
         21   -1    0    0  503  501  0.00000000000E+00  0.00000000000E+00  0.11639476361E+04  0.11639476361E+04  0.00000000000E+00 0.  1.
         21   -1    0    0  504  502 -0.00000000000E+00 -0.00000000000E+00 -0.28526325081E+02  0.28526325081E+02  0.00000000000E+00 0.  1.
         21    1    1    2  503  502  0.12410562421E+03  0.71969918506E+02  0.93531519282E+03  0.94625386924E+03  0.00000000000E+00 0.  1.
         21    1    1    2  504  501 -0.12410562421E+03 -0.71969918506E+02  0.20010611815E+03  0.24622009190E+03  0.00000000000E+00 0.  1.
<mgrwt>
<rscale>  2 0.14346385E+03</rscale>
<asrwt>0</asrwt>
<pdfrwt beam="1">  1       21 0.17906883E+00 0.14346385E+03</pdfrwt>
<pdfrwt beam="2">  1       21 0.43886663E-02 0.14346385E+03</pdfrwt>
<totfact> 0.63813841E+04</totfact>
</mgrwt>
</event>
<event>
 4    1  0.5694171E+003  0.1021362E+03  0.7546771E-02  0.1275867E+00
         21   -1    0    0  503  501  0.00000000000E+00  0.00000000000E+00  0.16152696843E+03  0.16152696843E+03  0.00000000000E+00 0.  1.
         21   -1    0    0  504  502 -0.00000000000E+00 -0.00000000000E+00 -0.66024592352E+02  0.66024592352E+02  0.00000000000E+00 0.  1.
         21    1    1    2  503  502 -0.14041728227E+02  0.10116631611E+03  0.30935532246E+02  0.10671832459E+03  0.00000000000E+00 0.  1.
         21    1    1    2  504  501  0.14041728227E+02 -0.10116631611E+03  0.64566843836E+02  0.12083323620E+03  0.00000000000E+00 0.  1.
<mgrwt>
<rscale>  2 0.10213615E+03</rscale>
<asrwt>0</asrwt>
<pdfrwt beam="1">  1       21 0.24850303E-01 0.10213615E+03</pdfrwt>
<pdfrwt beam="2">  1       21 0.10157630E-01 0.10213615E+03</pdfrwt>
<totfact> 0.12036151E+06</totfact>
</mgrwt>
</event>
<event>
 4    1  0.5694171E+003  0.1248504E+03  0.7546771E-02  0.1235303E+00
         21   -1    0    0  503  501  0.00000000000E+00  0.00000000000E+00  0.58699507819E+02  0.58699507819E+02  0.00000000000E+00 0.  1.
         21   -1    0    0  504  502 -0.00000000000E+00 -0.00000000000E+00 -0.82607740043E+03  0.82607740043E+03  0.00000000000E+00 0. -1.
         21    1    1    2  503  502  0.83701349166E+02 -0.92637544313E+02 -0.19277513165E+02  0.12632993700E+03  0.00000000000E+00 0.  1.
         21    1    1    2  504  501 -0.83701349166E+02  0.92637544313E+02 -0.74810037945E+03  0.75844697125E+03  0.00000000000E+00 0. -1.
<mgrwt>
<rscale>  2 0.12485043E+03</rscale>
<asrwt>0</asrwt>
<pdfrwt beam="1">  1       21 0.90306948E-02 0.12485043E+03</pdfrwt>
<pdfrwt beam="2">  1       21 0.12708881E+00 0.12485043E+03</pdfrwt>
<totfact> 0.46227062E+04</totfact>
</mgrwt>
</event>
<event>
 4    1  0.5694171E+003  0.1041099E+03  0.7546771E-02  0.1271883E+00
         21   -1    0    0  504  501  0.00000000000E+00  0.00000000000E+00  0.60070823816E+02  0.60070823816E+02  0.00000000000E+00 0.  1.
         21   -1    0    0  501  502 -0.00000000000E+00 -0.00000000000E+00 -0.33444107271E+03  0.33444107271E+03  0.00000000000E+00 0.  1.
         21    1    1    2  503  502 -0.10037677212E+03  0.27629087932E+02 -0.27104166848E+03  0.29034884008E+03  0.00000000000E+00 0.  1.
         21    1    1    2  504  503  0.10037677212E+03 -0.27629087932E+02 -0.33285804122E+01  0.10416305645E+03  0.00000000000E+00 0.  1.
<mgrwt>
<rscale>  2 0.10410986E+03</rscale>
<asrwt>0</asrwt>
<pdfrwt beam="1">  1       21 0.92416651E-02 0.10410986E+03</pdfrwt>
<pdfrwt beam="2">  1       21 0.51452473E-01 0.10410986E+03</pdfrwt>
<totfact> 0.34029963E+05</totfact>
</mgrwt>
</event>
<event>
 4    1  0.5694171E+003  0.1024582E+03  0.7546771E-02  0.1275210E+00
         21   -1    0    0  502  501  0.00000000000E+00  0.00000000000E+00  0.42737834078E+03  0.42737834078E+03  0.00000000000E+00 0. -1.
         21   -1    0    0  503  502 -0.00000000000E+00 -0.00000000000E+00 -0.52854398960E+02  0.52854398960E+02  0.00000000000E+00 0. -1.
         21    1    1    2  503  504  0.47586041921E+02  0.90737242469E+02  0.11587484755E+02  0.10311133963E+03  0.00000000000E+00 0. -1.
         21    1    1    2  504  501 -0.47586041921E+02 -0.90737242469E+02  0.36293645706E+03  0.37712140011E+03  0.00000000000E+00 0. -1.
<mgrwt>
<rscale>  2 0.10245818E+03</rscale>
<asrwt>0</asrwt>
<pdfrwt beam="1">  1       21 0.65750512E-01 0.10245818E+03</pdfrwt>
<pdfrwt beam="2">  1       21 0.81314463E-02 0.10245818E+03</pdfrwt>
<totfact> 0.25361348E+05</totfact>
</mgrwt>
</event>
<event>
 4    1  0.5694171E+003  0.1191368E+03  0.7546771E-02  0.1244528E+00
         21   -1    0    0  503  501  0.00000000000E+00  0.00000000000E+00  0.16268530360E+03  0.16268530360E+03  0.00000000000E+00 0.  1.
         21   -1    0    0  501  502 -0.00000000000E+00 -0.00000000000E+00 -0.42360048743E+03  0.42360048743E+03  0.00000000000E+00 0.  1.
         21    1    1    2  503  504 -0.75369347882E+01  0.11889812387E+03  0.13075857328E+03  0.17689367918E+03  0.00000000000E+00 0.  1.
         21    1    1    2  504  502  0.75369347882E+01 -0.11889812387E+03 -0.39167375710E+03  0.40939211185E+03  0.00000000000E+00 0.  1.
<mgrwt>
<rscale>  2 0.11913677E+03</rscale>
<asrwt>0</asrwt>
<pdfrwt beam="1">  1       21 0.25028509E-01 0.11913677E+03</pdfrwt>
<pdfrwt beam="2">  1       21 0.65169305E-01 0.11913677E+03</pdfrwt>
<totfact> 0.34184376E+04</totfact>
</mgrwt>
</event>
<event>
 4    1  0.5694171E+003  0.1039062E+03  0.7546771E-02  0.1272290E+00
         21   -1    0    0  502  501  0.00000000000E+00  0.00000000000E+00  0.14671159702E+02  0.14671159702E+02  0.00000000000E+00 0.  1.
         21   -1    0    0  504  502 -0.00000000000E+00 -0.00000000000E+00 -0.84299068396E+03  0.84299068396E+03  0.00000000000E+00 0.  1.
         21    1    1    2  503  501  0.10256969657E+03  0.16611766417E+02 -0.26131437116E+03  0.28121467602E+03  0.00000000000E+00 0.  1.
         21    1    1    2  504  503 -0.10256969657E+03 -0.16611766417E+02 -0.56700515310E+03  0.57644716764E+03  0.00000000000E+00 0.  1.
<mgrwt>
<rscale>  2 0.10390618E+03</rscale>
<asrwt>0</asrwt>
<pdfrwt beam="1">  1       21 0.22571000E-02 0.10390618E+03</pdfrwt>
<pdfrwt beam="2">  1       21 0.12969096E+00 0.10390618E+03</pdfrwt>
<totfact> 0.44896443E+05</totfact>
</mgrwt>
</event>
<event>
 4    1  0.5694171E+003  0.1082604E+03  0.7546771E-02  0.1263826E+00
         21   -1    0    0  504  501  0.00000000000E+00  0.00000000000E+00  0.10684122012E+02  0.10684122012E+02  0.00000000000E+00 0. -1.
         21   -1    0    0  501  502 -0.00000000000E+00 -0.00000000000E+00 -0.11734556571E+04  0.11734556571E+04  0.00000000000E+00 0.  1.
         21    1    1    2  503  502 -0.10660334769E+03  0.18869166180E+02 -0.73252864491E+03  0.74048533732E+03  0.00000000000E+00 0.  1.
         21    1    1    2  504  503  0.10660334769E+03 -0.18869166180E+02 -0.43024289013E+03  0.44365444175E+03  0.00000000000E+00 0. -1.
<mgrwt>
<rscale>  2 0.10826042E+03</rscale>
<asrwt>0</asrwt>
<pdfrwt beam="1">  1       21 0.16437106E-02 0.10826042E+03</pdfrwt>
<pdfrwt beam="2">  1       21 0.18053169E+00 0.10826042E+03</pdfrwt>
<totfact> 0.31628738E+05</totfact>
</mgrwt>
</event>
<event>
 4    1  0.5694171E+003  0.1033553E+03  0.7546771E-02  0.1273394E+00
         21   -1    0    0  503  501  0.00000000000E+00  0.00000000000E+00  0.35815893730E+03  0.35815893730E+03  0.00000000000E+00 0. -1.
         21   -1    0    0  504  502 -0.00000000000E+00 -0.00000000000E+00 -0.42428885941E+03  0.42428885941E+03  0.00000000000E+00 0. -1.
         21    1    1    2  503  502 -0.87146835913E+02 -0.55567491658E+02  0.34415774230E+03  0.35934227239E+03  0.00000000000E+00 0. -1.
         21    1    1    2  504  501  0.87146835913E+02  0.55567491658E+02 -0.41028766441E+03  0.42310552432E+03  0.00000000000E+00 0. -1.
<mgrwt>
<rscale>  2 0.10335530E+03</rscale>
<asrwt>0</asrwt>
<pdfrwt beam="1">  1       21 0.55101375E-01 0.10335530E+03</pdfrwt>
<pdfrwt beam="2">  1       21 0.65275209E-01 0.10335530E+03</pdfrwt>
<totfact> 0.72721397E+03</totfact>
</mgrwt>
</event>
<event>
 4    1  0.5694171E+003  0.1055650E+03  0.7546771E-02  0.1269010E+00
         21   -1    0    0  504  501  0.00000000000E+00  0.00000000000E+00  0.14462250246E+04  0.14462250246E+04  0.00000000000E+00 0.  1.
         21   -1    0    0  503  502 -0.00000000000E+00 -0.00000000000E+00 -0.17048813410E+02  0.17048813410E+02  0.00000000000E+00 0. -1.
         21    1    1    2  503  501 -0.98156515632E+02 -0.38849296653E+02  0.12562118139E+04  0.12606395563E+04  0.00000000000E+00 0.  1.
         21    1    1    2  504  502  0.98156515632E+02  0.38849296653E+02  0.17296439727E+03  0.20263428174E+03  0.00000000000E+00 0. -1.
<mgrwt>
<rscale>  2 0.10556500E+03</rscale>
<asrwt>0</asrwt>
<pdfrwt beam="1">  1       21 0.22249606E+00 0.10556500E+03</pdfrwt>
<pdfrwt beam="2">  1       21 0.26228955E-02 0.10556500E+03</pdfrwt>
<totfact> 0.81972733E+04</totfact>
</mgrwt>
</event>
<event>
 4    1  0.5694171E+003  0.1286152E+03  0.7546771E-02  0.1229525E+00
         21   -1    0    0  504  501  0.00000000000E+00  0.00000000000E+00  0.83199407499E+02  0.83199407499E+02  0.00000000000E+00 0. -1.
         21   -1    0    0  501  502 -0.00000000000E+00 -0.00000000000E+00 -0.57701590886E+03  0.57701590886E+03  0.00000000000E+00 0.  1.
         21    1    1    2  503  502  0.11066875767E+03 -0.65530880937E+02 -0.51415903410E+03  0.53000130437E+03  0.00000000000E+00 0.  1.
         21    1    1    2  504  503 -0.11066875767E+03  0.65530880937E+02  0.20342532739E+02  0.13021401199E+03  0.00000000000E+00 0. -1.
<mgrwt>
<rscale>  2 0.12861520E+03</rscale>
<asrwt>0</asrwt>
<pdfrwt beam="1">  1       21 0.12799908E-01 0.12861520E+03</pdfrwt>
<pdfrwt beam="2">  1       21 0.88771681E-01 0.12861520E+03</pdfrwt>
<totfact> 0.58519755E+04</totfact>
</mgrwt>
</event>
<event>
 4    1  0.5694171E+003  0.1021193E+03  0.7546771E-02  0.1275902E+00
         21   -1    0    0  504  501  0.00000000000E+00  0.00000000000E+00  0.18397883804E+03  0.18397883804E+03  0.00000000000E+00 0.  1.
         21   -1    0    0  503  502 -0.00000000000E+00 -0.00000000000E+00 -0.59759451673E+02  0.59759451673E+02  0.00000000000E+00 0.  1.
         21    1    1    2  503  501 -0.37901221365E+02 -0.94825316691E+02  0.34455239940E+02  0.10777526073E+03  0.00000000000E+00 0.  1.
         21    1    1    2  504  502  0.37901221365E+02  0.94825316691E+02  0.89764146431E+02  0.13596302899E+03  0.00000000000E+00 0.  1.
<mgrwt>
<rscale>  2 0.10211926E+03</rscale>
<asrwt>0</asrwt>
<pdfrwt beam="1">  1       21 0.28304436E-01 0.10211926E+03</pdfrwt>
<pdfrwt beam="2">  1       21 0.91937619E-02 0.10211926E+03</pdfrwt>
<totfact> 0.11188846E+06</totfact>
</mgrwt>
</event>
<event>
 4    1  0.5694171E+003  0.1034212E+03  0.7546771E-02  0.1273262E+00
         21   -1    0    0  503  501  0.00000000000E+00  0.00000000000E+00  0.79753865800E+02  0.79753865800E+02  0.00000000000E+00 0.  1.
         21   -1    0    0  504  502 -0.00000000000E+00 -0.00000000000E+00 -0.22347503233E+03  0.22347503233E+03  0.00000000000E+00 0. -1.
         21    1    1    2  503  502 -0.99509040465E+02  0.28176296313E+02  0.24014325675E+02  0.10617269256E+03  0.00000000000E+00 0.  1.
         21    1    1    2  504  501  0.99509040465E+02 -0.28176296313E+02 -0.16773549221E+03  0.19705620557E+03  0.00000000000E+00 0. -1.
<mgrwt>
<rscale>  2 0.10342124E+03</rscale>
<asrwt>0</asrwt>
<pdfrwt beam="1">  1       21 0.12269826E-01 0.10342124E+03</pdfrwt>
<pdfrwt beam="2">  1       21 0.34380774E-01 0.10342124E+03</pdfrwt>
<totfact> 0.46484170E+05</totfact>
</mgrwt>
</event>
<event>
 4    1  0.5694171E+003  0.1301759E+03  0.7546771E-02  0.1227195E+00
         21   -1    0    0  504  501  0.00000000000E+00  0.00000000000E+00  0.62948974689E+02  0.62948974689E+02  0.00000000000E+00 0. -1.
         21   -1    0    0  503  502 -0.00000000000E+00 -0.00000000000E+00 -0.32882540991E+03  0.32882540991E+03  0.00000000000E+00 0.  1.
         21    1    1    2  503  501 -0.61981041009E+02  0.11447317682E+03 -0.21635341788E+03  0.25249665163E+03  0.00000000000E+00 0.  1.
         21    1    1    2  504  502  0.61981041009E+02 -0.11447317682E+03 -0.49523017345E+02  0.13927773297E+03  0.00000000000E+00 0. -1.
<mgrwt>
<rscale>  2 0.13017587E+03</rscale>
<asrwt>0</asrwt>
<pdfrwt beam="1">  1       21 0.96844578E-02 0.13017587E+03</pdfrwt>
<pdfrwt beam="2">  1       21 0.50588524E-01 0.13017587E+03</pdfrwt>
<totfact> 0.32343509E+05</totfact>
</mgrwt>
</event>
<event>
 4    1  0.5694171E+003  0.1086201E+03  0.7546771E-02  0.1263147E+00
         21   -1    0    0  504  501  0.00000000000E+00  0.00000000000E+00  0.12500192464E+04  0.12500192464E+04  0.00000000000E+00 0. -1.
         21   -1    0    0  501  502 -0.00000000000E+00 -0.00000000000E+00 -0.94528010930E+01  0.94528010930E+01  0.00000000000E+00 0. -1.
         21    1    1    2  503  502 -0.21487880682E+02  0.10647346233E+03  0.64476332692E+03  0.65384866363E+03  0.00000000000E+00 0. -1.
         21    1    1    2  504  503  0.21487880682E+02 -0.10647346233E+03  0.59580311840E+03  0.60562338387E+03  0.00000000000E+00 0. -1.
<mgrwt>
<rscale>  2 0.10862010E+03</rscale>
<asrwt>0</asrwt>
<pdfrwt beam="1">  1       21 0.19231052E+00 0.10862010E+03</pdfrwt>
<pdfrwt beam="2">  1       21 0.14542781E-02 0.10862010E+03</pdfrwt>
<totfact> 0.32239518E+05</totfact>
</mgrwt>
</event>
<event>
 4    1  0.5694171E+003  0.1122472E+03  0.7546771E-02  0.1256464E+00
         21   -1    0    0  504  501  0.00000000000E+00  0.00000000000E+00  0.91507115289E+02  0.91507115289E+02  0.00000000000E+00 0.  1.
         21   -1    0    0  503  502 -0.00000000000E+00 -0.00000000000E+00 -0.28617914855E+03  0.28617914855E+03  0.00000000000E+00 0.  1.
         21    1    1    2  503  501 -0.80518537324E+02 -0.78206139377E+02 -0.23336530616E+03  0.25895714165E+03  0.00000000000E+00 0.  1.
         21    1    1    2  504  502  0.80518537324E+02  0.78206139377E+02  0.38693272902E+02  0.11872912219E+03  0.00000000000E+00 0.  1.
<mgrwt>
<rscale>  2 0.11224721E+03</rscale>
<asrwt>0</asrwt>
<pdfrwt beam="1">  1       21 0.14078018E-01 0.11224721E+03</pdfrwt>
<pdfrwt beam="2">  1       21 0.44027560E-01 0.11224721E+03</pdfrwt>
<totfact> 0.22274001E+05</totfact>
</mgrwt>
</event>
<event>
 4    1  0.5694171E+003  0.1142110E+03  0.7546771E-02  0.1252965E+00
         21   -1    0    0  503  501  0.00000000000E+00  0.00000000000E+00  0.82231283769E+03  0.82231283769E+03  0.00000000000E+00 0.  1.
         21   -1    0    0  504  502 -0.00000000000E+00 -0.00000000000E+00 -0.15868992373E+02  0.15868992373E+02  0.00000000000E+00 0.  1.
         21    1    1    2  503  502 -0.82665074907E+02 -0.78807568588E+02  0.39491351968E+03  0.41109711201E+03  0.00000000000E+00 0.  1.
         21    1    1    2  504  501  0.82665074907E+02  0.78807568588E+02  0.41153032564E+03  0.42708471806E+03  0.00000000000E+00 0.  1.
<mgrwt>
<rscale>  2 0.11421098E+03</rscale>
<asrwt>0</asrwt>
<pdfrwt beam="1">  1       21 0.12650963E+00 0.11421098E+03</pdfrwt>
<pdfrwt beam="2">  1       21 0.24413841E-02 0.11421098E+03</pdfrwt>
<totfact> 0.41938262E+05</totfact>
</mgrwt>
</event>
<event>
 4    1  0.5694171E+003  0.2697037E+03  0.7546771E-02  0.1101449E+00
         21   -1    0    0  503  501  0.00000000000E+00  0.00000000000E+00  0.80247499928E+03  0.80247499928E+03  0.00000000000E+00 0.  1.
         21   -1    0    0  501  502 -0.00000000000E+00 -0.00000000000E+00 -0.15556079739E+03  0.15556079739E+03  0.00000000000E+00 0. -1.
         21    1    1    2  503  504 -0.26828820055E+03 -0.27595999159E+02  0.63289812875E+03  0.68796812361E+03  0.00000000000E+00 0.  1.
         21    1    1    2  504  502  0.26828820055E+03  0.27595999159E+02  0.14016073142E+02  0.27006767306E+03  0.00000000000E+00 0. -1.
<mgrwt>
<rscale>  2 0.26970372E+03</rscale>
<asrwt>0</asrwt>
<pdfrwt beam="1">  1       21 0.12345769E+00 0.26970372E+03</pdfrwt>
<pdfrwt beam="2">  1       21 0.23932431E-01 0.26970372E+03</pdfrwt>
<totfact> 0.77002384E+03</totfact>
</mgrwt>
</event>
<event>
 4    1  0.5694171E+003  0.1086847E+03  0.7546771E-02  0.1263025E+00
         21   -1    0    0  503  501  0.00000000000E+00  0.00000000000E+00  0.24819059167E+03  0.24819059167E+03  0.00000000000E+00 0. -1.
         21   -1    0    0  504  502 -0.00000000000E+00 -0.00000000000E+00 -0.51009907051E+02  0.51009907051E+02  0.00000000000E+00 0. -1.
         21    1    1    2  503  502  0.10844525921E+03 -0.72102888996E+01  0.13730392166E+03  0.17511347582E+03  0.00000000000E+00 0. -1.
         21    1    1    2  504  501 -0.10844525921E+03  0.72102888996E+01  0.59876762964E+02  0.12408702291E+03  0.00000000000E+00 0. -1.
<mgrwt>
<rscale>  2 0.10868469E+03</rscale>
<asrwt>0</asrwt>
<pdfrwt beam="1">  1       21 0.38183167E-01 0.10868469E+03</pdfrwt>
<pdfrwt beam="2">  1       21 0.78476782E-02 0.10868469E+03</pdfrwt>
<totfact> 0.82297508E+05</totfact>
</mgrwt>
</event>
<event>
 4    1  0.5694171E+003  0.1175813E+03  0.7546771E-02  0.1247141E+00
         21   -1    0    0  502  501  0.00000000000E+00  0.00000000000E+00  0.22962635671E+03  0.22962635671E+03  0.00000000000E+00 0.  1.
         21   -1    0    0  504  502 -0.00000000000E+00 -0.00000000000E+00 -0.13303667149E+03  0.13303667149E+03  0.00000000000E+00 0. -1.
         21    1    1    2  503  501  0.10862892847E+03  0.45001359303E+02  0.18245961588E+03  0.21706422521E+03  0.00000000000E+00 0.  1.
         21    1    1    2  504  503 -0.10862892847E+03 -0.45001359303E+02 -0.85869930662E+02  0.14559880299E+03  0.00000000000E+00 0. -1.
<mgrwt>
<rscale>  2 0.11758132E+03</rscale>
<asrwt>0</asrwt>
<pdfrwt beam="1">  1       21 0.35327132E-01 0.11758132E+03</pdfrwt>
<pdfrwt beam="2">  1       21 0.20467180E-01 0.11758132E+03</pdfrwt>
<totfact> 0.17463008E+05</totfact>
</mgrwt>
</event>
<event>
 4    1  0.5694171E+003  0.1542675E+03  0.7546771E-02  0.1195325E+00
         21   -1    0    0  504  501  0.00000000000E+00  0.00000000000E+00  0.41163413053E+03  0.41163413053E+03  0.00000000000E+00 0.  1.
         21   -1    0    0  503  502 -0.00000000000E+00 -0.00000000000E+00 -0.72153570937E+02  0.72153570937E+02  0.00000000000E+00 0.  1.
         21    1    1    2  503  501 -0.10259999617E+03 -0.11520283814E+03  0.61906394290E+02  0.16622531331E+03  0.00000000000E+00 0.  1.
         21    1    1    2  504  502  0.10259999617E+03  0.11520283814E+03  0.27757416531E+03  0.31756238816E+03  0.00000000000E+00 0.  1.
<mgrwt>
<rscale>  2 0.15426747E+03</rscale>
<asrwt>0</asrwt>
<pdfrwt beam="1">  1       21 0.63328326E-01 0.15426747E+03</pdfrwt>
<pdfrwt beam="2">  1       21 0.11100550E-01 0.15426747E+03</pdfrwt>
<totfact> 0.15752256E+05</totfact>
</mgrwt>
</event>
<event>
 4    1  0.5694171E+003  0.1198534E+03  0.7546771E-02  0.1243339E+00
         21   -1    0    0  503  501  0.00000000000E+00  0.00000000000E+00  0.40068717521E+02  0.40068717521E+02  0.00000000000E+00 0.  1.
         21   -1    0    0  504  502 -0.00000000000E+00 -0.00000000000E+00 -0.58483743266E+03  0.58483743266E+03  0.00000000000E+00 0.  1.
         21    1    1    2  503  502  0.29540645758E+02  0.11615582915E+03 -0.46675955061E+03  0.48190175812E+03  0.00000000000E+00 0.  1.
         21    1    1    2  504  501 -0.29540645758E+02 -0.11615582915E+03 -0.78009164535E+02  0.14300439206E+03  0.00000000000E+00 0.  1.
<mgrwt>
<rscale>  2 0.11985335E+03</rscale>
<asrwt>0</asrwt>
<pdfrwt beam="1">  1       21 0.61644182E-02 0.11985335E+03</pdfrwt>
<pdfrwt beam="2">  1       21 0.89974987E-01 0.11985335E+03</pdfrwt>
<totfact> 0.20239966E+05</totfact>
</mgrwt>
</event>
<event>
 4    1  0.5694171E+003  0.1583853E+03  0.7546771E-02  0.1190532E+00
         21   -1    0    0  504  501  0.00000000000E+00  0.00000000000E+00  0.21942008928E+03  0.21942008928E+03  0.00000000000E+00 0. -1.
         21   -1    0    0  501  502 -0.00000000000E+00 -0.00000000000E+00 -0.78346874044E+03  0.78346874044E+03  0.00000000000E+00 0.  1.
         21    1    1    2  503  502 -0.14635372542E+03 -0.60551587930E+02 -0.74543990216E+03  0.76208041274E+03  0.00000000000E+00 0.  1.
         21    1    1    2  504  503  0.14635372542E+03  0.60551587930E+02  0.18139125101E+03  0.24080841698E+03  0.00000000000E+00 0. -1.
<mgrwt>
<rscale>  2 0.15838531E+03</rscale>
<asrwt>0</asrwt>
<pdfrwt beam="1">  1       21 0.33756937E-01 0.15838531E+03</pdfrwt>
<pdfrwt beam="2">  1       21 0.12053365E+00 0.15838531E+03</pdfrwt>
<totfact> 0.45509000E+03</totfact>
</mgrwt>
</event>
<event>
 4    1  0.5694171E+003  0.1260043E+03  0.7546771E-02  0.1233508E+00
         21   -1    0    0  503  501  0.00000000000E+00  0.00000000000E+00  0.42947395011E+03  0.42947395011E+03  0.00000000000E+00 0. -1.
         21   -1    0    0  504  502 -0.00000000000E+00 -0.00000000000E+00 -0.46088548850E+02  0.46088548850E+02  0.00000000000E+00 0. -1.
         21    1    1    2  503  502 -0.57552481870E+02  0.11209279867E+03  0.29746585569E+03  0.32305265667E+03  0.00000000000E+00 0. -1.
         21    1    1    2  504  501  0.57552481870E+02 -0.11209279867E+03  0.85919545568E+02  0.15250984228E+03  0.00000000000E+00 0. -1.
<mgrwt>
<rscale>  2 0.12600430E+03</rscale>
<asrwt>0</asrwt>
<pdfrwt beam="1">  1       21 0.66072913E-01 0.12600430E+03</pdfrwt>
<pdfrwt beam="2">  1       21 0.70905463E-02 0.12600430E+03</pdfrwt>
<totfact> 0.31569452E+05</totfact>
</mgrwt>
</event>
<event>
 4    1  0.5694171E+003  0.1379134E+03  0.7546771E-02  0.1216165E+00
         21   -1    0    0  503  501  0.00000000000E+00  0.00000000000E+00  0.55942537681E+03  0.55942537681E+03  0.00000000000E+00 0.  1.
         21   -1    0    0  504  502 -0.00000000000E+00 -0.00000000000E+00 -0.47116612841E+02  0.47116612841E+02  0.00000000000E+00 0.  1.
         21    1    1    2  503  502 -0.20330409302E+02  0.13640668215E+03  0.96137729649E+02  0.16811475705E+03  0.00000000000E+00 0.  1.
         21    1    1    2  504  501  0.20330409302E+02 -0.13640668215E+03  0.41617103432E+03  0.43842723260E+03  0.00000000000E+00 0.  1.
<mgrwt>
<rscale>  2 0.13791341E+03</rscale>
<asrwt>0</asrwt>
<pdfrwt beam="1">  1       21 0.86065438E-01 0.13791341E+03</pdfrwt>
<pdfrwt beam="2">  1       21 0.72487101E-02 0.13791341E+03</pdfrwt>
<totfact> 0.16887037E+05</totfact>
</mgrwt>
</event>
<event>
 4    1  0.5694171E+003  0.1231169E+03  0.7546771E-02  0.1238042E+00
         21   -1    0    0  503  501  0.00000000000E+00  0.00000000000E+00  0.21225437710E+02  0.21225437710E+02  0.00000000000E+00 0. -1.
         21   -1    0    0  504  502 -0.00000000000E+00 -0.00000000000E+00 -0.11473953634E+04  0.11473953634E+04  0.00000000000E+00 0.  1.
         21    1    1    2  503  502 -0.25101280657E+02  0.12053088292E+03 -0.92214160603E+03  0.93032408847E+03  0.00000000000E+00 0.  1.
         21    1    1    2  504  501  0.25101280657E+02 -0.12053088292E+03 -0.20402831963E+03  0.23829671261E+03  0.00000000000E+00 0. -1.
<mgrwt>
<rscale>  2 0.12311689E+03</rscale>
<asrwt>0</asrwt>
<pdfrwt beam="1">  1       21 0.32654507E-02 0.12311689E+03</pdfrwt>
<pdfrwt beam="2">  1       21 0.17652243E+00 0.12311689E+03</pdfrwt>
<totfact> 0.10980781E+05</totfact>
</mgrwt>
</event>
<event>
 4    1  0.5694171E+003  0.1578078E+03  0.7546771E-02  0.1191194E+00
         21   -1    0    0  502  501  0.00000000000E+00  0.00000000000E+00  0.15575966417E+03  0.15575966417E+03  0.00000000000E+00 0. -1.
         21   -1    0    0  504  502 -0.00000000000E+00 -0.00000000000E+00 -0.24270365492E+03  0.24270365492E+03  0.00000000000E+00 0. -1.
         21    1    1    2  503  501 -0.61229286345E+02  0.14544515060E+03  0.72911021159E+02  0.17383709140E+03  0.00000000000E+00 0. -1.
         21    1    1    2  504  503  0.61229286345E+02 -0.14544515060E+03 -0.15985501190E+03  0.22462622769E+03  0.00000000000E+00 0. -1.
<mgrwt>
<rscale>  2 0.15780785E+03</rscale>
<asrwt>0</asrwt>
<pdfrwt beam="1">  1       21 0.23963025E-01 0.15780785E+03</pdfrwt>
<pdfrwt beam="2">  1       21 0.37339024E-01 0.15780785E+03</pdfrwt>
<totfact> 0.11506440E+05</totfact>
</mgrwt>
</event>
<event>
 4    1  0.5694171E+003  0.1411016E+03  0.7546771E-02  0.1211854E+00
         21   -1    0    0  504  501  0.00000000000E+00  0.00000000000E+00  0.71025905828E+03  0.71025905828E+03  0.00000000000E+00 0.  1.
         21   -1    0    0  503  502 -0.00000000000E+00 -0.00000000000E+00 -0.37129792303E+02  0.37129792303E+02  0.00000000000E+00 0. -1.
         21    1    1    2  503  501  0.13954765106E+03 -0.20883388756E+02  0.15158066520E+03  0.20709022407E+03  0.00000000000E+00 0. -1.
         21    1    1    2  504  502 -0.13954765106E+03  0.20883388756E+02  0.52154860077E+03  0.54029862651E+03  0.00000000000E+00 0.  1.
<mgrwt>
<rscale>  2 0.14110160E+03</rscale>
<asrwt>0</asrwt>
<pdfrwt beam="1">  1       21 0.10927061E+00 0.14110160E+03</pdfrwt>
<pdfrwt beam="2">  1       21 0.57122763E-02 0.14110160E+03</pdfrwt>
<totfact> 0.14514003E+05</totfact>
</mgrwt>
</event>
<event>
 4    1  0.5694171E+003  0.1773819E+03  0.7546771E-02  0.1170361E+00
         21   -1    0    0  503  501  0.00000000000E+00  0.00000000000E+00  0.52691563436E+02  0.52691563436E+02  0.00000000000E+00 0. -1.
         21   -1    0    0  504  502 -0.00000000000E+00 -0.00000000000E+00 -0.69266426810E+03  0.69266426810E+03  0.00000000000E+00 0. -1.
         21    1    1    2  503  502  0.13882367308E+02 -0.17683786414E+03 -0.18159008595E+03  0.25384898982E+03  0.00000000000E+00 0. -1.
         21    1    1    2  504  501 -0.13882367308E+02  0.17683786414E+03 -0.45838261872E+03  0.49150684172E+03  0.00000000000E+00 0. -1.
<mgrwt>
<rscale>  2 0.17738193E+03</rscale>
<asrwt>0</asrwt>
<pdfrwt beam="1">  1       21 0.81063948E-02 0.17738193E+03</pdfrwt>
<pdfrwt beam="2">  1       21 0.10656373E+00 0.17738193E+03</pdfrwt>
<totfact> 0.83250794E+04</totfact>
</mgrwt>
</event>
<event>
 4    1  0.5694171E+003  0.1163367E+03  0.7546771E-02  0.1249266E+00
         21   -1    0    0  502  501  0.00000000000E+00  0.00000000000E+00  0.11441955302E+03  0.11441955302E+03  0.00000000000E+00 0. -1.
         21   -1    0    0  503  502 -0.00000000000E+00 -0.00000000000E+00 -0.21548950919E+03  0.21548950919E+03  0.00000000000E+00 0. -1.
         21    1    1    2  503  504 -0.87980978836E+02  0.76115604424E+02 -0.16132280050E+03  0.19889515789E+03  0.00000000000E+00 0. -1.
         21    1    1    2  504  501  0.87980978836E+02 -0.76115604424E+02  0.60252844326E+02  0.13101390431E+03  0.00000000000E+00 0. -1.
<mgrwt>
<rscale>  2 0.11633674E+03</rscale>
<asrwt>0</asrwt>
<pdfrwt beam="1">  1       21 0.17603008E-01 0.11633674E+03</pdfrwt>
<pdfrwt beam="2">  1       21 0.33152232E-01 0.11633674E+03</pdfrwt>
<totfact> 0.26080513E+05</totfact>
</mgrwt>
</event>
<event>
 4    1  0.5694171E+003  0.1417434E+03  0.7546771E-02  0.1211002E+00
         21   -1    0    0  504  501  0.00000000000E+00  0.00000000000E+00  0.18850382188E+03  0.18850382188E+03  0.00000000000E+00 0.  1.
         21   -1    0    0  501  502 -0.00000000000E+00 -0.00000000000E+00 -0.40455958494E+03  0.40455958494E+03  0.00000000000E+00 0.  1.
         21    1    1    2  503  502  0.13993974247E+03  0.22540236097E+02 -0.36251826480E+03  0.38924373608E+03  0.00000000000E+00 0.  1.
         21    1    1    2  504  503 -0.13993974247E+03 -0.22540236097E+02  0.14646250174E+03  0.20381967074E+03  0.00000000000E+00 0.  1.
<mgrwt>
<rscale>  2 0.14174341E+03</rscale>
<asrwt>0</asrwt>
<pdfrwt beam="1">  1       21 0.29000588E-01 0.14174341E+03</pdfrwt>
<pdfrwt beam="2">  1       21 0.62239936E-01 0.14174341E+03</pdfrwt>
<totfact> 0.28077429E+04</totfact>
</mgrwt>
</event>
<event>
 4    1  0.5694171E+003  0.1055781E+03  0.7546771E-02  0.1268985E+00
         21   -1    0    0  503  501  0.00000000000E+00  0.00000000000E+00  0.56365551983E+02  0.56365551983E+02  0.00000000000E+00 0.  1.
         21   -1    0    0  504  502 -0.00000000000E+00 -0.00000000000E+00 -0.87110695538E+03  0.87110695538E+03  0.00000000000E+00 0.  1.
         21    1    1    2  503  502  0.52577070055E+02  0.91555433602E+02  0.34305425681E+00  0.10557870715E+03  0.00000000000E+00 0.  1.
         21    1    1    2  504  501 -0.52577070055E+02 -0.91555433602E+02 -0.81508445765E+03  0.82189380021E+03  0.00000000000E+00 0.  1.
<mgrwt>
<rscale>  2 0.10557815E+03</rscale>
<asrwt>0</asrwt>
<pdfrwt beam="1">  1       21 0.86716237E-02 0.10557815E+03</pdfrwt>
<pdfrwt beam="2">  1       21 0.13401645E+00 0.10557815E+03</pdfrwt>
<totfact> 0.44095751E+04</totfact>
</mgrwt>
</event>
<event>
 4    1  0.5694171E+003  0.2164165E+03  0.7546771E-02  0.1136583E+00
         21   -1    0    0  504  501  0.00000000000E+00  0.00000000000E+00  0.40459037300E+03  0.40459037300E+03  0.00000000000E+00 0.  1.
         21   -1    0    0  503  502 -0.00000000000E+00 -0.00000000000E+00 -0.17188277173E+03  0.17188277173E+03  0.00000000000E+00 0. -1.
         21    1    1    2  503  501  0.21327298459E+03  0.36752445128E+02  0.28105452811E+03  0.35472208270E+03  0.00000000000E+00 0.  1.
         21    1    1    2  504  502 -0.21327298459E+03 -0.36752445128E+02 -0.48346926836E+02  0.22175106204E+03  0.00000000000E+00 0. -1.
<mgrwt>
<rscale>  2 0.21641652E+03</rscale>
<asrwt>0</asrwt>
<pdfrwt beam="1">  1       21 0.62244673E-01 0.21641652E+03</pdfrwt>
<pdfrwt beam="2">  1       21 0.26443503E-01 0.21641652E+03</pdfrwt>
<totfact> 0.32157999E+04</totfact>
</mgrwt>
</event>
<event>
 4    1  0.5694171E+003  0.1480718E+03  0.7546771E-02  0.1202863E+00
         21   -1    0    0  504  501  0.00000000000E+00  0.00000000000E+00  0.60053148374E+03  0.60053148374E+03  0.00000000000E+00 0. -1.
         21   -1    0    0  501  502 -0.00000000000E+00 -0.00000000000E+00 -0.32540696476E+03  0.32540696476E+03  0.00000000000E+00 0.  1.
         21    1    1    2  503  502 -0.12327983084E+03  0.82020371564E+02 -0.29866256156E+03  0.33335354164E+03  0.00000000000E+00 0.  1.
         21    1    1    2  504  503  0.12327983084E+03 -0.82020371564E+02  0.57378708054E+03  0.59258490686E+03  0.00000000000E+00 0. -1.
<mgrwt>
<rscale>  2 0.14807180E+03</rscale>
<asrwt>0</asrwt>
<pdfrwt beam="1">  1       21 0.92389459E-01 0.14807180E+03</pdfrwt>
<pdfrwt beam="2">  1       21 0.50062610E-01 0.14807180E+03</pdfrwt>
<totfact> 0.39100671E+03</totfact>
</mgrwt>
</event>
<event>
 4    1  0.5694171E+003  0.1028452E+03  0.7546771E-02  0.1274424E+00
         21   -1    0    0  504  501  0.00000000000E+00  0.00000000000E+00  0.45786053934E+03  0.45786053934E+03  0.00000000000E+00 0.  1.
         21   -1    0    0  503  502 -0.00000000000E+00 -0.00000000000E+00 -0.39650407700E+02  0.39650407700E+02  0.00000000000E+00 0. -1.
         21    1    1    2  503  501 -0.73138473654E+02 -0.72304233471E+02  0.48397206556E+02  0.11366366222E+03  0.00000000000E+00 0. -1.
         21    1    1    2  504  502  0.73138473654E+02  0.72304233471E+02  0.36981292508E+03  0.38384728482E+03  0.00000000000E+00 0.  1.
<mgrwt>
<rscale>  2 0.10284522E+03</rscale>
<asrwt>0</asrwt>
<pdfrwt beam="1">  1       21 0.70440079E-01 0.10284522E+03</pdfrwt>
<pdfrwt beam="2">  1       21 0.61000631E-02 0.10284522E+03</pdfrwt>
<totfact> 0.35648886E+05</totfact>
</mgrwt>
</event>
<event>
 4    1  0.5694171E+003  0.1171301E+03  0.7546771E-02  0.1247908E+00
         21   -1    0    0  504  501  0.00000000000E+00  0.00000000000E+00  0.20210576477E+03  0.20210576477E+03  0.00000000000E+00 0. -1.
         21   -1    0    0  503  502 -0.00000000000E+00 -0.00000000000E+00 -0.19277028895E+03  0.19277028895E+03  0.00000000000E+00 0.  1.
         21    1    1    2  503  501  0.10065009603E+03 -0.59908470500E+02 -0.15424933285E+03  0.19368098346E+03  0.00000000000E+00 0.  1.
         21    1    1    2  504  502 -0.10065009603E+03  0.59908470500E+02  0.16358480867E+03  0.20119507026E+03  0.00000000000E+00 0. -1.
<mgrwt>
<rscale>  2 0.11713013E+03</rscale>
<asrwt>0</asrwt>
<pdfrwt beam="1">  1       21 0.31093195E-01 0.11713013E+03</pdfrwt>
<pdfrwt beam="2">  1       21 0.29656967E-01 0.11713013E+03</pdfrwt>
<totfact> 0.11137913E+05</totfact>
</mgrwt>
</event>
<event>
 4    1  0.5694171E+003  0.1078612E+03  0.7546771E-02  0.1264583E+00
         21   -1    0    0  503  501  0.00000000000E+00  0.00000000000E+00  0.23242142774E+03  0.23242142774E+03  0.00000000000E+00 0.  1.
         21   -1    0    0  501  502 -0.00000000000E+00 -0.00000000000E+00 -0.91192534761E+02  0.91192534761E+02  0.00000000000E+00 0. -1.
         21    1    1    2  503  504 -0.16366551169E+02  0.10661221865E+03  0.17929022942E+03  0.20923435552E+03  0.00000000000E+00 0.  1.
         21    1    1    2  504  502  0.16366551169E+02 -0.10661221865E+03 -0.38061336444E+02  0.11437960698E+03  0.00000000000E+00 0. -1.
<mgrwt>
<rscale>  2 0.10786116E+03</rscale>
<asrwt>0</asrwt>
<pdfrwt beam="1">  1       21 0.35757143E-01 0.10786116E+03</pdfrwt>
<pdfrwt beam="2">  1       21 0.14029621E-01 0.10786116E+03</pdfrwt>
<totfact> 0.33925574E+05</totfact>
</mgrwt>
</event>
<event>
 4    1  0.5694171E+003  0.1315700E+03  0.7546771E-02  0.1225145E+00
         21   -1    0    0  503  501  0.00000000000E+00  0.00000000000E+00  0.60935961482E+03  0.60935961482E+03  0.00000000000E+00 0.  1.
         21   -1    0    0  504  502 -0.00000000000E+00 -0.00000000000E+00 -0.32578226953E+02  0.32578226953E+02  0.00000000000E+00 0.  1.
         21    1    1    2  503  502  0.85876258529E+02 -0.99679197334E+02  0.17355410532E+03  0.21778820361E+03  0.00000000000E+00 0.  1.
         21    1    1    2  504  501 -0.85876258529E+02  0.99679197334E+02  0.40322728255E+03  0.42414963816E+03  0.00000000000E+00 0.  1.
<mgrwt>
<rscale>  2 0.13157004E+03</rscale>
<asrwt>0</asrwt>
<pdfrwt beam="1">  1       21 0.93747624E-01 0.13157004E+03</pdfrwt>
<pdfrwt beam="2">  1       21 0.50120354E-02 0.13157004E+03</pdfrwt>
<totfact> 0.26032124E+05</totfact>
</mgrwt>
</event>
<event>
 4    1  0.5694171E+003  0.1259799E+03  0.7546771E-02  0.1233546E+00
         21   -1    0    0  504  501  0.00000000000E+00  0.00000000000E+00  0.76032104730E+02  0.76032104730E+02  0.00000000000E+00 0. -1.
         21   -1    0    0  503  502 -0.00000000000E+00 -0.00000000000E+00 -0.47341148355E+03  0.47341148355E+03  0.00000000000E+00 0.  1.
         21    1    1    2  503  501  0.11569788970E+03 -0.49849039517E+02 -0.40410245856E+03  0.42328444979E+03  0.00000000000E+00 0.  1.
         21    1    1    2  504  502 -0.11569788970E+03  0.49849039517E+02  0.67230797427E+01  0.12615913849E+03  0.00000000000E+00 0. -1.
<mgrwt>
<rscale>  2 0.12597987E+03</rscale>
<asrwt>0</asrwt>
<pdfrwt beam="1">  1       21 0.11697247E-01 0.12597987E+03</pdfrwt>
<pdfrwt beam="2">  1       21 0.72832533E-01 0.12597987E+03</pdfrwt>
<totfact> 0.10700770E+05</totfact>
</mgrwt>
</event>
<event>
 4    1  0.5694171E+003  0.1177456E+03  0.7546771E-02  0.1246863E+00
         21   -1    0    0  503  501  0.00000000000E+00  0.00000000000E+00  0.72440289885E+01  0.72440289885E+01  0.00000000000E+00 0. -1.
         21   -1    0    0  504  502 -0.00000000000E+00 -0.00000000000E+00 -0.20998427983E+04  0.20998427983E+04  0.00000000000E+00 0. -1.
         21    1    1    2  503  502 -0.79680322351E+02  0.86689570944E+02 -0.13598437162E+04  0.13649318547E+04  0.00000000000E+00 0. -1.
         21    1    1    2  504  501  0.79680322351E+02 -0.86689570944E+02 -0.73275505310E+03  0.74215497258E+03  0.00000000000E+00 0. -1.
<mgrwt>
<rscale>  2 0.11774564E+03</rscale>
<asrwt>0</asrwt>
<pdfrwt beam="1">  1       21 0.11144664E-02 0.11774564E+03</pdfrwt>
<pdfrwt beam="2">  1       21 0.32305261E+00 0.11774564E+03</pdfrwt>
<totfact> 0.85971576E+04</totfact>
</mgrwt>
</event>
<event>
 4    1  0.5694171E+003  0.1059919E+03  0.7546771E-02  0.1268178E+00
         21   -1    0    0  504  501  0.00000000000E+00  0.00000000000E+00  0.12819248693E+04  0.12819248693E+04  0.00000000000E+00 0.  1.
         21   -1    0    0  503  502 -0.00000000000E+00 -0.00000000000E+00 -0.25658676062E+02  0.25658676062E+02  0.00000000000E+00 0.  1.
         21    1    1    2  503  501 -0.53653392900E+02  0.91408972677E+02  0.97612433408E+02  0.14409189433E+03  0.00000000000E+00 0.  1.
         21    1    1    2  504  502  0.53653392900E+02 -0.91408972677E+02  0.11586537598E+04  0.11634916510E+04  0.00000000000E+00 0.  1.
<mgrwt>
<rscale>  2 0.10599192E+03</rscale>
<asrwt>0</asrwt>
<pdfrwt beam="1">  1       21 0.19721916E+00 0.10599192E+03</pdfrwt>
<pdfrwt beam="2">  1       21 0.39474896E-02 0.10599192E+03</pdfrwt>
<totfact> 0.59737357E+04</totfact>
</mgrwt>
</event>
<event>
 4    1  0.5694171E+003  0.1007027E+03  0.7546771E-02  0.1278825E+00
         21   -1    0    0  503  501  0.00000000000E+00  0.00000000000E+00  0.72883151599E+03  0.72883151599E+03  0.00000000000E+00 0. -1.
         21   -1    0    0  504  502 -0.00000000000E+00 -0.00000000000E+00 -0.46792660033E+02  0.46792660033E+02  0.00000000000E+00 0.  1.
         21    1    1    2  503  502 -0.94090588398E+02 -0.35888620775E+02  0.15940444392E+02  0.10195650883E+03  0.00000000000E+00 0.  1.
         21    1    1    2  504  501  0.94090588398E+02  0.35888620775E+02  0.66609841156E+03  0.67366766719E+03  0.00000000000E+00 0. -1.
<mgrwt>
<rscale>  2 0.10070269E+03</rscale>
<asrwt>0</asrwt>
<pdfrwt beam="1">  1       21 0.11212792E+00 0.10070269E+03</pdfrwt>
<pdfrwt beam="2">  1       21 0.71988713E-02 0.10070269E+03</pdfrwt>
<totfact> 0.93883625E+04</totfact>
</mgrwt>
</event>
<event>
 4    1  0.5694171E+003  0.1242090E+03  0.7546771E-02  0.1236311E+00
         21   -1    0    0  504  501  0.00000000000E+00  0.00000000000E+00  0.22420856846E+03  0.22420856846E+03  0.00000000000E+00 0. -1.
         21   -1    0    0  503  502 -0.00000000000E+00 -0.00000000000E+00 -0.92380712284E+02  0.92380712284E+02  0.00000000000E+00 0. -1.
         21    1    1    2  503  501  0.31619721149E+02 -0.12011692560E+03  0.14587123759E+03  0.19158888417E+03  0.00000000000E+00 0. -1.
         21    1    1    2  504  502 -0.31619721149E+02  0.12011692560E+03 -0.14043381415E+02  0.12500039657E+03  0.00000000000E+00 0. -1.
<mgrwt>
<rscale>  2 0.12420903E+03</rscale>
<asrwt>0</asrwt>
<pdfrwt beam="1">  1       21 0.34493626E-01 0.12420903E+03</pdfrwt>
<pdfrwt beam="2">  1       21 0.14212417E-01 0.12420903E+03</pdfrwt>
<totfact> 0.35480988E+05</totfact>
</mgrwt>
</event>
<event>
 4    1  0.5694171E+003  0.1036073E+03  0.7546771E-02  0.1272888E+00
         21   -1    0    0  503  501  0.00000000000E+00  0.00000000000E+00  0.31678392096E+03  0.31678392096E+03  0.00000000000E+00 0. -1.
         21   -1    0    0  501  502 -0.00000000000E+00 -0.00000000000E+00 -0.93912504848E+02  0.93912504848E+02  0.00000000000E+00 0. -1.
         21    1    1    2  503  504 -0.10161665976E+03  0.20211939844E+02  0.27560864397E+03  0.29443945504E+03  0.00000000000E+00 0. -1.
         21    1    1    2  504  502  0.10161665976E+03 -0.20211939844E+02 -0.52737227849E+02  0.11625697078E+03  0.00000000000E+00 0. -1.
<mgrwt>
<rscale>  2 0.10360728E+03</rscale>
<asrwt>0</asrwt>
<pdfrwt beam="1">  1       21 0.48735987E-01 0.10360728E+03</pdfrwt>
<pdfrwt beam="2">  1       21 0.14448078E-01 0.10360728E+03</pdfrwt>
<totfact> 0.17345074E+05</totfact>
</mgrwt>
</event>
<event>
 4    1  0.5694171E+003  0.1055359E+03  0.7546771E-02  0.1269067E+00
         21   -1    0    0  504  501  0.00000000000E+00  0.00000000000E+00  0.39735360442E+02  0.39735360442E+02  0.00000000000E+00 0. -1.
         21   -1    0    0  503  502 -0.00000000000E+00 -0.00000000000E+00 -0.39942212865E+03  0.39942212865E+03  0.00000000000E+00 0. -1.
         21    1    1    2  503  501  0.69393239056E+02 -0.79513608148E+02 -0.59929403925E+02  0.12136461165E+03  0.00000000000E+00 0. -1.
         21    1    1    2  504  502 -0.69393239056E+02  0.79513608148E+02 -0.29975736429E+03  0.31779287744E+03  0.00000000000E+00 0. -1.
<mgrwt>
<rscale>  2 0.10553594E+03</rscale>
<asrwt>0</asrwt>
<pdfrwt beam="1">  1       21 0.61131324E-02 0.10553594E+03</pdfrwt>
<pdfrwt beam="2">  1       21 0.61449558E-01 0.10553594E+03</pdfrwt>
<totfact> 0.47583135E+05</totfact>
</mgrwt>
</event>
<event>
 4    1  0.5694171E+003  0.1066996E+03  0.7546771E-02  0.1266807E+00
         21   -1    0    0  502  501  0.00000000000E+00  0.00000000000E+00  0.11363826301E+03  0.11363826301E+03  0.00000000000E+00 0. -1.
         21   -1    0    0  503  502 -0.00000000000E+00 -0.00000000000E+00 -0.19014380879E+03  0.19014380879E+03  0.00000000000E+00 0. -1.
         21    1    1    2  503  504  0.81968143571E+02 -0.68308403474E+02 -0.14272807542E+03  0.17820246368E+03  0.00000000000E+00 0. -1.
         21    1    1    2  504  501 -0.81968143571E+02  0.68308403474E+02  0.66222529641E+02  0.12557960813E+03  0.00000000000E+00 0. -1.
<mgrwt>
<rscale>  2 0.10669965E+03</rscale>
<asrwt>0</asrwt>
<pdfrwt beam="1">  1       21 0.17482810E-01 0.10669965E+03</pdfrwt>
<pdfrwt beam="2">  1       21 0.29252894E-01 0.10669965E+03</pdfrwt>
<totfact> 0.33679892E+05</totfact>
</mgrwt>
</event>
<event>
 4    1  0.5694171E+003  0.1216181E+03  0.7546771E-02  0.1240451E+00
         21   -1    0    0  502  501  0.00000000000E+00  0.00000000000E+00  0.88501603117E+02  0.88501603117E+02  0.00000000000E+00 0. -1.
         21   -1    0    0  504  502 -0.00000000000E+00 -0.00000000000E+00 -0.43722691768E+03  0.43722691768E+03  0.00000000000E+00 0.  1.
         21    1    1    2  503  501  0.11453470806E+03 -0.40899506352E+02  0.32242268751E+02  0.12581944550E+03  0.00000000000E+00 0. -1.
         21    1    1    2  504  503 -0.11453470806E+03  0.40899506352E+02 -0.38096758332E+03  0.39990907530E+03  0.00000000000E+00 0.  1.
<mgrwt>
<rscale>  2 0.12161813E+03</rscale>
<asrwt>0</asrwt>
<pdfrwt beam="1">  1       21 0.13615631E-01 0.12161813E+03</pdfrwt>
<pdfrwt beam="2">  1       21 0.67265680E-01 0.12161813E+03</pdfrwt>
<totfact> 0.97334183E+04</totfact>
</mgrwt>
</event>
<event>
 4    1  0.5694171E+003  0.1060946E+03  0.7546771E-02  0.1267978E+00
         21   -1    0    0  502  501  0.00000000000E+00  0.00000000000E+00  0.56824927615E+02  0.56824927615E+02  0.00000000000E+00 0.  1.
         21   -1    0    0  503  502 -0.00000000000E+00 -0.00000000000E+00 -0.35227621850E+03  0.35227621850E+03  0.00000000000E+00 0.  1.
         21    1    1    2  503  504 -0.43773198287E+02  0.96643530891E+02 -0.28305479634E+03  0.30228477084E+03  0.00000000000E+00 0.  1.
         21    1    1    2  504  501  0.43773198287E+02 -0.96643530891E+02 -0.12396494553E+02  0.10681637528E+03  0.00000000000E+00 0.  1.
<mgrwt>
<rscale>  2 0.10609460E+03</rscale>
<asrwt>0</asrwt>
<pdfrwt beam="1">  1       21 0.87422966E-02 0.10609460E+03</pdfrwt>
<pdfrwt beam="2">  1       21 0.54196341E-01 0.10609460E+03</pdfrwt>
<totfact> 0.33631868E+05</totfact>
</mgrwt>
</event>
<event>
 4    1  0.5694171E+003  0.5079136E+03  0.7546771E-02  0.1011734E+00
         21   -1    0    0  504  501  0.00000000000E+00  0.00000000000E+00  0.45411864324E+03  0.45411864324E+03  0.00000000000E+00 0.  1.
         21   -1    0    0  503  502 -0.00000000000E+00 -0.00000000000E+00 -0.59309196415E+03  0.59309196415E+03  0.00000000000E+00 0.  1.
         21    1    1    2  503  501 -0.27728444811E+02 -0.50715618562E+03 -0.17701093165E+03  0.53787464449E+03  0.00000000000E+00 0.  1.
         21    1    1    2  504  502  0.27728444811E+02  0.50715618562E+03  0.38037610747E+02  0.50933596289E+03  0.00000000000E+00 0.  1.
<mgrwt>
<rscale>  2 0.50791364E+03</rscale>
<asrwt>0</asrwt>
<pdfrwt beam="1">  1       21 0.69864407E-01 0.50791364E+03</pdfrwt>
<pdfrwt beam="2">  1       21 0.91244918E-01 0.50791364E+03</pdfrwt>
<totfact> 0.15935199E+03</totfact>
</mgrwt>
</event>
<event>
 4    1  0.5694171E+003  0.1027373E+03  0.7546771E-02  0.1274643E+00
         21   -1    0    0  504  501  0.00000000000E+00  0.00000000000E+00  0.12561686154E+03  0.12561686154E+03  0.00000000000E+00 0.  1.
         21   -1    0    0  503  502 -0.00000000000E+00 -0.00000000000E+00 -0.12880910715E+03  0.12880910715E+03  0.00000000000E+00 0.  1.
         21    1    1    2  503  501  0.82674361631E+02 -0.60990982369E+02  0.73414086671E+02  0.12627184216E+03  0.00000000000E+00 0.  1.
         21    1    1    2  504  502 -0.82674361631E+02  0.60990982369E+02 -0.76606332277E+02  0.12815412653E+03  0.00000000000E+00 0.  1.
<mgrwt>
<rscale>  2 0.10273729E+03</rscale>
<asrwt>0</asrwt>
<pdfrwt beam="1">  1       21 0.19325671E-01 0.10273729E+03</pdfrwt>
<pdfrwt beam="2">  1       21 0.19816786E-01 0.10273729E+03</pdfrwt>
<totfact> 0.58190635E+05</totfact>
</mgrwt>
</event>
<event>
 4    1  0.5694171E+003  0.1075668E+03  0.7546771E-02  0.1265143E+00
         21   -1    0    0  503  501  0.00000000000E+00  0.00000000000E+00  0.74854433350E+03  0.74854433350E+03  0.00000000000E+00 0.  1.
         21   -1    0    0  504  502 -0.00000000000E+00 -0.00000000000E+00 -0.22303047434E+02  0.22303047434E+02  0.00000000000E+00 0. -1.
         21    1    1    2  503  502 -0.10636391826E+03  0.16041863739E+02  0.57665136767E+03  0.58659817962E+03  0.00000000000E+00 0.  1.
         21    1    1    2  504  501  0.10636391826E+03 -0.16041863739E+02  0.14958991840E+03  0.18424920132E+03  0.00000000000E+00 0. -1.
<mgrwt>
<rscale>  2 0.10756684E+03</rscale>
<asrwt>0</asrwt>
<pdfrwt beam="1">  1       21 0.11516065E+00 0.10756684E+03</pdfrwt>
<pdfrwt beam="2">  1       21 0.34312386E-02 0.10756684E+03</pdfrwt>
<totfact> 0.30294860E+05</totfact>
</mgrwt>
</event>
<event>
 4    1  0.5694171E+003  0.1219560E+03  0.7546771E-02  0.1239905E+00
         21   -1    0    0  503  501  0.00000000000E+00  0.00000000000E+00  0.16818186950E+03  0.16818186950E+03  0.00000000000E+00 0. -1.
         21   -1    0    0  504  502 -0.00000000000E+00 -0.00000000000E+00 -0.14886129137E+03  0.14886129137E+03  0.00000000000E+00 0.  1.
         21    1    1    2  503  502 -0.32499170437E+02  0.11754599417E+03 -0.91336712699E+02  0.15236683337E+03  0.00000000000E+00 0.  1.
         21    1    1    2  504  501  0.32499170437E+02 -0.11754599417E+03  0.11065729082E+03  0.16467632750E+03  0.00000000000E+00 0. -1.
<mgrwt>
<rscale>  2 0.12195596E+03</rscale>
<asrwt>0</asrwt>
<pdfrwt beam="1">  1       21 0.25874134E-01 0.12195596E+03</pdfrwt>
<pdfrwt beam="2">  1       21 0.22901737E-01 0.12195596E+03</pdfrwt>
<totfact> 0.25792154E+05</totfact>
</mgrwt>
</event>
<event>
 4    1  0.5694171E+003  0.1172568E+03  0.7546771E-02  0.1247692E+00
         21   -1    0    0  504  501  0.00000000000E+00  0.00000000000E+00  0.32798208949E+03  0.32798208949E+03  0.00000000000E+00 0. -1.
         21   -1    0    0  503  502 -0.00000000000E+00 -0.00000000000E+00 -0.16890316440E+03  0.16890316440E+03  0.00000000000E+00 0. -1.
         21    1    1    2  503  501 -0.96747218219E+02  0.66250528341E+02 -0.13587731406E+03  0.17947646423E+03  0.00000000000E+00 0. -1.
         21    1    1    2  504  502  0.96747218219E+02 -0.66250528341E+02  0.29495623914E+03  0.31740878965E+03  0.00000000000E+00 0. -1.
<mgrwt>
<rscale>  2 0.11725680E+03</rscale>
<asrwt>0</asrwt>
<pdfrwt beam="1">  1       21 0.50458783E-01 0.11725680E+03</pdfrwt>
<pdfrwt beam="2">  1       21 0.25985102E-01 0.11725680E+03</pdfrwt>
<totfact> 0.54605444E+04</totfact>
</mgrwt>
</event>
<event>
 4    1  0.5694171E+003  0.1085399E+03  0.7546771E-02  0.1263298E+00
         21   -1    0    0  504  501  0.00000000000E+00  0.00000000000E+00  0.16005323737E+03  0.16005323737E+03  0.00000000000E+00 0. -1.
         21   -1    0    0  503  502 -0.00000000000E+00 -0.00000000000E+00 -0.15655092688E+03  0.15655092688E+03  0.00000000000E+00 0.  1.
         21    1    1    2  503  501 -0.10049078501E+03  0.41018376732E+02 -0.11347558772E+03  0.15702743108E+03  0.00000000000E+00 0.  1.
         21    1    1    2  504  502  0.10049078501E+03 -0.41018376732E+02  0.11697789822E+03  0.15957673318E+03  0.00000000000E+00 0. -1.
<mgrwt>
<rscale>  2 0.10853988E+03</rscale>
<asrwt>0</asrwt>
<pdfrwt beam="1">  1       21 0.24623575E-01 0.10853988E+03</pdfrwt>
<pdfrwt beam="2">  1       21 0.24084758E-01 0.10853988E+03</pdfrwt>
<totfact> 0.25846279E+05</totfact>
</mgrwt>
</event>
<event>
 4    1  0.5694171E+003  0.1175705E+03  0.7546771E-02  0.1247160E+00
         21   -1    0    0  504  501  0.00000000000E+00  0.00000000000E+00  0.10354710956E+03  0.10354710956E+03  0.00000000000E+00 0.  1.
         21   -1    0    0  501  502 -0.00000000000E+00 -0.00000000000E+00 -0.14490264634E+03  0.14490264634E+03  0.00000000000E+00 0.  1.
         21    1    1    2  503  502 -0.82434617282E+02  0.83829299815E+02 -0.55536043906E+02  0.13002718872E+03  0.00000000000E+00 0.  1.
         21    1    1    2  504  503  0.82434617282E+02 -0.83829299815E+02  0.14180507127E+02  0.11842256717E+03  0.00000000000E+00 0.  1.
<mgrwt>
<rscale>  2 0.11757048E+03</rscale>
<asrwt>0</asrwt>
<pdfrwt beam="1">  1       21 0.15930325E-01 0.11757048E+03</pdfrwt>
<pdfrwt beam="2">  1       21 0.22292715E-01 0.11757048E+03</pdfrwt>
<totfact> 0.66514636E+05</totfact>
</mgrwt>
</event>
<event>
 4    1  0.5694171E+003  0.1467927E+03  0.7546771E-02  0.1204470E+00
         21   -1    0    0  504  501  0.00000000000E+00  0.00000000000E+00  0.15595965468E+03  0.15595965468E+03  0.00000000000E+00 0.  1.
         21   -1    0    0  503  502 -0.00000000000E+00 -0.00000000000E+00 -0.15257776951E+03  0.15257776951E+03  0.00000000000E+00 0.  1.
         21    1    1    2  503  501 -0.49527576779E+02  0.13818503559E+03 -0.45723838077E+02  0.15374899769E+03  0.00000000000E+00 0.  1.
         21    1    1    2  504  502  0.49527576779E+02 -0.13818503559E+03  0.49105723249E+02  0.15478842650E+03  0.00000000000E+00 0.  1.
<mgrwt>
<rscale>  2 0.14679266E+03</rscale>
<asrwt>0</asrwt>
<pdfrwt beam="1">  1       21 0.23993793E-01 0.14679266E+03</pdfrwt>
<pdfrwt beam="2">  1       21 0.23473503E-01 0.14679266E+03</pdfrwt>
<totfact> 0.28262221E+05</totfact>
</mgrwt>
</event>
<event>
 4    1  0.5694171E+003  0.1037354E+03  0.7546771E-02  0.1272631E+00
         21   -1    0    0  503  501  0.00000000000E+00  0.00000000000E+00  0.19982044913E+02  0.19982044913E+02  0.00000000000E+00 0.  1.
         21   -1    0    0  504  502 -0.00000000000E+00 -0.00000000000E+00 -0.18854237891E+04  0.18854237891E+04  0.00000000000E+00 0.  1.
         21    1    1    2  503  502  0.85086459190E+02 -0.59340862148E+02 -0.12749305643E+03  0.16436399513E+03  0.00000000000E+00 0.  1.
         21    1    1    2  504  501 -0.85086459190E+02  0.59340862148E+02 -0.17379486877E+04  0.17410418389E+04  0.00000000000E+00 0.  1.
<mgrwt>
<rscale>  2 0.10373545E+03</rscale>
<asrwt>0</asrwt>
<pdfrwt beam="1">  1       21 0.30741611E-02 0.10373545E+03</pdfrwt>
<pdfrwt beam="2">  1       21 0.29006517E+00 0.10373545E+03</pdfrwt>
<totfact> 0.26321817E+04</totfact>
</mgrwt>
</event>
<event>
 4    1  0.5694171E+003  0.1009254E+03  0.7546771E-02  0.1278362E+00
         21   -1    0    0  502  501  0.00000000000E+00  0.00000000000E+00  0.42193330369E+03  0.42193330369E+03  0.00000000000E+00 0.  1.
         21   -1    0    0  504  502 -0.00000000000E+00 -0.00000000000E+00 -0.36540386899E+02  0.36540386899E+02  0.00000000000E+00 0.  1.
         21    1    1    2  503  501  0.27961586540E+02  0.96974712157E+02  0.32623165452E+03  0.34148651150E+03  0.00000000000E+00 0.  1.
         21    1    1    2  504  503 -0.27961586540E+02 -0.96974712157E+02  0.59161262271E+02  0.11698717910E+03  0.00000000000E+00 0.  1.
<mgrwt>
<rscale>  2 0.10092544E+03</rscale>
<asrwt>0</asrwt>
<pdfrwt beam="1">  1       21 0.64912812E-01 0.10092544E+03</pdfrwt>
<pdfrwt beam="2">  1       21 0.56215983E-02 0.10092544E+03</pdfrwt>
<totfact> 0.48778986E+05</totfact>
</mgrwt>
</event>
<event>
 4    1  0.5694171E+003  0.1123310E+03  0.7546771E-02  0.1256313E+00
         21   -1    0    0  504  501  0.00000000000E+00  0.00000000000E+00  0.15595717417E+04  0.15595717417E+04  0.00000000000E+00 0.  1.
         21   -1    0    0  503  502 -0.00000000000E+00 -0.00000000000E+00 -0.14051540943E+02  0.14051540943E+02  0.00000000000E+00 0.  1.
         21    1    1    2  503  501 -0.11138102613E+03  0.14577881828E+02  0.26030311692E+03  0.28350654366E+03  0.00000000000E+00 0.  1.
         21    1    1    2  504  502  0.11138102613E+03 -0.14577881828E+02  0.12852170838E+04  0.12901167390E+04  0.00000000000E+00 0.  1.
<mgrwt>
<rscale>  2 0.11233097E+03</rscale>
<asrwt>0</asrwt>
<pdfrwt beam="1">  1       21 0.23993398E+00 0.11233097E+03</pdfrwt>
<pdfrwt beam="2">  1       21 0.21617768E-02 0.11233097E+03</pdfrwt>
<totfact> 0.88119065E+04</totfact>
</mgrwt>
</event>
<event>
 4    1  0.5694171E+003  0.1903032E+03  0.7546771E-02  0.1158188E+00
         21   -1    0    0  503  501  0.00000000000E+00  0.00000000000E+00  0.18658872983E+03  0.18658872983E+03  0.00000000000E+00 0. -1.
         21   -1    0    0  504  502 -0.00000000000E+00 -0.00000000000E+00 -0.54565730331E+03  0.54565730331E+03  0.00000000000E+00 0. -1.
         21    1    1    2  503  502  0.12943064859E+03  0.13950996826E+03 -0.47341442382E+03  0.51023184997E+03  0.00000000000E+00 0. -1.
         21    1    1    2  504  501 -0.12943064859E+03 -0.13950996826E+03  0.11434585034E+03  0.22201418317E+03  0.00000000000E+00 0. -1.
<mgrwt>
<rscale>  2 0.19030324E+03</rscale>
<asrwt>0</asrwt>
<pdfrwt beam="1">  1       21 0.28705959E-01 0.19030324E+03</pdfrwt>
<pdfrwt beam="2">  1       21 0.83947277E-01 0.19030324E+03</pdfrwt>
<totfact> 0.14335610E+04</totfact>
</mgrwt>
</event>
<event>
 4    1  0.5694171E+003  0.1041566E+03  0.7546771E-02  0.1271790E+00
         21   -1    0    0  504  501  0.00000000000E+00  0.00000000000E+00  0.98829851357E+02  0.98829851357E+02  0.00000000000E+00 0.  1.
         21   -1    0    0  503  502 -0.00000000000E+00 -0.00000000000E+00 -0.12509841715E+03  0.12509841715E+03  0.00000000000E+00 0.  1.
         21    1    1    2  503  501 -0.75264994268E+02  0.71998480619E+02  0.26057482254E+02  0.10736662868E+03  0.00000000000E+00 0.  1.
         21    1    1    2  504  502  0.75264994268E+02 -0.71998480619E+02 -0.52326048046E+02  0.11656163982E+03  0.00000000000E+00 0.  1.
<mgrwt>
<rscale>  2 0.10415662E+03</rscale>
<asrwt>0</asrwt>
<pdfrwt beam="1">  1       21 0.15204593E-01 0.10415662E+03</pdfrwt>
<pdfrwt beam="2">  1       21 0.19245910E-01 0.10415662E+03</pdfrwt>
<totfact> 0.94829333E+05</totfact>
</mgrwt>
</event>
<event>
 4    1  0.5694171E+003  0.1022816E+03  0.7546771E-02  0.1275570E+00
         21   -1    0    0  502  501  0.00000000000E+00  0.00000000000E+00  0.20780687298E+02  0.20780687298E+02  0.00000000000E+00 0. -1.
         21   -1    0    0  504  502 -0.00000000000E+00 -0.00000000000E+00 -0.55041399611E+03  0.55041399611E+03  0.00000000000E+00 0. -1.
         21    1    1    2  503  501  0.84169168038E+02  0.58112632597E+02 -0.18137067496E+03  0.20822307425E+03  0.00000000000E+00 0. -1.
         21    1    1    2  504  503 -0.84169168038E+02 -0.58112632597E+02 -0.34826263386E+03  0.36297160916E+03  0.00000000000E+00 0. -1.
<mgrwt>
<rscale>  2 0.10228161E+03</rscale>
<asrwt>0</asrwt>
<pdfrwt beam="1">  1       21 0.31970283E-02 0.10228161E+03</pdfrwt>
<pdfrwt beam="2">  1       21 0.84679091E-01 0.10228161E+03</pdfrwt>
<totfact> 0.69443008E+05</totfact>
</mgrwt>
</event>
<event>
 4    1  0.5694171E+003  0.1071916E+03  0.7546771E-02  0.1265861E+00
         21   -1    0    0  503  501  0.00000000000E+00  0.00000000000E+00  0.36615799945E+03  0.36615799945E+03  0.00000000000E+00 0. -1.
         21   -1    0    0  504  502 -0.00000000000E+00 -0.00000000000E+00 -0.42865703411E+02  0.42865703411E+02  0.00000000000E+00 0. -1.
         21    1    1    2  503  502  0.10111175214E+03  0.35587363175E+02  0.26750857507E+03  0.28818550375E+03  0.00000000000E+00 0. -1.
         21    1    1    2  504  501 -0.10111175214E+03 -0.35587363175E+02  0.55783720972E+02  0.12083819911E+03  0.00000000000E+00 0. -1.
<mgrwt>
<rscale>  2 0.10719164E+03</rscale>
<asrwt>0</asrwt>
<pdfrwt beam="1">  1       21 0.56331998E-01 0.10719164E+03</pdfrwt>
<pdfrwt beam="2">  1       21 0.65947238E-02 0.10719164E+03</pdfrwt>
<totfact> 0.50251308E+05</totfact>
</mgrwt>
</event>
<event>
 4    1  0.5694171E+003  0.1038763E+03  0.7546771E-02  0.1272350E+00
         21   -1    0    0  504  501  0.00000000000E+00  0.00000000000E+00  0.13559265156E+03  0.13559265156E+03  0.00000000000E+00 0.  1.
         21   -1    0    0  503  502 -0.00000000000E+00 -0.00000000000E+00 -0.14942764612E+03  0.14942764612E+03  0.00000000000E+00 0. -1.
         21    1    1    2  503  501 -0.47109363359E+01  0.10376938553E+03 -0.10435147732E+03  0.14723963160E+03  0.00000000000E+00 0. -1.
         21    1    1    2  504  502  0.47109363359E+01 -0.10376938553E+03  0.90516482759E+02  0.13778066608E+03  0.00000000000E+00 0.  1.
<mgrwt>
<rscale>  2 0.10387626E+03</rscale>
<asrwt>0</asrwt>
<pdfrwt beam="1">  1       21 0.20860408E-01 0.10387626E+03</pdfrwt>
<pdfrwt beam="2">  1       21 0.22988869E-01 0.10387626E+03</pdfrwt>
<totfact> 0.38420857E+05</totfact>
</mgrwt>
</event>
<event>
 4    1  0.5694171E+003  0.1452608E+03  0.7546771E-02  0.1206420E+00
         21   -1    0    0  502  501  0.00000000000E+00  0.00000000000E+00  0.18760001283E+02  0.18760001283E+02  0.00000000000E+00 0.  1.
         21   -1    0    0  504  502 -0.00000000000E+00 -0.00000000000E+00 -0.12187092737E+04  0.12187092737E+04  0.00000000000E+00 0.  1.
         21    1    1    2  503  501 -0.11724593782E+03  0.85755980289E+02 -0.42819306947E+03  0.45216147871E+03  0.00000000000E+00 0.  1.
         21    1    1    2  504  503  0.11724593782E+03 -0.85755980289E+02 -0.77175620290E+03  0.78530779622E+03  0.00000000000E+00 0.  1.
<mgrwt>
<rscale>  2 0.14526079E+03</rscale>
<asrwt>0</asrwt>
<pdfrwt beam="1">  1       21 0.28861538E-02 0.14526079E+03</pdfrwt>
<pdfrwt beam="2">  1       21 0.18749375E+00 0.14526079E+03</pdfrwt>
<totfact> 0.11222559E+05</totfact>
</mgrwt>
</event>
<event>
 4    1  0.5694171E+003  0.1228998E+03  0.7546771E-02  0.1238389E+00
         21   -1    0    0  503  501  0.00000000000E+00  0.00000000000E+00  0.72367844354E+02  0.72367844354E+02  0.00000000000E+00 0.  1.
         21   -1    0    0  504  502 -0.00000000000E+00 -0.00000000000E+00 -0.73182586362E+03  0.73182586362E+03  0.00000000000E+00 0.  1.
         21    1    1    2  503  502 -0.95652130473E+02  0.77168863353E+02  0.10227250723E+02  0.12332461308E+03  0.00000000000E+00 0.  1.
         21    1    1    2  504  501  0.95652130473E+02 -0.77168863353E+02 -0.66968526999E+03  0.68086909489E+03  0.00000000000E+00 0.  1.
<mgrwt>
<rscale>  2 0.12289981E+03</rscale>
<asrwt>0</asrwt>
<pdfrwt beam="1">  1       21 0.11133515E-01 0.12289981E+03</pdfrwt>
<pdfrwt beam="2">  1       21 0.11258859E+00 0.12289981E+03</pdfrwt>
<totfact> 0.43108806E+04</totfact>
</mgrwt>
</event>
<event>
 4    1  0.5694171E+003  0.1027703E+03  0.7546771E-02  0.1274576E+00
         21   -1    0    0  503  501  0.00000000000E+00  0.00000000000E+00  0.78053555755E+02  0.78053555755E+02  0.00000000000E+00 0. -1.
         21   -1    0    0  504  502 -0.00000000000E+00 -0.00000000000E+00 -0.22213859346E+03  0.22213859346E+03  0.00000000000E+00 0.  1.
         21    1    1    2  503  502 -0.40359669262E+01  0.10269099339E+03  0.21795540024E+02  0.10505605512E+03  0.00000000000E+00 0. -1.
         21    1    1    2  504  501  0.40359669262E+01 -0.10269099339E+03 -0.16588057773E+03  0.19513609409E+03  0.00000000000E+00 0.  1.
<mgrwt>
<rscale>  2 0.10277027E+03</rscale>
<asrwt>0</asrwt>
<pdfrwt beam="1">  1       21 0.12008239E-01 0.10277027E+03</pdfrwt>
<pdfrwt beam="2">  1       21 0.34175168E-01 0.10277027E+03</pdfrwt>
<totfact> 0.48852504E+05</totfact>
</mgrwt>
</event>
<event>
 4    1  0.5694171E+003  0.1217465E+03  0.7546771E-02  0.1240243E+00
         21   -1    0    0  502  501  0.00000000000E+00  0.00000000000E+00  0.31229274233E+03  0.31229274233E+03  0.00000000000E+00 0.  1.
         21   -1    0    0  504  502 -0.00000000000E+00 -0.00000000000E+00 -0.60215503386E+02  0.60215503386E+02  0.00000000000E+00 0.  1.
         21    1    1    2  503  501  0.39786520841E+02 -0.11506190053E+03  0.21175369523E+03  0.24425772380E+03  0.00000000000E+00 0.  1.
         21    1    1    2  504  503 -0.39786520841E+02  0.11506190053E+03  0.40323543714E+02  0.12825052191E+03  0.00000000000E+00 0.  1.
<mgrwt>
<rscale>  2 0.12174649E+03</rscale>
<asrwt>0</asrwt>
<pdfrwt beam="1">  1       21 0.48045036E-01 0.12174649E+03</pdfrwt>
<pdfrwt beam="2">  1       21 0.92639238E-02 0.12174649E+03</pdfrwt>
<totfact> 0.38906123E+05</totfact>
</mgrwt>
</event>
<event>
 4    1  0.5694171E+003  0.1076257E+03  0.7546771E-02  0.1265031E+00
         21   -1    0    0  503  501  0.00000000000E+00  0.00000000000E+00  0.85635755572E+03  0.85635755572E+03  0.00000000000E+00 0.  1.
         21   -1    0    0  501  502 -0.00000000000E+00 -0.00000000000E+00 -0.55986716452E+02  0.55986716452E+02  0.00000000000E+00 0.  1.
         21    1    1    2  503  504 -0.68367086985E+02  0.83121764992E+02  0.79744900260E+03  0.80467894104E+03  0.00000000000E+00 0.  1.
         21    1    1    2  504  502  0.68367086985E+02 -0.83121764992E+02  0.29218366630E+01  0.10766533113E+03  0.00000000000E+00 0.  1.
<mgrwt>
<rscale>  2 0.10762568E+03</rscale>
<asrwt>0</asrwt>
<pdfrwt beam="1">  1       21 0.13174731E+00 0.10762568E+03</pdfrwt>
<pdfrwt beam="2">  1       21 0.86133416E-02 0.10762568E+03</pdfrwt>
<totfact> 0.46465336E+04</totfact>
</mgrwt>
</event>
<event>
 4    1  0.5694171E+003  0.1058125E+03  0.7546771E-02  0.1268527E+00
         21   -1    0    0  503  501  0.00000000000E+00  0.00000000000E+00  0.68370400903E+03  0.68370400903E+03  0.00000000000E+00 0. -1.
         21   -1    0    0  504  502 -0.00000000000E+00 -0.00000000000E+00 -0.17468279294E+02  0.17468279294E+02  0.00000000000E+00 0. -1.
         21    1    1    2  503  502  0.83570679503E+02  0.64901667687E+02  0.42078799043E+03  0.43388802453E+03  0.00000000000E+00 0. -1.
         21    1    1    2  504  501 -0.83570679503E+02 -0.64901667687E+02  0.24544773931E+03  0.26728426380E+03  0.00000000000E+00 0. -1.
<mgrwt>
<rscale>  2 0.10581250E+03</rscale>
<asrwt>0</asrwt>
<pdfrwt beam="1">  1       21 0.10518521E+00 0.10581250E+03</pdfrwt>
<pdfrwt beam="2">  1       21 0.26874281E-02 0.10581250E+03</pdfrwt>
<totfact> 0.56003969E+05</totfact>
</mgrwt>
</event>
<event>
 4    1  0.5694171E+003  0.1246577E+03  0.7546771E-02  0.1235605E+00
         21   -1    0    0  504  501  0.00000000000E+00  0.00000000000E+00  0.59254202310E+03  0.59254202310E+03  0.00000000000E+00 0. -1.
         21   -1    0    0  501  502 -0.00000000000E+00 -0.00000000000E+00 -0.41733996567E+02  0.41733996567E+02  0.00000000000E+00 0.  1.
         21    1    1    2  503  502 -0.12365853398E+03  0.15751758225E+02  0.82077269401E+02  0.14925223304E+03  0.00000000000E+00 0.  1.
         21    1    1    2  504  503  0.12365853398E+03 -0.15751758225E+02  0.46873075713E+03  0.48502378663E+03  0.00000000000E+00 0. -1.
<mgrwt>
<rscale>  2 0.12465774E+03</rscale>
<asrwt>0</asrwt>
<pdfrwt beam="1">  1       21 0.91160305E-01 0.12465774E+03</pdfrwt>
<pdfrwt beam="2">  1       21 0.64206153E-02 0.12465774E+03</pdfrwt>
<totfact> 0.18302458E+05</totfact>
</mgrwt>
</event>
<event>
 4    1  0.5694171E+003  0.1006235E+03  0.7546771E-02  0.1278990E+00
         21   -1    0    0  504  501  0.00000000000E+00  0.00000000000E+00  0.55450781830E+03  0.55450781830E+03  0.00000000000E+00 0.  1.
         21   -1    0    0  503  502 -0.00000000000E+00 -0.00000000000E+00 -0.14055960503E+03  0.14055960503E+03  0.00000000000E+00 0.  1.
         21    1    1    2  503  501  0.40290959169E+02 -0.92204848967E+02  0.53114938862E+03  0.54059667831E+03  0.00000000000E+00 0.  1.
         21    1    1    2  504  502 -0.40290959169E+02  0.92204848967E+02 -0.11720117535E+03  0.15447074502E+03  0.00000000000E+00 0.  1.
<mgrwt>
<rscale>  2 0.10062353E+03</rscale>
<asrwt>0</asrwt>
<pdfrwt beam="1">  1       21 0.85308894E-01 0.10062353E+03</pdfrwt>
<pdfrwt beam="2">  1       21 0.21624555E-01 0.10062353E+03</pdfrwt>
<totfact> 0.25235916E+04</totfact>
</mgrwt>
</event>
<event>
 4    1  0.5694171E+003  0.1026781E+03  0.7546771E-02  0.1274763E+00
         21   -1    0    0  504  501  0.00000000000E+00  0.00000000000E+00  0.24549976512E+02  0.24549976512E+02  0.00000000000E+00 0.  1.
         21   -1    0    0  503  502 -0.00000000000E+00 -0.00000000000E+00 -0.44358561429E+03  0.44358561429E+03  0.00000000000E+00 0.  1.
         21    1    1    2  503  501 -0.99329589183E+02  0.26008015405E+02 -0.16772155807E+03  0.19665529536E+03  0.00000000000E+00 0.  1.
         21    1    1    2  504  502  0.99329589183E+02 -0.26008015405E+02 -0.25131407971E+03  0.27148029544E+03  0.00000000000E+00 0.  1.
<mgrwt>
<rscale>  2 0.10267806E+03</rscale>
<asrwt>0</asrwt>
<pdfrwt beam="1">  1       21 0.37769200E-02 0.10267806E+03</pdfrwt>
<pdfrwt beam="2">  1       21 0.68243931E-01 0.10267806E+03</pdfrwt>
<totfact> 0.84880214E+05</totfact>
</mgrwt>
</event>
<event>
 4    1  0.5694171E+003  0.1108943E+03  0.7546771E-02  0.1258923E+00
         21   -1    0    0  504  501  0.00000000000E+00  0.00000000000E+00  0.11628800780E+03  0.11628800780E+03  0.00000000000E+00 0.  1.
         21   -1    0    0  501  502 -0.00000000000E+00 -0.00000000000E+00 -0.29763061344E+03  0.29763061344E+03  0.00000000000E+00 0.  1.
         21    1    1    2  503  502  0.10678320200E+03  0.29914920887E+02 -0.25684441964E+03  0.27976170328E+03  0.00000000000E+00 0.  1.
         21    1    1    2  504  503 -0.10678320200E+03 -0.29914920887E+02  0.75501814006E+02  0.13415691797E+03  0.00000000000E+00 0.  1.
<mgrwt>
<rscale>  2 0.11089434E+03</rscale>
<asrwt>0</asrwt>
<pdfrwt beam="1">  1       21 0.17890463E-01 0.11089434E+03</pdfrwt>
<pdfrwt beam="2">  1       21 0.45789325E-01 0.11089434E+03</pdfrwt>
<totfact> 0.13357902E+05</totfact>
</mgrwt>
</event>
<event>
 4    1  0.5694171E+003  0.1128960E+03  0.7546771E-02  0.1255299E+00
         21   -1    0    0  503  501  0.00000000000E+00  0.00000000000E+00  0.19456527194E+02  0.19456527194E+02  0.00000000000E+00 0.  1.
         21   -1    0    0  504  502 -0.00000000000E+00 -0.00000000000E+00 -0.80032144547E+03  0.80032144547E+03  0.00000000000E+00 0.  1.
         21    1    1    2  503  502  0.99058089462E+02  0.54157262781E+02 -0.56504864597E+03  0.57621652746E+03  0.00000000000E+00 0.  1.
         21    1    1    2  504  501 -0.99058089462E+02 -0.54157262781E+02 -0.21581627231E+03  0.24356144521E+03  0.00000000000E+00 0.  1.
<mgrwt>
<rscale>  2 0.11289603E+03</rscale>
<asrwt>0</asrwt>
<pdfrwt beam="1">  1       21 0.29933128E-02 0.11289603E+03</pdfrwt>
<pdfrwt beam="2">  1       21 0.12312634E+00 0.11289603E+03</pdfrwt>
<totfact> 0.32178883E+05</totfact>
</mgrwt>
</event>
<event>
 4    1  0.5694171E+003  0.1338230E+03  0.7546771E-02  0.1221891E+00
         21   -1    0    0  503  501  0.00000000000E+00  0.00000000000E+00  0.45688998827E+02  0.45688998827E+02  0.00000000000E+00 0. -1.
         21   -1    0    0  501  502 -0.00000000000E+00 -0.00000000000E+00 -0.41302376606E+03  0.41302376606E+03  0.00000000000E+00 0. -1.
         21    1    1    2  503  504 -0.63035420463E+02  0.11804716410E+03 -0.13188104325E+03  0.18788615371E+03  0.00000000000E+00 0. -1.
         21    1    1    2  504  502  0.63035420463E+02 -0.11804716410E+03 -0.23545372398E+03  0.27082661118E+03  0.00000000000E+00 0. -1.
<mgrwt>
<rscale>  2 0.13382301E+03</rscale>
<asrwt>0</asrwt>
<pdfrwt beam="1">  1       21 0.70290764E-02 0.13382301E+03</pdfrwt>
<pdfrwt beam="2">  1       21 0.63542121E-01 0.13382301E+03</pdfrwt>
<totfact> 0.34804411E+05</totfact>
</mgrwt>
</event>
<event>
 4    1  0.5694171E+003  0.1213502E+03  0.7546771E-02  0.1240886E+00
         21   -1    0    0  504  501  0.00000000000E+00  0.00000000000E+00  0.10266938693E+04  0.10266938693E+04  0.00000000000E+00 0.  1.
         21   -1    0    0  503  502 -0.00000000000E+00 -0.00000000000E+00 -0.53491424211E+02  0.53491424211E+02  0.00000000000E+00 0. -1.
         21    1    1    2  503  501 -0.10719292418E+03  0.56881797630E+02  0.24557183734E+02  0.12381000431E+03  0.00000000000E+00 0. -1.
         21    1    1    2  504  502  0.10719292418E+03 -0.56881797630E+02  0.94864526136E+03  0.95637528920E+03  0.00000000000E+00 0.  1.
<mgrwt>
<rscale>  2 0.12135016E+03</rscale>
<asrwt>0</asrwt>
<pdfrwt beam="1">  1       21 0.15795289E+00 0.12135016E+03</pdfrwt>
<pdfrwt beam="2">  1       21 0.82294506E-02 0.12135016E+03</pdfrwt>
<totfact> 0.31302343E+04</totfact>
</mgrwt>
</event>
<event>
 4    1  0.5694171E+003  0.1223998E+03  0.7546771E-02  0.1239190E+00
         21   -1    0    0  504  501  0.00000000000E+00  0.00000000000E+00  0.48887958789E+03  0.48887958789E+03  0.00000000000E+00 0.  1.
         21   -1    0    0  503  502 -0.00000000000E+00 -0.00000000000E+00 -0.60231390492E+02  0.60231390492E+02  0.00000000000E+00 0.  1.
         21    1    1    2  503  501  0.40652680736E+02 -0.11545162663E+03  0.21897711897E+02  0.12434318770E+03  0.00000000000E+00 0.  1.
         21    1    1    2  504  502 -0.40652680736E+02  0.11545162663E+03  0.40675048551E+03  0.42476779068E+03  0.00000000000E+00 0.  1.
<mgrwt>
<rscale>  2 0.12239983E+03</rscale>
<asrwt>0</asrwt>
<pdfrwt beam="1">  1       21 0.75212241E-01 0.12239983E+03</pdfrwt>
<pdfrwt beam="2">  1       21 0.92663681E-02 0.12239983E+03</pdfrwt>
<totfact> 0.15017939E+05</totfact>
</mgrwt>
</event>
<event>
 4    1  0.5694171E+003  0.1301170E+03  0.7546771E-02  0.1227282E+00
         21   -1    0    0  504  501  0.00000000000E+00  0.00000000000E+00  0.24448842543E+03  0.24448842543E+03  0.00000000000E+00 0. -1.
         21   -1    0    0  503  502 -0.00000000000E+00 -0.00000000000E+00 -0.30152762882E+03  0.30152762882E+03  0.00000000000E+00 0.  1.
         21    1    1    2  503  501  0.68603597034E+02  0.11056208059E+03  0.21109708991E+03  0.24797662905E+03  0.00000000000E+00 0. -1.
         21    1    1    2  504  502 -0.68603597034E+02 -0.11056208059E+03 -0.26813629330E+03  0.29803942520E+03  0.00000000000E+00 0.  1.
<mgrwt>
<rscale>  2 0.13011698E+03</rscale>
<asrwt>0</asrwt>
<pdfrwt beam="1">  1       21 0.37613604E-01 0.13011698E+03</pdfrwt>
<pdfrwt beam="2">  1       21 0.46388866E-01 0.13011698E+03</pdfrwt>
<totfact> 0.31453779E+04</totfact>
</mgrwt>
</event>
<event>
 4    1  0.5694171E+003  0.1785629E+03  0.7546771E-02  0.1169201E+00
         21   -1    0    0  503  501  0.00000000000E+00  0.00000000000E+00  0.13725927152E+03  0.13725927152E+03  0.00000000000E+00 0. -1.
         21   -1    0    0  504  502 -0.00000000000E+00 -0.00000000000E+00 -0.23732588148E+03  0.23732588148E+03  0.00000000000E+00 0. -1.
         21    1    1    2  503  502 -0.16676083872E+03 -0.63839828450E+02 -0.22765408059E+02  0.18000823545E+03  0.00000000000E+00 0. -1.
         21    1    1    2  504  501  0.16676083872E+03  0.63839828450E+02 -0.77301201902E+02  0.19457691754E+03  0.00000000000E+00 0. -1.
<mgrwt>
<rscale>  2 0.17856288E+03</rscale>
<asrwt>0</asrwt>
<pdfrwt beam="1">  1       21 0.21116811E-01 0.17856288E+03</pdfrwt>
<pdfrwt beam="2">  1       21 0.36511674E-01 0.17856288E+03</pdfrwt>
<totfact> 0.15151684E+05</totfact>
</mgrwt>
</event>
<event>
 4    1  0.5694171E+003  0.1706810E+03  0.7546771E-02  0.1177140E+00
         21   -1    0    0  504  501  0.00000000000E+00  0.00000000000E+00  0.14561877272E+03  0.14561877272E+03  0.00000000000E+00 0. -1.
         21   -1    0    0  503  502 -0.00000000000E+00 -0.00000000000E+00 -0.27273567743E+03  0.27273567743E+03  0.00000000000E+00 0. -1.
         21    1    1    2  503  501 -0.10094234662E+03 -0.13763230491E+03  0.44422679377E+02  0.17636718271E+03  0.00000000000E+00 0. -1.
         21    1    1    2  504  502  0.10094234662E+03  0.13763230491E+03 -0.17153958408E+03  0.24198726744E+03  0.00000000000E+00 0. -1.
<mgrwt>
<rscale>  2 0.17068101E+03</rscale>
<asrwt>0</asrwt>
<pdfrwt beam="1">  1       21 0.22402888E-01 0.17068101E+03</pdfrwt>
<pdfrwt beam="2">  1       21 0.41959335E-01 0.17068101E+03</pdfrwt>
<totfact> 0.10283450E+05</totfact>
</mgrwt>
</event>
<event>
 4    1  0.5694171E+003  0.1209898E+03  0.7546771E-02  0.1241473E+00
         21   -1    0    0  502  501  0.00000000000E+00  0.00000000000E+00  0.45918828266E+02  0.45918828266E+02  0.00000000000E+00 0. -1.
         21   -1    0    0  503  502 -0.00000000000E+00 -0.00000000000E+00 -0.36202391264E+03  0.36202391264E+03  0.00000000000E+00 0. -1.
         21    1    1    2  503  504  0.11142011396E+03  0.47160165285E+02 -0.22853910328E+03  0.25858972276E+03  0.00000000000E+00 0. -1.
         21    1    1    2  504  501 -0.11142011396E+03 -0.47160165285E+02 -0.87565981086E+02  0.14935301814E+03  0.00000000000E+00 0. -1.
<mgrwt>
<rscale>  2 0.12098976E+03</rscale>
<asrwt>0</asrwt>
<pdfrwt beam="1">  1       21 0.70644350E-02 0.12098976E+03</pdfrwt>
<pdfrwt beam="2">  1       21 0.55695987E-01 0.12098976E+03</pdfrwt>
<totfact> 0.45710147E+05</totfact>
</mgrwt>
</event>
<event>
 4    1  0.5694171E+003  0.1038199E+03  0.7546771E-02  0.1272462E+00
         21   -1    0    0  502  501  0.00000000000E+00  0.00000000000E+00  0.24834628697E+03  0.24834628697E+03  0.00000000000E+00 0. -1.
         21   -1    0    0  503  502 -0.00000000000E+00 -0.00000000000E+00 -0.32783340513E+03  0.32783340513E+03  0.00000000000E+00 0.  1.
         21    1    1    2  503  504 -0.10381547038E+03  0.95950092343E+00 -0.30808675815E+03  0.32510924792E+03  0.00000000000E+00 0.  1.
         21    1    1    2  504  501  0.10381547038E+03 -0.95950092343E+00  0.22859964000E+03  0.25107044418E+03  0.00000000000E+00 0. -1.
<mgrwt>
<rscale>  2 0.10381990E+03</rscale>
<asrwt>0</asrwt>
<pdfrwt beam="1">  1       21 0.38207121E-01 0.10381990E+03</pdfrwt>
<pdfrwt beam="2">  1       21 0.50435909E-01 0.10381990E+03</pdfrwt>
<totfact> 0.26198319E+04</totfact>
</mgrwt>
</event>
<event>
 4    1  0.5694171E+003  0.1261547E+03  0.7546771E-02  0.1233276E+00
         21   -1    0    0  503  501  0.00000000000E+00  0.00000000000E+00  0.43059361650E+02  0.43059361650E+02  0.00000000000E+00 0.  1.
         21   -1    0    0  504  502 -0.00000000000E+00 -0.00000000000E+00 -0.37424244181E+03  0.37424244181E+03  0.00000000000E+00 0.  1.
         21    1    1    2  503  502 -0.11079491281E+02 -0.12566726380E+03 -0.18881445269E+03  0.22708129351E+03  0.00000000000E+00 0.  1.
         21    1    1    2  504  501  0.11079491281E+02  0.12566726380E+03 -0.14236862748E+03  0.19022050996E+03  0.00000000000E+00 0.  1.
<mgrwt>
<rscale>  2 0.12615473E+03</rscale>
<asrwt>0</asrwt>
<pdfrwt beam="1">  1       21 0.66245170E-02 0.12615473E+03</pdfrwt>
<pdfrwt beam="2">  1       21 0.57575761E-01 0.12615473E+03</pdfrwt>
<totfact> 0.47550743E+05</totfact>
</mgrwt>
</event>
<event>
 4    1  0.5694171E+003  0.1091947E+03  0.7546771E-02  0.1262069E+00
         21   -1    0    0  502  501  0.00000000000E+00  0.00000000000E+00  0.34552906795E+03  0.34552906795E+03  0.00000000000E+00 0. -1.
         21   -1    0    0  503  502 -0.00000000000E+00 -0.00000000000E+00 -0.34512511646E+02  0.34512511646E+02  0.00000000000E+00 0.  1.
         21    1    1    2  503  504 -0.10853735748E+03 -0.11963201760E+02  0.15330735121E+03  0.18821960604E+03  0.00000000000E+00 0. -1.
         21    1    1    2  504  501  0.10853735748E+03  0.11963201760E+02  0.15770920510E+03  0.19182197355E+03  0.00000000000E+00 0.  1.
<mgrwt>
<rscale>  2 0.10919467E+03</rscale>
<asrwt>0</asrwt>
<pdfrwt beam="1">  1       21 0.53158316E-01 0.10919467E+03</pdfrwt>
<pdfrwt beam="2">  1       21 0.53096174E-02 0.10919467E+03</pdfrwt>
<totfact> 0.81725405E+05</totfact>
</mgrwt>
</event>
<event>
 4    1  0.5694171E+003  0.1139004E+03  0.7546771E-02  0.1253513E+00
         21   -1    0    0  504  501  0.00000000000E+00  0.00000000000E+00  0.42862429934E+02  0.42862429934E+02  0.00000000000E+00 0.  1.
         21   -1    0    0  503  502 -0.00000000000E+00 -0.00000000000E+00 -0.31045568458E+03  0.31045568458E+03  0.00000000000E+00 0. -1.
         21    1    1    2  503  501 -0.10199890133E+03 -0.50690504906E+02 -0.16176704326E+03  0.19784306772E+03  0.00000000000E+00 0.  1.
         21    1    1    2  504  502  0.10199890133E+03  0.50690504906E+02 -0.10582621139E+03  0.15547504680E+03  0.00000000000E+00 0. -1.
<mgrwt>
<rscale>  2 0.11390041E+03</rscale>
<asrwt>0</asrwt>
<pdfrwt beam="1">  1       21 0.65942200E-02 0.11390041E+03</pdfrwt>
<pdfrwt beam="2">  1       21 0.47762413E-01 0.11390041E+03</pdfrwt>
<totfact> 0.70653937E+05</totfact>
</mgrwt>
</event>
<event>
 4    1  0.5694171E+003  0.3436535E+03  0.7546771E-02  0.1065250E+00
         21   -1    0    0  504  501  0.00000000000E+00  0.00000000000E+00  0.35805930159E+03  0.35805930159E+03  0.00000000000E+00 0. -1.
         21   -1    0    0  503  502 -0.00000000000E+00 -0.00000000000E+00 -0.69955001417E+03  0.69955001417E+03  0.00000000000E+00 0. -1.
         21    1    1    2  503  501 -0.33688479772E+03  0.67870417085E+02 -0.55518123055E+03  0.65293488129E+03  0.00000000000E+00 0. -1.
         21    1    1    2  504  502  0.33688479772E+03 -0.67870417085E+02  0.21369051797E+03  0.40467443448E+03  0.00000000000E+00 0. -1.
<mgrwt>
<rscale>  2 0.34365355E+03</rscale>
<asrwt>0</asrwt>
<pdfrwt beam="1">  1       21 0.55086047E-01 0.34365355E+03</pdfrwt>
<pdfrwt beam="2">  1       21 0.10762308E+00 0.34365355E+03</pdfrwt>
<totfact> 0.19300756E+03</totfact>
</mgrwt>
</event>
<event>
 4    1  0.5694171E+003  0.1070715E+03  0.7546771E-02  0.1266091E+00
         21   -1    0    0  504  501  0.00000000000E+00  0.00000000000E+00  0.41715916534E+03  0.41715916534E+03  0.00000000000E+00 0.  1.
         21   -1    0    0  503  502 -0.00000000000E+00 -0.00000000000E+00 -0.27506019008E+02  0.27506019008E+02  0.00000000000E+00 0.  1.
         21    1    1    2  503  501 -0.51698678068E+02  0.93763266931E+02  0.18823539238E+03  0.21655684354E+03  0.00000000000E+00 0.  1.
         21    1    1    2  504  502  0.51698678068E+02 -0.93763266931E+02  0.20141775395E+03  0.22810834081E+03  0.00000000000E+00 0.  1.
<mgrwt>
<rscale>  2 0.10707149E+03</rscale>
<asrwt>0</asrwt>
<pdfrwt beam="1">  1       21 0.64178329E-01 0.10707149E+03</pdfrwt>
<pdfrwt beam="2">  1       21 0.42316955E-02 0.10707149E+03</pdfrwt>
<totfact> 0.80269842E+05</totfact>
</mgrwt>
</event>
<event>
 4    1  0.5694171E+003  0.1635617E+03  0.7546771E-02  0.1184733E+00
         21   -1    0    0  503  501  0.00000000000E+00  0.00000000000E+00  0.97447024267E+02  0.97447024267E+02  0.00000000000E+00 0. -1.
         21   -1    0    0  504  502 -0.00000000000E+00 -0.00000000000E+00 -0.30292348355E+03  0.30292348355E+03  0.00000000000E+00 0. -1.
         21    1    1    2  503  502 -0.27677330211E+02 -0.16120299328E+03 -0.16402274719E+03  0.23163743490E+03  0.00000000000E+00 0. -1.
         21    1    1    2  504  501  0.27677330211E+02  0.16120299328E+03 -0.41453712097E+02  0.16873307292E+03  0.00000000000E+00 0. -1.
<mgrwt>
<rscale>  2 0.16356173E+03</rscale>
<asrwt>0</asrwt>
<pdfrwt beam="1">  1       21 0.14991850E-01 0.16356173E+03</pdfrwt>
<pdfrwt beam="2">  1       21 0.46603613E-01 0.16356173E+03</pdfrwt>
<totfact> 0.17473024E+05</totfact>
</mgrwt>
</event>
<event>
 4    1  0.5694171E+003  0.1071828E+03  0.7546771E-02  0.1265878E+00
         21   -1    0    0  503  501  0.00000000000E+00  0.00000000000E+00  0.27000389941E+03  0.27000389941E+03  0.00000000000E+00 0.  1.
         21   -1    0    0  504  502 -0.00000000000E+00 -0.00000000000E+00 -0.70749924596E+02  0.70749924596E+02  0.00000000000E+00 0. -1.
         21    1    1    2  503  502  0.97838913418E+02  0.43768712988E+02 -0.79418183031E+01  0.10747662859E+03  0.00000000000E+00 0. -1.
         21    1    1    2  504  501 -0.97838913418E+02 -0.43768712988E+02  0.20719579312E+03  0.23327719541E+03  0.00000000000E+00 0.  1.
<mgrwt>
<rscale>  2 0.10718280E+03</rscale>
<asrwt>0</asrwt>
<pdfrwt beam="1">  1       21 0.41539061E-01 0.10718280E+03</pdfrwt>
<pdfrwt beam="2">  1       21 0.10884604E-01 0.10718280E+03</pdfrwt>
<totfact> 0.39495975E+05</totfact>
</mgrwt>
</event>
<event>
 4    1  0.5694171E+003  0.1499814E+03  0.7546771E-02  0.1200496E+00
         21   -1    0    0  503  501  0.00000000000E+00  0.00000000000E+00  0.26418152730E+02  0.26418152730E+02  0.00000000000E+00 0.  1.
         21   -1    0    0  504  502 -0.00000000000E+00 -0.00000000000E+00 -0.90432429753E+03  0.90432429753E+03  0.00000000000E+00 0.  1.
         21    1    1    2  503  502 -0.13795792240E+03 -0.58839157669E+02 -0.32645344351E+03  0.35925796526E+03  0.00000000000E+00 0.  1.
         21    1    1    2  504  501  0.13795792240E+03  0.58839157669E+02 -0.55145270129E+03  0.57148448500E+03  0.00000000000E+00 0.  1.
<mgrwt>
<rscale>  2 0.14998145E+03</rscale>
<asrwt>0</asrwt>
<pdfrwt beam="1">  1       21 0.40643307E-02 0.14998145E+03</pdfrwt>
<pdfrwt beam="2">  1       21 0.13912683E+00 0.14998145E+03</pdfrwt>
<totfact> 0.14128913E+05</totfact>
</mgrwt>
</event>
<event>
 4    1  0.5694171E+003  0.1322579E+03  0.7546771E-02  0.1224143E+00
         21   -1    0    0  503  501  0.00000000000E+00  0.00000000000E+00  0.73999359344E+02  0.73999359344E+02  0.00000000000E+00 0.  1.
         21   -1    0    0  504  502 -0.00000000000E+00 -0.00000000000E+00 -0.28160068450E+03  0.28160068450E+03  0.00000000000E+00 0.  1.
         21    1    1    2  503  502 -0.12645437604E+03  0.38748325145E+02 -0.17504859621E+03  0.21939497022E+03  0.00000000000E+00 0.  1.
         21    1    1    2  504  501  0.12645437604E+03 -0.38748325145E+02 -0.32552728951E+02  0.13620507363E+03  0.00000000000E+00 0.  1.
<mgrwt>
<rscale>  2 0.13225786E+03</rscale>
<asrwt>0</asrwt>
<pdfrwt beam="1">  1       21 0.11384517E-01 0.13225786E+03</pdfrwt>
<pdfrwt beam="2">  1       21 0.43323182E-01 0.13225786E+03</pdfrwt>
<totfact> 0.33417271E+05</totfact>
</mgrwt>
</event>
<event>
 4    1  0.5694171E+003  0.1329291E+03  0.7546771E-02  0.1223173E+00
         21   -1    0    0  502  501  0.00000000000E+00  0.00000000000E+00  0.50274835808E+02  0.50274835808E+02  0.00000000000E+00 0. -1.
         21   -1    0    0  504  502 -0.00000000000E+00 -0.00000000000E+00 -0.36253966910E+03  0.36253966910E+03  0.00000000000E+00 0. -1.
         21    1    1    2  503  501  0.24324859416E+02 -0.13068453743E+03 -0.12006668281E+03  0.17912608808E+03  0.00000000000E+00 0. -1.
         21    1    1    2  504  503 -0.24324859416E+02  0.13068453743E+03 -0.19219815049E+03  0.23368841683E+03  0.00000000000E+00 0. -1.
<mgrwt>
<rscale>  2 0.13292911E+03</rscale>
<asrwt>0</asrwt>
<pdfrwt beam="1">  1       21 0.77345900E-02 0.13292911E+03</pdfrwt>
<pdfrwt beam="2">  1       21 0.55775335E-01 0.13292911E+03</pdfrwt>
<totfact> 0.38956002E+05</totfact>
</mgrwt>
</event>
<event>
 4    1  0.5694171E+003  0.1092230E+03  0.7546771E-02  0.1262016E+00
         21   -1    0    0  504  501  0.00000000000E+00  0.00000000000E+00  0.33956941014E+02  0.33956941014E+02  0.00000000000E+00 0.  1.
         21   -1    0    0  503  502 -0.00000000000E+00 -0.00000000000E+00 -0.57748920583E+03  0.57748920583E+03  0.00000000000E+00 0.  1.
         21    1    1    2  503  501 -0.10207244258E+03  0.38869924438E+02 -0.46309292348E+03  0.47579902305E+03  0.00000000000E+00 0.  1.
         21    1    1    2  504  502  0.10207244258E+03 -0.38869924438E+02 -0.80439341338E+02  0.13564712380E+03  0.00000000000E+00 0.  1.
<mgrwt>
<rscale>  2 0.10922296E+03</rscale>
<asrwt>0</asrwt>
<pdfrwt beam="1">  1       21 0.52241453E-02 0.10922296E+03</pdfrwt>
<pdfrwt beam="2">  1       21 0.88844484E-01 0.10922296E+03</pdfrwt>
<totfact> 0.27618466E+05</totfact>
</mgrwt>
</event>
<event>
 4    1  0.5694171E+003  0.1035647E+03  0.7546771E-02  0.1272973E+00
         21   -1    0    0  503  501  0.00000000000E+00  0.00000000000E+00  0.64026656675E+02  0.64026656675E+02  0.00000000000E+00 0.  1.
         21   -1    0    0  504  502 -0.00000000000E+00 -0.00000000000E+00 -0.18466005970E+03  0.18466005970E+03  0.00000000000E+00 0. -1.
         21    1    1    2  503  502 -0.30186544857E+02 -0.99067792323E+02 -0.98201082027E+02  0.14272038214E+03  0.00000000000E+00 0. -1.
         21    1    1    2  504  501  0.30186544857E+02  0.99067792323E+02 -0.22432320996E+02  0.10596633424E+03  0.00000000000E+00 0.  1.
<mgrwt>
<rscale>  2 0.10356474E+03</rscale>
<asrwt>0</asrwt>
<pdfrwt beam="1">  1       21 0.98502552E-02 0.10356474E+03</pdfrwt>
<pdfrwt beam="2">  1       21 0.28409239E-01 0.10356474E+03</pdfrwt>
<totfact> 0.98607208E+05</totfact>
</mgrwt>
</event>
<event>
 4    1  0.5694171E+003  0.1084207E+03  0.7546771E-02  0.1263523E+00
         21   -1    0    0  502  501  0.00000000000E+00  0.00000000000E+00  0.23140972189E+03  0.23140972189E+03  0.00000000000E+00 0.  1.
         21   -1    0    0  503  502 -0.00000000000E+00 -0.00000000000E+00 -0.19430187885E+03  0.19430187885E+03  0.00000000000E+00 0. -1.
         21    1    1    2  503  504  0.47773037136E+02  0.97328184475E+02 -0.16437380833E+03  0.19691060772E+03  0.00000000000E+00 0. -1.
         21    1    1    2  504  501 -0.47773037136E+02 -0.97328184475E+02  0.20148165136E+03  0.22880099301E+03  0.00000000000E+00 0.  1.
<mgrwt>
<rscale>  2 0.10842066E+03</rscale>
<asrwt>0</asrwt>
<pdfrwt beam="1">  1       21 0.35601496E-01 0.10842066E+03</pdfrwt>
<pdfrwt beam="2">  1       21 0.29892597E-01 0.10842066E+03</pdfrwt>
<totfact> 0.84637766E+04</totfact>
</mgrwt>
</event>
<event>
 4    1  0.5694171E+003  0.1536489E+03  0.7546771E-02  0.1196060E+00
         21   -1    0    0  503  501  0.00000000000E+00  0.00000000000E+00  0.13436383511E+03  0.13436383511E+03  0.00000000000E+00 0.  1.
         21   -1    0    0  501  502 -0.00000000000E+00 -0.00000000000E+00 -0.38012061922E+03  0.38012061922E+03  0.00000000000E+00 0.  1.
         21    1    1    2  503  504 -0.10254672184E+03 -0.11442088666E+03  0.65765162252E+02  0.16713176248E+03  0.00000000000E+00 0.  1.
         21    1    1    2  504  502  0.10254672184E+03  0.11442088666E+03 -0.31152194637E+03  0.34735269185E+03  0.00000000000E+00 0.  1.
<mgrwt>
<rscale>  2 0.15364885E+03</rscale>
<asrwt>0</asrwt>
<pdfrwt beam="1">  1       21 0.20671359E-01 0.15364885E+03</pdfrwt>
<pdfrwt beam="2">  1       21 0.58480095E-01 0.15364885E+03</pdfrwt>
<totfact> 0.60497196E+04</totfact>
</mgrwt>
</event>
<event>
 4    1  0.5694171E+003  0.1078766E+03  0.7546771E-02  0.1264553E+00
         21   -1    0    0  504  501  0.00000000000E+00  0.00000000000E+00  0.46514933870E+03  0.46514933870E+03  0.00000000000E+00 0. -1.
         21   -1    0    0  503  502 -0.00000000000E+00 -0.00000000000E+00 -0.65472261594E+02  0.65472261594E+02  0.00000000000E+00 0.  1.
         21    1    1    2  503  501  0.62973018197E+02  0.87588538783E+02  0.40838630693E+03  0.42239404451E+03  0.00000000000E+00 0. -1.
         21    1    1    2  504  502 -0.62973018197E+02 -0.87588538783E+02 -0.87092298269E+01  0.10822755578E+03  0.00000000000E+00 0.  1.
<mgrwt>
<rscale>  2 0.10787656E+03</rscale>
<asrwt>0</asrwt>
<pdfrwt beam="1">  1       21 0.71561435E-01 0.10787656E+03</pdfrwt>
<pdfrwt beam="2">  1       21 0.10072656E-01 0.10787656E+03</pdfrwt>
<totfact> 0.14564018E+05</totfact>
</mgrwt>
</event>
<event>
 4    1  0.5694171E+003  0.1040993E+03  0.7546771E-02  0.1271904E+00
         21   -1    0    0  503  501  0.00000000000E+00  0.00000000000E+00  0.50886634577E+03  0.50886634577E+03  0.00000000000E+00 0.  1.
         21   -1    0    0  504  502 -0.00000000000E+00 -0.00000000000E+00 -0.75068300087E+02  0.75068300087E+02  0.00000000000E+00 0.  1.
         21    1    1    2  503  502  0.99307001579E+02  0.31221518636E+02  0.46400684055E+03  0.47554075731E+03  0.00000000000E+00 0.  1.
         21    1    1    2  504  501 -0.99307001579E+02 -0.31221518636E+02 -0.30208794859E+02  0.10839388855E+03  0.00000000000E+00 0.  1.
<mgrwt>
<rscale>  2 0.10409930E+03</rscale>
<asrwt>0</asrwt>
<pdfrwt beam="1">  1       21 0.78287128E-01 0.10409930E+03</pdfrwt>
<pdfrwt beam="2">  1       21 0.11548970E-01 0.10409930E+03</pdfrwt>
<totfact> 0.94303459E+04</totfact>
</mgrwt>
</event>
<event>
 4    1  0.5694171E+003  0.1564622E+03  0.7546771E-02  0.1192750E+00
         21   -1    0    0  503  501  0.00000000000E+00  0.00000000000E+00  0.32555236725E+03  0.32555236725E+03  0.00000000000E+00 0. -1.
         21   -1    0    0  504  502 -0.00000000000E+00 -0.00000000000E+00 -0.11086014699E+03  0.11086014699E+03  0.00000000000E+00 0. -1.
         21    1    1    2  503  502 -0.45196304202E+02  0.14979223401E+03 -0.16417213560E+02  0.15732114983E+03  0.00000000000E+00 0. -1.
         21    1    1    2  504  501  0.45196304202E+02 -0.14979223401E+03  0.23110943383E+03  0.27909136441E+03  0.00000000000E+00 0. -1.
<mgrwt>
<rscale>  2 0.15646220E+03</rscale>
<asrwt>0</asrwt>
<pdfrwt beam="1">  1       21 0.50084979E-01 0.15646220E+03</pdfrwt>
<pdfrwt beam="2">  1       21 0.17055407E-01 0.15646220E+03</pdfrwt>
<totfact> 0.11932513E+05</totfact>
</mgrwt>
</event>
<event>
 4    1  0.5694171E+003  0.1536026E+03  0.7546771E-02  0.1196115E+00
         21   -1    0    0  504  501  0.00000000000E+00  0.00000000000E+00  0.89287188177E+02  0.89287188177E+02  0.00000000000E+00 0. -1.
         21   -1    0    0  503  502 -0.00000000000E+00 -0.00000000000E+00 -0.28344334627E+03  0.28344334627E+03  0.00000000000E+00 0. -1.
         21    1    1    2  503  501  0.65547044366E+02  0.13891487958E+03 -0.14557960736E+03  0.21162982037E+03  0.00000000000E+00 0. -1.
         21    1    1    2  504  502 -0.65547044366E+02 -0.13891487958E+03 -0.48576550734E+02  0.16110071407E+03  0.00000000000E+00 0. -1.
<mgrwt>
<rscale>  2 0.15360260E+03</rscale>
<asrwt>0</asrwt>
<pdfrwt beam="1">  1       21 0.13736491E-01 0.15360260E+03</pdfrwt>
<pdfrwt beam="2">  1       21 0.43606668E-01 0.15360260E+03</pdfrwt>
<totfact> 0.23501407E+05</totfact>
</mgrwt>
</event>
<event>
 4    1  0.5694171E+003  0.1032553E+03  0.7546771E-02  0.1273596E+00
         21   -1    0    0  503  501  0.00000000000E+00  0.00000000000E+00  0.13341126607E+03  0.13341126607E+03  0.00000000000E+00 0.  1.
         21   -1    0    0  504  502 -0.00000000000E+00 -0.00000000000E+00 -0.52066044227E+03  0.52066044227E+03  0.00000000000E+00 0.  1.
         21    1    1    2  503  502  0.26360365374E+01 -0.10322164503E+03  0.10726810397E+03  0.14888956586E+03  0.00000000000E+00 0.  1.
         21    1    1    2  504  501 -0.26360365374E+01  0.10322164503E+03 -0.49451728017E+03  0.50518214248E+03  0.00000000000E+00 0.  1.
<mgrwt>
<rscale>  2 0.10325530E+03</rscale>
<asrwt>0</asrwt>
<pdfrwt beam="1">  1       21 0.20524810E-01 0.10325530E+03</pdfrwt>
<pdfrwt beam="2">  1       21 0.80101606E-01 0.10325530E+03</pdfrwt>
<totfact> 0.31910687E+04</totfact>
</mgrwt>
</event>
<event>
 4    1  0.5694171E+003  0.1442938E+03  0.7546771E-02  0.1207665E+00
         21   -1    0    0  503  501  0.00000000000E+00  0.00000000000E+00  0.16088335355E+03  0.16088335355E+03  0.00000000000E+00 0.  1.
         21   -1    0    0  504  502 -0.00000000000E+00 -0.00000000000E+00 -0.13183645218E+03  0.13183645218E+03  0.00000000000E+00 0.  1.
         21    1    1    2  503  502 -0.37775173220E+02  0.13926136461E+03  0.34359620198E+02  0.14832826731E+03  0.00000000000E+00 0.  1.
         21    1    1    2  504  501  0.37775173220E+02 -0.13926136461E+03 -0.53127188278E+01  0.14439153841E+03  0.00000000000E+00 0.  1.
<mgrwt>
<rscale>  2 0.14429377E+03</rscale>
<asrwt>0</asrwt>
<pdfrwt beam="1">  1       21 0.24751285E-01 0.14429377E+03</pdfrwt>
<pdfrwt beam="2">  1       21 0.20282531E-01 0.14429377E+03</pdfrwt>
<totfact> 0.35038210E+05</totfact>
</mgrwt>
</event>
<event>
 4    1  0.5694171E+003  0.1170501E+03  0.7546771E-02  0.1248044E+00
         21   -1    0    0  502  501  0.00000000000E+00  0.00000000000E+00  0.80073486023E+03  0.80073486023E+03  0.00000000000E+00 0.  1.
         21   -1    0    0  503  502 -0.00000000000E+00 -0.00000000000E+00 -0.97624041677E+02  0.97624041677E+02  0.00000000000E+00 0.  1.
         21    1    1    2  503  504  0.29060532373E+02  0.11338527135E+03 -0.56366245212E+02  0.12991492562E+03  0.00000000000E+00 0.  1.
         21    1    1    2  504  501 -0.29060532373E+02 -0.11338527135E+03  0.75947706377E+03  0.76844397629E+03  0.00000000000E+00 0.  1.
<mgrwt>
<rscale>  2 0.11705014E+03</rscale>
<asrwt>0</asrwt>
<pdfrwt beam="1">  1       21 0.12318997E+00 0.11705014E+03</pdfrwt>
<pdfrwt beam="2">  1       21 0.15019084E-01 0.11705014E+03</pdfrwt>
<totfact> 0.20451777E+04</totfact>
</mgrwt>
</event>
<event>
 4    1  0.5694171E+003  0.1496182E+03  0.7546771E-02  0.1200943E+00
         21   -1    0    0  502  501  0.00000000000E+00  0.00000000000E+00  0.84920181668E+02  0.84920181668E+02  0.00000000000E+00 0.  1.
         21   -1    0    0  503  502 -0.00000000000E+00 -0.00000000000E+00 -0.26391054732E+03  0.26391054732E+03  0.00000000000E+00 0.  1.
         21    1    1    2  503  504 -0.53080026453E+02  0.13988609138E+03 -0.95404249890E+02  0.17744739690E+03  0.00000000000E+00 0.  1.
         21    1    1    2  504  501  0.53080026453E+02 -0.13988609138E+03 -0.83586115762E+02  0.17138333209E+03  0.00000000000E+00 0.  1.
<mgrwt>
<rscale>  2 0.14961821E+03</rscale>
<asrwt>0</asrwt>
<pdfrwt beam="1">  1       21 0.13064644E-01 0.14961821E+03</pdfrwt>
<pdfrwt beam="2">  1       21 0.40601621E-01 0.14961821E+03</pdfrwt>
<totfact> 0.29730805E+05</totfact>
</mgrwt>
</event>
<event>
 4    1  0.5694171E+003  0.1040906E+03  0.7546771E-02  0.1271922E+00
         21   -1    0    0  503  501  0.00000000000E+00  0.00000000000E+00  0.24112491063E+03  0.24112491063E+03  0.00000000000E+00 0. -1.
         21   -1    0    0  504  502 -0.00000000000E+00 -0.00000000000E+00 -0.66329905021E+02  0.66329905021E+02  0.00000000000E+00 0. -1.
         21    1    1    2  503  502 -0.65799318446E+02 -0.80655408367E+02  0.17470592073E+03  0.20336421501E+03  0.00000000000E+00 0. -1.
         21    1    1    2  504  501  0.65799318446E+02  0.80655408367E+02  0.89084879436E-01  0.10409060065E+03  0.00000000000E+00 0. -1.
<mgrwt>
<rscale>  2 0.10409056E+03</rscale>
<asrwt>0</asrwt>
<pdfrwt beam="1">  1       21 0.37096140E-01 0.10409056E+03</pdfrwt>
<pdfrwt beam="2">  1       21 0.10204601E-01 0.10409056E+03</pdfrwt>
<totfact> 0.55331225E+05</totfact>
</mgrwt>
</event>
<event>
 4    1  0.5694171E+003  0.1037863E+03  0.7546771E-02  0.1272529E+00
         21   -1    0    0  504  501  0.00000000000E+00  0.00000000000E+00  0.35408000879E+03  0.35408000879E+03  0.00000000000E+00 0. -1.
         21   -1    0    0  503  502 -0.00000000000E+00 -0.00000000000E+00 -0.93935190686E+02  0.93935190686E+02  0.00000000000E+00 0. -1.
         21    1    1    2  503  501 -0.64869653178E+02 -0.81015618549E+02  0.31426946241E+03  0.33096358917E+03  0.00000000000E+00 0. -1.
         21    1    1    2  504  502  0.64869653178E+02  0.81015618549E+02 -0.54124644311E+02  0.11705161030E+03  0.00000000000E+00 0. -1.
<mgrwt>
<rscale>  2 0.10378633E+03</rscale>
<asrwt>0</asrwt>
<pdfrwt beam="1">  1       21 0.54473847E-01 0.10378633E+03</pdfrwt>
<pdfrwt beam="2">  1       21 0.14451568E-01 0.10378633E+03</pdfrwt>
<totfact> 0.13785020E+05</totfact>
</mgrwt>
</event>
<event>
 4    1  0.5694171E+003  0.1421024E+03  0.7546771E-02  0.1210528E+00
         21   -1    0    0  503  501  0.00000000000E+00  0.00000000000E+00  0.12683261877E+03  0.12683261877E+03  0.00000000000E+00 0. -1.
         21   -1    0    0  501  502 -0.00000000000E+00 -0.00000000000E+00 -0.16126275277E+03  0.16126275277E+03  0.00000000000E+00 0. -1.
         21    1    1    2  503  504 -0.14669067283E+02 -0.14134328582E+03 -0.96568384104E+00  0.14210573010E+03  0.00000000000E+00 0. -1.
         21    1    1    2  504  502  0.14669067283E+02  0.14134328582E+03 -0.33464450159E+02  0.14598964144E+03  0.00000000000E+00 0. -1.
<mgrwt>
<rscale>  2 0.14210245E+03</rscale>
<asrwt>0</asrwt>
<pdfrwt beam="1">  1       21 0.19512711E-01 0.14210245E+03</pdfrwt>
<pdfrwt beam="2">  1       21 0.24809654E-01 0.14210245E+03</pdfrwt>
<totfact> 0.37487171E+05</totfact>
</mgrwt>
</event>
<event>
 4    1  0.5694171E+003  0.1290012E+03  0.7546771E-02  0.1228945E+00
         21   -1    0    0  504  501  0.00000000000E+00  0.00000000000E+00  0.22522422287E+02  0.22522422287E+02  0.00000000000E+00 0. -1.
         21   -1    0    0  503  502 -0.00000000000E+00 -0.00000000000E+00 -0.75080440919E+03  0.75080440919E+03  0.00000000000E+00 0. -1.
         21    1    1    2  503  501  0.12406774128E+03 -0.35334364406E+02 -0.41287420300E+03  0.43255800679E+03  0.00000000000E+00 0. -1.
         21    1    1    2  504  502 -0.12406774128E+03  0.35334364406E+02 -0.31540778390E+03  0.34076882469E+03  0.00000000000E+00 0. -1.
<mgrwt>
<rscale>  2 0.12900125E+03</rscale>
<asrwt>0</asrwt>
<pdfrwt beam="1">  1       21 0.34649878E-02 0.12900125E+03</pdfrwt>
<pdfrwt beam="2">  1       21 0.11550838E+00 0.12900125E+03</pdfrwt>
<totfact> 0.29417795E+05</totfact>
</mgrwt>
</event>
<event>
 4    1  0.5694171E+003  0.1092817E+03  0.7546771E-02  0.1261906E+00
         21   -1    0    0  504  501  0.00000000000E+00  0.00000000000E+00  0.71380574345E+03  0.71380574345E+03  0.00000000000E+00 0.  1.
         21   -1    0    0  503  502 -0.00000000000E+00 -0.00000000000E+00 -0.18370173370E+02  0.18370173370E+02  0.00000000000E+00 0.  1.
         21    1    1    2  503  501  0.49301819159E+02  0.97528615390E+02  0.45708202813E+03  0.46996433975E+03  0.00000000000E+00 0.  1.
         21    1    1    2  504  502 -0.49301819159E+02 -0.97528615390E+02  0.23835354194E+03  0.26221157707E+03  0.00000000000E+00 0.  1.
<mgrwt>
<rscale>  2 0.10928175E+03</rscale>
<asrwt>0</asrwt>
<pdfrwt beam="1">  1       21 0.10981625E+00 0.10928175E+03</pdfrwt>
<pdfrwt beam="2">  1       21 0.28261811E-02 0.10928175E+03</pdfrwt>
<totfact> 0.46578772E+05</totfact>
</mgrwt>
</event>
<event>
 4    1  0.5694171E+003  0.1092416E+03  0.7546771E-02  0.1261981E+00
         21   -1    0    0  504  501  0.00000000000E+00  0.00000000000E+00  0.30760808479E+03  0.30760808479E+03  0.00000000000E+00 0.  1.
         21   -1    0    0  503  502 -0.00000000000E+00 -0.00000000000E+00 -0.65618351544E+02  0.65618351544E+02  0.00000000000E+00 0.  1.
         21    1    1    2  503  501 -0.48361268172E+02  0.97953686217E+02  0.24030686691E+03  0.26397183029E+03  0.00000000000E+00 0.  1.
         21    1    1    2  504  502  0.48361268172E+02 -0.97953686217E+02  0.16828663360E+01  0.10925460604E+03  0.00000000000E+00 0.  1.
<mgrwt>
<rscale>  2 0.10924164E+03</rscale>
<asrwt>0</asrwt>
<pdfrwt beam="1">  1       21 0.47324320E-01 0.10924164E+03</pdfrwt>
<pdfrwt beam="2">  1       21 0.10095131E-01 0.10924164E+03</pdfrwt>
<totfact> 0.34617672E+05</totfact>
</mgrwt>
</event>
<event>
 4    1  0.5694171E+003  0.2299609E+03  0.7546771E-02  0.1126667E+00
         21   -1    0    0  503  501  0.00000000000E+00  0.00000000000E+00  0.67192393961E+03  0.67192393961E+03  0.00000000000E+00 0. -1.
         21   -1    0    0  504  502 -0.00000000000E+00 -0.00000000000E+00 -0.88596595904E+02  0.88596595904E+02  0.00000000000E+00 0. -1.
         21    1    1    2  503  502 -0.97195503656E+02 -0.20841077435E+03  0.41873951701E+03  0.47772879325E+03  0.00000000000E+00 0. -1.
         21    1    1    2  504  501  0.97195503656E+02  0.20841077435E+03  0.16458782670E+03  0.28279174227E+03  0.00000000000E+00 0. -1.
<mgrwt>
<rscale>  2 0.22996090E+03</rscale>
<asrwt>0</asrwt>
<pdfrwt beam="1">  1       21 0.10337291E+00 0.22996090E+03</pdfrwt>
<pdfrwt beam="2">  1       21 0.13630246E-01 0.22996090E+03</pdfrwt>
<totfact> 0.34703746E+04</totfact>
</mgrwt>
</event>
<event>
 4    1  0.5694171E+003  0.1366243E+03  0.7546771E-02  0.1217945E+00
         21   -1    0    0  502  501  0.00000000000E+00  0.00000000000E+00  0.10650407828E+03  0.10650407828E+03  0.00000000000E+00 0.  1.
         21   -1    0    0  504  502 -0.00000000000E+00 -0.00000000000E+00 -0.29470139048E+03  0.29470139048E+03  0.00000000000E+00 0. -1.
         21    1    1    2  503  501  0.11350945668E+03  0.76038212951E+02  0.33609322012E+02  0.14069752347E+03  0.00000000000E+00 0.  1.
         21    1    1    2  504  503 -0.11350945668E+03 -0.76038212951E+02 -0.22180663420E+03  0.26050794529E+03  0.00000000000E+00 0. -1.
<mgrwt>
<rscale>  2 0.13662433E+03</rscale>
<asrwt>0</asrwt>
<pdfrwt beam="1">  1       21 0.16385243E-01 0.13662433E+03</pdfrwt>
<pdfrwt beam="2">  1       21 0.45338674E-01 0.13662433E+03</pdfrwt>
<totfact> 0.15852883E+05</totfact>
</mgrwt>
</event>
<event>
 4    1  0.5694171E+003  0.1186649E+03  0.7546771E-02  0.1245316E+00
         21   -1    0    0  503  501  0.00000000000E+00  0.00000000000E+00  0.14413698589E+03  0.14413698589E+03  0.00000000000E+00 0. -1.
         21   -1    0    0  504  502 -0.00000000000E+00 -0.00000000000E+00 -0.97747963122E+02  0.97747963122E+02  0.00000000000E+00 0. -1.
         21    1    1    2  503  502  0.99276096725E+02 -0.65004821817E+02  0.20362272840E+02  0.12039930397E+03  0.00000000000E+00 0. -1.
         21    1    1    2  504  501 -0.99276096725E+02  0.65004821817E+02  0.26026749929E+02  0.12148564505E+03  0.00000000000E+00 0. -1.
<mgrwt>
<rscale>  2 0.11866495E+03</rscale>
<asrwt>0</asrwt>
<pdfrwt beam="1">  1       21 0.22174921E-01 0.11866495E+03</pdfrwt>
<pdfrwt beam="2">  1       21 0.15038148E-01 0.11866495E+03</pdfrwt>
<totfact> 0.74531650E+05</totfact>
</mgrwt>
</event>
<event>
 4    1  0.5694171E+003  0.1113208E+03  0.7546771E-02  0.1258143E+00
         21   -1    0    0  503  501  0.00000000000E+00  0.00000000000E+00  0.10129535069E+03  0.10129535069E+03  0.00000000000E+00 0.  1.
         21   -1    0    0  504  502 -0.00000000000E+00 -0.00000000000E+00 -0.31180543544E+03  0.31180543544E+03  0.00000000000E+00 0.  1.
         21    1    1    2  503  502  0.54110347790E+02  0.97285100185E+02 -0.26626432291E+03  0.28859835431E+03  0.00000000000E+00 0.  1.
         21    1    1    2  504  501 -0.54110347790E+02 -0.97285100185E+02  0.55754238163E+02  0.12450243182E+03  0.00000000000E+00 0.  1.
<mgrwt>
<rscale>  2 0.11132080E+03</rscale>
<asrwt>0</asrwt>
<pdfrwt beam="1">  1       21 0.15583901E-01 0.11132080E+03</pdfrwt>
<pdfrwt beam="2">  1       21 0.47970066E-01 0.11132080E+03</pdfrwt>
<totfact> 0.15600390E+05</totfact>
</mgrwt>
</event>
<event>
 4    1  0.5694171E+003  0.1212077E+03  0.7546771E-02  0.1241118E+00
         21   -1    0    0  503  501  0.00000000000E+00  0.00000000000E+00  0.21569266568E+02  0.21569266568E+02  0.00000000000E+00 0.  1.
         21   -1    0    0  504  502 -0.00000000000E+00 -0.00000000000E+00 -0.72015681566E+03  0.72015681566E+03  0.00000000000E+00 0.  1.
         21    1    1    2  503  502  0.81376402462E+02 -0.89828696797E+02 -0.43563596773E+03  0.45218360212E+03  0.00000000000E+00 0.  1.
         21    1    1    2  504  501 -0.81376402462E+02  0.89828696797E+02 -0.26295158136E+03  0.28954248011E+03  0.00000000000E+00 0.  1.
<mgrwt>
<rscale>  2 0.12120773E+03</rscale>
<asrwt>0</asrwt>
<pdfrwt beam="1">  1       21 0.33183495E-02 0.12120773E+03</pdfrwt>
<pdfrwt beam="2">  1       21 0.11079333E+00 0.12120773E+03</pdfrwt>
<totfact> 0.34978170E+05</totfact>
</mgrwt>
</event>
<event>
 4    1  0.5694171E+003  0.2147256E+03  0.7546771E-02  0.1137878E+00
         21   -1    0    0  503  501  0.00000000000E+00  0.00000000000E+00  0.31966475705E+03  0.31966475705E+03  0.00000000000E+00 0. -1.
         21   -1    0    0  504  502 -0.00000000000E+00 -0.00000000000E+00 -0.23778237752E+03  0.23778237752E+03  0.00000000000E+00 0. -1.
         21    1    1    2  503  502 -0.80271964500E+02 -0.19915697898E+03 -0.13388153851E+03  0.25304417977E+03  0.00000000000E+00 0. -1.
         21    1    1    2  504  501  0.80271964500E+02  0.19915697898E+03  0.21576391805E+03  0.30440295480E+03  0.00000000000E+00 0. -1.
<mgrwt>
<rscale>  2 0.21472562E+03</rscale>
<asrwt>0</asrwt>
<pdfrwt beam="1">  1       21 0.49179193E-01 0.21472562E+03</pdfrwt>
<pdfrwt beam="2">  1       21 0.36581904E-01 0.21472562E+03</pdfrwt>
<totfact> 0.28081616E+04</totfact>
</mgrwt>
</event>
<event>
 4    1  0.5694171E+003  0.1100676E+03  0.7546771E-02  0.1260445E+00
         21   -1    0    0  504  501  0.00000000000E+00  0.00000000000E+00  0.34090685694E+03  0.34090685694E+03  0.00000000000E+00 0. -1.
         21   -1    0    0  503  502 -0.00000000000E+00 -0.00000000000E+00 -0.11547951980E+03  0.11547951980E+03  0.00000000000E+00 0.  1.
         21    1    1    2  503  501 -0.18526351104E+02 -0.10849718933E+03  0.30257592584E+03  0.32197368941E+03  0.00000000000E+00 0. -1.
         21    1    1    2  504  502  0.18526351104E+02  0.10849718933E+03 -0.77148588697E+02  0.13441268733E+03  0.00000000000E+00 0.  1.
<mgrwt>
<rscale>  2 0.11006755E+03</rscale>
<asrwt>0</asrwt>
<pdfrwt beam="1">  1       21 0.52447208E-01 0.11006755E+03</pdfrwt>
<pdfrwt beam="2">  1       21 0.17766080E-01 0.11006755E+03</pdfrwt>
<totfact> 0.10248412E+05</totfact>
</mgrwt>
</event>
<event>
 4    1  0.5694171E+003  0.1275240E+03  0.7546771E-02  0.1231177E+00
         21   -1    0    0  502  501  0.00000000000E+00  0.00000000000E+00  0.59578944471E+02  0.59578944471E+02  0.00000000000E+00 0.  1.
         21   -1    0    0  503  502 -0.00000000000E+00 -0.00000000000E+00 -0.43005456076E+03  0.43005456076E+03  0.00000000000E+00 0.  1.
         21    1    1    2  503  504  0.40928315704E+02  0.12077764816E+03 -0.33320550700E+03  0.35677482705E+03  0.00000000000E+00 0.  1.
         21    1    1    2  504  501 -0.40928315704E+02 -0.12077764816E+03 -0.37270109293E+02  0.13285867818E+03  0.00000000000E+00 0.  1.
<mgrwt>
<rscale>  2 0.12752399E+03</rscale>
<asrwt>0</asrwt>
<pdfrwt beam="1">  1       21 0.91659912E-02 0.12752399E+03</pdfrwt>
<pdfrwt beam="2">  1       21 0.66162242E-01 0.12752399E+03</pdfrwt>
<totfact> 0.20210902E+05</totfact>
</mgrwt>
</event>
<event>
 4    1  0.5694171E+003  0.2301386E+03  0.7546771E-02  0.1126542E+00
         21   -1    0    0  504  501  0.00000000000E+00  0.00000000000E+00  0.32234240720E+03  0.32234240720E+03  0.00000000000E+00 0.  1.
         21   -1    0    0  503  502 -0.00000000000E+00 -0.00000000000E+00 -0.16574707713E+03  0.16574707713E+03  0.00000000000E+00 0.  1.
         21    1    1    2  503  501  0.22767268684E+03  0.33599720528E+02  0.55566524660E+02  0.23675183678E+03  0.00000000000E+00 0.  1.
         21    1    1    2  504  502 -0.22767268684E+03 -0.33599720528E+02  0.10102880541E+03  0.25133764755E+03  0.00000000000E+00 0.  1.
<mgrwt>
<rscale>  2 0.23013864E+03</rscale>
<asrwt>0</asrwt>
<pdfrwt beam="1">  1       21 0.49591139E-01 0.23013864E+03</pdfrwt>
<pdfrwt beam="2">  1       21 0.25499550E-01 0.23013864E+03</pdfrwt>
<totfact> 0.55582434E+04</totfact>
</mgrwt>
</event>
<event>
 4    1  0.5694171E+003  0.1069217E+03  0.7546771E-02  0.1266379E+00
         21   -1    0    0  504  501  0.00000000000E+00  0.00000000000E+00  0.34481829035E+02  0.34481829035E+02  0.00000000000E+00 0. -1.
         21   -1    0    0  503  502 -0.00000000000E+00 -0.00000000000E+00 -0.70669373670E+03  0.70669373670E+03  0.00000000000E+00 0. -1.
         21    1    1    2  503  501 -0.74757334145E+02  0.76443407953E+02 -0.66097333238E+02  0.12570247050E+03  0.00000000000E+00 0. -1.
         21    1    1    2  504  502  0.74757334145E+02 -0.76443407953E+02 -0.60611457442E+03  0.61547309523E+03  0.00000000000E+00 0. -1.
<mgrwt>
<rscale>  2 0.10692172E+03</rscale>
<asrwt>0</asrwt>
<pdfrwt beam="1">  1       21 0.53048966E-02 0.10692172E+03</pdfrwt>
<pdfrwt beam="2">  1       21 0.10872212E+00 0.10692172E+03</pdfrwt>
<totfact> 0.16865516E+05</totfact>
</mgrwt>
</event>
<event>
 4    1  0.5694171E+003  0.1462992E+03  0.7546771E-02  0.1205096E+00
         21   -1    0    0  502  501  0.00000000000E+00  0.00000000000E+00  0.38775314067E+03  0.38775314067E+03  0.00000000000E+00 0. -1.
         21   -1    0    0  504  502 -0.00000000000E+00 -0.00000000000E+00 -0.26882372463E+03  0.26882372463E+03  0.00000000000E+00 0. -1.
         21    1    1    2  503  501 -0.12565885185E+03  0.74922085012E+02  0.35211425442E+03  0.38129767117E+03  0.00000000000E+00 0. -1.
         21    1    1    2  504  503  0.12565885185E+03 -0.74922085012E+02 -0.23318483839E+03  0.27527919414E+03  0.00000000000E+00 0. -1.
<mgrwt>
<rscale>  2 0.14629923E+03</rscale>
<asrwt>0</asrwt>
<pdfrwt beam="1">  1       21 0.59654329E-01 0.14629923E+03</pdfrwt>
<pdfrwt beam="2">  1       21 0.41357496E-01 0.14629923E+03</pdfrwt>
<totfact> 0.15238557E+04</totfact>
</mgrwt>
</event>
<event>
 4    1  0.5694171E+003  0.1083095E+03  0.7546771E-02  0.1263733E+00
         21   -1    0    0  503  501  0.00000000000E+00  0.00000000000E+00  0.65227501388E+02  0.65227501388E+02  0.00000000000E+00 0.  1.
         21   -1    0    0  504  502 -0.00000000000E+00 -0.00000000000E+00 -0.18181699777E+03  0.18181699777E+03  0.00000000000E+00 0.  1.
         21    1    1    2  503  502  0.10495460113E+03  0.26748579098E+02 -0.71153158558E+02  0.12959061214E+03  0.00000000000E+00 0.  1.
         21    1    1    2  504  501 -0.10495460113E+03 -0.26748579098E+02 -0.45436337825E+02  0.11745388702E+03  0.00000000000E+00 0.  1.
<mgrwt>
<rscale>  2 0.10830953E+03</rscale>
<asrwt>0</asrwt>
<pdfrwt beam="1">  1       21 0.10035000E-01 0.10830953E+03</pdfrwt>
<pdfrwt beam="2">  1       21 0.27971846E-01 0.10830953E+03</pdfrwt>
<totfact> 0.98400749E+05</totfact>
</mgrwt>
</event>
<event>
 4    1  0.5694171E+003  0.1304070E+03  0.7546771E-02  0.1226853E+00
         21   -1    0    0  503  501  0.00000000000E+00  0.00000000000E+00  0.71964766486E+03  0.71964766486E+03  0.00000000000E+00 0. -1.
         21   -1    0    0  504  502 -0.00000000000E+00 -0.00000000000E+00 -0.23950343946E+02  0.23950343946E+02  0.00000000000E+00 0. -1.
         21    1    1    2  503  502 -0.12637715882E+03  0.32168303485E+02  0.30491586201E+03  0.33163182737E+03  0.00000000000E+00 0. -1.
         21    1    1    2  504  501  0.12637715882E+03 -0.32168303485E+02  0.39078145890E+03  0.41196618143E+03  0.00000000000E+00 0. -1.
<mgrwt>
<rscale>  2 0.13040700E+03</rscale>
<asrwt>0</asrwt>
<pdfrwt beam="1">  1       21 0.11071501E+00 0.13040700E+03</pdfrwt>
<pdfrwt beam="2">  1       21 0.36846688E-02 0.13040700E+03</pdfrwt>
<totfact> 0.29409732E+05</totfact>
</mgrwt>
</event>
<event>
 4    1  0.5694171E+003  0.1031294E+03  0.7546771E-02  0.1273849E+00
         21   -1    0    0  504  501  0.00000000000E+00  0.00000000000E+00  0.38242896067E+03  0.38242896067E+03  0.00000000000E+00 0. -1.
         21   -1    0    0  501  502 -0.00000000000E+00 -0.00000000000E+00 -0.84497176365E+02  0.84497176365E+02  0.00000000000E+00 0. -1.
         21    1    1    2  503  502  0.10092913866E+03 -0.21189386308E+02 -0.42255370191E+02  0.11145042590E+03  0.00000000000E+00 0. -1.
         21    1    1    2  504  503 -0.10092913866E+03  0.21189386308E+02  0.34018715449E+03  0.35547571113E+03  0.00000000000E+00 0. -1.
<mgrwt>
<rscale>  2 0.10312944E+03</rscale>
<asrwt>0</asrwt>
<pdfrwt beam="1">  1       21 0.58835224E-01 0.10312944E+03</pdfrwt>
<pdfrwt beam="2">  1       21 0.12999566E-01 0.10312944E+03</pdfrwt>
<totfact> 0.14172630E+05</totfact>
</mgrwt>
</event>
<event>
 4    1  0.5694171E+003  0.1060154E+03  0.7546771E-02  0.1268132E+00
         21   -1    0    0  503  501  0.00000000000E+00  0.00000000000E+00  0.16526544123E+03  0.16526544123E+03  0.00000000000E+00 0.  1.
         21   -1    0    0  501  502 -0.00000000000E+00 -0.00000000000E+00 -0.94713718935E+02  0.94713718935E+02  0.00000000000E+00 0.  1.
         21    1    1    2  503  504 -0.10341305082E+03  0.23345144854E+02  0.10430143122E+03  0.14872136169E+03  0.00000000000E+00 0.  1.
         21    1    1    2  504  502  0.10341305082E+03 -0.23345144854E+02 -0.33749708924E+02  0.11125779847E+03  0.00000000000E+00 0.  1.
<mgrwt>
<rscale>  2 0.10601535E+03</rscale>
<asrwt>0</asrwt>
<pdfrwt beam="1">  1       21 0.25425452E-01 0.10601535E+03</pdfrwt>
<pdfrwt beam="2">  1       21 0.14571341E-01 0.10601535E+03</pdfrwt>
<totfact> 0.61035249E+05</totfact>
</mgrwt>
</event>
<event>
 4    1  0.5694171E+003  0.1194277E+03  0.7546771E-02  0.1244044E+00
         21   -1    0    0  502  501  0.00000000000E+00  0.00000000000E+00  0.92965655102E+02  0.92965655102E+02  0.00000000000E+00 0.  1.
         21   -1    0    0  504  502 -0.00000000000E+00 -0.00000000000E+00 -0.26651502248E+03  0.26651502248E+03  0.00000000000E+00 0.  1.
         21    1    1    2  503  501  0.73497915107E+02  0.94133031162E+02  0.30310712939E+02  0.12321408361E+03  0.00000000000E+00 0.  1.
         21    1    1    2  504  503 -0.73497915107E+02 -0.94133031162E+02 -0.20386008032E+03  0.23626659397E+03  0.00000000000E+00 0.  1.
<mgrwt>
<rscale>  2 0.11942768E+03</rscale>
<asrwt>0</asrwt>
<pdfrwt beam="1">  1       21 0.14302408E-01 0.11942768E+03</pdfrwt>
<pdfrwt beam="2">  1       21 0.41002311E-01 0.11942768E+03</pdfrwt>
<totfact> 0.24938209E+05</totfact>
</mgrwt>
</event>
<event>
 4    1  0.5694171E+003  0.1162240E+03  0.7546771E-02  0.1249459E+00
         21   -1    0    0  504  501  0.00000000000E+00  0.00000000000E+00  0.47763353036E+03  0.47763353036E+03  0.00000000000E+00 0. -1.
         21   -1    0    0  503  502 -0.00000000000E+00 -0.00000000000E+00 -0.28387211586E+02  0.28387211586E+02  0.00000000000E+00 0. -1.
         21    1    1    2  503  501  0.63222763227E+02 -0.97523888462E+02  0.20915810941E+03  0.23928046586E+03  0.00000000000E+00 0. -1.
         21    1    1    2  504  502 -0.63222763227E+02  0.97523888462E+02  0.24008820936E+03  0.26674027609E+03  0.00000000000E+00 0. -1.
<mgrwt>
<rscale>  2 0.11622404E+03</rscale>
<asrwt>0</asrwt>
<pdfrwt beam="1">  1       21 0.73482076E-01 0.11622404E+03</pdfrwt>
<pdfrwt beam="2">  1       21 0.43672637E-02 0.11622404E+03</pdfrwt>
<totfact> 0.56815240E+05</totfact>
</mgrwt>
</event>
<event>
 4    1  0.5694171E+003  0.1175915E+03  0.7546771E-02  0.1247124E+00
         21   -1    0    0  503  501  0.00000000000E+00  0.00000000000E+00  0.25245796222E+03  0.25245796222E+03  0.00000000000E+00 0. -1.
         21   -1    0    0  504  502 -0.00000000000E+00 -0.00000000000E+00 -0.55390124885E+02  0.55390124885E+02  0.00000000000E+00 0. -1.
         21    1    1    2  503  502 -0.11265478861E+03  0.33714300303E+02  0.11478754636E+03  0.16432874442E+03  0.00000000000E+00 0. -1.
         21    1    1    2  504  501  0.11265478861E+03 -0.33714300303E+02  0.82280290976E+02  0.14351934269E+03  0.00000000000E+00 0. -1.
<mgrwt>
<rscale>  2 0.11759148E+03</rscale>
<asrwt>0</asrwt>
<pdfrwt beam="1">  1       21 0.38839686E-01 0.11759148E+03</pdfrwt>
<pdfrwt beam="2">  1       21 0.85215578E-02 0.11759148E+03</pdfrwt>
<totfact> 0.69063405E+05</totfact>
</mgrwt>
</event>
<event>
 4    1  0.5694171E+003  0.1550772E+03  0.7546771E-02  0.1194369E+00
         21   -1    0    0  503  501  0.00000000000E+00  0.00000000000E+00  0.41681872414E+03  0.41681872414E+03  0.00000000000E+00 0. -1.
         21   -1    0    0  504  502 -0.00000000000E+00 -0.00000000000E+00 -0.59518064742E+02  0.59518064742E+02  0.00000000000E+00 0. -1.
         21    1    1    2  503  502 -0.11856758657E+03  0.99953258442E+02  0.13698279746E+03  0.20691354054E+03  0.00000000000E+00 0. -1.
         21    1    1    2  504  501  0.11856758657E+03 -0.99953258442E+02  0.22031786194E+03  0.26942324835E+03  0.00000000000E+00 0. -1.
<mgrwt>
<rscale>  2 0.15507716E+03</rscale>
<asrwt>0</asrwt>
<pdfrwt beam="1">  1       21 0.64125956E-01 0.15507716E+03</pdfrwt>
<pdfrwt beam="2">  1       21 0.91566256E-02 0.15507716E+03</pdfrwt>
<totfact> 0.21505278E+05</totfact>
</mgrwt>
</event>
<event>
 4    1  0.5694171E+003  0.1299484E+03  0.7546771E-02  0.1227532E+00
         21   -1    0    0  502  501  0.00000000000E+00  0.00000000000E+00  0.37165878305E+03  0.37165878305E+03  0.00000000000E+00 0. -1.
         21   -1    0    0  504  502 -0.00000000000E+00 -0.00000000000E+00 -0.69884777423E+02  0.69884777423E+02  0.00000000000E+00 0. -1.
         21    1    1    2  503  501  0.11881904493E+03 -0.52617646759E+02  0.28146902197E+03  0.31001837448E+03  0.00000000000E+00 0. -1.
         21    1    1    2  504  503 -0.11881904493E+03  0.52617646759E+02  0.20304983660E+02  0.13152518599E+03  0.00000000000E+00 0. -1.
<mgrwt>
<rscale>  2 0.12994838E+03</rscale>
<asrwt>0</asrwt>
<pdfrwt beam="1">  1       21 0.57178273E-01 0.12994838E+03</pdfrwt>
<pdfrwt beam="2">  1       21 0.10751504E-01 0.12994838E+03</pdfrwt>
<totfact> 0.20860209E+05</totfact>
</mgrwt>
</event>
<event>
 4    1  0.5694171E+003  0.1072569E+03  0.7546771E-02  0.1265736E+00
         21   -1    0    0  504  501  0.00000000000E+00  0.00000000000E+00  0.41046643847E+03  0.41046643847E+03  0.00000000000E+00 0.  1.
         21   -1    0    0  503  502 -0.00000000000E+00 -0.00000000000E+00 -0.86916922954E+02  0.86916922954E+02  0.00000000000E+00 0. -1.
         21    1    1    2  503  501  0.56647434121E+01 -0.10710720409E+03 -0.42931199164E+02  0.11552978122E+03  0.00000000000E+00 0. -1.
         21    1    1    2  504  502 -0.56647434121E+01  0.10710720409E+03  0.36648071468E+03  0.38185358021E+03  0.00000000000E+00 0.  1.
<mgrwt>
<rscale>  2 0.10725690E+03</rscale>
<asrwt>0</asrwt>
<pdfrwt beam="1">  1       21 0.63148682E-01 0.10725690E+03</pdfrwt>
<pdfrwt beam="2">  1       21 0.13371835E-01 0.10725690E+03</pdfrwt>
<totfact> 0.11585062E+05</totfact>
</mgrwt>
</event>
<event>
 4    1  0.5694171E+003  0.1146841E+03  0.7546771E-02  0.1252133E+00
         21   -1    0    0  503  501  0.00000000000E+00  0.00000000000E+00  0.37962345380E+02  0.37962345380E+02  0.00000000000E+00 0. -1.
         21   -1    0    0  504  502 -0.00000000000E+00 -0.00000000000E+00 -0.98811877197E+03  0.98811877197E+03  0.00000000000E+00 0.  1.
         21    1    1    2  503  502  0.48239990536E+02  0.10404494577E+03 -0.88850544047E+03  0.89587631131E+03  0.00000000000E+00 0.  1.
         21    1    1    2  504  501 -0.48239990536E+02 -0.10404494577E+03 -0.61650986124E+02  0.13020480604E+03  0.00000000000E+00 0. -1.
<mgrwt>
<rscale>  2 0.11468412E+03</rscale>
<asrwt>0</asrwt>
<pdfrwt beam="1">  1       21 0.58403608E-02 0.11468412E+03</pdfrwt>
<pdfrwt beam="2">  1       21 0.15201827E+00 0.11468412E+03</pdfrwt>
<totfact> 0.62413119E+04</totfact>
</mgrwt>
</event>
<event>
 4    1  0.5694171E+003  0.1387230E+03  0.7546771E-02  0.1215058E+00
         21   -1    0    0  504  501  0.00000000000E+00  0.00000000000E+00  0.21782118356E+03  0.21782118356E+03  0.00000000000E+00 0.  1.
         21   -1    0    0  503  502 -0.00000000000E+00 -0.00000000000E+00 -0.92703490185E+02  0.92703490185E+02  0.00000000000E+00 0.  1.
         21    1    1    2  503  501  0.11897395360E+02 -0.13821191681E+03  0.96212554874E+02  0.16882220731E+03  0.00000000000E+00 0.  1.
         21    1    1    2  504  502 -0.11897395360E+02  0.13821191681E+03  0.28905138503E+02  0.14170246644E+03  0.00000000000E+00 0.  1.
<mgrwt>
<rscale>  2 0.13872304E+03</rscale>
<asrwt>0</asrwt>
<pdfrwt beam="1">  1       21 0.33510951E-01 0.13872304E+03</pdfrwt>
<pdfrwt beam="2">  1       21 0.14262075E-01 0.13872304E+03</pdfrwt>
<totfact> 0.37236147E+05</totfact>
</mgrwt>
</event>
<event>
 4    1  0.5694171E+003  0.1049188E+03  0.7546771E-02  0.1270280E+00
         21   -1    0    0  504  501  0.00000000000E+00  0.00000000000E+00  0.56929586394E+01  0.56929586394E+01  0.00000000000E+00 0.  1.
         21   -1    0    0  503  502 -0.00000000000E+00 -0.00000000000E+00 -0.19868095961E+04  0.19868095961E+04  0.00000000000E+00 0. -1.
         21    1    1    2  503  501  0.73186634970E+02  0.75177620202E+02 -0.82753582128E+03  0.83416035246E+03  0.00000000000E+00 0.  1.
         21    1    1    2  504  502 -0.73186634970E+02 -0.75177620202E+02 -0.11535808162E+04  0.11583422023E+04  0.00000000000E+00 0. -1.
<mgrwt>
<rscale>  2 0.10491882E+03</rscale>
<asrwt>0</asrwt>
<pdfrwt beam="1">  1       21 0.87583823E-03 0.10491882E+03</pdfrwt>
<pdfrwt beam="2">  1       21 0.30566356E+00 0.10491882E+03</pdfrwt>
<totfact> 0.15960268E+05</totfact>
</mgrwt>
</event>
<event>
 4    1  0.5694171E+003  0.1041605E+03  0.7546771E-02  0.1271783E+00
         21   -1    0    0  504  501  0.00000000000E+00  0.00000000000E+00  0.13861276396E+03  0.13861276396E+03  0.00000000000E+00 0. -1.
         21   -1    0    0  503  502 -0.00000000000E+00 -0.00000000000E+00 -0.14179604647E+03  0.14179604647E+03  0.00000000000E+00 0. -1.
         21    1    1    2  503  501 -0.33485509614E+02 -0.98631245733E+02 -0.95434461229E+02  0.14126973625E+03  0.00000000000E+00 0. -1.
         21    1    1    2  504  502  0.33485509614E+02  0.98631245733E+02  0.92251178723E+02  0.13913907418E+03  0.00000000000E+00 0. -1.
<mgrwt>
<rscale>  2 0.10416046E+03</rscale>
<asrwt>0</asrwt>
<pdfrwt beam="1">  1       21 0.21325041E-01 0.10416046E+03</pdfrwt>
<pdfrwt beam="2">  1       21 0.21814776E-01 0.10416046E+03</pdfrwt>
<totfact> 0.40661490E+05</totfact>
</mgrwt>
</event>
<event>
 4    1  0.5694171E+003  0.1011249E+03  0.7546771E-02  0.1277948E+00
         21   -1    0    0  502  501  0.00000000000E+00  0.00000000000E+00  0.13072689492E+03  0.13072689492E+03  0.00000000000E+00 0.  1.
         21   -1    0    0  504  502 -0.00000000000E+00 -0.00000000000E+00 -0.18111756598E+03  0.18111756598E+03  0.00000000000E+00 0. -1.
         21    1    1    2  503  501 -0.28440352896E+02  0.97043208878E+02  0.92326267190E+02  0.13693201844E+03  0.00000000000E+00 0.  1.
         21    1    1    2  504  503  0.28440352896E+02 -0.97043208878E+02 -0.14271693825E+03  0.17491244246E+03  0.00000000000E+00 0. -1.
<mgrwt>
<rscale>  2 0.10112486E+03</rscale>
<asrwt>0</asrwt>
<pdfrwt beam="1">  1       21 0.20111830E-01 0.10112486E+03</pdfrwt>
<pdfrwt beam="2">  1       21 0.27864241E-01 0.10112486E+03</pdfrwt>
<totfact> 0.28634100E+05</totfact>
</mgrwt>
</event>
<event>
 4    1  0.5694171E+003  0.1911557E+03  0.7546771E-02  0.1157423E+00
         21   -1    0    0  504  501  0.00000000000E+00  0.00000000000E+00  0.21264244330E+03  0.21264244330E+03  0.00000000000E+00 0. -1.
         21   -1    0    0  503  502 -0.00000000000E+00 -0.00000000000E+00 -0.52832193355E+03  0.52832193355E+03  0.00000000000E+00 0.  1.
         21    1    1    2  503  501 -0.18982992755E+03 -0.22474475263E+02 -0.46216409354E+03  0.50013613425E+03  0.00000000000E+00 0.  1.
         21    1    1    2  504  502  0.18982992755E+03  0.22474475263E+02  0.14648460329E+03  0.24082824259E+03  0.00000000000E+00 0. -1.
<mgrwt>
<rscale>  2 0.19115570E+03</rscale>
<asrwt>0</asrwt>
<pdfrwt beam="1">  1       21 0.32714222E-01 0.19115570E+03</pdfrwt>
<pdfrwt beam="2">  1       21 0.81280297E-01 0.19115570E+03</pdfrwt>
<totfact> 0.11944814E+04</totfact>
</mgrwt>
</event>
<event>
 4    1  0.5694171E+003  0.1004280E+03  0.7546771E-02  0.1279399E+00
         21   -1    0    0  504  501  0.00000000000E+00  0.00000000000E+00  0.79594934142E+02  0.79594934142E+02  0.00000000000E+00 0.  1.
         21   -1    0    0  503  502 -0.00000000000E+00 -0.00000000000E+00 -0.43581455182E+03  0.43581455182E+03  0.00000000000E+00 0.  1.
         21    1    1    2  503  501  0.15089001900E+02  0.99287969458E+02  0.38921084750E+02  0.10770621939E+03  0.00000000000E+00 0.  1.
         21    1    1    2  504  502 -0.15089001900E+02 -0.99287969458E+02 -0.39514070243E+03  0.40770326657E+03  0.00000000000E+00 0.  1.
<mgrwt>
<rscale>  2 0.10042798E+03</rscale>
<asrwt>0</asrwt>
<pdfrwt beam="1">  1       21 0.12245375E-01 0.10042798E+03</pdfrwt>
<pdfrwt beam="2">  1       21 0.67048391E-01 0.10042798E+03</pdfrwt>
<totfact> 0.11945172E+05</totfact>
</mgrwt>
</event>
<event>
 4    1  0.5694171E+003  0.1432337E+03  0.7546771E-02  0.1209043E+00
         21   -1    0    0  504  501  0.00000000000E+00  0.00000000000E+00  0.13723441417E+04  0.13723441417E+04  0.00000000000E+00 0. -1.
         21   -1    0    0  503  502 -0.00000000000E+00 -0.00000000000E+00 -0.11611004678E+03  0.11611004678E+03  0.00000000000E+00 0.  1.
         21    1    1    2  503  501  0.35833092463E+02 -0.13867908911E+03 -0.66549036984E+02  0.15793883181E+03  0.00000000000E+00 0.  1.
         21    1    1    2  504  502 -0.35833092463E+02  0.13867908911E+03  0.13227831319E+04  0.13305153566E+04  0.00000000000E+00 0. -1.
<mgrwt>
<rscale>  2 0.14323373E+03</rscale>
<asrwt>0</asrwt>
<pdfrwt beam="1">  1       21 0.21112986E+00 0.14323373E+03</pdfrwt>
<pdfrwt beam="2">  1       21 0.17863085E-01 0.14323373E+03</pdfrwt>
<totfact> 0.34346071E+03</totfact>
</mgrwt>
</event>
<event>
 4    1  0.5694171E+003  0.1022420E+03  0.7546771E-02  0.1275651E+00
         21   -1    0    0  503  501  0.00000000000E+00  0.00000000000E+00  0.74876219055E+02  0.74876219055E+02  0.00000000000E+00 0. -1.
         21   -1    0    0  501  502 -0.00000000000E+00 -0.00000000000E+00 -0.61825761838E+03  0.61825761838E+03  0.00000000000E+00 0.  1.
         21    1    1    2  503  504  0.10123074212E+02 -0.10173962303E+03  0.33246613181E+02  0.10751169618E+03  0.00000000000E+00 0. -1.
         21    1    1    2  504  502 -0.10123074212E+02  0.10173962303E+03 -0.57662801251E+03  0.58562214126E+03  0.00000000000E+00 0.  1.
<mgrwt>
<rscale>  2 0.10224200E+03</rscale>
<asrwt>0</asrwt>
<pdfrwt beam="1">  1       21 0.11519418E-01 0.10224200E+03</pdfrwt>
<pdfrwt beam="2">  1       21 0.95116558E-01 0.10224200E+03</pdfrwt>
<totfact> 0.61168353E+04</totfact>
</mgrwt>
</event>
<event>
 4    1  0.5694171E+003  0.1045573E+03  0.7546771E-02  0.1270994E+00
         21   -1    0    0  503  501  0.00000000000E+00  0.00000000000E+00  0.15877063077E+02  0.15877063077E+02  0.00000000000E+00 0. -1.
         21   -1    0    0  501  502 -0.00000000000E+00 -0.00000000000E+00 -0.27504760294E+04  0.27504760294E+04  0.00000000000E+00 0.  1.
         21    1    1    2  503  504 -0.10414457289E+03  0.92809401803E+01 -0.16970518502E+03  0.19932906896E+03  0.00000000000E+00 0. -1.
         21    1    1    2  504  502  0.10414457289E+03 -0.92809401803E+01 -0.25648937813E+04  0.25670240236E+04  0.00000000000E+00 0.  1.
<mgrwt>
<rscale>  2 0.10455729E+03</rscale>
<asrwt>0</asrwt>
<pdfrwt beam="1">  1       21 0.24426234E-02 0.10455729E+03</pdfrwt>
<pdfrwt beam="2">  1       21 0.42315044E+00 0.10455729E+03</pdfrwt>
<totfact> 0.64862068E+03</totfact>
</mgrwt>
</event>
<event>
 4    1  0.5694171E+003  0.1393515E+03  0.7546771E-02  0.1214204E+00
         21   -1    0    0  504  501  0.00000000000E+00  0.00000000000E+00  0.51573854451E+03  0.51573854451E+03  0.00000000000E+00 0.  1.
         21   -1    0    0  503  502 -0.00000000000E+00 -0.00000000000E+00 -0.20546530095E+03  0.20546530095E+03  0.00000000000E+00 0.  1.
         21    1    1    2  503  501 -0.13182018692E+03  0.45191573456E+02 -0.17075361575E+03  0.22039881416E+03  0.00000000000E+00 0.  1.
         21    1    1    2  504  502  0.13182018692E+03 -0.45191573456E+02  0.48102685932E+03  0.50080503130E+03  0.00000000000E+00 0.  1.
<mgrwt>
<rscale>  2 0.13935150E+03</rscale>
<asrwt>0</asrwt>
<pdfrwt beam="1">  1       21 0.79344391E-01 0.13935150E+03</pdfrwt>
<pdfrwt beam="2">  1       21 0.31610046E-01 0.13935150E+03</pdfrwt>
<totfact> 0.13994593E+04</totfact>
</mgrwt>
</event>
<event>
 4    1  0.5694171E+003  0.1104969E+03  0.7546771E-02  0.1259653E+00
         21   -1    0    0  503  501  0.00000000000E+00  0.00000000000E+00  0.17347307040E+03  0.17347307040E+03  0.00000000000E+00 0.  1.
         21   -1    0    0  504  502 -0.00000000000E+00 -0.00000000000E+00 -0.10698720705E+03  0.10698720705E+03  0.00000000000E+00 0.  1.
         21    1    1    2  503  502 -0.89491574771E+02  0.64813682538E+02 -0.48781065698E+02  0.12078554454E+03  0.00000000000E+00 0.  1.
         21    1    1    2  504  501  0.89491574771E+02 -0.64813682538E+02  0.11526692905E+03  0.15967473292E+03  0.00000000000E+00 0.  1.
<mgrwt>
<rscale>  2 0.11049686E+03</rscale>
<asrwt>0</asrwt>
<pdfrwt beam="1">  1       21 0.26688164E-01 0.11049686E+03</pdfrwt>
<pdfrwt beam="2">  1       21 0.16459570E-01 0.11049686E+03</pdfrwt>
<totfact> 0.44726910E+05</totfact>
</mgrwt>
</event>
<event>
 4    1  0.5694171E+003  0.1303053E+03  0.7546771E-02  0.1227003E+00
         21   -1    0    0  503  501  0.00000000000E+00  0.00000000000E+00  0.72638962470E+02  0.72638962470E+02  0.00000000000E+00 0.  1.
         21   -1    0    0  501  502 -0.00000000000E+00 -0.00000000000E+00 -0.27002998512E+03  0.27002998512E+03  0.00000000000E+00 0.  1.
         21    1    1    2  503  504  0.12079717806E+01  0.13029974930E+03 -0.35895185840E+02  0.13515897392E+03  0.00000000000E+00 0.  1.
         21    1    1    2  504  502 -0.12079717806E+01 -0.13029974930E+03 -0.16149583681E+03  0.20750997367E+03  0.00000000000E+00 0.  1.
<mgrwt>
<rscale>  2 0.13030535E+03</rscale>
<asrwt>0</asrwt>
<pdfrwt beam="1">  1       21 0.11175225E-01 0.13030535E+03</pdfrwt>
<pdfrwt beam="2">  1       21 0.41543075E-01 0.13030535E+03</pdfrwt>
<totfact> 0.37588285E+05</totfact>
</mgrwt>
</event>
<event>
 4    1  0.5694171E+003  0.1022560E+03  0.7546771E-02  0.1275622E+00
         21   -1    0    0  504  501  0.00000000000E+00  0.00000000000E+00  0.38050705328E+03  0.38050705328E+03  0.00000000000E+00 0. -1.
         21   -1    0    0  503  502 -0.00000000000E+00 -0.00000000000E+00 -0.97833743847E+02  0.97833743847E+02  0.00000000000E+00 0.  1.
         21    1    1    2  503  501 -0.60196155611E+02 -0.82660241847E+02 -0.61481595029E+02  0.11931588017E+03  0.00000000000E+00 0.  1.
         21    1    1    2  504  502  0.60196155611E+02  0.82660241847E+02  0.34415490446E+03  0.35902491696E+03  0.00000000000E+00 0. -1.
<mgrwt>
<rscale>  2 0.10225602E+03</rscale>
<asrwt>0</asrwt>
<pdfrwt beam="1">  1       21 0.58539546E-01 0.10225602E+03</pdfrwt>
<pdfrwt beam="2">  1       21 0.15051345E-01 0.10225602E+03</pdfrwt>
<totfact> 0.11035561E+05</totfact>
</mgrwt>
</event>
<event>
 4    1  0.5694171E+003  0.2817881E+03  0.7546771E-02  0.1094716E+00
         21   -1    0    0  502  501  0.00000000000E+00  0.00000000000E+00  0.17017631127E+03  0.17017631127E+03  0.00000000000E+00 0.  1.
         21   -1    0    0  504  502 -0.00000000000E+00 -0.00000000000E+00 -0.11444342388E+04  0.11444342388E+04  0.00000000000E+00 0. -1.
         21    1    1    2  503  501  0.28121833361E+03  0.17909785761E+02  0.18734119514E+02  0.28241012521E+03  0.00000000000E+00 0.  1.
         21    1    1    2  504  503 -0.28121833361E+03 -0.17909785761E+02 -0.99299204705E+03  0.10322004249E+04  0.00000000000E+00 0. -1.
<mgrwt>
<rscale>  2 0.28178806E+03</rscale>
<asrwt>0</asrwt>
<pdfrwt beam="1">  1       21 0.26180972E-01 0.28178806E+03</pdfrwt>
<pdfrwt beam="2">  1       21 0.17606680E+00 0.28178806E+03</pdfrwt>
<totfact> 0.24976319E+03</totfact>
</mgrwt>
</event>
<event>
 4    1  0.5694171E+003  0.1117256E+03  0.7546771E-02  0.1257407E+00
         21   -1    0    0  502  501  0.00000000000E+00  0.00000000000E+00  0.10921349319E+02  0.10921349319E+02  0.00000000000E+00 0.  1.
         21   -1    0    0  503  502 -0.00000000000E+00 -0.00000000000E+00 -0.11506911029E+04  0.11506911029E+04  0.00000000000E+00 0.  1.
         21    1    1    2  503  504  0.18424442339E+02  0.11019595489E+03 -0.52226165025E+03  0.53407849599E+03  0.00000000000E+00 0.  1.
         21    1    1    2  504  501 -0.18424442339E+02 -0.11019595489E+03 -0.61750810336E+03  0.62753395626E+03  0.00000000000E+00 0.  1.
<mgrwt>
<rscale>  2 0.11172559E+03</rscale>
<asrwt>0</asrwt>
<pdfrwt beam="1">  1       21 0.16802080E-02 0.11172559E+03</pdfrwt>
<pdfrwt beam="2">  1       21 0.17702936E+00 0.11172559E+03</pdfrwt>
<totfact> 0.32170172E+05</totfact>
</mgrwt>
</event>
<event>
 4    1  0.5694171E+003  0.1161493E+03  0.7546771E-02  0.1249588E+00
         21   -1    0    0  504  501  0.00000000000E+00  0.00000000000E+00  0.11463343732E+02  0.11463343732E+02  0.00000000000E+00 0. -1.
         21   -1    0    0  501  502 -0.00000000000E+00 -0.00000000000E+00 -0.13402753814E+04  0.13402753814E+04  0.00000000000E+00 0.  1.
         21    1    1    2  503  502  0.17217053906E+02  0.11486619083E+03 -0.90041129205E+03  0.90787177706E+03  0.00000000000E+00 0.  1.
         21    1    1    2  504  503 -0.17217053906E+02 -0.11486619083E+03 -0.42840074562E+03  0.44386694807E+03  0.00000000000E+00 0. -1.
<mgrwt>
<rscale>  2 0.11614934E+03</rscale>
<asrwt>0</asrwt>
<pdfrwt beam="1">  1       21 0.17635914E-02 0.11614934E+03</pdfrwt>
<pdfrwt beam="2">  1       21 0.20619620E+00 0.11614934E+03</pdfrwt>
<totfact> 0.19320402E+05</totfact>
</mgrwt>
</event>
<event>
 4    1  0.5694171E+003  0.1405712E+03  0.7546771E-02  0.1212562E+00
         21   -1    0    0  502  501  0.00000000000E+00  0.00000000000E+00  0.77761022333E+02  0.77761022333E+02  0.00000000000E+00 0.  1.
         21   -1    0    0  503  502 -0.00000000000E+00 -0.00000000000E+00 -0.60892165203E+03  0.60892165203E+03  0.00000000000E+00 0.  1.
         21    1    1    2  503  504 -0.81150470668E+02  0.11478178665E+03 -0.52766469748E+03  0.54606802726E+03  0.00000000000E+00 0.  1.
         21    1    1    2  504  501  0.81150470668E+02 -0.11478178665E+03 -0.34959322174E+01  0.14061464710E+03  0.00000000000E+00 0.  1.
<mgrwt>
<rscale>  2 0.14057118E+03</rscale>
<asrwt>0</asrwt>
<pdfrwt beam="1">  1       21 0.11963234E-01 0.14057118E+03</pdfrwt>
<pdfrwt beam="2">  1       21 0.93680252E-01 0.14057118E+03</pdfrwt>
<totfact> 0.57950788E+04</totfact>
</mgrwt>
</event>
<event>
 4    1  0.5694171E+003  0.1061576E+03  0.7546771E-02  0.1267856E+00
         21   -1    0    0  504  501  0.00000000000E+00  0.00000000000E+00  0.39129055929E+03  0.39129055929E+03  0.00000000000E+00 0.  1.
         21   -1    0    0  503  502 -0.00000000000E+00 -0.00000000000E+00 -0.34660866928E+02  0.34660866928E+02  0.00000000000E+00 0.  1.
         21    1    1    2  503  501  0.65475141151E+02  0.83560953595E+02  0.26588715071E+03  0.28629600763E+03  0.00000000000E+00 0.  1.
         21    1    1    2  504  502 -0.65475141151E+02 -0.83560953595E+02  0.90742541650E+02  0.13965541858E+03  0.00000000000E+00 0.  1.
<mgrwt>
<rscale>  2 0.10615756E+03</rscale>
<asrwt>0</asrwt>
<pdfrwt beam="1">  1       21 0.60198544E-01 0.10615756E+03</pdfrwt>
<pdfrwt beam="2">  1       21 0.53324413E-02 0.10615756E+03</pdfrwt>
<totfact> 0.62544271E+05</totfact>
</mgrwt>
</event>
<event>
 4    1  0.5694171E+003  0.1010077E+03  0.7546771E-02  0.1278191E+00
         21   -1    0    0  504  501  0.00000000000E+00  0.00000000000E+00  0.33293574753E+03  0.33293574753E+03  0.00000000000E+00 0. -1.
         21   -1    0    0  503  502 -0.00000000000E+00 -0.00000000000E+00 -0.26814387607E+03  0.26814387607E+03  0.00000000000E+00 0. -1.
         21    1    1    2  503  501 -0.97812570967E+02  0.25204172394E+02 -0.25044976399E+03  0.27005116853E+03  0.00000000000E+00 0. -1.
         21    1    1    2  504  502  0.97812570967E+02 -0.25204172394E+02  0.31524163544E+03  0.33102845506E+03  0.00000000000E+00 0. -1.
<mgrwt>
<rscale>  2 0.10100767E+03</rscale>
<asrwt>0</asrwt>
<pdfrwt beam="1">  1       21 0.51220884E-01 0.10100767E+03</pdfrwt>
<pdfrwt beam="2">  1       21 0.41252904E-01 0.10100767E+03</pdfrwt>
<totfact> 0.21851432E+04</totfact>
</mgrwt>
</event>
<event>
 4    1  0.5694171E+003  0.1036836E+03  0.7546771E-02  0.1272735E+00
         21   -1    0    0  503  501  0.00000000000E+00  0.00000000000E+00  0.43640738755E+03  0.43640738755E+03  0.00000000000E+00 0.  1.
         21   -1    0    0  501  502 -0.00000000000E+00 -0.00000000000E+00 -0.17776491290E+03  0.17776491290E+03  0.00000000000E+00 0. -1.
         21    1    1    2  503  504  0.75926926281E+02  0.70607263353E+02  0.41433722030E+03  0.42711311839E+03  0.00000000000E+00 0.  1.
         21    1    1    2  504  502 -0.75926926281E+02 -0.70607263353E+02 -0.15569474565E+03  0.18705918207E+03  0.00000000000E+00 0. -1.
<mgrwt>
<rscale>  2 0.10368358E+03</rscale>
<asrwt>0</asrwt>
<pdfrwt beam="1">  1       21 0.67139598E-01 0.10368358E+03</pdfrwt>
<pdfrwt beam="2">  1       21 0.27348448E-01 0.10368358E+03</pdfrwt>
<totfact> 0.27435782E+04</totfact>
</mgrwt>
</event>
<event>
 4    1  0.5694171E+003  0.1148824E+03  0.7546771E-02  0.1251786E+00
         21   -1    0    0  503  501  0.00000000000E+00  0.00000000000E+00  0.10973449235E+03  0.10973449235E+03  0.00000000000E+00 0.  1.
         21   -1    0    0  504  502 -0.00000000000E+00 -0.00000000000E+00 -0.13028146158E+04  0.13028146158E+04  0.00000000000E+00 0.  1.
         21    1    1    2  503  502  0.28631242815E+02 -0.11125748096E+03  0.76344661505E+02  0.13793651611E+03  0.00000000000E+00 0.  1.
         21    1    1    2  504  501 -0.28631242815E+02  0.11125748096E+03 -0.12694247850E+04  0.12746125921E+04  0.00000000000E+00 0.  1.
<mgrwt>
<rscale>  2 0.11488244E+03</rscale>
<asrwt>0</asrwt>
<pdfrwt beam="1">  1       21 0.16882230E-01 0.11488244E+03</pdfrwt>
<pdfrwt beam="2">  1       21 0.20043302E+00 0.11488244E+03</pdfrwt>
<totfact> 0.46067197E+03</totfact>
</mgrwt>
</event>
<event>
 4    1  0.5694171E+003  0.2970853E+03  0.7546771E-02  0.1086707E+00
         21   -1    0    0  503  501  0.00000000000E+00  0.00000000000E+00  0.26569411227E+03  0.26569411227E+03  0.00000000000E+00 0. -1.
         21   -1    0    0  504  502 -0.00000000000E+00 -0.00000000000E+00 -0.34831846292E+03  0.34831846292E+03  0.00000000000E+00 0. -1.
         21    1    1    2  503  502 -0.80161887552E+02 -0.28606597207E+03  0.24760102418E+02  0.29811529861E+03  0.00000000000E+00 0. -1.
         21    1    1    2  504  501  0.80161887552E+02  0.28606597207E+03 -0.10738445307E+03  0.31589727658E+03  0.00000000000E+00 0. -1.
<mgrwt>
<rscale>  2 0.29708529E+03</rscale>
<asrwt>0</asrwt>
<pdfrwt beam="1">  1       21 0.40876018E-01 0.29708529E+03</pdfrwt>
<pdfrwt beam="2">  1       21 0.53587455E-01 0.29708529E+03</pdfrwt>
<totfact> 0.18020328E+04</totfact>
</mgrwt>
</event>
<event>
 4    1  0.5694171E+003  0.1189966E+03  0.7546771E-02  0.1244762E+00
         21   -1    0    0  504  501  0.00000000000E+00  0.00000000000E+00  0.39480867987E+02  0.39480867987E+02  0.00000000000E+00 0. -1.
         21   -1    0    0  503  502 -0.00000000000E+00 -0.00000000000E+00 -0.37346382624E+03  0.37346382624E+03  0.00000000000E+00 0. -1.
         21    1    1    2  503  501  0.26537351498E+01 -0.11896698694E+03 -0.12588287595E+03  0.17322437689E+03  0.00000000000E+00 0. -1.
         21    1    1    2  504  502 -0.26537351498E+01  0.11896698694E+03 -0.20810008231E+03  0.23972031734E+03  0.00000000000E+00 0. -1.
<mgrwt>
<rscale>  2 0.11899658E+03</rscale>
<asrwt>0</asrwt>
<pdfrwt beam="1">  1       21 0.60739799E-02 0.11899658E+03</pdfrwt>
<pdfrwt beam="2">  1       21 0.57455971E-01 0.11899658E+03</pdfrwt>
<totfact> 0.55378888E+05</totfact>
</mgrwt>
</event>
<event>
 4    1  0.5694171E+003  0.1199545E+03  0.7546771E-02  0.1243172E+00
         21   -1    0    0  504  501  0.00000000000E+00  0.00000000000E+00  0.32833987240E+03  0.32833987240E+03  0.00000000000E+00 0. -1.
         21   -1    0    0  503  502 -0.00000000000E+00 -0.00000000000E+00 -0.50884388185E+02  0.50884388185E+02  0.00000000000E+00 0. -1.
         21    1    1    2  503  501 -0.58394780596E+02  0.10478132857E+03  0.68096556210E+02  0.13793555809E+03  0.00000000000E+00 0. -1.
         21    1    1    2  504  502  0.58394780596E+02 -0.10478132857E+03  0.20935892800E+03  0.24128870249E+03  0.00000000000E+00 0. -1.
<mgrwt>
<rscale>  2 0.11995448E+03</rscale>
<asrwt>0</asrwt>
<pdfrwt beam="1">  1       21 0.50513825E-01 0.11995448E+03</pdfrwt>
<pdfrwt beam="2">  1       21 0.78283676E-02 0.11995448E+03</pdfrwt>
<totfact> 0.46962436E+05</totfact>
</mgrwt>
</event>
<event>
 4    1  0.5694171E+003  0.1036454E+03  0.7546771E-02  0.1272812E+00
         21   -1    0    0  504  501  0.00000000000E+00  0.00000000000E+00  0.56075003446E+02  0.56075003446E+02  0.00000000000E+00 0. -1.
         21   -1    0    0  503  502 -0.00000000000E+00 -0.00000000000E+00 -0.42288931549E+03  0.42288931549E+03  0.00000000000E+00 0.  1.
         21    1    1    2  503  501 -0.82640065718E+02  0.62553915169E+02 -0.36052582765E+03  0.37512830495E+03  0.00000000000E+00 0.  1.
         21    1    1    2  504  502  0.82640065718E+02 -0.62553915169E+02 -0.62884843860E+01  0.10383601399E+03  0.00000000000E+00 0. -1.
<mgrwt>
<rscale>  2 0.10364542E+03</rscale>
<asrwt>0</asrwt>
<pdfrwt beam="1">  1       21 0.86269233E-02 0.10364542E+03</pdfrwt>
<pdfrwt beam="2">  1       21 0.65059897E-01 0.10364542E+03</pdfrwt>
<totfact> 0.23426249E+05</totfact>
</mgrwt>
</event>
<event>
 4    1  0.5694171E+003  0.1385013E+03  0.7546771E-02  0.1215360E+00
         21   -1    0    0  504  501  0.00000000000E+00  0.00000000000E+00  0.52935033589E+02  0.52935033589E+02  0.00000000000E+00 0.  1.
         21   -1    0    0  503  502 -0.00000000000E+00 -0.00000000000E+00 -0.83936876121E+03  0.83936876121E+03  0.00000000000E+00 0. -1.
         21    1    1    2  503  501  0.12549875644E+02  0.13793150251E+03 -0.56890892321E+02  0.14973033224E+03  0.00000000000E+00 0.  1.
         21    1    1    2  504  502 -0.12549875644E+02 -0.13793150251E+03 -0.72954283530E+03  0.74257346256E+03  0.00000000000E+00 0. -1.
<mgrwt>
<rscale>  2 0.13850126E+03</rscale>
<asrwt>0</asrwt>
<pdfrwt beam="1">  1       21 0.81438525E-02 0.13850126E+03</pdfrwt>
<pdfrwt beam="2">  1       21 0.12913364E+00 0.13850126E+03</pdfrwt>
<totfact> 0.52692353E+04</totfact>
</mgrwt>
</event>
<event>
 4    1  0.5694171E+003  0.1050146E+03  0.7546771E-02  0.1270091E+00
         21   -1    0    0  503  501  0.00000000000E+00  0.00000000000E+00  0.10602493715E+03  0.10602493715E+03  0.00000000000E+00 0.  1.
         21   -1    0    0  501  502 -0.00000000000E+00 -0.00000000000E+00 -0.20477259581E+03  0.20477259581E+03  0.00000000000E+00 0. -1.
         21    1    1    2  503  504  0.10460671569E+03 -0.92467214224E+01  0.59632803797E+02  0.12076480495E+03  0.00000000000E+00 0.  1.
         21    1    1    2  504  502 -0.10460671569E+03  0.92467214224E+01 -0.15838046247E+03  0.19003272801E+03  0.00000000000E+00 0. -1.
<mgrwt>
<rscale>  2 0.10501460E+03</rscale>
<asrwt>0</asrwt>
<pdfrwt beam="1">  1       21 0.16311529E-01 0.10501460E+03</pdfrwt>
<pdfrwt beam="2">  1       21 0.31503476E-01 0.10501460E+03</pdfrwt>
<totfact> 0.33125975E+05</totfact>
</mgrwt>
</event>
<event>
 4    1  0.5694171E+003  0.1437015E+03  0.7546771E-02  0.1208433E+00
         21   -1    0    0  503  501  0.00000000000E+00  0.00000000000E+00  0.43874749145E+02  0.43874749145E+02  0.00000000000E+00 0. -1.
         21   -1    0    0  501  502 -0.00000000000E+00 -0.00000000000E+00 -0.69897153264E+03  0.69897153264E+03  0.00000000000E+00 0. -1.
         21    1    1    2  503  504 -0.47367058357E+02 -0.13567051626E+03 -0.11527169542E+03  0.18422185257E+03  0.00000000000E+00 0. -1.
         21    1    1    2  504  502  0.47367058357E+02  0.13567051626E+03 -0.53982508807E+03  0.55862442921E+03  0.00000000000E+00 0. -1.
<mgrwt>
<rscale>  2 0.14370152E+03</rscale>
<asrwt>0</asrwt>
<pdfrwt beam="1">  1       21 0.67499617E-02 0.14370152E+03</pdfrwt>
<pdfrwt beam="2">  1       21 0.10753408E+00 0.14370152E+03</pdfrwt>
<totfact> 0.11337440E+05</totfact>
</mgrwt>
</event>
<event>
 4    1  0.5694171E+003  0.1119498E+03  0.7546771E-02  0.1257001E+00
         21   -1    0    0  503  501  0.00000000000E+00  0.00000000000E+00  0.50548910586E+03  0.50548910586E+03  0.00000000000E+00 0.  1.
         21   -1    0    0  504  502 -0.00000000000E+00 -0.00000000000E+00 -0.13511774357E+03  0.13511774357E+03  0.00000000000E+00 0.  1.
         21    1    1    2  503  502  0.75210352286E+02  0.82922585430E+02  0.47461413672E+03  0.48763852497E+03  0.00000000000E+00 0.  1.
         21    1    1    2  504  501 -0.75210352286E+02 -0.82922585430E+02 -0.10424277443E+03  0.15296832445E+03  0.00000000000E+00 0.  1.
<mgrwt>
<rscale>  2 0.11194978E+03</rscale>
<asrwt>0</asrwt>
<pdfrwt beam="1">  1       21 0.77767554E-01 0.11194978E+03</pdfrwt>
<pdfrwt beam="2">  1       21 0.20787345E-01 0.11194978E+03</pdfrwt>
<totfact> 0.33058101E+04</totfact>
</mgrwt>
</event>
<event>
 4    1  0.5694171E+003  0.1251642E+03  0.7546771E-02  0.1234813E+00
         21   -1    0    0  504  501  0.00000000000E+00  0.00000000000E+00  0.50031759149E+03  0.50031759149E+03  0.00000000000E+00 0.  1.
         21   -1    0    0  503  502 -0.00000000000E+00 -0.00000000000E+00 -0.87925180139E+02  0.87925180139E+02  0.00000000000E+00 0.  1.
         21    1    1    2  503  501  0.11035626860E+03 -0.59055600017E+02  0.44220478128E+03  0.45957713009E+03  0.00000000000E+00 0.  1.
         21    1    1    2  504  502 -0.11035626860E+03  0.59055600017E+02 -0.29812369925E+02  0.12866564154E+03  0.00000000000E+00 0.  1.
<mgrwt>
<rscale>  2 0.12516417E+03</rscale>
<asrwt>0</asrwt>
<pdfrwt beam="1">  1       21 0.76971935E-01 0.12516417E+03</pdfrwt>
<pdfrwt beam="2">  1       21 0.13526951E-01 0.12516417E+03</pdfrwt>
<totfact> 0.73198817E+04</totfact>
</mgrwt>
</event>
<event>
 4    1  0.5694171E+003  0.1592355E+03  0.7546771E-02  0.1189563E+00
         21   -1    0    0  503  501  0.00000000000E+00  0.00000000000E+00  0.43187350310E+03  0.43187350310E+03  0.00000000000E+00 0. -1.
         21   -1    0    0  504  502 -0.00000000000E+00 -0.00000000000E+00 -0.27695571386E+03  0.27695571386E+03  0.00000000000E+00 0.  1.
         21    1    1    2  503  502  0.15450861810E+03  0.38509974700E+02 -0.23715495878E+03  0.28565434653E+03  0.00000000000E+00 0.  1.
         21    1    1    2  504  501 -0.15450861810E+03 -0.38509974700E+02  0.39207274802E+03  0.42317487042E+03  0.00000000000E+00 0. -1.
<mgrwt>
<rscale>  2 0.15923546E+03</rscale>
<asrwt>0</asrwt>
<pdfrwt beam="1">  1       21 0.66442078E-01 0.15923546E+03</pdfrwt>
<pdfrwt beam="2">  1       21 0.42608571E-01 0.15923546E+03</pdfrwt>
<totfact> 0.11274934E+04</totfact>
</mgrwt>
</event>
<event>
 4    1  0.5694171E+003  0.1231273E+03  0.7546771E-02  0.1238025E+00
         21   -1    0    0  504  501  0.00000000000E+00  0.00000000000E+00  0.19148511589E+02  0.19148511589E+02  0.00000000000E+00 0. -1.
         21   -1    0    0  503  502 -0.00000000000E+00 -0.00000000000E+00 -0.90049402308E+03  0.90049402308E+03  0.00000000000E+00 0.  1.
         21    1    1    2  503  501  0.71217459130E+02  0.10044100715E+03 -0.60048302550E+03  0.61297649736E+03  0.00000000000E+00 0.  1.
         21    1    1    2  504  502 -0.71217459130E+02 -0.10044100715E+03 -0.28086248600E+03  0.30666603731E+03  0.00000000000E+00 0. -1.
<mgrwt>
<rscale>  2 0.12312726E+03</rscale>
<asrwt>0</asrwt>
<pdfrwt beam="1">  1       21 0.29459250E-02 0.12312726E+03</pdfrwt>
<pdfrwt beam="2">  1       21 0.13853753E+00 0.12312726E+03</pdfrwt>
<totfact> 0.24564555E+05</totfact>
</mgrwt>
</event>
<event>
 4    1  0.5694171E+003  0.1166757E+03  0.7546771E-02  0.1248684E+00
         21   -1    0    0  504  501  0.00000000000E+00  0.00000000000E+00  0.60661862083E+02  0.60661862083E+02  0.00000000000E+00 0. -1.
         21   -1    0    0  503  502 -0.00000000000E+00 -0.00000000000E+00 -0.22819078751E+03  0.22819078751E+03  0.00000000000E+00 0. -1.
         21    1    1    2  503  501 -0.11256556507E+03 -0.30695446491E+02 -0.10235126692E+03  0.15520631016E+03  0.00000000000E+00 0. -1.
         21    1    1    2  504  502  0.11256556507E+03  0.30695446491E+02 -0.65177658511E+02  0.13364633943E+03  0.00000000000E+00 0. -1.
<mgrwt>
<rscale>  2 0.11667569E+03</rscale>
<asrwt>0</asrwt>
<pdfrwt beam="1">  1       21 0.93325941E-02 0.11667569E+03</pdfrwt>
<pdfrwt beam="2">  1       21 0.35106275E-01 0.11667569E+03</pdfrwt>
<totfact> 0.72017655E+05</totfact>
</mgrwt>
</event>
<event>
 4    1  0.5694171E+003  0.1030184E+03  0.7546771E-02  0.1274074E+00
         21   -1    0    0  503  501  0.00000000000E+00  0.00000000000E+00  0.13665396533E+03  0.13665396533E+03  0.00000000000E+00 0. -1.
         21   -1    0    0  504  502 -0.00000000000E+00 -0.00000000000E+00 -0.82447025389E+02  0.82447025389E+02  0.00000000000E+00 0. -1.
         21    1    1    2  503  502 -0.78832469451E+02  0.66319121263E+02  0.71094235872E+00  0.10302082083E+03  0.00000000000E+00 0. -1.
         21    1    1    2  504  501  0.78832469451E+02 -0.66319121263E+02  0.53495997583E+02  0.11608016989E+03  0.00000000000E+00 0. -1.
<mgrwt>
<rscale>  2 0.10301837E+03</rscale>
<asrwt>0</asrwt>
<pdfrwt beam="1">  1       21 0.21023687E-01 0.10301837E+03</pdfrwt>
<pdfrwt beam="2">  1       21 0.12684158E-01 0.10301837E+03</pdfrwt>
<totfact> 0.11130560E+06</totfact>
</mgrwt>
</event>
<event>
 4    1  0.5694171E+003  0.1059408E+03  0.7546771E-02  0.1268277E+00
         21   -1    0    0  504  501  0.00000000000E+00  0.00000000000E+00  0.21142303579E+02  0.21142303579E+02  0.00000000000E+00 0.  1.
         21   -1    0    0  503  502 -0.00000000000E+00 -0.00000000000E+00 -0.71467879299E+03  0.71467879299E+03  0.00000000000E+00 0.  1.
         21    1    1    2  503  501  0.39014407608E+02 -0.98495360162E+02 -0.53335884153E+03  0.54377855218E+03  0.00000000000E+00 0.  1.
         21    1    1    2  504  502 -0.39014407608E+02  0.98495360162E+02 -0.16017764788E+03  0.19204254439E+03  0.00000000000E+00 0.  1.
<mgrwt>
<rscale>  2 0.10594083E+03</rscale>
<asrwt>0</asrwt>
<pdfrwt beam="1">  1       21 0.32526621E-02 0.10594083E+03</pdfrwt>
<pdfrwt beam="2">  1       21 0.10995058E+00 0.10594083E+03</pdfrwt>
<totfact> 0.36940420E+05</totfact>
</mgrwt>
</event>
<event>
 4    1  0.5694171E+003  0.1720700E+03  0.7546771E-02  0.1175706E+00
         21   -1    0    0  503  501  0.00000000000E+00  0.00000000000E+00  0.29908403771E+04  0.29908403771E+04  0.00000000000E+00 0. -1.
         21   -1    0    0  504  502 -0.00000000000E+00 -0.00000000000E+00 -0.22384861377E+02  0.22384861377E+02  0.00000000000E+00 0.  1.
         21    1    1    2  503  502 -0.15999993256E+03 -0.63309661224E+02  0.26094113751E+04  0.26150785487E+04  0.00000000000E+00 0. -1.
         21    1    1    2  504  501  0.15999993256E+03  0.63309661224E+02  0.35904414060E+03  0.39814668970E+03  0.00000000000E+00 0.  1.
<mgrwt>
<rscale>  2 0.17207002E+03</rscale>
<asrwt>0</asrwt>
<pdfrwt beam="1">  1       21 0.46012897E+00 0.17207002E+03</pdfrwt>
<pdfrwt beam="2">  1       21 0.34438272E-02 0.17207002E+03</pdfrwt>
<totfact> 0.18533996E+03</totfact>
</mgrwt>
</event>
<event>
 4    1  0.5694171E+003  0.1081908E+03  0.7546771E-02  0.1263957E+00
         21   -1    0    0  503  501  0.00000000000E+00  0.00000000000E+00  0.36966276646E+02  0.36966276646E+02  0.00000000000E+00 0.  1.
         21   -1    0    0  504  502 -0.00000000000E+00 -0.00000000000E+00 -0.67107735242E+03  0.67107735242E+03  0.00000000000E+00 0.  1.
         21    1    1    2  503  502 -0.10176830958E+03 -0.36721274089E+02 -0.59773472263E+02  0.12360464713E+03  0.00000000000E+00 0.  1.
         21    1    1    2  504  501  0.10176830958E+03  0.36721274089E+02 -0.57433760351E+03  0.58443898194E+03  0.00000000000E+00 0.  1.
<mgrwt>
<rscale>  2 0.10819076E+03</rscale>
<asrwt>0</asrwt>
<pdfrwt beam="1">  1       21 0.56871196E-02 0.10819076E+03</pdfrwt>
<pdfrwt beam="2">  1       21 0.10324267E+00 0.10819076E+03</pdfrwt>
<totfact> 0.16943292E+05</totfact>
</mgrwt>
</event>
<event>
 4    1  0.5694171E+003  0.1216565E+03  0.7546771E-02  0.1240389E+00
         21   -1    0    0  503  501  0.00000000000E+00  0.00000000000E+00  0.11006758172E+04  0.11006758172E+04  0.00000000000E+00 0. -1.
         21   -1    0    0  504  502 -0.00000000000E+00 -0.00000000000E+00 -0.13599589852E+02  0.13599589852E+02  0.00000000000E+00 0. -1.
         21    1    1    2  503  502  0.92733086886E+02 -0.78745595860E+02  0.60263975121E+03  0.61479668510E+03  0.00000000000E+00 0. -1.
         21    1    1    2  504  501 -0.92733086886E+02  0.78745595860E+02  0.48443647616E+03  0.49947872197E+03  0.00000000000E+00 0. -1.
<mgrwt>
<rscale>  2 0.12165646E+03</rscale>
<asrwt>0</asrwt>
<pdfrwt beam="1">  1       21 0.16933467E+00 0.12165646E+03</pdfrwt>
<pdfrwt beam="2">  1       21 0.20922455E-02 0.12165646E+03</pdfrwt>
<totfact> 0.25402415E+05</totfact>
</mgrwt>
</event>
<event>
 4    1  0.5694171E+003  0.1014962E+03  0.7546771E-02  0.1277181E+00
         21   -1    0    0  503  501  0.00000000000E+00  0.00000000000E+00  0.28667437120E+03  0.28667437120E+03  0.00000000000E+00 0. -1.
         21   -1    0    0  504  502 -0.00000000000E+00 -0.00000000000E+00 -0.20971445482E+03  0.20971445482E+03  0.00000000000E+00 0. -1.
         21    1    1    2  503  502 -0.10119712208E+03 -0.77865505336E+01  0.26441193998E+03  0.28322281316E+03  0.00000000000E+00 0. -1.
         21    1    1    2  504  501  0.10119712208E+03  0.77865505336E+01 -0.18745202360E+03  0.21316601286E+03  0.00000000000E+00 0. -1.
<mgrwt>
<rscale>  2 0.10149625E+03</rscale>
<asrwt>0</asrwt>
<pdfrwt beam="1">  1       21 0.44103749E-01 0.10149625E+03</pdfrwt>
<pdfrwt beam="2">  1       21 0.32263762E-01 0.10149625E+03</pdfrwt>
<totfact> 0.47958413E+04</totfact>
</mgrwt>
</event>
<event>
 4    1  0.5694171E+003  0.1491512E+03  0.7546771E-02  0.1201520E+00
         21   -1    0    0  504  501  0.00000000000E+00  0.00000000000E+00  0.44577200927E+02  0.44577200927E+02  0.00000000000E+00 0. -1.
         21   -1    0    0  501  502 -0.00000000000E+00 -0.00000000000E+00 -0.57643174509E+03  0.57643174509E+03  0.00000000000E+00 0. -1.
         21    1    1    2  503  502 -0.70574339440E+02  0.13139766764E+03 -0.37969621703E+03  0.40794031631E+03  0.00000000000E+00 0. -1.
         21    1    1    2  504  503  0.70574339440E+02 -0.13139766764E+03 -0.15215832714E+03  0.21306862971E+03  0.00000000000E+00 0. -1.
<mgrwt>
<rscale>  2 0.14915121E+03</rscale>
<asrwt>0</asrwt>
<pdfrwt beam="1">  1       21 0.68580309E-02 0.14915121E+03</pdfrwt>
<pdfrwt beam="2">  1       21 0.88681808E-01 0.14915121E+03</pdfrwt>
<totfact> 0.17284307E+05</totfact>
</mgrwt>
</event>
<event>
 4    1  0.5694171E+003  0.1002590E+03  0.7546771E-02  0.1279752E+00
         21   -1    0    0  504  501  0.00000000000E+00  0.00000000000E+00  0.17321372088E+03  0.17321372088E+03  0.00000000000E+00 0. -1.
         21   -1    0    0  503  502 -0.00000000000E+00 -0.00000000000E+00 -0.20215543025E+03  0.20215543025E+03  0.00000000000E+00 0. -1.
         21    1    1    2  503  501 -0.58981497525E+02 -0.81074325591E+02 -0.17294332468E+03  0.19990311871E+03  0.00000000000E+00 0. -1.
         21    1    1    2  504  502  0.58981497525E+02  0.81074325591E+02  0.14400161531E+03  0.17546603242E+03  0.00000000000E+00 0. -1.
<mgrwt>
<rscale>  2 0.10025898E+03</rscale>
<asrwt>0</asrwt>
<pdfrwt beam="1">  1       21 0.26648265E-01 0.10025898E+03</pdfrwt>
<pdfrwt beam="2">  1       21 0.31100835E-01 0.10025898E+03</pdfrwt>
<totfact> 0.13743541E+05</totfact>
</mgrwt>
</event>
<event>
 4    1  0.5694171E+003  0.1163173E+03  0.7546771E-02  0.1249299E+00
         21   -1    0    0  503  501  0.00000000000E+00  0.00000000000E+00  0.13826644278E+03  0.13826644278E+03  0.00000000000E+00 0.  1.
         21   -1    0    0  504  502 -0.00000000000E+00 -0.00000000000E+00 -0.10672269437E+04  0.10672269437E+04  0.00000000000E+00 0. -1.
         21    1    1    2  503  502  0.66922212571E+02 -0.95137443216E+02 -0.10389302471E+04  0.10454213380E+04  0.00000000000E+00 0. -1.
         21    1    1    2  504  501 -0.66922212571E+02  0.95137443216E+02  0.10996974616E+03  0.16007204849E+03  0.00000000000E+00 0.  1.
<mgrwt>
<rscale>  2 0.11631731E+03</rscale>
<asrwt>0</asrwt>
<pdfrwt beam="1">  1       21 0.21271760E-01 0.11631731E+03</pdfrwt>
<pdfrwt beam="2">  1       21 0.16418876E+00 0.11631731E+03</pdfrwt>
<totfact> 0.52203692E+03</totfact>
</mgrwt>
</event>
<event>
 4    1  0.5694171E+003  0.1206588E+03  0.7546771E-02  0.1242014E+00
         21   -1    0    0  504  501  0.00000000000E+00  0.00000000000E+00  0.28284988180E+03  0.28284988180E+03  0.00000000000E+00 0. -1.
         21   -1    0    0  501  502 -0.00000000000E+00 -0.00000000000E+00 -0.55699209024E+02  0.55699209024E+02  0.00000000000E+00 0. -1.
         21    1    1    2  503  502  0.11727554693E+03 -0.28372387860E+02  0.66936361988E+02  0.13798196569E+03  0.00000000000E+00 0. -1.
         21    1    1    2  504  503 -0.11727554693E+03  0.28372387860E+02  0.16021431079E+03  0.20056712513E+03  0.00000000000E+00 0. -1.
<mgrwt>
<rscale>  2 0.12065880E+03</rscale>
<asrwt>0</asrwt>
<pdfrwt beam="1">  1       21 0.43515366E-01 0.12065880E+03</pdfrwt>
<pdfrwt beam="2">  1       21 0.85691092E-02 0.12065880E+03</pdfrwt>
<totfact> 0.54473025E+05</totfact>
</mgrwt>
</event>
<event>
 4    1  0.5694171E+003  0.1313832E+03  0.7546771E-02  0.1225418E+00
         21   -1    0    0  502  501  0.00000000000E+00  0.00000000000E+00  0.76723077489E+03  0.76723077489E+03  0.00000000000E+00 0.  1.
         21   -1    0    0  504  502 -0.00000000000E+00 -0.00000000000E+00 -0.45335023532E+02  0.45335023532E+02  0.00000000000E+00 0. -1.
         21    1    1    2  503  501  0.54142562531E+02  0.11970853186E+03  0.64930223092E+03  0.66246127189E+03  0.00000000000E+00 0.  1.
         21    1    1    2  504  503 -0.54142562531E+02 -0.11970853186E+03  0.72593520447E+02  0.15010452654E+03  0.00000000000E+00 0. -1.
<mgrwt>
<rscale>  2 0.13138322E+03</rscale>
<asrwt>0</asrwt>
<pdfrwt beam="1">  1       21 0.11803549E+00 0.13138322E+03</pdfrwt>
<pdfrwt beam="2">  1       21 0.69746196E-02 0.13138322E+03</pdfrwt>
<totfact> 0.86171764E+04</totfact>
</mgrwt>
</event>
<event>
 4    1  0.5694171E+003  0.1355700E+03  0.7546771E-02  0.1219417E+00
         21   -1    0    0  504  501  0.00000000000E+00  0.00000000000E+00  0.10970312027E+03  0.10970312027E+03  0.00000000000E+00 0. -1.
         21   -1    0    0  503  502 -0.00000000000E+00 -0.00000000000E+00 -0.17410820166E+03  0.17410820166E+03  0.00000000000E+00 0. -1.
         21    1    1    2  503  501 -0.21085454040E+02  0.13392027289E+03 -0.46322491986E+01  0.13564915627E+03  0.00000000000E+00 0. -1.
         21    1    1    2  504  502  0.21085454040E+02 -0.13392027289E+03 -0.59772832191E+02  0.14816216566E+03  0.00000000000E+00 0. -1.
<mgrwt>
<rscale>  2 0.13557004E+03</rscale>
<asrwt>0</asrwt>
<pdfrwt beam="1">  1       21 0.16877403E-01 0.13557004E+03</pdfrwt>
<pdfrwt beam="2">  1       21 0.26785877E-01 0.13557004E+03</pdfrwt>
<totfact> 0.42334375E+05</totfact>
</mgrwt>
</event>
<event>
 4    1  0.5694171E+003  0.1158915E+03  0.7546771E-02  0.1250033E+00
         21   -1    0    0  503  501  0.00000000000E+00  0.00000000000E+00  0.13814149643E+04  0.13814149643E+04  0.00000000000E+00 0.  1.
         21   -1    0    0  501  502 -0.00000000000E+00 -0.00000000000E+00 -0.10479350580E+02  0.10479350580E+02  0.00000000000E+00 0.  1.
         21    1    1    2  503  504  0.97809498549E+02  0.62162166926E+02  0.87249672077E+03  0.88015984954E+03  0.00000000000E+00 0.  1.
         21    1    1    2  504  502 -0.97809498549E+02 -0.62162166926E+02  0.49843889300E+03  0.51173446538E+03  0.00000000000E+00 0.  1.
<mgrwt>
<rscale>  2 0.11589147E+03</rscale>
<asrwt>0</asrwt>
<pdfrwt beam="1">  1       21 0.21252523E+00 0.11589147E+03</pdfrwt>
<pdfrwt beam="2">  1       21 0.16122089E-02 0.11589147E+03</pdfrwt>
<totfact> 0.20408741E+05</totfact>
</mgrwt>
</event>
<event>
 4    1  0.5694171E+003  0.1013596E+03  0.7546771E-02  0.1277463E+00
         21   -1    0    0  503  501  0.00000000000E+00  0.00000000000E+00  0.15251433448E+03  0.15251433448E+03  0.00000000000E+00 0.  1.
         21   -1    0    0  504  502 -0.00000000000E+00 -0.00000000000E+00 -0.84473787637E+02  0.84473787637E+02  0.00000000000E+00 0.  1.
         21    1    1    2  503  502  0.52474667569E+02 -0.86719009543E+02 -0.19310073470E+02  0.10318263560E+03  0.00000000000E+00 0.  1.
         21    1    1    2  504  501 -0.52474667569E+02  0.86719009543E+02  0.87350620317E+02  0.13380548652E+03  0.00000000000E+00 0.  1.
<mgrwt>
<rscale>  2 0.10135964E+03</rscale>
<asrwt>0</asrwt>
<pdfrwt beam="1">  1       21 0.23463744E-01 0.10135964E+03</pdfrwt>
<pdfrwt beam="2">  1       21 0.12995967E-01 0.10135964E+03</pdfrwt>
<totfact> 0.86946205E+05</totfact>
</mgrwt>
</event>
<event>
 4    1  0.5694171E+003  0.1128250E+03  0.7546771E-02  0.1255426E+00
         21   -1    0    0  504  501  0.00000000000E+00  0.00000000000E+00  0.50885216147E+02  0.50885216147E+02  0.00000000000E+00 0.  1.
         21   -1    0    0  503  502 -0.00000000000E+00 -0.00000000000E+00 -0.27180891963E+03  0.27180891963E+03  0.00000000000E+00 0.  1.
         21    1    1    2  503  501  0.92470272401E+02  0.64643171983E+02 -0.64927578264E+02  0.13017327445E+03  0.00000000000E+00 0.  1.
         21    1    1    2  504  502 -0.92470272401E+02 -0.64643171983E+02 -0.15599612521E+03  0.19252086132E+03  0.00000000000E+00 0.  1.
<mgrwt>
<rscale>  2 0.11282505E+03</rscale>
<asrwt>0</asrwt>
<pdfrwt beam="1">  1       21 0.78284947E-02 0.11282505E+03</pdfrwt>
<pdfrwt beam="2">  1       21 0.41816757E-01 0.11282505E+03</pdfrwt>
<totfact> 0.68973732E+05</totfact>
</mgrwt>
</event>
<event>
 4    1  0.5694171E+003  0.1199093E+03  0.7546771E-02  0.1243247E+00
         21   -1    0    0  503  501  0.00000000000E+00  0.00000000000E+00  0.35323590009E+03  0.35323590009E+03  0.00000000000E+00 0. -1.
         21   -1    0    0  504  502 -0.00000000000E+00 -0.00000000000E+00 -0.18837933938E+03  0.18837933938E+03  0.00000000000E+00 0.  1.
         21    1    1    2  503  502 -0.25663101916E+02  0.11713085744E+03 -0.15734331932E+03  0.19782606679E+03  0.00000000000E+00 0.  1.
         21    1    1    2  504  501  0.25663101916E+02 -0.11713085744E+03  0.32219988003E+03  0.34378917268E+03  0.00000000000E+00 0. -1.
<mgrwt>
<rscale>  2 0.11990927E+03</rscale>
<asrwt>0</asrwt>
<pdfrwt beam="1">  1       21 0.54343985E-01 0.11990927E+03</pdfrwt>
<pdfrwt beam="2">  1       21 0.28981437E-01 0.11990927E+03</pdfrwt>
<totfact> 0.37972802E+04</totfact>
</mgrwt>
</event>
<event>
 4    1  0.5694171E+003  0.1158258E+03  0.7546771E-02  0.1250146E+00
         21   -1    0    0  503  501  0.00000000000E+00  0.00000000000E+00  0.51777240071E+03  0.51777240071E+03  0.00000000000E+00 0.  1.
         21   -1    0    0  504  502 -0.00000000000E+00 -0.00000000000E+00 -0.47726819254E+02  0.47726819254E+02  0.00000000000E+00 0. -1.
         21    1    1    2  503  502 -0.81274390578E+02  0.82523258743E+02  0.43855339457E+02  0.12385033547E+03  0.00000000000E+00 0. -1.
         21    1    1    2  504  501  0.81274390578E+02 -0.82523258743E+02  0.42619024200E+03  0.44164888449E+03  0.00000000000E+00 0.  1.
<mgrwt>
<rscale>  2 0.11582580E+03</rscale>
<asrwt>0</asrwt>
<pdfrwt beam="1">  1       21 0.79657289E-01 0.11582580E+03</pdfrwt>
<pdfrwt beam="2">  1       21 0.73425879E-02 0.11582580E+03</pdfrwt>
<totfact> 0.19795545E+05</totfact>
</mgrwt>
</event>
<event>
 4    1  0.5694171E+003  0.1128236E+03  0.7546771E-02  0.1255429E+00
         21   -1    0    0  504  501  0.00000000000E+00  0.00000000000E+00  0.10176699879E+04  0.10176699879E+04  0.00000000000E+00 0. -1.
         21   -1    0    0  503  502 -0.00000000000E+00 -0.00000000000E+00 -0.15479366236E+02  0.15479366236E+02  0.00000000000E+00 0. -1.
         21    1    1    2  503  501 -0.11225555775E+03 -0.11307771887E+02  0.72741542091E+03  0.73611301478E+03  0.00000000000E+00 0. -1.
         21    1    1    2  504  502  0.11225555775E+03  0.11307771887E+02  0.27477520080E+03  0.29703633941E+03  0.00000000000E+00 0. -1.
<mgrwt>
<rscale>  2 0.11282365E+03</rscale>
<asrwt>0</asrwt>
<pdfrwt beam="1">  1       21 0.15656456E+00 0.11282365E+03</pdfrwt>
<pdfrwt beam="2">  1       21 0.23814418E-02 0.11282365E+03</pdfrwt>
<totfact> 0.25468197E+05</totfact>
</mgrwt>
</event>
<event>
 4    1  0.5694171E+003  0.1051904E+03  0.7546771E-02  0.1269745E+00
         21   -1    0    0  504  501  0.00000000000E+00  0.00000000000E+00  0.23808947791E+02  0.23808947791E+02  0.00000000000E+00 0.  1.
         21   -1    0    0  503  502 -0.00000000000E+00 -0.00000000000E+00 -0.48103783361E+03  0.48103783361E+03  0.00000000000E+00 0.  1.
         21    1    1    2  503  501  0.99681174701E+02  0.33595739380E+02 -0.27507480500E+03  0.29450154268E+03  0.00000000000E+00 0.  1.
         21    1    1    2  504  502 -0.99681174701E+02 -0.33595739380E+02 -0.18215408082E+03  0.21034523873E+03  0.00000000000E+00 0.  1.
<mgrwt>
<rscale>  2 0.10519035E+03</rscale>
<asrwt>0</asrwt>
<pdfrwt beam="1">  1       21 0.36629150E-02 0.10519035E+03</pdfrwt>
<pdfrwt beam="2">  1       21 0.74005820E-01 0.10519035E+03</pdfrwt>
<totfact> 0.74868513E+05</totfact>
</mgrwt>
</event>
<event>
 4    1  0.5694171E+003  0.1176714E+03  0.7546771E-02  0.1246989E+00
         21   -1    0    0  503  501  0.00000000000E+00  0.00000000000E+00  0.19436834905E+03  0.19436834905E+03  0.00000000000E+00 0. -1.
         21   -1    0    0  504  502 -0.00000000000E+00 -0.00000000000E+00 -0.72111124739E+02  0.72111124739E+02  0.00000000000E+00 0.  1.
         21    1    1    2  503  502  0.77835076765E+02 -0.88251120728E+02  0.75783502075E+02  0.13996320471E+03  0.00000000000E+00 0. -1.
         21    1    1    2  504  501 -0.77835076765E+02  0.88251120728E+02  0.46473722240E+02  0.12651626909E+03  0.00000000000E+00 0.  1.
<mgrwt>
<rscale>  2 0.11767140E+03</rscale>
<asrwt>0</asrwt>
<pdfrwt beam="1">  1       21 0.29902823E-01 0.11767140E+03</pdfrwt>
<pdfrwt beam="2">  1       21 0.11094019E-01 0.11767140E+03</pdfrwt>
<totfact> 0.72695889E+05</totfact>
</mgrwt>
</event>
<event>
 4    1  0.5694171E+003  0.1116027E+03  0.7546771E-02  0.1257630E+00
         21   -1    0    0  502  501  0.00000000000E+00  0.00000000000E+00  0.12450414376E+02  0.12450414376E+02  0.00000000000E+00 0.  1.
         21   -1    0    0  504  502 -0.00000000000E+00 -0.00000000000E+00 -0.20900698439E+04  0.20900698439E+04  0.00000000000E+00 0.  1.
         21    1    1    2  503  501  0.10600001117E+03  0.34916419199E+02 -0.27974110056E+03  0.30118141052E+03  0.00000000000E+00 0.  1.
         21    1    1    2  504  503 -0.10600001117E+03 -0.34916419199E+02 -0.17978783290E+04  0.18013388478E+04  0.00000000000E+00 0.  1.
<mgrwt>
<rscale>  2 0.11160268E+03</rscale>
<asrwt>0</asrwt>
<pdfrwt beam="1">  1       21 0.19154472E-02 0.11160268E+03</pdfrwt>
<pdfrwt beam="2">  1       21 0.32154939E+00 0.11160268E+03</pdfrwt>
<totfact> 0.37351893E+04</totfact>
</mgrwt>
</event>
<event>
 4    1  0.5694171E+003  0.1041731E+03  0.7546771E-02  0.1271757E+00
         21   -1    0    0  503  501  0.00000000000E+00  0.00000000000E+00  0.43236452781E+03  0.43236452781E+03  0.00000000000E+00 0. -1.
         21   -1    0    0  504  502 -0.00000000000E+00 -0.00000000000E+00 -0.25261951802E+02  0.25261951802E+02  0.00000000000E+00 0. -1.
         21    1    1    2  503  502  0.66416156555E+02  0.80255412578E+02  0.18518980795E+03  0.21247894500E+03  0.00000000000E+00 0. -1.
         21    1    1    2  504  501 -0.66416156555E+02 -0.80255412578E+02  0.22191276806E+03  0.24514753461E+03  0.00000000000E+00 0. -1.
<mgrwt>
<rscale>  2 0.10417311E+03</rscale>
<asrwt>0</asrwt>
<pdfrwt beam="1">  1       21 0.66517614E-01 0.10417311E+03</pdfrwt>
<pdfrwt beam="2">  1       21 0.38864544E-02 0.10417311E+03</pdfrwt>
<totfact> 0.85568965E+05</totfact>
</mgrwt>
</event>
<event>
 4    1  0.5694171E+003  0.1533423E+03  0.7546771E-02  0.1196425E+00
         21   -1    0    0  504  501  0.00000000000E+00  0.00000000000E+00  0.86495740996E+02  0.86495740996E+02  0.00000000000E+00 0.  1.
         21   -1    0    0  503  502 -0.00000000000E+00 -0.00000000000E+00 -0.28641884490E+03  0.28641884490E+03  0.00000000000E+00 0. -1.
         21    1    1    2  503  501  0.80852159450E+02 -0.13029501206E+03 -0.14201407518E+03  0.20900205598E+03  0.00000000000E+00 0. -1.
         21    1    1    2  504  502 -0.80852159450E+02  0.13029501206E+03 -0.57909028724E+02  0.16391252991E+03  0.00000000000E+00 0.  1.
<mgrwt>
<rscale>  2 0.15334230E+03</rscale>
<asrwt>0</asrwt>
<pdfrwt beam="1">  1       21 0.13307037E-01 0.15334230E+03</pdfrwt>
<pdfrwt beam="2">  1       21 0.44064438E-01 0.15334230E+03</pdfrwt>
<totfact> 0.24359494E+05</totfact>
</mgrwt>
</event>
<event>
 4    1  0.5694171E+003  0.1435627E+03  0.7546771E-02  0.1208614E+00
         21   -1    0    0  504  501  0.00000000000E+00  0.00000000000E+00  0.44970583957E+03  0.44970583957E+03  0.00000000000E+00 0.  1.
         21   -1    0    0  503  502 -0.00000000000E+00 -0.00000000000E+00 -0.12469249800E+03  0.12469249800E+03  0.00000000000E+00 0.  1.
         21    1    1    2  503  501  0.14102656867E+03 -0.26865441572E+02  0.39090708882E+03  0.41643558579E+03  0.00000000000E+00 0.  1.
         21    1    1    2  504  502 -0.14102656867E+03  0.26865441572E+02 -0.65893747255E+02  0.15796275178E+03  0.00000000000E+00 0.  1.
<mgrwt>
<rscale>  2 0.14356269E+03</rscale>
<asrwt>0</asrwt>
<pdfrwt beam="1">  1       21 0.69185513E-01 0.14356269E+03</pdfrwt>
<pdfrwt beam="2">  1       21 0.19183461E-01 0.14356269E+03</pdfrwt>
<totfact> 0.48618821E+04</totfact>
</mgrwt>
</event>
<event>
 4    1  0.5694171E+003  0.1591535E+03  0.7546771E-02  0.1189656E+00
         21   -1    0    0  503  501  0.00000000000E+00  0.00000000000E+00  0.58813167575E+03  0.58813167575E+03  0.00000000000E+00 0. -1.
         21   -1    0    0  504  502 -0.00000000000E+00 -0.00000000000E+00 -0.43096328669E+02  0.43096328669E+02  0.00000000000E+00 0. -1.
         21    1    1    2  503  502 -0.14122135012E+03 -0.73391943558E+02  0.28056276555E+03  0.32256055636E+03  0.00000000000E+00 0. -1.
         21    1    1    2  504  501  0.14122135012E+03  0.73391943558E+02  0.26447258153E+03  0.30866744806E+03  0.00000000000E+00 0. -1.
<mgrwt>
<rscale>  2 0.15915353E+03</rscale>
<asrwt>0</asrwt>
<pdfrwt beam="1">  1       21 0.90481791E-01 0.15915353E+03</pdfrwt>
<pdfrwt beam="2">  1       21 0.66302048E-02 0.15915353E+03</pdfrwt>
<totfact> 0.17437306E+05</totfact>
</mgrwt>
</event>
<event>
 4    1  0.5694171E+003  0.1093168E+03  0.7546771E-02  0.1261840E+00
         21   -1    0    0  502  501  0.00000000000E+00  0.00000000000E+00  0.23008316208E+03  0.23008316208E+03  0.00000000000E+00 0.  1.
         21   -1    0    0  504  502 -0.00000000000E+00 -0.00000000000E+00 -0.11024963491E+03  0.11024963491E+03  0.00000000000E+00 0. -1.
         21    1    1    2  503  501  0.22043688545E+02  0.10707118832E+03  0.18367130587E+03  0.21374122712E+03  0.00000000000E+00 0.  1.
         21    1    1    2  504  503 -0.22043688545E+02 -0.10707118832E+03 -0.63837778705E+02  0.12659156987E+03  0.00000000000E+00 0. -1.
<mgrwt>
<rscale>  2 0.10931680E+03</rscale>
<asrwt>0</asrwt>
<pdfrwt beam="1">  1       21 0.35397410E-01 0.10931680E+03</pdfrwt>
<pdfrwt beam="2">  1       21 0.16961482E-01 0.10931680E+03</pdfrwt>
<totfact> 0.24591007E+05</totfact>
</mgrwt>
</event>
<event>
 4    1  0.5694171E+003  0.1236010E+03  0.7546771E-02  0.1237272E+00
         21   -1    0    0  504  501  0.00000000000E+00  0.00000000000E+00  0.69766860627E+02  0.69766860627E+02  0.00000000000E+00 0.  1.
         21   -1    0    0  501  502 -0.00000000000E+00 -0.00000000000E+00 -0.39870994086E+03  0.39870994086E+03  0.00000000000E+00 0.  1.
         21    1    1    2  503  502 -0.10747893970E+03 -0.61036785850E+02 -0.32174143149E+03  0.34466615796E+03  0.00000000000E+00 0.  1.
         21    1    1    2  504  503  0.10747893970E+03  0.61036785850E+02 -0.72016487425E+01  0.12381064353E+03  0.00000000000E+00 0.  1.
<mgrwt>
<rscale>  2 0.12360102E+03</rscale>
<asrwt>0</asrwt>
<pdfrwt beam="1">  1       21 0.10733363E-01 0.12360102E+03</pdfrwt>
<pdfrwt beam="2">  1       21 0.61339990E-01 0.12360102E+03</pdfrwt>
<totfact> 0.18061122E+05</totfact>
</mgrwt>
</event>
<event>
 4    1  0.5694171E+003  0.1247848E+03  0.7546771E-02  0.1235406E+00
         21   -1    0    0  504  501  0.00000000000E+00  0.00000000000E+00  0.56488380502E+02  0.56488380502E+02  0.00000000000E+00 0. -1.
         21   -1    0    0  501  502 -0.00000000000E+00 -0.00000000000E+00 -0.30875996519E+03  0.30875996519E+03  0.00000000000E+00 0. -1.
         21    1    1    2  503  502  0.12222058243E+03  0.25167139840E+02 -0.18593563043E+03  0.22392702910E+03  0.00000000000E+00 0. -1.
         21    1    1    2  504  503 -0.12222058243E+03 -0.25167139840E+02 -0.66335954257E+02  0.14132131659E+03  0.00000000000E+00 0. -1.
<mgrwt>
<rscale>  2 0.12478484E+03</rscale>
<asrwt>0</asrwt>
<pdfrwt beam="1">  1       21 0.86905199E-02 0.12478484E+03</pdfrwt>
<pdfrwt beam="2">  1       21 0.47501534E-01 0.12478484E+03</pdfrwt>
<totfact> 0.44474614E+05</totfact>
</mgrwt>
</event>
<event>
 4    1  0.5694171E+003  0.1103043E+03  0.7546771E-02  0.1260007E+00
         21   -1    0    0  502  501  0.00000000000E+00  0.00000000000E+00  0.77518825945E+02  0.77518825945E+02  0.00000000000E+00 0. -1.
         21   -1    0    0  504  502 -0.00000000000E+00 -0.00000000000E+00 -0.23265336403E+03  0.23265336403E+03  0.00000000000E+00 0. -1.
         21    1    1    2  503  501 -0.81616254399E+02 -0.74201310318E+02  0.10895081503E+02  0.11084110355E+03  0.00000000000E+00 0. -1.
         21    1    1    2  504  503  0.81616254399E+02  0.74201310318E+02 -0.16602961959E+03  0.19933108643E+03  0.00000000000E+00 0. -1.
<mgrwt>
<rscale>  2 0.11030434E+03</rscale>
<asrwt>0</asrwt>
<pdfrwt beam="1">  1       21 0.11925973E-01 0.11030434E+03</pdfrwt>
<pdfrwt beam="2">  1       21 0.35792825E-01 0.11030434E+03</pdfrwt>
<totfact> 0.45156579E+05</totfact>
</mgrwt>
</event>
<event>
 4    1  0.5694171E+003  0.1181227E+03  0.7546771E-02  0.1246227E+00
         21   -1    0    0  504  501  0.00000000000E+00  0.00000000000E+00  0.21964216051E+02  0.21964216051E+02  0.00000000000E+00 0. -1.
         21   -1    0    0  501  502 -0.00000000000E+00 -0.00000000000E+00 -0.86306912683E+03  0.86306912683E+03  0.00000000000E+00 0. -1.
         21    1    1    2  503  502 -0.11729657248E+03  0.13945449649E+02 -0.64790171906E+03  0.65858150524E+03  0.00000000000E+00 0. -1.
         21    1    1    2  504  503  0.11729657248E+03 -0.13945449649E+02 -0.19320319172E+03  0.22645183764E+03  0.00000000000E+00 0. -1.
<mgrwt>
<rscale>  2 0.11812265E+03</rscale>
<asrwt>0</asrwt>
<pdfrwt beam="1">  1       21 0.33791100E-02 0.11812265E+03</pdfrwt>
<pdfrwt beam="2">  1       21 0.13277987E+00 0.11812265E+03</pdfrwt>
<totfact> 0.21855865E+05</totfact>
</mgrwt>
</event>
<event>
 4    1  0.5694171E+003  0.1374942E+03  0.7546771E-02  0.1216741E+00
         21   -1    0    0  504  501  0.00000000000E+00  0.00000000000E+00  0.24852330493E+03  0.24852330493E+03  0.00000000000E+00 0. -1.
         21   -1    0    0  503  502 -0.00000000000E+00 -0.00000000000E+00 -0.76263925986E+02  0.76263925986E+02  0.00000000000E+00 0. -1.
         21    1    1    2  503  501  0.13236817018E+03 -0.37193197055E+02  0.94361112065E+02  0.16675936512E+03  0.00000000000E+00 0. -1.
         21    1    1    2  504  502 -0.13236817018E+03  0.37193197055E+02  0.77898266875E+02  0.15802786579E+03  0.00000000000E+00 0. -1.
<mgrwt>
<rscale>  2 0.13749424E+03</rscale>
<asrwt>0</asrwt>
<pdfrwt beam="1">  1       21 0.38234354E-01 0.13749424E+03</pdfrwt>
<pdfrwt beam="2">  1       21 0.11732912E-01 0.13749424E+03</pdfrwt>
<totfact> 0.40676687E+05</totfact>
</mgrwt>
</event>
<event>
 4    1  0.5694171E+003  0.1067448E+03  0.7546771E-02  0.1266719E+00
         21   -1    0    0  504  501  0.00000000000E+00  0.00000000000E+00  0.87910127310E+02  0.87910127310E+02  0.00000000000E+00 0.  1.
         21   -1    0    0  503  502 -0.00000000000E+00 -0.00000000000E+00 -0.12961753014E+03  0.12961753014E+03  0.00000000000E+00 0.  1.
         21    1    1    2  503  501  0.10441858687E+03  0.22163404966E+02 -0.20358957670E+02  0.10866896963E+03  0.00000000000E+00 0.  1.
         21    1    1    2  504  502 -0.10441858687E+03 -0.22163404966E+02 -0.21348445157E+02  0.10885868782E+03  0.00000000000E+00 0.  1.
<mgrwt>
<rscale>  2 0.10674483E+03</rscale>
<asrwt>0</asrwt>
<pdfrwt beam="1">  1       21 0.13524635E-01 0.10674483E+03</pdfrwt>
<pdfrwt beam="2">  1       21 0.19941158E-01 0.10674483E+03</pdfrwt>
<totfact> 0.10956868E+06</totfact>
</mgrwt>
</event>
<event>
 4    1  0.5694171E+003  0.1082361E+03  0.7546771E-02  0.1263872E+00
         21   -1    0    0  504  501  0.00000000000E+00  0.00000000000E+00  0.11966566558E+04  0.11966566558E+04  0.00000000000E+00 0. -1.
         21   -1    0    0  501  502 -0.00000000000E+00 -0.00000000000E+00 -0.26187575242E+02  0.26187575242E+02  0.00000000000E+00 0. -1.
         21    1    1    2  503  502  0.10777369777E+03 -0.99937328134E+01  0.10141233714E+03  0.14832230699E+03  0.00000000000E+00 0. -1.
         21    1    1    2  504  503 -0.10777369777E+03  0.99937328134E+01  0.10690567434E+04  0.10745219241E+04  0.00000000000E+00 0. -1.
<mgrwt>
<rscale>  2 0.10823606E+03</rscale>
<asrwt>0</asrwt>
<pdfrwt beam="1">  1       21 0.18410098E+00 0.10823606E+03</pdfrwt>
<pdfrwt beam="2">  1       21 0.40288587E-02 0.10823606E+03</pdfrwt>
<totfact> 0.69911947E+04</totfact>
</mgrwt>
</event>
<event>
 4    1  0.5694171E+003  0.1433156E+03  0.7546771E-02  0.1208936E+00
         21   -1    0    0  504  501  0.00000000000E+00  0.00000000000E+00  0.85382281307E+03  0.85382281307E+03  0.00000000000E+00 0. -1.
         21   -1    0    0  503  502 -0.00000000000E+00 -0.00000000000E+00 -0.67806006915E+02  0.67806006915E+02  0.00000000000E+00 0. -1.
         21    1    1    2  503  501  0.26031042799E+02  0.14093168872E+03  0.22854592844E+02  0.14512645689E+03  0.00000000000E+00 0. -1.
         21    1    1    2  504  502 -0.26031042799E+02 -0.14093168872E+03  0.76316221331E+03  0.77650236310E+03  0.00000000000E+00 0. -1.
<mgrwt>
<rscale>  2 0.14331558E+03</rscale>
<asrwt>0</asrwt>
<pdfrwt beam="1">  1       21 0.13135735E+00 0.14331558E+03</pdfrwt>
<pdfrwt beam="2">  1       21 0.10431694E-01 0.14331558E+03</pdfrwt>
<totfact> 0.32691964E+04</totfact>
</mgrwt>
</event>
<event>
 4    1  0.5694171E+003  0.1235033E+03  0.7546771E-02  0.1237427E+00
         21   -1    0    0  503  501  0.00000000000E+00  0.00000000000E+00  0.11855189316E+03  0.11855189316E+03  0.00000000000E+00 0. -1.
         21   -1    0    0  504  502 -0.00000000000E+00 -0.00000000000E+00 -0.25290986621E+03  0.25290986621E+03  0.00000000000E+00 0. -1.
         21    1    1    2  503  502 -0.11704609609E+03  0.39411718672E+02 -0.19735964338E+03  0.23281731252E+03  0.00000000000E+00 0. -1.
         21    1    1    2  504  501  0.11704609609E+03 -0.39411718672E+02  0.63001670332E+02  0.13864444685E+03  0.00000000000E+00 0. -1.
<mgrwt>
<rscale>  2 0.12350333E+03</rscale>
<asrwt>0</asrwt>
<pdfrwt beam="1">  1       21 0.18238753E-01 0.12350333E+03</pdfrwt>
<pdfrwt beam="2">  1       21 0.38909211E-01 0.12350333E+03</pdfrwt>
<totfact> 0.17807498E+05</totfact>
</mgrwt>
</event>
<event>
 4    1  0.5694171E+003  0.1056868E+03  0.7546771E-02  0.1268772E+00
         21   -1    0    0  504  501  0.00000000000E+00  0.00000000000E+00  0.35506776460E+02  0.35506776460E+02  0.00000000000E+00 0. -1.
         21   -1    0    0  503  502 -0.00000000000E+00 -0.00000000000E+00 -0.46990883745E+03  0.46990883745E+03  0.00000000000E+00 0. -1.
         21    1    1    2  503  501 -0.97082879093E+02  0.41768615346E+02 -0.71910051433E+02  0.12783097488E+03  0.00000000000E+00 0. -1.
         21    1    1    2  504  502  0.97082879093E+02 -0.41768615346E+02 -0.36249200955E+03  0.37758463903E+03  0.00000000000E+00 0. -1.
<mgrwt>
<rscale>  2 0.10568681E+03</rscale>
<asrwt>0</asrwt>
<pdfrwt beam="1">  1       21 0.54625814E-02 0.10568681E+03</pdfrwt>
<pdfrwt beam="2">  1       21 0.72293662E-01 0.10568681E+03</pdfrwt>
<totfact> 0.40551808E+05</totfact>
</mgrwt>
</event>
<event>
 4    1  0.5694171E+003  0.1021387E+03  0.7546771E-02  0.1275862E+00
         21   -1    0    0  504  501  0.00000000000E+00  0.00000000000E+00  0.49167891366E+03  0.49167891366E+03  0.00000000000E+00 0. -1.
         21   -1    0    0  503  502 -0.00000000000E+00 -0.00000000000E+00 -0.38423094117E+02  0.38423094117E+02  0.00000000000E+00 0. -1.
         21    1    1    2  503  501 -0.62631742828E+01 -0.10194649941E+03  0.40399174654E+03  0.41670330856E+03  0.00000000000E+00 0. -1.
         21    1    1    2  504  502  0.62631742828E+01  0.10194649941E+03  0.49264073001E+02  0.11339869921E+03  0.00000000000E+00 0. -1.
<mgrwt>
<rscale>  2 0.10213871E+03</rscale>
<asrwt>0</asrwt>
<pdfrwt beam="1">  1       21 0.75642905E-01 0.10213871E+03</pdfrwt>
<pdfrwt beam="2">  1       21 0.59112456E-02 0.10213871E+03</pdfrwt>
<totfact> 0.32181296E+05</totfact>
</mgrwt>
</event>
<event>
 4    1  0.5694171E+003  0.1003034E+03  0.7546771E-02  0.1279659E+00
         21   -1    0    0  504  501  0.00000000000E+00  0.00000000000E+00  0.66045274625E+02  0.66045274625E+02  0.00000000000E+00 0.  1.
         21   -1    0    0  501  502 -0.00000000000E+00 -0.00000000000E+00 -0.18995217018E+03  0.18995217018E+03  0.00000000000E+00 0.  1.
         21    1    1    2  503  502  0.92392683501E+02 -0.39043205039E+02 -0.11891691463E+03  0.15556995985E+03  0.00000000000E+00 0.  1.
         21    1    1    2  504  503 -0.92392683501E+02  0.39043205039E+02 -0.49899809281E+01  0.10042748495E+03  0.00000000000E+00 0.  1.
<mgrwt>
<rscale>  2 0.10030344E+03</rscale>
<asrwt>0</asrwt>
<pdfrwt beam="1">  1       21 0.10160812E-01 0.10030344E+03</pdfrwt>
<pdfrwt beam="2">  1       21 0.29223411E-01 0.10030344E+03</pdfrwt>
<totfact> 0.88485592E+05</totfact>
</mgrwt>
</event>
<event>
 4    1  0.5694171E+003  0.1022179E+03  0.7546771E-02  0.1275700E+00
         21   -1    0    0  503  501  0.00000000000E+00  0.00000000000E+00  0.55768560912E+02  0.55768560912E+02  0.00000000000E+00 0.  1.
         21   -1    0    0  501  502 -0.00000000000E+00 -0.00000000000E+00 -0.34181022476E+03  0.34181022476E+03  0.00000000000E+00 0.  1.
         21    1    1    2  503  504 -0.96494519553E+02 -0.33724065120E+02 -0.93913349618E+01  0.10264843907E+03  0.00000000000E+00 0.  1.
         21    1    1    2  504  502  0.96494519553E+02  0.33724065120E+02 -0.27665032889E+03  0.29493034660E+03  0.00000000000E+00 0.  1.
<mgrwt>
<rscale>  2 0.10221793E+03</rscale>
<asrwt>0</asrwt>
<pdfrwt beam="1">  1       21 0.85797785E-02 0.10221793E+03</pdfrwt>
<pdfrwt beam="2">  1       21 0.52586189E-01 0.10221793E+03</pdfrwt>
<totfact> 0.36996485E+05</totfact>
</mgrwt>
</event>
<event>
 4    1  0.5694171E+003  0.1019875E+03  0.7546771E-02  0.1276171E+00
         21   -1    0    0  503  501  0.00000000000E+00  0.00000000000E+00  0.24676289261E+02  0.24676289261E+02  0.00000000000E+00 0. -1.
         21   -1    0    0  504  502 -0.00000000000E+00 -0.00000000000E+00 -0.42171506140E+03  0.42171506140E+03  0.00000000000E+00 0. -1.
         21    1    1    2  503  502 -0.54875357087E+02  0.85965999083E+02 -0.20336509130E+03  0.22750564426E+03  0.00000000000E+00 0. -1.
         21    1    1    2  504  501  0.54875357087E+02 -0.85965999083E+02 -0.19367368084E+03  0.21888570639E+03  0.00000000000E+00 0. -1.
<mgrwt>
<rscale>  2 0.10198754E+03</rscale>
<asrwt>0</asrwt>
<pdfrwt beam="1">  1       21 0.37963525E-02 0.10198754E+03</pdfrwt>
<pdfrwt beam="2">  1       21 0.64879236E-01 0.10198754E+03</pdfrwt>
<totfact> 0.93809134E+05</totfact>
</mgrwt>
</event>
<event>
 4    1  0.5694171E+003  0.1024448E+03  0.7546771E-02  0.1275237E+00
         21   -1    0    0  502  501  0.00000000000E+00  0.00000000000E+00  0.18545482817E+03  0.18545482817E+03  0.00000000000E+00 0. -1.
         21   -1    0    0  503  502 -0.00000000000E+00 -0.00000000000E+00 -0.16921253568E+03  0.16921253568E+03  0.00000000000E+00 0.  1.
         21    1    1    2  503  504 -0.78432193047E+02  0.65903897616E+02 -0.13655174430E+03  0.17070826430E+03  0.00000000000E+00 0.  1.
         21    1    1    2  504  501  0.78432193047E+02 -0.65903897616E+02  0.15279403679E+03  0.18395909955E+03  0.00000000000E+00 0. -1.
<mgrwt>
<rscale>  2 0.10244478E+03</rscale>
<asrwt>0</asrwt>
<pdfrwt beam="1">  1       21 0.28531512E-01 0.10244478E+03</pdfrwt>
<pdfrwt beam="2">  1       21 0.26032698E-01 0.10244478E+03</pdfrwt>
<totfact> 0.16927998E+05</totfact>
</mgrwt>
</event>
<event>
 4    1  0.5694171E+003  0.1139065E+03  0.7546771E-02  0.1253502E+00
         21   -1    0    0  504  501  0.00000000000E+00  0.00000000000E+00  0.39652454008E+03  0.39652454008E+03  0.00000000000E+00 0.  1.
         21   -1    0    0  503  502 -0.00000000000E+00 -0.00000000000E+00 -0.38329935881E+03  0.38329935881E+03  0.00000000000E+00 0. -1.
         21    1    1    2  503  501 -0.11386337458E+03 -0.31350055865E+01  0.37951056490E+03  0.39623599685E+03  0.00000000000E+00 0.  1.
         21    1    1    2  504  502  0.11386337458E+03  0.31350055865E+01 -0.36628538363E+03  0.38358790204E+03  0.00000000000E+00 0. -1.
<mgrwt>
<rscale>  2 0.11390652E+03</rscale>
<asrwt>0</asrwt>
<pdfrwt beam="1">  1       21 0.61003775E-01 0.11390652E+03</pdfrwt>
<pdfrwt beam="2">  1       21 0.58969132E-01 0.11390652E+03</pdfrwt>
<totfact> 0.71991519E+03</totfact>
</mgrwt>
</event>
<event>
 4    1  0.5694171E+003  0.1517038E+03  0.7546771E-02  0.1198395E+00
         21   -1    0    0  502  501  0.00000000000E+00  0.00000000000E+00  0.16101787753E+02  0.16101787753E+02  0.00000000000E+00 0.  1.
         21   -1    0    0  503  502 -0.00000000000E+00 -0.00000000000E+00 -0.20793958074E+04  0.20793958074E+04  0.00000000000E+00 0. -1.
         21    1    1    2  503  504 -0.87019229148E+01  0.15145397158E+03 -0.16174918211E+04  0.16245903546E+04  0.00000000000E+00 0. -1.
         21    1    1    2  504  501  0.87019229148E+01 -0.15145397158E+03 -0.44580219860E+03  0.47090724060E+03  0.00000000000E+00 0.  1.
<mgrwt>
<rscale>  2 0.15170375E+03</rscale>
<asrwt>0</asrwt>
<pdfrwt beam="1">  1       21 0.24771978E-02 0.15170375E+03</pdfrwt>
<pdfrwt beam="2">  1       21 0.31990709E+00 0.15170375E+03</pdfrwt>
<totfact> 0.23808918E+04</totfact>
</mgrwt>
</event>
<event>
 4    1  0.5694171E+003  0.1424041E+03  0.7546771E-02  0.1210130E+00
         21   -1    0    0  504  501  0.00000000000E+00  0.00000000000E+00  0.45526051243E+02  0.45526051243E+02  0.00000000000E+00 0.  1.
         21   -1    0    0  503  502 -0.00000000000E+00 -0.00000000000E+00 -0.68599731538E+03  0.68599731538E+03  0.00000000000E+00 0. -1.
         21    1    1    2  503  501  0.10162669679E+03  0.99754404901E+02 -0.53683151581E+03  0.55539805830E+03  0.00000000000E+00 0. -1.
         21    1    1    2  504  502 -0.10162669679E+03 -0.99754404901E+02 -0.10363974833E+03  0.17612530832E+03  0.00000000000E+00 0.  1.
<mgrwt>
<rscale>  2 0.14240410E+03</rscale>
<asrwt>0</asrwt>
<pdfrwt beam="1">  1       21 0.70040080E-02 0.14240410E+03</pdfrwt>
<pdfrwt beam="2">  1       21 0.10553805E+00 0.14240410E+03</pdfrwt>
<totfact> 0.11134085E+05</totfact>
</mgrwt>
</event>
<event>
 4    1  0.5694171E+003  0.1480929E+03  0.7546771E-02  0.1202836E+00
         21   -1    0    0  504  501  0.00000000000E+00  0.00000000000E+00  0.11503544506E+02  0.11503544506E+02  0.00000000000E+00 0. -1.
         21   -1    0    0  501  502 -0.00000000000E+00 -0.00000000000E+00 -0.19251198819E+04  0.19251198819E+04  0.00000000000E+00 0. -1.
         21    1    1    2  503  502 -0.14422509810E+03 -0.33624669340E+02 -0.10520406694E+04  0.10624128516E+04  0.00000000000E+00 0. -1.
         21    1    1    2  504  503  0.14422509810E+03  0.33624669340E+02 -0.86157566804E+03  0.87421057479E+03  0.00000000000E+00 0. -1.
<mgrwt>
<rscale>  2 0.14809287E+03</rscale>
<asrwt>0</asrwt>
<pdfrwt beam="1">  1       21 0.17697771E-02 0.14809287E+03</pdfrwt>
<pdfrwt beam="2">  1       21 0.29617213E+00 0.14809287E+03</pdfrwt>
<totfact> 0.56261578E+04</totfact>
</mgrwt>
</event>
<event>
 4    1  0.5694171E+003  0.1561366E+03  0.7546771E-02  0.1193129E+00
         21   -1    0    0  504  501  0.00000000000E+00  0.00000000000E+00  0.22019460057E+04  0.22019460057E+04  0.00000000000E+00 0. -1.
         21   -1    0    0  503  502 -0.00000000000E+00 -0.00000000000E+00 -0.38579575073E+02  0.38579575073E+02  0.00000000000E+00 0. -1.
         21    1    1    2  503  501 -0.14539311225E+03 -0.56916394972E+02  0.20276416456E+04  0.20336443338E+04  0.00000000000E+00 0. -1.
         21    1    1    2  504  502  0.14539311225E+03  0.56916394972E+02  0.13572478499E+03  0.20688124701E+03  0.00000000000E+00 0. -1.
<mgrwt>
<rscale>  2 0.15613658E+03</rscale>
<asrwt>0</asrwt>
<pdfrwt beam="1">  1       21 0.33876083E+00 0.15613658E+03</pdfrwt>
<pdfrwt beam="2">  1       21 0.59353210E-02 0.15613658E+03</pdfrwt>
<totfact> 0.43021640E+03</totfact>
</mgrwt>
</event>
<event>
 4    1  0.5694171E+003  0.1122132E+03  0.7546771E-02  0.1256525E+00
         21   -1    0    0  504  501  0.00000000000E+00  0.00000000000E+00  0.31634795523E+02  0.31634795523E+02  0.00000000000E+00 0. -1.
         21   -1    0    0  503  502 -0.00000000000E+00 -0.00000000000E+00 -0.42509579684E+03  0.42509579684E+03  0.00000000000E+00 0. -1.
         21    1    1    2  503  501  0.91191899357E+02 -0.65389921157E+02 -0.13911428913E+03  0.17873049470E+03  0.00000000000E+00 0. -1.
         21    1    1    2  504  502 -0.91191899357E+02  0.65389921157E+02 -0.25434671218E+03  0.27800009766E+03  0.00000000000E+00 0. -1.
<mgrwt>
<rscale>  2 0.11221321E+03</rscale>
<asrwt>0</asrwt>
<pdfrwt beam="1">  1       21 0.48668921E-02 0.11221321E+03</pdfrwt>
<pdfrwt beam="2">  1       21 0.65399347E-01 0.11221321E+03</pdfrwt>
<totfact> 0.61079186E+05</totfact>
</mgrwt>
</event>
<event>
 4    1  0.5694171E+003  0.1597478E+03  0.7546771E-02  0.1188982E+00
         21   -1    0    0  503  501  0.00000000000E+00  0.00000000000E+00  0.23319049962E+03  0.23319049962E+03  0.00000000000E+00 0. -1.
         21   -1    0    0  504  502 -0.00000000000E+00 -0.00000000000E+00 -0.11448694490E+03  0.11448694490E+03  0.00000000000E+00 0. -1.
         21    1    1    2  503  502  0.63565479575E+01 -0.15962127071E+03  0.95866630344E+02  0.18630557313E+03  0.00000000000E+00 0. -1.
         21    1    1    2  504  501 -0.63565479575E+01  0.15962127071E+03  0.22836924376E+02  0.16137187140E+03  0.00000000000E+00 0. -1.
<mgrwt>
<rscale>  2 0.15974779E+03</rscale>
<asrwt>0</asrwt>
<pdfrwt beam="1">  1       21 0.35875461E-01 0.15974779E+03</pdfrwt>
<pdfrwt beam="2">  1       21 0.17613376E-01 0.15974779E+03</pdfrwt>
<totfact> 0.22100163E+05</totfact>
</mgrwt>
</event>
<event>
 4    1  0.5694171E+003  0.1301335E+03  0.7546771E-02  0.1227258E+00
         21   -1    0    0  503  501  0.00000000000E+00  0.00000000000E+00  0.18870151376E+03  0.18870151376E+03  0.00000000000E+00 0.  1.
         21   -1    0    0  501  502 -0.00000000000E+00 -0.00000000000E+00 -0.23694756546E+03  0.23694756546E+03  0.00000000000E+00 0.  1.
         21    1    1    2  503  504 -0.12878115178E+03  0.18712212274E+02  0.14362425837E+03  0.19381088601E+03  0.00000000000E+00 0.  1.
         21    1    1    2  504  502  0.12878115178E+03 -0.18712212274E+02 -0.19187031007E+03  0.23183819321E+03  0.00000000000E+00 0.  1.
<mgrwt>
<rscale>  2 0.13013352E+03</rscale>
<asrwt>0</asrwt>
<pdfrwt beam="1">  1       21 0.29031002E-01 0.13013352E+03</pdfrwt>
<pdfrwt beam="2">  1       21 0.36453471E-01 0.13013352E+03</pdfrwt>
<totfact> 0.84589301E+04</totfact>
</mgrwt>
</event>
<event>
 4    1  0.5694171E+003  0.1210256E+03  0.7546771E-02  0.1241415E+00
         21   -1    0    0  504  501  0.00000000000E+00  0.00000000000E+00  0.77061635110E+03  0.77061635110E+03  0.00000000000E+00 0.  1.
         21   -1    0    0  501  502 -0.00000000000E+00 -0.00000000000E+00 -0.19268599688E+02  0.19268599688E+02  0.00000000000E+00 0.  1.
         21    1    1    2  503  502 -0.88919494125E+02  0.82100599149E+02  0.32966502652E+03  0.35117832297E+03  0.00000000000E+00 0.  1.
         21    1    1    2  504  503  0.88919494125E+02 -0.82100599149E+02  0.42168272489E+03  0.43870662781E+03  0.00000000000E+00 0.  1.
<mgrwt>
<rscale>  2 0.12102555E+03</rscale>
<asrwt>0</asrwt>
<pdfrwt beam="1">  1       21 0.11855634E+00 0.12102555E+03</pdfrwt>
<pdfrwt beam="2">  1       21 0.29644005E-02 0.12102555E+03</pdfrwt>
<totfact> 0.35777575E+05</totfact>
</mgrwt>
</event>
<event>
 4    1  0.5694171E+003  0.1105242E+03  0.7546771E-02  0.1259602E+00
         21   -1    0    0  502  501  0.00000000000E+00  0.00000000000E+00  0.35151506692E+02  0.35151506692E+02  0.00000000000E+00 0. -1.
         21   -1    0    0  504  502 -0.00000000000E+00 -0.00000000000E+00 -0.73372498536E+03  0.73372498536E+03  0.00000000000E+00 0.  1.
         21    1    1    2  503  501  0.92821502203E+02  0.59998127725E+02 -0.70371149437E+02  0.13102559015E+03  0.00000000000E+00 0. -1.
         21    1    1    2  504  503 -0.92821502203E+02 -0.59998127725E+02 -0.62820232923E+03  0.63785090190E+03  0.00000000000E+00 0.  1.
<mgrwt>
<rscale>  2 0.11052424E+03</rscale>
<asrwt>0</asrwt>
<pdfrwt beam="1">  1       21 0.54079239E-02 0.11052424E+03</pdfrwt>
<pdfrwt beam="2">  1       21 0.11288077E+00 0.11052424E+03</pdfrwt>
<totfact> 0.14912986E+05</totfact>
</mgrwt>
</event>
<event>
 4    1  0.5694171E+003  0.1194182E+03  0.7546771E-02  0.1244060E+00
         21   -1    0    0  503  501  0.00000000000E+00  0.00000000000E+00  0.21639741461E+03  0.21639741461E+03  0.00000000000E+00 0.  1.
         21   -1    0    0  504  502 -0.00000000000E+00 -0.00000000000E+00 -0.12263688858E+03  0.12263688858E+03  0.00000000000E+00 0.  1.
         21    1    1    2  503  502  0.11102444301E+03 -0.43980431376E+02 -0.68420928860E+02  0.13763040651E+03  0.00000000000E+00 0.  1.
         21    1    1    2  504  501 -0.11102444301E+03  0.43980431376E+02  0.16218145489E+03  0.20140389669E+03  0.00000000000E+00 0.  1.
<mgrwt>
<rscale>  2 0.11941819E+03</rscale>
<asrwt>0</asrwt>
<pdfrwt beam="1">  1       21 0.33291910E-01 0.11941819E+03</pdfrwt>
<pdfrwt beam="2">  1       21 0.18867214E-01 0.11941819E+03</pdfrwt>
<totfact> 0.22771095E+05</totfact>
</mgrwt>
</event>
<event>
 4    1  0.5694171E+003  0.1008043E+03  0.7546771E-02  0.1278614E+00
         21   -1    0    0  503  501  0.00000000000E+00  0.00000000000E+00  0.19974416596E+03  0.19974416596E+03  0.00000000000E+00 0.  1.
         21   -1    0    0  504  502 -0.00000000000E+00 -0.00000000000E+00 -0.74691804451E+02  0.74691804451E+02  0.00000000000E+00 0.  1.
         21    1    1    2  503  502 -0.50366500900E+01 -0.10067838897E+03  0.14001484105E+03  0.17252727774E+03  0.00000000000E+00 0.  1.
         21    1    1    2  504  501  0.50366500900E+01  0.10067838897E+03 -0.14962479534E+02  0.10190869268E+03  0.00000000000E+00 0.  1.
<mgrwt>
<rscale>  2 0.10080429E+03</rscale>
<asrwt>0</asrwt>
<pdfrwt beam="1">  1       21 0.30729872E-01 0.10080429E+03</pdfrwt>
<pdfrwt beam="2">  1       21 0.11491047E-01 0.10080429E+03</pdfrwt>
<totfact> 0.64823328E+05</totfact>
</mgrwt>
</event>
<event>
 4    1  0.5694171E+003  0.1004949E+03  0.7546771E-02  0.1279259E+00
         21   -1    0    0  504  501  0.00000000000E+00  0.00000000000E+00  0.18805655860E+03  0.18805655860E+03  0.00000000000E+00 0. -1.
         21   -1    0    0  501  502 -0.00000000000E+00 -0.00000000000E+00 -0.21861018395E+03  0.21861018395E+03  0.00000000000E+00 0. -1.
         21    1    1    2  503  502 -0.72743533570E+02 -0.69336929858E+02 -0.19187776578E+03  0.21660172788E+03  0.00000000000E+00 0. -1.
         21    1    1    2  504  503  0.72743533570E+02  0.69336929858E+02  0.16132414043E+03  0.19006501468E+03  0.00000000000E+00 0. -1.
<mgrwt>
<rscale>  2 0.10049493E+03</rscale>
<asrwt>0</asrwt>
<pdfrwt beam="1">  1       21 0.28931778E-01 0.10049493E+03</pdfrwt>
<pdfrwt beam="2">  1       21 0.33632336E-01 0.10049493E+03</pdfrwt>
<totfact> 0.10106203E+05</totfact>
</mgrwt>
</event>
<event>
 4    1  0.5694171E+003  0.1105298E+03  0.7546771E-02  0.1259592E+00
         21   -1    0    0  504  501  0.00000000000E+00  0.00000000000E+00  0.44488087018E+02  0.44488087018E+02  0.00000000000E+00 0. -1.
         21   -1    0    0  503  502 -0.00000000000E+00 -0.00000000000E+00 -0.14857885611E+04  0.14857885611E+04  0.00000000000E+00 0. -1.
         21    1    1    2  503  501  0.24606615429E+02  0.10775594773E+03 -0.14114715281E+04  0.14157926064E+04  0.00000000000E+00 0. -1.
         21    1    1    2  504  502 -0.24606615429E+02 -0.10775594773E+03 -0.29828946055E+02  0.11448404176E+03  0.00000000000E+00 0. -1.
<mgrwt>
<rscale>  2 0.11052977E+03</rscale>
<asrwt>0</asrwt>
<pdfrwt beam="1">  1       21 0.68443199E-02 0.11052977E+03</pdfrwt>
<pdfrwt beam="2">  1       21 0.22858289E+00 0.11052977E+03</pdfrwt>
<totfact> 0.15275935E+04</totfact>
</mgrwt>
</event>
<event>
 4    1  0.5694171E+003  0.1060977E+03  0.7546771E-02  0.1267972E+00
         21   -1    0    0  503  501  0.00000000000E+00  0.00000000000E+00  0.16307765203E+02  0.16307765203E+02  0.00000000000E+00 0.  1.
         21   -1    0    0  504  502 -0.00000000000E+00 -0.00000000000E+00 -0.69050486773E+03  0.69050486773E+03  0.00000000000E+00 0.  1.
         21    1    1    2  503  502  0.83927941398E+02  0.64906263255E+02 -0.33054785736E+03  0.34715790120E+03  0.00000000000E+00 0.  1.
         21    1    1    2  504  501 -0.83927941398E+02 -0.64906263255E+02 -0.34364924516E+03  0.35965473173E+03  0.00000000000E+00 0.  1.
<mgrwt>
<rscale>  2 0.10609770E+03</rscale>
<asrwt>0</asrwt>
<pdfrwt beam="1">  1       21 0.25088874E-02 0.10609770E+03</pdfrwt>
<pdfrwt beam="2">  1       21 0.10623150E+00 0.10609770E+03</pdfrwt>
<totfact> 0.61165928E+05</totfact>
</mgrwt>
</event>
<event>
 4    1  0.5694171E+003  0.1203087E+03  0.7546771E-02  0.1242589E+00
         21   -1    0    0  502  501  0.00000000000E+00  0.00000000000E+00  0.41470446180E+03  0.41470446180E+03  0.00000000000E+00 0.  1.
         21   -1    0    0  503  502 -0.00000000000E+00 -0.00000000000E+00 -0.40169960160E+02  0.40169960160E+02  0.00000000000E+00 0.  1.
         21    1    1    2  503  504  0.10263745366E+03  0.62767398594E+02  0.10490762616E+03  0.15962394321E+03  0.00000000000E+00 0.  1.
         21    1    1    2  504  501 -0.10263745366E+03 -0.62767398594E+02  0.26962687548E+03  0.29525047875E+03  0.00000000000E+00 0.  1.
<mgrwt>
<rscale>  2 0.12030874E+03</rscale>
<asrwt>0</asrwt>
<pdfrwt beam="1">  1       21 0.63800683E-01 0.12030874E+03</pdfrwt>
<pdfrwt beam="2">  1       21 0.61799942E-02 0.12030874E+03</pdfrwt>
<totfact> 0.43052573E+05</totfact>
</mgrwt>
</event>
<event>
 4    1  0.5694171E+003  0.1355303E+03  0.7546771E-02  0.1219473E+00
         21   -1    0    0  502  501  0.00000000000E+00  0.00000000000E+00  0.62052942746E+03  0.62052942746E+03  0.00000000000E+00 0. -1.
         21   -1    0    0  504  502 -0.00000000000E+00 -0.00000000000E+00 -0.91925157044E+02  0.91925157044E+02  0.00000000000E+00 0.  1.
         21    1    1    2  503  501  0.11803612701E+03 -0.66602754220E+02  0.55761917499E+03  0.57385329001E+03  0.00000000000E+00 0. -1.
         21    1    1    2  504  503 -0.11803612701E+03  0.66602754220E+02 -0.29014904567E+02  0.13860129449E+03  0.00000000000E+00 0.  1.
<mgrwt>
<rscale>  2 0.13553027E+03</rscale>
<asrwt>0</asrwt>
<pdfrwt beam="1">  1       21 0.95466063E-01 0.13553027E+03</pdfrwt>
<pdfrwt beam="2">  1       21 0.14142332E-01 0.13553027E+03</pdfrwt>
<totfact> 0.41259303E+04</totfact>
</mgrwt>
</event>
<event>
 4    1  0.5694171E+003  0.1395091E+03  0.7546771E-02  0.1213991E+00
         21   -1    0    0  503  501  0.00000000000E+00  0.00000000000E+00  0.30853001589E+03  0.30853001589E+03  0.00000000000E+00 0. -1.
         21   -1    0    0  504  502 -0.00000000000E+00 -0.00000000000E+00 -0.10009949198E+03  0.10009949198E+03  0.00000000000E+00 0. -1.
         21    1    1    2  503  502 -0.24179480541E+02  0.13739778267E+03 -0.20031547098E+02  0.14093991926E+03  0.00000000000E+00 0. -1.
         21    1    1    2  504  501  0.24179480541E+02 -0.13739778267E+03  0.22846207100E+03  0.26768958861E+03  0.00000000000E+00 0. -1.
<mgrwt>
<rscale>  2 0.13950913E+03</rscale>
<asrwt>0</asrwt>
<pdfrwt beam="1">  1       21 0.47466156E-01 0.13950913E+03</pdfrwt>
<pdfrwt beam="2">  1       21 0.15399922E-01 0.13950913E+03</pdfrwt>
<totfact> 0.16138920E+05</totfact>
</mgrwt>
</event>
<event>
 4    1  0.5694171E+003  0.1286446E+03  0.7546771E-02  0.1229481E+00
         21   -1    0    0  503  501  0.00000000000E+00  0.00000000000E+00  0.23409296316E+03  0.23409296316E+03  0.00000000000E+00 0. -1.
         21   -1    0    0  504  502 -0.00000000000E+00 -0.00000000000E+00 -0.14899775341E+03  0.14899775341E+03  0.00000000000E+00 0.  1.
         21    1    1    2  503  502  0.56154396197E+02 -0.11574156005E+03  0.18140456338E+03  0.22238938947E+03  0.00000000000E+00 0. -1.
         21    1    1    2  504  501 -0.56154396197E+02  0.11574156005E+03 -0.96309353629E+02  0.16070132710E+03  0.00000000000E+00 0.  1.
<mgrwt>
<rscale>  2 0.12864457E+03</rscale>
<asrwt>0</asrwt>
<pdfrwt beam="1">  1       21 0.36014302E-01 0.12864457E+03</pdfrwt>
<pdfrwt beam="2">  1       21 0.22922731E-01 0.12864457E+03</pdfrwt>
<totfact> 0.13568959E+05</totfact>
</mgrwt>
</event>
<event>
 4    1  0.5694171E+003  0.3537704E+03  0.7546771E-02  0.1061078E+00
         21   -1    0    0  504  501  0.00000000000E+00  0.00000000000E+00  0.12325725965E+04  0.12325725965E+04  0.00000000000E+00 0.  1.
         21   -1    0    0  501  502 -0.00000000000E+00 -0.00000000000E+00 -0.13144680340E+03  0.13144680340E+03  0.00000000000E+00 0.  1.
         21    1    1    2  503  502 -0.21553903983E+03  0.28052882035E+03  0.22524206590E+03  0.41938941926E+03  0.00000000000E+00 0.  1.
         21    1    1    2  504  503  0.21553903983E+03 -0.28052882035E+03  0.87588372717E+03  0.94462998060E+03  0.00000000000E+00 0.  1.
<mgrwt>
<rscale>  2 0.35377040E+03</rscale>
<asrwt>0</asrwt>
<pdfrwt beam="1">  1       21 0.18962655E+00 0.35377040E+03</pdfrwt>
<pdfrwt beam="2">  1       21 0.20222586E-01 0.35377040E+03</pdfrwt>
<totfact> 0.31667244E+03</totfact>
</mgrwt>
</event>
<event>
 4    1  0.5694171E+003  0.1192067E+03  0.7546771E-02  0.1244412E+00
         21   -1    0    0  503  501  0.00000000000E+00  0.00000000000E+00  0.33474863496E+03  0.33474863496E+03  0.00000000000E+00 0. -1.
         21   -1    0    0  504  502 -0.00000000000E+00 -0.00000000000E+00 -0.67340784093E+02  0.67340784093E+02  0.00000000000E+00 0. -1.
         21    1    1    2  503  502 -0.70961844308E+02  0.95784399486E+02  0.25593139325E+03  0.28233156498E+03  0.00000000000E+00 0. -1.
         21    1    1    2  504  501  0.70961844308E+02 -0.95784399486E+02  0.11476457614E+02  0.11975785407E+03  0.00000000000E+00 0. -1.
<mgrwt>
<rscale>  2 0.11920669E+03</rscale>
<asrwt>0</asrwt>
<pdfrwt beam="1">  1       21 0.51499789E-01 0.11920669E+03</pdfrwt>
<pdfrwt beam="2">  1       21 0.10360121E-01 0.11920669E+03</pdfrwt>
<totfact> 0.27762420E+05</totfact>
</mgrwt>
</event>
<event>
 4    1  0.5694171E+003  0.1651337E+03  0.7546771E-02  0.1183020E+00
         21   -1    0    0  503  501  0.00000000000E+00  0.00000000000E+00  0.34538682466E+03  0.34538682466E+03  0.00000000000E+00 0. -1.
         21   -1    0    0  504  502 -0.00000000000E+00 -0.00000000000E+00 -0.11910033637E+03  0.11910033637E+03  0.00000000000E+00 0. -1.
         21    1    1    2  503  502  0.11525569281E+03 -0.11825927308E+03  0.24798321669E+03  0.29793423125E+03  0.00000000000E+00 0. -1.
         21    1    1    2  504  501 -0.11525569281E+03  0.11825927308E+03 -0.21696728401E+02  0.16655292978E+03  0.00000000000E+00 0. -1.
<mgrwt>
<rscale>  2 0.16513367E+03</rscale>
<asrwt>0</asrwt>
<pdfrwt beam="1">  1       21 0.53136434E-01 0.16513367E+03</pdfrwt>
<pdfrwt beam="2">  1       21 0.18323129E-01 0.16513367E+03</pdfrwt>
<totfact> 0.92149983E+04</totfact>
</mgrwt>
</event>
<event>
 4    1  0.5694171E+003  0.1944247E+03  0.7546771E-02  0.1154530E+00
         21   -1    0    0  502  501  0.00000000000E+00  0.00000000000E+00  0.40750076836E+03  0.40750076836E+03  0.00000000000E+00 0. -1.
         21   -1    0    0  504  502 -0.00000000000E+00 -0.00000000000E+00 -0.29958123282E+03  0.29958123282E+03  0.00000000000E+00 0. -1.
         21    1    1    2  503  501  0.11021272794E+03  0.16016908272E+03  0.34770912886E+03  0.39837497255E+03  0.00000000000E+00 0. -1.
         21    1    1    2  504  503 -0.11021272794E+03 -0.16016908272E+03 -0.23978959333E+03  0.30870702863E+03  0.00000000000E+00 0. -1.
<mgrwt>
<rscale>  2 0.19442474E+03</rscale>
<asrwt>0</asrwt>
<pdfrwt beam="1">  1       21 0.62692426E-01 0.19442474E+03</pdfrwt>
<pdfrwt beam="2">  1       21 0.46089420E-01 0.19442474E+03</pdfrwt>
<totfact> 0.10621732E+04</totfact>
</mgrwt>
</event>
<event>
 4    1  0.5694171E+003  0.1075950E+03  0.7546771E-02  0.1265089E+00
         21   -1    0    0  504  501  0.00000000000E+00  0.00000000000E+00  0.11370414473E+03  0.11370414473E+03  0.00000000000E+00 0.  1.
         21   -1    0    0  503  502 -0.00000000000E+00 -0.00000000000E+00 -0.44142619156E+03  0.44142619156E+03  0.00000000000E+00 0.  1.
         21    1    1    2  503  501 -0.53667020015E+02 -0.93255215879E+02 -0.40732095364E+03  0.42129211196E+03  0.00000000000E+00 0.  1.
         21    1    1    2  504  502  0.53667020015E+02  0.93255215879E+02  0.79598906808E+02  0.13383822433E+03  0.00000000000E+00 0.  1.
<mgrwt>
<rscale>  2 0.10759500E+03</rscale>
<asrwt>0</asrwt>
<pdfrwt beam="1">  1       21 0.17492946E-01 0.10759500E+03</pdfrwt>
<pdfrwt beam="2">  1       21 0.67911720E-01 0.10759500E+03</pdfrwt>
<totfact> 0.61159116E+04</totfact>
</mgrwt>
</event>
<event>
 4    1  0.5694171E+003  0.1226108E+03  0.7546771E-02  0.1238851E+00
         21   -1    0    0  503  501  0.00000000000E+00  0.00000000000E+00  0.52105750768E+02  0.52105750768E+02  0.00000000000E+00 0.  1.
         21   -1    0    0  504  502 -0.00000000000E+00 -0.00000000000E+00 -0.33044858900E+03  0.33044858900E+03  0.00000000000E+00 0.  1.
         21    1    1    2  503  502 -0.76194149574E+02 -0.96061701892E+02 -0.20730817287E+03  0.24085281302E+03  0.00000000000E+00 0.  1.
         21    1    1    2  504  501  0.76194149574E+02  0.96061701892E+02 -0.71034665357E+02  0.14170152675E+03  0.00000000000E+00 0.  1.
<mgrwt>
<rscale>  2 0.12261076E+03</rscale>
<asrwt>0</asrwt>
<pdfrwt beam="1">  1       21 0.80162693E-02 0.12261076E+03</pdfrwt>
<pdfrwt beam="2">  1       21 0.50838245E-01 0.12261076E+03</pdfrwt>
<totfact> 0.44480882E+05</totfact>
</mgrwt>
</event>
<event>
 4    1  0.5694171E+003  0.1053862E+03  0.7546771E-02  0.1269361E+00
         21   -1    0    0  503  501  0.00000000000E+00  0.00000000000E+00  0.11371428299E+04  0.11371428299E+04  0.00000000000E+00 0. -1.
         21   -1    0    0  504  502 -0.00000000000E+00 -0.00000000000E+00 -0.16099968735E+02  0.16099968735E+02  0.00000000000E+00 0. -1.
         21    1    1    2  503  502  0.69670727602E+02 -0.79071159684E+02  0.19887148218E+03  0.22506915604E+03  0.00000000000E+00 0. -1.
         21    1    1    2  504  501 -0.69670727602E+02  0.79071159684E+02  0.92217137902E+03  0.92817364262E+03  0.00000000000E+00 0. -1.
<mgrwt>
<rscale>  2 0.10538624E+03</rscale>
<asrwt>0</asrwt>
<pdfrwt beam="1">  1       21 0.17494499E+00 0.10538624E+03</pdfrwt>
<pdfrwt beam="2">  1       21 0.24769192E-02 0.10538624E+03</pdfrwt>
<totfact> 0.17857295E+05</totfact>
</mgrwt>
</event>
<event>
 4    1  0.5694171E+003  0.1098162E+03  0.7546771E-02  0.1260911E+00
         21   -1    0    0  502  501  0.00000000000E+00  0.00000000000E+00  0.44729612541E+03  0.44729612541E+03  0.00000000000E+00 0. -1.
         21   -1    0    0  504  502 -0.00000000000E+00 -0.00000000000E+00 -0.33418169045E+02  0.33418169045E+02  0.00000000000E+00 0. -1.
         21    1    1    2  503  501  0.96977343627E+02 -0.51526630786E+02  0.31259230647E+03  0.33132091531E+03  0.00000000000E+00 0. -1.
         21    1    1    2  504  503 -0.96977343627E+02  0.51526630786E+02  0.10128564989E+03  0.14939337914E+03  0.00000000000E+00 0. -1.
<mgrwt>
<rscale>  2 0.10981620E+03</rscale>
<asrwt>0</asrwt>
<pdfrwt beam="1">  1       21 0.68814784E-01 0.10981620E+03</pdfrwt>
<pdfrwt beam="2">  1       21 0.51412571E-02 0.10981620E+03</pdfrwt>
<totfact> 0.49944181E+05</totfact>
</mgrwt>
</event>
<event>
 4    1  0.5694171E+003  0.1565147E+03  0.7546771E-02  0.1192689E+00
         21   -1    0    0  503  501  0.00000000000E+00  0.00000000000E+00  0.88512983722E+02  0.88512983722E+02  0.00000000000E+00 0. -1.
         21   -1    0    0  504  502 -0.00000000000E+00 -0.00000000000E+00 -0.36280952886E+03  0.36280952886E+03  0.00000000000E+00 0. -1.
         21    1    1    2  503  502  0.14818250126E+03  0.50386634678E+02 -0.24704671304E+03  0.29245332116E+03  0.00000000000E+00 0. -1.
         21    1    1    2  504  501 -0.14818250126E+03 -0.50386634678E+02 -0.27249832093E+02  0.15886919142E+03  0.00000000000E+00 0. -1.
<mgrwt>
<rscale>  2 0.15651475E+03</rscale>
<asrwt>0</asrwt>
<pdfrwt beam="1">  1       21 0.13617382E-01 0.15651475E+03</pdfrwt>
<pdfrwt beam="2">  1       21 0.55816852E-01 0.15651475E+03</pdfrwt>
<totfact> 0.14311002E+05</totfact>
</mgrwt>
</event>
<event>
 4    1  0.5694171E+003  0.1136162E+03  0.7546771E-02  0.1254016E+00
         21   -1    0    0  504  501  0.00000000000E+00  0.00000000000E+00  0.49301371293E+02  0.49301371293E+02  0.00000000000E+00 0.  1.
         21   -1    0    0  503  502 -0.00000000000E+00 -0.00000000000E+00 -0.65885195712E+03  0.65885195712E+03  0.00000000000E+00 0. -1.
         21    1    1    2  503  501 -0.10477243501E+03 -0.43947369755E+02 -0.57963433091E+03  0.59066453425E+03  0.00000000000E+00 0. -1.
         21    1    1    2  504  502  0.10477243501E+03  0.43947369755E+02 -0.29916254917E+02  0.11748879417E+03  0.00000000000E+00 0.  1.
<mgrwt>
<rscale>  2 0.11361617E+03</rscale>
<asrwt>0</asrwt>
<pdfrwt beam="1">  1       21 0.75848265E-02 0.11361617E+03</pdfrwt>
<pdfrwt beam="2">  1       21 0.10136184E+00 0.11361617E+03</pdfrwt>
<totfact> 0.10823100E+05</totfact>
</mgrwt>
</event>
<event>
 4    1  0.5694171E+003  0.2626304E+03  0.7546771E-02  0.1105573E+00
         21   -1    0    0  502  501  0.00000000000E+00  0.00000000000E+00  0.30757446792E+03  0.30757446792E+03  0.00000000000E+00 0. -1.
         21   -1    0    0  504  502 -0.00000000000E+00 -0.00000000000E+00 -0.42515287087E+03  0.42515287087E+03  0.00000000000E+00 0.  1.
         21    1    1    2  503  501  0.11409767496E+03  0.23655117758E+03  0.19305318197E+03  0.32595133090E+03  0.00000000000E+00 0. -1.
         21    1    1    2  504  503 -0.11409767496E+03 -0.23655117758E+03 -0.31063158492E+03  0.40677600789E+03  0.00000000000E+00 0.  1.
<mgrwt>
<rscale>  2 0.26263042E+03</rscale>
<asrwt>0</asrwt>
<pdfrwt beam="1">  1       21 0.47319149E-01 0.26263042E+03</pdfrwt>
<pdfrwt beam="2">  1       21 0.65408134E-01 0.26263042E+03</pdfrwt>
<totfact> 0.87951996E+03</totfact>
</mgrwt>
</event>
<event>
 4    1  0.5694171E+003  0.1016872E+03  0.7546771E-02  0.1276788E+00
         21   -1    0    0  503  501  0.00000000000E+00  0.00000000000E+00  0.19300564822E+03  0.19300564822E+03  0.00000000000E+00 0. -1.
         21   -1    0    0  504  502 -0.00000000000E+00 -0.00000000000E+00 -0.34483627189E+03  0.34483627189E+03  0.00000000000E+00 0. -1.
         21    1    1    2  503  502 -0.10021137262E+03  0.17261697241E+02 -0.32306469062E+03  0.33869024154E+03  0.00000000000E+00 0. -1.
         21    1    1    2  504  501  0.10021137262E+03 -0.17261697241E+02  0.17123406695E+03  0.19915167857E+03  0.00000000000E+00 0. -1.
<mgrwt>
<rscale>  2 0.10168719E+03</rscale>
<asrwt>0</asrwt>
<pdfrwt beam="1">  1       21 0.29693177E-01 0.10168719E+03</pdfrwt>
<pdfrwt beam="2">  1       21 0.53051734E-01 0.10168719E+03</pdfrwt>
<totfact> 0.38595797E+04</totfact>
</mgrwt>
</event>
<event>
 4    1  0.5694171E+003  0.1044724E+03  0.7546771E-02  0.1271163E+00
         21   -1    0    0  503  501  0.00000000000E+00  0.00000000000E+00  0.13497609082E+04  0.13497609082E+04  0.00000000000E+00 0.  1.
         21   -1    0    0  504  502 -0.00000000000E+00 -0.00000000000E+00 -0.33638049126E+02  0.33638049126E+02  0.00000000000E+00 0. -1.
         21    1    1    2  503  502 -0.72937303281E+02 -0.74797282042E+02  0.12609165023E+04  0.12652370961E+04  0.00000000000E+00 0.  1.
         21    1    1    2  504  501  0.72937303281E+02  0.74797282042E+02  0.55206356726E+02  0.11816186116E+03  0.00000000000E+00 0. -1.
<mgrwt>
<rscale>  2 0.10447241E+03</rscale>
<asrwt>0</asrwt>
<pdfrwt beam="1">  1       21 0.20765548E+00 0.10447241E+03</pdfrwt>
<pdfrwt beam="2">  1       21 0.51750855E-02 0.10447241E+03</pdfrwt>
<totfact> 0.32882664E+04</totfact>
</mgrwt>
</event>
<event>
 4    1  0.5694171E+003  0.1498439E+03  0.7546771E-02  0.1200665E+00
         21   -1    0    0  503  501  0.00000000000E+00  0.00000000000E+00  0.62169008564E+02  0.62169008564E+02  0.00000000000E+00 0. -1.
         21   -1    0    0  504  502 -0.00000000000E+00 -0.00000000000E+00 -0.43735079231E+03  0.43735079231E+03  0.00000000000E+00 0. -1.
         21    1    1    2  503  502  0.14745583374E+03 -0.26645062090E+02 -0.29183434050E+03  0.32805558147E+03  0.00000000000E+00 0. -1.
         21    1    1    2  504  501 -0.14745583374E+03  0.26645062090E+02 -0.83347443243E+02  0.17146421940E+03  0.00000000000E+00 0. -1.
<mgrwt>
<rscale>  2 0.14984386E+03</rscale>
<asrwt>0</asrwt>
<pdfrwt beam="1">  1       21 0.95644627E-02 0.14984386E+03</pdfrwt>
<pdfrwt beam="2">  1       21 0.67284738E-01 0.14984386E+03</pdfrwt>
<totfact> 0.17979713E+05</totfact>
</mgrwt>
</event>
<event>
 4    1  0.5694171E+003  0.1457744E+03  0.7546771E-02  0.1205764E+00
         21   -1    0    0  503  501  0.00000000000E+00  0.00000000000E+00  0.19899553141E+03  0.19899553141E+03  0.00000000000E+00 0. -1.
         21   -1    0    0  501  502 -0.00000000000E+00 -0.00000000000E+00 -0.10853315578E+03  0.10853315578E+03  0.00000000000E+00 0. -1.
         21    1    1    2  503  504  0.13113313562E+03  0.63673154764E+02  0.64733882238E+02  0.15950123951E+03  0.00000000000E+00 0. -1.
         21    1    1    2  504  502 -0.13113313562E+03 -0.63673154764E+02  0.25728493399E+02  0.14802744768E+03  0.00000000000E+00 0. -1.
<mgrwt>
<rscale>  2 0.14577438E+03</rscale>
<asrwt>0</asrwt>
<pdfrwt beam="1">  1       21 0.30614697E-01 0.14577438E+03</pdfrwt>
<pdfrwt beam="2">  1       21 0.16697409E-01 0.14577438E+03</pdfrwt>
<totfact> 0.33340712E+05</totfact>
</mgrwt>
</event>
<event>
 4    1  0.5694171E+003  0.2548455E+03  0.7546771E-02  0.1110280E+00
         21   -1    0    0  503  501  0.00000000000E+00  0.00000000000E+00  0.11542932971E+04  0.11542932971E+04  0.00000000000E+00 0.  1.
         21   -1    0    0  504  502 -0.00000000000E+00 -0.00000000000E+00 -0.11172814477E+03  0.11172814477E+03  0.00000000000E+00 0.  1.
         21    1    1    2  503  502 -0.18895639678E+03  0.17100201369E+03  0.75285132915E+02  0.26573306119E+03  0.00000000000E+00 0.  1.
         21    1    1    2  504  501  0.18895639678E+03 -0.17100201369E+03  0.96728001942E+03  0.10002883807E+04  0.00000000000E+00 0.  1.
<mgrwt>
<rscale>  2 0.25484546E+03</rscale>
<asrwt>0</asrwt>
<pdfrwt beam="1">  1       21 0.17758358E+00 0.25484546E+03</pdfrwt>
<pdfrwt beam="2">  1       21 0.17188946E-01 0.25484546E+03</pdfrwt>
<totfact> 0.55060224E+03</totfact>
</mgrwt>
</event>
<event>
 4    1  0.5694171E+003  0.1012429E+03  0.7546771E-02  0.1277704E+00
         21   -1    0    0  502  501  0.00000000000E+00  0.00000000000E+00  0.24550711158E+03  0.24550711158E+03  0.00000000000E+00 0. -1.
         21   -1    0    0  504  502 -0.00000000000E+00 -0.00000000000E+00 -0.11774620348E+03  0.11774620348E+03  0.00000000000E+00 0. -1.
         21    1    1    2  503  501 -0.42625108944E+02 -0.91832591977E+02  0.20979538051E+03  0.23294683201E+03  0.00000000000E+00 0. -1.
         21    1    1    2  504  503  0.42625108944E+02  0.91832591977E+02 -0.82034472404E+02  0.13030648305E+03  0.00000000000E+00 0. -1.
<mgrwt>
<rscale>  2 0.10124290E+03</rscale>
<asrwt>0</asrwt>
<pdfrwt beam="1">  1       21 0.37770325E-01 0.10124290E+03</pdfrwt>
<pdfrwt beam="2">  1       21 0.18114801E-01 0.10124290E+03</pdfrwt>
<totfact> 0.19250749E+05</totfact>
</mgrwt>
</event>
<event>
 4    1  0.5694171E+003  0.1060976E+03  0.7546771E-02  0.1267972E+00
         21   -1    0    0  503  501  0.00000000000E+00  0.00000000000E+00  0.19045098171E+03  0.19045098171E+03  0.00000000000E+00 0.  1.
         21   -1    0    0  504  502 -0.00000000000E+00 -0.00000000000E+00 -0.61427320949E+02  0.61427320949E+02  0.00000000000E+00 0. -1.
         21    1    1    2  503  502 -0.87490209681E+02 -0.60018108904E+02  0.40027423911E+02  0.11339711130E+03  0.00000000000E+00 0. -1.
         21    1    1    2  504  501  0.87490209681E+02  0.60018108904E+02  0.88996236851E+02  0.13848119136E+03  0.00000000000E+00 0.  1.
<mgrwt>
<rscale>  2 0.10609764E+03</rscale>
<asrwt>0</asrwt>
<pdfrwt beam="1">  1       21 0.29300151E-01 0.10609764E+03</pdfrwt>
<pdfrwt beam="2">  1       21 0.94503571E-02 0.10609764E+03</pdfrwt>
<totfact> 0.99931978E+05</totfact>
</mgrwt>
</event>
<event>
 4    1  0.5694171E+003  0.1045920E+03  0.7546771E-02  0.1270925E+00
         21   -1    0    0  504  501  0.00000000000E+00  0.00000000000E+00  0.12302942948E+03  0.12302942948E+03  0.00000000000E+00 0.  1.
         21   -1    0    0  503  502 -0.00000000000E+00 -0.00000000000E+00 -0.10944312854E+03  0.10944312854E+03  0.00000000000E+00 0. -1.
         21    1    1    2  503  501 -0.97596092087E+02 -0.37609810974E+02  0.57130861707E+02  0.11917814578E+03  0.00000000000E+00 0.  1.
         21    1    1    2  504  502  0.97596092087E+02  0.37609810974E+02 -0.43544560773E+02  0.11329441224E+03  0.00000000000E+00 0. -1.
<mgrwt>
<rscale>  2 0.10459204E+03</rscale>
<asrwt>0</asrwt>
<pdfrwt beam="1">  1       21 0.18927605E-01 0.10459204E+03</pdfrwt>
<pdfrwt beam="2">  1       21 0.16837404E-01 0.10459204E+03</pdfrwt>
<totfact> 0.81357175E+05</totfact>
</mgrwt>
</event>
<event>
 4    1  0.5694171E+003  0.1042592E+03  0.7546771E-02  0.1271586E+00
         21   -1    0    0  503  501  0.00000000000E+00  0.00000000000E+00  0.45188227843E+03  0.45188227843E+03  0.00000000000E+00 0.  1.
         21   -1    0    0  504  502 -0.00000000000E+00 -0.00000000000E+00 -0.37631377506E+02  0.37631377506E+02  0.00000000000E+00 0. -1.
         21    1    1    2  503  502  0.97351379956E+02  0.37318801710E+02  0.35413761454E+03  0.36916586269E+03  0.00000000000E+00 0.  1.
         21    1    1    2  504  501 -0.97351379956E+02 -0.37318801710E+02  0.60113286384E+02  0.12034779325E+03  0.00000000000E+00 0. -1.
<mgrwt>
<rscale>  2 0.10425922E+03</rscale>
<asrwt>0</asrwt>
<pdfrwt beam="1">  1       21 0.69520347E-01 0.10425922E+03</pdfrwt>
<pdfrwt beam="2">  1       21 0.57894430E-02 0.10425922E+03</pdfrwt>
<totfact> 0.40046634E+05</totfact>
</mgrwt>
</event>
<event>
 4    1  0.5694171E+003  0.1055893E+03  0.7546771E-02  0.1268963E+00
         21   -1    0    0  504  501  0.00000000000E+00  0.00000000000E+00  0.44671320249E+02  0.44671320249E+02  0.00000000000E+00 0. -1.
         21   -1    0    0  501  502 -0.00000000000E+00 -0.00000000000E+00 -0.53927217577E+03  0.53927217577E+03  0.00000000000E+00 0. -1.
         21    1    1    2  503  502  0.87370945860E+01 -0.10522717935E+03 -0.46129597491E+03  0.47322623824E+03  0.00000000000E+00 0. -1.
         21    1    1    2  504  503 -0.87370945860E+01  0.10522717935E+03 -0.33304880616E+02  0.11071725778E+03  0.00000000000E+00 0. -1.
<mgrwt>
<rscale>  2 0.10558928E+03</rscale>
<asrwt>0</asrwt>
<pdfrwt beam="1">  1       21 0.68725114E-02 0.10558928E+03</pdfrwt>
<pdfrwt beam="2">  1       21 0.82964943E-01 0.10558928E+03</pdfrwt>
<totfact> 0.20304272E+05</totfact>
</mgrwt>
</event>
<event>
 4    1  0.5694171E+003  0.1788439E+03  0.7546771E-02  0.1168927E+00
         21   -1    0    0  504  501  0.00000000000E+00  0.00000000000E+00  0.56280635187E+03  0.56280635187E+03  0.00000000000E+00 0. -1.
         21   -1    0    0  503  502 -0.00000000000E+00 -0.00000000000E+00 -0.88111629383E+02  0.88111629383E+02  0.00000000000E+00 0. -1.
         21    1    1    2  503  501  0.12270939724E+03 -0.13010583843E+03  0.43126350875E+03  0.46687614989E+03  0.00000000000E+00 0. -1.
         21    1    1    2  504  502 -0.12270939724E+03  0.13010583843E+03  0.43431213745E+02  0.18404183136E+03  0.00000000000E+00 0. -1.
<mgrwt>
<rscale>  2 0.17884386E+03</rscale>
<asrwt>0</asrwt>
<pdfrwt beam="1">  1       21 0.86585590E-01 0.17884386E+03</pdfrwt>
<pdfrwt beam="2">  1       21 0.13555636E-01 0.17884386E+03</pdfrwt>
<totfact> 0.54496345E+04</totfact>
</mgrwt>
</event>
<event>
 4    1  0.5694171E+003  0.1394877E+03  0.7546771E-02  0.1214020E+00
         21   -1    0    0  504  501  0.00000000000E+00  0.00000000000E+00  0.53661373388E+02  0.53661373388E+02  0.00000000000E+00 0.  1.
         21   -1    0    0  501  502 -0.00000000000E+00 -0.00000000000E+00 -0.11669576183E+04  0.11669576183E+04  0.00000000000E+00 0.  1.
         21    1    1    2  503  502  0.93674347228E+02  0.10335347599E+03 -0.10633484067E+04  0.10724582315E+04  0.00000000000E+00 0.  1.
         21    1    1    2  504  503 -0.93674347228E+02 -0.10335347599E+03 -0.49947838298E+02  0.14816076025E+03  0.00000000000E+00 0.  1.
<mgrwt>
<rscale>  2 0.13948772E+03</rscale>
<asrwt>0</asrwt>
<pdfrwt beam="1">  1       21 0.82555956E-02 0.13948772E+03</pdfrwt>
<pdfrwt beam="2">  1       21 0.17953195E+00 0.13948772E+03</pdfrwt>
<totfact> 0.21698147E+04</totfact>
</mgrwt>
</event>
<event>
 4    1  0.5694171E+003  0.1242219E+03  0.7546771E-02  0.1236290E+00
         21   -1    0    0  504  501  0.00000000000E+00  0.00000000000E+00  0.53233045042E+02  0.53233045042E+02  0.00000000000E+00 0. -1.
         21   -1    0    0  503  502 -0.00000000000E+00 -0.00000000000E+00 -0.15298051345E+04  0.15298051345E+04  0.00000000000E+00 0. -1.
         21    1    1    2  503  501  0.60968806156E+02  0.10823069617E+03 -0.25693210958E+02  0.12685117267E+03  0.00000000000E+00 0. -1.
         21    1    1    2  504  502 -0.60968806156E+02 -0.10823069617E+03 -0.14508788785E+04  0.14561870069E+04  0.00000000000E+00 0. -1.
<mgrwt>
<rscale>  2 0.12422189E+03</rscale>
<asrwt>0</asrwt>
<pdfrwt beam="1">  1       21 0.81896993E-02 0.12422189E+03</pdfrwt>
<pdfrwt beam="2">  1       21 0.23535463E+00 0.12422189E+03</pdfrwt>
<totfact> 0.10070616E+04</totfact>
</mgrwt>
</event>
<event>
 4    1  0.5694171E+003  0.1021587E+03  0.7546771E-02  0.1275821E+00
         21   -1    0    0  503  501  0.00000000000E+00  0.00000000000E+00  0.23495630054E+02  0.23495630054E+02  0.00000000000E+00 0. -1.
         21   -1    0    0  504  502 -0.00000000000E+00 -0.00000000000E+00 -0.51427627856E+03  0.51427627856E+03  0.00000000000E+00 0. -1.
         21    1    1    2  503  502  0.10214703464E+03 -0.15427243159E+01 -0.34465692432E+03  0.35947850028E+03  0.00000000000E+00 0. -1.
         21    1    1    2  504  501 -0.10214703464E+03  0.15427243159E+01 -0.14612372419E+03  0.17829340833E+03  0.00000000000E+00 0. -1.
<mgrwt>
<rscale>  2 0.10215868E+03</rscale>
<asrwt>0</asrwt>
<pdfrwt beam="1">  1       21 0.36147127E-02 0.10215868E+03</pdfrwt>
<pdfrwt beam="2">  1       21 0.79119420E-01 0.10215868E+03</pdfrwt>
<totfact> 0.66054372E+05</totfact>
</mgrwt>
</event>
<event>
 4    1  0.5694171E+003  0.1115721E+03  0.7546771E-02  0.1257686E+00
         21   -1    0    0  503  501  0.00000000000E+00  0.00000000000E+00  0.42611498604E+02  0.42611498604E+02  0.00000000000E+00 0. -1.
         21   -1    0    0  501  502 -0.00000000000E+00 -0.00000000000E+00 -0.46478399630E+03  0.46478399630E+03  0.00000000000E+00 0. -1.
         21    1    1    2  503  504  0.11091966213E+03  0.12048577060E+02 -0.56463928512E+02  0.12504605103E+03  0.00000000000E+00 0. -1.
         21    1    1    2  504  502 -0.11091966213E+03 -0.12048577060E+02 -0.36570856918E+03  0.38234944387E+03  0.00000000000E+00 0. -1.
<mgrwt>
<rscale>  2 0.11157213E+03</rscale>
<asrwt>0</asrwt>
<pdfrwt beam="1">  1       21 0.65556150E-02 0.11157213E+03</pdfrwt>
<pdfrwt beam="2">  1       21 0.71505232E-01 0.11157213E+03</pdfrwt>
<totfact> 0.30494404E+05</totfact>
</mgrwt>
</event>
<event>
 4    1  0.5694171E+003  0.1132800E+03  0.7546771E-02  0.1254614E+00
         21   -1    0    0  502  501  0.00000000000E+00  0.00000000000E+00  0.22991575344E+03  0.22991575344E+03  0.00000000000E+00 0. -1.
         21   -1    0    0  504  502 -0.00000000000E+00 -0.00000000000E+00 -0.64767740320E+02  0.64767740320E+02  0.00000000000E+00 0. -1.
         21    1    1    2  503  501  0.10549045583E+03 -0.41281071690E+02  0.13735942816E+03  0.17804486978E+03  0.00000000000E+00 0. -1.
         21    1    1    2  504  503 -0.10549045583E+03  0.41281071690E+02  0.27788584964E+02  0.11663862398E+03  0.00000000000E+00 0. -1.
<mgrwt>
<rscale>  2 0.11328002E+03</rscale>
<asrwt>0</asrwt>
<pdfrwt beam="1">  1       21 0.35371654E-01 0.11328002E+03</pdfrwt>
<pdfrwt beam="2">  1       21 0.99642679E-02 0.11328002E+03</pdfrwt>
<totfact> 0.63321077E+05</totfact>
</mgrwt>
</event>
<event>
 4    1  0.5694171E+003  0.1477720E+03  0.7546771E-02  0.1203238E+00
         21   -1    0    0  504  501  0.00000000000E+00  0.00000000000E+00  0.12153509181E+04  0.12153509181E+04  0.00000000000E+00 0.  1.
         21   -1    0    0  503  502 -0.00000000000E+00 -0.00000000000E+00 -0.35360323172E+02  0.35360323172E+02  0.00000000000E+00 0.  1.
         21    1    1    2  503  501  0.14560025585E+03  0.25241512340E+02  0.15140749914E+03  0.21156748154E+03  0.00000000000E+00 0.  1.
         21    1    1    2  504  502 -0.14560025585E+03 -0.25241512340E+02  0.10285830958E+04  0.10391437597E+04  0.00000000000E+00 0.  1.
<mgrwt>
<rscale>  2 0.14777202E+03</rscale>
<asrwt>0</asrwt>
<pdfrwt beam="1">  1       21 0.18697703E+00 0.14777202E+03</pdfrwt>
<pdfrwt beam="2">  1       21 0.54400507E-02 0.14777202E+03</pdfrwt>
<totfact> 0.39275448E+04</totfact>
</mgrwt>
</event>
<event>
 4    1  0.5694171E+003  0.1635136E+03  0.7546771E-02  0.1184786E+00
         21   -1    0    0  503  501  0.00000000000E+00  0.00000000000E+00  0.79719328548E+02  0.79719328548E+02  0.00000000000E+00 0. -1.
         21   -1    0    0  504  502 -0.00000000000E+00 -0.00000000000E+00 -0.39319561375E+03  0.39319561375E+03  0.00000000000E+00 0. -1.
         21    1    1    2  503  502  0.14354085824E+03 -0.78311725255E+02 -0.24740545480E+03  0.29655718396E+03  0.00000000000E+00 0. -1.
         21    1    1    2  504  501 -0.14354085824E+03  0.78311725255E+02 -0.66070830407E+02  0.17635775834E+03  0.00000000000E+00 0. -1.
<mgrwt>
<rscale>  2 0.16351362E+03</rscale>
<asrwt>0</asrwt>
<pdfrwt beam="1">  1       21 0.12264512E-01 0.16351362E+03</pdfrwt>
<pdfrwt beam="2">  1       21 0.60491632E-01 0.16351362E+03</pdfrwt>
<totfact> 0.14515484E+05</totfact>
</mgrwt>
</event>
<event>
 4    1  0.5694171E+003  0.1423525E+03  0.7546771E-02  0.1210198E+00
         21   -1    0    0  504  501  0.00000000000E+00  0.00000000000E+00  0.96056704051E+02  0.96056704051E+02  0.00000000000E+00 0.  1.
         21   -1    0    0  501  502 -0.00000000000E+00 -0.00000000000E+00 -0.33449276647E+03  0.33449276647E+03  0.00000000000E+00 0.  1.
         21    1    1    2  503  502  0.63335000319E+02  0.12748695606E+03 -0.25004235967E+03  0.28772456944E+03  0.00000000000E+00 0.  1.
         21    1    1    2  504  503 -0.63335000319E+02 -0.12748695606E+03  0.11606297253E+02  0.14282490108E+03  0.00000000000E+00 0.  1.
<mgrwt>
<rscale>  2 0.14235254E+03</rscale>
<asrwt>0</asrwt>
<pdfrwt beam="1">  1       21 0.14777954E-01 0.14235254E+03</pdfrwt>
<pdfrwt beam="2">  1       21 0.51460426E-01 0.14235254E+03</pdfrwt>
<totfact> 0.14703340E+05</totfact>
</mgrwt>
</event>
<event>
 4    1  0.5694171E+003  0.1209196E+03  0.7546771E-02  0.1241588E+00
         21   -1    0    0  502  501  0.00000000000E+00  0.00000000000E+00  0.52264983567E+03  0.52264983567E+03  0.00000000000E+00 0.  1.
         21   -1    0    0  503  502 -0.00000000000E+00 -0.00000000000E+00 -0.40679515157E+02  0.40679515157E+02  0.00000000000E+00 0.  1.
         21    1    1    2  503  504 -0.22858361444E+02 -0.11873944447E+03  0.83583450482E+02  0.14699576033E+03  0.00000000000E+00 0.  1.
         21    1    1    2  504  501  0.22858361444E+02  0.11873944447E+03  0.39838687003E+03  0.41633359050E+03  0.00000000000E+00 0.  1.
<mgrwt>
<rscale>  2 0.12091964E+03</rscale>
<asrwt>0</asrwt>
<pdfrwt beam="1">  1       21 0.80407662E-01 0.12091964E+03</pdfrwt>
<pdfrwt beam="2">  1       21 0.62583873E-02 0.12091964E+03</pdfrwt>
<totfact> 0.25414733E+05</totfact>
</mgrwt>
</event>
<event>
 4    1  0.5694171E+003  0.1324394E+03  0.7546771E-02  0.1223880E+00
         21   -1    0    0  504  501  0.00000000000E+00  0.00000000000E+00  0.20597589220E+04  0.20597589220E+04  0.00000000000E+00 0. -1.
         21   -1    0    0  503  502 -0.00000000000E+00 -0.00000000000E+00 -0.12901594817E+02  0.12901594817E+02  0.00000000000E+00 0. -1.
         21    1    1    2  503  501 -0.43503043816E+02  0.12509066793E+03  0.16276665685E+04  0.16330458194E+04  0.00000000000E+00 0. -1.
         21    1    1    2  504  502  0.43503043816E+02 -0.12509066793E+03  0.41919075867E+03  0.43961469741E+03  0.00000000000E+00 0. -1.
<mgrwt>
<rscale>  2 0.13243938E+03</rscale>
<asrwt>0</asrwt>
<pdfrwt beam="1">  1       21 0.31688573E+00 0.13243938E+03</pdfrwt>
<pdfrwt beam="2">  1       21 0.19848624E-02 0.13243938E+03</pdfrwt>
<totfact> 0.36353080E+04</totfact>
</mgrwt>
</event>
<event>
 4    1  0.5694171E+003  0.1084643E+03  0.7546771E-02  0.1263440E+00
         21   -1    0    0  504  501  0.00000000000E+00  0.00000000000E+00  0.45846890527E+02  0.45846890527E+02  0.00000000000E+00 0.  1.
         21   -1    0    0  503  502 -0.00000000000E+00 -0.00000000000E+00 -0.59195938626E+03  0.59195938626E+03  0.00000000000E+00 0. -1.
         21    1    1    2  503  501  0.11458170921E+02  0.10785736513E+03 -0.51308618118E+03  0.52442533330E+03  0.00000000000E+00 0. -1.
         21    1    1    2  504  502 -0.11458170921E+02 -0.10785736513E+03 -0.33026314557E+02  0.11338094349E+03  0.00000000000E+00 0.  1.
<mgrwt>
<rscale>  2 0.10846428E+03</rscale>
<asrwt>0</asrwt>
<pdfrwt beam="1">  1       21 0.70533678E-02 0.10846428E+03</pdfrwt>
<pdfrwt beam="2">  1       21 0.91070674E-01 0.10846428E+03</pdfrwt>
<totfact> 0.15723772E+05</totfact>
</mgrwt>
</event>
<event>
 4    1  0.5694171E+003  0.1249685E+03  0.7546771E-02  0.1235119E+00
         21   -1    0    0  503  501  0.00000000000E+00  0.00000000000E+00  0.33909301905E+03  0.33909301905E+03  0.00000000000E+00 0. -1.
         21   -1    0    0  501  502 -0.00000000000E+00 -0.00000000000E+00 -0.51926487182E+02  0.51926487182E+02  0.00000000000E+00 0. -1.
         21    1    1    2  503  504  0.65911740553E+01 -0.12479454383E+03  0.20932285581E+03  0.24378921164E+03  0.00000000000E+00 0. -1.
         21    1    1    2  504  502 -0.65911740553E+01  0.12479454383E+03  0.77843676056E+02  0.14723029460E+03  0.00000000000E+00 0. -1.
<mgrwt>
<rscale>  2 0.12496848E+03</rscale>
<asrwt>0</asrwt>
<pdfrwt beam="1">  1       21 0.52168155E-01 0.12496848E+03</pdfrwt>
<pdfrwt beam="2">  1       21 0.79886905E-02 0.12496848E+03</pdfrwt>
<totfact> 0.42405702E+05</totfact>
</mgrwt>
</event>
<event>
 4    1  0.5694171E+003  0.1059584E+03  0.7546771E-02  0.1268243E+00
         21   -1    0    0  504  501  0.00000000000E+00  0.00000000000E+00  0.46837854038E+02  0.46837854038E+02  0.00000000000E+00 0.  1.
         21   -1    0    0  501  502 -0.00000000000E+00 -0.00000000000E+00 -0.34982876153E+03  0.34982876153E+03  0.00000000000E+00 0. -1.
         21    1    1    2  503  502 -0.77340444045E+01  0.10567580123E+03 -0.26277405951E+03  0.28333266095E+03  0.00000000000E+00 0. -1.
         21    1    1    2  504  503  0.77340444045E+01 -0.10567580123E+03 -0.40216847986E+02  0.11333395462E+03  0.00000000000E+00 0.  1.
<mgrwt>
<rscale>  2 0.10595844E+03</rscale>
<asrwt>0</asrwt>
<pdfrwt beam="1">  1       21 0.72058238E-02 0.10595844E+03</pdfrwt>
<pdfrwt beam="2">  1       21 0.53819809E-01 0.10595844E+03</pdfrwt>
<totfact> 0.47530439E+05</totfact>
</mgrwt>
</event>
<event>
 4    1  0.5694171E+003  0.2327734E+03  0.7546771E-02  0.1124703E+00
         21   -1    0    0  504  501  0.00000000000E+00  0.00000000000E+00  0.11865161960E+03  0.11865161960E+03  0.00000000000E+00 0. -1.
         21   -1    0    0  503  502 -0.00000000000E+00 -0.00000000000E+00 -0.45747467384E+03  0.45747467384E+03  0.00000000000E+00 0.  1.
         21    1    1    2  503  501 -0.46536814190E+02  0.22807408598E+03 -0.18156672393E+03  0.29521168508E+03  0.00000000000E+00 0.  1.
         21    1    1    2  504  502  0.46536814190E+02 -0.22807408598E+03 -0.15725633031E+03  0.28091460837E+03  0.00000000000E+00 0. -1.
<mgrwt>
<rscale>  2 0.23277342E+03</rscale>
<asrwt>0</asrwt>
<pdfrwt beam="1">  1       21 0.18254095E-01 0.23277342E+03</pdfrwt>
<pdfrwt beam="2">  1       21 0.70380718E-01 0.23277342E+03</pdfrwt>
<totfact> 0.49151114E+04</totfact>
</mgrwt>
</event>
<event>
 4    1  0.5694171E+003  0.1162347E+03  0.7546771E-02  0.1249441E+00
         21   -1    0    0  503  501  0.00000000000E+00  0.00000000000E+00  0.35209281554E+02  0.35209281554E+02  0.00000000000E+00 0. -1.
         21   -1    0    0  504  502 -0.00000000000E+00 -0.00000000000E+00 -0.38867913517E+03  0.38867913517E+03  0.00000000000E+00 0.  1.
         21    1    1    2  503  502  0.60214364199E+02  0.99421966350E+02 -0.20067577016E+03  0.23190787347E+03  0.00000000000E+00 0. -1.
         21    1    1    2  504  501 -0.60214364199E+02 -0.99421966350E+02 -0.15279408346E+03  0.19198054326E+03  0.00000000000E+00 0.  1.
<mgrwt>
<rscale>  2 0.11623466E+03</rscale>
<asrwt>0</asrwt>
<pdfrwt beam="1">  1       21 0.54168128E-02 0.11623466E+03</pdfrwt>
<pdfrwt beam="2">  1       21 0.59796787E-01 0.11623466E+03</pdfrwt>
<totfact> 0.61764193E+05</totfact>
</mgrwt>
</event>
<event>
 4    1  0.5694171E+003  0.1346602E+03  0.7546771E-02  0.1220700E+00
         21   -1    0    0  504  501  0.00000000000E+00  0.00000000000E+00  0.68921797577E+02  0.68921797577E+02  0.00000000000E+00 0.  1.
         21   -1    0    0  501  502 -0.00000000000E+00 -0.00000000000E+00 -0.29833753339E+03  0.29833753339E+03  0.00000000000E+00 0.  1.
         21    1    1    2  503  502  0.85703422553E+02  0.10386667595E+03 -0.17781642377E+03  0.22305166122E+03  0.00000000000E+00 0.  1.
         21    1    1    2  504  503 -0.85703422553E+02 -0.10386667595E+03 -0.51599312047E+02  0.14420766975E+03  0.00000000000E+00 0.  1.
<mgrwt>
<rscale>  2 0.13466018E+03</rscale>
<asrwt>0</asrwt>
<pdfrwt beam="1">  1       21 0.10603354E-01 0.13466018E+03</pdfrwt>
<pdfrwt beam="2">  1       21 0.45898081E-01 0.13466018E+03</pdfrwt>
<totfact> 0.33670949E+05</totfact>
</mgrwt>
</event>
<event>
 4    1  0.5694171E+003  0.1012020E+03  0.7546771E-02  0.1277789E+00
         21   -1    0    0  503  501  0.00000000000E+00  0.00000000000E+00  0.10761635799E+04  0.10761635799E+04  0.00000000000E+00 0. -1.
         21   -1    0    0  504  502 -0.00000000000E+00 -0.00000000000E+00 -0.90552182922E+02  0.90552182922E+02  0.00000000000E+00 0. -1.
         21    1    1    2  503  502  0.98456367891E+02  0.23413213220E+02  0.10446574821E+04  0.10495480407E+04  0.00000000000E+00 0. -1.
         21    1    1    2  504  501 -0.98456367891E+02 -0.23413213220E+02 -0.59046085112E+02  0.11716772208E+03  0.00000000000E+00 0. -1.
<mgrwt>
<rscale>  2 0.10120195E+03</rscale>
<asrwt>0</asrwt>
<pdfrwt beam="1">  1       21 0.16556362E+00 0.10120195E+03</pdfrwt>
<pdfrwt beam="2">  1       21 0.13931106E-01 0.10120195E+03</pdfrwt>
<totfact> 0.11231387E+04</totfact>
</mgrwt>
</event>
<event>
 4    1  0.5694171E+003  0.1001520E+03  0.7546771E-02  0.1279977E+00
         21   -1    0    0  503  501  0.00000000000E+00  0.00000000000E+00  0.23330453864E+03  0.23330453864E+03  0.00000000000E+00 0. -1.
         21   -1    0    0  504  502 -0.00000000000E+00 -0.00000000000E+00 -0.45585684552E+02  0.45585684552E+02  0.00000000000E+00 0. -1.
         21    1    1    2  503  502 -0.68956108442E+02  0.72632454539E+02  0.12711615945E+03  0.16182996118E+03  0.00000000000E+00 0. -1.
         21    1    1    2  504  501  0.68956108442E+02 -0.72632454539E+02  0.60602694639E+02  0.11706026201E+03  0.00000000000E+00 0. -1.
<mgrwt>
<rscale>  2 0.10015198E+03</rscale>
<asrwt>0</asrwt>
<pdfrwt beam="1">  1       21 0.35893005E-01 0.10015198E+03</pdfrwt>
<pdfrwt beam="2">  1       21 0.70131824E-02 0.10015198E+03</pdfrwt>
<totfact> 0.11248271E+06</totfact>
</mgrwt>
</event>
<event>
 4    1  0.5694171E+003  0.1386966E+03  0.7546771E-02  0.1215094E+00
         21   -1    0    0  504  501  0.00000000000E+00  0.00000000000E+00  0.21983300647E+03  0.21983300647E+03  0.00000000000E+00 0.  1.
         21   -1    0    0  503  502 -0.00000000000E+00 -0.00000000000E+00 -0.23956000800E+03  0.23956000800E+03  0.00000000000E+00 0. -1.
         21    1    1    2  503  501  0.48988725074E+02 -0.12975693948E+03  0.17313428450E+03  0.22183831724E+03  0.00000000000E+00 0.  1.
         21    1    1    2  504  502 -0.48988725074E+02  0.12975693948E+03 -0.19286128602E+03  0.23755469723E+03  0.00000000000E+00 0. -1.
<mgrwt>
<rscale>  2 0.13869664E+03</rscale>
<asrwt>0</asrwt>
<pdfrwt beam="1">  1       21 0.33820462E-01 0.13869664E+03</pdfrwt>
<pdfrwt beam="2">  1       21 0.36855386E-01 0.13869664E+03</pdfrwt>
<totfact> 0.61301227E+04</totfact>
</mgrwt>
</event>
<event>
 4    1  0.5694171E+003  0.1336126E+03  0.7546771E-02  0.1222192E+00
         21   -1    0    0  504  501  0.00000000000E+00  0.00000000000E+00  0.36718110531E+02  0.36718110531E+02  0.00000000000E+00 0.  1.
         21   -1    0    0  501  502 -0.00000000000E+00 -0.00000000000E+00 -0.50311284422E+03  0.50311284422E+03  0.00000000000E+00 0.  1.
         21    1    1    2  503  502 -0.13083417632E+03  0.27106255394E+02 -0.28268634687E+03  0.31267219493E+03  0.00000000000E+00 0.  1.
         21    1    1    2  504  503  0.13083417632E+03 -0.27106255394E+02 -0.18370838681E+03  0.22715875981E+03  0.00000000000E+00 0.  1.
<mgrwt>
<rscale>  2 0.13361261E+03</rscale>
<asrwt>0</asrwt>
<pdfrwt beam="1">  1       21 0.56489400E-02 0.13361261E+03</pdfrwt>
<pdfrwt beam="2">  1       21 0.77401977E-01 0.13361261E+03</pdfrwt>
<totfact> 0.32816833E+05</totfact>
</mgrwt>
</event>
<event>
 4    1  0.5694171E+003  0.2120656E+03  0.7546771E-02  0.1139941E+00
         21   -1    0    0  503  501  0.00000000000E+00  0.00000000000E+00  0.24380508839E+02  0.24380508839E+02  0.00000000000E+00 0.  1.
         21   -1    0    0  504  502 -0.00000000000E+00 -0.00000000000E+00 -0.18605400462E+04  0.18605400462E+04  0.00000000000E+00 0.  1.
         21    1    1    2  503  502  0.12689990273E+03 -0.16990653076E+03 -0.10053672494E+04  0.10274897180E+04  0.00000000000E+00 0.  1.
         21    1    1    2  504  501 -0.12689990273E+03  0.16990653076E+03 -0.83079228802E+03  0.85743083706E+03  0.00000000000E+00 0.  1.
<mgrwt>
<rscale>  2 0.21206559E+03</rscale>
<asrwt>0</asrwt>
<pdfrwt beam="1">  1       21 0.37508463E-02 0.21206559E+03</pdfrwt>
<pdfrwt beam="2">  1       21 0.28623703E+00 0.21206559E+03</pdfrwt>
<totfact> 0.17552780E+04</totfact>
</mgrwt>
</event>
<event>
 4    1  0.5694171E+003  0.1000019E+03  0.7546771E-02  0.1280292E+00
         21   -1    0    0  503  501  0.00000000000E+00  0.00000000000E+00  0.50120577053E+02  0.50120577053E+02  0.00000000000E+00 0. -1.
         21   -1    0    0  504  502 -0.00000000000E+00 -0.00000000000E+00 -0.24465594853E+03  0.24465594853E+03  0.00000000000E+00 0. -1.
         21    1    1    2  503  502  0.95145818839E+02 -0.30783937191E+02 -0.33965957171E+02  0.10561280168E+03  0.00000000000E+00 0. -1.
         21    1    1    2  504  501 -0.95145818839E+02  0.30783937191E+02 -0.16056941430E+03  0.18916372390E+03  0.00000000000E+00 0. -1.
<mgrwt>
<rscale>  2 0.10000189E+03</rscale>
<asrwt>0</asrwt>
<pdfrwt beam="1">  1       21 0.77108582E-02 0.10000189E+03</pdfrwt>
<pdfrwt beam="2">  1       21 0.37639376E-01 0.10000189E+03</pdfrwt>
<totfact> 0.87174830E+05</totfact>
</mgrwt>
</event>
<event>
 4    1  0.5694171E+003  0.1677354E+03  0.7546771E-02  0.1180230E+00
         21   -1    0    0  502  501  0.00000000000E+00  0.00000000000E+00  0.60461033740E+03  0.60461033740E+03  0.00000000000E+00 0.  1.
         21   -1    0    0  504  502 -0.00000000000E+00 -0.00000000000E+00 -0.85236824964E+02  0.85236824964E+02  0.00000000000E+00 0.  1.
         21    1    1    2  503  501 -0.16773526283E+03 -0.20680452520E+00  0.49210943980E+03  0.51991043642E+03  0.00000000000E+00 0.  1.
         21    1    1    2  504  503  0.16773526283E+03  0.20680452520E+00  0.27264072638E+02  0.16993672594E+03  0.00000000000E+00 0.  1.
<mgrwt>
<rscale>  2 0.16773539E+03</rscale>
<asrwt>0</asrwt>
<pdfrwt beam="1">  1       21 0.93016972E-01 0.16773539E+03</pdfrwt>
<pdfrwt beam="2">  1       21 0.13113358E-01 0.16773539E+03</pdfrwt>
<totfact> 0.49319854E+04</totfact>
</mgrwt>
</event>
<event>
 4    1  0.5694171E+003  0.1063663E+03  0.7546771E-02  0.1267451E+00
         21   -1    0    0  503  501  0.00000000000E+00  0.00000000000E+00  0.10923505584E+03  0.10923505584E+03  0.00000000000E+00 0. -1.
         21   -1    0    0  504  502 -0.00000000000E+00 -0.00000000000E+00 -0.22173430331E+03  0.22173430331E+03  0.00000000000E+00 0.  1.
         21    1    1    2  503  502 -0.10066400101E+03  0.34359016920E+02  0.64553819052E+02  0.12442258114E+03  0.00000000000E+00 0. -1.
         21    1    1    2  504  501  0.10066400101E+03 -0.34359016920E+02 -0.17705306652E+03  0.20654677801E+03  0.00000000000E+00 0.  1.
<mgrwt>
<rscale>  2 0.10636627E+03</rscale>
<asrwt>0</asrwt>
<pdfrwt beam="1">  1       21 0.16805393E-01 0.10636627E+03</pdfrwt>
<pdfrwt beam="2">  1       21 0.34112969E-01 0.10636627E+03</pdfrwt>
<totfact> 0.26894552E+05</totfact>
</mgrwt>
</event>
<event>
 4    1  0.5694171E+003  0.1261665E+03  0.7546771E-02  0.1233257E+00
         21   -1    0    0  502  501  0.00000000000E+00  0.00000000000E+00  0.57189932866E+02  0.57189932866E+02  0.00000000000E+00 0. -1.
         21   -1    0    0  504  502 -0.00000000000E+00 -0.00000000000E+00 -0.39326921623E+03  0.39326921623E+03  0.00000000000E+00 0. -1.
         21    1    1    2  503  501 -0.52561001458E+02  0.11469669427E+03 -0.46279793198E+02  0.13438679179E+03  0.00000000000E+00 0. -1.
         21    1    1    2  504  503  0.52561001458E+02 -0.11469669427E+03 -0.28979949017E+03  0.31607235730E+03  0.00000000000E+00 0. -1.
<mgrwt>
<rscale>  2 0.12616652E+03</rscale>
<asrwt>0</asrwt>
<pdfrwt beam="1">  1       21 0.87984512E-02 0.12616652E+03</pdfrwt>
<pdfrwt beam="2">  1       21 0.60502956E-01 0.12616652E+03</pdfrwt>
<totfact> 0.26288232E+05</totfact>
</mgrwt>
</event>
<event>
 4    1  0.5694171E+003  0.1187354E+03  0.7546771E-02  0.1245198E+00
         21   -1    0    0  503  501  0.00000000000E+00  0.00000000000E+00  0.24027558054E+04  0.24027558054E+04  0.00000000000E+00 0.  1.
         21   -1    0    0  504  502 -0.00000000000E+00 -0.00000000000E+00 -0.10175323053E+02  0.10175323053E+02  0.00000000000E+00 0. -1.
         21    1    1    2  503  502 -0.53977133611E+02  0.10575705304E+03  0.41128686002E+03  0.42808289670E+03  0.00000000000E+00 0.  1.
         21    1    1    2  504  501  0.53977133611E+02 -0.10575705304E+03  0.19812936223E+04  0.19848482317E+04  0.00000000000E+00 0. -1.
<mgrwt>
<rscale>  2 0.11873536E+03</rscale>
<asrwt>0</asrwt>
<pdfrwt beam="1">  1       21 0.36965429E+00 0.11873536E+03</pdfrwt>
<pdfrwt beam="2">  1       21 0.15654362E-02 0.11873536E+03</pdfrwt>
<totfact> 0.27074043E+04</totfact>
</mgrwt>
</event>
<event>
 4    1  0.5694171E+003  0.1057688E+03  0.7546771E-02  0.1268612E+00
         21   -1    0    0  502  501  0.00000000000E+00  0.00000000000E+00  0.32831515786E+02  0.32831515786E+02  0.00000000000E+00 0.  1.
         21   -1    0    0  503  502 -0.00000000000E+00 -0.00000000000E+00 -0.35648546450E+03  0.35648546450E+03  0.00000000000E+00 0.  1.
         21    1    1    2  503  504 -0.36526867647E+02 -0.99261376847E+02 -0.20273615736E+03  0.22866784316E+03  0.00000000000E+00 0.  1.
         21    1    1    2  504  501  0.36526867647E+02  0.99261376847E+02 -0.12091779135E+03  0.16064913712E+03  0.00000000000E+00 0.  1.
<mgrwt>
<rscale>  2 0.10576877E+03</rscale>
<asrwt>0</asrwt>
<pdfrwt beam="1">  1       21 0.50510023E-02 0.10576877E+03</pdfrwt>
<pdfrwt beam="2">  1       21 0.54843919E-01 0.10576877E+03</pdfrwt>
<totfact> 0.83259495E+05</totfact>
</mgrwt>
</event>
<event>
 4    1  0.5694171E+003  0.1030039E+03  0.7546771E-02  0.1274103E+00
         21   -1    0    0  503  501  0.00000000000E+00  0.00000000000E+00  0.21550613083E+02  0.21550613083E+02  0.00000000000E+00 0.  1.
         21   -1    0    0  504  502 -0.00000000000E+00 -0.00000000000E+00 -0.74709753620E+03  0.74709753620E+03  0.00000000000E+00 0.  1.
         21    1    1    2  503  502  0.86228796092E+01 -0.10264238550E+03 -0.58720758622E+03  0.59617326564E+03  0.00000000000E+00 0.  1.
         21    1    1    2  504  501 -0.86228796092E+01  0.10264238550E+03 -0.13833933689E+03  0.17247488364E+03  0.00000000000E+00 0.  1.
<mgrwt>
<rscale>  2 0.10300395E+03</rscale>
<asrwt>0</asrwt>
<pdfrwt beam="1">  1       21 0.33154784E-02 0.10300395E+03</pdfrwt>
<pdfrwt beam="2">  1       21 0.11493810E+00 0.10300395E+03</pdfrwt>
<totfact> 0.32238464E+05</totfact>
</mgrwt>
</event>
<event>
 4    1  0.5694171E+003  0.1351212E+03  0.7546771E-02  0.1220049E+00
         21   -1    0    0  504  501  0.00000000000E+00  0.00000000000E+00  0.81091670701E+02  0.81091670701E+02  0.00000000000E+00 0. -1.
         21   -1    0    0  501  502 -0.00000000000E+00 -0.00000000000E+00 -0.63754682619E+03  0.63754682619E+03  0.00000000000E+00 0.  1.
         21    1    1    2  503  502  0.11233470115E+03 -0.75091029706E+02 -0.56721727987E+03  0.58308935028E+03  0.00000000000E+00 0.  1.
         21    1    1    2  504  503 -0.11233470115E+03  0.75091029706E+02  0.10762124384E+02  0.13554914661E+03  0.00000000000E+00 0. -1.
<mgrwt>
<rscale>  2 0.13512123E+03</rscale>
<asrwt>0</asrwt>
<pdfrwt beam="1">  1       21 0.12475641E-01 0.13512123E+03</pdfrwt>
<pdfrwt beam="2">  1       21 0.98084129E-01 0.13512123E+03</pdfrwt>
<totfact> 0.48491469E+04</totfact>
</mgrwt>
</event>
<event>
 4    1  0.5694171E+003  0.1003195E+03  0.7546771E-02  0.1279626E+00
         21   -1    0    0  503  501  0.00000000000E+00  0.00000000000E+00  0.12233195936E+03  0.12233195936E+03  0.00000000000E+00 0. -1.
         21   -1    0    0  501  502 -0.00000000000E+00 -0.00000000000E+00 -0.13122835733E+04  0.13122835733E+04  0.00000000000E+00 0. -1.
         21    1    1    2  503  504 -0.77865252775E+02 -0.63253442492E+02  0.99483825726E+02  0.14128349924E+03  0.00000000000E+00 0. -1.
         21    1    1    2  504  502  0.77865252775E+02  0.63253442492E+02 -0.12894354397E+04  0.12933320334E+04  0.00000000000E+00 0. -1.
<mgrwt>
<rscale>  2 0.10031947E+03</rscale>
<asrwt>0</asrwt>
<pdfrwt beam="1">  1       21 0.18820302E-01 0.10031947E+03</pdfrwt>
<pdfrwt beam="2">  1       21 0.20188977E+00 0.10031947E+03</pdfrwt>
<totfact> 0.37894632E+03</totfact>
</mgrwt>
</event>
<event>
 4    1  0.5694171E+003  0.1083214E+03  0.7546771E-02  0.1263710E+00
         21   -1    0    0  502  501  0.00000000000E+00  0.00000000000E+00  0.52813151899E+02  0.52813151899E+02  0.00000000000E+00 0. -1.
         21   -1    0    0  503  502 -0.00000000000E+00 -0.00000000000E+00 -0.43577111121E+03  0.43577111121E+03  0.00000000000E+00 0.  1.
         21    1    1    2  503  504 -0.10321960891E+03  0.32851833682E+02 -0.36251255942E+03  0.37835021657E+03  0.00000000000E+00 0.  1.
         21    1    1    2  504  501  0.10321960891E+03 -0.32851833682E+02 -0.20445399889E+02  0.11023404654E+03  0.00000000000E+00 0. -1.
<mgrwt>
<rscale>  2 0.10832142E+03</rscale>
<asrwt>0</asrwt>
<pdfrwt beam="1">  1       21 0.81251003E-02 0.10832142E+03</pdfrwt>
<pdfrwt beam="2">  1       21 0.67041709E-01 0.10832142E+03</pdfrwt>
<totfact> 0.24321137E+05</totfact>
</mgrwt>
</event>
<event>
 4    1  0.5694171E+003  0.1395641E+03  0.7546771E-02  0.1213917E+00
         21   -1    0    0  503  501  0.00000000000E+00  0.00000000000E+00  0.86901567138E+03  0.86901567138E+03  0.00000000000E+00 0. -1.
         21   -1    0    0  501  502 -0.00000000000E+00 -0.00000000000E+00 -0.23050625219E+03  0.23050625219E+03  0.00000000000E+00 0.  1.
         21    1    1    2  503  504  0.12113898819E+03  0.69307150608E+02  0.84160335898E+03  0.85309691679E+03  0.00000000000E+00 0. -1.
         21    1    1    2  504  502 -0.12113898819E+03 -0.69307150608E+02 -0.20309393980E+03  0.24642500678E+03  0.00000000000E+00 0.  1.
<mgrwt>
<rscale>  2 0.13956409E+03</rscale>
<asrwt>0</asrwt>
<pdfrwt beam="1">  1       21 0.13369472E+00 0.13956409E+03</pdfrwt>
<pdfrwt beam="2">  1       21 0.35462501E-01 0.13956409E+03</pdfrwt>
<totfact> 0.32519617E+03</totfact>
</mgrwt>
</event>
<event>
 4    1  0.5694171E+003  0.1160303E+03  0.7546771E-02  0.1249793E+00
         21   -1    0    0  503  501  0.00000000000E+00  0.00000000000E+00  0.20583083166E+03  0.20583083166E+03  0.00000000000E+00 0.  1.
         21   -1    0    0  504  502 -0.00000000000E+00 -0.00000000000E+00 -0.68957831274E+02  0.68957831274E+02  0.00000000000E+00 0.  1.
         21    1    1    2  503  502  0.63691795989E+02 -0.96986529978E+02  0.99608621634E+02  0.15292125221E+03  0.00000000000E+00 0.  1.
         21    1    1    2  504  501 -0.63691795989E+02  0.96986529978E+02  0.37264378756E+02  0.12186741073E+03  0.00000000000E+00 0.  1.
<mgrwt>
<rscale>  2 0.11603031E+03</rscale>
<asrwt>0</asrwt>
<pdfrwt beam="1">  1       21 0.31666282E-01 0.11603031E+03</pdfrwt>
<pdfrwt beam="2">  1       21 0.10608897E-01 0.11603031E+03</pdfrwt>
<totfact> 0.70398315E+05</totfact>
</mgrwt>
</event>
<event>
 4    1  0.5694171E+003  0.1140324E+03  0.7546771E-02  0.1253280E+00
         21   -1    0    0  502  501  0.00000000000E+00  0.00000000000E+00  0.79002967468E+02  0.79002967468E+02  0.00000000000E+00 0. -1.
         21   -1    0    0  504  502 -0.00000000000E+00 -0.00000000000E+00 -0.27586753617E+03  0.27586753617E+03  0.00000000000E+00 0. -1.
         21    1    1    2  503  501  0.23560914547E+02 -0.11157187151E+03  0.14257858654E+02  0.11492034519E+03  0.00000000000E+00 0. -1.
         21    1    1    2  504  503 -0.23560914547E+02  0.11157187151E+03 -0.21112242736E+03  0.23995015845E+03  0.00000000000E+00 0. -1.
<mgrwt>
<rscale>  2 0.11403245E+03</rscale>
<asrwt>0</asrwt>
<pdfrwt beam="1">  1       21 0.12154303E-01 0.11403245E+03</pdfrwt>
<pdfrwt beam="2">  1       21 0.42441159E-01 0.11403245E+03</pdfrwt>
<totfact> 0.31125306E+05</totfact>
</mgrwt>
</event>
<event>
 4    1  0.5694171E+003  0.1026618E+03  0.7546771E-02  0.1274796E+00
         21   -1    0    0  504  501  0.00000000000E+00  0.00000000000E+00  0.16466324897E+02  0.16466324897E+02  0.00000000000E+00 0. -1.
         21   -1    0    0  501  502 -0.00000000000E+00 -0.00000000000E+00 -0.64611740280E+03  0.64611740280E+03  0.00000000000E+00 0. -1.
         21    1    1    2  503  502  0.67356676997E+02 -0.77475949738E+02 -0.28274962085E+03  0.30081022724E+03  0.00000000000E+00 0. -1.
         21    1    1    2  504  503 -0.67356676997E+02  0.77475949738E+02 -0.34690145705E+03  0.36177350045E+03  0.00000000000E+00 0. -1.
<mgrwt>
<rscale>  2 0.10266180E+03</rscale>
<asrwt>0</asrwt>
<pdfrwt beam="1">  1       21 0.25332808E-02 0.10266180E+03</pdfrwt>
<pdfrwt beam="2">  1       21 0.99402674E-01 0.10266180E+03</pdfrwt>
<totfact> 0.70373809E+05</totfact>
</mgrwt>
</event>
<event>
 4    1  0.5694171E+003  0.1557887E+03  0.7546771E-02  0.1193535E+00
         21   -1    0    0  504  501  0.00000000000E+00  0.00000000000E+00  0.24423497110E+03  0.24423497110E+03  0.00000000000E+00 0. -1.
         21   -1    0    0  501  502 -0.00000000000E+00 -0.00000000000E+00 -0.25569495462E+03  0.25569495462E+03  0.00000000000E+00 0. -1.
         21    1    1    2  503  502 -0.22900019330E+02 -0.15409645267E+03 -0.20117715870E+03  0.25444523339E+03  0.00000000000E+00 0. -1.
         21    1    1    2  504  503  0.22900019330E+02  0.15409645267E+03  0.18971717518E+03  0.24548469233E+03  0.00000000000E+00 0. -1.
<mgrwt>
<rscale>  2 0.15578873E+03</rscale>
<asrwt>0</asrwt>
<pdfrwt beam="1">  1       21 0.37574611E-01 0.15578873E+03</pdfrwt>
<pdfrwt beam="2">  1       21 0.39337685E-01 0.15578873E+03</pdfrwt>
<totfact> 0.43366323E+04</totfact>
</mgrwt>
</event>
<event>
 4    1  0.5694171E+003  0.1989917E+03  0.7546771E-02  0.1150593E+00
         21   -1    0    0  503  501  0.00000000000E+00  0.00000000000E+00  0.21509917682E+03  0.21509917682E+03  0.00000000000E+00 0. -1.
         21   -1    0    0  504  502 -0.00000000000E+00 -0.00000000000E+00 -0.21417321502E+03  0.21417321502E+03  0.00000000000E+00 0. -1.
         21    1    1    2  503  502  0.37586578810E+02  0.19540969358E+03 -0.79978383489E+02  0.21446267992E+03  0.00000000000E+00 0. -1.
         21    1    1    2  504  501 -0.37586578810E+02 -0.19540969358E+03  0.80904345291E+02  0.21480971193E+03  0.00000000000E+00 0. -1.
<mgrwt>
<rscale>  2 0.19899171E+03</rscale>
<asrwt>0</asrwt>
<pdfrwt beam="1">  1       21 0.33092181E-01 0.19899171E+03</pdfrwt>
<pdfrwt beam="2">  1       21 0.32949725E-01 0.19899171E+03</pdfrwt>
<totfact> 0.77748191E+04</totfact>
</mgrwt>
</event>
<event>
 4    1  0.5694171E+003  0.1052925E+03  0.7546771E-02  0.1269544E+00
         21   -1    0    0  504  501  0.00000000000E+00  0.00000000000E+00  0.40679073049E+03  0.40679073049E+03  0.00000000000E+00 0.  1.
         21   -1    0    0  503  502 -0.00000000000E+00 -0.00000000000E+00 -0.39514874985E+03  0.39514874985E+03  0.00000000000E+00 0.  1.
         21    1    1    2  503  501  0.38937527521E+02  0.97828360221E+02 -0.38107418467E+03  0.39535307427E+03  0.00000000000E+00 0.  1.
         21    1    1    2  504  502 -0.38937527521E+02 -0.97828360221E+02  0.39271616531E+03  0.40658640608E+03  0.00000000000E+00 0.  1.
<mgrwt>
<rscale>  2 0.10529254E+03</rscale>
<asrwt>0</asrwt>
<pdfrwt beam="1">  1       21 0.62583189E-01 0.10529254E+03</pdfrwt>
<pdfrwt beam="2">  1       21 0.60792115E-01 0.10529254E+03</pdfrwt>
<totfact> 0.64579359E+03</totfact>
</mgrwt>
</event>
<event>
 4    1  0.5694171E+003  0.1703258E+03  0.7546771E-02  0.1177509E+00
         21   -1    0    0  504  501  0.00000000000E+00  0.00000000000E+00  0.15488424208E+03  0.15488424208E+03  0.00000000000E+00 0. -1.
         21   -1    0    0  503  502 -0.00000000000E+00 -0.00000000000E+00 -0.18857745649E+03  0.18857745649E+03  0.00000000000E+00 0. -1.
         21    1    1    2  503  501  0.15973534111E+03 -0.59122751633E+02 -0.30943050819E+02  0.17311369488E+03  0.00000000000E+00 0. -1.
         21    1    1    2  504  502 -0.15973534111E+03  0.59122751633E+02 -0.27501635858E+01  0.17034800369E+03  0.00000000000E+00 0. -1.
<mgrwt>
<rscale>  2 0.17032580E+03</rscale>
<asrwt>0</asrwt>
<pdfrwt beam="1">  1       21 0.23828345E-01 0.17032580E+03</pdfrwt>
<pdfrwt beam="2">  1       21 0.29011916E-01 0.17032580E+03</pdfrwt>
<totfact> 0.19000809E+05</totfact>
</mgrwt>
</event>
<event>
 4    1  0.5694171E+003  0.1212596E+03  0.7546771E-02  0.1241033E+00
         21   -1    0    0  503  501  0.00000000000E+00  0.00000000000E+00  0.21810939729E+03  0.21810939729E+03  0.00000000000E+00 0.  1.
         21   -1    0    0  504  502 -0.00000000000E+00 -0.00000000000E+00 -0.49392378588E+03  0.49392378588E+03  0.00000000000E+00 0.  1.
         21    1    1    2  503  502 -0.10912094265E+03  0.52882098174E+02  0.19292223708E+03  0.22786593864E+03  0.00000000000E+00 0.  1.
         21    1    1    2  504  501  0.10912094265E+03 -0.52882098174E+02 -0.46873662567E+03  0.48416724453E+03  0.00000000000E+00 0.  1.
<mgrwt>
<rscale>  2 0.12125962E+03</rscale>
<asrwt>0</asrwt>
<pdfrwt beam="1">  1       21 0.33555292E-01 0.12125962E+03</pdfrwt>
<pdfrwt beam="2">  1       21 0.75988275E-01 0.12125962E+03</pdfrwt>
<totfact> 0.13919925E+04</totfact>
</mgrwt>
</event>
<event>
 4    1  0.5694171E+003  0.1164842E+03  0.7546771E-02  0.1249012E+00
         21   -1    0    0  502  501  0.00000000000E+00  0.00000000000E+00  0.75105740293E+03  0.75105740293E+03  0.00000000000E+00 0.  1.
         21   -1    0    0  504  502 -0.00000000000E+00 -0.00000000000E+00 -0.37447825659E+02  0.37447825659E+02  0.00000000000E+00 0.  1.
         21    1    1    2  503  501 -0.11648415740E+03  0.79292865597E-01  0.64043937293E+03  0.65094635386E+03  0.00000000000E+00 0.  1.
         21    1    1    2  504  503  0.11648415740E+03 -0.79292865597E-01  0.73170204344E+02  0.13755887473E+03  0.00000000000E+00 0.  1.
<mgrwt>
<rscale>  2 0.11648418E+03</rscale>
<asrwt>0</asrwt>
<pdfrwt beam="1">  1       21 0.11554728E+00 0.11648418E+03</pdfrwt>
<pdfrwt beam="2">  1       21 0.57612045E-02 0.11648418E+03</pdfrwt>
<totfact> 0.12643209E+05</totfact>
</mgrwt>
</event>
<event>
 4    1  0.5694171E+003  0.1325805E+03  0.7546771E-02  0.1223676E+00
         21   -1    0    0  504  501  0.00000000000E+00  0.00000000000E+00  0.22308886100E+03  0.22308886100E+03  0.00000000000E+00 0.  1.
         21   -1    0    0  503  502 -0.00000000000E+00 -0.00000000000E+00 -0.11450176394E+03  0.11450176394E+03  0.00000000000E+00 0.  1.
         21    1    1    2  503  501 -0.10380893754E+03  0.82469915700E+02  0.14855817213E+03  0.19911582814E+03  0.00000000000E+00 0.  1.
         21    1    1    2  504  502  0.10380893754E+03 -0.82469915700E+02 -0.39971075064E+02  0.13847479680E+03  0.00000000000E+00 0.  1.
<mgrwt>
<rscale>  2 0.13258048E+03</rscale>
<asrwt>0</asrwt>
<pdfrwt beam="1">  1       21 0.34321363E-01 0.13258048E+03</pdfrwt>
<pdfrwt beam="2">  1       21 0.17615656E-01 0.13258048E+03</pdfrwt>
<totfact> 0.24256250E+05</totfact>
</mgrwt>
</event>
<event>
 4    1  0.5694171E+003  0.1019936E+03  0.7546771E-02  0.1276159E+00
         21   -1    0    0  503  501  0.00000000000E+00  0.00000000000E+00  0.51877420178E+03  0.51877420178E+03  0.00000000000E+00 0. -1.
         21   -1    0    0  504  502 -0.00000000000E+00 -0.00000000000E+00 -0.21066124373E+02  0.21066124373E+02  0.00000000000E+00 0. -1.
         21    1    1    2  503  502  0.50833544937E+02 -0.88423129748E+02  0.30806334870E+03  0.32450843745E+03  0.00000000000E+00 0. -1.
         21    1    1    2  504  501 -0.50833544937E+02  0.88423129748E+02  0.18964472870E+03  0.21533188870E+03  0.00000000000E+00 0. -1.
<mgrwt>
<rscale>  2 0.10199362E+03</rscale>
<asrwt>0</asrwt>
<pdfrwt beam="1">  1       21 0.79811406E-01 0.10199362E+03</pdfrwt>
<pdfrwt beam="2">  1       21 0.32409426E-02 0.10199362E+03</pdfrwt>
<totfact> 0.77493345E+05</totfact>
</mgrwt>
</event>
<event>
 4    1  0.5694171E+003  0.1270985E+03  0.7546771E-02  0.1231826E+00
         21   -1    0    0  503  501  0.00000000000E+00  0.00000000000E+00  0.43467685643E+02  0.43467685643E+02  0.00000000000E+00 0. -1.
         21   -1    0    0  504  502 -0.00000000000E+00 -0.00000000000E+00 -0.59323834285E+03  0.59323834285E+03  0.00000000000E+00 0. -1.
         21    1    1    2  503  502 -0.54285838465E+02 -0.11492208627E+03 -0.46945906029E+03  0.48635979219E+03  0.00000000000E+00 0. -1.
         21    1    1    2  504  501  0.54285838465E+02  0.11492208627E+03 -0.80311596912E+02  0.15034623630E+03  0.00000000000E+00 0. -1.
<mgrwt>
<rscale>  2 0.12709854E+03</rscale>
<asrwt>0</asrwt>
<pdfrwt beam="1">  1       21 0.66873370E-02 0.12709854E+03</pdfrwt>
<pdfrwt beam="2">  1       21 0.91267427E-01 0.12709854E+03</pdfrwt>
<totfact> 0.17016754E+05</totfact>
</mgrwt>
</event>
<event>
 4    1  0.5694171E+003  0.1286216E+03  0.7546771E-02  0.1229516E+00
         21   -1    0    0  504  501  0.00000000000E+00  0.00000000000E+00  0.15326402062E+04  0.15326402062E+04  0.00000000000E+00 0.  1.
         21   -1    0    0  503  502 -0.00000000000E+00 -0.00000000000E+00 -0.18351124312E+03  0.18351124312E+03  0.00000000000E+00 0. -1.
         21    1    1    2  503  501  0.98845857935E+02  0.82298268307E+02 -0.15789282553E+03  0.20365081132E+03  0.00000000000E+00 0. -1.
         21    1    1    2  504  502 -0.98845857935E+02 -0.82298268307E+02  0.15070217886E+04  0.15125006380E+04  0.00000000000E+00 0.  1.
<mgrwt>
<rscale>  2 0.12862157E+03</rscale>
<asrwt>0</asrwt>
<pdfrwt beam="1">  1       21 0.23579079E+00 0.12862157E+03</pdfrwt>
<pdfrwt beam="2">  1       21 0.28232500E-01 0.12862157E+03</pdfrwt>
<totfact> 0.10598310E+03</totfact>
</mgrwt>
</event>
<event>
 4    1  0.5694171E+003  0.1181580E+03  0.7546771E-02  0.1246167E+00
         21   -1    0    0  502  501  0.00000000000E+00  0.00000000000E+00  0.16307503831E+04  0.16307503831E+04  0.00000000000E+00 0.  1.
         21   -1    0    0  504  502 -0.00000000000E+00 -0.00000000000E+00 -0.89709152991E+01  0.89709152991E+01  0.00000000000E+00 0.  1.
         21    1    1    2  503  501  0.36530118809E+02  0.11236931304E+03  0.98608399609E+03  0.99313793576E+03  0.00000000000E+00 0.  1.
         21    1    1    2  504  503 -0.36530118809E+02 -0.11236931304E+03  0.63569547174E+03  0.64658336267E+03  0.00000000000E+00 0.  1.
<mgrwt>
<rscale>  2 0.11815800E+03</rscale>
<asrwt>0</asrwt>
<pdfrwt beam="1">  1       21 0.25088444E+00 0.11815800E+03</pdfrwt>
<pdfrwt beam="2">  1       21 0.13801421E-02 0.11815800E+03</pdfrwt>
<totfact> 0.15560387E+05</totfact>
</mgrwt>
</event>
<event>
 4    1  0.5694171E+003  0.1034995E+03  0.7546771E-02  0.1273105E+00
         21   -1    0    0  504  501  0.00000000000E+00  0.00000000000E+00  0.12038985337E+03  0.12038985337E+03  0.00000000000E+00 0. -1.
         21   -1    0    0  501  502 -0.00000000000E+00 -0.00000000000E+00 -0.28020257287E+03  0.28020257287E+03  0.00000000000E+00 0. -1.
         21    1    1    2  503  502 -0.72769299856E+02 -0.73598707606E+02 -0.24537193648E+03  0.26630720601E+03  0.00000000000E+00 0. -1.
         21    1    1    2  504  503  0.72769299856E+02  0.73598707606E+02  0.85559216982E+02  0.13428522023E+03  0.00000000000E+00 0. -1.
<mgrwt>
<rscale>  2 0.10349947E+03</rscale>
<asrwt>0</asrwt>
<pdfrwt beam="1">  1       21 0.18521516E-01 0.10349947E+03</pdfrwt>
<pdfrwt beam="2">  1       21 0.43108087E-01 0.10349947E+03</pdfrwt>
<totfact> 0.14203269E+05</totfact>
</mgrwt>
</event>
<event>
 4    1  0.5694171E+003  0.1090438E+03  0.7546771E-02  0.1262351E+00
         21   -1    0    0  503  501  0.00000000000E+00  0.00000000000E+00  0.19819067967E+03  0.19819067967E+03  0.00000000000E+00 0. -1.
         21   -1    0    0  504  502 -0.00000000000E+00 -0.00000000000E+00 -0.23123038001E+03  0.23123038001E+03  0.00000000000E+00 0.  1.
         21    1    1    2  503  502 -0.85814038410E+02  0.67279326178E+02 -0.20128793741E+03  0.22892660541E+03  0.00000000000E+00 0.  1.
         21    1    1    2  504  501  0.85814038410E+02 -0.67279326178E+02  0.16824823706E+03  0.20049445427E+03  0.00000000000E+00 0. -1.
<mgrwt>
<rscale>  2 0.10904383E+03</rscale>
<asrwt>0</asrwt>
<pdfrwt beam="1">  1       21 0.30490874E-01 0.10904383E+03</pdfrwt>
<pdfrwt beam="2">  1       21 0.35573905E-01 0.10904383E+03</pdfrwt>
<totfact> 0.81574394E+04</totfact>
</mgrwt>
</event>
<event>
 4    1  0.5694171E+003  0.1040114E+03  0.7546771E-02  0.1272080E+00
         21   -1    0    0  503  501  0.00000000000E+00  0.00000000000E+00  0.41581168160E+02  0.41581168160E+02  0.00000000000E+00 0. -1.
         21   -1    0    0  501  502 -0.00000000000E+00 -0.00000000000E+00 -0.31677542626E+03  0.31677542626E+03  0.00000000000E+00 0.  1.
         21    1    1    2  503  504 -0.10369773881E+03  0.80714925263E+01 -0.61857970892E+02  0.12101561299E+03  0.00000000000E+00 0. -1.
         21    1    1    2  504  502  0.10369773881E+03 -0.80714925263E+01 -0.21333628721E+03  0.23734098143E+03  0.00000000000E+00 0.  1.
<mgrwt>
<rscale>  2 0.10401139E+03</rscale>
<asrwt>0</asrwt>
<pdfrwt beam="1">  1       21 0.63971027E-02 0.10401139E+03</pdfrwt>
<pdfrwt beam="2">  1       21 0.48734681E-01 0.10401139E+03</pdfrwt>
<totfact> 0.71373287E+05</totfact>
</mgrwt>
</event>
<event>
 4    1  0.5694171E+003  0.1211121E+03  0.7546771E-02  0.1241274E+00
         21   -1    0    0  504  501  0.00000000000E+00  0.00000000000E+00  0.12768078714E+03  0.12768078714E+03  0.00000000000E+00 0. -1.
         21   -1    0    0  503  502 -0.00000000000E+00 -0.00000000000E+00 -0.12401685850E+03  0.12401685850E+03  0.00000000000E+00 0. -1.
         21    1    1    2  503  501  0.10588256423E+03 -0.58796439449E+02  0.35988642063E+02  0.12634603696E+03  0.00000000000E+00 0. -1.
         21    1    1    2  504  502 -0.10588256423E+03  0.58796439449E+02 -0.32324713423E+02  0.12535160867E+03  0.00000000000E+00 0. -1.
<mgrwt>
<rscale>  2 0.12111209E+03</rscale>
<asrwt>0</asrwt>
<pdfrwt beam="1">  1       21 0.19643198E-01 0.12111209E+03</pdfrwt>
<pdfrwt beam="2">  1       21 0.19079517E-01 0.12111209E+03</pdfrwt>
<totfact> 0.60533960E+05</totfact>
</mgrwt>
</event>
<event>
 4    1  0.5694171E+003  0.1101849E+03  0.7546771E-02  0.1260228E+00
         21   -1    0    0  503  501  0.00000000000E+00  0.00000000000E+00  0.65296574832E+03  0.65296574832E+03  0.00000000000E+00 0.  1.
         21   -1    0    0  504  502 -0.00000000000E+00 -0.00000000000E+00 -0.36636239349E+02  0.36636239349E+02  0.00000000000E+00 0. -1.
         21    1    1    2  503  502  0.50009724806E+02 -0.98182167537E+02  0.55013843886E+03  0.56106417860E+03  0.00000000000E+00 0.  1.
         21    1    1    2  504  501 -0.50009724806E+02  0.98182167537E+02  0.66191070111E+02  0.12853780907E+03  0.00000000000E+00 0. -1.
<mgrwt>
<rscale>  2 0.11018489E+03</rscale>
<asrwt>0</asrwt>
<pdfrwt beam="1">  1       21 0.10045626E+00 0.11018489E+03</pdfrwt>
<pdfrwt beam="2">  1       21 0.56363450E-02 0.11018489E+03</pdfrwt>
<totfact> 0.18326049E+05</totfact>
</mgrwt>
</event>
<event>
 4    1  0.5694171E+003  0.1185501E+03  0.7546771E-02  0.1245508E+00
         21   -1    0    0  503  501  0.00000000000E+00  0.00000000000E+00  0.13577574867E+04  0.13577574867E+04  0.00000000000E+00 0. -1.
         21   -1    0    0  504  502 -0.00000000000E+00 -0.00000000000E+00 -0.13627879806E+02  0.13627879806E+02  0.00000000000E+00 0. -1.
         21    1    1    2  503  502  0.37640060118E+02  0.11241599403E+03  0.10083025744E+04  0.10152478571E+04  0.00000000000E+00 0. -1.
         21    1    1    2  504  501 -0.37640060118E+02 -0.11241599403E+03  0.33582703251E+03  0.35613750940E+03  0.00000000000E+00 0. -1.
<mgrwt>
<rscale>  2 0.11855012E+03</rscale>
<asrwt>0</asrwt>
<pdfrwt beam="1">  1       21 0.20888566E+00 0.11855012E+03</pdfrwt>
<pdfrwt beam="2">  1       21 0.20965980E-02 0.11855012E+03</pdfrwt>
<totfact> 0.14062635E+05</totfact>
</mgrwt>
</event>
<event>
 4    1  0.5694171E+003  0.1214479E+03  0.7546771E-02  0.1240727E+00
         21   -1    0    0  504  501  0.00000000000E+00  0.00000000000E+00  0.30349368285E+02  0.30349368285E+02  0.00000000000E+00 0.  1.
         21   -1    0    0  503  502 -0.00000000000E+00 -0.00000000000E+00 -0.12166584896E+04  0.12166584896E+04  0.00000000000E+00 0. -1.
         21    1    1    2  503  501 -0.18702184620E+02  0.11999927132E+03 -0.10763401655E+04  0.10831702307E+04  0.00000000000E+00 0. -1.
         21    1    1    2  504  502  0.18702184620E+02 -0.11999927132E+03 -0.10996895573E+03  0.16383762709E+03  0.00000000000E+00 0.  1.
<mgrwt>
<rscale>  2 0.12144792E+03</rscale>
<asrwt>0</asrwt>
<pdfrwt beam="1">  1       21 0.46691347E-02 0.12144792E+03</pdfrwt>
<pdfrwt beam="2">  1       21 0.18717818E+00 0.12144792E+03</pdfrwt>
<totfact> 0.51673969E+04</totfact>
</mgrwt>
</event>
<event>
 4    1  0.5694171E+003  0.1007112E+03  0.7546771E-02  0.1278808E+00
         21   -1    0    0  502  501  0.00000000000E+00  0.00000000000E+00  0.91040816285E+03  0.91040816285E+03  0.00000000000E+00 0.  1.
         21   -1    0    0  503  502 -0.00000000000E+00 -0.00000000000E+00 -0.24388705078E+02  0.24388705078E+02  0.00000000000E+00 0.  1.
         21    1    1    2  503  504 -0.15205663716E+02  0.99556635278E+02  0.98528632137E+02  0.14089225382E+03  0.00000000000E+00 0.  1.
         21    1    1    2  504  501  0.15205663716E+02 -0.99556635278E+02  0.78749082564E+03  0.79390461410E+03  0.00000000000E+00 0.  1.
<mgrwt>
<rscale>  2 0.10071115E+03</rscale>
<asrwt>0</asrwt>
<pdfrwt beam="1">  1       21 0.14006277E+00 0.10071115E+03</pdfrwt>
<pdfrwt beam="2">  1       21 0.37521092E-02 0.10071115E+03</pdfrwt>
<totfact> 0.16220633E+05</totfact>
</mgrwt>
</event>
<event>
 4    1  0.5694171E+003  0.1065576E+03  0.7546771E-02  0.1267081E+00
         21   -1    0    0  504  501  0.00000000000E+00  0.00000000000E+00  0.30151953435E+03  0.30151953435E+03  0.00000000000E+00 0.  1.
         21   -1    0    0  503  502 -0.00000000000E+00 -0.00000000000E+00 -0.46517384972E+02  0.46517384972E+02  0.00000000000E+00 0.  1.
         21    1    1    2  503  501 -0.36402719151E+02 -0.10014675247E+03  0.51556458640E+02  0.11837482173E+03  0.00000000000E+00 0.  1.
         21    1    1    2  504  502  0.36402719151E+02  0.10014675247E+03  0.20344569074E+03  0.22966209760E+03  0.00000000000E+00 0.  1.
<mgrwt>
<rscale>  2 0.10655764E+03</rscale>
<asrwt>0</asrwt>
<pdfrwt beam="1">  1       21 0.46387619E-01 0.10655764E+03</pdfrwt>
<pdfrwt beam="2">  1       21 0.71565210E-02 0.10655764E+03</pdfrwt>
<totfact> 0.65232484E+05</totfact>
</mgrwt>
</event>
<event>
 4    1  0.5694171E+003  0.1050278E+03  0.7546771E-02  0.1270065E+00
         21   -1    0    0  504  501  0.00000000000E+00  0.00000000000E+00  0.38145003462E+02  0.38145003462E+02  0.00000000000E+00 0. -1.
         21   -1    0    0  503  502 -0.00000000000E+00 -0.00000000000E+00 -0.10484257224E+04  0.10484257224E+04  0.00000000000E+00 0.  1.
         21    1    1    2  503  501  0.75163138357E+02 -0.73357691088E+02 -0.42812805969E+02  0.11341862530E+03  0.00000000000E+00 0. -1.
         21    1    1    2  504  502 -0.75163138357E+02  0.73357691088E+02 -0.96746791299E+03  0.97315210059E+03  0.00000000000E+00 0.  1.
<mgrwt>
<rscale>  2 0.10502784E+03</rscale>
<asrwt>0</asrwt>
<pdfrwt beam="1">  1       21 0.58684619E-02 0.10502784E+03</pdfrwt>
<pdfrwt beam="2">  1       21 0.16129627E+00 0.10502784E+03</pdfrwt>
<totfact> 0.53437953E+04</totfact>
</mgrwt>
</event>
<event>
 4    1  0.5694171E+003  0.1163951E+03  0.7546771E-02  0.1249165E+00
         21   -1    0    0  503  501  0.00000000000E+00  0.00000000000E+00  0.37900963598E+02  0.37900963598E+02  0.00000000000E+00 0.  1.
         21   -1    0    0  504  502 -0.00000000000E+00 -0.00000000000E+00 -0.37098907024E+03  0.37098907024E+03  0.00000000000E+00 0. -1.
         21    1    1    2  503  502 -0.52236294978E+02  0.10401537387E+03 -0.20559537745E+03  0.23625682582E+03  0.00000000000E+00 0. -1.
         21    1    1    2  504  501  0.52236294978E+02 -0.10401537387E+03 -0.12749272918E+03  0.17263320802E+03  0.00000000000E+00 0.  1.
<mgrwt>
<rscale>  2 0.11639514E+03</rscale>
<asrwt>0</asrwt>
<pdfrwt beam="1">  1       21 0.58309173E-02 0.11639514E+03</pdfrwt>
<pdfrwt beam="2">  1       21 0.57075243E-01 0.11639514E+03</pdfrwt>
<totfact> 0.60182479E+05</totfact>
</mgrwt>
</event>
<event>
 4    1  0.5694171E+003  0.1205921E+03  0.7546771E-02  0.1242123E+00
         21   -1    0    0  503  501  0.00000000000E+00  0.00000000000E+00  0.20174884022E+02  0.20174884022E+02  0.00000000000E+00 0.  1.
         21   -1    0    0  501  502 -0.00000000000E+00 -0.00000000000E+00 -0.77453251030E+03  0.77453251030E+03  0.00000000000E+00 0.  1.
         21    1    1    2  503  504 -0.70856201870E+02  0.97579989663E+02 -0.27253923165E+03  0.29802699293E+03  0.00000000000E+00 0.  1.
         21    1    1    2  504  502  0.70856201870E+02 -0.97579989663E+02 -0.48181839463E+03  0.49668040139E+03  0.00000000000E+00 0.  1.
<mgrwt>
<rscale>  2 0.12059210E+03</rscale>
<asrwt>0</asrwt>
<pdfrwt beam="1">  1       21 0.31038281E-02 0.12059210E+03</pdfrwt>
<pdfrwt beam="2">  1       21 0.11915886E+00 0.12059210E+03</pdfrwt>
<totfact> 0.32779001E+05</totfact>
</mgrwt>
</event>
<event>
 4    1  0.5694171E+003  0.1953277E+03  0.7546771E-02  0.1153742E+00
         21   -1    0    0  504  501  0.00000000000E+00  0.00000000000E+00  0.59458557907E+03  0.59458557907E+03  0.00000000000E+00 0. -1.
         21   -1    0    0  503  502 -0.00000000000E+00 -0.00000000000E+00 -0.11262807627E+03  0.11262807627E+03  0.00000000000E+00 0. -1.
         21    1    1    2  503  501  0.14414592464E+03  0.13181380996E+03  0.47292783801E+03  0.51167730851E+03  0.00000000000E+00 0. -1.
         21    1    1    2  504  502 -0.14414592464E+03 -0.13181380996E+03  0.90296648025E+01  0.19553634683E+03  0.00000000000E+00 0. -1.
<mgrwt>
<rscale>  2 0.19532775E+03</rscale>
<asrwt>0</asrwt>
<pdfrwt beam="1">  1       21 0.91474703E-01 0.19532775E+03</pdfrwt>
<pdfrwt beam="2">  1       21 0.17327397E-01 0.19532775E+03</pdfrwt>
<totfact> 0.30428607E+04</totfact>
</mgrwt>
</event>
<event>
 4    1  0.5694171E+003  0.1489011E+03  0.7546771E-02  0.1201830E+00
         21   -1    0    0  504  501  0.00000000000E+00  0.00000000000E+00  0.15738775948E+04  0.15738775948E+04  0.00000000000E+00 0. -1.
         21   -1    0    0  501  502 -0.00000000000E+00 -0.00000000000E+00 -0.14403153736E+03  0.14403153736E+03  0.00000000000E+00 0.  1.
         21    1    1    2  503  502  0.84625250164E+02 -0.12251575506E+03 -0.10094526947E+03  0.17989299773E+03  0.00000000000E+00 0.  1.
         21    1    1    2  504  503 -0.84625250164E+02  0.12251575506E+03  0.15307913269E+04  0.15380161344E+04  0.00000000000E+00 0. -1.
<mgrwt>
<rscale>  2 0.14890112E+03</rscale>
<asrwt>0</asrwt>
<pdfrwt beam="1">  1       21 0.24213500E+00 0.14890112E+03</pdfrwt>
<pdfrwt beam="2">  1       21 0.22158699E-01 0.14890112E+03</pdfrwt>
<totfact> 0.14916588E+03</totfact>
</mgrwt>
</event>
<event>
 4    1  0.5694171E+003  0.1016455E+03  0.7546771E-02  0.1276873E+00
         21   -1    0    0  504  501  0.00000000000E+00  0.00000000000E+00  0.30175216157E+03  0.30175216157E+03  0.00000000000E+00 0. -1.
         21   -1    0    0  501  502 -0.00000000000E+00 -0.00000000000E+00 -0.34508868273E+02  0.34508868273E+02  0.00000000000E+00 0. -1.
         21    1    1    2  503  502  0.10030071043E+03  0.16479676616E+02  0.14847884386E+03  0.17993826533E+03  0.00000000000E+00 0. -1.
         21    1    1    2  504  503 -0.10030071043E+03 -0.16479676616E+02  0.11876444943E+03  0.15632276451E+03  0.00000000000E+00 0. -1.
<mgrwt>
<rscale>  2 0.10164552E+03</rscale>
<asrwt>0</asrwt>
<pdfrwt beam="1">  1       21 0.46423408E-01 0.10164552E+03</pdfrwt>
<pdfrwt beam="2">  1       21 0.53090568E-02 0.10164552E+03</pdfrwt>
<totfact> 0.10781217E+06</totfact>
</mgrwt>
</event>
<event>
 4    1  0.5694171E+003  0.1044654E+03  0.7546771E-02  0.1271176E+00
         21   -1    0    0  504  501  0.00000000000E+00  0.00000000000E+00  0.63283322328E+03  0.63283322328E+03  0.00000000000E+00 0. -1.
         21   -1    0    0  501  502 -0.00000000000E+00 -0.00000000000E+00 -0.22347513901E+02  0.22347513901E+02  0.00000000000E+00 0. -1.
         21    1    1    2  503  502  0.89115602180E+02 -0.54510859341E+02  0.14870440498E+03  0.18173063693E+03  0.00000000000E+00 0. -1.
         21    1    1    2  504  503 -0.89115602180E+02  0.54510859341E+02  0.46178130439E+03  0.47345010025E+03  0.00000000000E+00 0. -1.
<mgrwt>
<rscale>  2 0.10446542E+03</rscale>
<asrwt>0</asrwt>
<pdfrwt beam="1">  1       21 0.97358944E-01 0.10446542E+03</pdfrwt>
<pdfrwt beam="2">  1       21 0.34380795E-02 0.10446542E+03</pdfrwt>
<totfact> 0.44872638E+05</totfact>
</mgrwt>
</event>
<event>
 4    1  0.5694171E+003  0.1217977E+03  0.7546771E-02  0.1240160E+00
         21   -1    0    0  502  501  0.00000000000E+00  0.00000000000E+00  0.11604503318E+04  0.11604503318E+04  0.00000000000E+00 0.  1.
         21   -1    0    0  504  502 -0.00000000000E+00 -0.00000000000E+00 -0.19451860348E+02  0.19451860348E+02  0.00000000000E+00 0.  1.
         21    1    1    2  503  501  0.56540378191E+02  0.10787896320E+03  0.91591571711E+03  0.92397850945E+03  0.00000000000E+00 0.  1.
         21    1    1    2  504  503 -0.56540378191E+02 -0.10787896320E+03  0.22508275436E+03  0.25592368272E+03  0.00000000000E+00 0.  1.
<mgrwt>
<rscale>  2 0.12179772E+03</rscale>
<asrwt>0</asrwt>
<pdfrwt beam="1">  1       21 0.17853077E+00 0.12179772E+03</pdfrwt>
<pdfrwt beam="2">  1       21 0.29925948E-02 0.12179772E+03</pdfrwt>
<totfact> 0.12293809E+05</totfact>
</mgrwt>
</event>
<event>
 4    1  0.5694171E+003  0.1761028E+03  0.7546771E-02  0.1171629E+00
         21   -1    0    0  502  501  0.00000000000E+00  0.00000000000E+00  0.12852992007E+03  0.12852992007E+03  0.00000000000E+00 0.  1.
         21   -1    0    0  504  502 -0.00000000000E+00 -0.00000000000E+00 -0.56258736817E+03  0.56258736817E+03  0.00000000000E+00 0.  1.
         21    1    1    2  503  501  0.13244587329E+03  0.11606154733E+03  0.44117964440E+02  0.18154499967E+03  0.00000000000E+00 0.  1.
         21    1    1    2  504  503 -0.13244587329E+03 -0.11606154733E+03 -0.47817541254E+03  0.50957228857E+03  0.00000000000E+00 0.  1.
<mgrwt>
<rscale>  2 0.17610279E+03</rscale>
<asrwt>0</asrwt>
<pdfrwt beam="1">  1       21 0.19773834E-01 0.17610279E+03</pdfrwt>
<pdfrwt beam="2">  1       21 0.86551903E-01 0.17610279E+03</pdfrwt>
<totfact> 0.27363366E+04</totfact>
</mgrwt>
</event>
<event>
 4    1  0.5694171E+003  0.1054444E+03  0.7546771E-02  0.1269246E+00
         21   -1    0    0  502  501  0.00000000000E+00  0.00000000000E+00  0.97823281380E+03  0.97823281380E+03  0.00000000000E+00 0.  1.
         21   -1    0    0  503  502 -0.00000000000E+00 -0.00000000000E+00 -0.43068598363E+03  0.43068598363E+03  0.00000000000E+00 0. -1.
         21    1    1    2  503  504 -0.29265575639E+02 -0.10130180657E+03 -0.42132838428E+03  0.43432261895E+03  0.00000000000E+00 0. -1.
         21    1    1    2  504  501  0.29265575639E+02  0.10130180657E+03  0.96887521445E+03  0.97459617848E+03  0.00000000000E+00 0.  1.
<mgrwt>
<rscale>  2 0.10544444E+03</rscale>
<asrwt>0</asrwt>
<pdfrwt beam="1">  1       21 0.15049736E+00 0.10544444E+03</pdfrwt>
<pdfrwt beam="2">  1       21 0.66259382E-01 0.10544444E+03</pdfrwt>
<totfact> 0.70103875E+02</totfact>
</mgrwt>
</event>
<event>
 4    1  0.5694171E+003  0.1820802E+03  0.7546771E-02  0.1165805E+00
         21   -1    0    0  504  501  0.00000000000E+00  0.00000000000E+00  0.17578734941E+03  0.17578734941E+03  0.00000000000E+00 0.  1.
         21   -1    0    0  501  502 -0.00000000000E+00 -0.00000000000E+00 -0.97233244125E+03  0.97233244125E+03  0.00000000000E+00 0. -1.
         21    1    1    2  503  502 -0.82581911287E+02 -0.16227579886E+03 -0.91366040541E+03  0.93162682624E+03  0.00000000000E+00 0. -1.
         21    1    1    2  504  503  0.82581911287E+02  0.16227579886E+03  0.11711531357E+03  0.21649296441E+03  0.00000000000E+00 0.  1.
<mgrwt>
<rscale>  2 0.18208022E+03</rscale>
<asrwt>0</asrwt>
<pdfrwt beam="1">  1       21 0.27044208E-01 0.18208022E+03</pdfrwt>
<pdfrwt beam="2">  1       21 0.14958961E+00 0.18208022E+03</pdfrwt>
<totfact> 0.39592604E+03</totfact>
</mgrwt>
</event>
<event>
 4    1  0.5694171E+003  0.1129926E+03  0.7546771E-02  0.1255126E+00
         21   -1    0    0  503  501  0.00000000000E+00  0.00000000000E+00  0.77080889936E+03  0.77080889936E+03  0.00000000000E+00 0. -1.
         21   -1    0    0  504  502 -0.00000000000E+00 -0.00000000000E+00 -0.64157252043E+02  0.64157252043E+02  0.00000000000E+00 0. -1.
         21    1    1    2  503  502 -0.10962787020E+03  0.27368928297E+02 -0.62502303952E+01  0.11316533719E+03  0.00000000000E+00 0. -1.
         21    1    1    2  504  501  0.10962787020E+03 -0.27368928297E+02  0.71290187772E+03  0.72180081422E+03  0.00000000000E+00 0. -1.
<mgrwt>
<rscale>  2 0.11299260E+03</rscale>
<asrwt>0</asrwt>
<pdfrwt beam="1">  1       21 0.11858598E+00 0.11299260E+03</pdfrwt>
<pdfrwt beam="2">  1       21 0.98703470E-02 0.11299260E+03</pdfrwt>
<totfact> 0.47312385E+04</totfact>
</mgrwt>
</event>
<event>
 4    1  0.5694171E+003  0.1418887E+03  0.7546771E-02  0.1210810E+00
         21   -1    0    0  503  501  0.00000000000E+00  0.00000000000E+00  0.28349058060E+03  0.28349058060E+03  0.00000000000E+00 0.  1.
         21   -1    0    0  504  502 -0.00000000000E+00 -0.00000000000E+00 -0.11147251403E+03  0.11147251403E+03  0.00000000000E+00 0. -1.
         21    1    1    2  503  502 -0.44393053506E+02 -0.13476518536E+03  0.20497870411E+03  0.24929634478E+03  0.00000000000E+00 0.  1.
         21    1    1    2  504  501  0.44393053506E+02  0.13476518536E+03 -0.32960637532E+02  0.14566674985E+03  0.00000000000E+00 0. -1.
<mgrwt>
<rscale>  2 0.14188868E+03</rscale>
<asrwt>0</asrwt>
<pdfrwt beam="1">  1       21 0.43613935E-01 0.14188868E+03</pdfrwt>
<pdfrwt beam="2">  1       21 0.17149618E-01 0.14188868E+03</pdfrwt>
<totfact> 0.15759963E+05</totfact>
</mgrwt>
</event>
<event>
 4    1  0.5694171E+003  0.1774368E+03  0.7546771E-02  0.1170307E+00
         21   -1    0    0  504  501  0.00000000000E+00  0.00000000000E+00  0.13391950869E+03  0.13391950869E+03  0.00000000000E+00 0. -1.
         21   -1    0    0  503  502 -0.00000000000E+00 -0.00000000000E+00 -0.58622628804E+03  0.58622628804E+03  0.00000000000E+00 0. -1.
         21    1    1    2  503  501 -0.16290615674E+03  0.70323436423E+02  0.52518125524E+02  0.18504581898E+03  0.00000000000E+00 0. -1.
         21    1    1    2  504  502  0.16290615674E+03 -0.70323436423E+02 -0.50482490487E+03  0.53509997776E+03  0.00000000000E+00 0. -1.
<mgrwt>
<rscale>  2 0.17743675E+03</rscale>
<asrwt>0</asrwt>
<pdfrwt beam="1">  1       21 0.20603001E-01 0.17743675E+03</pdfrwt>
<pdfrwt beam="2">  1       21 0.90188659E-01 0.17743675E+03</pdfrwt>
<totfact> 0.23037169E+04</totfact>
</mgrwt>
</event>
<event>
 4    1  0.5694171E+003  0.1046466E+03  0.7546771E-02  0.1270818E+00
         21   -1    0    0  504  501  0.00000000000E+00  0.00000000000E+00  0.86941708524E+03  0.86941708524E+03  0.00000000000E+00 0.  1.
         21   -1    0    0  503  502 -0.00000000000E+00 -0.00000000000E+00 -0.12616289791E+02  0.12616289791E+02  0.00000000000E+00 0.  1.
         21    1    1    2  503  501  0.10182443661E+03  0.24138914113E+02  0.44622342427E+03  0.45832984567E+03  0.00000000000E+00 0.  1.
         21    1    1    2  504  502 -0.10182443661E+03 -0.24138914113E+02  0.41057737119E+03  0.42370352937E+03  0.00000000000E+00 0.  1.
<mgrwt>
<rscale>  2 0.10464656E+03</rscale>
<asrwt>0</asrwt>
<pdfrwt beam="1">  1       21 0.13375643E+00 0.10464656E+03</pdfrwt>
<pdfrwt beam="2">  1       21 0.19409683E-02 0.10464656E+03</pdfrwt>
<totfact> 0.53014268E+05</totfact>
</mgrwt>
</event>
<event>
 4    1  0.5694171E+003  0.1064651E+03  0.7546771E-02  0.1267260E+00
         21   -1    0    0  503  501  0.00000000000E+00  0.00000000000E+00  0.51625029154E+02  0.51625029154E+02  0.00000000000E+00 0. -1.
         21   -1    0    0  504  502 -0.00000000000E+00 -0.00000000000E+00 -0.26474082441E+03  0.26474082441E+03  0.00000000000E+00 0. -1.
         21    1    1    2  503  502  0.72116324014E+02 -0.78320183540E+02 -0.41211147267E+02  0.11416292742E+03  0.00000000000E+00 0. -1.
         21    1    1    2  504  501 -0.72116324014E+02  0.78320183540E+02 -0.17190464798E+03  0.20220292614E+03  0.00000000000E+00 0. -1.
<mgrwt>
<rscale>  2 0.10646509E+03</rscale>
<asrwt>0</asrwt>
<pdfrwt beam="1">  1       21 0.79423119E-02 0.10646509E+03</pdfrwt>
<pdfrwt beam="2">  1       21 0.40729359E-01 0.10646509E+03</pdfrwt>
<totfact> 0.70916603E+05</totfact>
</mgrwt>
</event>
<event>
 4    1  0.5694171E+003  0.1192291E+03  0.7546771E-02  0.1244374E+00
         21   -1    0    0  502  501  0.00000000000E+00  0.00000000000E+00  0.37356992146E+03  0.37356992146E+03  0.00000000000E+00 0.  1.
         21   -1    0    0  504  502 -0.00000000000E+00 -0.00000000000E+00 -0.13307881478E+03  0.13307881478E+03  0.00000000000E+00 0. -1.
         21    1    1    2  503  501 -0.36053090856E+02  0.11364749193E+03  0.33430902442E+03  0.35493393976E+03  0.00000000000E+00 0.  1.
         21    1    1    2  504  503  0.36053090856E+02 -0.11364749193E+03 -0.93817917737E+02  0.15171479648E+03  0.00000000000E+00 0. -1.
<mgrwt>
<rscale>  2 0.11922910E+03</rscale>
<asrwt>0</asrwt>
<pdfrwt beam="1">  1       21 0.57472295E-01 0.11922910E+03</pdfrwt>
<pdfrwt beam="2">  1       21 0.20473664E-01 0.11922910E+03</pdfrwt>
<totfact> 0.64974902E+04</totfact>
</mgrwt>
</event>
<event>
 4    1  0.5694171E+003  0.1221961E+03  0.7546771E-02  0.1239518E+00
         21   -1    0    0  503  501  0.00000000000E+00  0.00000000000E+00  0.12935964588E+03  0.12935964588E+03  0.00000000000E+00 0. -1.
         21   -1    0    0  504  502 -0.00000000000E+00 -0.00000000000E+00 -0.23909573988E+03  0.23909573988E+03  0.00000000000E+00 0. -1.
         21    1    1    2  503  502 -0.91040703584E+02  0.81507532664E+02 -0.18736167797E+03  0.22368792091E+03  0.00000000000E+00 0. -1.
         21    1    1    2  504  501  0.91040703584E+02 -0.81507532664E+02  0.77625583977E+02  0.14476746485E+03  0.00000000000E+00 0. -1.
<mgrwt>
<rscale>  2 0.12219610E+03</rscale>
<asrwt>0</asrwt>
<pdfrwt beam="1">  1       21 0.19901484E-01 0.12219610E+03</pdfrwt>
<pdfrwt beam="2">  1       21 0.36783959E-01 0.12219610E+03</pdfrwt>
<totfact> 0.16960994E+05</totfact>
</mgrwt>
</event>
<event>
 4    1  0.5694171E+003  0.1051690E+03  0.7546771E-02  0.1269787E+00
         21   -1    0    0  502  501  0.00000000000E+00  0.00000000000E+00  0.73253213916E+02  0.73253213916E+02  0.00000000000E+00 0.  1.
         21   -1    0    0  504  502 -0.00000000000E+00 -0.00000000000E+00 -0.17645936874E+03  0.17645936874E+03  0.00000000000E+00 0.  1.
         21    1    1    2  503  501 -0.30960885171E+02 -0.10050843282E+03 -0.41685057615E+01  0.10525159342E+03  0.00000000000E+00 0.  1.
         21    1    1    2  504  503  0.30960885171E+02  0.10050843282E+03 -0.99037649065E+02  0.14446098923E+03  0.00000000000E+00 0.  1.
<mgrwt>
<rscale>  2 0.10516901E+03</rscale>
<asrwt>0</asrwt>
<pdfrwt beam="1">  1       21 0.11269725E-01 0.10516901E+03</pdfrwt>
<pdfrwt beam="2">  1       21 0.27147595E-01 0.10516901E+03</pdfrwt>
<totfact> 0.85002526E+05</totfact>
</mgrwt>
</event>
<event>
 4    1  0.5694171E+003  0.1074352E+03  0.7546771E-02  0.1265395E+00
         21   -1    0    0  503  501  0.00000000000E+00  0.00000000000E+00  0.15251764801E+03  0.15251764801E+03  0.00000000000E+00 0. -1.
         21   -1    0    0  504  502 -0.00000000000E+00 -0.00000000000E+00 -0.13063838303E+03  0.13063838303E+03  0.00000000000E+00 0. -1.
         21    1    1    2  503  502 -0.99824045175E+02 -0.39717579392E+02  0.10276926002E+03  0.14867362548E+03  0.00000000000E+00 0. -1.
         21    1    1    2  504  501  0.99824045175E+02  0.39717579392E+02 -0.80889995039E+02  0.13448240556E+03  0.00000000000E+00 0. -1.
<mgrwt>
<rscale>  2 0.10743522E+03</rscale>
<asrwt>0</asrwt>
<pdfrwt beam="1">  1       21 0.23464253E-01 0.10743522E+03</pdfrwt>
<pdfrwt beam="2">  1       21 0.20098213E-01 0.10743522E+03</pdfrwt>
<totfact> 0.39593868E+05</totfact>
</mgrwt>
</event>
<event>
 4    1  0.5694171E+003  0.1571437E+03  0.7546771E-02  0.1191960E+00
         21   -1    0    0  502  501  0.00000000000E+00  0.00000000000E+00  0.62126773902E+02  0.62126773902E+02  0.00000000000E+00 0.  1.
         21   -1    0    0  504  502 -0.00000000000E+00 -0.00000000000E+00 -0.84962810115E+03  0.84962810115E+03  0.00000000000E+00 0.  1.
         21    1    1    2  503  501  0.12555333443E+03  0.94501353044E+02 -0.61187566971E+02  0.16863589139E+03  0.00000000000E+00 0.  1.
         21    1    1    2  504  503 -0.12555333443E+03 -0.94501353044E+02 -0.72631376028E+03  0.74311898367E+03  0.00000000000E+00 0.  1.
<mgrwt>
<rscale>  2 0.15714371E+03</rscale>
<asrwt>0</asrwt>
<pdfrwt beam="1">  1       21 0.95579650E-02 0.15714371E+03</pdfrwt>
<pdfrwt beam="2">  1       21 0.13071202E+00 0.15714371E+03</pdfrwt>
<totfact> 0.38264664E+04</totfact>
</mgrwt>
</event>
<event>
 4    1  0.5694171E+003  0.1020069E+03  0.7546771E-02  0.1276131E+00
         21   -1    0    0  504  501  0.00000000000E+00  0.00000000000E+00  0.12883086038E+03  0.12883086038E+03  0.00000000000E+00 0.  1.
         21   -1    0    0  503  502 -0.00000000000E+00 -0.00000000000E+00 -0.15383675534E+03  0.15383675534E+03  0.00000000000E+00 0. -1.
         21    1    1    2  503  501  0.10169185577E+03 -0.80107095049E+01  0.84902219687E+02  0.13271696163E+03  0.00000000000E+00 0.  1.
         21    1    1    2  504  502 -0.10169185577E+03  0.80107095049E+01 -0.10990811465E+03  0.14995065409E+03  0.00000000000E+00 0. -1.
<mgrwt>
<rscale>  2 0.10200689E+03</rscale>
<asrwt>0</asrwt>
<pdfrwt beam="1">  1       21 0.19820132E-01 0.10200689E+03</pdfrwt>
<pdfrwt beam="2">  1       21 0.23667193E-01 0.10200689E+03</pdfrwt>
<totfact> 0.39992935E+05</totfact>
</mgrwt>
</event>
<event>
 4    1  0.5694171E+003  0.1689937E+03  0.7546771E-02  0.1178901E+00
         21   -1    0    0  504  501  0.00000000000E+00  0.00000000000E+00  0.56986987384E+02  0.56986987384E+02  0.00000000000E+00 0.  1.
         21   -1    0    0  503  502 -0.00000000000E+00 -0.00000000000E+00 -0.57575925533E+03  0.57575925533E+03  0.00000000000E+00 0.  1.
         21    1    1    2  503  501  0.51383738538E+02 -0.16099244111E+03 -0.37327580981E+03  0.40974831893E+03  0.00000000000E+00 0.  1.
         21    1    1    2  504  502 -0.51383738538E+02  0.16099244111E+03 -0.14549645813E+03  0.22299792378E+03  0.00000000000E+00 0.  1.
<mgrwt>
<rscale>  2 0.16899365E+03</rscale>
<asrwt>0</asrwt>
<pdfrwt beam="1">  1       21 0.87672289E-02 0.16899365E+03</pdfrwt>
<pdfrwt beam="2">  1       21 0.88578346E-01 0.16899365E+03</pdfrwt>
<totfact> 0.11251898E+05</totfact>
</mgrwt>
</event>
<event>
 4    1  0.5694171E+003  0.1117343E+03  0.7546771E-02  0.1257392E+00
         21   -1    0    0  504  501  0.00000000000E+00  0.00000000000E+00  0.17093846272E+04  0.17093846272E+04  0.00000000000E+00 0. -1.
         21   -1    0    0  503  502 -0.00000000000E+00 -0.00000000000E+00 -0.83581077754E+01  0.83581077754E+01  0.00000000000E+00 0. -1.
         21    1    1    2  503  501 -0.15084746629E+02  0.11071135660E+03  0.11555920282E+04  0.11609812616E+04  0.00000000000E+00 0. -1.
         21    1    1    2  504  502  0.15084746629E+02 -0.11071135660E+03  0.54543449128E+03  0.55676147346E+03  0.00000000000E+00 0. -1.
<mgrwt>
<rscale>  2 0.11173430E+03</rscale>
<asrwt>0</asrwt>
<pdfrwt beam="1">  1       21 0.26298197E+00 0.11173430E+03</pdfrwt>
<pdfrwt beam="2">  1       21 0.12858641E-02 0.11173430E+03</pdfrwt>
<totfact> 0.14957260E+05</totfact>
</mgrwt>
</event>
<event>
 4    1  0.5694171E+003  0.1145779E+03  0.7546771E-02  0.1252320E+00
         21   -1    0    0  504  501  0.00000000000E+00  0.00000000000E+00  0.31822005973E+03  0.31822005973E+03  0.00000000000E+00 0. -1.
         21   -1    0    0  503  502 -0.00000000000E+00 -0.00000000000E+00 -0.41409610800E+02  0.41409610800E+02  0.00000000000E+00 0. -1.
         21    1    1    2  503  501  0.85359837053E+02 -0.76431665910E+02  0.14940012673E+03  0.18827771828E+03  0.00000000000E+00 0. -1.
         21    1    1    2  504  502 -0.85359837053E+02  0.76431665910E+02  0.12741032221E+03  0.17135195225E+03  0.00000000000E+00 0. -1.
<mgrwt>
<rscale>  2 0.11457793E+03</rscale>
<asrwt>0</asrwt>
<pdfrwt beam="1">  1       21 0.48956931E-01 0.11457793E+03</pdfrwt>
<pdfrwt beam="2">  1       21 0.63707096E-02 0.11457793E+03</pdfrwt>
<totfact> 0.71222141E+05</totfact>
</mgrwt>
</event>
<event>
 4    1  0.5694171E+003  0.1006083E+03  0.7546771E-02  0.1279022E+00
         21   -1    0    0  503  501  0.00000000000E+00  0.00000000000E+00  0.32752540744E+03  0.32752540744E+03  0.00000000000E+00 0. -1.
         21   -1    0    0  504  502 -0.00000000000E+00 -0.00000000000E+00 -0.32083896161E+02  0.32083896161E+02  0.00000000000E+00 0. -1.
         21    1    1    2  503  502 -0.30946658797E+01  0.10056065442E+03  0.18219381252E+03  0.20812642191E+03  0.00000000000E+00 0. -1.
         21    1    1    2  504  501  0.30946658797E+01 -0.10056065442E+03  0.11324769876E+03  0.15148288170E+03  0.00000000000E+00 0. -1.
<mgrwt>
<rscale>  2 0.10060826E+03</rscale>
<asrwt>0</asrwt>
<pdfrwt beam="1">  1       21 0.50388522E-01 0.10060826E+03</pdfrwt>
<pdfrwt beam="2">  1       21 0.49359842E-02 0.10060826E+03</pdfrwt>
<totfact> 0.10301839E+06</totfact>
</mgrwt>
</event>
<event>
 4    1  0.5694171E+003  0.1156958E+03  0.7546771E-02  0.1250371E+00
         21   -1    0    0  503  501  0.00000000000E+00  0.00000000000E+00  0.52826334833E+02  0.52826334833E+02  0.00000000000E+00 0.  1.
         21   -1    0    0  504  502 -0.00000000000E+00 -0.00000000000E+00 -0.26298793809E+03  0.26298793809E+03  0.00000000000E+00 0. -1.
         21    1    1    2  503  502 -0.13854607053E+02  0.11486323318E+03 -0.74909911585E+02  0.13782963153E+03  0.00000000000E+00 0.  1.
         21    1    1    2  504  501  0.13854607053E+02 -0.11486323318E+03 -0.13525169167E+03  0.17798464140E+03  0.00000000000E+00 0. -1.
<mgrwt>
<rscale>  2 0.11569578E+03</rscale>
<asrwt>0</asrwt>
<pdfrwt beam="1">  1       21 0.81271283E-02 0.11569578E+03</pdfrwt>
<pdfrwt beam="2">  1       21 0.40459684E-01 0.11569578E+03</pdfrwt>
<totfact> 0.69086916E+05</totfact>
</mgrwt>
</event>
<event>
 4    1  0.5694171E+003  0.1783129E+03  0.7546771E-02  0.1169446E+00
         21   -1    0    0  504  501  0.00000000000E+00  0.00000000000E+00  0.35165972345E+03  0.35165972345E+03  0.00000000000E+00 0.  1.
         21   -1    0    0  503  502 -0.00000000000E+00 -0.00000000000E+00 -0.43837615098E+03  0.43837615098E+03  0.00000000000E+00 0.  1.
         21    1    1    2  503  501 -0.12944163533E+03 -0.12263917676E+03 -0.39528992245E+03  0.43364689256E+03  0.00000000000E+00 0.  1.
         21    1    1    2  504  502  0.12944163533E+03  0.12263917676E+03  0.30857349492E+03  0.35638898187E+03  0.00000000000E+00 0.  1.
<mgrwt>
<rscale>  2 0.17831294E+03</rscale>
<asrwt>0</asrwt>
<pdfrwt beam="1">  1       21 0.54101496E-01 0.17831294E+03</pdfrwt>
<pdfrwt beam="2">  1       21 0.67442485E-01 0.17831294E+03</pdfrwt>
<totfact> 0.65651543E+03</totfact>
</mgrwt>
</event>
<event>
 4    1  0.5694171E+003  0.1127926E+03  0.7546771E-02  0.1255484E+00
         21   -1    0    0  503  501  0.00000000000E+00  0.00000000000E+00  0.20853930651E+03  0.20853930651E+03  0.00000000000E+00 0.  1.
         21   -1    0    0  501  502 -0.00000000000E+00 -0.00000000000E+00 -0.99562832704E+02  0.99562832704E+02  0.00000000000E+00 0.  1.
         21    1    1    2  503  504  0.28474141576E+02 -0.10913928395E+03  0.15035464849E+03  0.18795925187E+03  0.00000000000E+00 0.  1.
         21    1    1    2  504  502 -0.28474141576E+02  0.10913928395E+03 -0.41378174687E+02  0.12014288735E+03  0.00000000000E+00 0.  1.
<mgrwt>
<rscale>  2 0.11279255E+03</rscale>
<asrwt>0</asrwt>
<pdfrwt beam="1">  1       21 0.32082970E-01 0.11279255E+03</pdfrwt>
<pdfrwt beam="2">  1       21 0.15317359E-01 0.11279255E+03</pdfrwt>
<totfact> 0.35776947E+05</totfact>
</mgrwt>
</event>
<event>
 4    1  0.5694171E+003  0.1116587E+03  0.7546771E-02  0.1257529E+00
         21   -1    0    0  502  501  0.00000000000E+00  0.00000000000E+00  0.10537606464E+04  0.10537606464E+04  0.00000000000E+00 0.  1.
         21   -1    0    0  504  502 -0.00000000000E+00 -0.00000000000E+00 -0.39671934947E+02  0.39671934947E+02  0.00000000000E+00 0.  1.
         21    1    1    2  503  501 -0.26311821992E+02  0.10851432967E+03  0.96503601783E+03  0.97147423405E+03  0.00000000000E+00 0.  1.
         21    1    1    2  504  503  0.26311821992E+02 -0.10851432967E+03  0.49052693597E+02  0.12195834727E+03  0.00000000000E+00 0.  1.
<mgrwt>
<rscale>  2 0.11165873E+03</rscale>
<asrwt>0</asrwt>
<pdfrwt beam="1">  1       21 0.16211700E+00 0.11165873E+03</pdfrwt>
<pdfrwt beam="2">  1       21 0.61033754E-02 0.11165873E+03</pdfrwt>
<totfact> 0.49076663E+04</totfact>
</mgrwt>
</event>
<event>
 4    1  0.5694171E+003  0.1299347E+03  0.7546771E-02  0.1227553E+00
         21   -1    0    0  504  501  0.00000000000E+00  0.00000000000E+00  0.20718431284E+02  0.20718431284E+02  0.00000000000E+00 0.  1.
         21   -1    0    0  503  502 -0.00000000000E+00 -0.00000000000E+00 -0.81701131858E+03  0.81701131858E+03  0.00000000000E+00 0.  1.
         21    1    1    2  503  501  0.12976863964E+03  0.65667757628E+01 -0.37674970632E+03  0.39852649045E+03  0.00000000000E+00 0.  1.
         21    1    1    2  504  502 -0.12976863964E+03 -0.65667757628E+01 -0.41954318098E+03  0.43920325942E+03  0.00000000000E+00 0.  1.
<mgrwt>
<rscale>  2 0.12993469E+03</rscale>
<asrwt>0</asrwt>
<pdfrwt beam="1">  1       21 0.31874514E-02 0.12993469E+03</pdfrwt>
<pdfrwt beam="2">  1       21 0.12569403E+00 0.12993469E+03</pdfrwt>
<totfact> 0.27452229E+05</totfact>
</mgrwt>
</event>
<event>
 4    1  0.5694171E+003  0.1020875E+03  0.7546771E-02  0.1275966E+00
         21   -1    0    0  502  501  0.00000000000E+00  0.00000000000E+00  0.76579885637E+03  0.76579885637E+03  0.00000000000E+00 0.  1.
         21   -1    0    0  503  502 -0.00000000000E+00 -0.00000000000E+00 -0.72549394534E+02  0.72549394534E+02  0.00000000000E+00 0.  1.
         21    1    1    2  503  504 -0.97320077993E+00 -0.10208289172E+03 -0.31194077500E+02  0.10674705791E+03  0.00000000000E+00 0.  1.
         21    1    1    2  504  501  0.97320077993E+00  0.10208289172E+03  0.72444353934E+03  0.73160119299E+03  0.00000000000E+00 0.  1.
<mgrwt>
<rscale>  2 0.10208753E+03</rscale>
<asrwt>0</asrwt>
<pdfrwt beam="1">  1       21 0.11781520E+00 0.10208753E+03</pdfrwt>
<pdfrwt beam="2">  1       21 0.11161446E-01 0.10208753E+03</pdfrwt>
<totfact> 0.39097923E+04</totfact>
</mgrwt>
</event>
<event>
 4    1  0.5694171E+003  0.1610616E+03  0.7546771E-02  0.1187503E+00
         21   -1    0    0  503  501  0.00000000000E+00  0.00000000000E+00  0.27537323409E+03  0.27537323409E+03  0.00000000000E+00 0. -1.
         21   -1    0    0  504  502 -0.00000000000E+00 -0.00000000000E+00 -0.40108499187E+03  0.40108499187E+03  0.00000000000E+00 0. -1.
         21    1    1    2  503  502 -0.94465569072E+02 -0.13044965040E+03 -0.35871081290E+03  0.39321025206E+03  0.00000000000E+00 0. -1.
         21    1    1    2  504  501  0.94465569072E+02  0.13044965040E+03  0.23299905512E+03  0.28324797390E+03  0.00000000000E+00 0. -1.
<mgrwt>
<rscale>  2 0.16106165E+03</rscale>
<asrwt>0</asrwt>
<pdfrwt beam="1">  1       21 0.42365113E-01 0.16106165E+03</pdfrwt>
<pdfrwt beam="2">  1       21 0.61705384E-01 0.16106165E+03</pdfrwt>
<totfact> 0.13364804E+04</totfact>
</mgrwt>
</event>
<event>
 4    1  0.5694171E+003  0.1125459E+03  0.7546771E-02  0.1255927E+00
         21   -1    0    0  504  501  0.00000000000E+00  0.00000000000E+00  0.69824131178E+02  0.69824131178E+02  0.00000000000E+00 0. -1.
         21   -1    0    0  503  502 -0.00000000000E+00 -0.00000000000E+00 -0.37349948907E+03  0.37349948907E+03  0.00000000000E+00 0. -1.
         21    1    1    2  503  501  0.81673435945E+02 -0.77434024062E+02  0.71272023224E+01  0.11277134048E+03  0.00000000000E+00 0. -1.
         21    1    1    2  504  502 -0.81673435945E+02  0.77434024062E+02 -0.31080256022E+03  0.33055227977E+03  0.00000000000E+00 0. -1.
<mgrwt>
<rscale>  2 0.11254589E+03</rscale>
<asrwt>0</asrwt>
<pdfrwt beam="1">  1       21 0.10742174E-01 0.11254589E+03</pdfrwt>
<pdfrwt beam="2">  1       21 0.57461460E-01 0.11254589E+03</pdfrwt>
<totfact> 0.20775453E+05</totfact>
</mgrwt>
</event>
<event>
 4    1  0.5694171E+003  0.1051663E+03  0.7546771E-02  0.1269792E+00
         21   -1    0    0  504  501  0.00000000000E+00  0.00000000000E+00  0.63936316659E+03  0.63936316659E+03  0.00000000000E+00 0. -1.
         21   -1    0    0  503  502 -0.00000000000E+00 -0.00000000000E+00 -0.26042975537E+02  0.26042975537E+02  0.00000000000E+00 0.  1.
         21    1    1    2  503  501  0.51276591506E+02  0.91818652179E+02  0.49944858963E+03  0.51040067340E+03  0.00000000000E+00 0. -1.
         21    1    1    2  504  502 -0.51276591506E+02 -0.91818652179E+02  0.11387160142E+03  0.15500546873E+03  0.00000000000E+00 0.  1.
<mgrwt>
<rscale>  2 0.10516631E+03</rscale>
<asrwt>0</asrwt>
<pdfrwt beam="1">  1       21 0.98363552E-01 0.10516631E+03</pdfrwt>
<pdfrwt beam="2">  1       21 0.40066121E-02 0.10516631E+03</pdfrwt>
<totfact> 0.34053468E+05</totfact>
</mgrwt>
</event>
<event>
 4    1  0.5694171E+003  0.1241520E+03  0.7546771E-02  0.1236401E+00
         21   -1    0    0  504  501  0.00000000000E+00  0.00000000000E+00  0.13112451333E+03  0.13112451333E+03  0.00000000000E+00 0. -1.
         21   -1    0    0  501  502 -0.00000000000E+00 -0.00000000000E+00 -0.31618810854E+03  0.31618810854E+03  0.00000000000E+00 0. -1.
         21    1    1    2  503  502  0.11679403751E+03  0.42105542307E+02 -0.26980347949E+03  0.29699771284E+03  0.00000000000E+00 0. -1.
         21    1    1    2  504  503 -0.11679403751E+03 -0.42105542307E+02  0.84739884281E+02  0.15031490903E+03  0.00000000000E+00 0. -1.
<mgrwt>
<rscale>  2 0.12415202E+03</rscale>
<asrwt>0</asrwt>
<pdfrwt beam="1">  1       21 0.20173002E-01 0.12415202E+03</pdfrwt>
<pdfrwt beam="2">  1       21 0.48644324E-01 0.12415202E+03</pdfrwt>
<totfact> 0.94196203E+04</totfact>
</mgrwt>
</event>
<event>
 4    1  0.5694171E+003  0.1065666E+03  0.7546771E-02  0.1267063E+00
         21   -1    0    0  504  501  0.00000000000E+00  0.00000000000E+00  0.12754665032E+03  0.12754665032E+03  0.00000000000E+00 0. -1.
         21   -1    0    0  501  502 -0.00000000000E+00 -0.00000000000E+00 -0.35760846177E+03  0.35760846177E+03  0.00000000000E+00 0. -1.
         21    1    1    2  503  502 -0.83967145104E+02 -0.65619765239E+02 -0.32525197903E+03  0.34226493380E+03  0.00000000000E+00 0. -1.
         21    1    1    2  504  503  0.83967145104E+02  0.65619765239E+02  0.95190167586E+02  0.14289017829E+03  0.00000000000E+00 0. -1.
<mgrwt>
<rscale>  2 0.10656658E+03</rscale>
<asrwt>0</asrwt>
<pdfrwt beam="1">  1       21 0.19622562E-01 0.10656658E+03</pdfrwt>
<pdfrwt beam="2">  1       21 0.55016686E-01 0.10656658E+03</pdfrwt>
<totfact> 0.77514499E+04</totfact>
</mgrwt>
</event>
<event>
 4    1  0.5694171E+003  0.1096078E+03  0.7546771E-02  0.1261298E+00
         21   -1    0    0  504  501  0.00000000000E+00  0.00000000000E+00  0.41087549395E+02  0.41087549395E+02  0.00000000000E+00 0. -1.
         21   -1    0    0  503  502 -0.00000000000E+00 -0.00000000000E+00 -0.50646710572E+03  0.50646710572E+03  0.00000000000E+00 0. -1.
         21    1    1    2  503  501  0.10729815137E+03  0.22382479700E+02 -0.41068160267E+03  0.42505675792E+03  0.00000000000E+00 0. -1.
         21    1    1    2  504  502 -0.10729815137E+03 -0.22382479700E+02 -0.54697953664E+02  0.12249789720E+03  0.00000000000E+00 0. -1.
<mgrwt>
<rscale>  2 0.10960779E+03</rscale>
<asrwt>0</asrwt>
<pdfrwt beam="1">  1       21 0.63211617E-02 0.10960779E+03</pdfrwt>
<pdfrwt beam="2">  1       21 0.77918014E-01 0.10960779E+03</pdfrwt>
<totfact> 0.26875300E+05</totfact>
</mgrwt>
</event>
<event>
 4    1  0.5694171E+003  0.2699027E+03  0.7546771E-02  0.1101335E+00
         21   -1    0    0  503  501  0.00000000000E+00  0.00000000000E+00  0.14259508478E+03  0.14259508478E+03  0.00000000000E+00 0. -1.
         21   -1    0    0  504  502 -0.00000000000E+00 -0.00000000000E+00 -0.76427288609E+03  0.76427288609E+03  0.00000000000E+00 0.  1.
         21    1    1    2  503  502 -0.12702948429E+03  0.23814066461E+03 -0.57193244304E+03  0.63241931139E+03  0.00000000000E+00 0.  1.
         21    1    1    2  504  501  0.12702948429E+03 -0.23814066461E+03 -0.49745358268E+02  0.27444865948E+03  0.00000000000E+00 0. -1.
<mgrwt>
<rscale>  2 0.26990270E+03</rscale>
<asrwt>0</asrwt>
<pdfrwt beam="1">  1       21 0.21937706E-01 0.26990270E+03</pdfrwt>
<pdfrwt beam="2">  1       21 0.11758044E+00 0.26990270E+03</pdfrwt>
<totfact> 0.10272120E+04</totfact>
</mgrwt>
</event>
<event>
 4    1  0.5694171E+003  0.1067240E+03  0.7546771E-02  0.1266760E+00
         21   -1    0    0  502  501  0.00000000000E+00  0.00000000000E+00  0.17355022046E+03  0.17355022046E+03  0.00000000000E+00 0. -1.
         21   -1    0    0  504  502 -0.00000000000E+00 -0.00000000000E+00 -0.19443481381E+03  0.19443481381E+03  0.00000000000E+00 0. -1.
         21    1    1    2  503  501  0.49491247012E+02 -0.94554880325E+02  0.13931227447E+03  0.17549335812E+03  0.00000000000E+00 0. -1.
         21    1    1    2  504  503 -0.49491247012E+02  0.94554880325E+02 -0.16019686783E+03  0.19249167615E+03  0.00000000000E+00 0. -1.
<mgrwt>
<rscale>  2 0.10672398E+03</rscale>
<asrwt>0</asrwt>
<pdfrwt beam="1">  1       21 0.26700034E-01 0.10672398E+03</pdfrwt>
<pdfrwt beam="2">  1       21 0.29913048E-01 0.10672398E+03</pdfrwt>
<totfact> 0.14720906E+05</totfact>
</mgrwt>
</event>
<event>
 4    1  0.5694171E+003  0.1020373E+03  0.7546771E-02  0.1276069E+00
         21   -1    0    0  504  501  0.00000000000E+00  0.00000000000E+00  0.28900834442E+02  0.28900834442E+02  0.00000000000E+00 0.  1.
         21   -1    0    0  501  502 -0.00000000000E+00 -0.00000000000E+00 -0.45180410101E+03  0.45180410101E+03  0.00000000000E+00 0.  1.
         21    1    1    2  503  502 -0.98673584161E+02 -0.25983338535E+02 -0.31964620420E+03  0.33553733913E+03  0.00000000000E+00 0.  1.
         21    1    1    2  504  503  0.98673584161E+02  0.25983338535E+02 -0.10325706237E+03  0.14516759632E+03  0.00000000000E+00 0.  1.
<mgrwt>
<rscale>  2 0.10203730E+03</rscale>
<asrwt>0</asrwt>
<pdfrwt beam="1">  1       21 0.44462822E-02 0.10203730E+03</pdfrwt>
<pdfrwt beam="2">  1       21 0.69508323E-01 0.10203730E+03</pdfrwt>
<totfact> 0.62289791E+05</totfact>
</mgrwt>
</event>
<event>
 4    1  0.5694171E+003  0.1356250E+03  0.7546771E-02  0.1219340E+00
         21   -1    0    0  503  501  0.00000000000E+00  0.00000000000E+00  0.16295353607E+04  0.16295353607E+04  0.00000000000E+00 0.  1.
         21   -1    0    0  504  502 -0.00000000000E+00 -0.00000000000E+00 -0.10134861510E+03  0.10134861510E+03  0.00000000000E+00 0.  1.
         21    1    1    2  503  502 -0.30730471840E+02  0.13209761131E+03  0.15799175792E+04  0.15857281286E+04  0.00000000000E+00 0.  1.
         21    1    1    2  504  501  0.30730471840E+02 -0.13209761131E+03 -0.51730833642E+02  0.14515584715E+03  0.00000000000E+00 0.  1.
<mgrwt>
<rscale>  2 0.13562500E+03</rscale>
<asrwt>0</asrwt>
<pdfrwt beam="1">  1       21 0.25069773E+00 0.13562500E+03</pdfrwt>
<pdfrwt beam="2">  1       21 0.15592096E-01 0.13562500E+03</pdfrwt>
<totfact> 0.25911146E+03</totfact>
</mgrwt>
</event>
<event>
 4    1  0.5694171E+003  0.1000391E+03  0.7546771E-02  0.1280214E+00
         21   -1    0    0  502  501  0.00000000000E+00  0.00000000000E+00  0.17415284324E+04  0.17415284324E+04  0.00000000000E+00 0.  1.
         21   -1    0    0  504  502 -0.00000000000E+00 -0.00000000000E+00 -0.24370054018E+02  0.24370054018E+02  0.00000000000E+00 0.  1.
         21    1    1    2  503  501  0.14733145607E+02  0.98948259435E+02  0.16304380615E+04  0.16335042381E+04  0.00000000000E+00 0.  1.
         21    1    1    2  504  503 -0.14733145607E+02 -0.98948259435E+02  0.86720316957E+02  0.13239424836E+03  0.00000000000E+00 0.  1.
<mgrwt>
<rscale>  2 0.10003911E+03</rscale>
<asrwt>0</asrwt>
<pdfrwt beam="1">  1       21 0.26792735E+00 0.10003911E+03</pdfrwt>
<pdfrwt beam="2">  1       21 0.37492404E-02 0.10003911E+03</pdfrwt>
<totfact> 0.25366222E+04</totfact>
</mgrwt>
</event>
<event>
 4    1  0.5694171E+003  0.1110421E+03  0.7546771E-02  0.1258652E+00
         21   -1    0    0  504  501  0.00000000000E+00  0.00000000000E+00  0.82336214403E+02  0.82336214403E+02  0.00000000000E+00 0.  1.
         21   -1    0    0  503  502 -0.00000000000E+00 -0.00000000000E+00 -0.20420651515E+03  0.20420651515E+03  0.00000000000E+00 0.  1.
         21    1    1    2  503  501  0.10141576156E+03 -0.45223700091E+02 -0.13491708991E+03  0.17473683324E+03  0.00000000000E+00 0.  1.
         21    1    1    2  504  502 -0.10141576156E+03  0.45223700091E+02  0.13046789159E+02  0.11180589631E+03  0.00000000000E+00 0.  1.
<mgrwt>
<rscale>  2 0.11104206E+03</rscale>
<asrwt>0</asrwt>
<pdfrwt beam="1">  1       21 0.12667110E-01 0.11104206E+03</pdfrwt>
<pdfrwt beam="2">  1       21 0.31416387E-01 0.11104206E+03</pdfrwt>
<totfact> 0.52316906E+05</totfact>
</mgrwt>
</event>
<event>
 4    1  0.5694171E+003  0.1062680E+03  0.7546771E-02  0.1267641E+00
         21   -1    0    0  503  501  0.00000000000E+00  0.00000000000E+00  0.17479480085E+02  0.17479480085E+02  0.00000000000E+00 0. -1.
         21   -1    0    0  504  502 -0.00000000000E+00 -0.00000000000E+00 -0.67248670944E+03  0.67248670944E+03  0.00000000000E+00 0.  1.
         21    1    1    2  503  502  0.12852753760E+01 -0.10626026493E+03 -0.39588361733E+03  0.40989844389E+03  0.00000000000E+00 0.  1.
         21    1    1    2  504  501 -0.12852753760E+01  0.10626026493E+03 -0.25912361202E+03  0.28006774563E+03  0.00000000000E+00 0. -1.
<mgrwt>
<rscale>  2 0.10626804E+03</rscale>
<asrwt>0</asrwt>
<pdfrwt beam="1">  1       21 0.26891510E-02 0.10626804E+03</pdfrwt>
<pdfrwt beam="2">  1       21 0.10345948E+00 0.10626804E+03</pdfrwt>
<totfact> 0.58161920E+05</totfact>
</mgrwt>
</event>
<event>
 4    1  0.5694171E+003  0.1091732E+03  0.7546771E-02  0.1262109E+00
         21   -1    0    0  504  501  0.00000000000E+00  0.00000000000E+00  0.35161181291E+02  0.35161181291E+02  0.00000000000E+00 0.  1.
         21   -1    0    0  503  502 -0.00000000000E+00 -0.00000000000E+00 -0.46082880143E+03  0.46082880143E+03  0.00000000000E+00 0.  1.
         21    1    1    2  503  501  0.99913129992E+02 -0.44001713645E+02 -0.34035767951E+03  0.35743829447E+03  0.00000000000E+00 0.  1.
         21    1    1    2  504  502 -0.99913129992E+02  0.44001713645E+02 -0.85309940628E+02  0.13855168826E+03  0.00000000000E+00 0.  1.
<mgrwt>
<rscale>  2 0.10917319E+03</rscale>
<asrwt>0</asrwt>
<pdfrwt beam="1">  1       21 0.54094128E-02 0.10917319E+03</pdfrwt>
<pdfrwt beam="2">  1       21 0.70896735E-01 0.10917319E+03</pdfrwt>
<totfact> 0.42993425E+05</totfact>
</mgrwt>
</event>
<event>
 4    1  0.5694171E+003  0.1135423E+03  0.7546771E-02  0.1254147E+00
         21   -1    0    0  504  501  0.00000000000E+00  0.00000000000E+00  0.18189282199E+03  0.18189282199E+03  0.00000000000E+00 0. -1.
         21   -1    0    0  503  502 -0.00000000000E+00 -0.00000000000E+00 -0.17813300233E+03  0.17813300233E+03  0.00000000000E+00 0. -1.
         21    1    1    2  503  501 -0.24999711604E+02 -0.11075586503E+03 -0.13780328595E+03  0.17855417340E+03  0.00000000000E+00 0. -1.
         21    1    1    2  504  502  0.24999711604E+02  0.11075586503E+03  0.14156310561E+03  0.18147165092E+03  0.00000000000E+00 0. -1.
<mgrwt>
<rscale>  2 0.11354227E+03</rscale>
<asrwt>0</asrwt>
<pdfrwt beam="1">  1       21 0.27983511E-01 0.11354227E+03</pdfrwt>
<pdfrwt beam="2">  1       21 0.27405077E-01 0.11354227E+03</pdfrwt>
<totfact> 0.15878452E+05</totfact>
</mgrwt>
</event>
<event>
 4    1  0.5694171E+003  0.1003791E+03  0.7546771E-02  0.1279501E+00
         21   -1    0    0  503  501  0.00000000000E+00  0.00000000000E+00  0.42952812889E+03  0.42952812889E+03  0.00000000000E+00 0. -1.
         21   -1    0    0  504  502 -0.00000000000E+00 -0.00000000000E+00 -0.11560271317E+03  0.11560271317E+03  0.00000000000E+00 0.  1.
         21    1    1    2  503  502 -0.91412248128E+02  0.41470047347E+02  0.40030715767E+03  0.41270059900E+03  0.00000000000E+00 0. -1.
         21    1    1    2  504  501  0.91412248128E+02 -0.41470047347E+02 -0.86381741944E+02  0.13243024306E+03  0.00000000000E+00 0.  1.
<mgrwt>
<rscale>  2 0.10037910E+03</rscale>
<asrwt>0</asrwt>
<pdfrwt beam="1">  1       21 0.66081250E-01 0.10037910E+03</pdfrwt>
<pdfrwt beam="2">  1       21 0.17785033E-01 0.10037910E+03</pdfrwt>
<totfact> 0.63217606E+04</totfact>
</mgrwt>
</event>
<event>
 4    1  0.5694171E+003  0.1051476E+03  0.7546771E-02  0.1269829E+00
         21   -1    0    0  503  501  0.00000000000E+00  0.00000000000E+00  0.59063049796E+02  0.59063049796E+02  0.00000000000E+00 0.  1.
         21   -1    0    0  501  502 -0.00000000000E+00 -0.00000000000E+00 -0.62441891503E+03  0.62441891503E+03  0.00000000000E+00 0. -1.
         21    1    1    2  503  504  0.10505074739E+03 -0.45111371899E+01  0.32874718590E+01  0.10519894181E+03  0.00000000000E+00 0.  1.
         21    1    1    2  504  502 -0.10505074739E+03  0.45111371899E+01 -0.56864333709E+03  0.57828302301E+03  0.00000000000E+00 0. -1.
<mgrwt>
<rscale>  2 0.10514756E+03</rscale>
<asrwt>0</asrwt>
<pdfrwt beam="1">  1       21 0.90866233E-02 0.10514756E+03</pdfrwt>
<pdfrwt beam="2">  1       21 0.96064446E-01 0.10514756E+03</pdfrwt>
<totfact> 0.90230606E+04</totfact>
</mgrwt>
</event>
<event>
 4    1  0.5694171E+003  0.1209853E+03  0.7546771E-02  0.1241480E+00
         21   -1    0    0  503  501  0.00000000000E+00  0.00000000000E+00  0.17578838758E+03  0.17578838758E+03  0.00000000000E+00 0.  1.
         21   -1    0    0  504  502 -0.00000000000E+00 -0.00000000000E+00 -0.83293268942E+02  0.83293268942E+02  0.00000000000E+00 0.  1.
         21    1    1    2  503  502  0.10473242111E+03  0.60568711837E+02  0.43966370562E+02  0.12872641775E+03  0.00000000000E+00 0.  1.
         21    1    1    2  504  501 -0.10473242111E+03 -0.60568711837E+02  0.48528748078E+02  0.13035523877E+03  0.00000000000E+00 0.  1.
<mgrwt>
<rscale>  2 0.12098533E+03</rscale>
<asrwt>0</asrwt>
<pdfrwt beam="1">  1       21 0.27044367E-01 0.12098533E+03</pdfrwt>
<pdfrwt beam="2">  1       21 0.12814349E-01 0.12098533E+03</pdfrwt>
<totfact> 0.68291717E+05</totfact>
</mgrwt>
</event>
<event>
 4    1  0.5694171E+003  0.1045526E+03  0.7546771E-02  0.1271004E+00
         21   -1    0    0  503  501  0.00000000000E+00  0.00000000000E+00  0.12386398633E+03  0.12386398633E+03  0.00000000000E+00 0.  1.
         21   -1    0    0  504  502 -0.00000000000E+00 -0.00000000000E+00 -0.27961176250E+03  0.27961176250E+03  0.00000000000E+00 0.  1.
         21    1    1    2  503  502 -0.10447194074E+03  0.41071060205E+01  0.89017889465E+02  0.13731510975E+03  0.00000000000E+00 0.  1.
         21    1    1    2  504  501  0.10447194074E+03 -0.41071060205E+01 -0.24476566564E+03  0.26616063908E+03  0.00000000000E+00 0.  1.
<mgrwt>
<rscale>  2 0.10455264E+03</rscale>
<asrwt>0</asrwt>
<pdfrwt beam="1">  1       21 0.19055998E-01 0.10455264E+03</pdfrwt>
<pdfrwt beam="2">  1       21 0.43017194E-01 0.10455264E+03</pdfrwt>
<totfact> 0.13535552E+05</totfact>
</mgrwt>
</event>
<event>
 4    1  0.5694171E+003  0.1482494E+03  0.7546771E-02  0.1202641E+00
         21   -1    0    0  503  501  0.00000000000E+00  0.00000000000E+00  0.60673491803E+02  0.60673491803E+02  0.00000000000E+00 0. -1.
         21   -1    0    0  504  502 -0.00000000000E+00 -0.00000000000E+00 -0.36308482993E+03  0.36308482993E+03  0.00000000000E+00 0. -1.
         21    1    1    2  503  502  0.11897208528E+03 -0.88450679315E+02 -0.16147442081E+03  0.21920736375E+03  0.00000000000E+00 0. -1.
         21    1    1    2  504  501 -0.11897208528E+03  0.88450679315E+02 -0.14093691732E+03  0.20455095798E+03  0.00000000000E+00 0. -1.
<mgrwt>
<rscale>  2 0.14824938E+03</rscale>
<asrwt>0</asrwt>
<pdfrwt beam="1">  1       21 0.93343831E-02 0.14824938E+03</pdfrwt>
<pdfrwt beam="2">  1       21 0.55859206E-01 0.14824938E+03</pdfrwt>
<totfact> 0.27952331E+05</totfact>
</mgrwt>
</event>
<event>
 4    1  0.5694171E+003  0.1298602E+03  0.7546771E-02  0.1227663E+00
         21   -1    0    0  504  501  0.00000000000E+00  0.00000000000E+00  0.26853629687E+03  0.26853629687E+03  0.00000000000E+00 0. -1.
         21   -1    0    0  503  502 -0.00000000000E+00 -0.00000000000E+00 -0.69097124811E+02  0.69097124811E+02  0.00000000000E+00 0. -1.
         21    1    1    2  503  501  0.88943626343E+01 -0.12955523036E+03  0.48750188290E+02  0.13870922197E+03  0.00000000000E+00 0. -1.
         21    1    1    2  504  502 -0.88943626343E+01  0.12955523036E+03  0.15068898377E+03  0.19892419971E+03  0.00000000000E+00 0. -1.
<mgrwt>
<rscale>  2 0.12986018E+03</rscale>
<asrwt>0</asrwt>
<pdfrwt beam="1">  1       21 0.41313276E-01 0.12986018E+03</pdfrwt>
<pdfrwt beam="2">  1       21 0.10630327E-01 0.12986018E+03</pdfrwt>
<totfact> 0.41507279E+05</totfact>
</mgrwt>
</event>
<event>
 4    1  0.5694171E+003  0.1088706E+03  0.7546771E-02  0.1262676E+00
         21   -1    0    0  504  501  0.00000000000E+00  0.00000000000E+00  0.41116978473E+03  0.41116978473E+03  0.00000000000E+00 0. -1.
         21   -1    0    0  503  502 -0.00000000000E+00 -0.00000000000E+00 -0.33834143231E+02  0.33834143231E+02  0.00000000000E+00 0.  1.
         21    1    1    2  503  501 -0.10882229772E+03  0.32420918285E+01  0.10307251025E+03  0.14992246666E+03  0.00000000000E+00 0. -1.
         21    1    1    2  504  502  0.10882229772E+03 -0.32420918285E+01  0.27426313125E+03  0.29508146130E+03  0.00000000000E+00 0.  1.
<mgrwt>
<rscale>  2 0.10887058E+03</rscale>
<asrwt>0</asrwt>
<pdfrwt beam="1">  1       21 0.63256887E-01 0.10887058E+03</pdfrwt>
<pdfrwt beam="2">  1       21 0.52052531E-02 0.10887058E+03</pdfrwt>
<totfact> 0.58621318E+05</totfact>
</mgrwt>
</event>
<event>
 4    1  0.5694171E+003  0.1223038E+03  0.7546771E-02  0.1239344E+00
         21   -1    0    0  504  501  0.00000000000E+00  0.00000000000E+00  0.84783246670E+03  0.84783246670E+03  0.00000000000E+00 0. -1.
         21   -1    0    0  503  502 -0.00000000000E+00 -0.00000000000E+00 -0.17679439526E+02  0.17679439526E+02  0.00000000000E+00 0. -1.
         21    1    1    2  503  501  0.11710029839E+03 -0.35295119709E+02  0.39540323596E+03  0.41388639065E+03  0.00000000000E+00 0. -1.
         21    1    1    2  504  502 -0.11710029839E+03  0.35295119709E+02  0.43474979121E+03  0.45162551557E+03  0.00000000000E+00 0. -1.
<mgrwt>
<rscale>  2 0.12230382E+03</rscale>
<asrwt>0</asrwt>
<pdfrwt beam="1">  1       21 0.13043573E+00 0.12230382E+03</pdfrwt>
<pdfrwt beam="2">  1       21 0.27199144E-02 0.12230382E+03</pdfrwt>
<totfact> 0.32550968E+05</totfact>
</mgrwt>
</event>
<event>
 4    1  0.5694171E+003  0.1339932E+03  0.7546771E-02  0.1221648E+00
         21   -1    0    0  503  501  0.00000000000E+00  0.00000000000E+00  0.48407682623E+02  0.48407682623E+02  0.00000000000E+00 0. -1.
         21   -1    0    0  504  502 -0.00000000000E+00 -0.00000000000E+00 -0.81995688000E+03  0.81995688000E+03  0.00000000000E+00 0.  1.
         21    1    1    2  503  502  0.11401077299E+03  0.70396888339E+02 -0.64460652197E+02  0.14869214480E+03  0.00000000000E+00 0. -1.
         21    1    1    2  504  501 -0.11401077299E+03 -0.70396888339E+02 -0.70708854518E+03  0.71967241782E+03  0.00000000000E+00 0.  1.
<mgrwt>
<rscale>  2 0.13399320E+03</rscale>
<asrwt>0</asrwt>
<pdfrwt beam="1">  1       21 0.74473364E-02 0.13399320E+03</pdfrwt>
<pdfrwt beam="2">  1       21 0.12614720E+00 0.13399320E+03</pdfrwt>
<totfact> 0.65316505E+04</totfact>
</mgrwt>
</event>
<event>
 4    1  0.5694171E+003  0.1693852E+03  0.7546771E-02  0.1178491E+00
         21   -1    0    0  503  501  0.00000000000E+00  0.00000000000E+00  0.36095614815E+03  0.36095614815E+03  0.00000000000E+00 0. -1.
         21   -1    0    0  504  502 -0.00000000000E+00 -0.00000000000E+00 -0.84291601231E+02  0.84291601231E+02  0.00000000000E+00 0. -1.
         21    1    1    2  503  502  0.96452170101E+02 -0.13924196533E+03  0.19148250605E+03  0.25564994846E+03  0.00000000000E+00 0. -1.
         21    1    1    2  504  501 -0.96452170101E+02  0.13924196533E+03  0.85182040872E+02  0.18959780092E+03  0.00000000000E+00 0. -1.
<mgrwt>
<rscale>  2 0.16938520E+03</rscale>
<asrwt>0</asrwt>
<pdfrwt beam="1">  1       21 0.55531714E-01 0.16938520E+03</pdfrwt>
<pdfrwt beam="2">  1       21 0.12967939E-01 0.16938520E+03</pdfrwt>
<totfact> 0.15724513E+05</totfact>
</mgrwt>
</event>
<event>
 4    1  0.5694171E+003  0.1780776E+03  0.7546771E-02  0.1169677E+00
         21   -1    0    0  504  501  0.00000000000E+00  0.00000000000E+00  0.53655135152E+03  0.53655135152E+03  0.00000000000E+00 0.  1.
         21   -1    0    0  503  502 -0.00000000000E+00 -0.00000000000E+00 -0.59612604352E+02  0.59612604352E+02  0.00000000000E+00 0. -1.
         21    1    1    2  503  501  0.15114874123E+02 -0.17743502009E+03  0.26603712462E+03  0.32013652940E+03  0.00000000000E+00 0.  1.
         21    1    1    2  504  502 -0.15114874123E+02  0.17743502009E+03  0.21090162254E+03  0.27602742647E+03  0.00000000000E+00 0. -1.
<mgrwt>
<rscale>  2 0.17807764E+03</rscale>
<asrwt>0</asrwt>
<pdfrwt beam="1">  1       21 0.82546359E-01 0.17807764E+03</pdfrwt>
<pdfrwt beam="2">  1       21 0.91711702E-02 0.17807764E+03</pdfrwt>
<totfact> 0.12172326E+05</totfact>
</mgrwt>
</event>
<event>
 4    1  0.5694171E+003  0.1150174E+03  0.7546771E-02  0.1251551E+00
         21   -1    0    0  502  501  0.00000000000E+00  0.00000000000E+00  0.17162865266E+03  0.17162865266E+03  0.00000000000E+00 0.  1.
         21   -1    0    0  503  502 -0.00000000000E+00 -0.00000000000E+00 -0.15082852414E+03  0.15082852414E+03  0.00000000000E+00 0.  1.
         21    1    1    2  503  504 -0.11424836186E+03  0.13278574358E+02 -0.10234023171E+03  0.15395626571E+03  0.00000000000E+00 0.  1.
         21    1    1    2  504  501  0.11424836186E+03 -0.13278574358E+02  0.12314036023E+03  0.16850091110E+03  0.00000000000E+00 0.  1.
<mgrwt>
<rscale>  2 0.11501743E+03</rscale>
<asrwt>0</asrwt>
<pdfrwt beam="1">  1       21 0.26404408E-01 0.11501743E+03</pdfrwt>
<pdfrwt beam="2">  1       21 0.23204388E-01 0.11501743E+03</pdfrwt>
<totfact> 0.24255817E+05</totfact>
</mgrwt>
</event>
<event>
 4    1  0.5694171E+003  0.1060567E+03  0.7546771E-02  0.1268051E+00
         21   -1    0    0  503  501  0.00000000000E+00  0.00000000000E+00  0.71194439974E+03  0.71194439974E+03  0.00000000000E+00 0.  1.
         21   -1    0    0  504  502 -0.00000000000E+00 -0.00000000000E+00 -0.15984084739E+02  0.15984084739E+02  0.00000000000E+00 0.  1.
         21    1    1    2  503  502 -0.62481709825E+02 -0.85697519849E+02  0.38714245539E+03  0.40140666379E+03  0.00000000000E+00 0.  1.
         21    1    1    2  504  501  0.62481709825E+02  0.85697519849E+02  0.30881785962E+03  0.32652182069E+03  0.00000000000E+00 0.  1.
<mgrwt>
<rscale>  2 0.10605673E+03</rscale>
<asrwt>0</asrwt>
<pdfrwt beam="1">  1       21 0.10952988E+00 0.10605673E+03</pdfrwt>
<pdfrwt beam="2">  1       21 0.24590905E-02 0.10605673E+03</pdfrwt>
<totfact> 0.58777177E+05</totfact>
</mgrwt>
</event>
<event>
 4    1  0.5694171E+003  0.1138925E+03  0.7546771E-02  0.1253527E+00
         21   -1    0    0  502  501  0.00000000000E+00  0.00000000000E+00  0.28265615859E+04  0.28265615859E+04  0.00000000000E+00 0.  1.
         21   -1    0    0  504  502 -0.00000000000E+00 -0.00000000000E+00 -0.34578477647E+02  0.34578477647E+02  0.00000000000E+00 0. -1.
         21    1    1    2  503  501 -0.64140116741E+02 -0.94114493140E+02  0.27282534635E+04  0.27306296808E+04  0.00000000000E+00 0.  1.
         21    1    1    2  504  503  0.64140116741E+02  0.94114493140E+02  0.63729644766E+02  0.13051038279E+03  0.00000000000E+00 0. -1.
<mgrwt>
<rscale>  2 0.11389246E+03</rscale>
<asrwt>0</asrwt>
<pdfrwt beam="1">  1       21 0.43485545E+00 0.11389246E+03</pdfrwt>
<pdfrwt beam="2">  1       21 0.53197680E-02 0.11389246E+03</pdfrwt>
<totfact> 0.14813159E+03</totfact>
</mgrwt>
</event>
<event>
 4    1  0.5694171E+003  0.1954516E+03  0.7546771E-02  0.1153634E+00
         21   -1    0    0  503  501  0.00000000000E+00  0.00000000000E+00  0.61348688859E+02  0.61348688859E+02  0.00000000000E+00 0.  1.
         21   -1    0    0  504  502 -0.00000000000E+00 -0.00000000000E+00 -0.62753390021E+03  0.62753390021E+03  0.00000000000E+00 0.  1.
         21    1    1    2  503  502 -0.19087298898E+02  0.19451735473E+03 -0.31334870485E+03  0.36930845794E+03  0.00000000000E+00 0.  1.
         21    1    1    2  504  501  0.19087298898E+02 -0.19451735473E+03 -0.25283650649E+03  0.31957413113E+03  0.00000000000E+00 0.  1.
<mgrwt>
<rscale>  2 0.19545160E+03</rscale>
<asrwt>0</asrwt>
<pdfrwt beam="1">  1       21 0.94382596E-02 0.19545160E+03</pdfrwt>
<pdfrwt beam="2">  1       21 0.96543679E-01 0.19545160E+03</pdfrwt>
<totfact> 0.80047995E+04</totfact>
</mgrwt>
</event>
<event>
 4    1  0.5694171E+003  0.1097041E+03  0.7546771E-02  0.1261119E+00
         21   -1    0    0  503  501  0.00000000000E+00  0.00000000000E+00  0.53331636385E+03  0.53331636385E+03  0.00000000000E+00 0.  1.
         21   -1    0    0  504  502 -0.00000000000E+00 -0.00000000000E+00 -0.24011849598E+02  0.24011849598E+02  0.00000000000E+00 0.  1.
         21    1    1    2  503  502 -0.85016162668E+02  0.69334244436E+02  0.18627961143E+03  0.21618297574E+03  0.00000000000E+00 0.  1.
         21    1    1    2  504  501  0.85016162668E+02 -0.69334244436E+02  0.32302490282E+03  0.34114523770E+03  0.00000000000E+00 0.  1.
<mgrwt>
<rscale>  2 0.10970408E+03</rscale>
<asrwt>0</asrwt>
<pdfrwt beam="1">  1       21 0.82048663E-01 0.10970408E+03</pdfrwt>
<pdfrwt beam="2">  1       21 0.36941311E-02 0.10970408E+03</pdfrwt>
<totfact> 0.58764443E+05</totfact>
</mgrwt>
</event>
<event>
 4    1  0.5694171E+003  0.1016035E+03  0.7546771E-02  0.1276960E+00
         21   -1    0    0  502  501  0.00000000000E+00  0.00000000000E+00  0.13605778426E+03  0.13605778426E+03  0.00000000000E+00 0.  1.
         21   -1    0    0  503  502 -0.00000000000E+00 -0.00000000000E+00 -0.11313228883E+03  0.11313228883E+03  0.00000000000E+00 0.  1.
         21    1    1    2  503  504  0.70931766946E+01  0.10135556686E+03 -0.60039259280E+02  0.11801684940E+03  0.00000000000E+00 0.  1.
         21    1    1    2  504  501 -0.70931766946E+01 -0.10135556686E+03  0.82964754712E+02  0.13117322369E+03  0.00000000000E+00 0.  1.
<mgrwt>
<rscale>  2 0.10160346E+03</rscale>
<asrwt>0</asrwt>
<pdfrwt beam="1">  1       21 0.20931967E-01 0.10160346E+03</pdfrwt>
<pdfrwt beam="2">  1       21 0.17404968E-01 0.10160346E+03</pdfrwt>
<totfact> 0.63668433E+05</totfact>
</mgrwt>
</event>
<event>
 4    1  0.5694171E+003  0.1020282E+03  0.7546771E-02  0.1276088E+00
         21   -1    0    0  504  501  0.00000000000E+00  0.00000000000E+00  0.43887839375E+02  0.43887839375E+02  0.00000000000E+00 0. -1.
         21   -1    0    0  501  502 -0.00000000000E+00 -0.00000000000E+00 -0.97762994483E+03  0.97762994483E+03  0.00000000000E+00 0.  1.
         21    1    1    2  503  502  0.82314493360E+02 -0.60283378381E+02 -0.91137290556E+03  0.91706615602E+03  0.00000000000E+00 0.  1.
         21    1    1    2  504  503 -0.82314493360E+02  0.60283378381E+02 -0.22369199892E+02  0.10445162818E+03  0.00000000000E+00 0. -1.
<mgrwt>
<rscale>  2 0.10202824E+03</rscale>
<asrwt>0</asrwt>
<pdfrwt beam="1">  1       21 0.67519740E-02 0.10202824E+03</pdfrwt>
<pdfrwt beam="2">  1       21 0.15040464E+00 0.10202824E+03</pdfrwt>
<totfact> 0.50681225E+04</totfact>
</mgrwt>
</event>
<event>
 4    1  0.5694171E+003  0.1047222E+03  0.7546771E-02  0.1270668E+00
         21   -1    0    0  503  501  0.00000000000E+00  0.00000000000E+00  0.52052816510E+03  0.52052816510E+03  0.00000000000E+00 0. -1.
         21   -1    0    0  504  502 -0.00000000000E+00 -0.00000000000E+00 -0.18495669531E+03  0.18495669531E+03  0.00000000000E+00 0. -1.
         21    1    1    2  503  502  0.10418883555E+03  0.10555621133E+02  0.49983042819E+03  0.51068306369E+03  0.00000000000E+00 0. -1.
         21    1    1    2  504  501 -0.10418883555E+03 -0.10555621133E+02 -0.16425895840E+03  0.19480179673E+03  0.00000000000E+00 0. -1.
<mgrwt>
<rscale>  2 0.10472218E+03</rscale>
<asrwt>0</asrwt>
<pdfrwt beam="1">  1       21 0.80081255E-01 0.10472218E+03</pdfrwt>
<pdfrwt beam="2">  1       21 0.28454876E-01 0.10472218E+03</pdfrwt>
<totfact> 0.17294286E+04</totfact>
</mgrwt>
</event>
<event>
 4    1  0.5694171E+003  0.1360474E+03  0.7546771E-02  0.1218749E+00
         21   -1    0    0  504  501  0.00000000000E+00  0.00000000000E+00  0.32463681408E+03  0.32463681408E+03  0.00000000000E+00 0. -1.
         21   -1    0    0  503  502 -0.00000000000E+00 -0.00000000000E+00 -0.64737077370E+02  0.64737077370E+02  0.00000000000E+00 0. -1.
         21    1    1    2  503  501 -0.13541538016E+03 -0.13098764109E+02  0.19719337111E+03  0.23957071694E+03  0.00000000000E+00 0. -1.
         21    1    1    2  504  502  0.13541538016E+03  0.13098764109E+02  0.62706365602E+02  0.14980317451E+03  0.00000000000E+00 0. -1.
<mgrwt>
<rscale>  2 0.13604743E+03</rscale>
<asrwt>0</asrwt>
<pdfrwt beam="1">  1       21 0.49944124E-01 0.13604743E+03</pdfrwt>
<pdfrwt beam="2">  1       21 0.99595505E-02 0.13604743E+03</pdfrwt>
<totfact> 0.31591144E+05</totfact>
</mgrwt>
</event>
<event>
 4    1  0.5694171E+003  0.1569599E+03  0.7546771E-02  0.1192172E+00
         21   -1    0    0  504  501  0.00000000000E+00  0.00000000000E+00  0.38529597753E+03  0.38529597753E+03  0.00000000000E+00 0.  1.
         21   -1    0    0  503  502 -0.00000000000E+00 -0.00000000000E+00 -0.12612433608E+03  0.12612433608E+03  0.00000000000E+00 0.  1.
         21    1    1    2  503  501 -0.15621173589E+03  0.15307434691E+02 -0.49963432175E+02  0.16472027362E+03  0.00000000000E+00 0.  1.
         21    1    1    2  504  502  0.15621173589E+03 -0.15307434691E+02  0.30913507362E+03  0.34670003999E+03  0.00000000000E+00 0.  1.
<mgrwt>
<rscale>  2 0.15695994E+03</rscale>
<asrwt>0</asrwt>
<pdfrwt beam="1">  1       21 0.59276303E-01 0.15695994E+03</pdfrwt>
<pdfrwt beam="2">  1       21 0.19403744E-01 0.15695994E+03</pdfrwt>
<totfact> 0.66021338E+04</totfact>
</mgrwt>
</event>
<event>
 4    1  0.5694171E+003  0.1062100E+03  0.7546771E-02  0.1267754E+00
         21   -1    0    0  504  501  0.00000000000E+00  0.00000000000E+00  0.16070880132E+02  0.16070880132E+02  0.00000000000E+00 0. -1.
         21   -1    0    0  503  502 -0.00000000000E+00 -0.00000000000E+00 -0.11595599134E+04  0.11595599134E+04  0.00000000000E+00 0. -1.
         21    1    1    2  503  501  0.80778033467E+02  0.68959904592E+02 -0.94102277683E+03  0.94699758482E+03  0.00000000000E+00 0. -1.
         21    1    1    2  504  502 -0.80778033467E+02 -0.68959904592E+02 -0.20246625644E+03  0.22863320872E+03  0.00000000000E+00 0. -1.
<mgrwt>
<rscale>  2 0.10620998E+03</rscale>
<asrwt>0</asrwt>
<pdfrwt beam="1">  1       21 0.24724432E-02 0.10620998E+03</pdfrwt>
<pdfrwt beam="2">  1       21 0.17839383E+00 0.10620998E+03</pdfrwt>
<totfact> 0.16974503E+05</totfact>
</mgrwt>
</event>
<event>
 4    1  0.5694171E+003  0.1258771E+03  0.7546771E-02  0.1233705E+00
         21   -1    0    0  503  501  0.00000000000E+00  0.00000000000E+00  0.26959301688E+03  0.26959301688E+03  0.00000000000E+00 0.  1.
         21   -1    0    0  501  502 -0.00000000000E+00 -0.00000000000E+00 -0.59361560284E+02  0.59361560284E+02  0.00000000000E+00 0.  1.
         21    1    1    2  503  504  0.83395621109E+02 -0.94287952839E+02  0.12147998809E+03  0.17493551720E+03  0.00000000000E+00 0.  1.
         21    1    1    2  504  502 -0.83395621109E+02  0.94287952839E+02  0.88751468500E+02  0.15401905996E+03  0.00000000000E+00 0.  1.
<mgrwt>
<rscale>  2 0.12587711E+03</rscale>
<asrwt>0</asrwt>
<pdfrwt beam="1">  1       21 0.41475848E-01 0.12587711E+03</pdfrwt>
<pdfrwt beam="2">  1       21 0.91325479E-02 0.12587711E+03</pdfrwt>
<totfact> 0.53714173E+05</totfact>
</mgrwt>
</event>
<event>
 4    1  0.5694171E+003  0.1211512E+03  0.7546771E-02  0.1241210E+00
         21   -1    0    0  503  501  0.00000000000E+00  0.00000000000E+00  0.16880151268E+03  0.16880151268E+03  0.00000000000E+00 0. -1.
         21   -1    0    0  504  502 -0.00000000000E+00 -0.00000000000E+00 -0.93696233133E+02  0.93696233133E+02  0.00000000000E+00 0. -1.
         21    1    1    2  503  502 -0.12092090863E+03  0.74668179860E+01  0.23396712826E+01  0.12117381556E+03  0.00000000000E+00 0. -1.
         21    1    1    2  504  501  0.12092090863E+03 -0.74668179860E+01  0.72765608263E+02  0.14132393025E+03  0.00000000000E+00 0. -1.
<mgrwt>
<rscale>  2 0.12115123E+03</rscale>
<asrwt>0</asrwt>
<pdfrwt beam="1">  1       21 0.25969464E-01 0.12115123E+03</pdfrwt>
<pdfrwt beam="2">  1       21 0.14414805E-01 0.12115123E+03</pdfrwt>
<totfact> 0.59774969E+05</totfact>
</mgrwt>
</event>
<event>
 4    1  0.5694171E+003  0.1095998E+03  0.7546771E-02  0.1261313E+00
         21   -1    0    0  504  501  0.00000000000E+00  0.00000000000E+00  0.14249514219E+04  0.14249514219E+04  0.00000000000E+00 0.  1.
         21   -1    0    0  503  502 -0.00000000000E+00 -0.00000000000E+00 -0.36067428669E+02  0.36067428669E+02  0.00000000000E+00 0.  1.
         21    1    1    2  503  501  0.53469375222E+02 -0.95672001545E+02  0.54974693316E+02  0.12261452961E+03  0.00000000000E+00 0.  1.
         21    1    1    2  504  502 -0.53469375222E+02  0.95672001545E+02  0.13339092999E+04  0.13384043209E+04  0.00000000000E+00 0.  1.
<mgrwt>
<rscale>  2 0.10959975E+03</rscale>
<asrwt>0</asrwt>
<pdfrwt beam="1">  1       21 0.21922325E+00 0.10959975E+03</pdfrwt>
<pdfrwt beam="2">  1       21 0.55488363E-02 0.10959975E+03</pdfrwt>
<totfact> 0.24766374E+04</totfact>
</mgrwt>
</event>
<event>
 4    1  0.5694171E+003  0.1258201E+03  0.7546771E-02  0.1233793E+00
         21   -1    0    0  503  501  0.00000000000E+00  0.00000000000E+00  0.11124189360E+03  0.11124189360E+03  0.00000000000E+00 0.  1.
         21   -1    0    0  501  502 -0.00000000000E+00 -0.00000000000E+00 -0.27191828832E+03  0.27191828832E+03  0.00000000000E+00 0.  1.
         21    1    1    2  503  504  0.10611566249E+02  0.12537182932E+03  0.51928209652E+02  0.13611480405E+03  0.00000000000E+00 0.  1.
         21    1    1    2  504  502 -0.10611566249E+02 -0.12537182932E+03 -0.21260460437E+03  0.24704537787E+03  0.00000000000E+00 0.  1.
<mgrwt>
<rscale>  2 0.12582011E+03</rscale>
<asrwt>0</asrwt>
<pdfrwt beam="1">  1       21 0.17114138E-01 0.12582011E+03</pdfrwt>
<pdfrwt beam="2">  1       21 0.41833582E-01 0.12582011E+03</pdfrwt>
<totfact> 0.17291644E+05</totfact>
</mgrwt>
</event>
<event>
 4    1  0.5694171E+003  0.1046086E+03  0.7546771E-02  0.1270893E+00
         21   -1    0    0  503  501  0.00000000000E+00  0.00000000000E+00  0.49399169905E+02  0.49399169905E+02  0.00000000000E+00 0. -1.
         21   -1    0    0  501  502 -0.00000000000E+00 -0.00000000000E+00 -0.48063417158E+03  0.48063417158E+03  0.00000000000E+00 0.  1.
         21    1    1    2  503  504 -0.77292747128E+02 -0.70489674412E+02 -0.21032008956E+02  0.10670196042E+03  0.00000000000E+00 0. -1.
         21    1    1    2  504  502  0.77292747128E+02  0.70489674412E+02 -0.41020299272E+03  0.42333138106E+03  0.00000000000E+00 0.  1.
<mgrwt>
<rscale>  2 0.10460862E+03</rscale>
<asrwt>0</asrwt>
<pdfrwt beam="1">  1       21 0.75998724E-02 0.10460862E+03</pdfrwt>
<pdfrwt beam="2">  1       21 0.73943718E-01 0.10460862E+03</pdfrwt>
<totfact> 0.22069718E+05</totfact>
</mgrwt>
</event>
<event>
 4    1  0.5694171E+003  0.1173688E+03  0.7546771E-02  0.1247502E+00
         21   -1    0    0  504  501  0.00000000000E+00  0.00000000000E+00  0.11544281322E+03  0.11544281322E+03  0.00000000000E+00 0.  1.
         21   -1    0    0  503  502 -0.00000000000E+00 -0.00000000000E+00 -0.15230792955E+03  0.15230792955E+03  0.00000000000E+00 0.  1.
         21    1    1    2  503  501  0.10239721031E+03 -0.57360720215E+02 -0.80730125285E+02  0.14245277825E+03  0.00000000000E+00 0.  1.
         21    1    1    2  504  502 -0.10239721031E+03  0.57360720215E+02  0.43865008952E+02  0.12529796452E+03  0.00000000000E+00 0.  1.
<mgrwt>
<rscale>  2 0.11736882E+03</rscale>
<asrwt>0</asrwt>
<pdfrwt beam="1">  1       21 0.17760433E-01 0.11736882E+03</pdfrwt>
<pdfrwt beam="2">  1       21 0.23431989E-01 0.11736882E+03</pdfrwt>
<totfact> 0.49745219E+05</totfact>
</mgrwt>
</event>
<event>
 4    1  0.5694171E+003  0.1251991E+03  0.7546771E-02  0.1234758E+00
         21   -1    0    0  503  501  0.00000000000E+00  0.00000000000E+00  0.57231566758E+03  0.57231566758E+03  0.00000000000E+00 0.  1.
         21   -1    0    0  504  502 -0.00000000000E+00 -0.00000000000E+00 -0.45572146706E+02  0.45572146706E+02  0.00000000000E+00 0. -1.
         21    1    1    2  503  502 -0.20257575023E+02  0.12354936549E+03  0.68220445783E+02  0.14257925614E+03  0.00000000000E+00 0. -1.
         21    1    1    2  504  501  0.20257575023E+02 -0.12354936549E+03  0.45852307510E+03  0.47530855815E+03  0.00000000000E+00 0.  1.
<mgrwt>
<rscale>  2 0.12519910E+03</rscale>
<asrwt>0</asrwt>
<pdfrwt beam="1">  1       21 0.88048559E-01 0.12519910E+03</pdfrwt>
<pdfrwt beam="2">  1       21 0.70110999E-02 0.12519910E+03</pdfrwt>
<totfact> 0.17048946E+05</totfact>
</mgrwt>
</event>
<event>
 4    1  0.5694171E+003  0.1183868E+03  0.7546771E-02  0.1245782E+00
         21   -1    0    0  504  501  0.00000000000E+00  0.00000000000E+00  0.97604808722E+03  0.97604808722E+03  0.00000000000E+00 0.  1.
         21   -1    0    0  503  502 -0.00000000000E+00 -0.00000000000E+00 -0.16715162254E+02  0.16715162254E+02  0.00000000000E+00 0.  1.
         21    1    1    2  503  501 -0.11828254078E+03 -0.49681410109E+01  0.29331693247E+03  0.31630723159E+03  0.00000000000E+00 0.  1.
         21    1    1    2  504  502  0.11828254078E+03  0.49681410109E+01  0.66601599249E+03  0.67645601788E+03  0.00000000000E+00 0.  1.
<mgrwt>
<rscale>  2 0.11838683E+03</rscale>
<asrwt>0</asrwt>
<pdfrwt beam="1">  1       21 0.15016120E+00 0.11838683E+03</pdfrwt>
<pdfrwt beam="2">  1       21 0.25715642E-02 0.11838683E+03</pdfrwt>
<totfact> 0.24999757E+05</totfact>
</mgrwt>
</event>
<event>
 4    1  0.5694171E+003  0.1376877E+03  0.7546771E-02  0.1216475E+00
         21   -1    0    0  503  501  0.00000000000E+00  0.00000000000E+00  0.17421816924E+03  0.17421816924E+03  0.00000000000E+00 0. -1.
         21   -1    0    0  504  502 -0.00000000000E+00 -0.00000000000E+00 -0.15716876754E+03  0.15716876754E+03  0.00000000000E+00 0.  1.
         21    1    1    2  503  502  0.13384912967E+03 -0.32284968661E+02  0.10042738160E+03  0.17042173480E+03  0.00000000000E+00 0. -1.
         21    1    1    2  504  501 -0.13384912967E+03  0.32284968661E+02 -0.83377979909E+02  0.16096520198E+03  0.00000000000E+00 0.  1.
<mgrwt>
<rscale>  2 0.13768772E+03</rscale>
<asrwt>0</asrwt>
<pdfrwt beam="1">  1       21 0.26802795E-01 0.13768772E+03</pdfrwt>
<pdfrwt beam="2">  1       21 0.24179810E-01 0.13768772E+03</pdfrwt>
<totfact> 0.21704407E+05</totfact>
</mgrwt>
</event>
<event>
 4    1  0.5694171E+003  0.1179292E+03  0.7546771E-02  0.1246553E+00
         21   -1    0    0  504  501  0.00000000000E+00  0.00000000000E+00  0.22504627126E+03  0.22504627126E+03  0.00000000000E+00 0. -1.
         21   -1    0    0  501  502 -0.00000000000E+00 -0.00000000000E+00 -0.86797054168E+02  0.86797054168E+02  0.00000000000E+00 0. -1.
         21    1    1    2  503  502  0.88622171277E+02  0.77803709136E+02 -0.14555017673E+02  0.11882405033E+03  0.00000000000E+00 0. -1.
         21    1    1    2  504  503 -0.88622171277E+02 -0.77803709136E+02  0.15280423476E+03  0.19301927509E+03  0.00000000000E+00 0. -1.
<mgrwt>
<rscale>  2 0.11792924E+03</rscale>
<asrwt>0</asrwt>
<pdfrwt beam="1">  1       21 0.34622503E-01 0.11792924E+03</pdfrwt>
<pdfrwt beam="2">  1       21 0.13353393E-01 0.11792924E+03</pdfrwt>
<totfact> 0.39409144E+05</totfact>
</mgrwt>
</event>
<event>
 4    1  0.5694171E+003  0.1023656E+03  0.7546771E-02  0.1275399E+00
         21   -1    0    0  504  501  0.00000000000E+00  0.00000000000E+00  0.36776668687E+03  0.36776668687E+03  0.00000000000E+00 0.  1.
         21   -1    0    0  503  502 -0.00000000000E+00 -0.00000000000E+00 -0.28492999884E+02  0.28492999884E+02  0.00000000000E+00 0.  1.
         21    1    1    2  503  501 -0.59370447378E+01 -0.10219324615E+03  0.16913172903E+03  0.19769736929E+03  0.00000000000E+00 0.  1.
         21    1    1    2  504  502  0.59370447378E+01  0.10219324615E+03  0.17014195796E+03  0.19856231747E+03  0.00000000000E+00 0.  1.
<mgrwt>
<rscale>  2 0.10236556E+03</rscale>
<asrwt>0</asrwt>
<pdfrwt beam="1">  1       21 0.56579487E-01 0.10236556E+03</pdfrwt>
<pdfrwt beam="2">  1       21 0.43835387E-02 0.10236556E+03</pdfrwt>
<totfact> 0.98768735E+05</totfact>
</mgrwt>
</event>
<event>
 4    1  0.5694171E+003  0.1316121E+03  0.7546771E-02  0.1225083E+00
         21   -1    0    0  504  501  0.00000000000E+00  0.00000000000E+00  0.18811453957E+03  0.18811453957E+03  0.00000000000E+00 0. -1.
         21   -1    0    0  503  502 -0.00000000000E+00 -0.00000000000E+00 -0.17262298207E+03  0.17262298207E+03  0.00000000000E+00 0. -1.
         21    1    1    2  503  501 -0.13126125839E+03  0.96030691794E+01  0.13094946886E+03  0.18565963559E+03  0.00000000000E+00 0. -1.
         21    1    1    2  504  502  0.13126125839E+03 -0.96030691794E+01 -0.11545791135E+03  0.17507788605E+03  0.00000000000E+00 0. -1.
<mgrwt>
<rscale>  2 0.13161207E+03</rscale>
<asrwt>0</asrwt>
<pdfrwt beam="1">  1       21 0.28940698E-01 0.13161207E+03</pdfrwt>
<pdfrwt beam="2">  1       21 0.26557382E-01 0.13161207E+03</pdfrwt>
<totfact> 0.15714194E+05</totfact>
</mgrwt>
</event>
<event>
 4    1  0.5694171E+003  0.1209769E+03  0.7546771E-02  0.1241494E+00
         21   -1    0    0  502  501  0.00000000000E+00  0.00000000000E+00  0.59830190405E+03  0.59830190405E+03  0.00000000000E+00 0. -1.
         21   -1    0    0  504  502 -0.00000000000E+00 -0.00000000000E+00 -0.10709790169E+03  0.10709790169E+03  0.00000000000E+00 0. -1.
         21    1    1    2  503  501  0.65497065355E+02  0.10171305682E+03  0.55541550314E+03  0.56843802884E+03  0.00000000000E+00 0. -1.
         21    1    1    2  504  503 -0.65497065355E+02 -0.10171305682E+03 -0.64211500781E+02  0.13696177690E+03  0.00000000000E+00 0. -1.
<mgrwt>
<rscale>  2 0.12097690E+03</rscale>
<asrwt>0</asrwt>
<pdfrwt beam="1">  1       21 0.92046446E-01 0.12097690E+03</pdfrwt>
<pdfrwt beam="2">  1       21 0.16476600E-01 0.12097690E+03</pdfrwt>
<totfact> 0.34385049E+04</totfact>
</mgrwt>
</event>
<event>
 4    1  0.5694171E+003  0.1155028E+03  0.7546771E-02  0.1250706E+00
         21   -1    0    0  503  501  0.00000000000E+00  0.00000000000E+00  0.12372826626E+03  0.12372826626E+03  0.00000000000E+00 0. -1.
         21   -1    0    0  504  502 -0.00000000000E+00 -0.00000000000E+00 -0.12221911221E+03  0.12221911221E+03  0.00000000000E+00 0.  1.
         21    1    1    2  503  502 -0.10856523203E+03  0.39427034096E+02  0.42957957191E+02  0.12323265277E+03  0.00000000000E+00 0.  1.
         21    1    1    2  504  501  0.10856523203E+03 -0.39427034096E+02 -0.41448803142E+02  0.12271472570E+03  0.00000000000E+00 0. -1.
<mgrwt>
<rscale>  2 0.11550282E+03</rscale>
<asrwt>0</asrwt>
<pdfrwt beam="1">  1       21 0.19035118E-01 0.11550282E+03</pdfrwt>
<pdfrwt beam="2">  1       21 0.18802940E-01 0.11550282E+03</pdfrwt>
<totfact> 0.65885328E+05</totfact>
</mgrwt>
</event>
<event>
 4    1  0.5694171E+003  0.1643359E+03  0.7546771E-02  0.1183887E+00
         21   -1    0    0  503  501  0.00000000000E+00  0.00000000000E+00  0.26046620596E+03  0.26046620596E+03  0.00000000000E+00 0. -1.
         21   -1    0    0  501  502 -0.00000000000E+00 -0.00000000000E+00 -0.46915620063E+03  0.46915620063E+03  0.00000000000E+00 0. -1.
         21    1    1    2  503  504  0.97302567761E+01 -0.16404762988E+03  0.21764051151E+03  0.27271541030E+03  0.00000000000E+00 0. -1.
         21    1    1    2  504  502 -0.97302567761E+01  0.16404762988E+03 -0.42633050618E+03  0.45690699630E+03  0.00000000000E+00 0. -1.
<mgrwt>
<rscale>  2 0.16433594E+03</rscale>
<asrwt>0</asrwt>
<pdfrwt beam="1">  1       21 0.40071724E-01 0.16433594E+03</pdfrwt>
<pdfrwt beam="2">  1       21 0.72177877E-01 0.16433594E+03</pdfrwt>
<totfact> 0.10605233E+04</totfact>
</mgrwt>
</event>
<event>
 4    1  0.5694171E+003  0.1294020E+03  0.7546771E-02  0.1228346E+00
         21   -1    0    0  503  501  0.00000000000E+00  0.00000000000E+00  0.71114544760E+02  0.71114544760E+02  0.00000000000E+00 0.  1.
         21   -1    0    0  501  502 -0.00000000000E+00 -0.00000000000E+00 -0.45071972363E+03  0.45071972363E+03  0.00000000000E+00 0.  1.
         21    1    1    2  503  504 -0.75418739368E+02  0.10515174412E+03 -0.94895084048E+01  0.12974947518E+03  0.00000000000E+00 0.  1.
         21    1    1    2  504  502  0.75418739368E+02 -0.10515174412E+03 -0.37011567047E+03  0.39208479321E+03  0.00000000000E+00 0.  1.
<mgrwt>
<rscale>  2 0.12940199E+03</rscale>
<asrwt>0</asrwt>
<pdfrwt beam="1">  1       21 0.10940699E-01 0.12940199E+03</pdfrwt>
<pdfrwt beam="2">  1       21 0.69341498E-01 0.12940199E+03</pdfrwt>
<totfact> 0.13386748E+05</totfact>
</mgrwt>
</event>
<event>
 4    1  0.5694171E+003  0.1154123E+03  0.7546771E-02  0.1250863E+00
         21   -1    0    0  503  501  0.00000000000E+00  0.00000000000E+00  0.13049872599E+03  0.13049872599E+03  0.00000000000E+00 0.  1.
         21   -1    0    0  504  502 -0.00000000000E+00 -0.00000000000E+00 -0.42357611354E+03  0.42357611354E+03  0.00000000000E+00 0. -1.
         21    1    1    2  503  502 -0.84419304371E+02 -0.78697959864E+02  0.94822480160E+02  0.14936964411E+03  0.00000000000E+00 0.  1.
         21    1    1    2  504  501  0.84419304371E+02  0.78697959864E+02 -0.38789986770E+03  0.40470519542E+03  0.00000000000E+00 0. -1.
<mgrwt>
<rscale>  2 0.11541225E+03</rscale>
<asrwt>0</asrwt>
<pdfrwt beam="1">  1       21 0.20076727E-01 0.11541225E+03</pdfrwt>
<pdfrwt beam="2">  1       21 0.65165555E-01 0.11541225E+03</pdfrwt>
<totfact> 0.51695532E+04</totfact>
</mgrwt>
</event>
<event>
 4    1  0.5694171E+003  0.1215661E+03  0.7546771E-02  0.1240536E+00
         21   -1    0    0  503  501  0.00000000000E+00  0.00000000000E+00  0.43408934207E+03  0.43408934207E+03  0.00000000000E+00 0. -1.
         21   -1    0    0  504  502 -0.00000000000E+00 -0.00000000000E+00 -0.71305680939E+02  0.71305680939E+02  0.00000000000E+00 0. -1.
         21    1    1    2  503  502  0.12019398122E+03  0.18212947419E+02 -0.12784427429E+01  0.12157277241E+03  0.00000000000E+00 0. -1.
         21    1    1    2  504  501 -0.12019398122E+03 -0.18212947419E+02  0.36406210387E+03  0.38382225060E+03  0.00000000000E+00 0. -1.
<mgrwt>
<rscale>  2 0.12156605E+03</rscale>
<asrwt>0</asrwt>
<pdfrwt beam="1">  1       21 0.66782974E-01 0.12156605E+03</pdfrwt>
<pdfrwt beam="2">  1       21 0.10970105E-01 0.12156605E+03</pdfrwt>
<totfact> 0.14495773E+05</totfact>
</mgrwt>
</event>
<event>
 4    1  0.5694171E+003  0.1196668E+03  0.7546771E-02  0.1243648E+00
         21   -1    0    0  504  501  0.00000000000E+00  0.00000000000E+00  0.73964005826E+02  0.73964005826E+02  0.00000000000E+00 0.  1.
         21   -1    0    0  503  502 -0.00000000000E+00 -0.00000000000E+00 -0.27303380748E+03  0.27303380748E+03  0.00000000000E+00 0.  1.
         21    1    1    2  503  501  0.16996052123E+02 -0.11845372806E+03 -0.59588724106E+01  0.11981510606E+03  0.00000000000E+00 0.  1.
         21    1    1    2  504  502 -0.16996052123E+02  0.11845372806E+03 -0.19311092924E+03  0.22718270725E+03  0.00000000000E+00 0.  1.
<mgrwt>
<rscale>  2 0.11966684E+03</rscale>
<asrwt>0</asrwt>
<pdfrwt beam="1">  1       21 0.11379078E-01 0.11966684E+03</pdfrwt>
<pdfrwt beam="2">  1       21 0.42005201E-01 0.11966684E+03</pdfrwt>
<totfact> 0.35662154E+05</totfact>
</mgrwt>
</event>
<event>
 4    1  0.5694171E+003  0.1375227E+03  0.7546771E-02  0.1216702E+00
         21   -1    0    0  504  501  0.00000000000E+00  0.00000000000E+00  0.36154898817E+03  0.36154898817E+03  0.00000000000E+00 0. -1.
         21   -1    0    0  503  502 -0.00000000000E+00 -0.00000000000E+00 -0.60361729111E+02  0.60361729111E+02  0.00000000000E+00 0. -1.
         21    1    1    2  503  501 -0.11426720730E+03 -0.76521164377E+02  0.73544973529E+02  0.15595302624E+03  0.00000000000E+00 0. -1.
         21    1    1    2  504  502  0.11426720730E+03  0.76521164377E+02  0.22764228553E+03  0.26595769104E+03  0.00000000000E+00 0. -1.
<mgrwt>
<rscale>  2 0.13752266E+03</rscale>
<asrwt>0</asrwt>
<pdfrwt beam="1">  1       21 0.55622920E-01 0.13752266E+03</pdfrwt>
<pdfrwt beam="2">  1       21 0.92864201E-02 0.13752266E+03</pdfrwt>
<totfact> 0.28519054E+05</totfact>
</mgrwt>
</event>
<event>
 4    1  0.5694171E+003  0.1160962E+03  0.7546771E-02  0.1249680E+00
         21   -1    0    0  503  501  0.00000000000E+00  0.00000000000E+00  0.29940604444E+03  0.29940604444E+03  0.00000000000E+00 0. -1.
         21   -1    0    0  504  502 -0.00000000000E+00 -0.00000000000E+00 -0.47009605288E+03  0.47009605288E+03  0.00000000000E+00 0. -1.
         21    1    1    2  503  502 -0.74516254813E+02  0.89026086908E+02 -0.45121048811E+03  0.46590688014E+03  0.00000000000E+00 0. -1.
         21    1    1    2  504  501  0.74516254813E+02 -0.89026086908E+02  0.28052047967E+03  0.30359521719E+03  0.00000000000E+00 0. -1.
<mgrwt>
<rscale>  2 0.11609615E+03</rscale>
<asrwt>0</asrwt>
<pdfrwt beam="1">  1       21 0.46062468E-01 0.11609615E+03</pdfrwt>
<pdfrwt beam="2">  1       21 0.72322470E-01 0.11609615E+03</pdfrwt>
<totfact> 0.83009923E+03</totfact>
</mgrwt>
</event>
<event>
 4    1  0.5694171E+003  0.2190818E+03  0.7546771E-02  0.1134569E+00
         21   -1    0    0  504  501  0.00000000000E+00  0.00000000000E+00  0.41029385503E+03  0.41029385503E+03  0.00000000000E+00 0. -1.
         21   -1    0    0  503  502 -0.00000000000E+00 -0.00000000000E+00 -0.13011716245E+03  0.13011716245E+03  0.00000000000E+00 0. -1.
         21    1    1    2  503  501  0.25725106771E+02  0.21756625564E+03  0.22594030997E+03  0.31471555472E+03  0.00000000000E+00 0. -1.
         21    1    1    2  504  502 -0.25725106771E+02 -0.21756625564E+03  0.54236382611E+02  0.22569546276E+03  0.00000000000E+00 0. -1.
<mgrwt>
<rscale>  2 0.21908185E+03</rscale>
<asrwt>0</asrwt>
<pdfrwt beam="1">  1       21 0.63122131E-01 0.21908185E+03</pdfrwt>
<pdfrwt beam="2">  1       21 0.20018025E-01 0.21908185E+03</pdfrwt>
<totfact> 0.52860988E+04</totfact>
</mgrwt>
</event>
<event>
 4    1  0.5694171E+003  0.1102172E+03  0.7546771E-02  0.1260168E+00
         21   -1    0    0  504  501  0.00000000000E+00  0.00000000000E+00  0.60329103263E+02  0.60329103263E+02  0.00000000000E+00 0. -1.
         21   -1    0    0  503  502 -0.00000000000E+00 -0.00000000000E+00 -0.24429274753E+03  0.24429274753E+03  0.00000000000E+00 0. -1.
         21    1    1    2  503  501 -0.88244926316E+02  0.66035366544E+02 -0.15583356536E+03  0.19087151895E+03  0.00000000000E+00 0. -1.
         21    1    1    2  504  502  0.88244926316E+02 -0.66035366544E+02 -0.28130078913E+02  0.11375033184E+03  0.00000000000E+00 0. -1.
<mgrwt>
<rscale>  2 0.11021722E+03</rscale>
<asrwt>0</asrwt>
<pdfrwt beam="1">  1       21 0.92814007E-02 0.11021722E+03</pdfrwt>
<pdfrwt beam="2">  1       21 0.37583499E-01 0.11021722E+03</pdfrwt>
<totfact> 0.63587589E+05</totfact>
</mgrwt>
</event>
<event>
 4    1  0.5694171E+003  0.1012969E+03  0.7546771E-02  0.1277592E+00
         21   -1    0    0  504  501  0.00000000000E+00  0.00000000000E+00  0.10018064353E+04  0.10018064353E+04  0.00000000000E+00 0. -1.
         21   -1    0    0  501  502 -0.00000000000E+00 -0.00000000000E+00 -0.21021227572E+03  0.21021227572E+03  0.00000000000E+00 0. -1.
         21    1    1    2  503  502  0.82844066353E+02  0.58291663709E+02 -0.19526406698E+03  0.21997525597E+03  0.00000000000E+00 0. -1.
         21    1    1    2  504  503 -0.82844066353E+02 -0.58291663709E+02  0.98685822659E+03  0.99204345508E+03  0.00000000000E+00 0. -1.
<mgrwt>
<rscale>  2 0.10129688E+03</rscale>
<asrwt>0</asrwt>
<pdfrwt beam="1">  1       21 0.15412406E+00 0.10129688E+03</pdfrwt>
<pdfrwt beam="2">  1       21 0.32340351E-01 0.10129688E+03</pdfrwt>
<totfact> 0.28517753E+03</totfact>
</mgrwt>
</event>
<event>
 4    1  0.5694171E+003  0.1178603E+03  0.7546771E-02  0.1246669E+00
         21   -1    0    0  503  501  0.00000000000E+00  0.00000000000E+00  0.89655424077E+02  0.89655424077E+02  0.00000000000E+00 0.  1.
         21   -1    0    0  504  502 -0.00000000000E+00 -0.00000000000E+00 -0.16159076412E+03  0.16159076412E+03  0.00000000000E+00 0.  1.
         21    1    1    2  503  502 -0.11940571782E+02 -0.11725386919E+03 -0.10478433905E+02  0.11832516500E+03  0.00000000000E+00 0.  1.
         21    1    1    2  504  501  0.11940571782E+02  0.11725386919E+03 -0.61456906138E+02  0.13292102320E+03  0.00000000000E+00 0.  1.
<mgrwt>
<rscale>  2 0.11786029E+03</rscale>
<asrwt>0</asrwt>
<pdfrwt beam="1">  1       21 0.13793142E-01 0.11786029E+03</pdfrwt>
<pdfrwt beam="2">  1       21 0.24860118E-01 0.11786029E+03</pdfrwt>
<totfact> 0.70246751E+05</totfact>
</mgrwt>
</event>
<event>
 4    1  0.5694171E+003  0.1099562E+03  0.7546771E-02  0.1260651E+00
         21   -1    0    0  502  501  0.00000000000E+00  0.00000000000E+00  0.19038680619E+03  0.19038680619E+03  0.00000000000E+00 0. -1.
         21   -1    0    0  504  502 -0.00000000000E+00 -0.00000000000E+00 -0.12516493466E+03  0.12516493466E+03  0.00000000000E+00 0. -1.
         21    1    1    2  503  501  0.22111528415E+02  0.10771002370E+03  0.14335066641E+03  0.18066483458E+03  0.00000000000E+00 0. -1.
         21    1    1    2  504  503 -0.22111528415E+02 -0.10771002370E+03 -0.78128794878E+02  0.13488690627E+03  0.00000000000E+00 0. -1.
<mgrwt>
<rscale>  2 0.10995621E+03</rscale>
<asrwt>0</asrwt>
<pdfrwt beam="1">  1       21 0.29290278E-01 0.10995621E+03</pdfrwt>
<pdfrwt beam="2">  1       21 0.19256144E-01 0.10995621E+03</pdfrwt>
<totfact> 0.28151465E+05</totfact>
</mgrwt>
</event>
<event>
 4    1  0.5694171E+003  0.1174000E+03  0.7546771E-02  0.1247449E+00
         21   -1    0    0  502  501  0.00000000000E+00  0.00000000000E+00  0.13698589170E+03  0.13698589170E+03  0.00000000000E+00 0. -1.
         21   -1    0    0  504  502 -0.00000000000E+00 -0.00000000000E+00 -0.30178949718E+03  0.30178949718E+03  0.00000000000E+00 0. -1.
         21    1    1    2  503  501 -0.38859534101E+02 -0.11078225228E+03  0.96719473667E+02  0.15210991880E+03  0.00000000000E+00 0. -1.
         21    1    1    2  504  503  0.38859534101E+02  0.11078225228E+03 -0.26152307914E+03  0.28666547008E+03  0.00000000000E+00 0. -1.
<mgrwt>
<rscale>  2 0.11740005E+03</rscale>
<asrwt>0</asrwt>
<pdfrwt beam="1">  1       21 0.21074753E-01 0.11740005E+03</pdfrwt>
<pdfrwt beam="2">  1       21 0.46429153E-01 0.11740005E+03</pdfrwt>
<totfact> 0.95841038E+04</totfact>
</mgrwt>
</event>
<event>
 4    1  0.5694171E+003  0.1136358E+03  0.7546771E-02  0.1253981E+00
         21   -1    0    0  504  501  0.00000000000E+00  0.00000000000E+00  0.75739195405E+02  0.75739195405E+02  0.00000000000E+00 0.  1.
         21   -1    0    0  503  502 -0.00000000000E+00 -0.00000000000E+00 -0.24673524089E+03  0.24673524089E+03  0.00000000000E+00 0.  1.
         21    1    1    2  503  501  0.94488672609E+01 -0.11324225785E+03 -0.17512613385E+03  0.20876362904E+03  0.00000000000E+00 0.  1.
         21    1    1    2  504  502 -0.94488672609E+01  0.11324225785E+03  0.41300883583E+01  0.11371080725E+03  0.00000000000E+00 0.  1.
<mgrwt>
<rscale>  2 0.11363578E+03</rscale>
<asrwt>0</asrwt>
<pdfrwt beam="1">  1       21 0.11652184E-01 0.11363578E+03</pdfrwt>
<pdfrwt beam="2">  1       21 0.37959268E-01 0.11363578E+03</pdfrwt>
<totfact> 0.41886916E+05</totfact>
</mgrwt>
</event>
<event>
 4    1  0.5694171E+003  0.1037863E+03  0.7546771E-02  0.1272530E+00
         21   -1    0    0  503  501  0.00000000000E+00  0.00000000000E+00  0.18936567230E+03  0.18936567230E+03  0.00000000000E+00 0. -1.
         21   -1    0    0  504  502 -0.00000000000E+00 -0.00000000000E+00 -0.77540320880E+02  0.77540320880E+02  0.00000000000E+00 0.  1.
         21    1    1    2  503  502 -0.88447535729E+02 -0.54301240265E+02 -0.12969502920E+02  0.10459349538E+03  0.00000000000E+00 0.  1.
         21    1    1    2  504  501  0.88447535729E+02  0.54301240265E+02  0.12479485434E+03  0.16231249780E+03  0.00000000000E+00 0. -1.
<mgrwt>
<rscale>  2 0.10378628E+03</rscale>
<asrwt>0</asrwt>
<pdfrwt beam="1">  1       21 0.29133180E-01 0.10378628E+03</pdfrwt>
<pdfrwt beam="2">  1       21 0.11929280E-01 0.10378628E+03</pdfrwt>
<totfact> 0.67237690E+05</totfact>
</mgrwt>
</event>
<event>
 4    1  0.5694171E+003  0.1310674E+03  0.7546771E-02  0.1225880E+00
         21   -1    0    0  504  501  0.00000000000E+00  0.00000000000E+00  0.56040132008E+02  0.56040132008E+02  0.00000000000E+00 0. -1.
         21   -1    0    0  503  502 -0.00000000000E+00 -0.00000000000E+00 -0.30686802653E+03  0.30686802653E+03  0.00000000000E+00 0. -1.
         21    1    1    2  503  501  0.40698242849E+02 -0.12458860769E+03 -0.11950172099E+03  0.17736778021E+03  0.00000000000E+00 0. -1.
         21    1    1    2  504  502 -0.40698242849E+02  0.12458860769E+03 -0.13132617353E+03  0.18554037833E+03  0.00000000000E+00 0. -1.
<mgrwt>
<rscale>  2 0.13106742E+03</rscale>
<asrwt>0</asrwt>
<pdfrwt beam="1">  1       21 0.86215589E-02 0.13106742E+03</pdfrwt>
<pdfrwt beam="2">  1       21 0.47210465E-01 0.13106742E+03</pdfrwt>
<totfact> 0.45634842E+05</totfact>
</mgrwt>
</event>
<event>
 4    1  0.5694171E+003  0.1506958E+03  0.7546771E-02  0.1199621E+00
         21   -1    0    0  504  501  0.00000000000E+00  0.00000000000E+00  0.11547293294E+03  0.11547293294E+03  0.00000000000E+00 0. -1.
         21   -1    0    0  503  502 -0.00000000000E+00 -0.00000000000E+00 -0.21564676975E+03  0.21564676975E+03  0.00000000000E+00 0. -1.
         21    1    1    2  503  501  0.12097059834E+03 -0.89862911250E+02 -0.96478191788E+00  0.15069890274E+03  0.00000000000E+00 0. -1.
         21    1    1    2  504  502 -0.12097059834E+03  0.89862911250E+02 -0.99209054896E+02  0.18042079995E+03  0.00000000000E+00 0. -1.
<mgrwt>
<rscale>  2 0.15069581E+03</rscale>
<asrwt>0</asrwt>
<pdfrwt beam="1">  1       21 0.17765067E-01 0.15069581E+03</pdfrwt>
<pdfrwt beam="2">  1       21 0.33176426E-01 0.15069581E+03</pdfrwt>
<totfact> 0.25427036E+05</totfact>
</mgrwt>
</event>
<event>
 4    1  0.5694171E+003  0.1028146E+03  0.7546771E-02  0.1274486E+00
         21   -1    0    0  503  501  0.00000000000E+00  0.00000000000E+00  0.22080468673E+03  0.22080468673E+03  0.00000000000E+00 0. -1.
         21   -1    0    0  504  502 -0.00000000000E+00 -0.00000000000E+00 -0.10227253484E+03  0.10227253484E+03  0.00000000000E+00 0. -1.
         21    1    1    2  503  502  0.89413131101E+02 -0.50755707781E+02  0.17707809465E+03  0.20476206067E+03  0.00000000000E+00 0. -1.
         21    1    1    2  504  501 -0.89413131101E+02  0.50755707781E+02 -0.58545942754E+02  0.11831516090E+03  0.00000000000E+00 0. -1.
<mgrwt>
<rscale>  2 0.10281464E+03</rscale>
<asrwt>0</asrwt>
<pdfrwt beam="1">  1       21 0.33969952E-01 0.10281464E+03</pdfrwt>
<pdfrwt beam="2">  1       21 0.15734236E-01 0.10281464E+03</pdfrwt>
<totfact> 0.30557093E+05</totfact>
</mgrwt>
</event>
<event>
 4    1  0.5694171E+003  0.1510599E+03  0.7546771E-02  0.1199177E+00
         21   -1    0    0  504  501  0.00000000000E+00  0.00000000000E+00  0.21604891462E+03  0.21604891462E+03  0.00000000000E+00 0.  1.
         21   -1    0    0  503  502 -0.00000000000E+00 -0.00000000000E+00 -0.20824711832E+03  0.20824711832E+03  0.00000000000E+00 0. -1.
         21    1    1    2  503  501  0.12416059544E+03 -0.86042079204E+02 -0.14502851528E+03  0.20940955828E+03  0.00000000000E+00 0. -1.
         21    1    1    2  504  502 -0.12416059544E+03  0.86042079204E+02  0.15283031159E+03  0.21488647466E+03  0.00000000000E+00 0.  1.
<mgrwt>
<rscale>  2 0.15105990E+03</rscale>
<asrwt>0</asrwt>
<pdfrwt beam="1">  1       21 0.33238295E-01 0.15105990E+03</pdfrwt>
<pdfrwt beam="2">  1       21 0.32038018E-01 0.15105990E+03</pdfrwt>
<totfact> 0.83085985E+04</totfact>
</mgrwt>
</event>
<event>
 4    1  0.5694171E+003  0.1127475E+03  0.7546771E-02  0.1255565E+00
         21   -1    0    0  504  501  0.00000000000E+00  0.00000000000E+00  0.16632523745E+03  0.16632523745E+03  0.00000000000E+00 0.  1.
         21   -1    0    0  503  502 -0.00000000000E+00 -0.00000000000E+00 -0.12319131157E+03  0.12319131157E+03  0.00000000000E+00 0.  1.
         21    1    1    2  503  501  0.11116759673E+03  0.18808782764E+02 -0.67620375973E+02  0.13147060553E+03  0.00000000000E+00 0.  1.
         21    1    1    2  504  502 -0.11116759673E+03 -0.18808782764E+02  0.11075430186E+03  0.15804594349E+03  0.00000000000E+00 0.  1.
<mgrwt>
<rscale>  2 0.11274753E+03</rscale>
<asrwt>0</asrwt>
<pdfrwt beam="1">  1       21 0.25588498E-01 0.11274753E+03</pdfrwt>
<pdfrwt beam="2">  1       21 0.18952509E-01 0.11274753E+03</pdfrwt>
<totfact> 0.37454647E+05</totfact>
</mgrwt>
</event>
<event>
 4    1  0.5694171E+003  0.1148107E+03  0.7546771E-02  0.1251912E+00
         21   -1    0    0  503  501  0.00000000000E+00  0.00000000000E+00  0.60472728508E+02  0.60472728508E+02  0.00000000000E+00 0. -1.
         21   -1    0    0  504  502 -0.00000000000E+00 -0.00000000000E+00 -0.14730072222E+04  0.14730072222E+04  0.00000000000E+00 0.  1.
         21    1    1    2  503  502 -0.67670851502E+02 -0.92747811987E+02  0.14719149584E+01  0.11482015200E+03  0.00000000000E+00 0. -1.
         21    1    1    2  504  501  0.67670851502E+02  0.92747811987E+02 -0.14140064087E+04  0.14186597987E+04  0.00000000000E+00 0.  1.
<mgrwt>
<rscale>  2 0.11481072E+03</rscale>
<asrwt>0</asrwt>
<pdfrwt beam="1">  1       21 0.93034970E-02 0.11481072E+03</pdfrwt>
<pdfrwt beam="2">  1       21 0.22661649E+00 0.11481072E+03</pdfrwt>
<totfact> 0.92036941E+03</totfact>
</mgrwt>
</event>
<event>
 4    1  0.5694171E+003  0.1044569E+03  0.7546771E-02  0.1271193E+00
         21   -1    0    0  504  501  0.00000000000E+00  0.00000000000E+00  0.51074856726E+02  0.51074856726E+02  0.00000000000E+00 0.  1.
         21   -1    0    0  501  502 -0.00000000000E+00 -0.00000000000E+00 -0.24683815038E+03  0.24683815038E+03  0.00000000000E+00 0. -1.
         21    1    1    2  503  502 -0.68084868317E+01 -0.10423476476E+03 -0.15251530776E+03  0.18485713613E+03  0.00000000000E+00 0. -1.
         21    1    1    2  504  503  0.68084868317E+01  0.10423476476E+03 -0.43247985898E+02  0.11305587098E+03  0.00000000000E+00 0.  1.
<mgrwt>
<rscale>  2 0.10445689E+03</rscale>
<asrwt>0</asrwt>
<pdfrwt beam="1">  1       21 0.78576703E-02 0.10445689E+03</pdfrwt>
<pdfrwt beam="2">  1       21 0.37975100E-01 0.10445689E+03</pdfrwt>
<totfact> 0.82979014E+05</totfact>
</mgrwt>
</event>
<event>
 4    1  0.5694171E+003  0.1330519E+03  0.7546771E-02  0.1222996E+00
         21   -1    0    0  504  501  0.00000000000E+00  0.00000000000E+00  0.10716056100E+04  0.10716056100E+04  0.00000000000E+00 0.  1.
         21   -1    0    0  501  502 -0.00000000000E+00 -0.00000000000E+00 -0.30466632868E+02  0.30466632868E+02  0.00000000000E+00 0. -1.
         21    1    1    2  503  502  0.88493661491E+02  0.99356344430E+02  0.14774522337E+03  0.19882520548E+03  0.00000000000E+00 0. -1.
         21    1    1    2  504  503 -0.88493661491E+02 -0.99356344430E+02  0.89339375372E+03  0.90324703736E+03  0.00000000000E+00 0.  1.
<mgrwt>
<rscale>  2 0.13305191E+03</rscale>
<asrwt>0</asrwt>
<pdfrwt beam="1">  1       21 0.16486237E+00 0.13305191E+03</pdfrwt>
<pdfrwt beam="2">  1       21 0.46871751E-02 0.13305191E+03</pdfrwt>
<totfact> 0.72070909E+04</totfact>
</mgrwt>
</event>
<event>
 4    1  0.5694171E+003  0.1024257E+03  0.7546771E-02  0.1275276E+00
         21   -1    0    0  502  501  0.00000000000E+00  0.00000000000E+00  0.13349229771E+03  0.13349229771E+03  0.00000000000E+00 0.  1.
         21   -1    0    0  503  502 -0.00000000000E+00 -0.00000000000E+00 -0.79642785244E+02  0.79642785244E+02  0.00000000000E+00 0.  1.
         21    1    1    2  503  504 -0.10236309497E+03 -0.35797621569E+01  0.14666165169E+02  0.10347035474E+03  0.00000000000E+00 0.  1.
         21    1    1    2  504  501  0.10236309497E+03  0.35797621569E+01  0.39183347293E+02  0.10966472821E+03  0.00000000000E+00 0.  1.
<mgrwt>
<rscale>  2 0.10242567E+03</rscale>
<asrwt>0</asrwt>
<pdfrwt beam="1">  1       21 0.20537276E-01 0.10242567E+03</pdfrwt>
<pdfrwt beam="2">  1       21 0.12252736E-01 0.10242567E+03</pdfrwt>
<totfact> 0.12352343E+06</totfact>
</mgrwt>
</event>
<event>
 4    1  0.5694171E+003  0.1338971E+03  0.7546771E-02  0.1221785E+00
         21   -1    0    0  502  501  0.00000000000E+00  0.00000000000E+00  0.40344755498E+02  0.40344755498E+02  0.00000000000E+00 0. -1.
         21   -1    0    0  503  502 -0.00000000000E+00 -0.00000000000E+00 -0.45994313040E+03  0.45994313040E+03  0.00000000000E+00 0. -1.
         21    1    1    2  503  504 -0.65345837141E+02  0.11686891286E+03 -0.25581211938E+03  0.28873562587E+03  0.00000000000E+00 0. -1.
         21    1    1    2  504  501  0.65345837141E+02 -0.11686891286E+03 -0.16378625552E+03  0.21155226003E+03  0.00000000000E+00 0. -1.
<mgrwt>
<rscale>  2 0.13389705E+03</rscale>
<asrwt>0</asrwt>
<pdfrwt beam="1">  1       21 0.62068856E-02 0.13389705E+03</pdfrwt>
<pdfrwt beam="2">  1       21 0.70760480E-01 0.13389705E+03</pdfrwt>
<totfact> 0.34087429E+05</totfact>
</mgrwt>
</event>
<event>
 4    1  0.5694171E+003  0.1089076E+03  0.7546771E-02  0.1262606E+00
         21   -1    0    0  503  501  0.00000000000E+00  0.00000000000E+00  0.28999059413E+03  0.28999059413E+03  0.00000000000E+00 0. -1.
         21   -1    0    0  504  502 -0.00000000000E+00 -0.00000000000E+00 -0.57744430954E+02  0.57744430954E+02  0.00000000000E+00 0. -1.
         21    1    1    2  503  502  0.28468949850E+02 -0.10512085531E+03  0.22219966340E+02  0.11115125834E+03  0.00000000000E+00 0. -1.
         21    1    1    2  504  501 -0.28468949850E+02  0.10512085531E+03  0.21002619683E+03  0.23658376674E+03  0.00000000000E+00 0. -1.
<mgrwt>
<rscale>  2 0.10890765E+03</rscale>
<asrwt>0</asrwt>
<pdfrwt beam="1">  1       21 0.44613936E-01 0.10890765E+03</pdfrwt>
<pdfrwt beam="2">  1       21 0.88837588E-02 0.10890765E+03</pdfrwt>
<totfact> 0.48710094E+05</totfact>
</mgrwt>
</event>
<event>
 4    1  0.5694171E+003  0.2249756E+03  0.7546771E-02  0.1130227E+00
         21   -1    0    0  503  501  0.00000000000E+00  0.00000000000E+00  0.17414483551E+03  0.17414483551E+03  0.00000000000E+00 0. -1.
         21   -1    0    0  504  502 -0.00000000000E+00 -0.00000000000E+00 -0.35267202569E+03  0.35267202569E+03  0.00000000000E+00 0. -1.
         21    1    1    2  503  502 -0.20743278791E+03 -0.87095688084E+02  0.21205496040E+02  0.22597277146E+03  0.00000000000E+00 0. -1.
         21    1    1    2  504  501  0.20743278791E+03  0.87095688084E+02 -0.19973268623E+03  0.30084408973E+03  0.00000000000E+00 0. -1.
<mgrwt>
<rscale>  2 0.22497560E+03</rscale>
<asrwt>0</asrwt>
<pdfrwt beam="1">  1       21 0.26791513E-01 0.22497560E+03</pdfrwt>
<pdfrwt beam="2">  1       21 0.54257235E-01 0.22497560E+03</pdfrwt>
<totfact> 0.41914088E+04</totfact>
</mgrwt>
</event>
<event>
 4    1  0.5694171E+003  0.2673616E+03  0.7546771E-02  0.1102799E+00
         21   -1    0    0  504  501  0.00000000000E+00  0.00000000000E+00  0.61411753836E+03  0.61411753836E+03  0.00000000000E+00 0.  1.
         21   -1    0    0  503  502 -0.00000000000E+00 -0.00000000000E+00 -0.11887378467E+03  0.11887378467E+03  0.00000000000E+00 0.  1.
         21    1    1    2  503  501  0.21227818250E+03 -0.16254289840E+03  0.19473373310E+03  0.33076191951E+03  0.00000000000E+00 0.  1.
         21    1    1    2  504  502 -0.21227818250E+03  0.16254289840E+03  0.30051002059E+03  0.40222940353E+03  0.00000000000E+00 0.  1.
<mgrwt>
<rscale>  2 0.26736159E+03</rscale>
<asrwt>0</asrwt>
<pdfrwt beam="1">  1       21 0.94479619E-01 0.26736159E+03</pdfrwt>
<pdfrwt beam="2">  1       21 0.18288275E-01 0.26736159E+03</pdfrwt>
<totfact> 0.24607851E+04</totfact>
</mgrwt>
</event>
<event>
 4    1  0.5694171E+003  0.1040024E+03  0.7546771E-02  0.1272098E+00
         21   -1    0    0  504  501  0.00000000000E+00  0.00000000000E+00  0.81450584988E+02  0.81450584988E+02  0.00000000000E+00 0. -1.
         21   -1    0    0  503  502 -0.00000000000E+00 -0.00000000000E+00 -0.26989295981E+03  0.26989295981E+03  0.00000000000E+00 0. -1.
         21    1    1    2  503  501  0.23025188714E+02  0.10142164097E+03  0.30982261476E+02  0.10851916466E+03  0.00000000000E+00 0. -1.
         21    1    1    2  504  502 -0.23025188714E+02 -0.10142164097E+03 -0.21942463629E+03  0.24282438013E+03  0.00000000000E+00 0. -1.
<mgrwt>
<rscale>  2 0.10400245E+03</rscale>
<asrwt>0</asrwt>
<pdfrwt beam="1">  1       21 0.12530859E-01 0.10400245E+03</pdfrwt>
<pdfrwt beam="2">  1       21 0.41521994E-01 0.10400245E+03</pdfrwt>
<totfact> 0.30868405E+05</totfact>
</mgrwt>
</event>
<event>
 4    1  0.5694171E+003  0.1029723E+03  0.7546771E-02  0.1274167E+00
         21   -1    0    0  503  501  0.00000000000E+00  0.00000000000E+00  0.48084100669E+02  0.48084100669E+02  0.00000000000E+00 0. -1.
         21   -1    0    0  501  502 -0.00000000000E+00 -0.00000000000E+00 -0.16554043515E+04  0.16554043515E+04  0.00000000000E+00 0.  1.
         21    1    1    2  503  504 -0.62432000931E+02 -0.81887385612E+02 -0.10672785603E+02  0.10352394416E+03  0.00000000000E+00 0. -1.
         21    1    1    2  504  502  0.62432000931E+02  0.81887385612E+02 -0.15966474652E+04  0.15999645080E+04  0.00000000000E+00 0.  1.
<mgrwt>
<rscale>  2 0.10297232E+03</rscale>
<asrwt>0</asrwt>
<pdfrwt beam="1">  1       21 0.73975551E-02 0.10297232E+03</pdfrwt>
<pdfrwt beam="2">  1       21 0.25467755E+00 0.10297232E+03</pdfrwt>
<totfact> 0.95942759E+03</totfact>
</mgrwt>
</event>
<event>
 4    1  0.5694171E+003  0.1337178E+03  0.7546771E-02  0.1222041E+00
         21   -1    0    0  504  501  0.00000000000E+00  0.00000000000E+00  0.30878168681E+02  0.30878168681E+02  0.00000000000E+00 0. -1.
         21   -1    0    0  503  502 -0.00000000000E+00 -0.00000000000E+00 -0.57950922070E+03  0.57950922070E+03  0.00000000000E+00 0.  1.
         21    1    1    2  503  501  0.82493905841E+02 -0.10523879376E+03 -0.28277100063E+03  0.31279368122E+03  0.00000000000E+00 0. -1.
         21    1    1    2  504  502 -0.82493905841E+02  0.10523879376E+03 -0.26586005139E+03  0.29759370816E+03  0.00000000000E+00 0.  1.
<mgrwt>
<rscale>  2 0.13371779E+03</rscale>
<asrwt>0</asrwt>
<pdfrwt beam="1">  1       21 0.47504871E-02 0.13371779E+03</pdfrwt>
<pdfrwt beam="2">  1       21 0.89155272E-01 0.13371779E+03</pdfrwt>
<totfact> 0.31947990E+05</totfact>
</mgrwt>
</event>
<event>
 4    1  0.5694171E+003  0.1186963E+03  0.7546771E-02  0.1245263E+00
         21   -1    0    0  503  501  0.00000000000E+00  0.00000000000E+00  0.11884737848E+03  0.11884737848E+03  0.00000000000E+00 0. -1.
         21   -1    0    0  504  502 -0.00000000000E+00 -0.00000000000E+00 -0.44246788758E+03  0.44246788758E+03  0.00000000000E+00 0.  1.
         21    1    1    2  503  502 -0.18413799198E+02 -0.11725933356E+03 -0.40194581475E+03  0.41910530574E+03  0.00000000000E+00 0.  1.
         21    1    1    2  504  501  0.18413799198E+02  0.11725933356E+03  0.78325305648E+02  0.14220996031E+03  0.00000000000E+00 0. -1.
<mgrwt>
<rscale>  2 0.11869633E+03</rscale>
<asrwt>0</asrwt>
<pdfrwt beam="1">  1       21 0.18284212E-01 0.11869633E+03</pdfrwt>
<pdfrwt beam="2">  1       21 0.68071983E-01 0.11869633E+03</pdfrwt>
<totfact> 0.55764276E+04</totfact>
</mgrwt>
</event>
<event>
 4    1  0.5694171E+003  0.1023768E+03  0.7546771E-02  0.1275376E+00
         21   -1    0    0  504  501  0.00000000000E+00  0.00000000000E+00  0.50541769291E+02  0.50541769291E+02  0.00000000000E+00 0. -1.
         21   -1    0    0  503  502 -0.00000000000E+00 -0.00000000000E+00 -0.23845488801E+03  0.23845488801E+03  0.00000000000E+00 0.  1.
         21    1    1    2  503  501 -0.27191332153E+02 -0.98699755706E+02 -0.14612546739E+03  0.17841990511E+03  0.00000000000E+00 0.  1.
         21    1    1    2  504  502  0.27191332153E+02  0.98699755706E+02 -0.41787651327E+02  0.11057675219E+03  0.00000000000E+00 0. -1.
<mgrwt>
<rscale>  2 0.10237681E+03</rscale>
<asrwt>0</asrwt>
<pdfrwt beam="1">  1       21 0.77756568E-02 0.10237681E+03</pdfrwt>
<pdfrwt beam="2">  1       21 0.36685367E-01 0.10237681E+03</pdfrwt>
<totfact> 0.90408387E+05</totfact>
</mgrwt>
</event>
<event>
 4    1  0.5694171E+003  0.1666795E+03  0.7546771E-02  0.1181356E+00
         21   -1    0    0  504  501  0.00000000000E+00  0.00000000000E+00  0.67639134682E+03  0.67639134682E+03  0.00000000000E+00 0. -1.
         21   -1    0    0  503  502 -0.00000000000E+00 -0.00000000000E+00 -0.11970450186E+03  0.11970450186E+03  0.00000000000E+00 0.  1.
         21    1    1    2  503  501 -0.14595099306E+03 -0.80500662172E+02 -0.44265107594E+02  0.17245709245E+03  0.00000000000E+00 0.  1.
         21    1    1    2  504  502  0.14595099306E+03  0.80500662172E+02  0.60095195256E+03  0.62363875623E+03  0.00000000000E+00 0. -1.
<mgrwt>
<rscale>  2 0.16667948E+03</rscale>
<asrwt>0</asrwt>
<pdfrwt beam="1">  1       21 0.10406021E+00 0.16667948E+03</pdfrwt>
<pdfrwt beam="2">  1       21 0.18416077E-01 0.16667948E+03</pdfrwt>
<totfact> 0.20428563E+04</totfact>
</mgrwt>
</event>
<event>
 4    1  0.5694171E+003  0.1363025E+03  0.7546771E-02  0.1218393E+00
         21   -1    0    0  502  501  0.00000000000E+00  0.00000000000E+00  0.15840560723E+04  0.15840560723E+04  0.00000000000E+00 0.  1.
         21   -1    0    0  503  502 -0.00000000000E+00 -0.00000000000E+00 -0.21328020445E+02  0.21328020445E+02  0.00000000000E+00 0.  1.
         21    1    1    2  503  504 -0.14351709544E+02 -0.13554486431E+03  0.24284432771E+03  0.27848114713E+03  0.00000000000E+00 0.  1.
         21    1    1    2  504  501  0.14351709544E+02  0.13554486431E+03  0.13198837241E+04  0.13269029456E+04  0.00000000000E+00 0.  1.
<mgrwt>
<rscale>  2 0.13630254E+03</rscale>
<asrwt>0</asrwt>
<pdfrwt beam="1">  1       21 0.24370084E+00 0.13630254E+03</pdfrwt>
<pdfrwt beam="2">  1       21 0.32812352E-02 0.13630254E+03</pdfrwt>
<totfact> 0.41457422E+04</totfact>
</mgrwt>
</event>
<event>
 4    1  0.5694171E+003  0.1749431E+03  0.7546771E-02  0.1172789E+00
         21   -1    0    0  504  501  0.00000000000E+00  0.00000000000E+00  0.49822007008E+03  0.49822007008E+03  0.00000000000E+00 0. -1.
         21   -1    0    0  503  502 -0.00000000000E+00 -0.00000000000E+00 -0.16984464587E+03  0.16984464587E+03  0.00000000000E+00 0.  1.
         21    1    1    2  503  501 -0.10693701365E+03  0.13845423692E+03 -0.10268786473E+03  0.20285437676E+03  0.00000000000E+00 0.  1.
         21    1    1    2  504  502  0.10693701365E+03 -0.13845423692E+03  0.43106328895E+03  0.46521033919E+03  0.00000000000E+00 0. -1.
<mgrwt>
<rscale>  2 0.17494314E+03</rscale>
<asrwt>0</asrwt>
<pdfrwt beam="1">  1       21 0.76649241E-01 0.17494314E+03</pdfrwt>
<pdfrwt beam="2">  1       21 0.26129946E-01 0.17494314E+03</pdfrwt>
<totfact> 0.21303726E+04</totfact>
</mgrwt>
</event>
<event>
 4    1  0.5694171E+003  0.1406101E+03  0.7546771E-02  0.1212510E+00
         21   -1    0    0  503  501  0.00000000000E+00  0.00000000000E+00  0.30340809476E+02  0.30340809476E+02  0.00000000000E+00 0.  1.
         21   -1    0    0  501  502 -0.00000000000E+00 -0.00000000000E+00 -0.15298960464E+04  0.15298960464E+04  0.00000000000E+00 0. -1.
         21    1    1    2  503  504 -0.13994438085E+03  0.13666556425E+02 -0.15870504677E+03  0.21203418679E+03  0.00000000000E+00 0.  1.
         21    1    1    2  504  502  0.13994438085E+03 -0.13666556425E+02 -0.13408501902E+04  0.13482026691E+04  0.00000000000E+00 0. -1.
<mgrwt>
<rscale>  2 0.14061012E+03</rscale>
<asrwt>0</asrwt>
<pdfrwt beam="1">  1       21 0.46678177E-02 0.14061012E+03</pdfrwt>
<pdfrwt beam="2">  1       21 0.23536858E+00 0.14061012E+03</pdfrwt>
<totfact> 0.25700009E+04</totfact>
</mgrwt>
</event>
<event>
 4    1  0.5694171E+003  0.1299569E+03  0.7546771E-02  0.1227520E+00
         21   -1    0    0  503  501  0.00000000000E+00  0.00000000000E+00  0.14195214641E+03  0.14195214641E+03  0.00000000000E+00 0.  1.
         21   -1    0    0  501  502 -0.00000000000E+00 -0.00000000000E+00 -0.19966347841E+03  0.19966347841E+03  0.00000000000E+00 0. -1.
         21    1    1    2  503  504 -0.19274130951E+02 -0.12851966314E+03  0.79727732841E+02  0.15246411814E+03  0.00000000000E+00 0.  1.
         21    1    1    2  504  502  0.19274130951E+02  0.12851966314E+03 -0.13743906484E+03  0.18915150668E+03  0.00000000000E+00 0. -1.
<mgrwt>
<rscale>  2 0.12995690E+03</rscale>
<asrwt>0</asrwt>
<pdfrwt beam="1">  1       21 0.21838792E-01 0.12995690E+03</pdfrwt>
<pdfrwt beam="2">  1       21 0.30717458E-01 0.12995690E+03</pdfrwt>
<totfact> 0.20258130E+05</totfact>
</mgrwt>
</event>
<event>
 4    1  0.5694171E+003  0.1221204E+03  0.7546771E-02  0.1239640E+00
         21   -1    0    0  502  501  0.00000000000E+00  0.00000000000E+00  0.23746131925E+03  0.23746131925E+03  0.00000000000E+00 0. -1.
         21   -1    0    0  503  502 -0.00000000000E+00 -0.00000000000E+00 -0.63769045375E+02  0.63769045375E+02  0.00000000000E+00 0. -1.
         21    1    1    2  503  504  0.88831815818E+02  0.83799143856E+02  0.68312384815E+02  0.13992844576E+03  0.00000000000E+00 0. -1.
         21    1    1    2  504  501 -0.88831815818E+02 -0.83799143856E+02  0.10537988906E+03  0.16130191887E+03  0.00000000000E+00 0. -1.
<mgrwt>
<rscale>  2 0.12212038E+03</rscale>
<asrwt>0</asrwt>
<pdfrwt beam="1">  1       21 0.36532510E-01 0.12212038E+03</pdfrwt>
<pdfrwt beam="2">  1       21 0.98106225E-02 0.12212038E+03</pdfrwt>
<totfact> 0.61044815E+05</totfact>
</mgrwt>
</event>
<event>
 4    1  0.5694171E+003  0.1162118E+03  0.7546771E-02  0.1249481E+00
         21   -1    0    0  503  501  0.00000000000E+00  0.00000000000E+00  0.39765771666E+02  0.39765771666E+02  0.00000000000E+00 0. -1.
         21   -1    0    0  504  502 -0.00000000000E+00 -0.00000000000E+00 -0.35129924141E+03  0.35129924141E+03  0.00000000000E+00 0. -1.
         21    1    1    2  503  502  0.51049651664E+02  0.10439878443E+03 -0.12011142123E+03  0.16712847344E+03  0.00000000000E+00 0. -1.
         21    1    1    2  504  501 -0.51049651664E+02 -0.10439878443E+03 -0.19142204852E+03  0.22393653963E+03  0.00000000000E+00 0. -1.
<mgrwt>
<rscale>  2 0.11621176E+03</rscale>
<asrwt>0</asrwt>
<pdfrwt beam="1">  1       21 0.61178108E-02 0.11621176E+03</pdfrwt>
<pdfrwt beam="2">  1       21 0.54046039E-01 0.11621176E+03</pdfrwt>
<totfact> 0.62188486E+05</totfact>
</mgrwt>
</event>
<event>
 4    1  0.5694171E+003  0.1365469E+03  0.7546771E-02  0.1218052E+00
         21   -1    0    0  504  501  0.00000000000E+00  0.00000000000E+00  0.45420607569E+03  0.45420607569E+03  0.00000000000E+00 0.  1.
         21   -1    0    0  503  502 -0.00000000000E+00 -0.00000000000E+00 -0.55708459715E+02  0.55708459715E+02  0.00000000000E+00 0.  1.
         21    1    1    2  503  501  0.91976067543E+02 -0.10092299912E+03  0.33003280279E+03  0.35716480743E+03  0.00000000000E+00 0.  1.
         21    1    1    2  504  502 -0.91976067543E+02  0.10092299912E+03  0.68464813193E+02  0.15274972798E+03  0.00000000000E+00 0.  1.
<mgrwt>
<rscale>  2 0.13654687E+03</rscale>
<asrwt>0</asrwt>
<pdfrwt beam="1">  1       21 0.69877855E-01 0.13654687E+03</pdfrwt>
<pdfrwt beam="2">  1       21 0.85705326E-02 0.13654687E+03</pdfrwt>
<totfact> 0.20120410E+05</totfact>
</mgrwt>
</event>
<event>
 4    1  0.5694171E+003  0.1333570E+03  0.7546771E-02  0.1222558E+00
         21   -1    0    0  504  501  0.00000000000E+00  0.00000000000E+00  0.30076783602E+03  0.30076783602E+03  0.00000000000E+00 0. -1.
         21   -1    0    0  503  502 -0.00000000000E+00 -0.00000000000E+00 -0.76216535883E+02  0.76216535883E+02  0.00000000000E+00 0. -1.
         21    1    1    2  503  501 -0.13128519899E+03 -0.23415656493E+02  0.20152574285E+03  0.24165413606E+03  0.00000000000E+00 0. -1.
         21    1    1    2  504  502  0.13128519899E+03  0.23415656493E+02  0.23025557279E+02  0.13533023584E+03  0.00000000000E+00 0. -1.
<mgrwt>
<rscale>  2 0.13335703E+03</rscale>
<asrwt>0</asrwt>
<pdfrwt beam="1">  1       21 0.46271974E-01 0.13335703E+03</pdfrwt>
<pdfrwt beam="2">  1       21 0.11725621E-01 0.13335703E+03</pdfrwt>
<totfact> 0.27739325E+05</totfact>
</mgrwt>
</event>
<event>
 4    1  0.5694171E+003  0.1490453E+03  0.7546771E-02  0.1201651E+00
         21   -1    0    0  503  501  0.00000000000E+00  0.00000000000E+00  0.35938882755E+03  0.35938882755E+03  0.00000000000E+00 0.  1.
         21   -1    0    0  504  502 -0.00000000000E+00 -0.00000000000E+00 -0.10025224853E+03  0.10025224853E+03  0.00000000000E+00 0. -1.
         21    1    1    2  503  502  0.77948627264E+02 -0.12703749531E+03 -0.12741677315E+02  0.14958898372E+03  0.00000000000E+00 0. -1.
         21    1    1    2  504  501 -0.77948627264E+02  0.12703749531E+03  0.27187825634E+03  0.31005209237E+03  0.00000000000E+00 0.  1.
<mgrwt>
<rscale>  2 0.14904534E+03</rscale>
<asrwt>0</asrwt>
<pdfrwt beam="1">  1       21 0.55290588E-01 0.14904534E+03</pdfrwt>
<pdfrwt beam="2">  1       21 0.15423423E-01 0.14904534E+03</pdfrwt>
<totfact> 0.11686980E+05</totfact>
</mgrwt>
</event>
<event>
 4    1  0.5694171E+003  0.1965008E+03  0.7546771E-02  0.1152725E+00
         21   -1    0    0  504  501  0.00000000000E+00  0.00000000000E+00  0.15642180226E+03  0.15642180226E+03  0.00000000000E+00 0. -1.
         21   -1    0    0  501  502 -0.00000000000E+00 -0.00000000000E+00 -0.79229191616E+03  0.79229191616E+03  0.00000000000E+00 0. -1.
         21    1    1    2  503  502 -0.52482118013E+02 -0.18936261250E+03 -0.71151885241E+03  0.73815421766E+03  0.00000000000E+00 0. -1.
         21    1    1    2  504  503  0.52482118013E+02  0.18936261250E+03  0.75648738498E+02  0.21055950076E+03  0.00000000000E+00 0. -1.
<mgrwt>
<rscale>  2 0.19650082E+03</rscale>
<asrwt>0</asrwt>
<pdfrwt beam="1">  1       21 0.24064893E-01 0.19650082E+03</pdfrwt>
<pdfrwt beam="2">  1       21 0.12189106E+00 0.19650082E+03</pdfrwt>
<totfact> 0.82501482E+03</totfact>
</mgrwt>
</event>
<event>
 4    1  0.5694171E+003  0.1090907E+03  0.7546771E-02  0.1262263E+00
         21   -1    0    0  504  501  0.00000000000E+00  0.00000000000E+00  0.34066145152E+03  0.34066145152E+03  0.00000000000E+00 0. -1.
         21   -1    0    0  503  502 -0.00000000000E+00 -0.00000000000E+00 -0.40875209093E+03  0.40875209093E+03  0.00000000000E+00 0.  1.
         21    1    1    2  503  501 -0.10558428962E+03  0.27436158214E+02 -0.39238219658E+03  0.40726474581E+03  0.00000000000E+00 0.  1.
         21    1    1    2  504  502  0.10558428962E+03 -0.27436158214E+02  0.32429155716E+03  0.34214879664E+03  0.00000000000E+00 0. -1.
<mgrwt>
<rscale>  2 0.10909072E+03</rscale>
<asrwt>0</asrwt>
<pdfrwt beam="1">  1       21 0.52409454E-01 0.10909072E+03</pdfrwt>
<pdfrwt beam="2">  1       21 0.62884937E-01 0.10909072E+03</pdfrwt>
<totfact> 0.86793573E+03</totfact>
</mgrwt>
</event>
<event>
 4    1  0.5694171E+003  0.1284344E+03  0.7546771E-02  0.1229798E+00
         21   -1    0    0  504  501  0.00000000000E+00  0.00000000000E+00  0.10574691968E+04  0.10574691968E+04  0.00000000000E+00 0.  1.
         21   -1    0    0  503  502 -0.00000000000E+00 -0.00000000000E+00 -0.38272491669E+02  0.38272491669E+02  0.00000000000E+00 0. -1.
         21    1    1    2  503  501 -0.11400359906E+03  0.59148651656E+02  0.93128974261E+03  0.94010423267E+03  0.00000000000E+00 0.  1.
         21    1    1    2  504  502  0.11400359906E+03 -0.59148651656E+02  0.87906962555E+02  0.15563745583E+03  0.00000000000E+00 0. -1.
<mgrwt>
<rscale>  2 0.12843436E+03</rscale>
<asrwt>0</asrwt>
<pdfrwt beam="1">  1       21 0.16268755E+00 0.12843436E+03</pdfrwt>
<pdfrwt beam="2">  1       21 0.58880765E-02 0.12843436E+03</pdfrwt>
<totfact> 0.51011876E+04</totfact>
</mgrwt>
</event>
<event>
 4    1  0.5694171E+003  0.1437852E+03  0.7546771E-02  0.1208325E+00
         21   -1    0    0  504  501  0.00000000000E+00  0.00000000000E+00  0.30880130001E+03  0.30880130001E+03  0.00000000000E+00 0.  1.
         21   -1    0    0  501  502 -0.00000000000E+00 -0.00000000000E+00 -0.56083496564E+03  0.56083496564E+03  0.00000000000E+00 0. -1.
         21    1    1    2  503  502  0.39615631418E+01  0.14373061522E+03 -0.53405717098E+03  0.55307435812E+03  0.00000000000E+00 0. -1.
         21    1    1    2  504  503 -0.39615631418E+01 -0.14373061522E+03  0.28202350535E+03  0.31656190753E+03  0.00000000000E+00 0.  1.
<mgrwt>
<rscale>  2 0.14378520E+03</rscale>
<asrwt>0</asrwt>
<pdfrwt beam="1">  1       21 0.47507893E-01 0.14378520E+03</pdfrwt>
<pdfrwt beam="2">  1       21 0.86282302E-01 0.14378520E+03</pdfrwt>
<totfact> 0.51159968E+03</totfact>
</mgrwt>
</event>
<event>
 4    1  0.5694171E+003  0.1186939E+03  0.7546771E-02  0.1245267E+00
         21   -1    0    0  504  501  0.00000000000E+00  0.00000000000E+00  0.15273092352E+03  0.15273092352E+03  0.00000000000E+00 0. -1.
         21   -1    0    0  503  502 -0.00000000000E+00 -0.00000000000E+00 -0.11067164237E+03  0.11067164237E+03  0.00000000000E+00 0. -1.
         21    1    1    2  503  501 -0.11706122803E+03 -0.19619429041E+02 -0.32713944844E+02  0.12311967873E+03  0.00000000000E+00 0. -1.
         21    1    1    2  504  502  0.11706122803E+03  0.19619429041E+02  0.74773225997E+02  0.14028288716E+03  0.00000000000E+00 0. -1.
<mgrwt>
<rscale>  2 0.11869395E+03</rscale>
<asrwt>0</asrwt>
<pdfrwt beam="1">  1       21 0.23497065E-01 0.11869395E+03</pdfrwt>
<pdfrwt beam="2">  1       21 0.17026406E-01 0.11869395E+03</pdfrwt>
<totfact> 0.53435864E+05</totfact>
</mgrwt>
</event>
<event>
 4    1  0.5694171E+003  0.1043187E+03  0.7546771E-02  0.1271468E+00
         21   -1    0    0  504  501  0.00000000000E+00  0.00000000000E+00  0.53001260471E+02  0.53001260471E+02  0.00000000000E+00 0. -1.
         21   -1    0    0  503  502 -0.00000000000E+00 -0.00000000000E+00 -0.27602669614E+03  0.27602669614E+03  0.00000000000E+00 0. -1.
         21    1    1    2  503  501  0.91162833293E+02  0.50712296388E+02 -0.19477476435E+03  0.22095159653E+03  0.00000000000E+00 0. -1.
         21    1    1    2  504  502 -0.91162833293E+02 -0.50712296388E+02 -0.28250671315E+02  0.10807636008E+03  0.00000000000E+00 0. -1.
<mgrwt>
<rscale>  2 0.10431874E+03</rscale>
<asrwt>0</asrwt>
<pdfrwt beam="1">  1       21 0.81540402E-02 0.10431874E+03</pdfrwt>
<pdfrwt beam="2">  1       21 0.42465645E-01 0.10431874E+03</pdfrwt>
<totfact> 0.62356615E+05</totfact>
</mgrwt>
</event>
<event>
 4    1  0.5694171E+003  0.1900357E+03  0.7546771E-02  0.1158429E+00
         21   -1    0    0  503  501  0.00000000000E+00  0.00000000000E+00  0.25246464692E+02  0.25246464692E+02  0.00000000000E+00 0.  1.
         21   -1    0    0  504  502 -0.00000000000E+00 -0.00000000000E+00 -0.24045990232E+04  0.24045990232E+04  0.00000000000E+00 0.  1.
         21    1    1    2  503  502  0.18150462644E+03 -0.56299420221E+02 -0.41638654012E+03  0.45770220114E+03  0.00000000000E+00 0.  1.
         21    1    1    2  504  501 -0.18150462644E+03  0.56299420221E+02 -0.19629660184E+04  0.19721432867E+04  0.00000000000E+00 0.  1.
<mgrwt>
<rscale>  2 0.19003567E+03</rscale>
<asrwt>0</asrwt>
<pdfrwt beam="1">  1       21 0.38840711E-02 0.19003567E+03</pdfrwt>
<pdfrwt beam="2">  1       21 0.36993835E+00 0.19003567E+03</pdfrwt>
<totfact> 0.54948458E+03</totfact>
</mgrwt>
</event>
<event>
 4    1  0.5694171E+003  0.1047455E+03  0.7546771E-02  0.1270622E+00
         21   -1    0    0  503  501  0.00000000000E+00  0.00000000000E+00  0.36719481081E+03  0.36719481081E+03  0.00000000000E+00 0. -1.
         21   -1    0    0  504  502 -0.00000000000E+00 -0.00000000000E+00 -0.30600762635E+02  0.30600762635E+02  0.00000000000E+00 0. -1.
         21    1    1    2  503  502  0.91722841277E+02 -0.50581997830E+02  0.13776233411E+03  0.17306091071E+03  0.00000000000E+00 0. -1.
         21    1    1    2  504  501 -0.91722841277E+02  0.50581997830E+02  0.19883171407E+03  0.22473466274E+03  0.00000000000E+00 0. -1.
<mgrwt>
<rscale>  2 0.10474549E+03</rscale>
<asrwt>0</asrwt>
<pdfrwt beam="1">  1       21 0.56491506E-01 0.10474549E+03</pdfrwt>
<pdfrwt beam="2">  1       21 0.47078099E-02 0.10474549E+03</pdfrwt>
<totfact> 0.88024354E+05</totfact>
</mgrwt>
</event>
<event>
 4    1  0.5694171E+003  0.1560307E+03  0.7546771E-02  0.1193252E+00
         21   -1    0    0  504  501  0.00000000000E+00  0.00000000000E+00  0.21183780896E+03  0.21183780896E+03  0.00000000000E+00 0. -1.
         21   -1    0    0  503  502 -0.00000000000E+00 -0.00000000000E+00 -0.18085110750E+03  0.18085110750E+03  0.00000000000E+00 0.  1.
         21    1    1    2  503  501  0.49347311519E+02  0.14802168966E+03 -0.10305211596E+03  0.18699015045E+03  0.00000000000E+00 0.  1.
         21    1    1    2  504  502 -0.49347311519E+02 -0.14802168966E+03  0.13403881742E+03  0.20569876601E+03  0.00000000000E+00 0. -1.
<mgrwt>
<rscale>  2 0.15603069E+03</rscale>
<asrwt>0</asrwt>
<pdfrwt beam="1">  1       21 0.32590432E-01 0.15603069E+03</pdfrwt>
<pdfrwt beam="2">  1       21 0.27823247E-01 0.15603069E+03</pdfrwt>
<totfact> 0.11327903E+05</totfact>
</mgrwt>
</event>
<event>
 4    1  0.5694171E+003  0.1006067E+03  0.7546771E-02  0.1279025E+00
         21   -1    0    0  504  501  0.00000000000E+00  0.00000000000E+00  0.84493504690E+02  0.84493504690E+02  0.00000000000E+00 0.  1.
         21   -1    0    0  503  502 -0.00000000000E+00 -0.00000000000E+00 -0.13716247515E+03  0.13716247515E+03  0.00000000000E+00 0.  1.
         21    1    1    2  503  501  0.75448492501E+02 -0.66552437446E+02 -0.65773799749E+02  0.12019939552E+03  0.00000000000E+00 0.  1.
         21    1    1    2  504  502 -0.75448492501E+02  0.66552437446E+02  0.13104829289E+02  0.10145658432E+03  0.00000000000E+00 0.  1.
<mgrwt>
<rscale>  2 0.10060667E+03</rscale>
<asrwt>0</asrwt>
<pdfrwt beam="1">  1       21 0.12999001E-01 0.10060667E+03</pdfrwt>
<pdfrwt beam="2">  1       21 0.21101919E-01 0.10060667E+03</pdfrwt>
<totfact> 0.10580612E+06</totfact>
</mgrwt>
</event>
<event>
 4    1  0.5694171E+003  0.1334037E+03  0.7546771E-02  0.1222491E+00
         21   -1    0    0  504  501  0.00000000000E+00  0.00000000000E+00  0.11926766350E+03  0.11926766350E+03  0.00000000000E+00 0.  1.
         21   -1    0    0  503  502 -0.00000000000E+00 -0.00000000000E+00 -0.14937271067E+03  0.14937271067E+03  0.00000000000E+00 0.  1.
         21    1    1    2  503  501  0.11798676792E+03  0.62254912023E+02 -0.19413899418E+02  0.13480894245E+03  0.00000000000E+00 0.  1.
         21    1    1    2  504  502 -0.11798676792E+03 -0.62254912023E+02 -0.10691147761E+02  0.13383143172E+03  0.00000000000E+00 0.  1.
<mgrwt>
<rscale>  2 0.13340372E+03</rscale>
<asrwt>0</asrwt>
<pdfrwt beam="1">  1       21 0.18348871E-01 0.13340372E+03</pdfrwt>
<pdfrwt beam="2">  1       21 0.22980417E-01 0.13340372E+03</pdfrwt>
<totfact> 0.48552284E+05</totfact>
</mgrwt>
</event>
<event>
 4    1  0.5694171E+003  0.1018714E+03  0.7546771E-02  0.1276409E+00
         21   -1    0    0  504  501  0.00000000000E+00  0.00000000000E+00  0.10650886565E+03  0.10650886565E+03  0.00000000000E+00 0. -1.
         21   -1    0    0  503  502 -0.00000000000E+00 -0.00000000000E+00 -0.10075947181E+03  0.10075947181E+03  0.00000000000E+00 0.  1.
         21    1    1    2  503  501 -0.10011603204E+03  0.18829661360E+02 -0.15947460816E+02  0.10311206295E+03  0.00000000000E+00 0. -1.
         21    1    1    2  504  502  0.10011603204E+03 -0.18829661360E+02  0.21696854665E+02  0.10415627451E+03  0.00000000000E+00 0.  1.
<mgrwt>
<rscale>  2 0.10187137E+03</rscale>
<asrwt>0</asrwt>
<pdfrwt beam="1">  1       21 0.16385979E-01 0.10187137E+03</pdfrwt>
<pdfrwt beam="2">  1       21 0.15501457E-01 0.10187137E+03</pdfrwt>
<totfact> 0.12265036E+06</totfact>
</mgrwt>
</event>
<event>
 4    1  0.5694171E+003  0.1201252E+03  0.7546771E-02  0.1242891E+00
         21   -1    0    0  503  501  0.00000000000E+00  0.00000000000E+00  0.41841844619E+03  0.41841844619E+03  0.00000000000E+00 0.  1.
         21   -1    0    0  504  502 -0.00000000000E+00 -0.00000000000E+00 -0.18158928645E+03  0.18158928645E+03  0.00000000000E+00 0.  1.
         21    1    1    2  503  502  0.35658797786E+01 -0.12007229251E+03 -0.15160247207E+03  0.19342538733E+03  0.00000000000E+00 0.  1.
         21    1    1    2  504  501 -0.35658797786E+01  0.12007229251E+03  0.38843163181E+03  0.40658234531E+03  0.00000000000E+00 0.  1.
<mgrwt>
<rscale>  2 0.12012523E+03</rscale>
<asrwt>0</asrwt>
<pdfrwt beam="1">  1       21 0.64372068E-01 0.12012523E+03</pdfrwt>
<pdfrwt beam="2">  1       21 0.27936813E-01 0.12012523E+03</pdfrwt>
<totfact> 0.28471805E+04</totfact>
</mgrwt>
</event>
<event>
 4    1  0.5694171E+003  0.1228185E+03  0.7546771E-02  0.1238519E+00
         21   -1    0    0  502  501  0.00000000000E+00  0.00000000000E+00  0.15703162210E+03  0.15703162210E+03  0.00000000000E+00 0.  1.
         21   -1    0    0  504  502 -0.00000000000E+00 -0.00000000000E+00 -0.18949284630E+03  0.18949284630E+03  0.00000000000E+00 0.  1.
         21    1    1    2  503  501 -0.64530603903E+02  0.10449963115E+03  0.10543239909E+03  0.16186526041E+03  0.00000000000E+00 0.  1.
         21    1    1    2  504  503  0.64530603903E+02 -0.10449963115E+03 -0.13789362328E+03  0.18465920798E+03  0.00000000000E+00 0.  1.
<mgrwt>
<rscale>  2 0.12281845E+03</rscale>
<asrwt>0</asrwt>
<pdfrwt beam="1">  1       21 0.24158711E-01 0.12281845E+03</pdfrwt>
<pdfrwt beam="2">  1       21 0.29152746E-01 0.12281845E+03</pdfrwt>
<totfact> 0.18581387E+05</totfact>
</mgrwt>
</event>
<event>
 4    1  0.5694171E+003  0.1603303E+03  0.7546771E-02  0.1188324E+00
         21   -1    0    0  503  501  0.00000000000E+00  0.00000000000E+00  0.35393738684E+03  0.35393738684E+03  0.00000000000E+00 0. -1.
         21   -1    0    0  504  502 -0.00000000000E+00 -0.00000000000E+00 -0.14545671911E+03  0.14545671911E+03  0.00000000000E+00 0. -1.
         21    1    1    2  503  502 -0.34437353797E+02 -0.15658818961E+03  0.28092449689E+03  0.32345689885E+03  0.00000000000E+00 0. -1.
         21    1    1    2  504  501  0.34437353797E+02  0.15658818961E+03 -0.72443829159E+02  0.17593720711E+03  0.00000000000E+00 0. -1.
<mgrwt>
<rscale>  2 0.16033026E+03</rscale>
<asrwt>0</asrwt>
<pdfrwt beam="1">  1       21 0.54451905E-01 0.16033026E+03</pdfrwt>
<pdfrwt beam="2">  1       21 0.22377957E-01 0.16033026E+03</pdfrwt>
<totfact> 0.60464527E+04</totfact>
</mgrwt>
</event>
<event>
 4    1  0.5694171E+003  0.1976963E+03  0.7546771E-02  0.1151697E+00
         21   -1    0    0  504  501  0.00000000000E+00  0.00000000000E+00  0.35706152777E+03  0.35706152777E+03  0.00000000000E+00 0.  1.
         21   -1    0    0  503  502 -0.00000000000E+00 -0.00000000000E+00 -0.11061617146E+03  0.11061617146E+03  0.00000000000E+00 0.  1.
         21    1    1    2  503  501  0.17450088999E+03  0.92915413797E+02  0.14713279182E+03  0.24643841656E+03  0.00000000000E+00 0.  1.
         21    1    1    2  504  502 -0.17450088999E+03 -0.92915413797E+02  0.99312564493E+02  0.22123928267E+03  0.00000000000E+00 0.  1.
<mgrwt>
<rscale>  2 0.19769632E+03</rscale>
<asrwt>0</asrwt>
<pdfrwt beam="1">  1       21 0.54932542E-01 0.19769632E+03</pdfrwt>
<pdfrwt beam="2">  1       21 0.17017873E-01 0.19769632E+03</pdfrwt>
<totfact> 0.97173936E+04</totfact>
</mgrwt>
</event>
<event>
 4    1  0.5694171E+003  0.1195248E+03  0.7546771E-02  0.1243883E+00
         21   -1    0    0  504  501  0.00000000000E+00  0.00000000000E+00  0.24708354782E+03  0.24708354782E+03  0.00000000000E+00 0.  1.
         21   -1    0    0  501  502 -0.00000000000E+00 -0.00000000000E+00 -0.27135987870E+03  0.27135987870E+03  0.00000000000E+00 0.  1.
         21    1    1    2  503  502  0.84390757734E+02  0.84642641264E+02 -0.24209104523E+03  0.26998935329E+03  0.00000000000E+00 0.  1.
         21    1    1    2  504  503 -0.84390757734E+02 -0.84642641264E+02  0.21781471436E+03  0.24845407323E+03  0.00000000000E+00 0.  1.
<mgrwt>
<rscale>  2 0.11952480E+03</rscale>
<asrwt>0</asrwt>
<pdfrwt beam="1">  1       21 0.38012854E-01 0.11952480E+03</pdfrwt>
<pdfrwt beam="2">  1       21 0.41747674E-01 0.11952480E+03</pdfrwt>
<totfact> 0.38389993E+04</totfact>
</mgrwt>
</event>
<event>
 4    1  0.5694171E+003  0.2523277E+03  0.7546771E-02  0.1111843E+00
         21   -1    0    0  503  501  0.00000000000E+00  0.00000000000E+00  0.17037356500E+04  0.17037356500E+04  0.00000000000E+00 0.  1.
         21   -1    0    0  501  502 -0.00000000000E+00 -0.00000000000E+00 -0.19081533199E+03  0.19081533199E+03  0.00000000000E+00 0. -1.
         21    1    1    2  503  504 -0.48424759586E+02  0.24763748785E+03  0.16059260434E+04  0.16256284137E+04  0.00000000000E+00 0.  1.
         21    1    1    2  504  502  0.48424759586E+02 -0.24763748785E+03 -0.93005725413E+02  0.26892256821E+03  0.00000000000E+00 0. -1.
<mgrwt>
<rscale>  2 0.25232773E+03</rscale>
<asrwt>0</asrwt>
<pdfrwt beam="1">  1       21 0.26211317E+00 0.25232773E+03</pdfrwt>
<pdfrwt beam="2">  1       21 0.29356206E-01 0.25232773E+03</pdfrwt>
<totfact> 0.58571422E+02</totfact>
</mgrwt>
</event>
<event>
 4    1  0.5694171E+003  0.1137798E+03  0.7546771E-02  0.1253726E+00
         21   -1    0    0  502  501  0.00000000000E+00  0.00000000000E+00  0.22651693940E+02  0.22651693940E+02  0.00000000000E+00 0. -1.
         21   -1    0    0  504  502 -0.00000000000E+00 -0.00000000000E+00 -0.73026184078E+03  0.73026184078E+03  0.00000000000E+00 0. -1.
         21    1    1    2  503  501 -0.10895598341E+03  0.32778540113E+02 -0.17828574054E+03  0.21149856806E+03  0.00000000000E+00 0. -1.
         21    1    1    2  504  503  0.10895598341E+03 -0.32778540113E+02 -0.52932440631E+03  0.54141496666E+03  0.00000000000E+00 0. -1.
<mgrwt>
<rscale>  2 0.11377978E+03</rscale>
<asrwt>0</asrwt>
<pdfrwt beam="1">  1       21 0.34848761E-02 0.11377978E+03</pdfrwt>
<pdfrwt beam="2">  1       21 0.11234797E+00 0.11377978E+03</pdfrwt>
<totfact> 0.31274654E+05</totfact>
</mgrwt>
</event>
<event>
 4    1  0.5694171E+003  0.1121613E+03  0.7546771E-02  0.1256619E+00
         21   -1    0    0  503  501  0.00000000000E+00  0.00000000000E+00  0.30621894834E+03  0.30621894834E+03  0.00000000000E+00 0. -1.
         21   -1    0    0  504  502 -0.00000000000E+00 -0.00000000000E+00 -0.55090721307E+02  0.55090721307E+02  0.00000000000E+00 0. -1.
         21    1    1    2  503  502 -0.10764753369E+03  0.31498692118E+02  0.21666150650E+03  0.24397206298E+03  0.00000000000E+00 0. -1.
         21    1    1    2  504  501  0.10764753369E+03 -0.31498692118E+02  0.34466720531E+02  0.11733760667E+03  0.00000000000E+00 0. -1.
<mgrwt>
<rscale>  2 0.11216131E+03</rscale>
<asrwt>0</asrwt>
<pdfrwt beam="1">  1       21 0.47110606E-01 0.11216131E+03</pdfrwt>
<pdfrwt beam="2">  1       21 0.84754958E-02 0.11216131E+03</pdfrwt>
<totfact> 0.47292277E+05</totfact>
</mgrwt>
</event>
<event>
 4    1  0.5694171E+003  0.1074929E+03  0.7546771E-02  0.1265284E+00
         21   -1    0    0  503  501  0.00000000000E+00  0.00000000000E+00  0.13047214342E+02  0.13047214342E+02  0.00000000000E+00 0.  1.
         21   -1    0    0  504  502 -0.00000000000E+00 -0.00000000000E+00 -0.18711317695E+04  0.18711317695E+04  0.00000000000E+00 0.  1.
         21    1    1    2  503  502  0.76585650443E+02  0.75427919984E+02 -0.16127543717E+04  0.16163326998E+04  0.00000000000E+00 0.  1.
         21    1    1    2  504  501 -0.76585650443E+02 -0.75427919984E+02 -0.24533018348E+03  0.26784628408E+03  0.00000000000E+00 0.  1.
<mgrwt>
<rscale>  2 0.10749294E+03</rscale>
<asrwt>0</asrwt>
<pdfrwt beam="1">  1       21 0.20072633E-02 0.10749294E+03</pdfrwt>
<pdfrwt beam="2">  1       21 0.28786649E+00 0.10749294E+03</pdfrwt>
<totfact> 0.53677820E+04</totfact>
</mgrwt>
</event>
<event>
 4    1  0.5694171E+003  0.1029136E+03  0.7546771E-02  0.1274286E+00
         21   -1    0    0  503  501  0.00000000000E+00  0.00000000000E+00  0.12420015979E+04  0.12420015979E+04  0.00000000000E+00 0. -1.
         21   -1    0    0  501  502 -0.00000000000E+00 -0.00000000000E+00 -0.88330327243E+01  0.88330327243E+01  0.00000000000E+00 0. -1.
         21    1    1    2  503  504  0.72345565885E+02 -0.73193730342E+02  0.50027238538E+03  0.51074814013E+03  0.00000000000E+00 0. -1.
         21    1    1    2  504  502 -0.72345565885E+02  0.73193730342E+02  0.73289617981E+03  0.74008649051E+03  0.00000000000E+00 0. -1.
<mgrwt>
<rscale>  2 0.10291357E+03</rscale>
<asrwt>0</asrwt>
<pdfrwt beam="1">  1       21 0.19107703E+00 0.10291357E+03</pdfrwt>
<pdfrwt beam="2">  1       21 0.13589291E-02 0.10291357E+03</pdfrwt>
<totfact> 0.36664281E+05</totfact>
</mgrwt>
</event>
<event>
 4    1  0.5694171E+003  0.1321372E+03  0.7546771E-02  0.1224319E+00
         21   -1    0    0  503  501  0.00000000000E+00  0.00000000000E+00  0.26643593087E+04  0.26643593087E+04  0.00000000000E+00 0. -1.
         21   -1    0    0  501  502 -0.00000000000E+00 -0.00000000000E+00 -0.31245644486E+03  0.31245644486E+03  0.00000000000E+00 0.  1.
         21    1    1    2  503  504  0.13213633539E+03 -0.47482565685E+00  0.26486681475E+04  0.26519621401E+04  0.00000000000E+00 0. -1.
         21    1    1    2  504  502 -0.13213633539E+03  0.47482565685E+00 -0.29676528370E+03  0.32485361349E+03  0.00000000000E+00 0.  1.
<mgrwt>
<rscale>  2 0.13213719E+03</rscale>
<asrwt>0</asrwt>
<pdfrwt beam="1">  1       21 0.40990142E+00 0.13213719E+03</pdfrwt>
<pdfrwt beam="2">  1       21 0.48070224E-01 0.13213719E+03</pdfrwt>
<totfact> 0.36090488E+01</totfact>
</mgrwt>
</event>
<event>
 4    1  0.5694171E+003  0.1449493E+03  0.7546771E-02  0.1206820E+00
         21   -1    0    0  503  501  0.00000000000E+00  0.00000000000E+00  0.17182310758E+04  0.17182310758E+04  0.00000000000E+00 0.  1.
         21   -1    0    0  504  502 -0.00000000000E+00 -0.00000000000E+00 -0.63339750727E+02  0.63339750727E+02  0.00000000000E+00 0.  1.
         21    1    1    2  503  502 -0.85529061563E+02 -0.11702597732E+03  0.16276407276E+04  0.16340822005E+04  0.00000000000E+00 0.  1.
         21    1    1    2  504  501  0.85529061563E+02  0.11702597732E+03  0.27250597408E+02  0.14748862599E+03  0.00000000000E+00 0.  1.
<mgrwt>
<rscale>  2 0.14494930E+03</rscale>
<asrwt>0</asrwt>
<pdfrwt beam="1">  1       21 0.26434321E+00 0.14494930E+03</pdfrwt>
<pdfrwt beam="2">  1       21 0.97445783E-02 0.14494930E+03</pdfrwt>
<totfact> 0.49311043E+03</totfact>
</mgrwt>
</event>
<event>
 4    1  0.5694171E+003  0.1175050E+03  0.7546771E-02  0.1247271E+00
         21   -1    0    0  504  501  0.00000000000E+00  0.00000000000E+00  0.76786265686E+03  0.76786265686E+03  0.00000000000E+00 0. -1.
         21   -1    0    0  503  502 -0.00000000000E+00 -0.00000000000E+00 -0.18334756276E+02  0.18334756276E+02  0.00000000000E+00 0. -1.
         21    1    1    2  503  501 -0.19952940151E+02 -0.11579859306E+03  0.42931707359E+03  0.44510738441E+03  0.00000000000E+00 0. -1.
         21    1    1    2  504  502  0.19952940151E+02  0.11579859306E+03  0.32021082699E+03  0.34109002873E+03  0.00000000000E+00 0. -1.
<mgrwt>
<rscale>  2 0.11750504E+03</rscale>
<asrwt>0</asrwt>
<pdfrwt beam="1">  1       21 0.11813269E+00 0.11750504E+03</pdfrwt>
<pdfrwt beam="2">  1       21 0.28207323E-02 0.11750504E+03</pdfrwt>
<totfact> 0.39174231E+05</totfact>
</mgrwt>
</event>
<event>
 4    1  0.5694171E+003  0.1468946E+03  0.7546771E-02  0.1204342E+00
         21   -1    0    0  503  501  0.00000000000E+00  0.00000000000E+00  0.35629840246E+02  0.35629840246E+02  0.00000000000E+00 0. -1.
         21   -1    0    0  504  502 -0.00000000000E+00 -0.00000000000E+00 -0.66533157484E+03  0.66533157484E+03  0.00000000000E+00 0. -1.
         21    1    1    2  503  502 -0.14675618469E+03  0.63764614131E+01 -0.41984988045E+03  0.44480552956E+03  0.00000000000E+00 0. -1.
         21    1    1    2  504  501  0.14675618469E+03 -0.63764614131E+01 -0.20985185414E+03  0.25615588553E+03  0.00000000000E+00 0. -1.
<mgrwt>
<rscale>  2 0.14689465E+03</rscale>
<asrwt>0</asrwt>
<pdfrwt beam="1">  1       21 0.54815143E-02 0.14689465E+03</pdfrwt>
<pdfrwt beam="2">  1       21 0.10235870E+00 0.14689465E+03</pdfrwt>
<totfact> 0.18148316E+05</totfact>
</mgrwt>
</event>
<event>
 4    1  0.5694171E+003  0.1517076E+03  0.7546771E-02  0.1198390E+00
         21   -1    0    0  504  501  0.00000000000E+00  0.00000000000E+00  0.11991303035E+04  0.11991303035E+04  0.00000000000E+00 0.  1.
         21   -1    0    0  501  502 -0.00000000000E+00 -0.00000000000E+00 -0.81740389008E+02  0.81740389008E+02  0.00000000000E+00 0.  1.
         21    1    1    2  503  502  0.88542355669E+02 -0.12318867071E+03 -0.15277366569E+01  0.15171529692E+03  0.00000000000E+00 0.  1.
         21    1    1    2  504  503 -0.88542355669E+02  0.12318867071E+03  0.11189176512E+04  0.11291553956E+04  0.00000000000E+00 0.  1.
<mgrwt>
<rscale>  2 0.15170760E+03</rscale>
<asrwt>0</asrwt>
<pdfrwt beam="1">  1       21 0.18448157E+00 0.15170760E+03</pdfrwt>
<pdfrwt beam="2">  1       21 0.12575445E-01 0.15170760E+03</pdfrwt>
<totfact> 0.94951730E+03</totfact>
</mgrwt>
</event>
<event>
 4    1  0.5694171E+003  0.1559262E+03  0.7546771E-02  0.1193374E+00
         21   -1    0    0  503  501  0.00000000000E+00  0.00000000000E+00  0.46236273565E+02  0.46236273565E+02  0.00000000000E+00 0. -1.
         21   -1    0    0  504  502 -0.00000000000E+00 -0.00000000000E+00 -0.68184777397E+03  0.68184777397E+03  0.00000000000E+00 0. -1.
         21    1    1    2  503  502 -0.41654554086E+01 -0.15587056568E+03 -0.49193745452E+03  0.51605759700E+03  0.00000000000E+00 0. -1.
         21    1    1    2  504  501  0.41654554086E+01  0.15587056568E+03 -0.14367404589E+03  0.21202645054E+03  0.00000000000E+00 0. -1.
<mgrwt>
<rscale>  2 0.15592621E+03</rscale>
<asrwt>0</asrwt>
<pdfrwt beam="1">  1       21 0.71132730E-02 0.15592621E+03</pdfrwt>
<pdfrwt beam="2">  1       21 0.10489966E+00 0.15592621E+03</pdfrwt>
<totfact> 0.10941010E+05</totfact>
</mgrwt>
</event>
<event>
 4    1  0.5694171E+003  0.1061620E+03  0.7546771E-02  0.1267847E+00
         21   -1    0    0  503  501  0.00000000000E+00  0.00000000000E+00  0.10146098904E+03  0.10146098904E+03  0.00000000000E+00 0.  1.
         21   -1    0    0  504  502 -0.00000000000E+00 -0.00000000000E+00 -0.16574355971E+03  0.16574355971E+03  0.00000000000E+00 0.  1.
         21    1    1    2  503  502  0.80558338604E+01 -0.10585594855E+03 -0.10886699028E+03  0.15206051385E+03  0.00000000000E+00 0.  1.
         21    1    1    2  504  501 -0.80558338604E+01  0.10585594855E+03  0.44584419603E+02  0.11514403490E+03  0.00000000000E+00 0.  1.
<mgrwt>
<rscale>  2 0.10616204E+03</rscale>
<asrwt>0</asrwt>
<pdfrwt beam="1">  1       21 0.15609383E-01 0.10616204E+03</pdfrwt>
<pdfrwt beam="2">  1       21 0.25499009E-01 0.10616204E+03</pdfrwt>
<totfact> 0.53653488E+05</totfact>
</mgrwt>
</event>
<event>
 4    1  0.5694171E+003  0.1296415E+03  0.7546771E-02  0.1227989E+00
         21   -1    0    0  503  501  0.00000000000E+00  0.00000000000E+00  0.11259105551E+03  0.11259105551E+03  0.00000000000E+00 0. -1.
         21   -1    0    0  501  502 -0.00000000000E+00 -0.00000000000E+00 -0.20085381746E+03  0.20085381746E+03  0.00000000000E+00 0.  1.
         21    1    1    2  503  504 -0.11432083313E+03  0.61136456396E+02  0.35288815370E+02  0.13435854896E+03  0.00000000000E+00 0. -1.
         21    1    1    2  504  502  0.11432083313E+03 -0.61136456396E+02 -0.12355157732E+03  0.17908632401E+03  0.00000000000E+00 0.  1.
<mgrwt>
<rscale>  2 0.12964150E+03</rscale>
<asrwt>0</asrwt>
<pdfrwt beam="1">  1       21 0.17321701E-01 0.12964150E+03</pdfrwt>
<pdfrwt beam="2">  1       21 0.30900587E-01 0.12964150E+03</pdfrwt>
<totfact> 0.30707853E+05</totfact>
</mgrwt>
</event>
<event>
 4    1  0.5694171E+003  0.1223619E+03  0.7546771E-02  0.1239251E+00
         21   -1    0    0  503  501  0.00000000000E+00  0.00000000000E+00  0.88516508509E+02  0.88516508509E+02  0.00000000000E+00 0.  1.
         21   -1    0    0  504  502 -0.00000000000E+00 -0.00000000000E+00 -0.21487288440E+03  0.21487288440E+03  0.00000000000E+00 0.  1.
         21    1    1    2  503  502 -0.12127314948E+03  0.16286707808E+02 -0.13315490726E+03  0.18083877616E+03  0.00000000000E+00 0.  1.
         21    1    1    2  504  501  0.12127314948E+03 -0.16286707808E+02  0.67985313627E+01  0.12255061675E+03  0.00000000000E+00 0.  1.
<mgrwt>
<rscale>  2 0.12236190E+03</rscale>
<asrwt>0</asrwt>
<pdfrwt beam="1">  1       21 0.13617924E-01 0.12236190E+03</pdfrwt>
<pdfrwt beam="2">  1       21 0.33057367E-01 0.12236190E+03</pdfrwt>
<totfact> 0.41628779E+05</totfact>
</mgrwt>
</event>
<event>
 4    1  0.5694171E+003  0.1423374E+03  0.7546771E-02  0.1210218E+00
         21   -1    0    0  503  501  0.00000000000E+00  0.00000000000E+00  0.65345306219E+03  0.65345306219E+03  0.00000000000E+00 0. -1.
         21   -1    0    0  504  502 -0.00000000000E+00 -0.00000000000E+00 -0.32638617158E+02  0.32638617158E+02  0.00000000000E+00 0. -1.
         21    1    1    2  503  502  0.13964327807E+03  0.27562286523E+02  0.23364629329E+03  0.27358822182E+03  0.00000000000E+00 0. -1.
         21    1    1    2  504  501 -0.13964327807E+03 -0.27562286523E+02  0.38716815174E+03  0.41250345753E+03  0.00000000000E+00 0. -1.
<mgrwt>
<rscale>  2 0.14233736E+03</rscale>
<asrwt>0</asrwt>
<pdfrwt beam="1">  1       21 0.10053123E+00 0.14233736E+03</pdfrwt>
<pdfrwt beam="2">  1       21 0.50213262E-02 0.14233736E+03</pdfrwt>
<totfact> 0.21989786E+05</totfact>
</mgrwt>
</event>
<event>
 4    1  0.5694171E+003  0.1020603E+03  0.7546771E-02  0.1276022E+00
         21   -1    0    0  504  501  0.00000000000E+00  0.00000000000E+00  0.91544747542E+03  0.91544747542E+03  0.00000000000E+00 0.  1.
         21   -1    0    0  501  502 -0.00000000000E+00 -0.00000000000E+00 -0.76165549971E+03  0.76165549971E+03  0.00000000000E+00 0. -1.
         21    1    1    2  503  502 -0.10102396327E+03 -0.14507143095E+02 -0.75536837205E+03  0.76223203544E+03  0.00000000000E+00 0. -1.
         21    1    1    2  504  503  0.10102396327E+03  0.14507143095E+02  0.90916034776E+03  0.91487093969E+03  0.00000000000E+00 0.  1.
<mgrwt>
<rscale>  2 0.10206027E+03</rscale>
<asrwt>0</asrwt>
<pdfrwt beam="1">  1       21 0.14083807E+00 0.10206027E+03</pdfrwt>
<pdfrwt beam="2">  1       21 0.11717777E+00 0.10206027E+03</pdfrwt>
<totfact> 0.22967847E+02</totfact>
</mgrwt>
</event>
<event>
 4    1  0.5694171E+003  0.1087661E+03  0.7546771E-02  0.1262872E+00
         21   -1    0    0  503  501  0.00000000000E+00  0.00000000000E+00  0.72813185438E+03  0.72813185438E+03  0.00000000000E+00 0. -1.
         21   -1    0    0  504  502 -0.00000000000E+00 -0.00000000000E+00 -0.21796737001E+02  0.21796737001E+02  0.00000000000E+00 0.  1.
         21    1    1    2  503  502 -0.42371594721E+01 -0.10868353055E+03  0.54236912513E+03  0.55316754354E+03  0.00000000000E+00 0. -1.
         21    1    1    2  504  501  0.42371594721E+01  0.10868353055E+03  0.16396599225E+03  0.19676104784E+03  0.00000000000E+00 0.  1.
<mgrwt>
<rscale>  2 0.10876609E+03</rscale>
<asrwt>0</asrwt>
<pdfrwt beam="1">  1       21 0.11202027E+00 0.10876609E+03</pdfrwt>
<pdfrwt beam="2">  1       21 0.33533447E-02 0.10876609E+03</pdfrwt>
<totfact> 0.33593365E+05</totfact>
</mgrwt>
</event>
<event>
 4    1  0.5694171E+003  0.1180405E+03  0.7546771E-02  0.1246365E+00
         21   -1    0    0  502  501  0.00000000000E+00  0.00000000000E+00  0.41375871829E+03  0.41375871829E+03  0.00000000000E+00 0. -1.
         21   -1    0    0  504  502 -0.00000000000E+00 -0.00000000000E+00 -0.80313887803E+02  0.80313887803E+02  0.00000000000E+00 0. -1.
         21    1    1    2  503  501 -0.15000626709E+02 -0.11708350368E+03  0.35497321833E+03  0.37408495207E+03  0.00000000000E+00 0. -1.
         21    1    1    2  504  503  0.15000626709E+02  0.11708350368E+03 -0.21528387839E+02  0.11998765402E+03  0.00000000000E+00 0. -1.
<mgrwt>
<rscale>  2 0.11804053E+03</rscale>
<asrwt>0</asrwt>
<pdfrwt beam="1">  1       21 0.63655186E-01 0.11804053E+03</pdfrwt>
<pdfrwt beam="2">  1       21 0.12355983E-01 0.11804053E+03</pdfrwt>
<totfact> 0.13044524E+05</totfact>
</mgrwt>
</event>
<event>
 4    1  0.5694171E+003  0.1066796E+03  0.7546771E-02  0.1266845E+00
         21   -1    0    0  504  501  0.00000000000E+00  0.00000000000E+00  0.12333781689E+03  0.12333781689E+03  0.00000000000E+00 0.  1.
         21   -1    0    0  503  502 -0.00000000000E+00 -0.00000000000E+00 -0.15875674772E+03  0.15875674772E+03  0.00000000000E+00 0.  1.
         21    1    1    2  503  501  0.47745833924E+02  0.95398448557E+02  0.73567720886E+02  0.12958679794E+03  0.00000000000E+00 0.  1.
         21    1    1    2  504  502 -0.47745833924E+02 -0.95398448557E+02 -0.10898665171E+03  0.15250776667E+03  0.00000000000E+00 0.  1.
<mgrwt>
<rscale>  2 0.10667956E+03</rscale>
<asrwt>0</asrwt>
<pdfrwt beam="1">  1       21 0.18975049E-01 0.10667956E+03</pdfrwt>
<pdfrwt beam="2">  1       21 0.24424115E-01 0.10667956E+03</pdfrwt>
<totfact> 0.40823339E+05</totfact>
</mgrwt>
</event>
<event>
 4    1  0.5694171E+003  0.1580828E+03  0.7546771E-02  0.1190878E+00
         21   -1    0    0  503  501  0.00000000000E+00  0.00000000000E+00  0.19130070142E+04  0.19130070142E+04  0.00000000000E+00 0. -1.
         21   -1    0    0  504  502 -0.00000000000E+00 -0.00000000000E+00 -0.15874340085E+02  0.15874340085E+02  0.00000000000E+00 0. -1.
         21    1    1    2  503  502 -0.15673257671E+03 -0.20617295249E+02  0.13544126877E+04  0.13636069456E+04  0.00000000000E+00 0. -1.
         21    1    1    2  504  501  0.15673257671E+03  0.20617295249E+02  0.54271998636E+03  0.56527440864E+03  0.00000000000E+00 0. -1.
<mgrwt>
<rscale>  2 0.15808281E+03</rscale>
<asrwt>0</asrwt>
<pdfrwt beam="1">  1       21 0.29430859E+00 0.15808281E+03</pdfrwt>
<pdfrwt beam="2">  1       21 0.24422077E-02 0.15808281E+03</pdfrwt>
<totfact> 0.33831970E+04</totfact>
</mgrwt>
</event>
<event>
 4    1  0.5694171E+003  0.1136537E+03  0.7546771E-02  0.1253950E+00
         21   -1    0    0  504  501  0.00000000000E+00  0.00000000000E+00  0.47751294704E+03  0.47751294704E+03  0.00000000000E+00 0.  1.
         21   -1    0    0  503  502 -0.00000000000E+00 -0.00000000000E+00 -0.66751449375E+02  0.66751449375E+02  0.00000000000E+00 0. -1.
         21    1    1    2  503  501 -0.75144981830E+01 -0.11340503754E+03 -0.44879468789E+01  0.11374230475E+03  0.00000000000E+00 0. -1.
         21    1    1    2  504  502  0.75144981830E+01  0.11340503754E+03  0.41524944454E+03  0.43052209167E+03  0.00000000000E+00 0.  1.
<mgrwt>
<rscale>  2 0.11365373E+03</rscale>
<asrwt>0</asrwt>
<pdfrwt beam="1">  1       21 0.73463528E-01 0.11365373E+03</pdfrwt>
<pdfrwt beam="2">  1       21 0.10269454E-01 0.11365373E+03</pdfrwt>
<totfact> 0.13265941E+05</totfact>
</mgrwt>
</event>
<event>
 4    1  0.5694171E+003  0.2025335E+03  0.7546771E-02  0.1147619E+00
         21   -1    0    0  503  501  0.00000000000E+00  0.00000000000E+00  0.48278932097E+03  0.48278932097E+03  0.00000000000E+00 0. -1.
         21   -1    0    0  504  502 -0.00000000000E+00 -0.00000000000E+00 -0.19275036645E+03  0.19275036645E+03  0.00000000000E+00 0. -1.
         21    1    1    2  503  502  0.17731905344E+03 -0.97866090859E+02 -0.10756388372E+03  0.22932467711E+03  0.00000000000E+00 0. -1.
         21    1    1    2  504  501 -0.17731905344E+03  0.97866090859E+02  0.39760283823E+03  0.44621501031E+03  0.00000000000E+00 0. -1.
<mgrwt>
<rscale>  2 0.20253350E+03</rscale>
<asrwt>0</asrwt>
<pdfrwt beam="1">  1       21 0.74275280E-01 0.20253350E+03</pdfrwt>
<pdfrwt beam="2">  1       21 0.29653903E-01 0.20253350E+03</pdfrwt>
<totfact> 0.17600615E+04</totfact>
</mgrwt>
</event>
<event>
 4    1  0.5694171E+003  0.1477538E+03  0.7546771E-02  0.1203261E+00
         21   -1    0    0  503  501  0.00000000000E+00  0.00000000000E+00  0.26255172136E+02  0.26255172136E+02  0.00000000000E+00 0.  1.
         21   -1    0    0  504  502 -0.00000000000E+00 -0.00000000000E+00 -0.11933046561E+04  0.11933046561E+04  0.00000000000E+00 0.  1.
         21    1    1    2  503  502 -0.86841434061E+02 -0.11953973426E+03 -0.24776056376E+03  0.28847266714E+03  0.00000000000E+00 0.  1.
         21    1    1    2  504  501  0.86841434061E+02  0.11953973426E+03 -0.91928892023E+03  0.93108716111E+03  0.00000000000E+00 0.  1.
<mgrwt>
<rscale>  2 0.14775379E+03</rscale>
<asrwt>0</asrwt>
<pdfrwt beam="1">  1       21 0.40392563E-02 0.14775379E+03</pdfrwt>
<pdfrwt beam="2">  1       21 0.18358537E+00 0.14775379E+03</pdfrwt>
<totfact> 0.68187241E+04</totfact>
</mgrwt>
</event>
<event>
 4    1  0.5694171E+003  0.2063014E+03  0.7546771E-02  0.1144529E+00
         21   -1    0    0  504  501  0.00000000000E+00  0.00000000000E+00  0.69947144394E+03  0.69947144394E+03  0.00000000000E+00 0. -1.
         21   -1    0    0  503  502 -0.00000000000E+00 -0.00000000000E+00 -0.77923769687E+02  0.77923769687E+02  0.00000000000E+00 0. -1.
         21    1    1    2  503  501 -0.93169157080E+02  0.18406463704E+03  0.49273891564E+03  0.53418341553E+03  0.00000000000E+00 0. -1.
         21    1    1    2  504  502  0.93169157080E+02 -0.18406463704E+03  0.12880875862E+03  0.24321179810E+03  0.00000000000E+00 0. -1.
<mgrwt>
<rscale>  2 0.20630144E+03</rscale>
<asrwt>0</asrwt>
<pdfrwt beam="1">  1       21 0.10761099E+00 0.20630144E+03</pdfrwt>
<pdfrwt beam="2">  1       21 0.11988273E-01 0.20630144E+03</pdfrwt>
<totfact> 0.40185081E+04</totfact>
</mgrwt>
</event>
<event>
 4    1  0.5694171E+003  0.1098224E+03  0.7546771E-02  0.1260899E+00
         21   -1    0    0  503  501  0.00000000000E+00  0.00000000000E+00  0.26480229186E+02  0.26480229186E+02  0.00000000000E+00 0.  1.
         21   -1    0    0  504  502 -0.00000000000E+00 -0.00000000000E+00 -0.48770975100E+03  0.48770975100E+03  0.00000000000E+00 0.  1.
         21    1    1    2  503  502  0.10808119146E+03 -0.19478772053E+02 -0.16451429334E+03  0.19780272804E+03  0.00000000000E+00 0.  1.
         21    1    1    2  504  501 -0.10808119146E+03  0.19478772053E+02 -0.29671522847E+03  0.31638725214E+03  0.00000000000E+00 0.  1.
<mgrwt>
<rscale>  2 0.10982243E+03</rscale>
<asrwt>0</asrwt>
<pdfrwt beam="1">  1       21 0.40738814E-02 0.10982243E+03</pdfrwt>
<pdfrwt beam="2">  1       21 0.75032270E-01 0.10982243E+03</pdfrwt>
<totfact> 0.60940705E+05</totfact>
</mgrwt>
</event>
<event>
 4    1  0.5694171E+003  0.1227220E+03  0.7546771E-02  0.1238673E+00
         21   -1    0    0  503  501  0.00000000000E+00  0.00000000000E+00  0.29878867012E+03  0.29878867012E+03  0.00000000000E+00 0. -1.
         21   -1    0    0  504  502 -0.00000000000E+00 -0.00000000000E+00 -0.55138763706E+02  0.55138763706E+02  0.00000000000E+00 0. -1.
         21    1    1    2  503  502 -0.99878451411E+02  0.71309109814E+02  0.17367157038E+03  0.21265584534E+03  0.00000000000E+00 0. -1.
         21    1    1    2  504  501  0.99878451411E+02 -0.71309109814E+02  0.69978336032E+02  0.14127158848E+03  0.00000000000E+00 0. -1.
<mgrwt>
<rscale>  2 0.12272202E+03</rscale>
<asrwt>0</asrwt>
<pdfrwt beam="1">  1       21 0.45967487E-01 0.12272202E+03</pdfrwt>
<pdfrwt beam="2">  1       21 0.84828869E-02 0.12272202E+03</pdfrwt>
<totfact> 0.49596482E+05</totfact>
</mgrwt>
</event>
<event>
 4    1  0.5694171E+003  0.1139901E+03  0.7546771E-02  0.1253354E+00
         21   -1    0    0  504  501  0.00000000000E+00  0.00000000000E+00  0.12518562720E+03  0.12518562720E+03  0.00000000000E+00 0.  1.
         21   -1    0    0  503  502 -0.00000000000E+00 -0.00000000000E+00 -0.10639758852E+03  0.10639758852E+03  0.00000000000E+00 0.  1.
         21    1    1    2  503  501 -0.97076624550E+02 -0.59748433350E+02  0.27500936845E+02  0.11726059803E+03  0.00000000000E+00 0.  1.
         21    1    1    2  504  502  0.97076624550E+02  0.59748433350E+02 -0.87128981656E+01  0.11432261769E+03  0.00000000000E+00 0.  1.
<mgrwt>
<rscale>  2 0.11399012E+03</rscale>
<asrwt>0</asrwt>
<pdfrwt beam="1">  1       21 0.19259327E-01 0.11399012E+03</pdfrwt>
<pdfrwt beam="2">  1       21 0.16368860E-01 0.11399012E+03</pdfrwt>
<totfact> 0.82996364E+05</totfact>
</mgrwt>
</event>
<event>
 4    1  0.5694171E+003  0.1216945E+03  0.7546771E-02  0.1240327E+00
         21   -1    0    0  503  501  0.00000000000E+00  0.00000000000E+00  0.66336608794E+02  0.66336608794E+02  0.00000000000E+00 0.  1.
         21   -1    0    0  504  502 -0.00000000000E+00 -0.00000000000E+00 -0.24042650303E+03  0.24042650303E+03  0.00000000000E+00 0.  1.
         21    1    1    2  503  502 -0.12044185851E+03  0.17416021231E+02 -0.12804328719E+03  0.17664835825E+03  0.00000000000E+00 0.  1.
         21    1    1    2  504  501  0.12044185851E+03 -0.17416021231E+02 -0.46046607042E+02  0.13011475357E+03  0.00000000000E+00 0.  1.
<mgrwt>
<rscale>  2 0.12169453E+03</rscale>
<asrwt>0</asrwt>
<pdfrwt beam="1">  1       21 0.10205632E-01 0.12169453E+03</pdfrwt>
<pdfrwt beam="2">  1       21 0.36988693E-01 0.12169453E+03</pdfrwt>
<totfact> 0.55599831E+05</totfact>
</mgrwt>
</event>
<event>
 4    1  0.5694171E+003  0.2217369E+03  0.7546771E-02  0.1132595E+00
         21   -1    0    0  503  501  0.00000000000E+00  0.00000000000E+00  0.47968873799E+03  0.47968873799E+03  0.00000000000E+00 0. -1.
         21   -1    0    0  501  502 -0.00000000000E+00 -0.00000000000E+00 -0.13333008535E+03  0.13333008535E+03  0.00000000000E+00 0. -1.
         21    1    1    2  503  504 -0.10554109160E+03 -0.19500855985E+03  0.32057317622E+03  0.38978766238E+03  0.00000000000E+00 0. -1.
         21    1    1    2  504  502  0.10554109160E+03  0.19500855985E+03  0.25785476424E+02  0.22323116096E+03  0.00000000000E+00 0. -1.
<mgrwt>
<rscale>  2 0.22173692E+03</rscale>
<asrwt>0</asrwt>
<pdfrwt beam="1">  1       21 0.73798267E-01 0.22173692E+03</pdfrwt>
<pdfrwt beam="2">  1       21 0.20512321E-01 0.22173692E+03</pdfrwt>
<totfact> 0.35744804E+04</totfact>
</mgrwt>
</event>
<event>
 4    1  0.5694171E+003  0.1076037E+03  0.7546771E-02  0.1265073E+00
         21   -1    0    0  504  501  0.00000000000E+00  0.00000000000E+00  0.54588900544E+02  0.54588900544E+02  0.00000000000E+00 0.  1.
         21   -1    0    0  501  502 -0.00000000000E+00 -0.00000000000E+00 -0.22557924152E+03  0.22557924152E+03  0.00000000000E+00 0.  1.
         21    1    1    2  503  502  0.44960485479E+02 -0.97760461155E+02 -0.11973242633E+03  0.16097952334E+03  0.00000000000E+00 0.  1.
         21    1    1    2  504  503 -0.44960485479E+02  0.97760461155E+02 -0.51257914651E+02  0.11918861873E+03  0.00000000000E+00 0.  1.
<mgrwt>
<rscale>  2 0.10760368E+03</rscale>
<asrwt>0</asrwt>
<pdfrwt beam="1">  1       21 0.83982925E-02 0.10760368E+03</pdfrwt>
<pdfrwt beam="2">  1       21 0.34704498E-01 0.10760368E+03</pdfrwt>
<totfact> 0.88358975E+05</totfact>
</mgrwt>
</event>
<event>
 4    1  0.5694171E+003  0.1122126E+03  0.7546771E-02  0.1256526E+00
         21   -1    0    0  503  501  0.00000000000E+00  0.00000000000E+00  0.54835983113E+03  0.54835983113E+03  0.00000000000E+00 0.  1.
         21   -1    0    0  504  502 -0.00000000000E+00 -0.00000000000E+00 -0.29473407185E+02  0.29473407185E+02  0.00000000000E+00 0. -1.
         21    1    1    2  503  502  0.32415829777E+02  0.10742849994E+03  0.39523727432E+03  0.41085784845E+03  0.00000000000E+00 0.  1.
         21    1    1    2  504  501 -0.32415829777E+02 -0.10742849994E+03  0.12364914962E+03  0.16697538987E+03  0.00000000000E+00 0. -1.
<mgrwt>
<rscale>  2 0.11221260E+03</rscale>
<asrwt>0</asrwt>
<pdfrwt beam="1">  1       21 0.84363043E-01 0.11221260E+03</pdfrwt>
<pdfrwt beam="2">  1       21 0.45343707E-02 0.11221260E+03</pdfrwt>
<totfact> 0.39303624E+05</totfact>
</mgrwt>
</event>
<event>
 4    1  0.5694171E+003  0.1126863E+03  0.7546771E-02  0.1255675E+00
         21   -1    0    0  504  501  0.00000000000E+00  0.00000000000E+00  0.44455734017E+03  0.44455734017E+03  0.00000000000E+00 0.  1.
         21   -1    0    0  503  502 -0.00000000000E+00 -0.00000000000E+00 -0.30707520307E+02  0.30707520307E+02  0.00000000000E+00 0.  1.
         21    1    1    2  503  501 -0.86339314327E+02  0.72413538326E+02  0.26971319361E+03  0.29230703813E+03  0.00000000000E+00 0.  1.
         21    1    1    2  504  502  0.86339314327E+02 -0.72413538326E+02  0.14413662625E+03  0.18295782235E+03  0.00000000000E+00 0.  1.
<mgrwt>
<rscale>  2 0.11268628E+03</rscale>
<asrwt>0</asrwt>
<pdfrwt beam="1">  1       21 0.68393432E-01 0.11268628E+03</pdfrwt>
<pdfrwt beam="2">  1       21 0.47242342E-02 0.11268628E+03</pdfrwt>
<totfact> 0.58287856E+05</totfact>
</mgrwt>
</event>
<event>
 4    1  0.5694171E+003  0.1608650E+03  0.7546771E-02  0.1187724E+00
         21   -1    0    0  504  501  0.00000000000E+00  0.00000000000E+00  0.35754341154E+03  0.35754341154E+03  0.00000000000E+00 0.  1.
         21   -1    0    0  503  502 -0.00000000000E+00 -0.00000000000E+00 -0.77095401902E+02  0.77095401902E+02  0.00000000000E+00 0.  1.
         21    1    1    2  503  501  0.15796013408E+03 -0.30432679588E+02  0.86455366022E+02  0.18262552466E+03  0.00000000000E+00 0.  1.
         21    1    1    2  504  502 -0.15796013408E+03  0.30432679588E+02  0.19399264362E+03  0.25201328878E+03  0.00000000000E+00 0.  1.
<mgrwt>
<rscale>  2 0.16086501E+03</rscale>
<asrwt>0</asrwt>
<pdfrwt beam="1">  1       21 0.55006678E-01 0.16086501E+03</pdfrwt>
<pdfrwt beam="2">  1       21 0.11860831E-01 0.16086501E+03</pdfrwt>
<totfact> 0.18870773E+05</totfact>
</mgrwt>
</event>
<event>
 4    1  0.5694171E+003  0.1132236E+03  0.7546771E-02  0.1254714E+00
         21   -1    0    0  504  501  0.00000000000E+00  0.00000000000E+00  0.47744275142E+02  0.47744275142E+02  0.00000000000E+00 0. -1.
         21   -1    0    0  503  502 -0.00000000000E+00 -0.00000000000E+00 -0.40912789776E+03  0.40912789776E+03  0.00000000000E+00 0.  1.
         21    1    1    2  503  501  0.59302773860E+02 -0.96450891765E+02 -0.31461711461E+03  0.33437033707E+03  0.00000000000E+00 0.  1.
         21    1    1    2  504  502 -0.59302773860E+02  0.96450891765E+02 -0.46766508008E+02  0.12250183583E+03  0.00000000000E+00 0. -1.
<mgrwt>
<rscale>  2 0.11322364E+03</rscale>
<asrwt>0</asrwt>
<pdfrwt beam="1">  1       21 0.73452733E-02 0.11322364E+03</pdfrwt>
<pdfrwt beam="2">  1       21 0.62942752E-01 0.11322364E+03</pdfrwt>
<totfact> 0.33061111E+05</totfact>
</mgrwt>
</event>
<event>
 4    1  0.5694171E+003  0.1308169E+03  0.7546771E-02  0.1226249E+00
         21   -1    0    0  502  501  0.00000000000E+00  0.00000000000E+00  0.13058445093E+04  0.13058445093E+04  0.00000000000E+00 0. -1.
         21   -1    0    0  504  502 -0.00000000000E+00 -0.00000000000E+00 -0.48722359293E+02  0.48722359293E+02  0.00000000000E+00 0. -1.
         21    1    1    2  503  501  0.12697392001E+03  0.31474966630E+02  0.12076394605E+04  0.12147041271E+04  0.00000000000E+00 0. -1.
         21    1    1    2  504  503 -0.12697392001E+03 -0.31474966630E+02  0.49482689490E+02  0.13986274145E+03  0.00000000000E+00 0. -1.
<mgrwt>
<rscale>  2 0.13081686E+03</rscale>
<asrwt>0</asrwt>
<pdfrwt beam="1">  1       21 0.20089913E+00 0.13081686E+03</pdfrwt>
<pdfrwt beam="2">  1       21 0.74957486E-02 0.13081686E+03</pdfrwt>
<totfact> 0.18779696E+04</totfact>
</mgrwt>
</event>
<event>
 4    1  0.5694171E+003  0.1348076E+03  0.7546771E-02  0.1220492E+00
         21   -1    0    0  503  501  0.00000000000E+00  0.00000000000E+00  0.11919404065E+02  0.11919404065E+02  0.00000000000E+00 0. -1.
         21   -1    0    0  504  502 -0.00000000000E+00 -0.00000000000E+00 -0.18547579707E+04  0.18547579707E+04  0.00000000000E+00 0. -1.
         21    1    1    2  503  502  0.79754355122E+02  0.10868452325E+03 -0.52767466107E+03  0.54462246620E+03  0.00000000000E+00 0. -1.
         21    1    1    2  504  501 -0.79754355122E+02 -0.10868452325E+03 -0.13151639055E+04  0.13220549085E+04  0.00000000000E+00 0. -1.
<mgrwt>
<rscale>  2 0.13480758E+03</rscale>
<asrwt>0</asrwt>
<pdfrwt beam="1">  1       21 0.18337547E-02 0.13480758E+03</pdfrwt>
<pdfrwt beam="2">  1       21 0.28534735E+00 0.13480758E+03</pdfrwt>
<totfact> 0.62016785E+04</totfact>
</mgrwt>
</event>
<event>
 4    1  0.5694171E+003  0.1037075E+03  0.7546771E-02  0.1272687E+00
         21   -1    0    0  504  501  0.00000000000E+00  0.00000000000E+00  0.22341891606E+03  0.22341891606E+03  0.00000000000E+00 0.  1.
         21   -1    0    0  503  502 -0.00000000000E+00 -0.00000000000E+00 -0.50994360338E+02  0.50994360338E+02  0.00000000000E+00 0.  1.
         21    1    1    2  503  501  0.50805359231E+02 -0.90410562578E+02  0.11867713390E+03  0.15760557244E+03  0.00000000000E+00 0.  1.
         21    1    1    2  504  502 -0.50805359231E+02  0.90410562578E+02  0.53747421818E+02  0.11680770396E+03  0.00000000000E+00 0.  1.
<mgrwt>
<rscale>  2 0.10370754E+03</rscale>
<asrwt>0</asrwt>
<pdfrwt beam="1">  1       21 0.34372141E-01 0.10370754E+03</pdfrwt>
<pdfrwt beam="2">  1       21 0.78452863E-02 0.10370754E+03</pdfrwt>
<totfact> 0.10115199E+06</totfact>
</mgrwt>
</event>
<event>
 4    1  0.5694171E+003  0.1065146E+03  0.7546771E-02  0.1267164E+00
         21   -1    0    0  502  501  0.00000000000E+00  0.00000000000E+00  0.13294239830E+03  0.13294239830E+03  0.00000000000E+00 0.  1.
         21   -1    0    0  504  502 -0.00000000000E+00 -0.00000000000E+00 -0.10256929483E+03  0.10256929483E+03  0.00000000000E+00 0.  1.
         21    1    1    2  503  501  0.28704459122E+02  0.10257397871E+03  0.63448137844E+02  0.12397997128E+03  0.00000000000E+00 0.  1.
         21    1    1    2  504  503 -0.28704459122E+02 -0.10257397871E+03 -0.33075034378E+02  0.11153172186E+03  0.00000000000E+00 0.  1.
<mgrwt>
<rscale>  2 0.10651463E+03</rscale>
<asrwt>0</asrwt>
<pdfrwt beam="1">  1       21 0.20452677E-01 0.10651463E+03</pdfrwt>
<pdfrwt beam="2">  1       21 0.15779892E-01 0.10651463E+03</pdfrwt>
<totfact> 0.79347703E+05</totfact>
</mgrwt>
</event>
<event>
 4    1  0.5694171E+003  0.1633847E+03  0.7546771E-02  0.1184928E+00
         21   -1    0    0  503  501  0.00000000000E+00  0.00000000000E+00  0.16090766806E+03  0.16090766806E+03  0.00000000000E+00 0.  1.
         21   -1    0    0  504  502 -0.00000000000E+00 -0.00000000000E+00 -0.34312999312E+03  0.34312999312E+03  0.00000000000E+00 0. -1.
         21    1    1    2  503  502 -0.14608450639E+03  0.73170107088E+02 -0.27223371284E+03  0.31749919997E+03  0.00000000000E+00 0. -1.
         21    1    1    2  504  501  0.14608450639E+03 -0.73170107088E+02  0.90011387774E+02  0.18653846120E+03  0.00000000000E+00 0.  1.
<mgrwt>
<rscale>  2 0.16338466E+03</rscale>
<asrwt>0</asrwt>
<pdfrwt beam="1">  1       21 0.24755026E-01 0.16338466E+03</pdfrwt>
<pdfrwt beam="2">  1       21 0.52789230E-01 0.16338466E+03</pdfrwt>
<totfact> 0.53239570E+04</totfact>
</mgrwt>
</event>
<event>
 4    1  0.5694171E+003  0.1002721E+03  0.7546771E-02  0.1279725E+00
         21   -1    0    0  502  501  0.00000000000E+00  0.00000000000E+00  0.54052955196E+02  0.54052955196E+02  0.00000000000E+00 0. -1.
         21   -1    0    0  504  502 -0.00000000000E+00 -0.00000000000E+00 -0.90970013740E+03  0.90970013740E+03  0.00000000000E+00 0. -1.
         21    1    1    2  503  501  0.21329418077E+02 -0.97977320921E+02  0.19724186393E+01  0.10029152470E+03  0.00000000000E+00 0. -1.
         21    1    1    2  504  503 -0.21329418077E+02  0.97977320921E+02 -0.85761960084E+03  0.86346156790E+03  0.00000000000E+00 0. -1.
<mgrwt>
<rscale>  2 0.10027213E+03</rscale>
<asrwt>0</asrwt>
<pdfrwt beam="1">  1       21 0.83158397E-02 0.10027213E+03</pdfrwt>
<pdfrwt beam="2">  1       21 0.13995386E+00 0.10027213E+03</pdfrwt>
<totfact> 0.42711666E+04</totfact>
</mgrwt>
</event>
<event>
 4    1  0.5694171E+003  0.1033065E+03  0.7546771E-02  0.1273493E+00
         21   -1    0    0  503  501  0.00000000000E+00  0.00000000000E+00  0.19456564966E+04  0.19456564966E+04  0.00000000000E+00 0. -1.
         21   -1    0    0  501  502 -0.00000000000E+00 -0.00000000000E+00 -0.64162867011E+02  0.64162867011E+02  0.00000000000E+00 0. -1.
         21    1    1    2  503  504 -0.22578153783E+02  0.10080901296E+03  0.19017431475E+04  0.19045469879E+04  0.00000000000E+00 0. -1.
         21    1    1    2  504  502  0.22578153783E+02 -0.10080901296E+03 -0.20249517855E+02  0.10527237575E+03  0.00000000000E+00 0. -1.
<mgrwt>
<rscale>  2 0.10330649E+03</rscale>
<asrwt>0</asrwt>
<pdfrwt beam="1">  1       21 0.29933172E+00 0.10330649E+03</pdfrwt>
<pdfrwt beam="2">  1       21 0.98712118E-02 0.10330649E+03</pdfrwt>
<totfact> 0.32949073E+03</totfact>
</mgrwt>
</event>
<event>
 4    1  0.5694171E+003  0.1281070E+03  0.7546771E-02  0.1230292E+00
         21   -1    0    0  502  501  0.00000000000E+00  0.00000000000E+00  0.48687845488E+02  0.48687845488E+02  0.00000000000E+00 0.  1.
         21   -1    0    0  503  502 -0.00000000000E+00 -0.00000000000E+00 -0.36880390085E+03  0.36880390085E+03  0.00000000000E+00 0.  1.
         21    1    1    2  503  504  0.12103577797E+03  0.41973101771E+02 -0.22128677124E+03  0.25569363689E+03  0.00000000000E+00 0.  1.
         21    1    1    2  504  501 -0.12103577797E+03 -0.41973101771E+02 -0.98829284115E+02  0.16179810944E+03  0.00000000000E+00 0.  1.
<mgrwt>
<rscale>  2 0.12810699E+03</rscale>
<asrwt>0</asrwt>
<pdfrwt beam="1">  1       21 0.74904378E-02 0.12810699E+03</pdfrwt>
<pdfrwt beam="2">  1       21 0.56739062E-01 0.12810699E+03</pdfrwt>
<totfact> 0.39735164E+05</totfact>
</mgrwt>
</event>
<event>
 4    1  0.5694171E+003  0.1873038E+03  0.7546771E-02  0.1160916E+00
         21   -1    0    0  504  501  0.00000000000E+00  0.00000000000E+00  0.68343289220E+02  0.68343289220E+02  0.00000000000E+00 0. -1.
         21   -1    0    0  503  502 -0.00000000000E+00 -0.00000000000E+00 -0.51367964214E+03  0.51367964214E+03  0.00000000000E+00 0. -1.
         21    1    1    2  503  501  0.17247001692E+03 -0.73053512833E+02 -0.23025069220E+03  0.29681324723E+03  0.00000000000E+00 0. -1.
         21    1    1    2  504  502 -0.17247001692E+03  0.73053512833E+02 -0.21508566071E+03  0.28520968412E+03  0.00000000000E+00 0. -1.
<mgrwt>
<rscale>  2 0.18730382E+03</rscale>
<asrwt>0</asrwt>
<pdfrwt beam="1">  1       21 0.10514352E-01 0.18730382E+03</pdfrwt>
<pdfrwt beam="2">  1       21 0.79027636E-01 0.18730382E+03</pdfrwt>
<totfact> 0.10520044E+05</totfact>
</mgrwt>
</event>
<event>
 4    1  0.5694171E+003  0.1060846E+03  0.7546771E-02  0.1267997E+00
         21   -1    0    0  503  501  0.00000000000E+00  0.00000000000E+00  0.18312200540E+02  0.18312200540E+02  0.00000000000E+00 0. -1.
         21   -1    0    0  504  502 -0.00000000000E+00 -0.00000000000E+00 -0.95466670951E+03  0.95466670951E+03  0.00000000000E+00 0. -1.
         21    1    1    2  503  502 -0.10335906273E+03 -0.23892601902E+02 -0.17780513026E+03  0.20704737773E+03  0.00000000000E+00 0. -1.
         21    1    1    2  504  501  0.10335906273E+03  0.23892601902E+02 -0.75854937871E+03  0.76593153233E+03  0.00000000000E+00 0. -1.
<mgrwt>
<rscale>  2 0.10608465E+03</rscale>
<asrwt>0</asrwt>
<pdfrwt beam="1">  1       21 0.28172605E-02 0.10608465E+03</pdfrwt>
<pdfrwt beam="2">  1       21 0.14687186E+00 0.10608465E+03</pdfrwt>
<totfact> 0.22929097E+05</totfact>
</mgrwt>
</event>
<event>
 4    1  0.5694171E+003  0.1089661E+03  0.7546771E-02  0.1262497E+00
         21   -1    0    0  504  501  0.00000000000E+00  0.00000000000E+00  0.20345848482E+02  0.20345848482E+02  0.00000000000E+00 0.  1.
         21   -1    0    0  503  502 -0.00000000000E+00 -0.00000000000E+00 -0.65930894864E+03  0.65930894864E+03  0.00000000000E+00 0.  1.
         21    1    1    2  503  501  0.10122630193E+03  0.40334246884E+02 -0.20431702097E+03  0.23155789931E+03  0.00000000000E+00 0.  1.
         21    1    1    2  504  502 -0.10122630193E+03 -0.40334246884E+02 -0.43464607919E+03  0.44809689781E+03  0.00000000000E+00 0.  1.
<mgrwt>
<rscale>  2 0.10896612E+03</rscale>
<asrwt>0</asrwt>
<pdfrwt beam="1">  1       21 0.31301310E-02 0.10896612E+03</pdfrwt>
<pdfrwt beam="2">  1       21 0.10143213E+00 0.10896612E+03</pdfrwt>
<totfact> 0.47546480E+05</totfact>
</mgrwt>
</event>
<event>
 4    1  0.5694171E+003  0.1252900E+03  0.7546771E-02  0.1234617E+00
         21   -1    0    0  504  501  0.00000000000E+00  0.00000000000E+00  0.36222996711E+02  0.36222996711E+02  0.00000000000E+00 0. -1.
         21   -1    0    0  503  502 -0.00000000000E+00 -0.00000000000E+00 -0.46009289959E+03  0.46009289959E+03  0.00000000000E+00 0. -1.
         21    1    1    2  503  501  0.57862465929E+01 -0.12515632656E+03 -0.27175282257E+03  0.29924435384E+03  0.00000000000E+00 0. -1.
         21    1    1    2  504  502 -0.57862465929E+01  0.12515632656E+03 -0.15211708031E+03  0.19707154247E+03  0.00000000000E+00 0. -1.
<mgrwt>
<rscale>  2 0.12529001E+03</rscale>
<asrwt>0</asrwt>
<pdfrwt beam="1">  1       21 0.55727687E-02 0.12529001E+03</pdfrwt>
<pdfrwt beam="2">  1       21 0.70783523E-01 0.12529001E+03</pdfrwt>
<totfact> 0.40941675E+05</totfact>
</mgrwt>
</event>
<event>
 4    1  0.5694171E+003  0.1302382E+03  0.7546771E-02  0.1227103E+00
         21   -1    0    0  503  501  0.00000000000E+00  0.00000000000E+00  0.42644025266E+03  0.42644025266E+03  0.00000000000E+00 0.  1.
         21   -1    0    0  504  502 -0.00000000000E+00 -0.00000000000E+00 -0.28773917230E+03  0.28773917230E+03  0.00000000000E+00 0. -1.
         21    1    1    2  503  502 -0.56638646049E+01  0.13011501749E+03  0.40084144807E+03  0.42146869827E+03  0.00000000000E+00 0.  1.
         21    1    1    2  504  501  0.56638646049E+01 -0.13011501749E+03 -0.26214036770E+03  0.29271072668E+03  0.00000000000E+00 0. -1.
<mgrwt>
<rscale>  2 0.13023823E+03</rscale>
<asrwt>0</asrwt>
<pdfrwt beam="1">  1       21 0.65606193E-01 0.13023823E+03</pdfrwt>
<pdfrwt beam="2">  1       21 0.44267565E-01 0.13023823E+03</pdfrwt>
<totfact> 0.10970327E+04</totfact>
</mgrwt>
</event>
<event>
 4    1  0.5694171E+003  0.1331030E+03  0.7546771E-02  0.1222923E+00
         21   -1    0    0  503  501  0.00000000000E+00  0.00000000000E+00  0.19480117044E+02  0.19480117044E+02  0.00000000000E+00 0. -1.
         21   -1    0    0  501  502 -0.00000000000E+00 -0.00000000000E+00 -0.90957218214E+03  0.90957218214E+03  0.00000000000E+00 0. -1.
         21    1    1    2  503  504  0.12662504329E+02  0.13249935275E+03 -0.43992300279E+03  0.45961795643E+03  0.00000000000E+00 0. -1.
         21    1    1    2  504  502 -0.12662504329E+02 -0.13249935275E+03 -0.45016906231E+03  0.46943434275E+03  0.00000000000E+00 0. -1.
<mgrwt>
<rscale>  2 0.13310303E+03</rscale>
<asrwt>0</asrwt>
<pdfrwt beam="1">  1       21 0.29969408E-02 0.13310303E+03</pdfrwt>
<pdfrwt beam="2">  1       21 0.13993419E+00 0.13310303E+03</pdfrwt>
<totfact> 0.23197537E+05</totfact>
</mgrwt>
</event>
<event>
 4    1  0.5694171E+003  0.1437881E+03  0.7546771E-02  0.1208321E+00
         21   -1    0    0  503  501  0.00000000000E+00  0.00000000000E+00  0.28253270351E+03  0.28253270351E+03  0.00000000000E+00 0. -1.
         21   -1    0    0  504  502 -0.00000000000E+00 -0.00000000000E+00 -0.16176419371E+03  0.16176419371E+03  0.00000000000E+00 0. -1.
         21    1    1    2  503  502 -0.11840709528E+03 -0.81576836439E+02  0.22477844888E+03  0.26683397748E+03  0.00000000000E+00 0. -1.
         21    1    1    2  504  501  0.11840709528E+03  0.81576836439E+02 -0.10400993909E+03  0.17746291974E+03  0.00000000000E+00 0. -1.
<mgrwt>
<rscale>  2 0.14378811E+03</rscale>
<asrwt>0</asrwt>
<pdfrwt beam="1">  1       21 0.43466570E-01 0.14378811E+03</pdfrwt>
<pdfrwt beam="2">  1       21 0.24886799E-01 0.14378811E+03</pdfrwt>
<totfact> 0.79337255E+04</totfact>
</mgrwt>
</event>
<event>
 4    1  0.5694171E+003  0.1191207E+03  0.7546771E-02  0.1244555E+00
         21   -1    0    0  504  501  0.00000000000E+00  0.00000000000E+00  0.21101536216E+03  0.21101536216E+03  0.00000000000E+00 0. -1.
         21   -1    0    0  503  502 -0.00000000000E+00 -0.00000000000E+00 -0.18599245080E+03  0.18599245080E+03  0.00000000000E+00 0. -1.
         21    1    1    2  503  501 -0.98450620719E+02 -0.67061295195E+02  0.17112250037E+03  0.20850096443E+03  0.00000000000E+00 0. -1.
         21    1    1    2  504  502  0.98450620719E+02  0.67061295195E+02 -0.14609958902E+03  0.18850684853E+03  0.00000000000E+00 0. -1.
<mgrwt>
<rscale>  2 0.11912070E+03</rscale>
<asrwt>0</asrwt>
<pdfrwt beam="1">  1       21 0.32463902E-01 0.11912070E+03</pdfrwt>
<pdfrwt beam="2">  1       21 0.28614223E-01 0.11912070E+03</pdfrwt>
<totfact> 0.10963964E+05</totfact>
</mgrwt>
</event>
<event>
 4    1  0.5694171E+003  0.1091411E+03  0.7546771E-02  0.1262169E+00
         21   -1    0    0  503  501  0.00000000000E+00  0.00000000000E+00  0.69476507999E+02  0.69476507999E+02  0.00000000000E+00 0. -1.
         21   -1    0    0  504  502 -0.00000000000E+00 -0.00000000000E+00 -0.17145038220E+03  0.17145038220E+03  0.00000000000E+00 0.  1.
         21    1    1    2  503  502 -0.52663525675E+02 -0.95594570542E+02 -0.51064956218E+02  0.12049646720E+03  0.00000000000E+00 0.  1.
         21    1    1    2  504  501  0.52663525675E+02  0.95594570542E+02 -0.50908917979E+02  0.12043042300E+03  0.00000000000E+00 0. -1.
<mgrwt>
<rscale>  2 0.10914105E+03</rscale>
<asrwt>0</asrwt>
<pdfrwt beam="1">  1       21 0.10688694E-01 0.10914105E+03</pdfrwt>
<pdfrwt beam="2">  1       21 0.26376981E-01 0.10914105E+03</pdfrwt>
<totfact> 0.98536922E+05</totfact>
</mgrwt>
</event>
<event>
 4    1  0.5694171E+003  0.1124164E+03  0.7546771E-02  0.1256159E+00
         21   -1    0    0  504  501  0.00000000000E+00  0.00000000000E+00  0.11212191735E+03  0.11212191735E+03  0.00000000000E+00 0. -1.
         21   -1    0    0  503  502 -0.00000000000E+00 -0.00000000000E+00 -0.19696176286E+03  0.19696176286E+03  0.00000000000E+00 0. -1.
         21    1    1    2  503  501 -0.34650771776E+02  0.10694283814E+03  0.58654287403E+02  0.12679815474E+03  0.00000000000E+00 0. -1.
         21    1    1    2  504  502  0.34650771776E+02 -0.10694283814E+03 -0.14349413291E+03  0.18228552547E+03  0.00000000000E+00 0. -1.
<mgrwt>
<rscale>  2 0.11241640E+03</rscale>
<asrwt>0</asrwt>
<pdfrwt beam="1">  1       21 0.17249526E-01 0.11241640E+03</pdfrwt>
<pdfrwt beam="2">  1       21 0.30301810E-01 0.11241640E+03</pdfrwt>
<totfact> 0.32227703E+05</totfact>
</mgrwt>
</event>
<event>
 4    1  0.5694171E+003  0.1004708E+03  0.7546771E-02  0.1279309E+00
         21   -1    0    0  504  501  0.00000000000E+00  0.00000000000E+00  0.22035528918E+02  0.22035528918E+02  0.00000000000E+00 0.  1.
         21   -1    0    0  503  502 -0.00000000000E+00 -0.00000000000E+00 -0.55748248161E+03  0.55748248161E+03  0.00000000000E+00 0. -1.
         21    1    1    2  503  501 -0.70236438427E+02 -0.71841608990E+02 -0.14537844532E+03  0.17671804217E+03  0.00000000000E+00 0.  1.
         21    1    1    2  504  502  0.70236438427E+02  0.71841608990E+02 -0.39006850738E+03  0.40279996836E+03  0.00000000000E+00 0. -1.
<mgrwt>
<rscale>  2 0.10047076E+03</rscale>
<asrwt>0</asrwt>
<pdfrwt beam="1">  1       21 0.33900814E-02 0.10047076E+03</pdfrwt>
<pdfrwt beam="2">  1       21 0.85766535E-01 0.10047076E+03</pdfrwt>
<totfact> 0.61310530E+05</totfact>
</mgrwt>
</event>
<event>
 4    1  0.5694171E+003  0.1230428E+03  0.7546771E-02  0.1238160E+00
         21   -1    0    0  502  501  0.00000000000E+00  0.00000000000E+00  0.55296031549E+03  0.55296031549E+03  0.00000000000E+00 0.  1.
         21   -1    0    0  504  502 -0.00000000000E+00 -0.00000000000E+00 -0.30175386483E+02  0.30175386483E+02  0.00000000000E+00 0.  1.
         21    1    1    2  503  501  0.10633091215E+03 -0.61913456704E+02  0.35015023865E+03  0.37113976967E+03  0.00000000000E+00 0.  1.
         21    1    1    2  504  503 -0.10633091215E+03  0.61913456704E+02  0.17263469036E+03  0.21199593231E+03  0.00000000000E+00 0.  1.
<mgrwt>
<rscale>  2 0.12304283E+03</rscale>
<asrwt>0</asrwt>
<pdfrwt beam="1">  1       21 0.85070810E-01 0.12304283E+03</pdfrwt>
<pdfrwt beam="2">  1       21 0.46423676E-02 0.12304283E+03</pdfrwt>
<totfact> 0.37012837E+05</totfact>
</mgrwt>
</event>
<event>
 4    1  0.5694171E+003  0.2595444E+03  0.7546771E-02  0.1107417E+00
         21   -1    0    0  504  501  0.00000000000E+00  0.00000000000E+00  0.54615619066E+03  0.54615619066E+03  0.00000000000E+00 0. -1.
         21   -1    0    0  503  502 -0.00000000000E+00 -0.00000000000E+00 -0.16633028238E+03  0.16633028238E+03  0.00000000000E+00 0. -1.
         21    1    1    2  503  501  0.21846656842E+02  0.25862333933E+03  0.88029742213E+01  0.25969366649E+03  0.00000000000E+00 0. -1.
         21    1    1    2  504  502 -0.21846656842E+02 -0.25862333933E+03  0.37102293406E+03  0.45279280654E+03  0.00000000000E+00 0. -1.
<mgrwt>
<rscale>  2 0.25954442E+03</rscale>
<asrwt>0</asrwt>
<pdfrwt beam="1">  1       21 0.84024028E-01 0.25954442E+03</pdfrwt>
<pdfrwt beam="2">  1       21 0.25589274E-01 0.25954442E+03</pdfrwt>
<totfact> 0.17168923E+04</totfact>
</mgrwt>
</event>
<event>
 4    1  0.5694171E+003  0.1012499E+03  0.7546771E-02  0.1277689E+00
         21   -1    0    0  503  501  0.00000000000E+00  0.00000000000E+00  0.65132859696E+03  0.65132859696E+03  0.00000000000E+00 0.  1.
         21   -1    0    0  504  502 -0.00000000000E+00 -0.00000000000E+00 -0.12055439739E+03  0.12055439739E+03  0.00000000000E+00 0. -1.
         21    1    1    2  503  502 -0.27971125033E+02  0.97309613991E+02 -0.94479539579E+02  0.13848439699E+03  0.00000000000E+00 0. -1.
         21    1    1    2  504  501  0.27971125033E+02 -0.97309613991E+02  0.62525373915E+03  0.63339859735E+03  0.00000000000E+00 0.  1.
<mgrwt>
<rscale>  2 0.10124991E+03</rscale>
<asrwt>0</asrwt>
<pdfrwt beam="1">  1       21 0.10020440E+00 0.10124991E+03</pdfrwt>
<pdfrwt beam="2">  1       21 0.18546831E-01 0.10124991E+03</pdfrwt>
<totfact> 0.23162686E+04</totfact>
</mgrwt>
</event>
<event>
 4    1  0.5694171E+003  0.1190660E+03  0.7546771E-02  0.1244646E+00
         21   -1    0    0  504  501  0.00000000000E+00  0.00000000000E+00  0.14502139004E+03  0.14502139004E+03  0.00000000000E+00 0. -1.
         21   -1    0    0  503  502 -0.00000000000E+00 -0.00000000000E+00 -0.11085754183E+03  0.11085754183E+03  0.00000000000E+00 0. -1.
         21    1    1    2  503  501  0.94399074798E+02 -0.72563883393E+02  0.61064847056E+02  0.13381187556E+03  0.00000000000E+00 0. -1.
         21    1    1    2  504  502 -0.94399074798E+02  0.72563883393E+02 -0.26900998849E+02  0.12206705630E+03  0.00000000000E+00 0. -1.
<mgrwt>
<rscale>  2 0.11906596E+03</rscale>
<asrwt>0</asrwt>
<pdfrwt beam="1">  1       21 0.22310983E-01 0.11906596E+03</pdfrwt>
<pdfrwt beam="2">  1       21 0.17055006E-01 0.11906596E+03</pdfrwt>
<totfact> 0.58687117E+05</totfact>
</mgrwt>
</event>
<event>
 4    1  0.5694171E+003  0.1139683E+03  0.7546771E-02  0.1253393E+00
         21   -1    0    0  503  501  0.00000000000E+00  0.00000000000E+00  0.26699567613E+03  0.26699567613E+03  0.00000000000E+00 0. -1.
         21   -1    0    0  501  502 -0.00000000000E+00 -0.00000000000E+00 -0.64265863964E+02  0.64265863964E+02  0.00000000000E+00 0. -1.
         21    1    1    2  503  504  0.13128129624E+01 -0.11396074450E+03  0.18301623775E+03  0.21560083034E+03  0.00000000000E+00 0. -1.
         21    1    1    2  504  502 -0.13128129624E+01  0.11396074450E+03  0.19713574422E+02  0.11566070975E+03  0.00000000000E+00 0. -1.
<mgrwt>
<rscale>  2 0.11396831E+03</rscale>
<asrwt>0</asrwt>
<pdfrwt beam="1">  1       21 0.41076257E-01 0.11396831E+03</pdfrwt>
<pdfrwt beam="2">  1       21 0.98870562E-02 0.11396831E+03</pdfrwt>
<totfact> 0.47742256E+05</totfact>
</mgrwt>
</event>
<event>
 4    1  0.5694171E+003  0.2085816E+03  0.7546771E-02  0.1142694E+00
         21   -1    0    0  504  501  0.00000000000E+00  0.00000000000E+00  0.15551797896E+03  0.15551797896E+03  0.00000000000E+00 0. -1.
         21   -1    0    0  503  502 -0.00000000000E+00 -0.00000000000E+00 -0.29329687043E+03  0.29329687043E+03  0.00000000000E+00 0. -1.
         21    1    1    2  503  501 -0.15440307960E+03  0.14023536767E+03 -0.11711654834E+03  0.23921236429E+03  0.00000000000E+00 0. -1.
         21    1    1    2  504  502  0.15440307960E+03 -0.14023536767E+03 -0.20662343133E+02  0.20960248510E+03  0.00000000000E+00 0. -1.
<mgrwt>
<rscale>  2 0.20858157E+03</rscale>
<asrwt>0</asrwt>
<pdfrwt beam="1">  1       21 0.23925843E-01 0.20858157E+03</pdfrwt>
<pdfrwt beam="2">  1       21 0.45122595E-01 0.20858157E+03</pdfrwt>
<totfact> 0.77069908E+04</totfact>
</mgrwt>
</event>
<event>
 4    1  0.5694171E+003  0.1032884E+03  0.7546771E-02  0.1273529E+00
         21   -1    0    0  504  501  0.00000000000E+00  0.00000000000E+00  0.34739271737E+03  0.34739271737E+03  0.00000000000E+00 0.  1.
         21   -1    0    0  503  502 -0.00000000000E+00 -0.00000000000E+00 -0.57347338255E+02  0.57347338255E+02  0.00000000000E+00 0.  1.
         21    1    1    2  503  501 -0.34412936518E+02  0.97387079029E+02  0.28294467266E+03  0.30120787033E+03  0.00000000000E+00 0.  1.
         21    1    1    2  504  502  0.34412936518E+02 -0.97387079029E+02  0.71007064637E+01  0.10353218530E+03  0.00000000000E+00 0.  1.
<mgrwt>
<rscale>  2 0.10328840E+03</rscale>
<asrwt>0</asrwt>
<pdfrwt beam="1">  1       21 0.53445032E-01 0.10328840E+03</pdfrwt>
<pdfrwt beam="2">  1       21 0.88226677E-02 0.10328840E+03</pdfrwt>
<totfact> 0.34092525E+05</totfact>
</mgrwt>
</event>
<event>
 4    1  0.5694171E+003  0.1202680E+03  0.7546771E-02  0.1242656E+00
         21   -1    0    0  504  501  0.00000000000E+00  0.00000000000E+00  0.57353331303E+03  0.57353331303E+03  0.00000000000E+00 0.  1.
         21   -1    0    0  503  502 -0.00000000000E+00 -0.00000000000E+00 -0.68343185344E+02  0.68343185344E+02  0.00000000000E+00 0.  1.
         21    1    1    2  503  501  0.76278307192E+02  0.92983980598E+02  0.50753052385E+03  0.52158569136E+03  0.00000000000E+00 0.  1.
         21    1    1    2  504  502 -0.76278307192E+02 -0.92983980598E+02 -0.23403961685E+01  0.12029080701E+03  0.00000000000E+00 0.  1.
<mgrwt>
<rscale>  2 0.12026804E+03</rscale>
<asrwt>0</asrwt>
<pdfrwt beam="1">  1       21 0.88235891E-01 0.12026804E+03</pdfrwt>
<pdfrwt beam="2">  1       21 0.10514337E-01 0.12026804E+03</pdfrwt>
<totfact> 0.84337976E+04</totfact>
</mgrwt>
</event>
<event>
 4    1  0.5694171E+003  0.1089431E+03  0.7546771E-02  0.1262540E+00
         21   -1    0    0  504  501  0.00000000000E+00  0.00000000000E+00  0.33918585599E+03  0.33918585599E+03  0.00000000000E+00 0.  1.
         21   -1    0    0  503  502 -0.00000000000E+00 -0.00000000000E+00 -0.67756580717E+02  0.67756580717E+02  0.00000000000E+00 0. -1.
         21    1    1    2  503  501  0.57973247113E+02  0.92237183191E+02  0.27720712600E+03  0.29784624566E+03  0.00000000000E+00 0.  1.
         21    1    1    2  504  502 -0.57973247113E+02 -0.92237183191E+02 -0.57778507257E+01  0.10909619106E+03  0.00000000000E+00 0. -1.
<mgrwt>
<rscale>  2 0.10894308E+03</rscale>
<asrwt>0</asrwt>
<pdfrwt beam="1">  1       21 0.52182438E-01 0.10894308E+03</pdfrwt>
<pdfrwt beam="2">  1       21 0.10424090E-01 0.10894308E+03</pdfrwt>
<totfact> 0.26788973E+05</totfact>
</mgrwt>
</event>
<event>
 4    1  0.5694171E+003  0.1375187E+03  0.7546771E-02  0.1216707E+00
         21   -1    0    0  503  501  0.00000000000E+00  0.00000000000E+00  0.62541199514E+03  0.62541199514E+03  0.00000000000E+00 0.  1.
         21   -1    0    0  501  502 -0.00000000000E+00 -0.00000000000E+00 -0.58388501728E+02  0.58388501728E+02  0.00000000000E+00 0.  1.
         21    1    1    2  503  504  0.12405902810E+03  0.59335815212E+02  0.52090954154E+03  0.53875609685E+03  0.00000000000E+00 0.  1.
         21    1    1    2  504  502 -0.12405902810E+03 -0.59335815212E+02  0.46113951870E+02  0.14504440002E+03  0.00000000000E+00 0.  1.
<mgrwt>
<rscale>  2 0.13751866E+03</rscale>
<asrwt>0</asrwt>
<pdfrwt beam="1">  1       21 0.96217226E-01 0.13751866E+03</pdfrwt>
<pdfrwt beam="2">  1       21 0.89828468E-02 0.13751866E+03</pdfrwt>
<totfact> 0.90250376E+04</totfact>
</mgrwt>
</event>
<event>
 4    1  0.5694171E+003  0.1070493E+03  0.7546771E-02  0.1266134E+00
         21   -1    0    0  504  501  0.00000000000E+00  0.00000000000E+00  0.15182238678E+04  0.15182238678E+04  0.00000000000E+00 0.  1.
         21   -1    0    0  503  502 -0.00000000000E+00 -0.00000000000E+00 -0.26564980503E+02  0.26564980503E+02  0.00000000000E+00 0. -1.
         21    1    1    2  503  501  0.60006741826E+02 -0.88649594699E+02  0.13993437737E+04  0.14034324197E+04  0.00000000000E+00 0.  1.
         21    1    1    2  504  502 -0.60006741826E+02  0.88649594699E+02  0.92315113586E+02  0.14135642858E+03  0.00000000000E+00 0. -1.
<mgrwt>
<rscale>  2 0.10704933E+03</rscale>
<asrwt>0</asrwt>
<pdfrwt beam="1">  1       21 0.23357283E+00 0.10704933E+03</pdfrwt>
<pdfrwt beam="2">  1       21 0.40869213E-02 0.10704933E+03</pdfrwt>
<totfact> 0.34087733E+04</totfact>
</mgrwt>
</event>
<event>
 4    1  0.5694171E+003  0.1036439E+03  0.7546771E-02  0.1272815E+00
         21   -1    0    0  504  501  0.00000000000E+00  0.00000000000E+00  0.15194537978E+03  0.15194537978E+03  0.00000000000E+00 0. -1.
         21   -1    0    0  501  502 -0.00000000000E+00 -0.00000000000E+00 -0.20984471121E+03  0.20984471121E+03  0.00000000000E+00 0.  1.
         21    1    1    2  503  502  0.10340926221E+03  0.69701113527E+01 -0.17625414185E+03  0.20446902084E+03  0.00000000000E+00 0.  1.
         21    1    1    2  504  503 -0.10340926221E+03 -0.69701113527E+01  0.11835481043E+03  0.15732107015E+03  0.00000000000E+00 0. -1.
<mgrwt>
<rscale>  2 0.10364390E+03</rscale>
<asrwt>0</asrwt>
<pdfrwt beam="1">  1       21 0.23376212E-01 0.10364390E+03</pdfrwt>
<pdfrwt beam="2">  1       21 0.32283802E-01 0.10364390E+03</pdfrwt>
<totfact> 0.16334398E+05</totfact>
</mgrwt>
</event>
<event>
 4    1  0.5694171E+003  0.1132370E+03  0.7546771E-02  0.1254690E+00
         21   -1    0    0  503  501  0.00000000000E+00  0.00000000000E+00  0.29202864626E+03  0.29202864626E+03  0.00000000000E+00 0.  1.
         21   -1    0    0  504  502 -0.00000000000E+00 -0.00000000000E+00 -0.11744175236E+03  0.11744175236E+03  0.00000000000E+00 0.  1.
         21    1    1    2  503  502  0.39443646607E+02 -0.10614523571E+03 -0.74709311190E+02  0.13566168767E+03  0.00000000000E+00 0.  1.
         21    1    1    2  504  501 -0.39443646607E+02  0.10614523571E+03  0.24929620509E+03  0.27380871095E+03  0.00000000000E+00 0.  1.
<mgrwt>
<rscale>  2 0.11323697E+03</rscale>
<asrwt>0</asrwt>
<pdfrwt beam="1">  1       21 0.44927484E-01 0.11323697E+03</pdfrwt>
<pdfrwt beam="2">  1       21 0.18067962E-01 0.11323697E+03</pdfrwt>
<totfact> 0.13622067E+05</totfact>
</mgrwt>
</event>
<event>
 4    1  0.5694171E+003  0.1309652E+03  0.7546771E-02  0.1226030E+00
         21   -1    0    0  503  501  0.00000000000E+00  0.00000000000E+00  0.24515748502E+04  0.24515748502E+04  0.00000000000E+00 0. -1.
         21   -1    0    0  504  502 -0.00000000000E+00 -0.00000000000E+00 -0.72612505777E+01  0.72612505777E+01  0.00000000000E+00 0. -1.
         21    1    1    2  503  502 -0.52143159850E+02 -0.12013736065E+03  0.14570096806E+04  0.14628838313E+04  0.00000000000E+00 0. -1.
         21    1    1    2  504  501  0.52143159850E+02  0.12013736065E+03  0.98730391903E+03  0.99595226948E+03  0.00000000000E+00 0. -1.
<mgrwt>
<rscale>  2 0.13096524E+03</rscale>
<asrwt>0</asrwt>
<pdfrwt beam="1">  1       21 0.37716470E+00 0.13096524E+03</pdfrwt>
<pdfrwt beam="2">  1       21 0.11171174E-02 0.13096524E+03</pdfrwt>
<totfact> 0.40941111E+04</totfact>
</mgrwt>
</event>
<event>
 4    1  0.5694171E+003  0.1311336E+03  0.7546771E-02  0.1225783E+00
         21   -1    0    0  504  501  0.00000000000E+00  0.00000000000E+00  0.54201959519E+02  0.54201959519E+02  0.00000000000E+00 0. -1.
         21   -1    0    0  503  502 -0.00000000000E+00 -0.00000000000E+00 -0.36760318976E+03  0.36760318976E+03  0.00000000000E+00 0. -1.
         21    1    1    2  503  501  0.86944135586E+02 -0.98166885336E+02 -0.78651127207E+02  0.15291180432E+03  0.00000000000E+00 0. -1.
         21    1    1    2  504  502 -0.86944135586E+02  0.98166885336E+02 -0.23475010304E+03  0.26889334496E+03  0.00000000000E+00 0. -1.
<mgrwt>
<rscale>  2 0.13113360E+03</rscale>
<asrwt>0</asrwt>
<pdfrwt beam="1">  1       21 0.83387629E-02 0.13113360E+03</pdfrwt>
<pdfrwt beam="2">  1       21 0.56554338E-01 0.13113360E+03</pdfrwt>
<totfact> 0.33241015E+05</totfact>
</mgrwt>
</event>
<event>
 4    1  0.5694171E+003  0.1257573E+03  0.7546771E-02  0.1233890E+00
         21   -1    0    0  504  501  0.00000000000E+00  0.00000000000E+00  0.18876007378E+03  0.18876007378E+03  0.00000000000E+00 0.  1.
         21   -1    0    0  503  502 -0.00000000000E+00 -0.00000000000E+00 -0.12134601227E+03  0.12134601227E+03  0.00000000000E+00 0. -1.
         21    1    1    2  503  501 -0.10598390959E+03  0.67692795690E+02  0.11997452460E+03  0.17380676118E+03  0.00000000000E+00 0.  1.
         21    1    1    2  504  502  0.10598390959E+03 -0.67692795690E+02 -0.52560463086E+02  0.13629932487E+03  0.00000000000E+00 0. -1.
<mgrwt>
<rscale>  2 0.12575732E+03</rscale>
<asrwt>0</asrwt>
<pdfrwt beam="1">  1       21 0.29040011E-01 0.12575732E+03</pdfrwt>
<pdfrwt beam="2">  1       21 0.18668617E-01 0.12575732E+03</pdfrwt>
<totfact> 0.30201410E+05</totfact>
</mgrwt>
</event>
<event>
 4    1  0.5694171E+003  0.1314218E+03  0.7546771E-02  0.1225361E+00
         21   -1    0    0  504  501  0.00000000000E+00  0.00000000000E+00  0.56204549012E+03  0.56204549012E+03  0.00000000000E+00 0. -1.
         21   -1    0    0  501  502 -0.00000000000E+00 -0.00000000000E+00 -0.76797931278E+02  0.76797931278E+02  0.00000000000E+00 0. -1.
         21    1    1    2  503  502  0.70647736410E+02 -0.11081786481E+03 -0.47699328297E+01  0.13150838026E+03  0.00000000000E+00 0. -1.
         21    1    1    2  504  503 -0.70647736410E+02  0.11081786481E+03  0.49001749167E+03  0.50733504113E+03  0.00000000000E+00 0. -1.
<mgrwt>
<rscale>  2 0.13142185E+03</rscale>
<asrwt>0</asrwt>
<pdfrwt beam="1">  1       21 0.86468534E-01 0.13142185E+03</pdfrwt>
<pdfrwt beam="2">  1       21 0.11815067E-01 0.13142185E+03</pdfrwt>
<totfact> 0.71508119E+04</totfact>
</mgrwt>
</event>
<event>
 4    1  0.5694171E+003  0.3245688E+03  0.7546771E-02  0.1073566E+00
         21   -1    0    0  502  501  0.00000000000E+00  0.00000000000E+00  0.70950367420E+03  0.70950367420E+03  0.00000000000E+00 0.  1.
         21   -1    0    0  504  502 -0.00000000000E+00 -0.00000000000E+00 -0.23204584627E+03  0.23204584627E+03  0.00000000000E+00 0.  1.
         21    1    1    2  503  501  0.51577762740E+02 -0.32044443348E+03  0.52124862592E+03  0.61403992588E+03  0.00000000000E+00 0.  1.
         21    1    1    2  504  503 -0.51577762740E+02  0.32044443348E+03 -0.43790797987E+02  0.32750959459E+03  0.00000000000E+00 0.  1.
<mgrwt>
<rscale>  2 0.32456879E+03</rscale>
<asrwt>0</asrwt>
<pdfrwt beam="1">  1       21 0.10915441E+00 0.32456879E+03</pdfrwt>
<pdfrwt beam="2">  1       21 0.35699361E-01 0.32456879E+03</pdfrwt>
<totfact> 0.46350088E+03</totfact>
</mgrwt>
</event>
<event>
 4    1  0.5694171E+003  0.1134708E+03  0.7546771E-02  0.1254274E+00
         21   -1    0    0  503  501  0.00000000000E+00  0.00000000000E+00  0.58886643687E+03  0.58886643687E+03  0.00000000000E+00 0.  1.
         21   -1    0    0  504  502 -0.00000000000E+00 -0.00000000000E+00 -0.22061598015E+02  0.22061598015E+02  0.00000000000E+00 0. -1.
         21    1    1    2  503  502 -0.76432957545E+02  0.83866648693E+02  0.25457254568E+03  0.27871633030E+03  0.00000000000E+00 0. -1.
         21    1    1    2  504  501  0.76432957545E+02 -0.83866648693E+02  0.31223229317E+03  0.33221170458E+03  0.00000000000E+00 0.  1.
<mgrwt>
<rscale>  2 0.11347075E+03</rscale>
<asrwt>0</asrwt>
<pdfrwt beam="1">  1       21 0.90594825E-01 0.11347075E+03</pdfrwt>
<pdfrwt beam="2">  1       21 0.33940924E-02 0.11347075E+03</pdfrwt>
<totfact> 0.54000266E+05</totfact>
</mgrwt>
</event>
<event>
 4    1  0.5694171E+003  0.1120383E+03  0.7546771E-02  0.1256841E+00
         21   -1    0    0  503  501  0.00000000000E+00  0.00000000000E+00  0.32229485204E+03  0.32229485204E+03  0.00000000000E+00 0.  1.
         21   -1    0    0  504  502 -0.00000000000E+00 -0.00000000000E+00 -0.41027076379E+02  0.41027076379E+02  0.00000000000E+00 0.  1.
         21    1    1    2  503  502 -0.75909510574E+02  0.82403422453E+02  0.99734758119E+02  0.14999866601E+03  0.00000000000E+00 0.  1.
         21    1    1    2  504  501  0.75909510574E+02 -0.82403422453E+02  0.18153301755E+03  0.21332326241E+03  0.00000000000E+00 0.  1.
<mgrwt>
<rscale>  2 0.11203829E+03</rscale>
<asrwt>0</asrwt>
<pdfrwt beam="1">  1       21 0.49583822E-01 0.11203829E+03</pdfrwt>
<pdfrwt beam="2">  1       21 0.63118581E-02 0.11203829E+03</pdfrwt>
<totfact> 0.70489404E+05</totfact>
</mgrwt>
</event>
<event>
 4    1  0.5694171E+003  0.1002916E+03  0.7546771E-02  0.1279684E+00
         21   -1    0    0  504  501  0.00000000000E+00  0.00000000000E+00  0.27829161965E+03  0.27829161965E+03  0.00000000000E+00 0. -1.
         21   -1    0    0  503  502 -0.00000000000E+00 -0.00000000000E+00 -0.15363166744E+03  0.15363166744E+03  0.00000000000E+00 0. -1.
         21    1    1    2  503  501  0.18584341631E+02 -0.98554649541E+02 -0.12652722926E+03  0.16145444077E+03  0.00000000000E+00 0. -1.
         21    1    1    2  504  502 -0.18584341631E+02  0.98554649541E+02  0.25118718147E+03  0.27046884633E+03  0.00000000000E+00 0. -1.
<mgrwt>
<rscale>  2 0.10029156E+03</rscale>
<asrwt>0</asrwt>
<pdfrwt beam="1">  1       21 0.42814095E-01 0.10029156E+03</pdfrwt>
<pdfrwt beam="2">  1       21 0.23635641E-01 0.10029156E+03</pdfrwt>
<totfact> 0.91958435E+04</totfact>
</mgrwt>
</event>
<event>
 4    1  0.5694171E+003  0.1189124E+03  0.7546771E-02  0.1244902E+00
         21   -1    0    0  504  501  0.00000000000E+00  0.00000000000E+00  0.69670528239E+02  0.69670528239E+02  0.00000000000E+00 0.  1.
         21   -1    0    0  503  502 -0.00000000000E+00 -0.00000000000E+00 -0.29761494688E+03  0.29761494688E+03  0.00000000000E+00 0.  1.
         21    1    1    2  503  501 -0.60354262727E+02 -0.10245739962E+03 -0.21753978194E+03  0.24791876188E+03  0.00000000000E+00 0.  1.
         21    1    1    2  504  502  0.60354262727E+02  0.10245739962E+03 -0.10404636703E+02  0.11936671324E+03  0.00000000000E+00 0.  1.
<mgrwt>
<rscale>  2 0.11891239E+03</rscale>
<asrwt>0</asrwt>
<pdfrwt beam="1">  1       21 0.10718543E-01 0.11891239E+03</pdfrwt>
<pdfrwt beam="2">  1       21 0.45786915E-01 0.11891239E+03</pdfrwt>
<totfact> 0.33286627E+05</totfact>
</mgrwt>
</event>
<event>
 4    1  0.5694171E+003  0.1341253E+03  0.7546771E-02  0.1221460E+00
         21   -1    0    0  503  501  0.00000000000E+00  0.00000000000E+00  0.10271366613E+03  0.10271366613E+03  0.00000000000E+00 0.  1.
         21   -1    0    0  504  502 -0.00000000000E+00 -0.00000000000E+00 -0.59926095950E+03  0.59926095950E+03  0.00000000000E+00 0.  1.
         21    1    1    2  503  502 -0.90437080053E+02  0.99049176276E+02  0.47001321845E+02  0.14212223269E+03  0.00000000000E+00 0.  1.
         21    1    1    2  504  501  0.90437080053E+02 -0.99049176276E+02 -0.54354861522E+03  0.55985239294E+03  0.00000000000E+00 0.  1.
<mgrwt>
<rscale>  2 0.13412533E+03</rscale>
<asrwt>0</asrwt>
<pdfrwt beam="1">  1       21 0.15802102E-01 0.13412533E+03</pdfrwt>
<pdfrwt beam="2">  1       21 0.92193994E-01 0.13412533E+03</pdfrwt>
<totfact> 0.36636636E+04</totfact>
</mgrwt>
</event>
<event>
 4    1  0.5694171E+003  0.1334675E+03  0.7546771E-02  0.1222399E+00
         21   -1    0    0  503  501  0.00000000000E+00  0.00000000000E+00  0.15930782285E+03  0.15930782285E+03  0.00000000000E+00 0.  1.
         21   -1    0    0  504  502 -0.00000000000E+00 -0.00000000000E+00 -0.11730347122E+03  0.11730347122E+03  0.00000000000E+00 0.  1.
         21    1    1    2  503  502 -0.46004985146E+02  0.12528815308E+03 -0.89044310338E+01  0.13376422860E+03  0.00000000000E+00 0.  1.
         21    1    1    2  504  501  0.46004985146E+02 -0.12528815308E+03  0.50908782660E+02  0.14284706547E+03  0.00000000000E+00 0.  1.
<mgrwt>
<rscale>  2 0.13346752E+03</rscale>
<asrwt>0</asrwt>
<pdfrwt beam="1">  1       21 0.24508896E-01 0.13346752E+03</pdfrwt>
<pdfrwt beam="2">  1       21 0.18046688E-01 0.13346752E+03</pdfrwt>
<totfact> 0.44341950E+05</totfact>
</mgrwt>
</event>
<event>
 4    1  0.5694171E+003  0.1024237E+03  0.7546771E-02  0.1275280E+00
         21   -1    0    0  503  501  0.00000000000E+00  0.00000000000E+00  0.37741221211E+03  0.37741221211E+03  0.00000000000E+00 0.  1.
         21   -1    0    0  504  502 -0.00000000000E+00 -0.00000000000E+00 -0.41234190926E+02  0.41234190926E+02  0.00000000000E+00 0.  1.
         21    1    1    2  503  502  0.98919219242E+02 -0.26563034861E+02  0.48592122202E+02  0.11336578451E+03  0.00000000000E+00 0.  1.
         21    1    1    2  504  501 -0.98919219242E+02  0.26563034861E+02  0.28758589898E+03  0.30528061853E+03  0.00000000000E+00 0.  1.
<mgrwt>
<rscale>  2 0.10242366E+03</rscale>
<asrwt>0</asrwt>
<pdfrwt beam="1">  1       21 0.58063415E-01 0.10242366E+03</pdfrwt>
<pdfrwt beam="2">  1       21 0.63437219E-02 0.10242366E+03</pdfrwt>
<totfact> 0.50383551E+05</totfact>
</mgrwt>
</event>
<event>
 4    1  0.5694171E+003  0.1082874E+03  0.7546771E-02  0.1263775E+00
         21   -1    0    0  504  501  0.00000000000E+00  0.00000000000E+00  0.17919945833E+04  0.17919945833E+04  0.00000000000E+00 0. -1.
         21   -1    0    0  503  502 -0.00000000000E+00 -0.00000000000E+00 -0.17586684643E+02  0.17586684643E+02  0.00000000000E+00 0.  1.
         21    1    1    2  503  501  0.12256222483E+01 -0.10828044913E+03  0.17023453739E+03  0.20175716973E+03  0.00000000000E+00 0.  1.
         21    1    1    2  504  502 -0.12256222483E+01  0.10828044913E+03  0.16041733613E+04  0.16078240982E+04  0.00000000000E+00 0. -1.
<mgrwt>
<rscale>  2 0.10828739E+03</rscale>
<asrwt>0</asrwt>
<pdfrwt beam="1">  1       21 0.27569133E+00 0.10828739E+03</pdfrwt>
<pdfrwt beam="2">  1       21 0.27056452E-02 0.10828739E+03</pdfrwt>
<totfact> 0.38670410E+04</totfact>
</mgrwt>
</event>
<event>
 4    1  0.5694171E+003  0.1081991E+03  0.7546771E-02  0.1263942E+00
         21   -1    0    0  503  501  0.00000000000E+00  0.00000000000E+00  0.12240155395E+04  0.12240155395E+04  0.00000000000E+00 0.  1.
         21   -1    0    0  504  502 -0.00000000000E+00 -0.00000000000E+00 -0.96854710491E+01  0.96854710491E+01  0.00000000000E+00 0.  1.
         21    1    1    2  503  502  0.75553540942E+02  0.77451311435E+02  0.53821434282E+03  0.54898244235E+03  0.00000000000E+00 0.  1.
         21    1    1    2  504  501 -0.75553540942E+02 -0.77451311435E+02  0.67611572568E+03  0.68471856824E+03  0.00000000000E+00 0.  1.
<mgrwt>
<rscale>  2 0.10819909E+03</rscale>
<asrwt>0</asrwt>
<pdfrwt beam="1">  1       21 0.18830996E+00 0.10819909E+03</pdfrwt>
<pdfrwt beam="2">  1       21 0.14900734E-02 0.10819909E+03</pdfrwt>
<totfact> 0.32906457E+05</totfact>
</mgrwt>
</event>
<event>
 4    1  0.5694171E+003  0.1535490E+03  0.7546771E-02  0.1196179E+00
         21   -1    0    0  504  501  0.00000000000E+00  0.00000000000E+00  0.72358031915E+02  0.72358031915E+02  0.00000000000E+00 0.  1.
         21   -1    0    0  501  502 -0.00000000000E+00 -0.00000000000E+00 -0.65367470345E+03  0.65367470345E+03  0.00000000000E+00 0. -1.
         21    1    1    2  503  502  0.14011080331E+03 -0.62819132730E+02 -0.54774026644E+03  0.56885558811E+03  0.00000000000E+00 0. -1.
         21    1    1    2  504  503 -0.14011080331E+03  0.62819132730E+02 -0.33576405097E+02  0.15717714726E+03  0.00000000000E+00 0.  1.
<mgrwt>
<rscale>  2 0.15354895E+03</rscale>
<asrwt>0</asrwt>
<pdfrwt beam="1">  1       21 0.11132005E-01 0.15354895E+03</pdfrwt>
<pdfrwt beam="2">  1       21 0.10056534E+00 0.15354895E+03</pdfrwt>
<totfact> 0.55435278E+04</totfact>
</mgrwt>
</event>
<event>
 4    1  0.5694171E+003  0.1038816E+03  0.7546771E-02  0.1272339E+00
         21   -1    0    0  504  501  0.00000000000E+00  0.00000000000E+00  0.17517707122E+04  0.17517707122E+04  0.00000000000E+00 0.  1.
         21   -1    0    0  503  502 -0.00000000000E+00 -0.00000000000E+00 -0.17257299308E+02  0.17257299308E+02  0.00000000000E+00 0. -1.
         21    1    1    2  503  501  0.38624354316E+02 -0.96434156648E+02  0.15797037702E+03  0.18906619828E+03  0.00000000000E+00 0. -1.
         21    1    1    2  504  502 -0.38624354316E+02  0.96434156648E+02  0.15765430359E+04  0.15799618132E+04  0.00000000000E+00 0.  1.
<mgrwt>
<rscale>  2 0.10388160E+03</rscale>
<asrwt>0</asrwt>
<pdfrwt beam="1">  1       21 0.26950305E+00 0.10388160E+03</pdfrwt>
<pdfrwt beam="2">  1       21 0.26549705E-02 0.10388160E+03</pdfrwt>
<totfact> 0.43443965E+04</totfact>
</mgrwt>
</event>
<event>
 4    1  0.5694171E+003  0.1360026E+03  0.7546771E-02  0.1218811E+00
         21   -1    0    0  502  501  0.00000000000E+00  0.00000000000E+00  0.24215998612E+04  0.24215998612E+04  0.00000000000E+00 0.  1.
         21   -1    0    0  503  502 -0.00000000000E+00 -0.00000000000E+00 -0.17164496613E+02  0.17164496613E+02  0.00000000000E+00 0.  1.
         21    1    1    2  503  504 -0.35373256730E+02  0.13132188145E+03  0.29379915455E+03  0.32375090278E+03  0.00000000000E+00 0.  1.
         21    1    1    2  504  501  0.35373256730E+02 -0.13132188145E+03  0.21106362101E+04  0.21150134551E+04  0.00000000000E+00 0.  1.
<mgrwt>
<rscale>  2 0.13600259E+03</rscale>
<asrwt>0</asrwt>
<pdfrwt beam="1">  1       21 0.37255355E+00 0.13600259E+03</pdfrwt>
<pdfrwt beam="2">  1       21 0.26406937E-02 0.13600259E+03</pdfrwt>
<totfact> 0.10861537E+04</totfact>
</mgrwt>
</event>
<event>
 4    1  0.5694171E+003  0.1186803E+03  0.7546771E-02  0.1245290E+00
         21   -1    0    0  502  501  0.00000000000E+00  0.00000000000E+00  0.49321193192E+03  0.49321193192E+03  0.00000000000E+00 0.  1.
         21   -1    0    0  504  502 -0.00000000000E+00 -0.00000000000E+00 -0.46866220041E+02  0.46866220041E+02  0.00000000000E+00 0. -1.
         21    1    1    2  503  501  0.11706133423E+03  0.19536042849E+02  0.39195360872E+03  0.40952734259E+03  0.00000000000E+00 0.  1.
         21    1    1    2  504  503 -0.11706133423E+03 -0.19536042849E+02  0.54392103163E+02  0.13055080937E+03  0.00000000000E+00 0. -1.
<mgrwt>
<rscale>  2 0.11868030E+03</rscale>
<asrwt>0</asrwt>
<pdfrwt beam="1">  1       21 0.75878755E-01 0.11868030E+03</pdfrwt>
<pdfrwt beam="2">  1       21 0.72101880E-02 0.11868030E+03</pdfrwt>
<totfact> 0.22723678E+05</totfact>
</mgrwt>
</event>
<event>
 4    1  0.5694171E+003  0.1409663E+03  0.7546771E-02  0.1212035E+00
         21   -1    0    0  504  501  0.00000000000E+00  0.00000000000E+00  0.54352636375E+03  0.54352636375E+03  0.00000000000E+00 0.  1.
         21   -1    0    0  503  502 -0.00000000000E+00 -0.00000000000E+00 -0.38958740900E+02  0.38958740900E+02  0.00000000000E+00 0.  1.
         21    1    1    2  503  501  0.11373907054E+02 -0.14050665943E+03  0.32454695519E+03  0.35383924772E+03  0.00000000000E+00 0.  1.
         21    1    1    2  504  502 -0.11373907054E+02  0.14050665943E+03  0.18002066766E+03  0.22864585693E+03  0.00000000000E+00 0.  1.
<mgrwt>
<rscale>  2 0.14096626E+03</rscale>
<asrwt>0</asrwt>
<pdfrwt beam="1">  1       21 0.83619435E-01 0.14096626E+03</pdfrwt>
<pdfrwt beam="2">  1       21 0.59936528E-02 0.14096626E+03</pdfrwt>
<totfact> 0.24921487E+05</totfact>
</mgrwt>
</event>
<event>
 4    1  0.5694171E+003  0.1126851E+03  0.7546771E-02  0.1255677E+00
         21   -1    0    0  504  501  0.00000000000E+00  0.00000000000E+00  0.61644205171E+02  0.61644205171E+02  0.00000000000E+00 0. -1.
         21   -1    0    0  503  502 -0.00000000000E+00 -0.00000000000E+00 -0.23746709369E+03  0.23746709369E+03  0.00000000000E+00 0. -1.
         21    1    1    2  503  501  0.97605210937E+02  0.56312909925E+02 -0.14236387948E+03  0.18156374971E+03  0.00000000000E+00 0. -1.
         21    1    1    2  504  502 -0.97605210937E+02 -0.56312909925E+02 -0.33459009038E+02  0.11754754915E+03  0.00000000000E+00 0. -1.
<mgrwt>
<rscale>  2 0.11268505E+03</rscale>
<asrwt>0</asrwt>
<pdfrwt beam="1">  1       21 0.94837239E-02 0.11268505E+03</pdfrwt>
<pdfrwt beam="2">  1       21 0.36533399E-01 0.11268505E+03</pdfrwt>
<totfact> 0.64766146E+05</totfact>
</mgrwt>
</event>
<event>
 4    1  0.5694171E+003  0.1028216E+03  0.7546771E-02  0.1274472E+00
         21   -1    0    0  502  501  0.00000000000E+00  0.00000000000E+00  0.84054336885E+01  0.84054336885E+01  0.00000000000E+00 0. -1.
         21   -1    0    0  504  502 -0.00000000000E+00 -0.00000000000E+00 -0.16195194443E+04  0.16195194443E+04  0.00000000000E+00 0. -1.
         21    1    1    2  503  501 -0.81044462756E+02 -0.63277818810E+02 -0.42087487911E+03  0.43325275667E+03  0.00000000000E+00 0. -1.
         21    1    1    2  504  503  0.81044462756E+02  0.63277818810E+02 -0.11902391315E+04  0.11946721213E+04  0.00000000000E+00 0. -1.
<mgrwt>
<rscale>  2 0.10282163E+03</rscale>
<asrwt>0</asrwt>
<pdfrwt beam="1">  1       21 0.12931448E-02 0.10282163E+03</pdfrwt>
<pdfrwt beam="2">  1       21 0.24915662E+00 0.10282163E+03</pdfrwt>
<totfact> 0.17897837E+05</totfact>
</mgrwt>
</event>
<event>
 4    1  0.5694171E+003  0.1180037E+03  0.7546771E-02  0.1246427E+00
         21   -1    0    0  504  501  0.00000000000E+00  0.00000000000E+00  0.53177346063E+03  0.53177346063E+03  0.00000000000E+00 0.  1.
         21   -1    0    0  501  502 -0.00000000000E+00 -0.00000000000E+00 -0.36398331590E+03  0.36398331590E+03  0.00000000000E+00 0. -1.
         21    1    1    2  503  502 -0.10784630599E+03  0.47896197175E+02 -0.34757198693E+03  0.36705743081E+03  0.00000000000E+00 0. -1.
         21    1    1    2  504  503  0.10784630599E+03 -0.47896197175E+02  0.51536213166E+03  0.52869934572E+03  0.00000000000E+00 0.  1.
<mgrwt>
<rscale>  2 0.11800369E+03</rscale>
<asrwt>0</asrwt>
<pdfrwt beam="1">  1       21 0.81811302E-01 0.11800369E+03</pdfrwt>
<pdfrwt beam="2">  1       21 0.55997433E-01 0.11800369E+03</pdfrwt>
<totfact> 0.42156004E+03</totfact>
</mgrwt>
</event>
<event>
 4    1  0.5694171E+003  0.1577349E+03  0.7546771E-02  0.1191278E+00
         21   -1    0    0  502  501  0.00000000000E+00  0.00000000000E+00  0.40513570032E+03  0.40513570032E+03  0.00000000000E+00 0. -1.
         21   -1    0    0  504  502 -0.00000000000E+00 -0.00000000000E+00 -0.76303498041E+02  0.76303498041E+02  0.00000000000E+00 0. -1.
         21    1    1    2  503  501  0.15758543756E+03  0.68651544118E+01  0.27075804045E+03  0.31335318244E+03  0.00000000000E+00 0. -1.
         21    1    1    2  504  503 -0.15758543756E+03 -0.68651544118E+01  0.58074161830E+02  0.16808601592E+03  0.00000000000E+00 0. -1.
<mgrwt>
<rscale>  2 0.15773491E+03</rscale>
<asrwt>0</asrwt>
<pdfrwt beam="1">  1       21 0.62328568E-01 0.15773491E+03</pdfrwt>
<pdfrwt beam="2">  1       21 0.11739000E-01 0.15773491E+03</pdfrwt>
<totfact> 0.14746874E+05</totfact>
</mgrwt>
</event>
<event>
 4    1  0.5694171E+003  0.1150101E+03  0.7546771E-02  0.1251563E+00
         21   -1    0    0  502  501  0.00000000000E+00  0.00000000000E+00  0.11327567412E+03  0.11327567412E+03  0.00000000000E+00 0.  1.
         21   -1    0    0  503  502 -0.00000000000E+00 -0.00000000000E+00 -0.16231404635E+03  0.16231404635E+03  0.00000000000E+00 0.  1.
         21    1    1    2  503  504 -0.36380497992E+02 -0.10910447560E+03 -0.97509534612E+02  0.15078274626E+03  0.00000000000E+00 0.  1.
         21    1    1    2  504  501  0.36380497992E+02  0.10910447560E+03  0.48471162381E+02  0.12480697421E+03  0.00000000000E+00 0.  1.
<mgrwt>
<rscale>  2 0.11501012E+03</rscale>
<asrwt>0</asrwt>
<pdfrwt beam="1">  1       21 0.17427027E-01 0.11501012E+03</pdfrwt>
<pdfrwt beam="2">  1       21 0.24971392E-01 0.11501012E+03</pdfrwt>
<totfact> 0.45701321E+05</totfact>
</mgrwt>
</event>
<event>
 4    1  0.5694171E+003  0.1086391E+03  0.7546771E-02  0.1263111E+00
         21   -1    0    0  503  501  0.00000000000E+00  0.00000000000E+00  0.68643552097E+02  0.68643552097E+02  0.00000000000E+00 0. -1.
         21   -1    0    0  501  502 -0.00000000000E+00 -0.00000000000E+00 -0.42259988055E+03  0.42259988055E+03  0.00000000000E+00 0. -1.
         21    1    1    2  503  504 -0.97183945711E+02  0.48556503178E+02  0.12189104471E+02  0.10932075545E+03  0.00000000000E+00 0. -1.
         21    1    1    2  504  502  0.97183945711E+02 -0.48556503178E+02 -0.36614543292E+03  0.38192267719E+03  0.00000000000E+00 0. -1.
<mgrwt>
<rscale>  2 0.10863910E+03</rscale>
<asrwt>0</asrwt>
<pdfrwt beam="1">  1       21 0.10560547E-01 0.10863910E+03</pdfrwt>
<pdfrwt beam="2">  1       21 0.65015366E-01 0.10863910E+03</pdfrwt>
<totfact> 0.16492297E+05</totfact>
</mgrwt>
</event>
<event>
 4    1  0.5694171E+003  0.1242600E+03  0.7546771E-02  0.1236230E+00
         21   -1    0    0  502  501  0.00000000000E+00  0.00000000000E+00  0.37069408957E+03  0.37069408957E+03  0.00000000000E+00 0. -1.
         21   -1    0    0  503  502 -0.00000000000E+00 -0.00000000000E+00 -0.69289854719E+03  0.69289854719E+03  0.00000000000E+00 0. -1.
         21    1    1    2  503  504 -0.11275328815E+03  0.52223116091E+02 -0.67666654546E+03  0.68798122910E+03  0.00000000000E+00 0. -1.
         21    1    1    2  504  501  0.11275328815E+03 -0.52223116091E+02  0.35446208785E+03  0.37561140766E+03  0.00000000000E+00 0. -1.
<mgrwt>
<rscale>  2 0.12426004E+03</rscale>
<asrwt>0</asrwt>
<pdfrwt beam="1">  1       21 0.57029861E-01 0.12426004E+03</pdfrwt>
<pdfrwt beam="2">  1       21 0.10659977E+00 0.12426004E+03</pdfrwt>
<totfact> 0.21885854E+03</totfact>
</mgrwt>
</event>
<event>
 4    1  0.5694171E+003  0.1023465E+03  0.7546771E-02  0.1275438E+00
         21   -1    0    0  504  501  0.00000000000E+00  0.00000000000E+00  0.23340030681E+03  0.23340030681E+03  0.00000000000E+00 0.  1.
         21   -1    0    0  503  502 -0.00000000000E+00 -0.00000000000E+00 -0.51804423011E+02  0.51804423011E+02  0.00000000000E+00 0.  1.
         21    1    1    2  503  501  0.68698043585E+02 -0.75864238343E+02  0.38658997912E+02  0.10940439649E+03  0.00000000000E+00 0.  1.
         21    1    1    2  504  502 -0.68698043585E+02  0.75864238343E+02  0.14293688588E+03  0.17580033333E+03  0.00000000000E+00 0.  1.
<mgrwt>
<rscale>  2 0.10234649E+03</rscale>
<asrwt>0</asrwt>
<pdfrwt beam="1">  1       21 0.35907739E-01 0.10234649E+03</pdfrwt>
<pdfrwt beam="2">  1       21 0.79699114E-02 0.10234649E+03</pdfrwt>
<totfact> 0.90386136E+05</totfact>
</mgrwt>
</event>
<event>
 4    1  0.5694171E+003  0.1173874E+03  0.7546771E-02  0.1247470E+00
         21   -1    0    0  502  501  0.00000000000E+00  0.00000000000E+00  0.62350947378E+03  0.62350947378E+03  0.00000000000E+00 0.  1.
         21   -1    0    0  504  502 -0.00000000000E+00 -0.00000000000E+00 -0.26776533976E+03  0.26776533976E+03  0.00000000000E+00 0. -1.
         21    1    1    2  503  501 -0.11006827037E+03 -0.40801548617E+02  0.60472284205E+03  0.61601096274E+03  0.00000000000E+00 0.  1.
         21    1    1    2  504  503  0.11006827037E+03  0.40801548617E+02 -0.24897870803E+03  0.27526385081E+03  0.00000000000E+00 0. -1.
<mgrwt>
<rscale>  2 0.11738735E+03</rscale>
<asrwt>0</asrwt>
<pdfrwt beam="1">  1       21 0.95924534E-01 0.11738735E+03</pdfrwt>
<pdfrwt beam="2">  1       21 0.41194668E-01 0.11738735E+03</pdfrwt>
<totfact> 0.55069317E+03</totfact>
</mgrwt>
</event>
<event>
 4    1  0.5694171E+003  0.1117879E+03  0.7546771E-02  0.1257294E+00
         21   -1    0    0  504  501  0.00000000000E+00  0.00000000000E+00  0.39250423477E+03  0.39250423477E+03  0.00000000000E+00 0. -1.
         21   -1    0    0  501  502 -0.00000000000E+00 -0.00000000000E+00 -0.32276287536E+02  0.32276287536E+02  0.00000000000E+00 0. -1.
         21    1    1    2  503  502 -0.71229590206E+02  0.86156138881E+02  0.15536305323E+03  0.19140066117E+03  0.00000000000E+00 0. -1.
         21    1    1    2  504  503  0.71229590206E+02 -0.86156138881E+02  0.20486489401E+03  0.23337986114E+03  0.00000000000E+00 0. -1.
<mgrwt>
<rscale>  2 0.11178790E+03</rscale>
<asrwt>0</asrwt>
<pdfrwt beam="1">  1       21 0.60385263E-01 0.11178790E+03</pdfrwt>
<pdfrwt beam="2">  1       21 0.49655830E-02 0.11178790E+03</pdfrwt>
<totfact> 0.70010762E+05</totfact>
</mgrwt>
</event>
<event>
 4    1  0.5694171E+003  0.1223820E+03  0.7546771E-02  0.1239218E+00
         21   -1    0    0  503  501  0.00000000000E+00  0.00000000000E+00  0.14896128183E+03  0.14896128183E+03  0.00000000000E+00 0. -1.
         21   -1    0    0  504  502 -0.00000000000E+00 -0.00000000000E+00 -0.14439503401E+03  0.14439503401E+03  0.00000000000E+00 0.  1.
         21    1    1    2  503  502 -0.90608705168E+02 -0.82264374546E+02 -0.78546867779E+02  0.14541999591E+03  0.00000000000E+00 0.  1.
         21    1    1    2  504  501  0.90608705168E+02  0.82264374546E+02  0.83113115593E+02  0.14793631993E+03  0.00000000000E+00 0. -1.
<mgrwt>
<rscale>  2 0.12238204E+03</rscale>
<asrwt>0</asrwt>
<pdfrwt beam="1">  1       21 0.22917120E-01 0.12238204E+03</pdfrwt>
<pdfrwt beam="2">  1       21 0.22214621E-01 0.12238204E+03</pdfrwt>
<totfact> 0.34304421E+05</totfact>
</mgrwt>
</event>
<event>
 4    1  0.5694171E+003  0.1001851E+03  0.7546771E-02  0.1279907E+00
         21   -1    0    0  503  501  0.00000000000E+00  0.00000000000E+00  0.17957743136E+03  0.17957743136E+03  0.00000000000E+00 0.  1.
         21   -1    0    0  501  502 -0.00000000000E+00 -0.00000000000E+00 -0.14667314346E+03  0.14667314346E+03  0.00000000000E+00 0.  1.
         21    1    1    2  503  504  0.90278382454E+02 -0.43438174186E+02  0.14478628917E+03  0.17606854020E+03  0.00000000000E+00 0.  1.
         21    1    1    2  504  502 -0.90278382454E+02  0.43438174186E+02 -0.11188200128E+03  0.15018203463E+03  0.00000000000E+00 0.  1.
<mgrwt>
<rscale>  2 0.10018514E+03</rscale>
<asrwt>0</asrwt>
<pdfrwt beam="1">  1       21 0.27627297E-01 0.10018514E+03</pdfrwt>
<pdfrwt beam="2">  1       21 0.22565099E-01 0.10018514E+03</pdfrwt>
<totfact> 0.23532463E+05</totfact>
</mgrwt>
</event>
<event>
 4    1  0.5694171E+003  0.1075965E+03  0.7546771E-02  0.1265087E+00
         21   -1    0    0  503  501  0.00000000000E+00  0.00000000000E+00  0.77574040240E+01  0.77574040240E+01  0.00000000000E+00 0. -1.
         21   -1    0    0  504  502 -0.00000000000E+00 -0.00000000000E+00 -0.24171581509E+04  0.24171581509E+04  0.00000000000E+00 0.  1.
         21    1    1    2  503  502  0.10378388516E+03 -0.28388594868E+02 -0.19546506881E+04  0.19576098486E+04  0.00000000000E+00 0.  1.
         21    1    1    2  504  501 -0.10378388516E+03  0.28388594868E+02 -0.45475005881E+03  0.46730570628E+03  0.00000000000E+00 0. -1.
<mgrwt>
<rscale>  2 0.10759650E+03</rscale>
<asrwt>0</asrwt>
<pdfrwt beam="1">  1       21 0.11934476E-02 0.10759650E+03</pdfrwt>
<pdfrwt beam="2">  1       21 0.37187022E+00 0.10759650E+03</pdfrwt>
<totfact> 0.41233319E+04</totfact>
</mgrwt>
</event>
<event>
 4    1  0.5694171E+003  0.1014448E+03  0.7546771E-02  0.1277287E+00
         21   -1    0    0  503  501  0.00000000000E+00  0.00000000000E+00  0.24809572315E+02  0.24809572315E+02  0.00000000000E+00 0. -1.
         21   -1    0    0  504  502 -0.00000000000E+00 -0.00000000000E+00 -0.41760197472E+03  0.41760197472E+03  0.00000000000E+00 0.  1.
         21    1    1    2  503  502 -0.76736488795E+02 -0.66351774722E+02 -0.17828136469E+03  0.20512262605E+03  0.00000000000E+00 0. -1.
         21    1    1    2  504  501  0.76736488795E+02  0.66351774722E+02 -0.21451103771E+03  0.23728892099E+03  0.00000000000E+00 0.  1.
<mgrwt>
<rscale>  2 0.10144480E+03</rscale>
<asrwt>0</asrwt>
<pdfrwt beam="1">  1       21 0.38168575E-02 0.10144480E+03</pdfrwt>
<pdfrwt beam="2">  1       21 0.64246454E-01 0.10144480E+03</pdfrwt>
<totfact> 0.94941817E+05</totfact>
</mgrwt>
</event>
<event>
 4    1  0.5694171E+003  0.1149865E+03  0.7546771E-02  0.1251605E+00
         21   -1    0    0  502  501  0.00000000000E+00  0.00000000000E+00  0.62117244511E+03  0.62117244511E+03  0.00000000000E+00 0. -1.
         21   -1    0    0  503  502 -0.00000000000E+00 -0.00000000000E+00 -0.38464108437E+02  0.38464108437E+02  0.00000000000E+00 0.  1.
         21    1    1    2  503  504 -0.57989141092E+02  0.99293239672E+02  0.70938499758E+02  0.13510795194E+03  0.00000000000E+00 0.  1.
         21    1    1    2  504  501  0.57989141092E+02 -0.99293239672E+02  0.51176983691E+03  0.52452860160E+03  0.00000000000E+00 0. -1.
<mgrwt>
<rscale>  2 0.11498647E+03</rscale>
<asrwt>0</asrwt>
<pdfrwt beam="1">  1       21 0.95564984E-01 0.11498647E+03</pdfrwt>
<pdfrwt beam="2">  1       21 0.59175556E-02 0.11498647E+03</pdfrwt>
<totfact> 0.18919473E+05</totfact>
</mgrwt>
</event>
<event>
 4    1  0.5694171E+003  0.1184549E+03  0.7546771E-02  0.1245668E+00
         21   -1    0    0  502  501  0.00000000000E+00  0.00000000000E+00  0.20929976159E+03  0.20929976159E+03  0.00000000000E+00 0.  1.
         21   -1    0    0  504  502 -0.00000000000E+00 -0.00000000000E+00 -0.10174924779E+03  0.10174924779E+03  0.00000000000E+00 0.  1.
         21    1    1    2  503  501  0.11810119387E+03 -0.91474679946E+01  0.14461010033E+03  0.18693220504E+03  0.00000000000E+00 0.  1.
         21    1    1    2  504  503 -0.11810119387E+03  0.91474679946E+01 -0.37059586521E+02  0.12411680434E+03  0.00000000000E+00 0.  1.
<mgrwt>
<rscale>  2 0.11845492E+03</rscale>
<asrwt>0</asrwt>
<pdfrwt beam="1">  1       21 0.32199963E-01 0.11845492E+03</pdfrwt>
<pdfrwt beam="2">  1       21 0.15653731E-01 0.11845492E+03</pdfrwt>
<totfact> 0.34131594E+05</totfact>
</mgrwt>
</event>
<event>
 4    1  0.5694171E+003  0.1137015E+03  0.7546771E-02  0.1253865E+00
         21   -1    0    0  503  501  0.00000000000E+00  0.00000000000E+00  0.78645084787E+03  0.78645084787E+03  0.00000000000E+00 0.  1.
         21   -1    0    0  501  502 -0.00000000000E+00 -0.00000000000E+00 -0.12824899977E+03  0.12824899977E+03  0.00000000000E+00 0.  1.
         21    1    1    2  503  504  0.80269004826E+02 -0.80528993708E+02  0.75613547186E+03  0.76463643895E+03  0.00000000000E+00 0.  1.
         21    1    1    2  504  502 -0.80269004826E+02  0.80528993708E+02 -0.97933623758E+02  0.15006340868E+03  0.00000000000E+00 0.  1.
<mgrwt>
<rscale>  2 0.11370150E+03</rscale>
<asrwt>0</asrwt>
<pdfrwt beam="1">  1       21 0.12099244E+00 0.11370150E+03</pdfrwt>
<pdfrwt beam="2">  1       21 0.19730616E-01 0.11370150E+03</pdfrwt>
<totfact> 0.13053790E+04</totfact>
</mgrwt>
</event>
<event>
 4    1  0.5694171E+003  0.1165670E+03  0.7546771E-02  0.1248870E+00
         21   -1    0    0  503  501  0.00000000000E+00  0.00000000000E+00  0.10813121071E+03  0.10813121071E+03  0.00000000000E+00 0.  1.
         21   -1    0    0  504  502 -0.00000000000E+00 -0.00000000000E+00 -0.12928663668E+03  0.12928663668E+03  0.00000000000E+00 0.  1.
         21    1    1    2  503  502  0.81066727968E+02  0.83761871062E+02  0.93017470564E+01  0.11693753856E+03  0.00000000000E+00 0.  1.
         21    1    1    2  504  501 -0.81066727968E+02 -0.83761871062E+02 -0.30457173029E+02  0.12048030883E+03  0.00000000000E+00 0.  1.
<mgrwt>
<rscale>  2 0.11656700E+03</rscale>
<asrwt>0</asrwt>
<pdfrwt beam="1">  1       21 0.16635571E-01 0.11656700E+03</pdfrwt>
<pdfrwt beam="2">  1       21 0.19890252E-01 0.11656700E+03</pdfrwt>
<totfact> 0.75968201E+05</totfact>
</mgrwt>
</event>
<event>
 4    1  0.5694171E+003  0.1003066E+03  0.7546771E-02  0.1279652E+00
         21   -1    0    0  503  501  0.00000000000E+00  0.00000000000E+00  0.41390450822E+03  0.41390450822E+03  0.00000000000E+00 0.  1.
         21   -1    0    0  504  502 -0.00000000000E+00 -0.00000000000E+00 -0.27229738731E+02  0.27229738731E+02  0.00000000000E+00 0.  1.
         21    1    1    2  503  502 -0.53434487497E+02  0.84889215958E+02  0.26558074719E+03  0.28389180460E+03  0.00000000000E+00 0.  1.
         21    1    1    2  504  501  0.53434487497E+02 -0.84889215958E+02  0.12109402229E+03  0.15724244234E+03  0.00000000000E+00 0.  1.
<mgrwt>
<rscale>  2 0.10030665E+03</rscale>
<asrwt>0</asrwt>
<pdfrwt beam="1">  1       21 0.63677612E-01 0.10030665E+03</pdfrwt>
<pdfrwt beam="2">  1       21 0.41891909E-02 0.10030665E+03</pdfrwt>
<totfact> 0.82968893E+05</totfact>
</mgrwt>
</event>
<event>
 4    1  0.5694171E+003  0.1184421E+03  0.7546771E-02  0.1245689E+00
         21   -1    0    0  503  501  0.00000000000E+00  0.00000000000E+00  0.26246163408E+03  0.26246163408E+03  0.00000000000E+00 0.  1.
         21   -1    0    0  501  502 -0.00000000000E+00 -0.00000000000E+00 -0.66585232796E+02  0.66585232796E+02  0.00000000000E+00 0. -1.
         21    1    1    2  503  504  0.11841168557E+03  0.26840219592E+01  0.17101178389E+03  0.20802298307E+03  0.00000000000E+00 0.  1.
         21    1    1    2  504  502 -0.11841168557E+03 -0.26840219592E+01  0.24864617395E+02  0.12102388381E+03  0.00000000000E+00 0. -1.
<mgrwt>
<rscale>  2 0.11844210E+03</rscale>
<asrwt>0</asrwt>
<pdfrwt beam="1">  1       21 0.40378713E-01 0.11844210E+03</pdfrwt>
<pdfrwt beam="2">  1       21 0.10243882E-01 0.11844210E+03</pdfrwt>
<totfact> 0.46421187E+05</totfact>
</mgrwt>
</event>
<event>
 4    1  0.5694171E+003  0.1036319E+03  0.7546771E-02  0.1272839E+00
         21   -1    0    0  503  501  0.00000000000E+00  0.00000000000E+00  0.27803484632E+02  0.27803484632E+02  0.00000000000E+00 0. -1.
         21   -1    0    0  501  502 -0.00000000000E+00 -0.00000000000E+00 -0.77186533678E+03  0.77186533678E+03  0.00000000000E+00 0.  1.
         21    1    1    2  503  504 -0.97919104469E+02  0.33932605050E+02 -0.89427845501E+02  0.13688284135E+03  0.00000000000E+00 0. -1.
         21    1    1    2  504  502  0.97919104469E+02 -0.33932605050E+02 -0.65463400665E+03  0.66278598006E+03  0.00000000000E+00 0.  1.
<mgrwt>
<rscale>  2 0.10363191E+03</rscale>
<asrwt>0</asrwt>
<pdfrwt beam="1">  1       21 0.42774591E-02 0.10363191E+03</pdfrwt>
<pdfrwt beam="2">  1       21 0.11874851E+00 0.10363191E+03</pdfrwt>
<totfact> 0.19591681E+05</totfact>
</mgrwt>
</event>
<event>
 4    1  0.5694171E+003  0.1008496E+03  0.7546771E-02  0.1278520E+00
         21   -1    0    0  504  501  0.00000000000E+00  0.00000000000E+00  0.74940761468E+03  0.74940761468E+03  0.00000000000E+00 0.  1.
         21   -1    0    0  503  502 -0.00000000000E+00 -0.00000000000E+00 -0.19355305259E+02  0.19355305259E+02  0.00000000000E+00 0. -1.
         21    1    1    2  503  501  0.68622049283E+02 -0.73902960952E+02  0.57514589410E+03  0.58392074187E+03  0.00000000000E+00 0.  1.
         21    1    1    2  504  502 -0.68622049283E+02  0.73902960952E+02  0.15490641531E+03  0.18484217806E+03  0.00000000000E+00 0. -1.
<mgrwt>
<rscale>  2 0.10084956E+03</rscale>
<asrwt>0</asrwt>
<pdfrwt beam="1">  1       21 0.11529346E+00 0.10084956E+03</pdfrwt>
<pdfrwt beam="2">  1       21 0.29777398E-02 0.10084956E+03</pdfrwt>
<totfact> 0.38163835E+05</totfact>
</mgrwt>
</event>
<event>
 4    1  0.5694171E+003  0.1886533E+03  0.7546771E-02  0.1159682E+00
         21   -1    0    0  502  501  0.00000000000E+00  0.00000000000E+00  0.12997219180E+04  0.12997219180E+04  0.00000000000E+00 0. -1.
         21   -1    0    0  504  502 -0.00000000000E+00 -0.00000000000E+00 -0.45803794100E+02  0.45803794100E+02  0.00000000000E+00 0. -1.
         21    1    1    2  503  501  0.83333029375E+02  0.16925030744E+03  0.10536048798E+04  0.10703612956E+04  0.00000000000E+00 0. -1.
         21    1    1    2  504  503 -0.83333029375E+02 -0.16925030744E+03  0.20031324409E+03  0.27516441651E+03  0.00000000000E+00 0. -1.
<mgrwt>
<rscale>  2 0.18865328E+03</rscale>
<asrwt>0</asrwt>
<pdfrwt beam="1">  1       21 0.19995719E+00 0.18865328E+03</pdfrwt>
<pdfrwt beam="2">  1       21 0.70467385E-02 0.18865328E+03</pdfrwt>
<totfact> 0.20152158E+04</totfact>
</mgrwt>
</event>
<event>
 4    1  0.5694171E+003  0.1308426E+03  0.7546771E-02  0.1226211E+00
         21   -1    0    0  502  501  0.00000000000E+00  0.00000000000E+00  0.13038030904E+03  0.13038030904E+03  0.00000000000E+00 0.  1.
         21   -1    0    0  503  502 -0.00000000000E+00 -0.00000000000E+00 -0.14210729581E+03  0.14210729581E+03  0.00000000000E+00 0.  1.
         21    1    1    2  503  504 -0.10344508779E+03 -0.80117992997E+02  0.31697486885E+02  0.13462729910E+03  0.00000000000E+00 0.  1.
         21    1    1    2  504  501  0.10344508779E+03  0.80117992997E+02 -0.43424473652E+02  0.13786030575E+03  0.00000000000E+00 0.  1.
<mgrwt>
<rscale>  2 0.13084257E+03</rscale>
<asrwt>0</asrwt>
<pdfrwt beam="1">  1       21 0.20058509E-01 0.13084257E+03</pdfrwt>
<pdfrwt beam="2">  1       21 0.21862661E-01 0.13084257E+03</pdfrwt>
<totfact> 0.45238236E+05</totfact>
</mgrwt>
</event>
<event>
 4    1  0.5694171E+003  0.1050974E+03  0.7546771E-02  0.1269928E+00
         21   -1    0    0  502  501  0.00000000000E+00  0.00000000000E+00  0.12934040013E+03  0.12934040013E+03  0.00000000000E+00 0. -1.
         21   -1    0    0  503  502 -0.00000000000E+00 -0.00000000000E+00 -0.54664397055E+03  0.54664397055E+03  0.00000000000E+00 0. -1.
         21    1    1    2  503  504 -0.94340284814E+02  0.46318119822E+02 -0.51912240091E+03  0.52965415573E+03  0.00000000000E+00 0. -1.
         21    1    1    2  504  501  0.94340284814E+02 -0.46318119822E+02  0.10181883049E+03  0.14633021494E+03  0.00000000000E+00 0. -1.
<mgrwt>
<rscale>  2 0.10509737E+03</rscale>
<asrwt>0</asrwt>
<pdfrwt beam="1">  1       21 0.19898523E-01 0.10509737E+03</pdfrwt>
<pdfrwt beam="2">  1       21 0.84099072E-01 0.10509737E+03</pdfrwt>
<totfact> 0.30260565E+04</totfact>
</mgrwt>
</event>
<event>
 4    1  0.5694171E+003  0.1040651E+03  0.7546771E-02  0.1271973E+00
         21   -1    0    0  504  501  0.00000000000E+00  0.00000000000E+00  0.10414921660E+04  0.10414921660E+04  0.00000000000E+00 0.  1.
         21   -1    0    0  503  502 -0.00000000000E+00 -0.00000000000E+00 -0.54655240331E+02  0.54655240331E+02  0.00000000000E+00 0. -1.
         21    1    1    2  503  501  0.41898886255E+02  0.95257695615E+02  0.22795553440E+00  0.10406535066E+03  0.00000000000E+00 0. -1.
         21    1    1    2  504  502 -0.41898886255E+02 -0.95257695615E+02  0.98660897009E+03  0.99208205563E+03  0.00000000000E+00 0.  1.
<mgrwt>
<rscale>  2 0.10406510E+03</rscale>
<asrwt>0</asrwt>
<pdfrwt beam="1">  1       21 0.16022955E+00 0.10406510E+03</pdfrwt>
<pdfrwt beam="2">  1       21 0.84084993E-02 0.10406510E+03</pdfrwt>
<totfact> 0.29510469E+04</totfact>
</mgrwt>
</event>
<event>
 4    1  0.5694171E+003  0.1069231E+03  0.7546771E-02  0.1266376E+00
         21   -1    0    0  502  501  0.00000000000E+00  0.00000000000E+00  0.20840895505E+02  0.20840895505E+02  0.00000000000E+00 0.  1.
         21   -1    0    0  503  502 -0.00000000000E+00 -0.00000000000E+00 -0.10485725644E+04  0.10485725644E+04  0.00000000000E+00 0. -1.
         21    1    1    2  503  504  0.10919594399E+01  0.10691753266E+03 -0.88310300559E+03  0.88955239848E+03  0.00000000000E+00 0. -1.
         21    1    1    2  504  501 -0.10919594399E+01 -0.10691753266E+03 -0.14462866330E+03  0.17986106141E+03  0.00000000000E+00 0.  1.
<mgrwt>
<rscale>  2 0.10692311E+03</rscale>
<asrwt>0</asrwt>
<pdfrwt beam="1">  1       21 0.32062910E-02 0.10692311E+03</pdfrwt>
<pdfrwt beam="2">  1       21 0.16131889E+00 0.10692311E+03</pdfrwt>
<totfact> 0.14551051E+05</totfact>
</mgrwt>
</event>
<event>
 4    1  0.5694171E+003  0.1248487E+03  0.7546771E-02  0.1235306E+00
         21   -1    0    0  503  501  0.00000000000E+00  0.00000000000E+00  0.96276808537E+02  0.96276808537E+02  0.00000000000E+00 0.  1.
         21   -1    0    0  501  502 -0.00000000000E+00 -0.00000000000E+00 -0.16944464832E+03  0.16944464832E+03  0.00000000000E+00 0.  1.
         21    1    1    2  503  504 -0.11610986193E+03 -0.45887781197E+02 -0.85482967740E+01  0.12514096803E+03  0.00000000000E+00 0.  1.
         21    1    1    2  504  502  0.11610986193E+03  0.45887781197E+02 -0.64619543007E+02  0.14058048883E+03  0.00000000000E+00 0.  1.
<mgrwt>
<rscale>  2 0.12484866E+03</rscale>
<asrwt>0</asrwt>
<pdfrwt beam="1">  1       21 0.14811817E-01 0.12484866E+03</pdfrwt>
<pdfrwt beam="2">  1       21 0.26068407E-01 0.12484866E+03</pdfrwt>
<totfact> 0.56511228E+05</totfact>
</mgrwt>
</event>
<event>
 4    1  0.5694171E+003  0.1039126E+03  0.7546771E-02  0.1272277E+00
         21   -1    0    0  503  501  0.00000000000E+00  0.00000000000E+00  0.48572044401E+01  0.48572044401E+01  0.00000000000E+00 0. -1.
         21   -1    0    0  504  502 -0.00000000000E+00 -0.00000000000E+00 -0.25111553028E+04  0.25111553028E+04  0.00000000000E+00 0. -1.
         21    1    1    2  503  502 -0.95539482034E+02 -0.40866074115E+02 -0.16792558719E+04  0.16824678635E+04  0.00000000000E+00 0. -1.
         21    1    1    2  504  501  0.95539482034E+02  0.40866074115E+02 -0.82704222649E+03  0.83354464370E+03  0.00000000000E+00 0. -1.
<mgrwt>
<rscale>  2 0.10391260E+03</rscale>
<asrwt>0</asrwt>
<pdfrwt beam="1">  1       21 0.74726129E-03 0.10391260E+03</pdfrwt>
<pdfrwt beam="2">  1       21 0.38633207E+00 0.10391260E+03</pdfrwt>
<totfact> 0.71063727E+04</totfact>
</mgrwt>
</event>
<event>
 4    1  0.5694171E+003  0.1120541E+03  0.7546771E-02  0.1256813E+00
         21   -1    0    0  503  501  0.00000000000E+00  0.00000000000E+00  0.12664864186E+03  0.12664864186E+03  0.00000000000E+00 0. -1.
         21   -1    0    0  504  502 -0.00000000000E+00 -0.00000000000E+00 -0.10214963465E+03  0.10214963465E+03  0.00000000000E+00 0. -1.
         21    1    1    2  503  502 -0.80983195896E+02  0.77445785017E+02  0.31881204772E+02  0.11650123970E+03  0.00000000000E+00 0. -1.
         21    1    1    2  504  501  0.80983195896E+02 -0.77445785017E+02 -0.73821975608E+01  0.11229703681E+03  0.00000000000E+00 0. -1.
<mgrwt>
<rscale>  2 0.11205413E+03</rscale>
<asrwt>0</asrwt>
<pdfrwt beam="1">  1       21 0.19484407E-01 0.11205413E+03</pdfrwt>
<pdfrwt beam="2">  1       21 0.15715328E-01 0.11205413E+03</pdfrwt>
<totfact> 0.87438650E+05</totfact>
</mgrwt>
</event>
<event>
 4    1  0.5694171E+003  0.1567565E+03  0.7546771E-02  0.1192408E+00
         21   -1    0    0  502  501  0.00000000000E+00  0.00000000000E+00  0.26859817438E+03  0.26859817438E+03  0.00000000000E+00 0.  1.
         21   -1    0    0  503  502 -0.00000000000E+00 -0.00000000000E+00 -0.12565219656E+03  0.12565219656E+03  0.00000000000E+00 0.  1.
         21    1    1    2  503  504  0.34381587131E+02  0.15293957173E+03 -0.31320134086E+02  0.15985479953E+03  0.00000000000E+00 0.  1.
         21    1    1    2  504  501 -0.34381587131E+02 -0.15293957173E+03  0.17426611191E+03  0.23439557141E+03  0.00000000000E+00 0.  1.
<mgrwt>
<rscale>  2 0.15675652E+03</rscale>
<asrwt>0</asrwt>
<pdfrwt beam="1">  1       21 0.41322796E-01 0.15675652E+03</pdfrwt>
<pdfrwt beam="2">  1       21 0.19331107E-01 0.15675652E+03</pdfrwt>
<totfact> 0.14041676E+05</totfact>
</mgrwt>
</event>
<event>
 4    1  0.5694171E+003  0.1253081E+03  0.7546771E-02  0.1234588E+00
         21   -1    0    0  503  501  0.00000000000E+00  0.00000000000E+00  0.13281889796E+02  0.13281889796E+02  0.00000000000E+00 0.  1.
         21   -1    0    0  504  502 -0.00000000000E+00 -0.00000000000E+00 -0.11862200443E+04  0.11862200443E+04  0.00000000000E+00 0.  1.
         21    1    1    2  503  502 -0.89795317688E+02 -0.87400982251E+02 -0.62129152703E+03  0.63380225018E+03  0.00000000000E+00 0.  1.
         21    1    1    2  504  501  0.89795317688E+02  0.87400982251E+02 -0.55164662751E+03  0.56569968394E+03  0.00000000000E+00 0.  1.
<mgrwt>
<rscale>  2 0.12530814E+03</rscale>
<asrwt>0</asrwt>
<pdfrwt beam="1">  1       21 0.20433686E-02 0.12530814E+03</pdfrwt>
<pdfrwt beam="2">  1       21 0.18249531E+00 0.12530814E+03</pdfrwt>
<totfact> 0.21467616E+05</totfact>
</mgrwt>
</event>
<event>
 4    1  0.5694171E+003  0.1236243E+03  0.7546771E-02  0.1237235E+00
         21   -1    0    0  503  501  0.00000000000E+00  0.00000000000E+00  0.34270859344E+03  0.34270859344E+03  0.00000000000E+00 0. -1.
         21   -1    0    0  504  502 -0.00000000000E+00 -0.00000000000E+00 -0.80027964555E+02  0.80027964555E+02  0.00000000000E+00 0. -1.
         21    1    1    2  503  502  0.10094848371E+03 -0.71360906257E+02  0.27198545024E+03  0.29876254860E+03  0.00000000000E+00 0. -1.
         21    1    1    2  504  501 -0.10094848371E+03  0.71360906257E+02 -0.93048213497E+01  0.12397400940E+03  0.00000000000E+00 0. -1.
<mgrwt>
<rscale>  2 0.12362433E+03</rscale>
<asrwt>0</asrwt>
<pdfrwt beam="1">  1       21 0.52724398E-01 0.12362433E+03</pdfrwt>
<pdfrwt beam="2">  1       21 0.12311995E-01 0.12362433E+03</pdfrwt>
<totfact> 0.19489790E+05</totfact>
</mgrwt>
</event>
<event>
 4    1  0.5694171E+003  0.1250514E+03  0.7546771E-02  0.1234989E+00
         21   -1    0    0  504  501  0.00000000000E+00  0.00000000000E+00  0.24615381706E+03  0.24615381706E+03  0.00000000000E+00 0. -1.
         21   -1    0    0  503  502 -0.00000000000E+00 -0.00000000000E+00 -0.30840590261E+03  0.30840590261E+03  0.00000000000E+00 0. -1.
         21    1    1    2  503  501  0.45074940061E+01 -0.12497017049E+03 -0.27820232524E+03  0.30501540089E+03  0.00000000000E+00 0. -1.
         21    1    1    2  504  502 -0.45074940061E+01  0.12497017049E+03  0.21595023968E+03  0.24954431878E+03  0.00000000000E+00 0. -1.
<mgrwt>
<rscale>  2 0.12505143E+03</rscale>
<asrwt>0</asrwt>
<pdfrwt beam="1">  1       21 0.37869818E-01 0.12505143E+03</pdfrwt>
<pdfrwt beam="2">  1       21 0.47447061E-01 0.12505143E+03</pdfrwt>
<totfact> 0.29734957E+04</totfact>
</mgrwt>
</event>
<event>
 4    1  0.5694171E+003  0.1922603E+03  0.7546771E-02  0.1156438E+00
         21   -1    0    0  504  501  0.00000000000E+00  0.00000000000E+00  0.32352858820E+03  0.32352858820E+03  0.00000000000E+00 0.  1.
         21   -1    0    0  503  502 -0.00000000000E+00 -0.00000000000E+00 -0.31360311113E+03  0.31360311113E+03  0.00000000000E+00 0. -1.
         21    1    1    2  503  501  0.17531426344E+03  0.78923601651E+02 -0.24902781618E+03  0.31460908934E+03  0.00000000000E+00 0. -1.
         21    1    1    2  504  502 -0.17531426344E+03 -0.78923601651E+02  0.25895329325E+03  0.32252260998E+03  0.00000000000E+00 0.  1.
<mgrwt>
<rscale>  2 0.19226031E+03</rscale>
<asrwt>0</asrwt>
<pdfrwt beam="1">  1       21 0.49773629E-01 0.19226031E+03</pdfrwt>
<pdfrwt beam="2">  1       21 0.48246632E-01 0.19226031E+03</pdfrwt>
<totfact> 0.15791611E+04</totfact>
</mgrwt>
</event>
<event>
 4    1  0.5694171E+003  0.1133288E+03  0.7546771E-02  0.1254527E+00
         21   -1    0    0  504  501  0.00000000000E+00  0.00000000000E+00  0.76779572466E+03  0.76779572466E+03  0.00000000000E+00 0.  1.
         21   -1    0    0  503  502 -0.00000000000E+00 -0.00000000000E+00 -0.14661115236E+03  0.14661115236E+03  0.00000000000E+00 0.  1.
         21    1    1    2  503  501  0.49093413742E+02 -0.10214332211E+03  0.74092362280E+03  0.74954068358E+03  0.00000000000E+00 0.  1.
         21    1    1    2  504  502 -0.49093413742E+02  0.10214332211E+03 -0.11973905050E+03  0.16486619344E+03  0.00000000000E+00 0.  1.
<mgrwt>
<rscale>  2 0.11332882E+03</rscale>
<asrwt>0</asrwt>
<pdfrwt beam="1">  1       21 0.11812242E+00 0.11332882E+03</pdfrwt>
<pdfrwt beam="2">  1       21 0.22555562E-01 0.11332882E+03</pdfrwt>
<totfact> 0.10804952E+04</totfact>
</mgrwt>
</event>
<event>
 4    1  0.5694171E+003  0.1648158E+03  0.7546771E-02  0.1183365E+00
         21   -1    0    0  502  501  0.00000000000E+00  0.00000000000E+00  0.51350574850E+03  0.51350574850E+03  0.00000000000E+00 0.  1.
         21   -1    0    0  503  502 -0.00000000000E+00 -0.00000000000E+00 -0.19266673898E+03  0.19266673898E+03  0.00000000000E+00 0.  1.
         21    1    1    2  503  504 -0.16282073225E+03  0.25566867749E+02 -0.14031270206E+03  0.21645302016E+03  0.00000000000E+00 0.  1.
         21    1    1    2  504  501  0.16282073225E+03 -0.25566867749E+02  0.46115171158E+03  0.48971946732E+03  0.00000000000E+00 0.  1.
<mgrwt>
<rscale>  2 0.16481582E+03</rscale>
<asrwt>0</asrwt>
<pdfrwt beam="1">  1       21 0.79000884E-01 0.16481582E+03</pdfrwt>
<pdfrwt beam="2">  1       21 0.29641037E-01 0.16481582E+03</pdfrwt>
<totfact> 0.15722588E+04</totfact>
</mgrwt>
</event>
<event>
 4    1  0.5694171E+003  0.1099213E+03  0.7546771E-02  0.1260716E+00
         21   -1    0    0  503  501  0.00000000000E+00  0.00000000000E+00  0.28007102305E+02  0.28007102305E+02  0.00000000000E+00 0. -1.
         21   -1    0    0  504  502 -0.00000000000E+00 -0.00000000000E+00 -0.86446192796E+03  0.86446192796E+03  0.00000000000E+00 0. -1.
         21    1    1    2  503  502 -0.18373848639E+02  0.10837478540E+03 -0.73406044822E+03  0.74224486126E+03  0.00000000000E+00 0. -1.
         21    1    1    2  504  501  0.18373848639E+02 -0.10837478540E+03 -0.10239437744E+03  0.15022416901E+03  0.00000000000E+00 0. -1.
<mgrwt>
<rscale>  2 0.10992130E+03</rscale>
<asrwt>0</asrwt>
<pdfrwt beam="1">  1       21 0.43087858E-02 0.10992130E+03</pdfrwt>
<pdfrwt beam="2">  1       21 0.13299412E+00 0.10992130E+03</pdfrwt>
<totfact> 0.14619979E+05</totfact>
</mgrwt>
</event>
<event>
 4    1  0.5694171E+003  0.2082028E+03  0.7546771E-02  0.1142997E+00
         21   -1    0    0  504  501  0.00000000000E+00  0.00000000000E+00  0.11524565922E+03  0.11524565922E+03  0.00000000000E+00 0.  1.
         21   -1    0    0  503  502 -0.00000000000E+00 -0.00000000000E+00 -0.39092064721E+03  0.39092064721E+03  0.00000000000E+00 0. -1.
         21    1    1    2  503  501  0.19289516415E+03 -0.78357242819E+02 -0.18705033722E+03  0.27988610275E+03  0.00000000000E+00 0. -1.
         21    1    1    2  504  502 -0.19289516415E+03  0.78357242819E+02 -0.88624650761E+02  0.22628020368E+03  0.00000000000E+00 0.  1.
<mgrwt>
<rscale>  2 0.20820279E+03</rscale>
<asrwt>0</asrwt>
<pdfrwt beam="1">  1       21 0.17730102E-01 0.20820279E+03</pdfrwt>
<pdfrwt beam="2">  1       21 0.60141638E-01 0.20820279E+03</pdfrwt>
<totfact> 0.73921610E+04</totfact>
</mgrwt>
</event>
<event>
 4    1  0.5694171E+003  0.1099674E+03  0.7546771E-02  0.1260630E+00
         21   -1    0    0  504  501  0.00000000000E+00  0.00000000000E+00  0.44560158709E+02  0.44560158709E+02  0.00000000000E+00 0. -1.
         21   -1    0    0  503  502 -0.00000000000E+00 -0.00000000000E+00 -0.30174600953E+03  0.30174600953E+03  0.00000000000E+00 0. -1.
         21    1    1    2  503  501 -0.10900532722E+03 -0.14514354405E+02 -0.73665585762E+02  0.13236104552E+03  0.00000000000E+00 0. -1.
         21    1    1    2  504  502  0.10900532722E+03  0.14514354405E+02 -0.18352026506E+03  0.21394512272E+03  0.00000000000E+00 0. -1.
<mgrwt>
<rscale>  2 0.10996739E+03</rscale>
<asrwt>0</asrwt>
<pdfrwt beam="1">  1       21 0.68554089E-02 0.10996739E+03</pdfrwt>
<pdfrwt beam="2">  1       21 0.46422464E-01 0.10996739E+03</pdfrwt>
<totfact> 0.70085960E+05</totfact>
</mgrwt>
</event>
<event>
 4    1  0.5694171E+003  0.1057206E+03  0.7546771E-02  0.1268706E+00
         21   -1    0    0  502  501  0.00000000000E+00  0.00000000000E+00  0.10776775534E+03  0.10776775534E+03  0.00000000000E+00 0. -1.
         21   -1    0    0  504  502 -0.00000000000E+00 -0.00000000000E+00 -0.10500502250E+03  0.10500502250E+03  0.00000000000E+00 0. -1.
         21    1    1    2  503  501  0.32045451695E+01 -0.10567201396E+03 -0.10422676196E+02  0.10623312018E+03  0.00000000000E+00 0. -1.
         21    1    1    2  504  503 -0.32045451695E+01  0.10567201396E+03  0.13185409039E+02  0.10653965766E+03  0.00000000000E+00 0. -1.
<mgrwt>
<rscale>  2 0.10572059E+03</rscale>
<asrwt>0</asrwt>
<pdfrwt beam="1">  1       21 0.16579655E-01 0.10572059E+03</pdfrwt>
<pdfrwt beam="2">  1       21 0.16154619E-01 0.10572059E+03</pdfrwt>
<totfact> 0.11156253E+06</totfact>
</mgrwt>
</event>
<event>
 4    1  0.5694171E+003  0.1180706E+03  0.7546771E-02  0.1246314E+00
         21   -1    0    0  502  501  0.00000000000E+00  0.00000000000E+00  0.28291194638E+03  0.28291194638E+03  0.00000000000E+00 0. -1.
         21   -1    0    0  503  502 -0.00000000000E+00 -0.00000000000E+00 -0.38073588271E+03  0.38073588271E+03  0.00000000000E+00 0.  1.
         21    1    1    2  503  504 -0.10553318854E+03  0.52947286675E+02 -0.35851948460E+03  0.37746111043E+03  0.00000000000E+00 0.  1.
         21    1    1    2  504  501  0.10553318854E+03 -0.52947286675E+02  0.26069554826E+03  0.28618671866E+03  0.00000000000E+00 0. -1.
<mgrwt>
<rscale>  2 0.11807061E+03</rscale>
<asrwt>0</asrwt>
<pdfrwt beam="1">  1       21 0.43524915E-01 0.11807061E+03</pdfrwt>
<pdfrwt beam="2">  1       21 0.58574751E-01 0.11807061E+03</pdfrwt>
<totfact> 0.14613524E+04</totfact>
</mgrwt>
</event>
<event>
 4    1  0.5694171E+003  0.1049220E+03  0.7546771E-02  0.1270273E+00
         21   -1    0    0  503  501  0.00000000000E+00  0.00000000000E+00  0.73159223009E+03  0.73159223009E+03  0.00000000000E+00 0. -1.
         21   -1    0    0  504  502 -0.00000000000E+00 -0.00000000000E+00 -0.48460481623E+03  0.48460481623E+03  0.00000000000E+00 0.  1.
         21    1    1    2  503  502 -0.33876017582E+02  0.99302792039E+02 -0.47508931532E+03  0.48653724072E+03  0.00000000000E+00 0.  1.
         21    1    1    2  504  501  0.33876017582E+02 -0.99302792039E+02  0.72207672918E+03  0.72965980560E+03  0.00000000000E+00 0. -1.
<mgrwt>
<rscale>  2 0.10492201E+03</rscale>
<asrwt>0</asrwt>
<pdfrwt beam="1">  1       21 0.11255265E+00 0.10492201E+03</pdfrwt>
<pdfrwt beam="2">  1       21 0.74554587E-01 0.10492201E+03</pdfrwt>
<totfact> 0.11141796E+03</totfact>
</mgrwt>
</event>
<event>
 4    1  0.5694171E+003  0.1032774E+03  0.7546771E-02  0.1273551E+00
         21   -1    0    0  502  501  0.00000000000E+00  0.00000000000E+00  0.38636160458E+03  0.38636160458E+03  0.00000000000E+00 0. -1.
         21   -1    0    0  504  502 -0.00000000000E+00 -0.00000000000E+00 -0.96575905984E+02  0.96575905984E+02  0.00000000000E+00 0.  1.
         21    1    1    2  503  501 -0.39945876195E+02 -0.95239437195E+02  0.34895089207E+03  0.36391338049E+03  0.00000000000E+00 0. -1.
         21    1    1    2  504  503  0.39945876195E+02  0.95239437195E+02 -0.59165193472E+02  0.11902413008E+03  0.00000000000E+00 0.  1.
<mgrwt>
<rscale>  2 0.10327741E+03</rscale>
<asrwt>0</asrwt>
<pdfrwt beam="1">  1       21 0.59440246E-01 0.10327741E+03</pdfrwt>
<pdfrwt beam="2">  1       21 0.14857832E-01 0.10327741E+03</pdfrwt>
<totfact> 0.10932108E+05</totfact>
</mgrwt>
</event>
<event>
 4    1  0.5694171E+003  0.1039866E+03  0.7546771E-02  0.1272129E+00
         21   -1    0    0  503  501  0.00000000000E+00  0.00000000000E+00  0.23039222077E+03  0.23039222077E+03  0.00000000000E+00 0. -1.
         21   -1    0    0  501  502 -0.00000000000E+00 -0.00000000000E+00 -0.37171921688E+03  0.37171921688E+03  0.00000000000E+00 0. -1.
         21    1    1    2  503  504 -0.81218045951E+02  0.64937158186E+02  0.21074523317E+03  0.23500374211E+03  0.00000000000E+00 0. -1.
         21    1    1    2  504  502  0.81218045951E+02 -0.64937158186E+02 -0.35207222927E+03  0.36710769554E+03  0.00000000000E+00 0. -1.
<mgrwt>
<rscale>  2 0.10398656E+03</rscale>
<asrwt>0</asrwt>
<pdfrwt beam="1">  1       21 0.35444957E-01 0.10398656E+03</pdfrwt>
<pdfrwt beam="2">  1       21 0.57187571E-01 0.10398656E+03</pdfrwt>
<totfact> 0.23396903E+04</totfact>
</mgrwt>
</event>
<event>
 4    1  0.5694171E+003  0.1155427E+03  0.7546771E-02  0.1250637E+00
         21   -1    0    0  502  501  0.00000000000E+00  0.00000000000E+00  0.18698776686E+03  0.18698776686E+03  0.00000000000E+00 0.  1.
         21   -1    0    0  503  502 -0.00000000000E+00 -0.00000000000E+00 -0.78958172295E+02  0.78958172295E+02  0.00000000000E+00 0. -1.
         21    1    1    2  503  504  0.95314897982E+02 -0.65308470153E+02  0.12862301582E+02  0.11625646155E+03  0.00000000000E+00 0. -1.
         21    1    1    2  504  501 -0.95314897982E+02  0.65308470153E+02  0.95167292986E+02  0.14968947760E+03  0.00000000000E+00 0.  1.
<mgrwt>
<rscale>  2 0.11554275E+03</rscale>
<asrwt>0</asrwt>
<pdfrwt beam="1">  1       21 0.28767349E-01 0.11554275E+03</pdfrwt>
<pdfrwt beam="2">  1       21 0.12147411E-01 0.11554275E+03</pdfrwt>
<totfact> 0.66730366E+05</totfact>
</mgrwt>
</event>
<event>
 4    1  0.5694171E+003  0.1012064E+03  0.7546771E-02  0.1277779E+00
         21   -1    0    0  503  501  0.00000000000E+00  0.00000000000E+00  0.68274490344E+02  0.68274490344E+02  0.00000000000E+00 0.  1.
         21   -1    0    0  504  502 -0.00000000000E+00 -0.00000000000E+00 -0.20436593481E+03  0.20436593481E+03  0.00000000000E+00 0.  1.
         21    1    1    2  503  502 -0.14540809541E+02  0.10015639837E+03  0.22498247444E+01  0.10123142293E+03  0.00000000000E+00 0.  1.
         21    1    1    2  504  501  0.14540809541E+02 -0.10015639837E+03 -0.13834126921E+03  0.17140900223E+03  0.00000000000E+00 0.  1.
<mgrwt>
<rscale>  2 0.10120642E+03</rscale>
<asrwt>0</asrwt>
<pdfrwt beam="1">  1       21 0.10503768E-01 0.10120642E+03</pdfrwt>
<pdfrwt beam="2">  1       21 0.31440913E-01 0.10120642E+03</pdfrwt>
<totfact> 0.72589453E+05</totfact>
</mgrwt>
</event>
<event>
 4    1  0.5694171E+003  0.1069946E+03  0.7546771E-02  0.1266239E+00
         21   -1    0    0  504  501  0.00000000000E+00  0.00000000000E+00  0.88802194284E+03  0.88802194284E+03  0.00000000000E+00 0.  1.
         21   -1    0    0  503  502 -0.00000000000E+00 -0.00000000000E+00 -0.29658665667E+02  0.29658665667E+02  0.00000000000E+00 0. -1.
         21    1    1    2  503  501 -0.42103588075E+02 -0.98362268642E+02  0.84183422651E+02  0.13614219284E+03  0.00000000000E+00 0. -1.
         21    1    1    2  504  502  0.42103588075E+02  0.98362268642E+02  0.77417985452E+03  0.78153841567E+03  0.00000000000E+00 0.  1.
<mgrwt>
<rscale>  2 0.10699462E+03</rscale>
<asrwt>0</asrwt>
<pdfrwt beam="1">  1       21 0.13661874E+00 0.10699462E+03</pdfrwt>
<pdfrwt beam="2">  1       21 0.45628723E-02 0.10699462E+03</pdfrwt>
<totfact> 0.12450265E+05</totfact>
</mgrwt>
</event>
<event>
 4    1  0.5694171E+003  0.1008215E+03  0.7546771E-02  0.1278578E+00
         21   -1    0    0  504  501  0.00000000000E+00  0.00000000000E+00  0.10305517043E+03  0.10305517043E+03  0.00000000000E+00 0. -1.
         21   -1    0    0  503  502 -0.00000000000E+00 -0.00000000000E+00 -0.47111869116E+03  0.47111869116E+03  0.00000000000E+00 0.  1.
         21    1    1    2  503  501 -0.99973881333E+02 -0.13046363919E+02 -0.43930254099E+03  0.45072353730E+03  0.00000000000E+00 0.  1.
         21    1    1    2  504  502  0.99973881333E+02  0.13046363919E+02  0.71239020258E+02  0.12345032429E+03  0.00000000000E+00 0. -1.
<mgrwt>
<rscale>  2 0.10082155E+03</rscale>
<asrwt>0</asrwt>
<pdfrwt beam="1">  1       21 0.15854642E-01 0.10082155E+03</pdfrwt>
<pdfrwt beam="2">  1       21 0.72479797E-01 0.10082155E+03</pdfrwt>
<totfact> 0.63709365E+04</totfact>
</mgrwt>
</event>
<event>
 4    1  0.5694171E+003  0.1514618E+03  0.7546771E-02  0.1198688E+00
         21   -1    0    0  503  501  0.00000000000E+00  0.00000000000E+00  0.64769147815E+03  0.64769147815E+03  0.00000000000E+00 0. -1.
         21   -1    0    0  504  502 -0.00000000000E+00 -0.00000000000E+00 -0.36638002790E+02  0.36638002790E+02  0.00000000000E+00 0. -1.
         21    1    1    2  503  502 -0.14881672199E+03  0.28182843890E+02  0.24311836808E+03  0.28643887712E+03  0.00000000000E+00 0. -1.
         21    1    1    2  504  501  0.14881672199E+03 -0.28182843890E+02  0.36793510729E+03  0.39789060382E+03  0.00000000000E+00 0. -1.
<mgrwt>
<rscale>  2 0.15146184E+03</rscale>
<asrwt>0</asrwt>
<pdfrwt beam="1">  1       21 0.99644834E-01 0.15146184E+03</pdfrwt>
<pdfrwt beam="2">  1       21 0.56366163E-02 0.15146184E+03</pdfrwt>
<totfact> 0.18418741E+05</totfact>
</mgrwt>
</event>
<event>
 4    1  0.5694171E+003  0.1196753E+03  0.7546771E-02  0.1243634E+00
         21   -1    0    0  503  501  0.00000000000E+00  0.00000000000E+00  0.26365771228E+02  0.26365771228E+02  0.00000000000E+00 0.  1.
         21   -1    0    0  504  502 -0.00000000000E+00 -0.00000000000E+00 -0.88285292173E+03  0.88285292173E+03  0.00000000000E+00 0.  1.
         21    1    1    2  503  502 -0.80196851412E+02  0.88829294432E+02 -0.71021479802E+03  0.72022721266E+03  0.00000000000E+00 0.  1.
         21    1    1    2  504  501  0.80196851412E+02 -0.88829294432E+02 -0.14627235248E+03  0.18899148030E+03  0.00000000000E+00 0.  1.
<mgrwt>
<rscale>  2 0.11967530E+03</rscale>
<asrwt>0</asrwt>
<pdfrwt beam="1">  1       21 0.40562728E-02 0.11967530E+03</pdfrwt>
<pdfrwt beam="2">  1       21 0.13582352E+00 0.11967530E+03</pdfrwt>
<totfact> 0.15264388E+05</totfact>
</mgrwt>
</event>
<event>
 4    1  0.5694171E+003  0.1402196E+03  0.7546771E-02  0.1213034E+00
         21   -1    0    0  502  501  0.00000000000E+00  0.00000000000E+00  0.18095567553E+03  0.18095567553E+03  0.00000000000E+00 0. -1.
         21   -1    0    0  503  502 -0.00000000000E+00 -0.00000000000E+00 -0.12628196072E+03  0.12628196072E+03  0.00000000000E+00 0. -1.
         21    1    1    2  503  504 -0.29987395273E+02 -0.13697556046E+03 -0.30058329477E+02  0.14340519938E+03  0.00000000000E+00 0. -1.
         21    1    1    2  504  501  0.29987395273E+02  0.13697556046E+03  0.84732044287E+02  0.16383243686E+03  0.00000000000E+00 0. -1.
<mgrwt>
<rscale>  2 0.14021964E+03</rscale>
<asrwt>0</asrwt>
<pdfrwt beam="1">  1       21 0.27839335E-01 0.14021964E+03</pdfrwt>
<pdfrwt beam="2">  1       21 0.19427994E-01 0.14021964E+03</pdfrwt>
<totfact> 0.30353570E+05</totfact>
</mgrwt>
</event>
<event>
 4    1  0.5694171E+003  0.1092723E+03  0.7546771E-02  0.1261924E+00
         21   -1    0    0  504  501  0.00000000000E+00  0.00000000000E+00  0.52027378045E+02  0.52027378045E+02  0.00000000000E+00 0. -1.
         21   -1    0    0  503  502 -0.00000000000E+00 -0.00000000000E+00 -0.26573137559E+03  0.26573137559E+03  0.00000000000E+00 0. -1.
         21    1    1    2  503  501 -0.35246746555E+01  0.10921539396E+03 -0.16551605967E+03  0.19833303209E+03  0.00000000000E+00 0. -1.
         21    1    1    2  504  502  0.35246746555E+01 -0.10921539396E+03 -0.48187937871E+02  0.11942572154E+03  0.00000000000E+00 0. -1.
<mgrwt>
<rscale>  2 0.10927225E+03</rscale>
<asrwt>0</asrwt>
<pdfrwt beam="1">  1       21 0.80042120E-02 0.10927225E+03</pdfrwt>
<pdfrwt beam="2">  1       21 0.40881750E-01 0.10927225E+03</pdfrwt>
<totfact> 0.69466825E+05</totfact>
</mgrwt>
</event>
<event>
 4    1  0.5694171E+003  0.1401585E+03  0.7546771E-02  0.1213116E+00
         21   -1    0    0  504  501  0.00000000000E+00  0.00000000000E+00  0.85493823604E+03  0.85493823604E+03  0.00000000000E+00 0. -1.
         21   -1    0    0  501  502 -0.00000000000E+00 -0.00000000000E+00 -0.14563744003E+03  0.14563744003E+03  0.00000000000E+00 0.  1.
         21    1    1    2  503  502  0.11528561100E+03 -0.79709694710E+02 -0.10447854190E+03  0.17481468260E+03  0.00000000000E+00 0.  1.
         21    1    1    2  504  503 -0.11528561100E+03  0.79709694710E+02  0.81377933791E+03  0.82576099348E+03  0.00000000000E+00 0. -1.
<mgrwt>
<rscale>  2 0.14015851E+03</rscale>
<asrwt>0</asrwt>
<pdfrwt beam="1">  1       21 0.13152896E+00 0.14015851E+03</pdfrwt>
<pdfrwt beam="2">  1       21 0.22405761E-01 0.14015851E+03</pdfrwt>
<totfact> 0.81761573E+03</totfact>
</mgrwt>
</event>
<event>
 4    1  0.5694171E+003  0.1094237E+03  0.7546771E-02  0.1261641E+00
         21   -1    0    0  502  501  0.00000000000E+00  0.00000000000E+00  0.33785586965E+02  0.33785586965E+02  0.00000000000E+00 0. -1.
         21   -1    0    0  504  502 -0.00000000000E+00 -0.00000000000E+00 -0.67363589494E+03  0.67363589494E+03  0.00000000000E+00 0. -1.
         21    1    1    2  503  501  0.57852313035E+02  0.92879798665E+02 -0.76428609154E+02  0.13347239198E+03  0.00000000000E+00 0. -1.
         21    1    1    2  504  503 -0.57852313035E+02 -0.92879798665E+02 -0.56342169882E+03  0.57394908992E+03  0.00000000000E+00 0. -1.
<mgrwt>
<rscale>  2 0.10942370E+03</rscale>
<asrwt>0</asrwt>
<pdfrwt beam="1">  1       21 0.51977829E-02 0.10942370E+03</pdfrwt>
<pdfrwt beam="2">  1       21 0.10363629E+00 0.10942370E+03</pdfrwt>
<totfact> 0.19522622E+05</totfact>
</mgrwt>
</event>
<event>
 4    1  0.5694171E+003  0.1136059E+03  0.7546771E-02  0.1254034E+00
         21   -1    0    0  504  501  0.00000000000E+00  0.00000000000E+00  0.16820291800E+04  0.16820291800E+04  0.00000000000E+00 0.  1.
         21   -1    0    0  501  502 -0.00000000000E+00 -0.00000000000E+00 -0.12306582708E+03  0.12306582708E+03  0.00000000000E+00 0. -1.
         21    1    1    2  503  502  0.78674498375E+02 -0.81955044710E+02 -0.94476462276E+02  0.14775692191E+03  0.00000000000E+00 0. -1.
         21    1    1    2  504  503 -0.78674498375E+02  0.81955044710E+02  0.16534398152E+04  0.16573380852E+04  0.00000000000E+00 0.  1.
<mgrwt>
<rscale>  2 0.11360592E+03</rscale>
<asrwt>0</asrwt>
<pdfrwt beam="1">  1       21 0.25877370E+00 0.11360592E+03</pdfrwt>
<pdfrwt beam="2">  1       21 0.18933205E-01 0.11360592E+03</pdfrwt>
<totfact> 0.16994423E+03</totfact>
</mgrwt>
</event>
<event>
 4    1  0.5694171E+003  0.1497906E+03  0.7546771E-02  0.1200731E+00
         21   -1    0    0  503  501  0.00000000000E+00  0.00000000000E+00  0.20332419443E+03  0.20332419443E+03  0.00000000000E+00 0. -1.
         21   -1    0    0  504  502 -0.00000000000E+00 -0.00000000000E+00 -0.11267317236E+03  0.11267317236E+03  0.00000000000E+00 0. -1.
         21    1    1    2  503  502  0.45248905641E+02  0.14279272649E+03  0.68003228649E+02  0.16450430179E+03  0.00000000000E+00 0. -1.
         21    1    1    2  504  501 -0.45248905641E+02 -0.14279272649E+03  0.22647793423E+02  0.15149306501E+03  0.00000000000E+00 0. -1.
<mgrwt>
<rscale>  2 0.14979061E+03</rscale>
<asrwt>0</asrwt>
<pdfrwt beam="1">  1       21 0.31280645E-01 0.14979061E+03</pdfrwt>
<pdfrwt beam="2">  1       21 0.17334334E-01 0.14979061E+03</pdfrwt>
<totfact> 0.29841041E+05</totfact>
</mgrwt>
</event>
<event>
 4    1  0.5694171E+003  0.1062077E+03  0.7546771E-02  0.1267758E+00
         21   -1    0    0  503  501  0.00000000000E+00  0.00000000000E+00  0.11739302680E+03  0.11739302680E+03  0.00000000000E+00 0.  1.
         21   -1    0    0  504  502 -0.00000000000E+00 -0.00000000000E+00 -0.11450054648E+03  0.11450054648E+03  0.00000000000E+00 0.  1.
         21    1    1    2  503  502  0.77232288875E+02  0.72905809955E+02 -0.45049119769E+02  0.11536683562E+03  0.00000000000E+00 0.  1.
         21    1    1    2  504  501 -0.77232288875E+02 -0.72905809955E+02  0.47941600092E+02  0.11652673766E+03  0.00000000000E+00 0.  1.
<mgrwt>
<rscale>  2 0.10620774E+03</rscale>
<asrwt>0</asrwt>
<pdfrwt beam="1">  1       21 0.18060466E-01 0.10620774E+03</pdfrwt>
<pdfrwt beam="2">  1       21 0.17615469E-01 0.10620774E+03</pdfrwt>
<totfact> 0.81668467E+05</totfact>
</mgrwt>
</event>
<event>
 4    1  0.5694171E+003  0.1009772E+03  0.7546771E-02  0.1278254E+00
         21   -1    0    0  503  501  0.00000000000E+00  0.00000000000E+00  0.16720096586E+02  0.16720096586E+02  0.00000000000E+00 0. -1.
         21   -1    0    0  504  502 -0.00000000000E+00 -0.00000000000E+00 -0.28495504717E+04  0.28495504717E+04  0.00000000000E+00 0.  1.
         21    1    1    2  503  502  0.10080234292E+03 -0.59395800470E+01 -0.26869777943E+04  0.26888744965E+04  0.00000000000E+00 0.  1.
         21    1    1    2  504  501 -0.10080234292E+03  0.59395800470E+01 -0.14585258081E+03  0.17739607177E+03  0.00000000000E+00 0. -1.
<mgrwt>
<rscale>  2 0.10097718E+03</rscale>
<asrwt>0</asrwt>
<pdfrwt beam="1">  1       21 0.25723236E-02 0.10097718E+03</pdfrwt>
<pdfrwt beam="2">  1       21 0.43839220E+00 0.10097718E+03</pdfrwt>
<totfact> 0.48270781E+03</totfact>
</mgrwt>
</event>
<event>
 4    1  0.5694171E+003  0.1432434E+03  0.7546771E-02  0.1209030E+00
         21   -1    0    0  503  501  0.00000000000E+00  0.00000000000E+00  0.33328669508E+03  0.33328669508E+03  0.00000000000E+00 0.  1.
         21   -1    0    0  504  502 -0.00000000000E+00 -0.00000000000E+00 -0.63682894861E+02  0.63682894861E+02  0.00000000000E+00 0.  1.
         21    1    1    2  503  502 -0.42655473437E+02 -0.13674498157E+03  0.17100149581E+03  0.22306992394E+03  0.00000000000E+00 0.  1.
         21    1    1    2  504  501  0.42655473437E+02  0.13674498157E+03  0.98602304412E+02  0.17389966600E+03  0.00000000000E+00 0.  1.
<mgrwt>
<rscale>  2 0.14324343E+03</rscale>
<asrwt>0</asrwt>
<pdfrwt beam="1">  1       21 0.51274875E-01 0.14324343E+03</pdfrwt>
<pdfrwt beam="2">  1       21 0.97973686E-02 0.14324343E+03</pdfrwt>
<totfact> 0.30748373E+05</totfact>
</mgrwt>
</event>
<event>
 4    1  0.5694171E+003  0.1114116E+03  0.7546771E-02  0.1257978E+00
         21   -1    0    0  504  501  0.00000000000E+00  0.00000000000E+00  0.91243421040E+02  0.91243421040E+02  0.00000000000E+00 0. -1.
         21   -1    0    0  503  502 -0.00000000000E+00 -0.00000000000E+00 -0.25053736994E+03  0.25053736994E+03  0.00000000000E+00 0.  1.
         21    1    1    2  503  501  0.10196655156E+03 -0.44892716845E+02 -0.19517404308E+03  0.22473415574E+03  0.00000000000E+00 0.  1.
         21    1    1    2  504  502 -0.10196655156E+03  0.44892716845E+02  0.35880094183E+02  0.11704663524E+03  0.00000000000E+00 0. -1.
<mgrwt>
<rscale>  2 0.11141155E+03</rscale>
<asrwt>0</asrwt>
<pdfrwt beam="1">  1       21 0.14037450E-01 0.11141155E+03</pdfrwt>
<pdfrwt beam="2">  1       21 0.38544210E-01 0.11141155E+03</pdfrwt>
<totfact> 0.29215771E+05</totfact>
</mgrwt>
</event>
<event>
 4    1  0.5694171E+003  0.1053549E+03  0.7546771E-02  0.1269422E+00
         21   -1    0    0  502  501  0.00000000000E+00  0.00000000000E+00  0.15922480106E+04  0.15922480106E+04  0.00000000000E+00 0.  1.
         21   -1    0    0  503  502 -0.00000000000E+00 -0.00000000000E+00 -0.52119205888E+02  0.52119205888E+02  0.00000000000E+00 0. -1.
         21    1    1    2  503  504  0.98988027855E+02 -0.36069696925E+02  0.48380982468E+01  0.10546591814E+03  0.00000000000E+00 0. -1.
         21    1    1    2  504  501 -0.98988027855E+02  0.36069696925E+02  0.15352907064E+04  0.15389012983E+04  0.00000000000E+00 0.  1.
<mgrwt>
<rscale>  2 0.10535489E+03</rscale>
<asrwt>0</asrwt>
<pdfrwt beam="1">  1       21 0.24496120E+00 0.10535489E+03</pdfrwt>
<pdfrwt beam="2">  1       21 0.80183406E-02 0.10535489E+03</pdfrwt>
<totfact> 0.94497162E+03</totfact>
</mgrwt>
</event>
<event>
 4    1  0.5694171E+003  0.1024125E+03  0.7546771E-02  0.1275303E+00
         21   -1    0    0  503  501  0.00000000000E+00  0.00000000000E+00  0.13613680255E+03  0.13613680255E+03  0.00000000000E+00 0. -1.
         21   -1    0    0  501  502 -0.00000000000E+00 -0.00000000000E+00 -0.82782287548E+02  0.82782287548E+02  0.00000000000E+00 0. -1.
         21    1    1    2  503  504  0.97882248497E+02 -0.30122927965E+02  0.55499730325E+02  0.11648409946E+03  0.00000000000E+00 0. -1.
         21    1    1    2  504  502 -0.97882248497E+02  0.30122927965E+02 -0.21452153180E+01  0.10243499065E+03  0.00000000000E+00 0. -1.
<mgrwt>
<rscale>  2 0.10241253E+03</rscale>
<asrwt>0</asrwt>
<pdfrwt beam="1">  1       21 0.20944124E-01 0.10241253E+03</pdfrwt>
<pdfrwt beam="2">  1       21 0.12735737E-01 0.10241253E+03</pdfrwt>
<totfact> 0.11127347E+06</totfact>
</mgrwt>
</event>
<event>
 4    1  0.5694171E+003  0.1093928E+03  0.7546771E-02  0.1261698E+00
         21   -1    0    0  503  501  0.00000000000E+00  0.00000000000E+00  0.11281298701E+03  0.11281298701E+03  0.00000000000E+00 0.  1.
         21   -1    0    0  501  502 -0.00000000000E+00 -0.00000000000E+00 -0.16883759478E+03  0.16883759478E+03  0.00000000000E+00 0. -1.
         21    1    1    2  503  504 -0.10883035242E+03  0.11078707004E+02  0.57847927306E+02  0.12374637793E+03  0.00000000000E+00 0.  1.
         21    1    1    2  504  502  0.10883035242E+03 -0.11078707004E+02 -0.11387253508E+03  0.15790420387E+03  0.00000000000E+00 0. -1.
<mgrwt>
<rscale>  2 0.10939279E+03</rscale>
<asrwt>0</asrwt>
<pdfrwt beam="1">  1       21 0.17355844E-01 0.10939279E+03</pdfrwt>
<pdfrwt beam="2">  1       21 0.25975014E-01 0.10939279E+03</pdfrwt>
<totfact> 0.42768207E+05</totfact>
</mgrwt>
</event>
<event>
 4    1  0.5694171E+003  0.1073180E+03  0.7546771E-02  0.1265619E+00
         21   -1    0    0  502  501  0.00000000000E+00  0.00000000000E+00  0.46603078612E+03  0.46603078612E+03  0.00000000000E+00 0.  1.
         21   -1    0    0  504  502 -0.00000000000E+00 -0.00000000000E+00 -0.21724576209E+03  0.21724576209E+03  0.00000000000E+00 0.  1.
         21    1    1    2  503  501  0.10710365895E+03  0.67800877490E+01  0.44601235344E+03  0.45874195663E+03  0.00000000000E+00 0.  1.
         21    1    1    2  504  503 -0.10710365895E+03 -0.67800877490E+01 -0.19722732941E+03  0.22453459159E+03  0.00000000000E+00 0.  1.
<mgrwt>
<rscale>  2 0.10731805E+03</rscale>
<asrwt>0</asrwt>
<pdfrwt beam="1">  1       21 0.71697044E-01 0.10731805E+03</pdfrwt>
<pdfrwt beam="2">  1       21 0.33422425E-01 0.10731805E+03</pdfrwt>
<totfact> 0.16140665E+04</totfact>
</mgrwt>
</event>
<event>
 4    1  0.5694171E+003  0.1162012E+03  0.7546771E-02  0.1249499E+00
         21   -1    0    0  503  501  0.00000000000E+00  0.00000000000E+00  0.68424081707E+02  0.68424081707E+02  0.00000000000E+00 0. -1.
         21   -1    0    0  501  502 -0.00000000000E+00 -0.00000000000E+00 -0.21457229143E+03  0.21457229143E+03  0.00000000000E+00 0. -1.
         21    1    1    2  503  504 -0.61705720760E+02  0.98463832970E+02 -0.32973456915E+02  0.12078895330E+03  0.00000000000E+00 0. -1.
         21    1    1    2  504  502  0.61705720760E+02 -0.98463832970E+02 -0.11317475280E+03  0.16220741984E+03  0.00000000000E+00 0. -1.
<mgrwt>
<rscale>  2 0.11620122E+03</rscale>
<asrwt>0</asrwt>
<pdfrwt beam="1">  1       21 0.10526782E-01 0.11620122E+03</pdfrwt>
<pdfrwt beam="2">  1       21 0.33011121E-01 0.11620122E+03</pdfrwt>
<totfact> 0.65830354E+05</totfact>
</mgrwt>
</event>
<event>
 4    1  0.5694171E+003  0.1102092E+03  0.7546771E-02  0.1260183E+00
         21   -1    0    0  504  501  0.00000000000E+00  0.00000000000E+00  0.69690997351E+02  0.69690997351E+02  0.00000000000E+00 0. -1.
         21   -1    0    0  503  502 -0.00000000000E+00 -0.00000000000E+00 -0.36991514809E+03  0.36991514809E+03  0.00000000000E+00 0.  1.
         21    1    1    2  503  501  0.10898580178E+03  0.16375939480E+02  0.97336022970E+01  0.11063823660E+03  0.00000000000E+00 0. -1.
         21    1    1    2  504  502 -0.10898580178E+03 -0.16375939480E+02 -0.30995775304E+03  0.32896790885E+03  0.00000000000E+00 0.  1.
<mgrwt>
<rscale>  2 0.11020924E+03</rscale>
<asrwt>0</asrwt>
<pdfrwt beam="1">  1       21 0.10721692E-01 0.11020924E+03</pdfrwt>
<pdfrwt beam="2">  1       21 0.56910023E-01 0.11020924E+03</pdfrwt>
<totfact> 0.21285613E+05</totfact>
</mgrwt>
</event>
<event>
 4    1  0.5694171E+003  0.1258055E+03  0.7546771E-02  0.1233816E+00
         21   -1    0    0  502  501  0.00000000000E+00  0.00000000000E+00  0.31764932804E+03  0.31764932804E+03  0.00000000000E+00 0. -1.
         21   -1    0    0  503  502 -0.00000000000E+00 -0.00000000000E+00 -0.10633442245E+04  0.10633442245E+04  0.00000000000E+00 0.  1.
         21    1    1    2  503  504 -0.11907386236E+03 -0.40600997610E+02 -0.10469727267E+04  0.10545041091E+04  0.00000000000E+00 0.  1.
         21    1    1    2  504  501  0.11907386236E+03  0.40600997610E+02  0.30127783022E+03  0.32648944345E+03  0.00000000000E+00 0. -1.
<mgrwt>
<rscale>  2 0.12580551E+03</rscale>
<asrwt>0</asrwt>
<pdfrwt beam="1">  1       21 0.48869128E-01 0.12580551E+03</pdfrwt>
<pdfrwt beam="2">  1       21 0.16359142E+00 0.12580551E+03</pdfrwt>
<totfact> 0.10306835E+03</totfact>
</mgrwt>
</event>
<event>
 4    1  0.5694171E+003  0.1046335E+03  0.7546771E-02  0.1270843E+00
         21   -1    0    0  503  501  0.00000000000E+00  0.00000000000E+00  0.23305638585E+03  0.23305638585E+03  0.00000000000E+00 0. -1.
         21   -1    0    0  501  502 -0.00000000000E+00 -0.00000000000E+00 -0.24731492085E+03  0.24731492085E+03  0.00000000000E+00 0.  1.
         21    1    1    2  503  504 -0.92830497784E+02 -0.48276986207E+02  0.20904502578E+03  0.23376909873E+03  0.00000000000E+00 0. -1.
         21    1    1    2  504  502  0.92830497784E+02  0.48276986207E+02 -0.22330356078E+03  0.24660220797E+03  0.00000000000E+00 0.  1.
<mgrwt>
<rscale>  2 0.10463350E+03</rscale>
<asrwt>0</asrwt>
<pdfrwt beam="1">  1       21 0.35854829E-01 0.10463350E+03</pdfrwt>
<pdfrwt beam="2">  1       21 0.38048449E-01 0.10463350E+03</pdfrwt>
<totfact> 0.52314886E+04</totfact>
</mgrwt>
</event>
<event>
 4    1  0.5694171E+003  0.1341893E+03  0.7546771E-02  0.1221369E+00
         21   -1    0    0  504  501  0.00000000000E+00  0.00000000000E+00  0.18481844454E+03  0.18481844454E+03  0.00000000000E+00 0. -1.
         21   -1    0    0  503  502 -0.00000000000E+00 -0.00000000000E+00 -0.10209847069E+03  0.10209847069E+03  0.00000000000E+00 0.  1.
         21    1    1    2  503  501  0.67029158894E+02 -0.11624908089E+03  0.72038199674E+02  0.15230318172E+03  0.00000000000E+00 0.  1.
         21    1    1    2  504  502 -0.67029158894E+02  0.11624908089E+03  0.10681774172E+02  0.13461373351E+03  0.00000000000E+00 0. -1.
<mgrwt>
<rscale>  2 0.13418926E+03</rscale>
<asrwt>0</asrwt>
<pdfrwt beam="1">  1       21 0.28433607E-01 0.13418926E+03</pdfrwt>
<pdfrwt beam="2">  1       21 0.15707457E-01 0.13418926E+03</pdfrwt>
<totfact> 0.43038680E+05</totfact>
</mgrwt>
</event>
<event>
 4    1  0.5694171E+003  0.1835817E+03  0.7546771E-02  0.1164381E+00
         21   -1    0    0  504  501  0.00000000000E+00  0.00000000000E+00  0.68742777951E+02  0.68742777951E+02  0.00000000000E+00 0. -1.
         21   -1    0    0  501  502 -0.00000000000E+00 -0.00000000000E+00 -0.60958685454E+03  0.60958685454E+03  0.00000000000E+00 0.  1.
         21    1    1    2  503  502 -0.14937096126E+03 -0.10672652357E+03 -0.42047738997E+03  0.45880657186E+03  0.00000000000E+00 0.  1.
         21    1    1    2  504  503  0.14937096126E+03  0.10672652357E+03 -0.12036668662E+03  0.21952306064E+03  0.00000000000E+00 0. -1.
<mgrwt>
<rscale>  2 0.18358168E+03</rscale>
<asrwt>0</asrwt>
<pdfrwt beam="1">  1       21 0.10575812E-01 0.18358168E+03</pdfrwt>
<pdfrwt beam="2">  1       21 0.93782595E-01 0.18358168E+03</pdfrwt>
<totfact> 0.70446811E+04</totfact>
</mgrwt>
</event>
<event>
 4    1  0.5694171E+003  0.1105188E+03  0.7546771E-02  0.1259612E+00
         21   -1    0    0  504  501  0.00000000000E+00  0.00000000000E+00  0.29170118979E+03  0.29170118979E+03  0.00000000000E+00 0. -1.
         21   -1    0    0  503  502 -0.00000000000E+00 -0.00000000000E+00 -0.64086942286E+02  0.64086942286E+02  0.00000000000E+00 0. -1.
         21    1    1    2  503  501 -0.47004804301E+02 -0.10002479613E+03  0.21854150054E+03  0.24489752740E+03  0.00000000000E+00 0. -1.
         21    1    1    2  504  502  0.47004804301E+02  0.10002479613E+03  0.90727469609E+01  0.11089060467E+03  0.00000000000E+00 0. -1.
<mgrwt>
<rscale>  2 0.11051883E+03</rscale>
<asrwt>0</asrwt>
<pdfrwt beam="1">  1       21 0.44877105E-01 0.11051883E+03</pdfrwt>
<pdfrwt beam="2">  1       21 0.98595298E-02 0.11051883E+03</pdfrwt>
<totfact> 0.40168846E+05</totfact>
</mgrwt>
</event>
<event>
 4    1  0.5694171E+003  0.1438395E+03  0.7546771E-02  0.1208254E+00
         21   -1    0    0  503  501  0.00000000000E+00  0.00000000000E+00  0.91180330761E+03  0.91180330761E+03  0.00000000000E+00 0.  1.
         21   -1    0    0  501  502 -0.00000000000E+00 -0.00000000000E+00 -0.45087925060E+03  0.45087925060E+03  0.00000000000E+00 0. -1.
         21    1    1    2  503  504  0.11865731414E+03 -0.81303418096E+02  0.89443730428E+03  0.90592929928E+03  0.00000000000E+00 0.  1.
         21    1    1    2  504  502 -0.11865731414E+03  0.81303418096E+02 -0.43351324727E+03  0.45675325894E+03  0.00000000000E+00 0. -1.
<mgrwt>
<rscale>  2 0.14383951E+03</rscale>
<asrwt>0</asrwt>
<pdfrwt beam="1">  1       21 0.14027743E+00 0.14383951E+03</pdfrwt>
<pdfrwt beam="2">  1       21 0.69366039E-01 0.14383951E+03</pdfrwt>
<totfact> 0.71427711E+02</totfact>
</mgrwt>
</event>
<event>
 4    1  0.5694171E+003  0.1864873E+03  0.7546771E-02  0.1161668E+00
         21   -1    0    0  504  501  0.00000000000E+00  0.00000000000E+00  0.32335608798E+03  0.32335608798E+03  0.00000000000E+00 0. -1.
         21   -1    0    0  501  502 -0.00000000000E+00 -0.00000000000E+00 -0.12696976174E+03  0.12696976174E+03  0.00000000000E+00 0. -1.
         21    1    1    2  503  502  0.49391231656E+02  0.17982776907E+03  0.10139209342E+02  0.18676274751E+03  0.00000000000E+00 0. -1.
         21    1    1    2  504  503 -0.49391231656E+02 -0.17982776907E+03  0.18624711690E+03  0.26356310221E+03  0.00000000000E+00 0. -1.
<mgrwt>
<rscale>  2 0.18648732E+03</rscale>
<asrwt>0</asrwt>
<pdfrwt beam="1">  1       21 0.49747090E-01 0.18648732E+03</pdfrwt>
<pdfrwt beam="2">  1       21 0.19533810E-01 0.18648732E+03</pdfrwt>
<totfact> 0.93111898E+04</totfact>
</mgrwt>
</event>
<event>
 4    1  0.5694171E+003  0.1017214E+03  0.7546771E-02  0.1276717E+00
         21   -1    0    0  503  501  0.00000000000E+00  0.00000000000E+00  0.20941527992E+03  0.20941527992E+03  0.00000000000E+00 0. -1.
         21   -1    0    0  504  502 -0.00000000000E+00 -0.00000000000E+00 -0.49549064616E+02  0.49549064616E+02  0.00000000000E+00 0. -1.
         21    1    1    2  503  502  0.99430073089E+02 -0.21468666338E+02  0.86788719868E+02  0.13371434091E+03  0.00000000000E+00 0. -1.
         21    1    1    2  504  501 -0.99430073089E+02  0.21468666338E+02  0.73077495435E+02  0.12525000362E+03  0.00000000000E+00 0. -1.
<mgrwt>
<rscale>  2 0.10172140E+03</rscale>
<asrwt>0</asrwt>
<pdfrwt beam="1">  1       21 0.32217735E-01 0.10172140E+03</pdfrwt>
<pdfrwt beam="2">  1       21 0.76229332E-02 0.10172140E+03</pdfrwt>
<totfact> 0.12042717E+06</totfact>
</mgrwt>
</event>
<event>
 4    1  0.5694171E+003  0.1361900E+03  0.7546771E-02  0.1218549E+00
         21   -1    0    0  502  501  0.00000000000E+00  0.00000000000E+00  0.13535697183E+03  0.13535697183E+03  0.00000000000E+00 0.  1.
         21   -1    0    0  504  502 -0.00000000000E+00 -0.00000000000E+00 -0.18728673599E+03  0.18728673599E+03  0.00000000000E+00 0.  1.
         21    1    1    2  503  501  0.10196218887E+03  0.90285314408E+02  0.57603980442E+02  0.14787137830E+03  0.00000000000E+00 0.  1.
         21    1    1    2  504  503 -0.10196218887E+03 -0.90285314408E+02 -0.10953374461E+03  0.17477232952E+03  0.00000000000E+00 0.  1.
<mgrwt>
<rscale>  2 0.13619004E+03</rscale>
<asrwt>0</asrwt>
<pdfrwt beam="1">  1       21 0.20824149E-01 0.13619004E+03</pdfrwt>
<pdfrwt beam="2">  1       21 0.28813344E-01 0.13619004E+03</pdfrwt>
<totfact> 0.25004985E+05</totfact>
</mgrwt>
</event>
<event>
 4    1  0.5694171E+003  0.1038904E+03  0.7546771E-02  0.1272321E+00
         21   -1    0    0  502  501  0.00000000000E+00  0.00000000000E+00  0.33193254897E+03  0.33193254897E+03  0.00000000000E+00 0.  1.
         21   -1    0    0  504  502 -0.00000000000E+00 -0.00000000000E+00 -0.80709389075E+02  0.80709389075E+02  0.00000000000E+00 0. -1.
         21    1    1    2  503  501  0.56563274995E+02  0.87142515226E+02  0.28504291066E+03  0.30338537037E+03  0.00000000000E+00 0.  1.
         21    1    1    2  504  503 -0.56563274995E+02 -0.87142515226E+02 -0.33819750764E+02  0.10925656767E+03  0.00000000000E+00 0. -1.
<mgrwt>
<rscale>  2 0.10389043E+03</rscale>
<asrwt>0</asrwt>
<pdfrwt beam="1">  1       21 0.51066545E-01 0.10389043E+03</pdfrwt>
<pdfrwt beam="2">  1       21 0.12416829E-01 0.10389043E+03</pdfrwt>
<totfact> 0.20627292E+05</totfact>
</mgrwt>
</event>
<event>
 4    1  0.5694171E+003  0.1245074E+03  0.7546771E-02  0.1235841E+00
         21   -1    0    0  503  501  0.00000000000E+00  0.00000000000E+00  0.42997837795E+03  0.42997837795E+03  0.00000000000E+00 0.  1.
         21   -1    0    0  501  502 -0.00000000000E+00 -0.00000000000E+00 -0.36236172010E+02  0.36236172010E+02  0.00000000000E+00 0.  1.
         21    1    1    2  503  504  0.43382973667E+02  0.11670480502E+03  0.21343581936E+03  0.24709703136E+03  0.00000000000E+00 0.  1.
         21    1    1    2  504  502 -0.43382973667E+02 -0.11670480502E+03  0.18030638658E+03  0.21911751861E+03  0.00000000000E+00 0.  1.
<mgrwt>
<rscale>  2 0.12450741E+03</rscale>
<asrwt>0</asrwt>
<pdfrwt beam="1">  1       21 0.66150516E-01 0.12450741E+03</pdfrwt>
<pdfrwt beam="2">  1       21 0.55747960E-02 0.12450741E+03</pdfrwt>
<totfact> 0.47394343E+05</totfact>
</mgrwt>
</event>
<event>
 4    1  0.5694171E+003  0.1064874E+03  0.7546771E-02  0.1267216E+00
         21   -1    0    0  504  501  0.00000000000E+00  0.00000000000E+00  0.12516741176E+03  0.12516741176E+03  0.00000000000E+00 0. -1.
         21   -1    0    0  501  502 -0.00000000000E+00 -0.00000000000E+00 -0.10435046666E+03  0.10435046666E+03  0.00000000000E+00 0. -1.
         21    1    1    2  503  502 -0.10647585435E+03  0.15672999464E+01 -0.31256795148E+02  0.11097995869E+03  0.00000000000E+00 0. -1.
         21    1    1    2  504  503  0.10647585435E+03 -0.15672999464E+01  0.52073740247E+02  0.11853791972E+03  0.00000000000E+00 0. -1.
<mgrwt>
<rscale>  2 0.10648739E+03</rscale>
<asrwt>0</asrwt>
<pdfrwt beam="1">  1       21 0.19256525E-01 0.10648739E+03</pdfrwt>
<pdfrwt beam="2">  1       21 0.16053918E-01 0.10648739E+03</pdfrwt>
<totfact> 0.85934262E+05</totfact>
</mgrwt>
</event>
<event>
 4    1  0.5694171E+003  0.1592592E+03  0.7546771E-02  0.1189536E+00
         21   -1    0    0  503  501  0.00000000000E+00  0.00000000000E+00  0.91725550075E+03  0.91725550075E+03  0.00000000000E+00 0.  1.
         21   -1    0    0  504  502 -0.00000000000E+00 -0.00000000000E+00 -0.19933799332E+04  0.19933799332E+04  0.00000000000E+00 0.  1.
         21    1    1    2  503  502  0.75364486801E+02  0.14029855830E+03  0.90712641049E+03  0.92100044297E+03  0.00000000000E+00 0.  1.
         21    1    1    2  504  501 -0.75364486801E+02 -0.14029855830E+03 -0.19832508429E+04  0.19896349910E+04  0.00000000000E+00 0.  1.
<mgrwt>
<rscale>  2 0.15925920E+03</rscale>
<asrwt>0</asrwt>
<pdfrwt beam="1">  1       21 0.14111623E+00 0.15925920E+03</pdfrwt>
<pdfrwt beam="2">  1       21 0.30667384E+00 0.15925920E+03</pdfrwt>
<totfact> 0.11786967E+01</totfact>
</mgrwt>
</event>
<event>
 4    1  0.5694171E+003  0.1276921E+03  0.7546771E-02  0.1230921E+00
         21   -1    0    0  504  501  0.00000000000E+00  0.00000000000E+00  0.19448054927E+02  0.19448054927E+02  0.00000000000E+00 0.  1.
         21   -1    0    0  503  502 -0.00000000000E+00 -0.00000000000E+00 -0.10075136246E+04  0.10075136246E+04  0.00000000000E+00 0.  1.
         21    1    1    2  503  501 -0.66094895123E+01  0.12752091190E+03 -0.70440424370E+03  0.71588449269E+03  0.00000000000E+00 0.  1.
         21    1    1    2  504  502  0.66094895123E+01 -0.12752091190E+03 -0.28366132599E+03  0.31107718686E+03  0.00000000000E+00 0.  1.
<mgrwt>
<rscale>  2 0.12769208E+03</rscale>
<asrwt>0</asrwt>
<pdfrwt beam="1">  1       21 0.29920075E-02 0.12769208E+03</pdfrwt>
<pdfrwt beam="2">  1       21 0.15500215E+00 0.12769208E+03</pdfrwt>
<totfact> 0.17908366E+05</totfact>
</mgrwt>
</event>
<event>
 4    1  0.5694171E+003  0.1130681E+03  0.7546771E-02  0.1254992E+00
         21   -1    0    0  503  501  0.00000000000E+00  0.00000000000E+00  0.28992290850E+02  0.28992290850E+02  0.00000000000E+00 0.  1.
         21   -1    0    0  504  502 -0.00000000000E+00 -0.00000000000E+00 -0.44156250390E+03  0.44156250390E+03  0.00000000000E+00 0.  1.
         21    1    1    2  503  502  0.24330540053E+02  0.11041924269E+03 -0.19758024189E+03  0.22764519833E+03  0.00000000000E+00 0.  1.
         21    1    1    2  504  501 -0.24330540053E+02 -0.11041924269E+03 -0.21498997115E+03  0.24290959642E+03  0.00000000000E+00 0.  1.
<mgrwt>
<rscale>  2 0.11306805E+03</rscale>
<asrwt>0</asrwt>
<pdfrwt beam="1">  1       21 0.44603527E-02 0.11306805E+03</pdfrwt>
<pdfrwt beam="2">  1       21 0.67932690E-01 0.11306805E+03</pdfrwt>
<totfact> 0.65091765E+05</totfact>
</mgrwt>
</event>
<event>
 4    1  0.5694171E+003  0.1045197E+03  0.7546771E-02  0.1271069E+00
         21   -1    0    0  502  501  0.00000000000E+00  0.00000000000E+00  0.18513786466E+04  0.18513786466E+04  0.00000000000E+00 0. -1.
         21   -1    0    0  503  502 -0.00000000000E+00 -0.00000000000E+00 -0.59297643046E+01  0.59297643046E+01  0.00000000000E+00 0.  1.
         21    1    1    2  503  504  0.31117027829E+02 -0.99780259808E+02  0.98777612386E+03  0.99329051165E+03  0.00000000000E+00 0. -1.
         21    1    1    2  504  501 -0.31117027829E+02  0.99780259808E+02  0.85767275844E+03  0.86401789926E+03  0.00000000000E+00 0.  1.
<mgrwt>
<rscale>  2 0.10451971E+03</rscale>
<asrwt>0</asrwt>
<pdfrwt beam="1">  1       21 0.28482702E+00 0.10451971E+03</pdfrwt>
<pdfrwt beam="2">  1       21 0.91227291E-03 0.10451971E+03</pdfrwt>
<totfact> 0.19543408E+05</totfact>
</mgrwt>
</event>
<event>
 4    1  0.5694171E+003  0.1972125E+03  0.7546771E-02  0.1152112E+00
         21   -1    0    0  503  501  0.00000000000E+00  0.00000000000E+00  0.20492002277E+03  0.20492002277E+03  0.00000000000E+00 0. -1.
         21   -1    0    0  504  502 -0.00000000000E+00 -0.00000000000E+00 -0.95622525700E+03  0.95622525700E+03  0.00000000000E+00 0.  1.
         21    1    1    2  503  502  0.95506856833E+02  0.17254339029E+03 -0.89542452179E+03  0.91688486488E+03  0.00000000000E+00 0.  1.
         21    1    1    2  504  501 -0.95506856833E+02 -0.17254339029E+03  0.14411928756E+03  0.24426041489E+03  0.00000000000E+00 0. -1.
<mgrwt>
<rscale>  2 0.19721253E+03</rscale>
<asrwt>0</asrwt>
<pdfrwt beam="1">  1       21 0.31526157E-01 0.19721253E+03</pdfrwt>
<pdfrwt beam="2">  1       21 0.14711158E+00 0.19721253E+03</pdfrwt>
<totfact> 0.30296848E+03</totfact>
</mgrwt>
</event>
<event>
 4    1  0.5694171E+003  0.1595287E+03  0.7546771E-02  0.1189230E+00
         21   -1    0    0  504  501  0.00000000000E+00  0.00000000000E+00  0.21697834204E+03  0.21697834204E+03  0.00000000000E+00 0.  1.
         21   -1    0    0  503  502 -0.00000000000E+00 -0.00000000000E+00 -0.14024108789E+03  0.14024108789E+03  0.00000000000E+00 0.  1.
         21    1    1    2  503  501  0.53678603338E+02 -0.15022651930E+03 -0.33886497017E+02  0.16308799539E+03  0.00000000000E+00 0.  1.
         21    1    1    2  504  502 -0.53678603338E+02  0.15022651930E+03  0.11062375116E+03  0.19413143455E+03  0.00000000000E+00 0.  1.
<mgrwt>
<rscale>  2 0.15952868E+03</rscale>
<asrwt>0</asrwt>
<pdfrwt beam="1">  1       21 0.33381283E-01 0.15952868E+03</pdfrwt>
<pdfrwt beam="2">  1       21 0.21575552E-01 0.15952868E+03</pdfrwt>
<totfact> 0.17487350E+05</totfact>
</mgrwt>
</event>
<event>
 4    1  0.5694171E+003  0.1196586E+03  0.7546771E-02  0.1243661E+00
         21   -1    0    0  503  501  0.00000000000E+00  0.00000000000E+00  0.11655566078E+04  0.11655566078E+04  0.00000000000E+00 0. -1.
         21   -1    0    0  504  502 -0.00000000000E+00 -0.00000000000E+00 -0.12370568670E+02  0.12370568670E+02  0.00000000000E+00 0. -1.
         21    1    1    2  503  502  0.10509222608E+03 -0.57217189364E+02  0.52744263705E+03  0.54084555848E+03  0.00000000000E+00 0. -1.
         21    1    1    2  504  501 -0.10509222608E+03  0.57217189364E+02  0.62574340206E+03  0.63708161798E+03  0.00000000000E+00 0. -1.
<mgrwt>
<rscale>  2 0.11965861E+03</rscale>
<asrwt>0</asrwt>
<pdfrwt beam="1">  1       21 0.17931631E+00 0.11965861E+03</pdfrwt>
<pdfrwt beam="2">  1       21 0.19031653E-02 0.11965861E+03</pdfrwt>
<totfact> 0.25341891E+05</totfact>
</mgrwt>
</event>
<event>
 4    1  0.5694171E+003  0.1050509E+03  0.7546771E-02  0.1270019E+00
         21   -1    0    0  502  501  0.00000000000E+00  0.00000000000E+00  0.25102013674E+03  0.25102013674E+03  0.00000000000E+00 0.  1.
         21   -1    0    0  503  502 -0.00000000000E+00 -0.00000000000E+00 -0.75549105635E+02  0.75549105635E+02  0.00000000000E+00 0.  1.
         21    1    1    2  503  504  0.55198674286E+02  0.89380060184E+02 -0.17843153203E+02  0.10655546404E+03  0.00000000000E+00 0.  1.
         21    1    1    2  504  501 -0.55198674286E+02 -0.89380060184E+02  0.19331418431E+03  0.22001377833E+03  0.00000000000E+00 0.  1.
<mgrwt>
<rscale>  2 0.10505089E+03</rscale>
<asrwt>0</asrwt>
<pdfrwt beam="1">  1       21 0.38618482E-01 0.10505089E+03</pdfrwt>
<pdfrwt beam="2">  1       21 0.11622939E-01 0.10505089E+03</pdfrwt>
<totfact> 0.40700590E+05</totfact>
</mgrwt>
</event>
<event>
 4    1  0.5694171E+003  0.1142129E+03  0.7546771E-02  0.1252961E+00
         21   -1    0    0  503  501  0.00000000000E+00  0.00000000000E+00  0.23477250142E+02  0.23477250142E+02  0.00000000000E+00 0.  1.
         21   -1    0    0  504  502 -0.00000000000E+00 -0.00000000000E+00 -0.30845912643E+04  0.30845912643E+04  0.00000000000E+00 0.  1.
         21    1    1    2  503  502 -0.92958391064E+02  0.66357503920E+02 -0.29376836004E+04  0.29399029774E+04  0.00000000000E+00 0.  1.
         21    1    1    2  504  501  0.92958391064E+02 -0.66357503920E+02 -0.12343041383E+03  0.16816553706E+03  0.00000000000E+00 0.  1.
<mgrwt>
<rscale>  2 0.11421287E+03</rscale>
<asrwt>0</asrwt>
<pdfrwt beam="1">  1       21 0.36118841E-02 0.11421287E+03</pdfrwt>
<pdfrwt beam="2">  1       21 0.47455258E+00 0.11421287E+03</pdfrwt>
<totfact> 0.15478154E+03</totfact>
</mgrwt>
</event>
<event>
 4    1  0.5694171E+003  0.4022870E+03  0.7546771E-02  0.1042991E+00
         21   -1    0    0  502  501  0.00000000000E+00  0.00000000000E+00  0.64303763730E+03  0.64303763730E+03  0.00000000000E+00 0.  1.
         21   -1    0    0  504  502 -0.00000000000E+00 -0.00000000000E+00 -0.31691308462E+03  0.31691308462E+03  0.00000000000E+00 0.  1.
         21    1    1    2  503  501 -0.25481165677E+03  0.31129704768E+03  0.38083730424E+03  0.55396018324E+03  0.00000000000E+00 0.  1.
         21    1    1    2  504  503  0.25481165677E+03 -0.31129704768E+03 -0.54712751559E+02  0.40599053868E+03  0.00000000000E+00 0.  1.
<mgrwt>
<rscale>  2 0.40228700E+03</rscale>
<asrwt>0</asrwt>
<pdfrwt beam="1">  1       21 0.98928867E-01 0.40228700E+03</pdfrwt>
<pdfrwt beam="2">  1       21 0.48755859E-01 0.40228700E+03</pdfrwt>
<totfact> 0.29930915E+03</totfact>
</mgrwt>
</event>
<event>
 4    1  0.5694171E+003  0.1030360E+03  0.7546771E-02  0.1274038E+00
         21   -1    0    0  503  501  0.00000000000E+00  0.00000000000E+00  0.11567237308E+02  0.11567237308E+02  0.00000000000E+00 0. -1.
         21   -1    0    0  504  502 -0.00000000000E+00 -0.00000000000E+00 -0.92492607602E+03  0.92492607602E+03  0.00000000000E+00 0. -1.
         21    1    1    2  503  502 -0.10028193536E+03 -0.23663307666E+02 -0.49777778621E+03  0.50832975826E+03  0.00000000000E+00 0. -1.
         21    1    1    2  504  501  0.10028193536E+03  0.23663307666E+02 -0.41558105250E+03  0.42816355507E+03  0.00000000000E+00 0. -1.
<mgrwt>
<rscale>  2 0.10303601E+03</rscale>
<asrwt>0</asrwt>
<pdfrwt beam="1">  1       21 0.17795752E-02 0.10303601E+03</pdfrwt>
<pdfrwt beam="2">  1       21 0.14229630E+00 0.10303601E+03</pdfrwt>
<totfact> 0.52180195E+05</totfact>
</mgrwt>
</event>
<event>
 4    1  0.5694171E+003  0.1814325E+03  0.7546771E-02  0.1166424E+00
         21   -1    0    0  503  501  0.00000000000E+00  0.00000000000E+00  0.14734189410E+03  0.14734189410E+03  0.00000000000E+00 0. -1.
         21   -1    0    0  504  502 -0.00000000000E+00 -0.00000000000E+00 -0.56234609035E+03  0.56234609035E+03  0.00000000000E+00 0.  1.
         21    1    1    2  503  502 -0.10638292584E+03  0.14697085669E+03 -0.48298462560E+03  0.51593789180E+03  0.00000000000E+00 0.  1.
         21    1    1    2  504  501  0.10638292584E+03 -0.14697085669E+03  0.67980429360E+02  0.19375009265E+03  0.00000000000E+00 0. -1.
<mgrwt>
<rscale>  2 0.18143252E+03</rscale>
<asrwt>0</asrwt>
<pdfrwt beam="1">  1       21 0.22667984E-01 0.18143252E+03</pdfrwt>
<pdfrwt beam="2">  1       21 0.86514783E-01 0.18143252E+03</pdfrwt>
<totfact> 0.21134929E+04</totfact>
</mgrwt>
</event>
<event>
 4    1  0.5694171E+003  0.1015215E+03  0.7546771E-02  0.1277129E+00
         21   -1    0    0  503  501  0.00000000000E+00  0.00000000000E+00  0.44635789367E+03  0.44635789367E+03  0.00000000000E+00 0.  1.
         21   -1    0    0  504  502 -0.00000000000E+00 -0.00000000000E+00 -0.72432018712E+02  0.72432018712E+02  0.00000000000E+00 0. -1.
         21    1    1    2  503  502  0.41004488963E+02 -0.92872237783E+02  0.40105597839E+03  0.41370583567E+03  0.00000000000E+00 0.  1.
         21    1    1    2  504  501 -0.41004488963E+02  0.92872237783E+02 -0.27130103432E+02  0.10508407671E+03  0.00000000000E+00 0. -1.
<mgrwt>
<rscale>  2 0.10152153E+03</rscale>
<asrwt>0</asrwt>
<pdfrwt beam="1">  1       21 0.68670444E-01 0.10152153E+03</pdfrwt>
<pdfrwt beam="2">  1       21 0.11143388E-01 0.10152153E+03</pdfrwt>
<totfact> 0.13383791E+05</totfact>
</mgrwt>
</event>
<event>
 4    1  0.5694171E+003  0.1101356E+03  0.7546771E-02  0.1260319E+00
         21   -1    0    0  504  501  0.00000000000E+00  0.00000000000E+00  0.25955859787E+03  0.25955859787E+03  0.00000000000E+00 0.  1.
         21   -1    0    0  503  502 -0.00000000000E+00 -0.00000000000E+00 -0.34703589137E+03  0.34703589137E+03  0.00000000000E+00 0. -1.
         21    1    1    2  503  501  0.22655145565E+02 -0.10778029319E+03  0.23839918016E+03  0.26261000804E+03  0.00000000000E+00 0.  1.
         21    1    1    2  504  502 -0.22655145565E+02  0.10778029319E+03 -0.32587647366E+03  0.34398448120E+03  0.00000000000E+00 0. -1.
<mgrwt>
<rscale>  2 0.11013559E+03</rscale>
<asrwt>0</asrwt>
<pdfrwt beam="1">  1       21 0.39932092E-01 0.11013559E+03</pdfrwt>
<pdfrwt beam="2">  1       21 0.53390137E-01 0.11013559E+03</pdfrwt>
<totfact> 0.21228827E+04</totfact>
</mgrwt>
</event>
<event>
 4    1  0.5694171E+003  0.1061821E+03  0.7546771E-02  0.1267808E+00
         21   -1    0    0  503  501  0.00000000000E+00  0.00000000000E+00  0.10708508739E+02  0.10708508739E+02  0.00000000000E+00 0. -1.
         21   -1    0    0  504  502 -0.00000000000E+00 -0.00000000000E+00 -0.10701449457E+04  0.10701449457E+04  0.00000000000E+00 0. -1.
         21    1    1    2  503  502 -0.80923045075E+02 -0.68746605612E+02 -0.46104899869E+03  0.47311818207E+03  0.00000000000E+00 0. -1.
         21    1    1    2  504  501  0.80923045075E+02  0.68746605612E+02 -0.59838743829E+03  0.60773527240E+03  0.00000000000E+00 0. -1.
<mgrwt>
<rscale>  2 0.10618208E+03</rscale>
<asrwt>0</asrwt>
<pdfrwt beam="1">  1       21 0.16474630E-02 0.10618208E+03</pdfrwt>
<pdfrwt beam="2">  1       21 0.16463767E+00 0.10618208E+03</pdfrwt>
<totfact> 0.40437074E+05</totfact>
</mgrwt>
</event>
<event>
 4    1  0.5694171E+003  0.1070472E+03  0.7546771E-02  0.1266138E+00
         21   -1    0    0  503  501  0.00000000000E+00  0.00000000000E+00  0.17227626681E+03  0.17227626681E+03  0.00000000000E+00 0.  1.
         21   -1    0    0  504  502 -0.00000000000E+00 -0.00000000000E+00 -0.98829267698E+02  0.98829267698E+02  0.00000000000E+00 0.  1.
         21    1    1    2  503  502 -0.51360654973E+01  0.10692388512E+03 -0.40786418613E+02  0.11455404105E+03  0.00000000000E+00 0.  1.
         21    1    1    2  504  501  0.51360654973E+01 -0.10692388512E+03  0.11423341773E+03  0.15655149346E+03  0.00000000000E+00 0.  1.
<mgrwt>
<rscale>  2 0.10704717E+03</rscale>
<asrwt>0</asrwt>
<pdfrwt beam="1">  1       21 0.26504041E-01 0.10704717E+03</pdfrwt>
<pdfrwt beam="2">  1       21 0.15204503E-01 0.10704717E+03</pdfrwt>
<totfact> 0.52289696E+05</totfact>
</mgrwt>
</event>
<event>
 4    1  0.5694171E+003  0.1284133E+03  0.7546771E-02  0.1229829E+00
         21   -1    0    0  502  501  0.00000000000E+00  0.00000000000E+00  0.63367328205E+02  0.63367328205E+02  0.00000000000E+00 0. -1.
         21   -1    0    0  503  502 -0.00000000000E+00 -0.00000000000E+00 -0.49641304718E+03  0.49641304718E+03  0.00000000000E+00 0.  1.
         21    1    1    2  503  504  0.95300181803E+02  0.86068845063E+02 -0.40958273550E+03  0.42924117692E+03  0.00000000000E+00 0.  1.
         21    1    1    2  504  501 -0.95300181803E+02 -0.86068845063E+02 -0.23462983471E+02  0.13053919846E+03  0.00000000000E+00 0. -1.
<mgrwt>
<rscale>  2 0.12841328E+03</rscale>
<asrwt>0</asrwt>
<pdfrwt beam="1">  1       21 0.97488201E-02 0.12841328E+03</pdfrwt>
<pdfrwt beam="2">  1       21 0.76371235E-01 0.12841328E+03</pdfrwt>
<totfact> 0.13261111E+05</totfact>
</mgrwt>
</event>
<event>
 4    1  0.5694171E+003  0.1095858E+03  0.7546771E-02  0.1261339E+00
         21   -1    0    0  504  501  0.00000000000E+00  0.00000000000E+00  0.16361710460E+02  0.16361710460E+02  0.00000000000E+00 0.  1.
         21   -1    0    0  503  502 -0.00000000000E+00 -0.00000000000E+00 -0.78290532602E+03  0.78290532602E+03  0.00000000000E+00 0.  1.
         21    1    1    2  503  501 -0.96129751555E+02 -0.52613001316E+02 -0.48318073823E+03  0.49545199852E+03  0.00000000000E+00 0.  1.
         21    1    1    2  504  502  0.96129751555E+02  0.52613001316E+02 -0.28336287733E+03  0.30381503796E+03  0.00000000000E+00 0.  1.
<mgrwt>
<rscale>  2 0.10958584E+03</rscale>
<asrwt>0</asrwt>
<pdfrwt beam="1">  1       21 0.25171853E-02 0.10958584E+03</pdfrwt>
<pdfrwt beam="2">  1       21 0.12044702E+00 0.10958584E+03</pdfrwt>
<totfact> 0.45053656E+05</totfact>
</mgrwt>
</event>
<event>
 4    1  0.5694171E+003  0.1293725E+03  0.7546771E-02  0.1228390E+00
         21   -1    0    0  504  501  0.00000000000E+00  0.00000000000E+00  0.12463572308E+04  0.12463572308E+04  0.00000000000E+00 0.  1.
         21   -1    0    0  501  502 -0.00000000000E+00 -0.00000000000E+00 -0.80727695504E+02  0.80727695504E+02  0.00000000000E+00 0.  1.
         21    1    1    2  503  502 -0.15296821804E+02 -0.12846500032E+03 -0.23029466284E+02  0.13140626082E+03  0.00000000000E+00 0.  1.
         21    1    1    2  504  503  0.15296821804E+02  0.12846500032E+03  0.11886590016E+04  0.11956786655E+04  0.00000000000E+00 0.  1.
<mgrwt>
<rscale>  2 0.12937252E+03</rscale>
<asrwt>0</asrwt>
<pdfrwt beam="1">  1       21 0.19174725E+00 0.12937252E+03</pdfrwt>
<pdfrwt beam="2">  1       21 0.12419646E-01 0.12937252E+03</pdfrwt>
<totfact> 0.89056359E+03</totfact>
</mgrwt>
</event>
<event>
 4    1  0.5694171E+003  0.1057013E+03  0.7546771E-02  0.1268744E+00
         21   -1    0    0  504  501  0.00000000000E+00  0.00000000000E+00  0.26302189444E+03  0.26302189444E+03  0.00000000000E+00 0.  1.
         21   -1    0    0  503  502 -0.00000000000E+00 -0.00000000000E+00 -0.64971139784E+02  0.64971139784E+02  0.00000000000E+00 0.  1.
         21    1    1    2  503  501 -0.48297454439E+02  0.94021913371E+02  0.25325551264E+01  0.10573163261E+03  0.00000000000E+00 0.  1.
         21    1    1    2  504  502  0.48297454439E+02 -0.94021913371E+02  0.19551819953E+03  0.22226140161E+03  0.00000000000E+00 0.  1.
<mgrwt>
<rscale>  2 0.10570130E+03</rscale>
<asrwt>0</asrwt>
<pdfrwt beam="1">  1       21 0.40464906E-01 0.10570130E+03</pdfrwt>
<pdfrwt beam="2">  1       21 0.99955601E-02 0.10570130E+03</pdfrwt>
<totfact> 0.48294800E+05</totfact>
</mgrwt>
</event>
<event>
 4    1  0.5694171E+003  0.1154134E+03  0.7546771E-02  0.1250861E+00
         21   -1    0    0  502  501  0.00000000000E+00  0.00000000000E+00  0.11673957529E+03  0.11673957529E+03  0.00000000000E+00 0.  1.
         21   -1    0    0  504  502 -0.00000000000E+00 -0.00000000000E+00 -0.19399405057E+03  0.19399405057E+03  0.00000000000E+00 0.  1.
         21    1    1    2  503  501  0.10764407608E+03  0.41629382972E+02  0.61077329588E+02  0.13057830153E+03  0.00000000000E+00 0.  1.
         21    1    1    2  504  503 -0.10764407608E+03 -0.41629382972E+02 -0.13833180487E+03  0.18015532432E+03  0.00000000000E+00 0.  1.
<mgrwt>
<rscale>  2 0.11541340E+03</rscale>
<asrwt>0</asrwt>
<pdfrwt beam="1">  1       21 0.17959935E-01 0.11541340E+03</pdfrwt>
<pdfrwt beam="2">  1       21 0.29845239E-01 0.11541340E+03</pdfrwt>
<totfact> 0.30814779E+05</totfact>
</mgrwt>
</event>
<event>
 4    1  0.5694171E+003  0.1218448E+03  0.7546771E-02  0.1240084E+00
         21   -1    0    0  503  501  0.00000000000E+00  0.00000000000E+00  0.11055523578E+03  0.11055523578E+03  0.00000000000E+00 0. -1.
         21   -1    0    0  504  502 -0.00000000000E+00 -0.00000000000E+00 -0.23606799756E+03  0.23606799756E+03  0.00000000000E+00 0. -1.
         21    1    1    2  503  502  0.42526508518E+02 -0.11418252809E+03  0.51043557997E+02  0.13210449826E+03  0.00000000000E+00 0. -1.
         21    1    1    2  504  501 -0.42526508518E+02  0.11418252809E+03 -0.17655631978E+03  0.21451873508E+03  0.00000000000E+00 0. -1.
<mgrwt>
<rscale>  2 0.12184479E+03</rscale>
<asrwt>0</asrwt>
<pdfrwt beam="1">  1       21 0.17008498E-01 0.12184479E+03</pdfrwt>
<pdfrwt beam="2">  1       21 0.36318154E-01 0.12184479E+03</pdfrwt>
<totfact> 0.23193520E+05</totfact>
</mgrwt>
</event>
<event>
 4    1  0.5694171E+003  0.1021771E+03  0.7546771E-02  0.1275783E+00
         21   -1    0    0  503  501  0.00000000000E+00  0.00000000000E+00  0.11153269174E+04  0.11153269174E+04  0.00000000000E+00 0. -1.
         21   -1    0    0  504  502 -0.00000000000E+00 -0.00000000000E+00 -0.10669345765E+02  0.10669345765E+02  0.00000000000E+00 0. -1.
         21    1    1    2  503  502  0.10148628882E+03  0.11861523434E+02  0.35514975281E+03  0.36955582728E+03  0.00000000000E+00 0. -1.
         21    1    1    2  504  501 -0.10148628882E+03 -0.11861523434E+02  0.74950781879E+03  0.75644043585E+03  0.00000000000E+00 0. -1.
<mgrwt>
<rscale>  2 0.10217711E+03</rscale>
<asrwt>0</asrwt>
<pdfrwt beam="1">  1       21 0.17158866E+00 0.10217711E+03</pdfrwt>
<pdfrwt beam="2">  1       21 0.16414387E-02 0.10217711E+03</pdfrwt>
<totfact> 0.36488445E+05</totfact>
</mgrwt>
</event>
<event>
 4    1  0.5694171E+003  0.1180443E+03  0.7546771E-02  0.1246359E+00
         21   -1    0    0  503  501  0.00000000000E+00  0.00000000000E+00  0.20411399383E+03  0.20411399383E+03  0.00000000000E+00 0.  1.
         21   -1    0    0  504  502 -0.00000000000E+00 -0.00000000000E+00 -0.93846932594E+02  0.93846932594E+02  0.00000000000E+00 0. -1.
         21    1    1    2  503  502  0.62152838257E+02  0.10035678309E+03  0.13291215832E+03  0.17776417256E+03  0.00000000000E+00 0.  1.
         21    1    1    2  504  501 -0.62152838257E+02 -0.10035678309E+03 -0.22645097092E+02  0.12019675386E+03  0.00000000000E+00 0. -1.
<mgrwt>
<rscale>  2 0.11804431E+03</rscale>
<asrwt>0</asrwt>
<pdfrwt beam="1">  1       21 0.31402153E-01 0.11804431E+03</pdfrwt>
<pdfrwt beam="2">  1       21 0.14437990E-01 0.11804431E+03</pdfrwt>
<totfact> 0.41443118E+05</totfact>
</mgrwt>
</event>
<event>
 4    1  0.5694171E+003  0.1116591E+03  0.7546771E-02  0.1257528E+00
         21   -1    0    0  504  501  0.00000000000E+00  0.00000000000E+00  0.22135022712E+02  0.22135022712E+02  0.00000000000E+00 0.  1.
         21   -1    0    0  503  502 -0.00000000000E+00 -0.00000000000E+00 -0.21417415818E+04  0.21417415818E+04  0.00000000000E+00 0.  1.
         21    1    1    2  503  501  0.11099814963E+03  0.12131295887E+02 -0.19886388018E+04  0.19917710817E+04  0.00000000000E+00 0.  1.
         21    1    1    2  504  502 -0.11099814963E+03 -0.12131295887E+02 -0.13096775729E+03  0.17210552290E+03  0.00000000000E+00 0.  1.
<mgrwt>
<rscale>  2 0.11165911E+03</rscale>
<asrwt>0</asrwt>
<pdfrwt beam="1">  1       21 0.34053882E-02 0.11165911E+03</pdfrwt>
<pdfrwt beam="2">  1       21 0.32949870E+00 0.11165911E+03</pdfrwt>
<totfact> 0.13239545E+04</totfact>
</mgrwt>
</event>
<event>
 4    1  0.5694171E+003  0.1391363E+03  0.7546771E-02  0.1214496E+00
         21   -1    0    0  504  501  0.00000000000E+00  0.00000000000E+00  0.15101277753E+03  0.15101277753E+03  0.00000000000E+00 0.  1.
         21   -1    0    0  503  502 -0.00000000000E+00 -0.00000000000E+00 -0.64923311913E+03  0.64923311913E+03  0.00000000000E+00 0. -1.
         21    1    1    2  503  501 -0.96575498551E+02  0.10016024828E+03 -0.60755999747E+03  0.62328809774E+03  0.00000000000E+00 0. -1.
         21    1    1    2  504  502  0.96575498551E+02 -0.10016024828E+03  0.10933965586E+03  0.17695779892E+03  0.00000000000E+00 0.  1.
<mgrwt>
<rscale>  2 0.13913627E+03</rscale>
<asrwt>0</asrwt>
<pdfrwt beam="1">  1       21 0.23232735E-01 0.13913627E+03</pdfrwt>
<pdfrwt beam="2">  1       21 0.99882019E-01 0.13913627E+03</pdfrwt>
<totfact> 0.14889045E+04</totfact>
</mgrwt>
</event>
<event>
 4    1  0.5694171E+003  0.2339802E+03  0.7546771E-02  0.1123869E+00
         21   -1    0    0  504  501  0.00000000000E+00  0.00000000000E+00  0.12971959216E+03  0.12971959216E+03  0.00000000000E+00 0.  1.
         21   -1    0    0  503  502 -0.00000000000E+00 -0.00000000000E+00 -0.98769691300E+03  0.98769691300E+03  0.00000000000E+00 0.  1.
         21    1    1    2  503  501 -0.23087013683E+03 -0.38022436612E+02 -0.85180345488E+03  0.88335488424E+03  0.00000000000E+00 0.  1.
         21    1    1    2  504  502  0.23087013683E+03  0.38022436612E+02 -0.61738659577E+01  0.23406162092E+03  0.00000000000E+00 0.  1.
<mgrwt>
<rscale>  2 0.23398018E+03</rscale>
<asrwt>0</asrwt>
<pdfrwt beam="1">  1       21 0.19956860E-01 0.23398018E+03</pdfrwt>
<pdfrwt beam="2">  1       21 0.15195337E+00 0.23398018E+03</pdfrwt>
<totfact> 0.64879093E+03</totfact>
</mgrwt>
</event>
<event>
 4    1  0.5694171E+003  0.1096082E+03  0.7546771E-02  0.1261297E+00
         21   -1    0    0  502  501  0.00000000000E+00  0.00000000000E+00  0.55619579387E+02  0.55619579387E+02  0.00000000000E+00 0.  1.
         21   -1    0    0  503  502 -0.00000000000E+00 -0.00000000000E+00 -0.24843910847E+03  0.24843910847E+03  0.00000000000E+00 0.  1.
         21    1    1    2  503  504 -0.31407232480E+01  0.10956314871E+03 -0.15134330966E+03  0.18686558023E+03  0.00000000000E+00 0.  1.
         21    1    1    2  504  501  0.31407232480E+01 -0.10956314871E+03 -0.41476219422E+02  0.11719310762E+03  0.00000000000E+00 0.  1.
<mgrwt>
<rscale>  2 0.10960816E+03</rscale>
<asrwt>0</asrwt>
<pdfrwt beam="1">  1       21 0.85568584E-02 0.10960816E+03</pdfrwt>
<pdfrwt beam="2">  1       21 0.38221401E-01 0.10960816E+03</pdfrwt>
<totfact> 0.70787682E+05</totfact>
</mgrwt>
</event>
<event>
 4    1  0.5694171E+003  0.1300766E+03  0.7546771E-02  0.1227342E+00
         21   -1    0    0  504  501  0.00000000000E+00  0.00000000000E+00  0.37814066663E+03  0.37814066663E+03  0.00000000000E+00 0.  1.
         21   -1    0    0  501  502 -0.00000000000E+00 -0.00000000000E+00 -0.54785265180E+02  0.54785265180E+02  0.00000000000E+00 0. -1.
         21    1    1    2  503  502 -0.28183846001E+02  0.12698654715E+03  0.69010969645E+02  0.14724953740E+03  0.00000000000E+00 0. -1.
         21    1    1    2  504  503  0.28183846001E+02 -0.12698654715E+03  0.25434443181E+03  0.28567639441E+03  0.00000000000E+00 0.  1.
<mgrwt>
<rscale>  2 0.13007656E+03</rscale>
<asrwt>0</asrwt>
<pdfrwt beam="1">  1       21 0.58175486E-01 0.13007656E+03</pdfrwt>
<pdfrwt beam="2">  1       21 0.84285026E-02 0.13007656E+03</pdfrwt>
<totfact> 0.30749146E+05</totfact>
</mgrwt>
</event>
<event>
 4    1  0.5694171E+003  0.1463182E+03  0.7546771E-02  0.1205072E+00
         21   -1    0    0  503  501  0.00000000000E+00  0.00000000000E+00  0.24218854529E+03  0.24218854529E+03  0.00000000000E+00 0.  1.
         21   -1    0    0  504  502 -0.00000000000E+00 -0.00000000000E+00 -0.10493631660E+03  0.10493631660E+03  0.00000000000E+00 0.  1.
         21    1    1    2  503  502 -0.91019141072E+02 -0.11456232199E+03  0.13752893855E+03  0.20080642071E+03  0.00000000000E+00 0.  1.
         21    1    1    2  504  501  0.91019141072E+02  0.11456232199E+03 -0.27670985376E+00  0.14631844118E+03  0.00000000000E+00 0.  1.
<mgrwt>
<rscale>  2 0.14631818E+03</rscale>
<asrwt>0</asrwt>
<pdfrwt beam="1">  1       21 0.37259776E-01 0.14631818E+03</pdfrwt>
<pdfrwt beam="2">  1       21 0.16144049E-01 0.14631818E+03</pdfrwt>
<totfact> 0.24108556E+05</totfact>
</mgrwt>
</event>
<event>
 4    1  0.5694171E+003  0.1331132E+03  0.7546771E-02  0.1222908E+00
         21   -1    0    0  503  501  0.00000000000E+00  0.00000000000E+00  0.44765023860E+03  0.44765023860E+03  0.00000000000E+00 0. -1.
         21   -1    0    0  501  502 -0.00000000000E+00 -0.00000000000E+00 -0.40010742592E+02  0.40010742592E+02  0.00000000000E+00 0. -1.
         21    1    1    2  503  504  0.13270531953E+03 -0.10412256048E+02  0.22904544176E+03  0.26491683846E+03  0.00000000000E+00 0. -1.
         21    1    1    2  504  502 -0.13270531953E+03  0.10412256048E+02  0.17859405425E+03  0.22274414273E+03  0.00000000000E+00 0. -1.
<mgrwt>
<rscale>  2 0.13311317E+03</rscale>
<asrwt>0</asrwt>
<pdfrwt beam="1">  1       21 0.68869264E-01 0.13311317E+03</pdfrwt>
<pdfrwt beam="2">  1       21 0.61554992E-02 0.13311317E+03</pdfrwt>
<totfact> 0.36682662E+05</totfact>
</mgrwt>
</event>
<event>
 4    1  0.5694171E+003  0.1383533E+03  0.7546771E-02  0.1215562E+00
         21   -1    0    0  504  501  0.00000000000E+00  0.00000000000E+00  0.19501411332E+02  0.19501411332E+02  0.00000000000E+00 0. -1.
         21   -1    0    0  503  502 -0.00000000000E+00 -0.00000000000E+00 -0.11991113855E+04  0.11991113855E+04  0.00000000000E+00 0. -1.
         21    1    1    2  503  501 -0.33796213310E+02  0.13416207205E+03 -0.84933947441E+03  0.86053424592E+03  0.00000000000E+00 0. -1.
         21    1    1    2  504  502  0.33796213310E+02 -0.13416207205E+03 -0.33027049974E+03  0.35807855089E+03  0.00000000000E+00 0. -1.
<mgrwt>
<rscale>  2 0.13835334E+03</rscale>
<asrwt>0</asrwt>
<pdfrwt beam="1">  1       21 0.30002161E-02 0.13835334E+03</pdfrwt>
<pdfrwt beam="2">  1       21 0.18447874E+00 0.13835334E+03</pdfrwt>
<totfact> 0.11066131E+05</totfact>
</mgrwt>
</event>
<event>
 4    1  0.5694171E+003  0.1060043E+03  0.7546771E-02  0.1268153E+00
         21   -1    0    0  503  501  0.00000000000E+00  0.00000000000E+00  0.75211249215E+03  0.75211249215E+03  0.00000000000E+00 0.  1.
         21   -1    0    0  504  502 -0.00000000000E+00 -0.00000000000E+00 -0.16535130580E+02  0.16535130580E+02  0.00000000000E+00 0. -1.
         21    1    1    2  503  502 -0.74568319918E+02  0.75342434937E+02  0.24843739105E+03  0.27010748621E+03  0.00000000000E+00 0. -1.
         21    1    1    2  504  501  0.74568319918E+02 -0.75342434937E+02  0.48713997053E+03  0.49854013652E+03  0.00000000000E+00 0.  1.
<mgrwt>
<rscale>  2 0.10600432E+03</rscale>
<asrwt>0</asrwt>
<pdfrwt beam="1">  1       21 0.11570959E+00 0.10600432E+03</pdfrwt>
<pdfrwt beam="2">  1       21 0.25438668E-02 0.10600432E+03</pdfrwt>
<totfact> 0.48821475E+05</totfact>
</mgrwt>
</event>
<event>
 4    1  0.5694171E+003  0.1097635E+03  0.7546771E-02  0.1261008E+00
         21   -1    0    0  503  501  0.00000000000E+00  0.00000000000E+00  0.17101079431E+03  0.17101079431E+03  0.00000000000E+00 0. -1.
         21   -1    0    0  504  502 -0.00000000000E+00 -0.00000000000E+00 -0.26543324401E+03  0.26543324401E+03  0.00000000000E+00 0.  1.
         21    1    1    2  503  502 -0.10304919721E+03  0.37800784157E+02  0.13982142896E+03  0.17775845500E+03  0.00000000000E+00 0. -1.
         21    1    1    2  504  501  0.10304919721E+03 -0.37800784157E+02 -0.23424387866E+03  0.25868558332E+03  0.00000000000E+00 0.  1.
<mgrwt>
<rscale>  2 0.10976355E+03</rscale>
<asrwt>0</asrwt>
<pdfrwt beam="1">  1       21 0.26309353E-01 0.10976355E+03</pdfrwt>
<pdfrwt beam="2">  1       21 0.40835884E-01 0.10976355E+03</pdfrwt>
<totfact> 0.82254831E+04</totfact>
</mgrwt>
</event>
<event>
 4    1  0.5694171E+003  0.1086255E+03  0.7546771E-02  0.1263137E+00
         21   -1    0    0  502  501  0.00000000000E+00  0.00000000000E+00  0.36501521244E+03  0.36501521244E+03  0.00000000000E+00 0. -1.
         21   -1    0    0  503  502 -0.00000000000E+00 -0.00000000000E+00 -0.82456414840E+03  0.82456414840E+03  0.00000000000E+00 0. -1.
         21    1    1    2  503  504 -0.10746252357E+03  0.15852346145E+02 -0.81278858336E+03  0.82001510480E+03  0.00000000000E+00 0. -1.
         21    1    1    2  504  501  0.10746252357E+03 -0.15852346145E+02  0.35323964740E+03  0.36956425605E+03  0.00000000000E+00 0. -1.
<mgrwt>
<rscale>  2 0.10862546E+03</rscale>
<asrwt>0</asrwt>
<pdfrwt beam="1">  1       21 0.56156187E-01 0.10862546E+03</pdfrwt>
<pdfrwt beam="2">  1       21 0.12685602E+00 0.10862546E+03</pdfrwt>
<totfact> 0.15200456E+03</totfact>
</mgrwt>
</event>
<event>
 4    1  0.5694171E+003  0.1107379E+03  0.7546771E-02  0.1259210E+00
         21   -1    0    0  504  501  0.00000000000E+00  0.00000000000E+00  0.40166860658E+02  0.40166860658E+02  0.00000000000E+00 0.  1.
         21   -1    0    0  503  502 -0.00000000000E+00 -0.00000000000E+00 -0.43114079583E+03  0.43114079583E+03  0.00000000000E+00 0. -1.
         21    1    1    2  503  501  0.10327303272E+03  0.39969502463E+02 -0.32280160502E+03  0.34126786637E+03  0.00000000000E+00 0. -1.
         21    1    1    2  504  502 -0.10327303272E+03 -0.39969502463E+02 -0.68172330150E+02  0.13003979011E+03  0.00000000000E+00 0.  1.
<mgrwt>
<rscale>  2 0.11073789E+03</rscale>
<asrwt>0</asrwt>
<pdfrwt beam="1">  1       21 0.61795174E-02 0.11073789E+03</pdfrwt>
<pdfrwt beam="2">  1       21 0.66329349E-01 0.11073789E+03</pdfrwt>
<totfact> 0.39666350E+05</totfact>
</mgrwt>
</event>
<event>
 4    1  0.5694171E+003  0.1513449E+03  0.7546771E-02  0.1198830E+00
         21   -1    0    0  504  501  0.00000000000E+00  0.00000000000E+00  0.34723836061E+03  0.34723836061E+03  0.00000000000E+00 0. -1.
         21   -1    0    0  503  502 -0.00000000000E+00 -0.00000000000E+00 -0.70771050324E+02  0.70771050324E+02  0.00000000000E+00 0.  1.
         21    1    1    2  503  501 -0.14090321388E+03  0.55240839344E+02  0.83762943274E+02  0.17297831274E+03  0.00000000000E+00 0.  1.
         21    1    1    2  504  502  0.14090321388E+03 -0.55240839344E+02  0.19270436701E+03  0.24503109819E+03  0.00000000000E+00 0. -1.
<mgrwt>
<rscale>  2 0.15134486E+03</rscale>
<asrwt>0</asrwt>
<pdfrwt beam="1">  1       21 0.53421285E-01 0.15134486E+03</pdfrwt>
<pdfrwt beam="2">  1       21 0.10887854E-01 0.15134486E+03</pdfrwt>
<totfact> 0.23407808E+05</totfact>
</mgrwt>
</event>
<event>
 4    1  0.5694171E+003  0.1541198E+03  0.7546771E-02  0.1195500E+00
         21   -1    0    0  503  501  0.00000000000E+00  0.00000000000E+00  0.34312683535E+03  0.34312683535E+03  0.00000000000E+00 0.  1.
         21   -1    0    0  504  502 -0.00000000000E+00 -0.00000000000E+00 -0.69268678840E+02  0.69268678840E+02  0.00000000000E+00 0.  1.
         21    1    1    2  503  502  0.15392033225E+03 -0.78395074674E+01  0.13174626832E+03  0.20275602525E+03  0.00000000000E+00 0.  1.
         21    1    1    2  504  501 -0.15392033225E+03  0.78395074674E+01  0.14211188819E+03  0.20963948894E+03  0.00000000000E+00 0.  1.
<mgrwt>
<rscale>  2 0.15411984E+03</rscale>
<asrwt>0</asrwt>
<pdfrwt beam="1">  1       21 0.52788743E-01 0.15411984E+03</pdfrwt>
<pdfrwt beam="2">  1       21 0.10656720E-01 0.15411984E+03</pdfrwt>
<totfact> 0.24910067E+05</totfact>
</mgrwt>
</event>
<event>
 4    1  0.5694171E+003  0.1118242E+03  0.7546771E-02  0.1257229E+00
         21   -1    0    0  504  501  0.00000000000E+00  0.00000000000E+00  0.33994971460E+02  0.33994971460E+02  0.00000000000E+00 0. -1.
         21   -1    0    0  501  502 -0.00000000000E+00 -0.00000000000E+00 -0.38959847571E+03  0.38959847571E+03  0.00000000000E+00 0.  1.
         21    1    1    2  503  502 -0.36171294495E+02 -0.10581250254E+03 -0.22785624498E+03  0.25381709284E+03  0.00000000000E+00 0.  1.
         21    1    1    2  504  503  0.36171294495E+02  0.10581250254E+03 -0.12774725927E+03  0.16977635433E+03  0.00000000000E+00 0. -1.
<mgrwt>
<rscale>  2 0.11182418E+03</rscale>
<asrwt>0</asrwt>
<pdfrwt beam="1">  1       21 0.52299957E-02 0.11182418E+03</pdfrwt>
<pdfrwt beam="2">  1       21 0.59938226E-01 0.11182418E+03</pdfrwt>
<totfact> 0.65200331E+05</totfact>
</mgrwt>
</event>
<event>
 4    1  0.5694171E+003  0.1246435E+03  0.7546771E-02  0.1235627E+00
         21   -1    0    0  504  501  0.00000000000E+00  0.00000000000E+00  0.23652890971E+03  0.23652890971E+03  0.00000000000E+00 0.  1.
         21   -1    0    0  503  502 -0.00000000000E+00 -0.00000000000E+00 -0.94213777793E+02  0.94213777793E+02  0.00000000000E+00 0.  1.
         21    1    1    2  503  501 -0.11549203234E+03 -0.46878503905E+02  0.16216092631E+03  0.20452914141E+03  0.00000000000E+00 0.  1.
         21    1    1    2  504  502  0.11549203234E+03  0.46878503905E+02 -0.19845794394E+02  0.12621354610E+03  0.00000000000E+00 0.  1.
<mgrwt>
<rscale>  2 0.12464351E+03</rscale>
<asrwt>0</asrwt>
<pdfrwt beam="1">  1       21 0.36389063E-01 0.12464351E+03</pdfrwt>
<pdfrwt beam="2">  1       21 0.14494427E-01 0.12464351E+03</pdfrwt>
<totfact> 0.30831288E+05</totfact>
</mgrwt>
</event>
<event>
 4    1  0.5694171E+003  0.1122880E+03  0.7546771E-02  0.1256391E+00
         21   -1    0    0  502  501  0.00000000000E+00  0.00000000000E+00  0.17014575912E+03  0.17014575912E+03  0.00000000000E+00 0.  1.
         21   -1    0    0  504  502 -0.00000000000E+00 -0.00000000000E+00 -0.74174752361E+02  0.74174752361E+02  0.00000000000E+00 0.  1.
         21    1    1    2  503  501  0.11100423973E+03 -0.16931043086E+02  0.51739506679E+02  0.12363485758E+03  0.00000000000E+00 0.  1.
         21    1    1    2  504  503 -0.11100423973E+03  0.16931043086E+02  0.44231500077E+02  0.12068565390E+03  0.00000000000E+00 0.  1.
<mgrwt>
<rscale>  2 0.11228803E+03</rscale>
<asrwt>0</asrwt>
<pdfrwt beam="1">  1       21 0.26176271E-01 0.11228803E+03</pdfrwt>
<pdfrwt beam="2">  1       21 0.11411500E-01 0.11228803E+03</pdfrwt>
<totfact> 0.89154682E+05</totfact>
</mgrwt>
</event>
<event>
 4    1  0.5694171E+003  0.1082887E+03  0.7546771E-02  0.1263772E+00
         21   -1    0    0  502  501  0.00000000000E+00  0.00000000000E+00  0.30967789864E+03  0.30967789864E+03  0.00000000000E+00 0. -1.
         21   -1    0    0  504  502 -0.00000000000E+00 -0.00000000000E+00 -0.88771979955E+02  0.88771979955E+02  0.00000000000E+00 0.  1.
         21    1    1    2  503  501 -0.10398287356E+03 -0.30232462654E+02  0.26131768942E+03  0.28286635466E+03  0.00000000000E+00 0. -1.
         21    1    1    2  504  503  0.10398287356E+03  0.30232462654E+02 -0.40411770736E+02  0.11558352394E+03  0.00000000000E+00 0.  1.
<mgrwt>
<rscale>  2 0.10828869E+03</rscale>
<asrwt>0</asrwt>
<pdfrwt beam="1">  1       21 0.47642753E-01 0.10828869E+03</pdfrwt>
<pdfrwt beam="2">  1       21 0.13657228E-01 0.10828869E+03</pdfrwt>
<totfact> 0.20057671E+05</totfact>
</mgrwt>
</event>
<event>
 4    1  0.5694171E+003  0.1226968E+03  0.7546771E-02  0.1238713E+00
         21   -1    0    0  502  501  0.00000000000E+00  0.00000000000E+00  0.22274232252E+02  0.22274232252E+02  0.00000000000E+00 0.  1.
         21   -1    0    0  503  502 -0.00000000000E+00 -0.00000000000E+00 -0.19376817746E+04  0.19376817746E+04  0.00000000000E+00 0.  1.
         21    1    1    2  503  504  0.98344214097E+02  0.73368374127E+02 -0.17485139556E+04  0.17528136112E+04  0.00000000000E+00 0.  1.
         21    1    1    2  504  501 -0.98344214097E+02 -0.73368374127E+02 -0.16689358674E+03  0.20714239562E+03  0.00000000000E+00 0.  1.
<mgrwt>
<rscale>  2 0.12269679E+03</rscale>
<asrwt>0</asrwt>
<pdfrwt beam="1">  1       21 0.34268029E-02 0.12269679E+03</pdfrwt>
<pdfrwt beam="2">  1       21 0.29810507E+00 0.12269679E+03</pdfrwt>
<totfact> 0.19297229E+04</totfact>
</mgrwt>
</event>
<event>
 4    1  0.5694171E+003  0.2220695E+03  0.7546771E-02  0.1132350E+00
         21   -1    0    0  504  501  0.00000000000E+00  0.00000000000E+00  0.78600464890E+02  0.78600464890E+02  0.00000000000E+00 0. -1.
         21   -1    0    0  503  502 -0.00000000000E+00 -0.00000000000E+00 -0.63052562108E+03  0.63052562108E+03  0.00000000000E+00 0. -1.
         21    1    1    2  503  501 -0.64257205942E+02 -0.21256967601E+03 -0.30087936367E+03  0.37395621021E+03  0.00000000000E+00 0. -1.
         21    1    1    2  504  502  0.64257205942E+02  0.21256967601E+03 -0.25104579252E+03  0.33516987576E+03  0.00000000000E+00 0. -1.
<mgrwt>
<rscale>  2 0.22206948E+03</rscale>
<asrwt>0</asrwt>
<pdfrwt beam="1">  1       21 0.12092379E-01 0.22206948E+03</pdfrwt>
<pdfrwt beam="2">  1       21 0.97003941E-01 0.22206948E+03</pdfrwt>
<totfact> 0.50320060E+04</totfact>
</mgrwt>
</event>
<event>
 4    1  0.5694171E+003  0.1160085E+03  0.7546771E-02  0.1249831E+00
         21   -1    0    0  504  501  0.00000000000E+00  0.00000000000E+00  0.78500963597E+02  0.78500963597E+02  0.00000000000E+00 0.  1.
         21   -1    0    0  503  502 -0.00000000000E+00 -0.00000000000E+00 -0.37796145334E+03  0.37796145334E+03  0.00000000000E+00 0. -1.
         21    1    1    2  503  501  0.95869901552E+02 -0.65321706102E+02 -0.31843879800E+03  0.33891183423E+03  0.00000000000E+00 0. -1.
         21    1    1    2  504  502 -0.95869901552E+02  0.65321706102E+02  0.18978308249E+02  0.11755058271E+03  0.00000000000E+00 0.  1.
<mgrwt>
<rscale>  2 0.11600846E+03</rscale>
<asrwt>0</asrwt>
<pdfrwt beam="1">  1       21 0.12077071E-01 0.11600846E+03</pdfrwt>
<pdfrwt beam="2">  1       21 0.58147915E-01 0.11600846E+03</pdfrwt>
<totfact> 0.16471083E+05</totfact>
</mgrwt>
</event>
<event>
 4    1  0.5694171E+003  0.1086179E+03  0.7546771E-02  0.1263151E+00
         21   -1    0    0  504  501  0.00000000000E+00  0.00000000000E+00  0.98485834258E+02  0.98485834258E+02  0.00000000000E+00 0. -1.
         21   -1    0    0  503  502 -0.00000000000E+00 -0.00000000000E+00 -0.22445329266E+03  0.22445329266E+03  0.00000000000E+00 0. -1.
         21    1    1    2  503  501  0.69389279250E+02 -0.83564262208E+02  0.47276736750E+02  0.11846074384E+03  0.00000000000E+00 0. -1.
         21    1    1    2  504  502 -0.69389279250E+02  0.83564262208E+02 -0.17324419516E+03  0.20447838308E+03  0.00000000000E+00 0. -1.
<mgrwt>
<rscale>  2 0.10861795E+03</rscale>
<asrwt>0</asrwt>
<pdfrwt beam="1">  1       21 0.15151667E-01 0.10861795E+03</pdfrwt>
<pdfrwt beam="2">  1       21 0.34531275E-01 0.10861795E+03</pdfrwt>
<totfact> 0.31643747E+05</totfact>
</mgrwt>
</event>
<event>
 4    1  0.5694171E+003  0.1202203E+03  0.7546771E-02  0.1242734E+00
         21   -1    0    0  504  501  0.00000000000E+00  0.00000000000E+00  0.31152801871E+03  0.31152801871E+03  0.00000000000E+00 0. -1.
         21   -1    0    0  503  502 -0.00000000000E+00 -0.00000000000E+00 -0.50088024671E+02  0.50088024671E+02  0.00000000000E+00 0. -1.
         21    1    1    2  503  501  0.68836677432E+02 -0.98561778250E+02  0.81615302077E+02  0.14530646863E+03  0.00000000000E+00 0. -1.
         21    1    1    2  504  502 -0.68836677432E+02  0.98561778250E+02  0.17982469196E+03  0.21630957476E+03  0.00000000000E+00 0. -1.
<mgrwt>
<rscale>  2 0.12022027E+03</rscale>
<asrwt>0</asrwt>
<pdfrwt beam="1">  1       21 0.47927386E-01 0.12022027E+03</pdfrwt>
<pdfrwt beam="2">  1       21 0.77058502E-02 0.12022027E+03</pdfrwt>
<totfact> 0.53752186E+05</totfact>
</mgrwt>
</event>
<event>
 4    1  0.5694171E+003  0.1211783E+03  0.7546771E-02  0.1241166E+00
         21   -1    0    0  503  501  0.00000000000E+00  0.00000000000E+00  0.12219906350E+04  0.12219906350E+04  0.00000000000E+00 0. -1.
         21   -1    0    0  504  502 -0.00000000000E+00 -0.00000000000E+00 -0.23781542525E+02  0.23781542525E+02  0.00000000000E+00 0. -1.
         21    1    1    2  503  502 -0.66278482667E+02  0.10144629559E+03  0.16099441894E+03  0.20150283146E+03  0.00000000000E+00 0. -1.
         21    1    1    2  504  501  0.66278482667E+02 -0.10144629559E+03  0.10372146736E+04  0.10442693461E+04  0.00000000000E+00 0. -1.
<mgrwt>
<rscale>  2 0.12117833E+03</rscale>
<asrwt>0</asrwt>
<pdfrwt beam="1">  1       21 0.18799851E+00 0.12117833E+03</pdfrwt>
<pdfrwt beam="2">  1       21 0.36586998E-02 0.12117833E+03</pdfrwt>
<totfact> 0.76559405E+04</totfact>
</mgrwt>
</event>
<event>
 4    1  0.5694171E+003  0.1122529E+03  0.7546771E-02  0.1256454E+00
         21   -1    0    0  503  501  0.00000000000E+00  0.00000000000E+00  0.20709588233E+03  0.20709588233E+03  0.00000000000E+00 0.  1.
         21   -1    0    0  501  502 -0.00000000000E+00 -0.00000000000E+00 -0.60939160509E+02  0.60939160509E+02  0.00000000000E+00 0.  1.
         21    1    1    2  503  504  0.66921284029E+02  0.90123527936E+02  0.78351841428E+02  0.13689309551E+03  0.00000000000E+00 0.  1.
         21    1    1    2  504  502 -0.66921284029E+02 -0.90123527936E+02  0.67804880395E+02  0.13114194733E+03  0.00000000000E+00 0.  1.
<mgrwt>
<rscale>  2 0.11225288E+03</rscale>
<asrwt>0</asrwt>
<pdfrwt beam="1">  1       21 0.31860904E-01 0.11225288E+03</pdfrwt>
<pdfrwt beam="2">  1       21 0.93752556E-02 0.11225288E+03</pdfrwt>
<totfact> 0.86292414E+05</totfact>
</mgrwt>
</event>
<event>
 4    1  0.5694171E+003  0.1416838E+03  0.7546771E-02  0.1211081E+00
         21   -1    0    0  503  501  0.00000000000E+00  0.00000000000E+00  0.63195424224E+02  0.63195424224E+02  0.00000000000E+00 0. -1.
         21   -1    0    0  504  502 -0.00000000000E+00 -0.00000000000E+00 -0.14892098945E+04  0.14892098945E+04  0.00000000000E+00 0. -1.
         21    1    1    2  503  502 -0.43512462653E+01  0.14161695066E+03 -0.14014671094E+04  0.14086107883E+04  0.00000000000E+00 0. -1.
         21    1    1    2  504  501  0.43512462653E+01 -0.14161695066E+03 -0.24547360842E+02  0.14379453044E+03  0.00000000000E+00 0. -1.
<mgrwt>
<rscale>  2 0.14168378E+03</rscale>
<asrwt>0</asrwt>
<pdfrwt beam="1">  1       21 0.97223732E-02 0.14168378E+03</pdfrwt>
<pdfrwt beam="2">  1       21 0.22910921E+00 0.14168378E+03</pdfrwt>
<totfact> 0.79618633E+03</totfact>
</mgrwt>
</event>
<event>
 4    1  0.5694171E+003  0.1144787E+03  0.7546771E-02  0.1252494E+00
         21   -1    0    0  503  501  0.00000000000E+00  0.00000000000E+00  0.52161764710E+03  0.52161764710E+03  0.00000000000E+00 0.  1.
         21   -1    0    0  504  502 -0.00000000000E+00 -0.00000000000E+00 -0.34233577409E+02  0.34233577409E+02  0.00000000000E+00 0. -1.
         21    1    1    2  503  502 -0.33879648239E+02 -0.10935050533E+03  0.10032790838E+03  0.15222040855E+03  0.00000000000E+00 0. -1.
         21    1    1    2  504  501  0.33879648239E+02  0.10935050533E+03  0.38705616132E+03  0.40363081596E+03  0.00000000000E+00 0.  1.
<mgrwt>
<rscale>  2 0.11447866E+03</rscale>
<asrwt>0</asrwt>
<pdfrwt beam="1">  1       21 0.80248863E-01 0.11447866E+03</pdfrwt>
<pdfrwt beam="2">  1       21 0.52667046E-02 0.11447866E+03</pdfrwt>
<totfact> 0.34205113E+05</totfact>
</mgrwt>
</event>
<event>
 4    1  0.5694171E+003  0.1061404E+03  0.7546771E-02  0.1267889E+00
         21   -1    0    0  502  501  0.00000000000E+00  0.00000000000E+00  0.13057814179E+03  0.13057814179E+03  0.00000000000E+00 0. -1.
         21   -1    0    0  504  502 -0.00000000000E+00 -0.00000000000E+00 -0.14046367289E+04  0.14046367289E+04  0.00000000000E+00 0.  1.
         21    1    1    2  503  501  0.10397960173E+03  0.21307717711E+02  0.10663044674E+03  0.15045208068E+03  0.00000000000E+00 0. -1.
         21    1    1    2  504  503 -0.10397960173E+03 -0.21307717711E+02 -0.13806890339E+04  0.13847627900E+04  0.00000000000E+00 0.  1.
<mgrwt>
<rscale>  2 0.10614036E+03</rscale>
<asrwt>0</asrwt>
<pdfrwt beam="1">  1       21 0.20088945E-01 0.10614036E+03</pdfrwt>
<pdfrwt beam="2">  1       21 0.21609796E+00 0.10614036E+03</pdfrwt>
<totfact> 0.27285309E+03</totfact>
</mgrwt>
</event>
<event>
 4    1  0.5694171E+003  0.1031773E+03  0.7546771E-02  0.1273753E+00
         21   -1    0    0  504  501  0.00000000000E+00  0.00000000000E+00  0.60230559668E+02  0.60230559668E+02  0.00000000000E+00 0.  1.
         21   -1    0    0  503  502 -0.00000000000E+00 -0.00000000000E+00 -0.22003168764E+03  0.22003168764E+03  0.00000000000E+00 0.  1.
         21    1    1    2  503  501 -0.44634726816E+02 -0.93023047407E+02 -0.17747695409E+02  0.10469253497E+03  0.00000000000E+00 0.  1.
         21    1    1    2  504  502  0.44634726816E+02  0.93023047407E+02 -0.14205343257E+03  0.17556971234E+03  0.00000000000E+00 0.  1.
<mgrwt>
<rscale>  2 0.10317726E+03</rscale>
<asrwt>0</asrwt>
<pdfrwt beam="1">  1       21 0.92662400E-02 0.10317726E+03</pdfrwt>
<pdfrwt beam="2">  1       21 0.33851029E-01 0.10317726E+03</pdfrwt>
<totfact> 0.78240828E+05</totfact>
</mgrwt>
</event>
<event>
 4    1  0.5694171E+003  0.1363512E+03  0.7546771E-02  0.1218325E+00
         21   -1    0    0  503  501  0.00000000000E+00  0.00000000000E+00  0.27303251032E+04  0.27303251032E+04  0.00000000000E+00 0. -1.
         21   -1    0    0  504  502 -0.00000000000E+00 -0.00000000000E+00 -0.10181975760E+02  0.10181975760E+02  0.00000000000E+00 0. -1.
         21    1    1    2  503  502 -0.19666274582E+02 -0.13492546022E+03  0.21486978861E+04  0.21530197974E+04  0.00000000000E+00 0. -1.
         21    1    1    2  504  501  0.19666274582E+02  0.13492546022E+03  0.57144524137E+03  0.58748728161E+03  0.00000000000E+00 0. -1.
<mgrwt>
<rscale>  2 0.13635117E+03</rscale>
<asrwt>0</asrwt>
<pdfrwt beam="1">  1       21 0.42004943E+00 0.13635117E+03</pdfrwt>
<pdfrwt beam="2">  1       21 0.15664600E-02 0.13635117E+03</pdfrwt>
<totfact> 0.12959256E+04</totfact>
</mgrwt>
</event>
<event>
 4    1  0.5694171E+003  0.1215049E+03  0.7546771E-02  0.1240635E+00
         21   -1    0    0  503  501  0.00000000000E+00  0.00000000000E+00  0.10266124510E+04  0.10266124510E+04  0.00000000000E+00 0. -1.
         21   -1    0    0  504  502 -0.00000000000E+00 -0.00000000000E+00 -0.44910555084E+02  0.44910555084E+02  0.00000000000E+00 0. -1.
         21    1    1    2  503  502  0.10946159412E+03  0.52740793219E+02  0.93258357993E+03  0.94046561097E+03  0.00000000000E+00 0. -1.
         21    1    1    2  504  501 -0.10946159412E+03 -0.52740793219E+02  0.49118316033E+02  0.13105739516E+03  0.00000000000E+00 0. -1.
<mgrwt>
<rscale>  2 0.12150486E+03</rscale>
<asrwt>0</asrwt>
<pdfrwt beam="1">  1       21 0.15794036E+00 0.12150486E+03</pdfrwt>
<pdfrwt beam="2">  1       21 0.69093169E-02 0.12150486E+03</pdfrwt>
<totfact> 0.42254906E+04</totfact>
</mgrwt>
</event>
<event>
 4    1  0.5694171E+003  0.1100293E+03  0.7546771E-02  0.1260516E+00
         21   -1    0    0  504  501  0.00000000000E+00  0.00000000000E+00  0.18064613844E+03  0.18064613844E+03  0.00000000000E+00 0. -1.
         21   -1    0    0  503  502 -0.00000000000E+00 -0.00000000000E+00 -0.20582596416E+03  0.20582596416E+03  0.00000000000E+00 0. -1.
         21    1    1    2  503  501  0.10924014765E+03 -0.13154122418E+02  0.14609884168E+03  0.18289699925E+03  0.00000000000E+00 0. -1.
         21    1    1    2  504  502 -0.10924014765E+03  0.13154122418E+02 -0.17127866741E+03  0.20357510335E+03  0.00000000000E+00 0. -1.
<mgrwt>
<rscale>  2 0.11002927E+03</rscale>
<asrwt>0</asrwt>
<pdfrwt beam="1">  1       21 0.27791714E-01 0.11002927E+03</pdfrwt>
<pdfrwt beam="2">  1       21 0.31665533E-01 0.11002927E+03</pdfrwt>
<totfact> 0.12210871E+05</totfact>
</mgrwt>
</event>
<event>
 4    1  0.5694171E+003  0.1762298E+03  0.7546771E-02  0.1171503E+00
         21   -1    0    0  504  501  0.00000000000E+00  0.00000000000E+00  0.19381552274E+04  0.19381552274E+04  0.00000000000E+00 0.  1.
         21   -1    0    0  503  502 -0.00000000000E+00 -0.00000000000E+00 -0.22658601653E+02  0.22658601653E+02  0.00000000000E+00 0.  1.
         21    1    1    2  503  501  0.17595351680E+03 -0.98641969482E+01  0.42723266201E+03  0.46215223676E+03  0.00000000000E+00 0.  1.
         21    1    1    2  504  502 -0.17595351680E+03  0.98641969482E+01  0.14882639638E+04  0.14986615923E+04  0.00000000000E+00 0.  1.
<mgrwt>
<rscale>  2 0.17622980E+03</rscale>
<asrwt>0</asrwt>
<pdfrwt beam="1">  1       21 0.29817760E+00 0.17622980E+03</pdfrwt>
<pdfrwt beam="2">  1       21 0.34859402E-02 0.17622980E+03</pdfrwt>
<totfact> 0.17544253E+04</totfact>
</mgrwt>
</event>
<event>
 4    1  0.5694171E+003  0.1024739E+03  0.7546771E-02  0.1275178E+00
         21   -1    0    0  504  501  0.00000000000E+00  0.00000000000E+00  0.26433153354E+02  0.26433153354E+02  0.00000000000E+00 0.  1.
         21   -1    0    0  503  502 -0.00000000000E+00 -0.00000000000E+00 -0.45689892813E+03  0.45689892813E+03  0.00000000000E+00 0.  1.
         21    1    1    2  503  501  0.14725351183E+02 -0.10141039276E+03 -0.30254227386E+03  0.31942562702E+03  0.00000000000E+00 0.  1.
         21    1    1    2  504  502 -0.14725351183E+02  0.10141039276E+03 -0.12792350093E+03  0.16390645447E+03  0.00000000000E+00 0.  1.
<mgrwt>
<rscale>  2 0.10247392E+03</rscale>
<asrwt>0</asrwt>
<pdfrwt beam="1">  1       21 0.40666394E-02 0.10247392E+03</pdfrwt>
<pdfrwt beam="2">  1       21 0.70292135E-01 0.10247392E+03</pdfrwt>
<totfact> 0.70482456E+05</totfact>
</mgrwt>
</event>
<event>
 4    1  0.5694171E+003  0.1280285E+03  0.7546771E-02  0.1230411E+00
         21   -1    0    0  504  501  0.00000000000E+00  0.00000000000E+00  0.15231501221E+03  0.15231501221E+03  0.00000000000E+00 0.  1.
         21   -1    0    0  503  502 -0.00000000000E+00 -0.00000000000E+00 -0.11066082279E+03  0.11066082279E+03  0.00000000000E+00 0.  1.
         21    1    1    2  503  501  0.11848430830E+03  0.48505207558E+02 -0.98940163114E+00  0.12803228261E+03  0.00000000000E+00 0.  1.
         21    1    1    2  504  502 -0.11848430830E+03 -0.48505207558E+02  0.42643591055E+02  0.13494355239E+03  0.00000000000E+00 0.  1.
<mgrwt>
<rscale>  2 0.12802846E+03</rscale>
<asrwt>0</asrwt>
<pdfrwt beam="1">  1       21 0.23433079E-01 0.12802846E+03</pdfrwt>
<pdfrwt beam="2">  1       21 0.17024742E-01 0.12802846E+03</pdfrwt>
<totfact> 0.53694154E+05</totfact>
</mgrwt>
</event>
<event>
 4    1  0.5694171E+003  0.1098564E+03  0.7546771E-02  0.1260836E+00
         21   -1    0    0  502  501  0.00000000000E+00  0.00000000000E+00  0.35154761463E+03  0.35154761463E+03  0.00000000000E+00 0. -1.
         21   -1    0    0  503  502 -0.00000000000E+00 -0.00000000000E+00 -0.31251874417E+03  0.31251874417E+03  0.00000000000E+00 0. -1.
         21    1    1    2  503  504 -0.63686664542E+02  0.89512263396E+02 -0.29375184806E+03  0.31362172243E+03  0.00000000000E+00 0. -1.
         21    1    1    2  504  501  0.63686664542E+02 -0.89512263396E+02  0.33278071853E+03  0.35044463637E+03  0.00000000000E+00 0. -1.
<mgrwt>
<rscale>  2 0.10985644E+03</rscale>
<asrwt>0</asrwt>
<pdfrwt beam="1">  1       21 0.54084248E-01 0.10985644E+03</pdfrwt>
<pdfrwt beam="2">  1       21 0.48079807E-01 0.10985644E+03</pdfrwt>
<totfact> 0.14218111E+04</totfact>
</mgrwt>
</event>
<event>
 4    1  0.5694171E+003  0.1367054E+03  0.7546771E-02  0.1217832E+00
         21   -1    0    0  503  501  0.00000000000E+00  0.00000000000E+00  0.11966684000E+03  0.11966684000E+03  0.00000000000E+00 0.  1.
         21   -1    0    0  501  502 -0.00000000000E+00 -0.00000000000E+00 -0.71891216187E+03  0.71891216187E+03  0.00000000000E+00 0.  1.
         21    1    1    2  503  504  0.61295407367E+02  0.12219346345E+03  0.71340516457E+02  0.15420064449E+03  0.00000000000E+00 0.  1.
         21    1    1    2  504  502 -0.61295407367E+02 -0.12219346345E+03 -0.67058583833E+03  0.68437835737E+03  0.00000000000E+00 0.  1.
<mgrwt>
<rscale>  2 0.13670541E+03</rscale>
<asrwt>0</asrwt>
<pdfrwt beam="1">  1       21 0.18410283E-01 0.13670541E+03</pdfrwt>
<pdfrwt beam="2">  1       21 0.11060187E+00 0.13670541E+03</pdfrwt>
<totfact> 0.18041450E+04</totfact>
</mgrwt>
</event>
<event>
 4    1  0.5694171E+003  0.1865612E+03  0.7546771E-02  0.1161600E+00
         21   -1    0    0  502  501  0.00000000000E+00  0.00000000000E+00  0.12414013365E+04  0.12414013365E+04  0.00000000000E+00 0.  1.
         21   -1    0    0  503  502 -0.00000000000E+00 -0.00000000000E+00 -0.61927920063E+02  0.61927920063E+02  0.00000000000E+00 0.  1.
         21    1    1    2  503  504  0.18019606820E+03 -0.48316391964E+02  0.10765244426E+03  0.21539300240E+03  0.00000000000E+00 0.  1.
         21    1    1    2  504  501 -0.18019606820E+03  0.48316391964E+02  0.10718209722E+04  0.10879362542E+04  0.00000000000E+00 0.  1.
<mgrwt>
<rscale>  2 0.18656124E+03</rscale>
<asrwt>0</asrwt>
<pdfrwt beam="1">  1       21 0.19098480E+00 0.18656124E+03</pdfrwt>
<pdfrwt beam="2">  1       21 0.95273733E-02 0.18656124E+03</pdfrwt>
<totfact> 0.13646049E+04</totfact>
</mgrwt>
</event>
<event>
 4    1  0.5694171E+003  0.1052621E+03  0.7546771E-02  0.1269604E+00
         21   -1    0    0  504  501  0.00000000000E+00  0.00000000000E+00  0.35305830940E+03  0.35305830940E+03  0.00000000000E+00 0. -1.
         21   -1    0    0  503  502 -0.00000000000E+00 -0.00000000000E+00 -0.11577774326E+03  0.11577774326E+03  0.00000000000E+00 0. -1.
         21    1    1    2  503  501  0.91704300853E+02  0.51676260789E+02 -0.81500473864E+02  0.13312566230E+03  0.00000000000E+00 0. -1.
         21    1    1    2  504  502 -0.91704300853E+02 -0.51676260789E+02  0.31878104000E+03  0.33571039035E+03  0.00000000000E+00 0. -1.
<mgrwt>
<rscale>  2 0.10526212E+03</rscale>
<asrwt>0</asrwt>
<pdfrwt beam="1">  1       21 0.54316662E-01 0.10526212E+03</pdfrwt>
<pdfrwt beam="2">  1       21 0.17811961E-01 0.10526212E+03</pdfrwt>
<totfact> 0.95074801E+04</totfact>
</mgrwt>
</event>
<event>
 4    1  0.5694171E+003  0.1279541E+03  0.7546771E-02  0.1230523E+00
         21   -1    0    0  502  501  0.00000000000E+00  0.00000000000E+00  0.74189200809E+02  0.74189200809E+02  0.00000000000E+00 0.  1.
         21   -1    0    0  504  502 -0.00000000000E+00 -0.00000000000E+00 -0.36498601365E+03  0.36498601365E+03  0.00000000000E+00 0. -1.
         21    1    1    2  503  501  0.11638836334E+03  0.53160207246E+02 -0.73255978640E+01  0.12816365764E+03  0.00000000000E+00 0.  1.
         21    1    1    2  504  503 -0.11638836334E+03 -0.53160207246E+02 -0.28347121498E+03  0.31101155682E+03  0.00000000000E+00 0. -1.
<mgrwt>
<rscale>  2 0.12795413E+03</rscale>
<asrwt>0</asrwt>
<pdfrwt beam="1">  1       21 0.11413724E-01 0.12795413E+03</pdfrwt>
<pdfrwt beam="2">  1       21 0.56151693E-01 0.12795413E+03</pdfrwt>
<totfact> 0.19515004E+05</totfact>
</mgrwt>
</event>
<event>
 4    1  0.5694171E+003  0.1620356E+03  0.7546771E-02  0.1186418E+00
         21   -1    0    0  502  501  0.00000000000E+00  0.00000000000E+00  0.12410523104E+04  0.12410523104E+04  0.00000000000E+00 0.  1.
         21   -1    0    0  503  502 -0.00000000000E+00 -0.00000000000E+00 -0.48681841760E+02  0.48681841760E+02  0.00000000000E+00 0.  1.
         21    1    1    2  503  504 -0.15416419224E+03 -0.49889319369E+02  0.11127870966E+03  0.19656676622E+03  0.00000000000E+00 0.  1.
         21    1    1    2  504  501  0.15416419224E+03  0.49889319369E+02  0.10810917589E+04  0.10931673859E+04  0.00000000000E+00 0.  1.
<mgrwt>
<rscale>  2 0.16203562E+03</rscale>
<asrwt>0</asrwt>
<pdfrwt beam="1">  1       21 0.19093110E+00 0.16203562E+03</pdfrwt>
<pdfrwt beam="2">  1       21 0.74895150E-02 0.16203562E+03</pdfrwt>
<totfact> 0.21192728E+04</totfact>
</mgrwt>
</event>
<event>
 4    1  0.5694171E+003  0.1341592E+03  0.7546771E-02  0.1221411E+00
         21   -1    0    0  502  501  0.00000000000E+00  0.00000000000E+00  0.20930963498E+03  0.20930963498E+03  0.00000000000E+00 0. -1.
         21   -1    0    0  503  502 -0.00000000000E+00 -0.00000000000E+00 -0.23591335896E+03  0.23591335896E+03  0.00000000000E+00 0. -1.
         21    1    1    2  503  504 -0.35863046097E+01 -0.13411128812E+03 -0.19076364567E+03  0.23321549625E+03  0.00000000000E+00 0. -1.
         21    1    1    2  504  501  0.35863046097E+01  0.13411128812E+03  0.16415992169E+03  0.21200749768E+03  0.00000000000E+00 0. -1.
<mgrwt>
<rscale>  2 0.13415923E+03</rscale>
<asrwt>0</asrwt>
<pdfrwt beam="1">  1       21 0.32201482E-01 0.13415923E+03</pdfrwt>
<pdfrwt beam="2">  1       21 0.36294363E-01 0.13415923E+03</pdfrwt>
<totfact> 0.69695003E+04</totfact>
</mgrwt>
</event>
<event>
 4    1  0.5694171E+003  0.1623565E+03  0.7546771E-02  0.1186062E+00
         21   -1    0    0  504  501  0.00000000000E+00  0.00000000000E+00  0.33436655283E+03  0.33436655283E+03  0.00000000000E+00 0.  1.
         21   -1    0    0  503  502 -0.00000000000E+00 -0.00000000000E+00 -0.15435812854E+03  0.15435812854E+03  0.00000000000E+00 0.  1.
         21    1    1    2  503  501 -0.11392562182E+03  0.11567441723E+03 -0.80922903599E+02  0.18140599338E+03  0.00000000000E+00 0.  1.
         21    1    1    2  504  502  0.11392562182E+03 -0.11567441723E+03  0.26093132789E+03  0.30731868799E+03  0.00000000000E+00 0.  1.
<mgrwt>
<rscale>  2 0.16235645E+03</rscale>
<asrwt>0</asrwt>
<pdfrwt beam="1">  1       21 0.51441008E-01 0.16235645E+03</pdfrwt>
<pdfrwt beam="2">  1       21 0.23747404E-01 0.16235645E+03</pdfrwt>
<totfact> 0.60832818E+04</totfact>
</mgrwt>
</event>
<event>
 4    1  0.5694171E+003  0.1226414E+03  0.7546771E-02  0.1238802E+00
         21   -1    0    0  504  501  0.00000000000E+00  0.00000000000E+00  0.48641044712E+02  0.48641044712E+02  0.00000000000E+00 0.  1.
         21   -1    0    0  503  502 -0.00000000000E+00 -0.00000000000E+00 -0.12919597842E+04  0.12919597842E+04  0.00000000000E+00 0. -1.
         21    1    1    2  503  501 -0.24314419167E+01  0.12261732072E+03 -0.37052863868E+02  0.12811648595E+03  0.00000000000E+00 0.  1.
         21    1    1    2  504  502  0.24314419167E+01 -0.12261732072E+03 -0.12062658757E+04  0.12124843430E+04  0.00000000000E+00 0. -1.
<mgrwt>
<rscale>  2 0.12264143E+03</rscale>
<asrwt>0</asrwt>
<pdfrwt beam="1">  1       21 0.74832393E-02 0.12264143E+03</pdfrwt>
<pdfrwt beam="2">  1       21 0.19876300E+00 0.12264143E+03</pdfrwt>
<totfact> 0.19590262E+04</totfact>
</mgrwt>
</event>
<event>
 4    1  0.5694171E+003  0.1144365E+03  0.7546771E-02  0.1252568E+00
         21   -1    0    0  504  501  0.00000000000E+00  0.00000000000E+00  0.31862549926E+03  0.31862549926E+03  0.00000000000E+00 0.  1.
         21   -1    0    0  503  502 -0.00000000000E+00 -0.00000000000E+00 -0.46111929486E+02  0.46111929486E+02  0.00000000000E+00 0.  1.
         21    1    1    2  503  501  0.92111418743E+02  0.67905833192E+02  0.76136929008E+02  0.13745016407E+03  0.00000000000E+00 0.  1.
         21    1    1    2  504  502 -0.92111418743E+02 -0.67905833192E+02  0.19637664076E+03  0.22728726467E+03  0.00000000000E+00 0.  1.
<mgrwt>
<rscale>  2 0.11443651E+03</rscale>
<asrwt>0</asrwt>
<pdfrwt beam="1">  1       21 0.49019306E-01 0.11443651E+03</pdfrwt>
<pdfrwt beam="2">  1       21 0.70941432E-02 0.11443651E+03</pdfrwt>
<totfact> 0.59155610E+05</totfact>
</mgrwt>
</event>
<event>
 4    1  0.5694171E+003  0.1090803E+03  0.7546771E-02  0.1262282E+00
         21   -1    0    0  502  501  0.00000000000E+00  0.00000000000E+00  0.34613519363E+02  0.34613519363E+02  0.00000000000E+00 0.  1.
         21   -1    0    0  503  502 -0.00000000000E+00 -0.00000000000E+00 -0.95169008927E+03  0.95169008927E+03  0.00000000000E+00 0. -1.
         21    1    1    2  503  504  0.94688220438E+02 -0.54154044849E+02 -0.85268869405E+03  0.85963744022E+03  0.00000000000E+00 0. -1.
         21    1    1    2  504  501 -0.94688220438E+02  0.54154044849E+02 -0.64387875856E+02  0.12666616841E+03  0.00000000000E+00 0.  1.
<mgrwt>
<rscale>  2 0.10908034E+03</rscale>
<asrwt>0</asrwt>
<pdfrwt beam="1">  1       21 0.53251567E-02 0.10908034E+03</pdfrwt>
<pdfrwt beam="2">  1       21 0.14641386E+00 0.10908034E+03</pdfrwt>
<totfact> 0.80606649E+04</totfact>
</mgrwt>
</event>
<event>
 4    1  0.5694171E+003  0.1283409E+03  0.7546771E-02  0.1229939E+00
         21   -1    0    0  503  501  0.00000000000E+00  0.00000000000E+00  0.62124443975E+02  0.62124443975E+02  0.00000000000E+00 0.  1.
         21   -1    0    0  504  502 -0.00000000000E+00 -0.00000000000E+00 -0.38878930955E+03  0.38878930955E+03  0.00000000000E+00 0.  1.
         21    1    1    2  503  502  0.32143367731E+02  0.12425048172E+03 -0.36184130374E+02  0.13334417718E+03  0.00000000000E+00 0.  1.
         21    1    1    2  504  501 -0.32143367731E+02 -0.12425048172E+03 -0.29048073520E+03  0.31756957635E+03  0.00000000000E+00 0.  1.
<mgrwt>
<rscale>  2 0.12834087E+03</rscale>
<asrwt>0</asrwt>
<pdfrwt beam="1">  1       21 0.95576069E-02 0.12834087E+03</pdfrwt>
<pdfrwt beam="2">  1       21 0.59813739E-01 0.12834087E+03</pdfrwt>
<totfact> 0.23313849E+05</totfact>
</mgrwt>
</event>
<event>
 4    1  0.5694171E+003  0.1350636E+03  0.7546771E-02  0.1220130E+00
         21   -1    0    0  504  501  0.00000000000E+00  0.00000000000E+00  0.59728007819E+03  0.59728007819E+03  0.00000000000E+00 0. -1.
         21   -1    0    0  503  502 -0.00000000000E+00 -0.00000000000E+00 -0.31716903805E+02  0.31716903805E+02  0.00000000000E+00 0. -1.
         21    1    1    2  503  501 -0.12187007307E+03  0.58222423820E+02  0.22225268215E+03  0.26007387426E+03  0.00000000000E+00 0. -1.
         21    1    1    2  504  502  0.12187007307E+03 -0.58222423820E+02  0.34331049223E+03  0.36892310774E+03  0.00000000000E+00 0. -1.
<mgrwt>
<rscale>  2 0.13506356E+03</rscale>
<asrwt>0</asrwt>
<pdfrwt beam="1">  1       21 0.91889234E-01 0.13506356E+03</pdfrwt>
<pdfrwt beam="2">  1       21 0.48795241E-02 0.13506356E+03</pdfrwt>
<totfact> 0.28491051E+05</totfact>
</mgrwt>
</event>
<event>
 4    1  0.5694171E+003  0.1085530E+03  0.7546771E-02  0.1263273E+00
         21   -1    0    0  504  501  0.00000000000E+00  0.00000000000E+00  0.38489184715E+02  0.38489184715E+02  0.00000000000E+00 0. -1.
         21   -1    0    0  503  502 -0.00000000000E+00 -0.00000000000E+00 -0.43231071762E+03  0.43231071762E+03  0.00000000000E+00 0. -1.
         21    1    1    2  503  501 -0.15522158670E+02  0.10743750093E+03 -0.32407280118E+03  0.34177029491E+03  0.00000000000E+00 0. -1.
         21    1    1    2  504  502  0.15522158670E+02 -0.10743750093E+03 -0.69748731726E+02  0.12902960743E+03  0.00000000000E+00 0. -1.
<mgrwt>
<rscale>  2 0.10855300E+03</rscale>
<asrwt>0</asrwt>
<pdfrwt beam="1">  1       21 0.59214133E-02 0.10855300E+03</pdfrwt>
<pdfrwt beam="2">  1       21 0.66509338E-01 0.10855300E+03</pdfrwt>
<totfact> 0.42395471E+05</totfact>
</mgrwt>
</event>
<event>
 4    1  0.5694171E+003  0.1041872E+03  0.7546771E-02  0.1271729E+00
         21   -1    0    0  502  501  0.00000000000E+00  0.00000000000E+00  0.33765612487E+03  0.33765612487E+03  0.00000000000E+00 0. -1.
         21   -1    0    0  503  502 -0.00000000000E+00 -0.00000000000E+00 -0.96769838965E+02  0.96769838965E+02  0.00000000000E+00 0.  1.
         21    1    1    2  503  504  0.66351965976E+02  0.80326726240E+02 -0.57059756854E+02  0.11878881340E+03  0.00000000000E+00 0.  1.
         21    1    1    2  504  501 -0.66351965976E+02 -0.80326726240E+02  0.29794604276E+03  0.31563715043E+03  0.00000000000E+00 0. -1.
<mgrwt>
<rscale>  2 0.10418717E+03</rscale>
<asrwt>0</asrwt>
<pdfrwt beam="1">  1       21 0.51947096E-01 0.10418717E+03</pdfrwt>
<pdfrwt beam="2">  1       21 0.14887668E-01 0.10418717E+03</pdfrwt>
<totfact> 0.14418708E+05</totfact>
</mgrwt>
</event>
<event>
 4    1  0.5694171E+003  0.1020231E+03  0.7546771E-02  0.1276098E+00
         21   -1    0    0  502  501  0.00000000000E+00  0.00000000000E+00  0.20072603760E+04  0.20072603760E+04  0.00000000000E+00 0.  1.
         21   -1    0    0  503  502 -0.00000000000E+00 -0.00000000000E+00 -0.71015708655E+01  0.71015708655E+01  0.00000000000E+00 0.  1.
         21    1    1    2  503  504  0.16105778789E+02  0.10074378786E+03  0.47692149186E+03  0.48771181685E+03  0.00000000000E+00 0.  1.
         21    1    1    2  504  501 -0.16105778789E+02 -0.10074378786E+03  0.15232373133E+04  0.15266501300E+04  0.00000000000E+00 0.  1.
<mgrwt>
<rscale>  2 0.10202307E+03</rscale>
<asrwt>0</asrwt>
<pdfrwt beam="1">  1       21 0.30880884E+00 0.10202307E+03</pdfrwt>
<pdfrwt beam="2">  1       21 0.10925510E-02 0.10202307E+03</pdfrwt>
<totfact> 0.10886822E+05</totfact>
</mgrwt>
</event>
<event>
 4    1  0.5694171E+003  0.1294062E+03  0.7546771E-02  0.1228339E+00
         21   -1    0    0  503  501  0.00000000000E+00  0.00000000000E+00  0.16592064196E+03  0.16592064196E+03  0.00000000000E+00 0.  1.
         21   -1    0    0  504  502 -0.00000000000E+00 -0.00000000000E+00 -0.12170655624E+03  0.12170655624E+03  0.00000000000E+00 0.  1.
         21    1    1    2  503  502 -0.73587337929E+02 -0.10644655703E+03  0.81530133230E+02  0.15294812333E+03  0.00000000000E+00 0.  1.
         21    1    1    2  504  501  0.73587337929E+02  0.10644655703E+03 -0.37316047511E+02  0.13467907487E+03  0.00000000000E+00 0.  1.
<mgrwt>
<rscale>  2 0.12940620E+03</rscale>
<asrwt>0</asrwt>
<pdfrwt beam="1">  1       21 0.25526253E-01 0.12940620E+03</pdfrwt>
<pdfrwt beam="2">  1       21 0.18724086E-01 0.12940620E+03</pdfrwt>
<totfact> 0.38392463E+05</totfact>
</mgrwt>
</event>
<event>
 4    1  0.5694171E+003  0.2047498E+03  0.7546771E-02  0.1145792E+00
         21   -1    0    0  504  501  0.00000000000E+00  0.00000000000E+00  0.11169760549E+03  0.11169760549E+03  0.00000000000E+00 0.  1.
         21   -1    0    0  503  502 -0.00000000000E+00 -0.00000000000E+00 -0.39132764186E+03  0.39132764186E+03  0.00000000000E+00 0.  1.
         21    1    1    2  503  501 -0.99179909380E+02 -0.17912513115E+03 -0.88947749506E+02  0.22323568079E+03  0.00000000000E+00 0.  1.
         21    1    1    2  504  502  0.99179909380E+02  0.17912513115E+03 -0.19068228687E+03  0.27978956657E+03  0.00000000000E+00 0.  1.
<mgrwt>
<rscale>  2 0.20474977E+03</rscale>
<asrwt>0</asrwt>
<pdfrwt beam="1">  1       21 0.17184247E-01 0.20474977E+03</pdfrwt>
<pdfrwt beam="2">  1       21 0.60204254E-01 0.20474977E+03</pdfrwt>
<totfact> 0.78258136E+04</totfact>
</mgrwt>
</event>
<event>
 4    1  0.5694171E+003  0.1518017E+03  0.7546771E-02  0.1198276E+00
         21   -1    0    0  504  501  0.00000000000E+00  0.00000000000E+00  0.32974315981E+03  0.32974315981E+03  0.00000000000E+00 0. -1.
         21   -1    0    0  501  502 -0.00000000000E+00 -0.00000000000E+00 -0.74518400134E+02  0.74518400134E+02  0.00000000000E+00 0. -1.
         21    1    1    2  503  502  0.59794369158E+02  0.13952920048E+03  0.77204504312E+02  0.17030648800E+03  0.00000000000E+00 0. -1.
         21    1    1    2  504  503 -0.59794369158E+02 -0.13952920048E+03  0.17802025536E+03  0.23395507194E+03  0.00000000000E+00 0. -1.
<mgrwt>
<rscale>  2 0.15180173E+03</rscale>
<asrwt>0</asrwt>
<pdfrwt beam="1">  1       21 0.50729716E-01 0.15180173E+03</pdfrwt>
<pdfrwt beam="2">  1       21 0.11464369E-01 0.15180173E+03</pdfrwt>
<totfact> 0.23793867E+05</totfact>
</mgrwt>
</event>
<event>
 4    1  0.5694171E+003  0.1149040E+03  0.7546771E-02  0.1251749E+00
         21   -1    0    0  504  501  0.00000000000E+00  0.00000000000E+00  0.71335631347E+02  0.71335631347E+02  0.00000000000E+00 0.  1.
         21   -1    0    0  503  502 -0.00000000000E+00 -0.00000000000E+00 -0.18769613088E+03  0.18769613088E+03  0.00000000000E+00 0.  1.
         21    1    1    2  503  501 -0.72820620775E+02 -0.88882411684E+02 -0.73465655279E+02  0.13638228779E+03  0.00000000000E+00 0.  1.
         21    1    1    2  504  502  0.72820620775E+02  0.88882411684E+02 -0.42894844255E+02  0.12264947444E+03  0.00000000000E+00 0.  1.
<mgrwt>
<rscale>  2 0.11490399E+03</rscale>
<asrwt>0</asrwt>
<pdfrwt beam="1">  1       21 0.10974712E-01 0.11490399E+03</pdfrwt>
<pdfrwt beam="2">  1       21 0.28876328E-01 0.11490399E+03</pdfrwt>
<totfact> 0.79220973E+05</totfact>
</mgrwt>
</event>
<event>
 4    1  0.5694171E+003  0.1027010E+03  0.7546771E-02  0.1274717E+00
         21   -1    0    0  504  501  0.00000000000E+00  0.00000000000E+00  0.60089067103E+02  0.60089067103E+02  0.00000000000E+00 0.  1.
         21   -1    0    0  501  502 -0.00000000000E+00 -0.00000000000E+00 -0.22553074589E+03  0.22553074589E+03  0.00000000000E+00 0.  1.
         21    1    1    2  503  502 -0.49432322011E+02 -0.90021885485E+02 -0.14996264000E+03  0.18175887247E+03  0.00000000000E+00 0.  1.
         21    1    1    2  504  503  0.49432322011E+02  0.90021885485E+02 -0.15479038793E+02  0.10386094053E+03  0.00000000000E+00 0.  1.
<mgrwt>
<rscale>  2 0.10270099E+03</rscale>
<asrwt>0</asrwt>
<pdfrwt beam="1">  1       21 0.92444718E-02 0.10270099E+03</pdfrwt>
<pdfrwt beam="2">  1       21 0.34697038E-01 0.10270099E+03</pdfrwt>
<totfact> 0.74870694E+05</totfact>
</mgrwt>
</event>
<event>
 4    1  0.5694171E+003  0.1024764E+03  0.7546771E-02  0.1275173E+00
         21   -1    0    0  502  501  0.00000000000E+00  0.00000000000E+00  0.96613907962E+03  0.96613907962E+03  0.00000000000E+00 0.  1.
         21   -1    0    0  504  502 -0.00000000000E+00 -0.00000000000E+00 -0.11070935537E+03  0.11070935537E+03  0.00000000000E+00 0.  1.
         21    1    1    2  503  501 -0.95994955414E+02  0.35866278201E+02  0.93902506363E+03  0.94460017548E+03  0.00000000000E+00 0.  1.
         21    1    1    2  504  503  0.95994955414E+02 -0.35866278201E+02 -0.83595339383E+02  0.13224825951E+03  0.00000000000E+00 0.  1.
<mgrwt>
<rscale>  2 0.10247644E+03</rscale>
<asrwt>0</asrwt>
<pdfrwt beam="1">  1       21 0.14863678E+00 0.10247644E+03</pdfrwt>
<pdfrwt beam="2">  1       21 0.17032209E-01 0.10247644E+03</pdfrwt>
<totfact> 0.10349527E+04</totfact>
</mgrwt>
</event>
<event>
 4    1  0.5694171E+003  0.1170776E+03  0.7546771E-02  0.1247997E+00
         21   -1    0    0  502  501  0.00000000000E+00  0.00000000000E+00  0.11709751537E+03  0.11709751537E+03  0.00000000000E+00 0.  1.
         21   -1    0    0  503  502 -0.00000000000E+00 -0.00000000000E+00 -0.19947631016E+03  0.19947631016E+03  0.00000000000E+00 0.  1.
         21    1    1    2  503  504 -0.27655390530E+02  0.11376442585E+03 -0.14293414591E+03  0.18476291641E+03  0.00000000000E+00 0.  1.
         21    1    1    2  504  501  0.27655390530E+02 -0.11376442585E+03  0.60555351115E+02  0.13181090912E+03  0.00000000000E+00 0.  1.
<mgrwt>
<rscale>  2 0.11707760E+03</rscale>
<asrwt>0</asrwt>
<pdfrwt beam="1">  1       21 0.18015002E-01 0.11707760E+03</pdfrwt>
<pdfrwt beam="2">  1       21 0.30688663E-01 0.11707760E+03</pdfrwt>
<totfact> 0.29033082E+05</totfact>
</mgrwt>
</event>
<event>
 4    1  0.5694171E+003  0.1162350E+03  0.7546771E-02  0.1249441E+00
         21   -1    0    0  503  501  0.00000000000E+00  0.00000000000E+00  0.43740963987E+03  0.43740963987E+03  0.00000000000E+00 0.  1.
         21   -1    0    0  504  502 -0.00000000000E+00 -0.00000000000E+00 -0.70977074418E+02  0.70977074418E+02  0.00000000000E+00 0.  1.
         21    1    1    2  503  502 -0.53578802327E+02 -0.10314988461E+03  0.37425424528E+03  0.39188879401E+03  0.00000000000E+00 0.  1.
         21    1    1    2  504  501  0.53578802327E+02  0.10314988461E+03 -0.78216798305E+01  0.11649792028E+03  0.00000000000E+00 0.  1.
<mgrwt>
<rscale>  2 0.11623505E+03</rscale>
<asrwt>0</asrwt>
<pdfrwt beam="1">  1       21 0.67293789E-01 0.11623505E+03</pdfrwt>
<pdfrwt beam="2">  1       21 0.10919550E-01 0.11623505E+03</pdfrwt>
<totfact> 0.14403674E+05</totfact>
</mgrwt>
</event>
<event>
 4    1  0.5694171E+003  0.1009099E+03  0.7546771E-02  0.1278394E+00
         21   -1    0    0  504  501  0.00000000000E+00  0.00000000000E+00  0.12227476185E+03  0.12227476185E+03  0.00000000000E+00 0. -1.
         21   -1    0    0  501  502 -0.00000000000E+00 -0.00000000000E+00 -0.11755727745E+03  0.11755727745E+03  0.00000000000E+00 0. -1.
         21    1    1    2  503  502  0.99073053494E+02  0.19166059578E+02 -0.62395428910E+02  0.11864230829E+03  0.00000000000E+00 0. -1.
         21    1    1    2  504  503 -0.99073053494E+02 -0.19166059578E+02  0.67112913304E+02  0.12118973100E+03  0.00000000000E+00 0. -1.
<mgrwt>
<rscale>  2 0.10090990E+03</rscale>
<asrwt>0</asrwt>
<pdfrwt beam="1">  1       21 0.18811502E-01 0.10090990E+03</pdfrwt>
<pdfrwt beam="2">  1       21 0.18085735E-01 0.10090990E+03</pdfrwt>
<totfact> 0.72242037E+05</totfact>
</mgrwt>
</event>
<event>
 4    1  0.5694171E+003  0.2442922E+03  0.7546771E-02  0.1116966E+00
         21   -1    0    0  503  501  0.00000000000E+00  0.00000000000E+00  0.65277956670E+03  0.65277956670E+03  0.00000000000E+00 0. -1.
         21   -1    0    0  501  502 -0.00000000000E+00 -0.00000000000E+00 -0.98205931487E+02  0.98205931487E+02  0.00000000000E+00 0. -1.
         21    1    1    2  503  504  0.21143101932E+03  0.12237482545E+03  0.37597397926E+03  0.44836938669E+03  0.00000000000E+00 0. -1.
         21    1    1    2  504  502 -0.21143101932E+03 -0.12237482545E+03  0.17859965595E+03  0.30261611150E+03  0.00000000000E+00 0. -1.
<mgrwt>
<rscale>  2 0.24429219E+03</rscale>
<asrwt>0</asrwt>
<pdfrwt beam="1">  1       21 0.10042762E+00 0.24429219E+03</pdfrwt>
<pdfrwt beam="2">  1       21 0.15108605E-01 0.24429219E+03</pdfrwt>
<totfact> 0.30621194E+04</totfact>
</mgrwt>
</event>
<event>
 4    1  0.5694171E+003  0.1289868E+03  0.7546771E-02  0.1228967E+00
         21   -1    0    0  504  501  0.00000000000E+00  0.00000000000E+00  0.73723353146E+03  0.73723353146E+03  0.00000000000E+00 0.  1.
         21   -1    0    0  501  502 -0.00000000000E+00 -0.00000000000E+00 -0.43543564966E+02  0.43543564966E+02  0.00000000000E+00 0.  1.
         21    1    1    2  503  502  0.72119349955E+02  0.10694105831E+03  0.75890672537E+02  0.14965622195E+03  0.00000000000E+00 0.  1.
         21    1    1    2  504  503 -0.72119349955E+02 -0.10694105831E+03  0.61779929396E+03  0.63112087448E+03  0.00000000000E+00 0.  1.
<mgrwt>
<rscale>  2 0.12898678E+03</rscale>
<asrwt>0</asrwt>
<pdfrwt beam="1">  1       21 0.11342053E+00 0.12898678E+03</pdfrwt>
<pdfrwt beam="2">  1       21 0.66990105E-02 0.12898678E+03</pdfrwt>
<totfact> 0.10174727E+05</totfact>
</mgrwt>
</event>
<event>
 4    1  0.5694171E+003  0.1045751E+03  0.7546771E-02  0.1270959E+00
         21   -1    0    0  502  501  0.00000000000E+00  0.00000000000E+00  0.17291062093E+03  0.17291062093E+03  0.00000000000E+00 0. -1.
         21   -1    0    0  503  502 -0.00000000000E+00 -0.00000000000E+00 -0.22613791317E+03  0.22613791317E+03  0.00000000000E+00 0. -1.
         21    1    1    2  503  504  0.10310799043E+03  0.17455350361E+02 -0.19595322434E+03  0.22211171305E+03  0.00000000000E+00 0. -1.
         21    1    1    2  504  501 -0.10310799043E+03 -0.17455350361E+02  0.14272593210E+03  0.17693682104E+03  0.00000000000E+00 0. -1.
<mgrwt>
<rscale>  2 0.10457508E+03</rscale>
<asrwt>0</asrwt>
<pdfrwt beam="1">  1       21 0.26601634E-01 0.10457508E+03</pdfrwt>
<pdfrwt beam="2">  1       21 0.34790448E-01 0.10457508E+03</pdfrwt>
<totfact> 0.11077151E+05</totfact>
</mgrwt>
</event>
<event>
 4    1  0.5694171E+003  0.1079196E+03  0.7546771E-02  0.1264472E+00
         21   -1    0    0  504  501  0.00000000000E+00  0.00000000000E+00  0.14300548073E+03  0.14300548073E+03  0.00000000000E+00 0.  1.
         21   -1    0    0  503  502 -0.00000000000E+00 -0.00000000000E+00 -0.92932662224E+02  0.92932662224E+02  0.00000000000E+00 0.  1.
         21    1    1    2  503  501  0.10473793297E+03  0.26011618625E+02  0.66518274758E+02  0.12677270914E+03  0.00000000000E+00 0.  1.
         21    1    1    2  504  502 -0.10473793297E+03 -0.26011618625E+02 -0.16445456252E+02  0.10916543381E+03  0.00000000000E+00 0.  1.
<mgrwt>
<rscale>  2 0.10791959E+03</rscale>
<asrwt>0</asrwt>
<pdfrwt beam="1">  1       21 0.22000843E-01 0.10791959E+03</pdfrwt>
<pdfrwt beam="2">  1       21 0.14297333E-01 0.10791959E+03</pdfrwt>
<totfact> 0.82764340E+05</totfact>
</mgrwt>
</event>
<event>
 4    1  0.5694171E+003  0.1712967E+03  0.7546771E-02  0.1176502E+00
         21   -1    0    0  503  501  0.00000000000E+00  0.00000000000E+00  0.15243081898E+04  0.15243081898E+04  0.00000000000E+00 0. -1.
         21   -1    0    0  501  502 -0.00000000000E+00 -0.00000000000E+00 -0.43671158277E+02  0.43671158277E+02  0.00000000000E+00 0.  1.
         21    1    1    2  503  504 -0.10476782168E+00 -0.17129669276E+03  0.13265892886E+04  0.13376029712E+04  0.00000000000E+00 0. -1.
         21    1    1    2  504  502  0.10476782168E+00  0.17129669276E+03  0.15404774293E+03  0.23037637689E+03  0.00000000000E+00 0.  1.
<mgrwt>
<rscale>  2 0.17129672E+03</rscale>
<asrwt>0</asrwt>
<pdfrwt beam="1">  1       21 0.23450891E+00 0.17129672E+03</pdfrwt>
<pdfrwt beam="2">  1       21 0.67186409E-02 0.17129672E+03</pdfrwt>
<totfact> 0.13604113E+04</totfact>
</mgrwt>
</event>
<event>
 4    1  0.5694171E+003  0.1219588E+03  0.7546771E-02  0.1239900E+00
         21   -1    0    0  504  501  0.00000000000E+00  0.00000000000E+00  0.29572681865E+02  0.29572681865E+02  0.00000000000E+00 0.  1.
         21   -1    0    0  503  502 -0.00000000000E+00 -0.00000000000E+00 -0.64506959801E+03  0.64506959801E+03  0.00000000000E+00 0. -1.
         21    1    1    2  503  501 -0.27299294280E+02 -0.11886422007E+03 -0.46607288932E+03  0.48176539149E+03  0.00000000000E+00 0. -1.
         21    1    1    2  504  502  0.27299294280E+02  0.11886422007E+03 -0.14942402683E+03  0.19287688838E+03  0.00000000000E+00 0.  1.
<mgrwt>
<rscale>  2 0.12195882E+03</rscale>
<asrwt>0</asrwt>
<pdfrwt beam="1">  1       21 0.45496437E-02 0.12195882E+03</pdfrwt>
<pdfrwt beam="2">  1       21 0.99241469E-01 0.12195882E+03</pdfrwt>
<totfact> 0.26895200E+05</totfact>
</mgrwt>
</event>
<event>
 4    1  0.5694171E+003  0.1106231E+03  0.7546771E-02  0.1259420E+00
         21   -1    0    0  504  501  0.00000000000E+00  0.00000000000E+00  0.61815473058E+03  0.61815473058E+03  0.00000000000E+00 0. -1.
         21   -1    0    0  503  502 -0.00000000000E+00 -0.00000000000E+00 -0.29737362199E+02  0.29737362199E+02  0.00000000000E+00 0. -1.
         21    1    1    2  503  501 -0.77866414240E+02 -0.78576618380E+02  0.48150434627E+03  0.49404847829E+03  0.00000000000E+00 0. -1.
         21    1    1    2  504  502  0.77866414240E+02  0.78576618380E+02  0.10691302211E+03  0.15384361449E+03  0.00000000000E+00 0. -1.
<mgrwt>
<rscale>  2 0.11062307E+03</rscale>
<asrwt>0</asrwt>
<pdfrwt beam="1">  1       21 0.95100718E-01 0.11062307E+03</pdfrwt>
<pdfrwt beam="2">  1       21 0.45749793E-02 0.11062307E+03</pdfrwt>
<totfact> 0.29499542E+05</totfact>
</mgrwt>
</event>
<event>
 4    1  0.5694171E+003  0.1399146E+03  0.7546771E-02  0.1213444E+00
         21   -1    0    0  504  501  0.00000000000E+00  0.00000000000E+00  0.13538441500E+04  0.13538441500E+04  0.00000000000E+00 0. -1.
         21   -1    0    0  503  502 -0.00000000000E+00 -0.00000000000E+00 -0.19523881932E+02  0.19523881932E+02  0.00000000000E+00 0. -1.
         21    1    1    2  503  501 -0.89428951511E+02  0.10760366958E+03  0.31743128957E+03  0.34689870376E+03  0.00000000000E+00 0. -1.
         21    1    1    2  504  502  0.89428951511E+02 -0.10760366958E+03  0.10168889785E+04  0.10264693282E+04  0.00000000000E+00 0. -1.
<mgrwt>
<rscale>  2 0.13991457E+03</rscale>
<asrwt>0</asrwt>
<pdfrwt beam="1">  1       21 0.20828364E+00 0.13991457E+03</pdfrwt>
<pdfrwt beam="2">  1       21 0.30036752E-02 0.13991457E+03</pdfrwt>
<totfact> 0.77786920E+04</totfact>
</mgrwt>
</event>
<event>
 4    1  0.5694171E+003  0.1531377E+03  0.7546771E-02  0.1196670E+00
         21   -1    0    0  504  501  0.00000000000E+00  0.00000000000E+00  0.81103503742E+03  0.81103503742E+03  0.00000000000E+00 0. -1.
         21   -1    0    0  503  502 -0.00000000000E+00 -0.00000000000E+00 -0.33866082636E+02  0.33866082636E+02  0.00000000000E+00 0. -1.
         21    1    1    2  503  501 -0.71945173389E+02 -0.13518521080E+03  0.22705951388E+03  0.27387437273E+03  0.00000000000E+00 0. -1.
         21    1    1    2  504  502  0.71945173389E+02  0.13518521080E+03  0.55010944091E+03  0.57102674733E+03  0.00000000000E+00 0. -1.
<mgrwt>
<rscale>  2 0.15313768E+03</rscale>
<asrwt>0</asrwt>
<pdfrwt beam="1">  1       21 0.12477461E+00 0.15313768E+03</pdfrwt>
<pdfrwt beam="2">  1       21 0.52101672E-02 0.15313768E+03</pdfrwt>
<totfact> 0.12223629E+05</totfact>
</mgrwt>
</event>
<event>
 4    1  0.5694171E+003  0.1210189E+03  0.7546771E-02  0.1241426E+00
         21   -1    0    0  502  501  0.00000000000E+00  0.00000000000E+00  0.21140183397E+03  0.21140183397E+03  0.00000000000E+00 0.  1.
         21   -1    0    0  503  502 -0.00000000000E+00 -0.00000000000E+00 -0.21963261024E+03  0.21963261024E+03  0.00000000000E+00 0. -1.
         21    1    1    2  503  504  0.11982877268E+03 -0.16930591407E+02 -0.18243182346E+03  0.21892224624E+03  0.00000000000E+00 0. -1.
         21    1    1    2  504  501 -0.11982877268E+03  0.16930591407E+02  0.17420104718E+03  0.21211219797E+03  0.00000000000E+00 0.  1.
<mgrwt>
<rscale>  2 0.12101892E+03</rscale>
<asrwt>0</asrwt>
<pdfrwt beam="1">  1       21 0.32523359E-01 0.12101892E+03</pdfrwt>
<pdfrwt beam="2">  1       21 0.33789632E-01 0.12101892E+03</pdfrwt>
<totfact> 0.79154234E+04</totfact>
</mgrwt>
</event>
<event>
 4    1  0.5694171E+003  0.1400860E+03  0.7546771E-02  0.1213213E+00
         21   -1    0    0  502  501  0.00000000000E+00  0.00000000000E+00  0.82606640772E+02  0.82606640772E+02  0.00000000000E+00 0.  1.
         21   -1    0    0  504  502 -0.00000000000E+00 -0.00000000000E+00 -0.42411314064E+03  0.42411314064E+03  0.00000000000E+00 0.  1.
         21    1    1    2  503  501  0.64613097360E+02 -0.12429494232E+03 -0.27190989426E+01  0.14011237824E+03  0.00000000000E+00 0.  1.
         21    1    1    2  504  503 -0.64613097360E+02  0.12429494232E+03 -0.33878740093E+03  0.36660740317E+03  0.00000000000E+00 0.  1.
<mgrwt>
<rscale>  2 0.14008599E+03</rscale>
<asrwt>0</asrwt>
<pdfrwt beam="1">  1       21 0.12708714E-01 0.14008599E+03</pdfrwt>
<pdfrwt beam="2">  1       21 0.65248177E-01 0.14008599E+03</pdfrwt>
<totfact> 0.11668804E+05</totfact>
</mgrwt>
</event>
<event>
 4    1  0.5694171E+003  0.1563233E+03  0.7546771E-02  0.1192911E+00
         21   -1    0    0  504  501  0.00000000000E+00  0.00000000000E+00  0.12089702031E+03  0.12089702031E+03  0.00000000000E+00 0. -1.
         21   -1    0    0  501  502 -0.00000000000E+00 -0.00000000000E+00 -0.48990324099E+03  0.48990324099E+03  0.00000000000E+00 0.  1.
         21    1    1    2  503  502 -0.80236977220E+02  0.13416034991E+03 -0.41856942035E+03  0.44680793598E+03  0.00000000000E+00 0.  1.
         21    1    1    2  504  503  0.80236977220E+02 -0.13416034991E+03  0.49563199677E+02  0.16399232532E+03  0.00000000000E+00 0. -1.
<mgrwt>
<rscale>  2 0.15632329E+03</rscale>
<asrwt>0</asrwt>
<pdfrwt beam="1">  1       21 0.18599541E-01 0.15632329E+03</pdfrwt>
<pdfrwt beam="2">  1       21 0.75369730E-01 0.15632329E+03</pdfrwt>
<totfact> 0.42353510E+04</totfact>
</mgrwt>
</event>
<event>
 4    1  0.5694171E+003  0.1507063E+03  0.7546771E-02  0.1199608E+00
         21   -1    0    0  503  501  0.00000000000E+00  0.00000000000E+00  0.15784389982E+03  0.15784389982E+03  0.00000000000E+00 0. -1.
         21   -1    0    0  501  502 -0.00000000000E+00 -0.00000000000E+00 -0.15691994157E+03  0.15691994157E+03  0.00000000000E+00 0.  1.
         21    1    1    2  503  504 -0.11644148762E+02 -0.15025581451E+03  0.45810377786E+02  0.15751503645E+03  0.00000000000E+00 0. -1.
         21    1    1    2  504  502  0.11644148762E+02  0.15025581451E+03 -0.44886419543E+02  0.15724880494E+03  0.00000000000E+00 0.  1.
<mgrwt>
<rscale>  2 0.15070632E+03</rscale>
<asrwt>0</asrwt>
<pdfrwt beam="1">  1       21 0.24283677E-01 0.15070632E+03</pdfrwt>
<pdfrwt beam="2">  1       21 0.24141529E-01 0.15070632E+03</pdfrwt>
<totfact> 0.26183630E+05</totfact>
</mgrwt>
</event>
<event>
 4    1  0.5694171E+003  0.1197829E+03  0.7546771E-02  0.1243456E+00
         21   -1    0    0  504  501  0.00000000000E+00  0.00000000000E+00  0.32017545722E+03  0.32017545722E+03  0.00000000000E+00 0.  1.
         21   -1    0    0  503  502 -0.00000000000E+00 -0.00000000000E+00 -0.43125160732E+03  0.43125160732E+03  0.00000000000E+00 0.  1.
         21    1    1    2  503  501 -0.64218799065E+02  0.10111329752E+03  0.30011932603E+03  0.32314015991E+03  0.00000000000E+00 0.  1.
         21    1    1    2  504  502  0.64218799065E+02 -0.10111329752E+03 -0.41119547613E+03  0.42828690463E+03  0.00000000000E+00 0.  1.
<mgrwt>
<rscale>  2 0.11978294E+03</rscale>
<asrwt>0</asrwt>
<pdfrwt beam="1">  1       21 0.49257763E-01 0.11978294E+03</pdfrwt>
<pdfrwt beam="2">  1       21 0.66346401E-01 0.11978294E+03</pdfrwt>
<totfact> 0.86951949E+03</totfact>
</mgrwt>
</event>
<event>
 4    1  0.5694171E+003  0.1181549E+03  0.7546771E-02  0.1246172E+00
         21   -1    0    0  503  501  0.00000000000E+00  0.00000000000E+00  0.80981920523E+03  0.80981920523E+03  0.00000000000E+00 0. -1.
         21   -1    0    0  504  502 -0.00000000000E+00 -0.00000000000E+00 -0.28025525498E+02  0.28025525498E+02  0.00000000000E+00 0.  1.
         21    1    1    2  503  502  0.29646497383E+02  0.11437515252E+03  0.13100386378E+03  0.17641599317E+03  0.00000000000E+00 0.  1.
         21    1    1    2  504  501 -0.29646497383E+02 -0.11437515252E+03  0.65078981595E+03  0.66142873756E+03  0.00000000000E+00 0. -1.
<mgrwt>
<rscale>  2 0.11815494E+03</rscale>
<asrwt>0</asrwt>
<pdfrwt beam="1">  1       21 0.12458755E+00 0.11815494E+03</pdfrwt>
<pdfrwt beam="2">  1       21 0.43116199E-02 0.11815494E+03</pdfrwt>
<totfact> 0.17095978E+05</totfact>
</mgrwt>
</event>
<event>
 4    1  0.5694171E+003  0.1375255E+03  0.7546771E-02  0.1216698E+00
         21   -1    0    0  503  501  0.00000000000E+00  0.00000000000E+00  0.29395888290E+03  0.29395888290E+03  0.00000000000E+00 0. -1.
         21   -1    0    0  504  502 -0.00000000000E+00 -0.00000000000E+00 -0.66059553832E+02  0.66059553832E+02  0.00000000000E+00 0. -1.
         21    1    1    2  503  502 -0.21379238768E+02 -0.13585361426E+03  0.14299331567E+03  0.19839446738E+03  0.00000000000E+00 0. -1.
         21    1    1    2  504  501  0.21379238768E+02  0.13585361426E+03  0.84906013396E+02  0.16162396935E+03  0.00000000000E+00 0. -1.
<mgrwt>
<rscale>  2 0.13752555E+03</rscale>
<asrwt>0</asrwt>
<pdfrwt beam="1">  1       21 0.45224443E-01 0.13752555E+03</pdfrwt>
<pdfrwt beam="2">  1       21 0.10163008E-01 0.13752555E+03</pdfrwt>
<totfact> 0.37367376E+05</totfact>
</mgrwt>
</event>
<event>
 4    1  0.5694171E+003  0.1054319E+03  0.7546771E-02  0.1269271E+00
         21   -1    0    0  504  501  0.00000000000E+00  0.00000000000E+00  0.38312881994E+02  0.38312881994E+02  0.00000000000E+00 0. -1.
         21   -1    0    0  503  502 -0.00000000000E+00 -0.00000000000E+00 -0.32238327777E+03  0.32238327777E+03  0.00000000000E+00 0. -1.
         21    1    1    2  503  501 -0.17726862863E+02  0.10393093638E+03 -0.19907568754E+03  0.22527097144E+03  0.00000000000E+00 0. -1.
         21    1    1    2  504  502  0.17726862863E+02 -0.10393093638E+03 -0.84994708237E+02  0.13542518832E+03  0.00000000000E+00 0. -1.
<mgrwt>
<rscale>  2 0.10543188E+03</rscale>
<asrwt>0</asrwt>
<pdfrwt beam="1">  1       21 0.58942896E-02 0.10543188E+03</pdfrwt>
<pdfrwt beam="2">  1       21 0.49597427E-01 0.10543188E+03</pdfrwt>
<totfact> 0.79071564E+05</totfact>
</mgrwt>
</event>
<event>
 4    1  0.5694171E+003  0.1207052E+03  0.7546771E-02  0.1241938E+00
         21   -1    0    0  503  501  0.00000000000E+00  0.00000000000E+00  0.59142706917E+02  0.59142706917E+02  0.00000000000E+00 0. -1.
         21   -1    0    0  504  502 -0.00000000000E+00 -0.00000000000E+00 -0.76697820637E+03  0.76697820637E+03  0.00000000000E+00 0.  1.
         21    1    1    2  503  502 -0.59776122758E+02 -0.10486443944E+03 -0.13598549664E+02  0.12146874522E+03  0.00000000000E+00 0. -1.
         21    1    1    2  504  501  0.59776122758E+02  0.10486443944E+03 -0.69423694979E+03  0.70465216807E+03  0.00000000000E+00 0.  1.
<mgrwt>
<rscale>  2 0.12070516E+03</rscale>
<asrwt>0</asrwt>
<pdfrwt beam="1">  1       21 0.90988783E-02 0.12070516E+03</pdfrwt>
<pdfrwt beam="2">  1       21 0.11799664E+00 0.12070516E+03</pdfrwt>
<totfact> 0.54880127E+04</totfact>
</mgrwt>
</event>
<event>
 4    1  0.5694171E+003  0.1145616E+03  0.7546771E-02  0.1252348E+00
         21   -1    0    0  502  501  0.00000000000E+00  0.00000000000E+00  0.24409249543E+03  0.24409249543E+03  0.00000000000E+00 0. -1.
         21   -1    0    0  503  502 -0.00000000000E+00 -0.00000000000E+00 -0.18013971813E+03  0.18013971813E+03  0.00000000000E+00 0. -1.
         21    1    1    2  503  504  0.86707690612E+02  0.74874187665E+02 -0.14568532094E+03  0.18533369992E+03  0.00000000000E+00 0. -1.
         21    1    1    2  504  501 -0.86707690612E+02 -0.74874187665E+02  0.20963809823E+03  0.23889851364E+03  0.00000000000E+00 0. -1.
<mgrwt>
<rscale>  2 0.11456163E+03</rscale>
<asrwt>0</asrwt>
<pdfrwt beam="1">  1       21 0.37552692E-01 0.11456163E+03</pdfrwt>
<pdfrwt beam="2">  1       21 0.27713803E-01 0.11456163E+03</pdfrwt>
<totfact> 0.87803919E+04</totfact>
</mgrwt>
</event>
<event>
 4    1  0.5694171E+003  0.1176784E+03  0.7546771E-02  0.1246977E+00
         21   -1    0    0  504  501  0.00000000000E+00  0.00000000000E+00  0.14059739263E+03  0.14059739263E+03  0.00000000000E+00 0. -1.
         21   -1    0    0  503  502 -0.00000000000E+00 -0.00000000000E+00 -0.45943569873E+03  0.45943569873E+03  0.00000000000E+00 0. -1.
         21    1    1    2  503  501  0.38186952337E+02 -0.11131022058E+03  0.10650052272E+03  0.15871537378E+03  0.00000000000E+00 0. -1.
         21    1    1    2  504  502 -0.38186952337E+02  0.11131022058E+03 -0.42533882883E+03  0.44131771758E+03  0.00000000000E+00 0. -1.
<mgrwt>
<rscale>  2 0.11767841E+03</rscale>
<asrwt>0</asrwt>
<pdfrwt beam="1">  1       21 0.21630368E-01 0.11767841E+03</pdfrwt>
<pdfrwt beam="2">  1       21 0.70682417E-01 0.11767841E+03</pdfrwt>
<totfact> 0.37721302E+04</totfact>
</mgrwt>
</event>
<event>
 4    1  0.5694171E+003  0.1263900E+03  0.7546771E-02  0.1232913E+00
         21   -1    0    0  503  501  0.00000000000E+00  0.00000000000E+00  0.10871405071E+03  0.10871405071E+03  0.00000000000E+00 0. -1.
         21   -1    0    0  504  502 -0.00000000000E+00 -0.00000000000E+00 -0.46548792068E+03  0.46548792068E+03  0.00000000000E+00 0.  1.
         21    1    1    2  503  502 -0.11642542836E+03  0.49188890581E+02 -0.41588931108E+03  0.43467038822E+03  0.00000000000E+00 0.  1.
         21    1    1    2  504  501  0.11642542836E+03 -0.49188890581E+02  0.59115441109E+02  0.13953158317E+03  0.00000000000E+00 0. -1.
<mgrwt>
<rscale>  2 0.12638998E+03</rscale>
<asrwt>0</asrwt>
<pdfrwt beam="1">  1       21 0.16725238E-01 0.12638998E+03</pdfrwt>
<pdfrwt beam="2">  1       21 0.71613528E-01 0.12638998E+03</pdfrwt>
<totfact> 0.58495624E+04</totfact>
</mgrwt>
</event>
<event>
 4    1  0.5694171E+003  0.1190211E+03  0.7546771E-02  0.1244721E+00
         21   -1    0    0  504  501  0.00000000000E+00  0.00000000000E+00  0.28222281209E+03  0.28222281209E+03  0.00000000000E+00 0.  1.
         21   -1    0    0  503  502 -0.00000000000E+00 -0.00000000000E+00 -0.50605404979E+02  0.50605404979E+02  0.00000000000E+00 0.  1.
         21    1    1    2  503  501 -0.11348276549E+03 -0.35884274090E+02  0.10081226468E+03  0.15597798530E+03  0.00000000000E+00 0.  1.
         21    1    1    2  504  502  0.11348276549E+03  0.35884274090E+02  0.13080514243E+03  0.17685023176E+03  0.00000000000E+00 0.  1.
<mgrwt>
<rscale>  2 0.11902109E+03</rscale>
<asrwt>0</asrwt>
<pdfrwt beam="1">  1       21 0.43418893E-01 0.11902109E+03</pdfrwt>
<pdfrwt beam="2">  1       21 0.77854471E-02 0.11902109E+03</pdfrwt>
<totfact> 0.64553937E+05</totfact>
</mgrwt>
</event>
<event>
 4    1  0.5694171E+003  0.1201145E+03  0.7546771E-02  0.1242908E+00
         21   -1    0    0  503  501  0.00000000000E+00  0.00000000000E+00  0.11039158926E+03  0.11039158926E+03  0.00000000000E+00 0.  1.
         21   -1    0    0  501  502 -0.00000000000E+00 -0.00000000000E+00 -0.26065160156E+03  0.26065160156E+03  0.00000000000E+00 0.  1.
         21    1    1    2  503  504  0.61035239709E+02 -0.10345145849E+03  0.55868191802E+02  0.13247173134E+03  0.00000000000E+00 0.  1.
         21    1    1    2  504  502 -0.61035239709E+02  0.10345145849E+03 -0.20612820410E+03  0.23857145948E+03  0.00000000000E+00 0.  1.
<mgrwt>
<rscale>  2 0.12011455E+03</rscale>
<asrwt>0</asrwt>
<pdfrwt beam="1">  1       21 0.16983321E-01 0.12011455E+03</pdfrwt>
<pdfrwt beam="2">  1       21 0.40100246E-01 0.12011455E+03</pdfrwt>
<totfact> 0.19117666E+05</totfact>
</mgrwt>
</event>
<event>
 4    1  0.5694171E+003  0.1162662E+03  0.7546771E-02  0.1249387E+00
         21   -1    0    0  502  501  0.00000000000E+00  0.00000000000E+00  0.24226772314E+03  0.24226772314E+03  0.00000000000E+00 0. -1.
         21   -1    0    0  504  502 -0.00000000000E+00 -0.00000000000E+00 -0.95453726781E+02  0.95453726781E+02  0.00000000000E+00 0. -1.
         21    1    1    2  503  501 -0.17773530870E+02 -0.11489963092E+03  0.18224746078E+03  0.21617576309E+03  0.00000000000E+00 0. -1.
         21    1    1    2  504  503  0.17773530870E+02  0.11489963092E+03 -0.35433464424E+02  0.12154568683E+03  0.00000000000E+00 0. -1.
<mgrwt>
<rscale>  2 0.11626618E+03</rscale>
<asrwt>0</asrwt>
<pdfrwt beam="1">  1       21 0.37271957E-01 0.11626618E+03</pdfrwt>
<pdfrwt beam="2">  1       21 0.14685189E-01 0.11626618E+03</pdfrwt>
<totfact> 0.28769422E+05</totfact>
</mgrwt>
</event>
<event>
 4    1  0.5694171E+003  0.1590940E+03  0.7546771E-02  0.1189723E+00
         21   -1    0    0  503  501  0.00000000000E+00  0.00000000000E+00  0.16939004966E+04  0.16939004966E+04  0.00000000000E+00 0. -1.
         21   -1    0    0  504  502 -0.00000000000E+00 -0.00000000000E+00 -0.23298084673E+03  0.23298084673E+03  0.00000000000E+00 0.  1.
         21    1    1    2  503  502  0.13469963270E+03  0.84657682282E+02  0.16624931066E+04  0.16700880945E+04  0.00000000000E+00 0. -1.
         21    1    1    2  504  501 -0.13469963270E+03 -0.84657682282E+02 -0.20157345665E+03  0.25679324883E+03  0.00000000000E+00 0.  1.
<mgrwt>
<rscale>  2 0.15909404E+03</rscale>
<asrwt>0</asrwt>
<pdfrwt beam="1">  1       21 0.26060007E+00 0.15909404E+03</pdfrwt>
<pdfrwt beam="2">  1       21 0.35843208E-01 0.15909404E+03</pdfrwt>
<totfact> 0.45478428E+02</totfact>
</mgrwt>
</event>
<event>
 4    1  0.5694171E+003  0.1596452E+03  0.7546771E-02  0.1189098E+00
         21   -1    0    0  503  501  0.00000000000E+00  0.00000000000E+00  0.11497440884E+03  0.11497440884E+03  0.00000000000E+00 0.  1.
         21   -1    0    0  504  502 -0.00000000000E+00 -0.00000000000E+00 -0.23902815023E+03  0.23902815023E+03  0.00000000000E+00 0.  1.
         21    1    1    2  503  502 -0.52468449865E+02 -0.15077678216E+03 -0.10972286885E+03  0.19371547232E+03  0.00000000000E+00 0.  1.
         21    1    1    2  504  501  0.52468449865E+02  0.15077678216E+03 -0.14330872550E+02  0.16028708674E+03  0.00000000000E+00 0.  1.
<mgrwt>
<rscale>  2 0.15964516E+03</rscale>
<asrwt>0</asrwt>
<pdfrwt beam="1">  1       21 0.17688371E-01 0.15964516E+03</pdfrwt>
<pdfrwt beam="2">  1       21 0.36773561E-01 0.15964516E+03</pdfrwt>
<totfact> 0.20878724E+05</totfact>
</mgrwt>
</event>
<event>
 4    1  0.5694171E+003  0.1592063E+03  0.7546771E-02  0.1189596E+00
         21   -1    0    0  502  501  0.00000000000E+00  0.00000000000E+00  0.14619022228E+03  0.14619022228E+03  0.00000000000E+00 0.  1.
         21   -1    0    0  503  502 -0.00000000000E+00 -0.00000000000E+00 -0.17373697992E+03  0.17373697992E+03  0.00000000000E+00 0.  1.
         21    1    1    2  503  504 -0.63794297349E+02  0.14586618674E+03 -0.21010728568E+02  0.16058676011E+03  0.00000000000E+00 0.  1.
         21    1    1    2  504  501  0.63794297349E+02 -0.14586618674E+03 -0.65360290771E+01  0.15934044209E+03  0.00000000000E+00 0.  1.
<mgrwt>
<rscale>  2 0.15920633E+03</rscale>
<asrwt>0</asrwt>
<pdfrwt beam="1">  1       21 0.22490804E-01 0.15920633E+03</pdfrwt>
<pdfrwt beam="2">  1       21 0.26728766E-01 0.15920633E+03</pdfrwt>
<totfact> 0.24891429E+05</totfact>
</mgrwt>
</event>
<event>
 4    1  0.5694171E+003  0.1623168E+03  0.7546771E-02  0.1186106E+00
         21   -1    0    0  503  501  0.00000000000E+00  0.00000000000E+00  0.19852842309E+03  0.19852842309E+03  0.00000000000E+00 0. -1.
         21   -1    0    0  504  502 -0.00000000000E+00 -0.00000000000E+00 -0.13558849419E+03  0.13558849419E+03  0.00000000000E+00 0. -1.
         21    1    1    2  503  502  0.25277040075E+02  0.16033657814E+03  0.71297430449E+01  0.16247332175E+03  0.00000000000E+00 0. -1.
         21    1    1    2  504  501 -0.25277040075E+02 -0.16033657814E+03  0.55810185857E+02  0.17164359554E+03  0.00000000000E+00 0. -1.
<mgrwt>
<rscale>  2 0.16231681E+03</rscale>
<asrwt>0</asrwt>
<pdfrwt beam="1">  1       21 0.30542834E-01 0.16231681E+03</pdfrwt>
<pdfrwt beam="2">  1       21 0.20859768E-01 0.16231681E+03</pdfrwt>
<totfact> 0.22139835E+05</totfact>
</mgrwt>
</event>
<event>
 4    1  0.5694171E+003  0.1108309E+03  0.7546771E-02  0.1259039E+00
         21   -1    0    0  503  501  0.00000000000E+00  0.00000000000E+00  0.20965605458E+03  0.20965605458E+03  0.00000000000E+00 0. -1.
         21   -1    0    0  501  502 -0.00000000000E+00 -0.00000000000E+00 -0.65182365090E+02  0.65182365090E+02  0.00000000000E+00 0. -1.
         21    1    1    2  503  504 -0.83772372651E+02 -0.72565058623E+02  0.11594296967E+03  0.16039410952E+03  0.00000000000E+00 0. -1.
         21    1    1    2  504  502  0.83772372651E+02  0.72565058623E+02  0.28530719821E+02  0.11444431015E+03  0.00000000000E+00 0. -1.
<mgrwt>
<rscale>  2 0.11083094E+03</rscale>
<asrwt>0</asrwt>
<pdfrwt beam="1">  1       21 0.32254777E-01 0.11083094E+03</pdfrwt>
<pdfrwt beam="2">  1       21 0.10028056E-01 0.11083094E+03</pdfrwt>
<totfact> 0.74950490E+05</totfact>
</mgrwt>
</event>
<event>
 4    1  0.5694171E+003  0.1463147E+03  0.7546771E-02  0.1205076E+00
         21   -1    0    0  502  501  0.00000000000E+00  0.00000000000E+00  0.31937064443E+03  0.31937064443E+03  0.00000000000E+00 0. -1.
         21   -1    0    0  504  502 -0.00000000000E+00 -0.00000000000E+00 -0.19437201167E+03  0.19437201167E+03  0.00000000000E+00 0. -1.
         21    1    1    2  503  501  0.14631456788E+03  0.22496820700E+00  0.27041223460E+03  0.30745858259E+03  0.00000000000E+00 0. -1.
         21    1    1    2  504  503 -0.14631456788E+03 -0.22496820700E+00 -0.14541360184E+03  0.20628407351E+03  0.00000000000E+00 0. -1.
<mgrwt>
<rscale>  2 0.14631474E+03</rscale>
<asrwt>0</asrwt>
<pdfrwt beam="1">  1       21 0.49133945E-01 0.14631474E+03</pdfrwt>
<pdfrwt beam="2">  1       21 0.29903386E-01 0.14631474E+03</pdfrwt>
<totfact> 0.43391187E+04</totfact>
</mgrwt>
</event>
<event>
 4    1  0.5694171E+003  0.1519751E+03  0.7546771E-02  0.1198067E+00
         21   -1    0    0  502  501  0.00000000000E+00  0.00000000000E+00  0.63836223831E+03  0.63836223831E+03  0.00000000000E+00 0. -1.
         21   -1    0    0  503  502 -0.00000000000E+00 -0.00000000000E+00 -0.53453415897E+02  0.53453415897E+02  0.00000000000E+00 0. -1.
         21    1    1    2  503  504  0.14804510633E+03  0.34337576373E+02  0.95823233219E+02  0.17966222386E+03  0.00000000000E+00 0. -1.
         21    1    1    2  504  501 -0.14804510633E+03 -0.34337576373E+02  0.48908558919E+03  0.51215343034E+03  0.00000000000E+00 0. -1.
<mgrwt>
<rscale>  2 0.15197507E+03</rscale>
<asrwt>0</asrwt>
<pdfrwt beam="1">  1       21 0.98209570E-01 0.15197507E+03</pdfrwt>
<pdfrwt beam="2">  1       21 0.82236029E-02 0.15197507E+03</pdfrwt>
<totfact> 0.99688336E+04</totfact>
</mgrwt>
</event>
<event>
 4    1  0.5694171E+003  0.1084851E+03  0.7546771E-02  0.1263401E+00
         21   -1    0    0  503  501  0.00000000000E+00  0.00000000000E+00  0.57320362434E+03  0.57320362434E+03  0.00000000000E+00 0. -1.
         21   -1    0    0  501  502 -0.00000000000E+00 -0.00000000000E+00 -0.13571965777E+03  0.13571965777E+03  0.00000000000E+00 0. -1.
         21    1    1    2  503  504 -0.46922970766E+01 -0.10838362466E+03  0.54529282207E+03  0.55597957655E+03  0.00000000000E+00 0. -1.
         21    1    1    2  504  502  0.46922970766E+01  0.10838362466E+03 -0.10780885549E+03  0.15294370556E+03  0.00000000000E+00 0. -1.
<mgrwt>
<rscale>  2 0.10848515E+03</rscale>
<asrwt>0</asrwt>
<pdfrwt beam="1">  1       21 0.88185172E-01 0.10848515E+03</pdfrwt>
<pdfrwt beam="2">  1       21 0.20879948E-01 0.10848515E+03</pdfrwt>
<totfact> 0.24814165E+04</totfact>
</mgrwt>
</event>
<event>
 4    1  0.5694171E+003  0.1225201E+03  0.7546771E-02  0.1238997E+00
         21   -1    0    0  504  501  0.00000000000E+00  0.00000000000E+00  0.71614877677E+03  0.71614877677E+03  0.00000000000E+00 0.  1.
         21   -1    0    0  503  502 -0.00000000000E+00 -0.00000000000E+00 -0.20969787744E+02  0.20969787744E+02  0.00000000000E+00 0. -1.
         21    1    1    2  503  501 -0.92527264456E+02  0.80311137523E+02  0.35514691385E+03  0.37568670976E+03  0.00000000000E+00 0.  1.
         21    1    1    2  504  502  0.92527264456E+02 -0.80311137523E+02  0.34003207518E+03  0.36143185475E+03  0.00000000000E+00 0. -1.
<mgrwt>
<rscale>  2 0.12252009E+03</rscale>
<asrwt>0</asrwt>
<pdfrwt beam="1">  1       21 0.11017672E+00 0.12252009E+03</pdfrwt>
<pdfrwt beam="2">  1       21 0.32261217E-02 0.12252009E+03</pdfrwt>
<totfact> 0.37116909E+05</totfact>
</mgrwt>
</event>
<event>
 4    1  0.5694171E+003  0.1390837E+03  0.7546771E-02  0.1214567E+00
         21   -1    0    0  504  501  0.00000000000E+00  0.00000000000E+00  0.93092111367E+03  0.93092111367E+03  0.00000000000E+00 0. -1.
         21   -1    0    0  503  502 -0.00000000000E+00 -0.00000000000E+00 -0.32594496187E+02  0.32594496187E+02  0.00000000000E+00 0. -1.
         21    1    1    2  503  501 -0.30316083292E+02 -0.13573949936E+03  0.73921101913E+03  0.75218163192E+03  0.00000000000E+00 0. -1.
         21    1    1    2  504  502  0.30316083292E+02  0.13573949936E+03  0.15911559835E+03  0.21133397793E+03  0.00000000000E+00 0. -1.
<mgrwt>
<rscale>  2 0.13908370E+03</rscale>
<asrwt>0</asrwt>
<pdfrwt beam="1">  1       21 0.14321861E+00 0.13908370E+03</pdfrwt>
<pdfrwt beam="2">  1       21 0.50145386E-02 0.13908370E+03</pdfrwt>
<totfact> 0.92715369E+04</totfact>
</mgrwt>
</event>
<event>
 4    1  0.5694171E+003  0.1194359E+03  0.7546771E-02  0.1244031E+00
         21   -1    0    0  504  501  0.00000000000E+00  0.00000000000E+00  0.10349829314E+04  0.10349829314E+04  0.00000000000E+00 0.  1.
         21   -1    0    0  503  502 -0.00000000000E+00 -0.00000000000E+00 -0.20068399225E+02  0.20068399225E+02  0.00000000000E+00 0.  1.
         21    1    1    2  503  501 -0.11937739565E+03 -0.37376246329E+01  0.80268801150E+03  0.81152509279E+03  0.00000000000E+00 0.  1.
         21    1    1    2  504  502  0.11937739565E+03  0.37376246329E+01  0.21222652063E+03  0.24352623778E+03  0.00000000000E+00 0.  1.
<mgrwt>
<rscale>  2 0.11943589E+03</rscale>
<asrwt>0</asrwt>
<pdfrwt beam="1">  1       21 0.15922810E+00 0.11943589E+03</pdfrwt>
<pdfrwt beam="2">  1       21 0.30874468E-02 0.11943589E+03</pdfrwt>
<totfact> 0.15911834E+05</totfact>
</mgrwt>
</event>
<event>
 4    1  0.5694171E+003  0.1074025E+03  0.7546771E-02  0.1265457E+00
         21   -1    0    0  502  501  0.00000000000E+00  0.00000000000E+00  0.13616002334E+02  0.13616002334E+02  0.00000000000E+00 0. -1.
         21   -1    0    0  504  502 -0.00000000000E+00 -0.00000000000E+00 -0.88309404067E+03  0.88309404067E+03  0.00000000000E+00 0. -1.
         21    1    1    2  503  501  0.22687898772E+02 -0.10497888405E+03 -0.34433132311E+03  0.36069289835E+03  0.00000000000E+00 0. -1.
         21    1    1    2  504  503 -0.22687898772E+02  0.10497888405E+03 -0.52514671523E+03  0.53601714466E+03  0.00000000000E+00 0. -1.
<mgrwt>
<rscale>  2 0.10740255E+03</rscale>
<asrwt>0</asrwt>
<pdfrwt beam="1">  1       21 0.20947700E-02 0.10740255E+03</pdfrwt>
<pdfrwt beam="2">  1       21 0.13586060E+00 0.10740255E+03</pdfrwt>
<totfact> 0.45088059E+05</totfact>
</mgrwt>
</event>
<event>
 4    1  0.5694171E+003  0.1194334E+03  0.7546771E-02  0.1244035E+00
         21   -1    0    0  504  501  0.00000000000E+00  0.00000000000E+00  0.10414542226E+04  0.10414542226E+04  0.00000000000E+00 0. -1.
         21   -1    0    0  503  502 -0.00000000000E+00 -0.00000000000E+00 -0.54920632380E+03  0.54920632380E+03  0.00000000000E+00 0.  1.
         21    1    1    2  503  501 -0.18132666798E+02 -0.11804891140E+03  0.10314743078E+04  0.10383658251E+04  0.00000000000E+00 0. -1.
         21    1    1    2  504  502  0.18132666798E+02  0.11804891140E+03 -0.53922640897E+03  0.55229472134E+03  0.00000000000E+00 0.  1.
<mgrwt>
<rscale>  2 0.11943341E+03</rscale>
<asrwt>0</asrwt>
<pdfrwt beam="1">  1       21 0.16022373E+00 0.11943341E+03</pdfrwt>
<pdfrwt beam="2">  1       21 0.84493281E-01 0.11943341E+03</pdfrwt>
<totfact> 0.33975915E+02</totfact>
</mgrwt>
</event>
<event>
 4    1  0.5694171E+003  0.1061802E+03  0.7546771E-02  0.1267812E+00
         21   -1    0    0  502  501  0.00000000000E+00  0.00000000000E+00  0.20024592650E+03  0.20024592650E+03  0.00000000000E+00 0.  1.
         21   -1    0    0  504  502 -0.00000000000E+00 -0.00000000000E+00 -0.12057633457E+03  0.12057633457E+03  0.00000000000E+00 0.  1.
         21    1    1    2  503  501  0.21483525827E+02  0.10398405701E+03  0.15695251230E+03  0.18949489996E+03  0.00000000000E+00 0.  1.
         21    1    1    2  504  503 -0.21483525827E+02 -0.10398405701E+03 -0.77282920376E+02  0.13132736111E+03  0.00000000000E+00 0.  1.
<mgrwt>
<rscale>  2 0.10618016E+03</rscale>
<asrwt>0</asrwt>
<pdfrwt beam="1">  1       21 0.30807066E-01 0.10618016E+03</pdfrwt>
<pdfrwt beam="2">  1       21 0.18550205E-01 0.10618016E+03</pdfrwt>
<totfact> 0.27377822E+05</totfact>
</mgrwt>
</event>
<event>
 4    1  0.5694171E+003  0.1137123E+03  0.7546771E-02  0.1253846E+00
         21   -1    0    0  504  501  0.00000000000E+00  0.00000000000E+00  0.52738771113E+03  0.52738771113E+03  0.00000000000E+00 0. -1.
         21   -1    0    0  501  502 -0.00000000000E+00 -0.00000000000E+00 -0.39284310824E+02  0.39284310824E+02  0.00000000000E+00 0. -1.
         21    1    1    2  503  502  0.28874996967E+02 -0.10998514529E+03  0.70340408683E+02  0.13370965084E+03  0.00000000000E+00 0. -1.
         21    1    1    2  504  503 -0.28874996967E+02  0.10998514529E+03  0.41776299162E+03  0.43296237112E+03  0.00000000000E+00 0. -1.
<mgrwt>
<rscale>  2 0.11371235E+03</rscale>
<asrwt>0</asrwt>
<pdfrwt beam="1">  1       21 0.81136566E-01 0.11371235E+03</pdfrwt>
<pdfrwt beam="2">  1       21 0.60437405E-02 0.11371235E+03</pdfrwt>
<totfact> 0.26474181E+05</totfact>
</mgrwt>
</event>
<event>
 4    1  0.5694171E+003  0.1337140E+03  0.7546771E-02  0.1222047E+00
         21   -1    0    0  503  501  0.00000000000E+00  0.00000000000E+00  0.51114960965E+03  0.51114960965E+03  0.00000000000E+00 0.  1.
         21   -1    0    0  501  502 -0.00000000000E+00 -0.00000000000E+00 -0.36925258807E+02  0.36925258807E+02  0.00000000000E+00 0.  1.
         21    1    1    2  503  504  0.61796512575E+02  0.11857745730E+03  0.30002886196E+03  0.32847639238E+03  0.00000000000E+00 0.  1.
         21    1    1    2  504  502 -0.61796512575E+02 -0.11857745730E+03  0.17419548889E+03  0.21959847608E+03  0.00000000000E+00 0.  1.
<mgrwt>
<rscale>  2 0.13371396E+03</rscale>
<asrwt>0</asrwt>
<pdfrwt beam="1">  1       21 0.78638396E-01 0.13371396E+03</pdfrwt>
<pdfrwt beam="2">  1       21 0.56808094E-02 0.13371396E+03</pdfrwt>
<totfact> 0.31378588E+05</totfact>
</mgrwt>
</event>
<event>
 4    1  0.5694171E+003  0.1083352E+03  0.7546771E-02  0.1263684E+00
         21   -1    0    0  503  501  0.00000000000E+00  0.00000000000E+00  0.71874144737E+02  0.71874144737E+02  0.00000000000E+00 0.  1.
         21   -1    0    0  504  502 -0.00000000000E+00 -0.00000000000E+00 -0.32370535303E+03  0.32370535303E+03  0.00000000000E+00 0. -1.
         21    1    1    2  503  502  0.61549889486E+01 -0.10816024188E+03  0.13319317416E+02  0.10915093233E+03  0.00000000000E+00 0.  1.
         21    1    1    2  504  501 -0.61549889486E+01  0.10816024188E+03 -0.26515052571E+03  0.28642856543E+03  0.00000000000E+00 0. -1.
<mgrwt>
<rscale>  2 0.10833523E+03</rscale>
<asrwt>0</asrwt>
<pdfrwt beam="1">  1       21 0.11057561E-01 0.10833523E+03</pdfrwt>
<pdfrwt beam="2">  1       21 0.49800822E-01 0.10833523E+03</pdfrwt>
<totfact> 0.26604109E+05</totfact>
</mgrwt>
</event>
<event>
 4    1  0.5694171E+003  0.1088629E+03  0.7546771E-02  0.1262690E+00
         21   -1    0    0  503  501  0.00000000000E+00  0.00000000000E+00  0.37586776089E+02  0.37586776089E+02  0.00000000000E+00 0. -1.
         21   -1    0    0  504  502 -0.00000000000E+00 -0.00000000000E+00 -0.32089664964E+03  0.32089664964E+03  0.00000000000E+00 0.  1.
         21    1    1    2  503  502  0.10880269523E+03  0.36201087287E+01 -0.11798491295E+03  0.16053526516E+03  0.00000000000E+00 0.  1.
         21    1    1    2  504  501 -0.10880269523E+03 -0.36201087287E+01 -0.16532496060E+03  0.19794816057E+03  0.00000000000E+00 0. -1.
<mgrwt>
<rscale>  2 0.10886290E+03</rscale>
<asrwt>0</asrwt>
<pdfrwt beam="1">  1       21 0.57825809E-02 0.10886290E+03</pdfrwt>
<pdfrwt beam="2">  1       21 0.49368716E-01 0.10886290E+03</pdfrwt>
<totfact> 0.82457993E+05</totfact>
</mgrwt>
</event>
<event>
 4    1  0.5694171E+003  0.1310727E+03  0.7546771E-02  0.1225873E+00
         21   -1    0    0  504  501  0.00000000000E+00  0.00000000000E+00  0.20031933114E+03  0.20031933114E+03  0.00000000000E+00 0.  1.
         21   -1    0    0  501  502 -0.00000000000E+00 -0.00000000000E+00 -0.86457546906E+02  0.86457546906E+02  0.00000000000E+00 0.  1.
         21    1    1    2  503  502  0.69328703982E+02  0.11123655473E+03  0.44081577998E+02  0.13828675216E+03  0.00000000000E+00 0.  1.
         21    1    1    2  504  503 -0.69328703982E+02 -0.11123655473E+03  0.69780206241E+02  0.14849012589E+03  0.00000000000E+00 0.  1.
<mgrwt>
<rscale>  2 0.13107265E+03</rscale>
<asrwt>0</asrwt>
<pdfrwt beam="1">  1       21 0.30818359E-01 0.13107265E+03</pdfrwt>
<pdfrwt beam="2">  1       21 0.13301161E-01 0.13107265E+03</pdfrwt>
<totfact> 0.49713437E+05</totfact>
</mgrwt>
</event>
<event>
 4    1  0.5694171E+003  0.1107349E+03  0.7546771E-02  0.1259215E+00
         21   -1    0    0  503  501  0.00000000000E+00  0.00000000000E+00  0.22919534950E+03  0.22919534950E+03  0.00000000000E+00 0. -1.
         21   -1    0    0  504  502 -0.00000000000E+00 -0.00000000000E+00 -0.97340777045E+03  0.97340777045E+03  0.00000000000E+00 0.  1.
         21    1    1    2  503  502 -0.10207192571E+03 -0.42936441185E+02  0.21243723771E+03  0.23956584891E+03  0.00000000000E+00 0. -1.
         21    1    1    2  504  501  0.10207192571E+03  0.42936441185E+02 -0.95664965866E+03  0.96303727104E+03  0.00000000000E+00 0.  1.
<mgrwt>
<rscale>  2 0.11073489E+03</rscale>
<asrwt>0</asrwt>
<pdfrwt beam="1">  1       21 0.35260823E-01 0.11073489E+03</pdfrwt>
<pdfrwt beam="2">  1       21 0.14975504E+00 0.11073489E+03</pdfrwt>
<totfact> 0.25572084E+03</totfact>
</mgrwt>
</event>
<event>
 4    1  0.5694171E+003  0.1083599E+03  0.7546771E-02  0.1263638E+00
         21   -1    0    0  503  501  0.00000000000E+00  0.00000000000E+00  0.14277911314E+03  0.14277911314E+03  0.00000000000E+00 0. -1.
         21   -1    0    0  504  502 -0.00000000000E+00 -0.00000000000E+00 -0.82302266112E+02  0.82302266112E+02  0.00000000000E+00 0. -1.
         21    1    1    2  503  502 -0.92509419997E+02 -0.56425878138E+02  0.27094263709E+02  0.11169588908E+03  0.00000000000E+00 0. -1.
         21    1    1    2  504  501  0.92509419997E+02  0.56425878138E+02  0.33382583320E+02  0.11338549017E+03  0.00000000000E+00 0. -1.
<mgrwt>
<rscale>  2 0.10835992E+03</rscale>
<asrwt>0</asrwt>
<pdfrwt beam="1">  1       21 0.21966017E-01 0.10835992E+03</pdfrwt>
<pdfrwt beam="2">  1       21 0.12661887E-01 0.10835992E+03</pdfrwt>
<totfact> 0.10303910E+06</totfact>
</mgrwt>
</event>
<event>
 4    1  0.5694171E+003  0.1169070E+03  0.7546771E-02  0.1248289E+00
         21   -1    0    0  503  501  0.00000000000E+00  0.00000000000E+00  0.76935335296E+01  0.76935335296E+01  0.00000000000E+00 0. -1.
         21   -1    0    0  504  502 -0.00000000000E+00 -0.00000000000E+00 -0.21168559563E+04  0.21168559563E+04  0.00000000000E+00 0. -1.
         21    1    1    2  503  502  0.86007502641E+02  0.79183067398E+02 -0.62860643032E+03  0.63938508969E+03  0.00000000000E+00 0. -1.
         21    1    1    2  504  501 -0.86007502641E+02 -0.79183067398E+02 -0.14805559924E+04  0.14851644001E+04  0.00000000000E+00 0. -1.
<mgrwt>
<rscale>  2 0.11690701E+03</rscale>
<asrwt>0</asrwt>
<pdfrwt beam="1">  1       21 0.11836197E-02 0.11690701E+03</pdfrwt>
<pdfrwt beam="2">  1       21 0.32567038E+00 0.11690701E+03</pdfrwt>
<totfact> 0.75652074E+04</totfact>
</mgrwt>
</event>
<event>
 4    1  0.5694171E+003  0.1544940E+03  0.7546771E-02  0.1195057E+00
         21   -1    0    0  503  501  0.00000000000E+00  0.00000000000E+00  0.12886662971E+02  0.12886662971E+02  0.00000000000E+00 0. -1.
         21   -1    0    0  504  502 -0.00000000000E+00 -0.00000000000E+00 -0.20228535633E+04  0.20228535633E+04  0.00000000000E+00 0.  1.
         21    1    1    2  503  502  0.57269802366E+02 -0.14348715105E+03 -0.70932118587E+03  0.72595105724E+03  0.00000000000E+00 0. -1.
         21    1    1    2  504  501 -0.57269802366E+02  0.14348715105E+03 -0.13006457145E+04  0.13097891690E+04  0.00000000000E+00 0.  1.
<mgrwt>
<rscale>  2 0.15449399E+03</rscale>
<asrwt>0</asrwt>
<pdfrwt beam="1">  1       21 0.19825657E-02 0.15449399E+03</pdfrwt>
<pdfrwt beam="2">  1       21 0.31120790E+00 0.15449399E+03</pdfrwt>
<totfact> 0.38212613E+04</totfact>
</mgrwt>
</event>
<event>
 4    1  0.5694171E+003  0.1018236E+03  0.7546771E-02  0.1276507E+00
         21   -1    0    0  504  501  0.00000000000E+00  0.00000000000E+00  0.65697960356E+02  0.65697960356E+02  0.00000000000E+00 0.  1.
         21   -1    0    0  501  502 -0.00000000000E+00 -0.00000000000E+00 -0.19433892594E+03  0.19433892594E+03  0.00000000000E+00 0.  1.
         21    1    1    2  503  502 -0.13310786457E+02 -0.10094979902E+03 -0.12068703226E+03  0.15790313079E+03  0.00000000000E+00 0.  1.
         21    1    1    2  504  503  0.13310786457E+02  0.10094979902E+03 -0.79539333221E+01  0.10213375550E+03  0.00000000000E+00 0.  1.
<mgrwt>
<rscale>  2 0.10182357E+03</rscale>
<asrwt>0</asrwt>
<pdfrwt beam="1">  1       21 0.10107379E-01 0.10182357E+03</pdfrwt>
<pdfrwt beam="2">  1       21 0.29898296E-01 0.10182357E+03</pdfrwt>
<totfact> 0.85500098E+05</totfact>
</mgrwt>
</event>
<event>
 4    1  0.5694171E+003  0.1067976E+03  0.7546771E-02  0.1266618E+00
         21   -1    0    0  504  501  0.00000000000E+00  0.00000000000E+00  0.25067293839E+03  0.25067293839E+03  0.00000000000E+00 0.  1.
         21   -1    0    0  503  502 -0.00000000000E+00 -0.00000000000E+00 -0.62674794930E+02  0.62674794930E+02  0.00000000000E+00 0. -1.
         21    1    1    2  503  501  0.10314197504E+03  0.27702946266E+02  0.11984549534E+02  0.10746790067E+03  0.00000000000E+00 0. -1.
         21    1    1    2  504  502 -0.10314197504E+03 -0.27702946266E+02  0.17601359393E+03  0.20587983266E+03  0.00000000000E+00 0.  1.
<mgrwt>
<rscale>  2 0.10679757E+03</rscale>
<asrwt>0</asrwt>
<pdfrwt beam="1">  1       21 0.38565067E-01 0.10679757E+03</pdfrwt>
<pdfrwt beam="2">  1       21 0.96422763E-02 0.10679757E+03</pdfrwt>
<totfact> 0.56559312E+05</totfact>
</mgrwt>
</event>
<event>
 4    1  0.5694171E+003  0.1471207E+03  0.7546771E-02  0.1204056E+00
         21   -1    0    0  504  501  0.00000000000E+00  0.00000000000E+00  0.14931618924E+04  0.14931618924E+04  0.00000000000E+00 0. -1.
         21   -1    0    0  503  502 -0.00000000000E+00 -0.00000000000E+00 -0.17484228982E+03  0.17484228982E+03  0.00000000000E+00 0. -1.
         21    1    1    2  503  501  0.14360363328E+03 -0.31976526356E+02  0.14578414262E+04  0.14652460973E+04  0.00000000000E+00 0. -1.
         21    1    1    2  504  502 -0.14360363328E+03  0.31976526356E+02 -0.13952182362E+03  0.20275808491E+03  0.00000000000E+00 0. -1.
<mgrwt>
<rscale>  2 0.14712070E+03</rscale>
<asrwt>0</asrwt>
<pdfrwt beam="1">  1       21 0.22971721E+00 0.14712070E+03</pdfrwt>
<pdfrwt beam="2">  1       21 0.26898815E-01 0.14712070E+03</pdfrwt>
<totfact> 0.12264307E+03</totfact>
</mgrwt>
</event>
<event>
 4    1  0.5694171E+003  0.1018246E+03  0.7546771E-02  0.1276505E+00
         21   -1    0    0  503  501  0.00000000000E+00  0.00000000000E+00  0.14088768227E+03  0.14088768227E+03  0.00000000000E+00 0. -1.
         21   -1    0    0  504  502 -0.00000000000E+00 -0.00000000000E+00 -0.25350793991E+03  0.25350793991E+03  0.00000000000E+00 0.  1.
         21    1    1    2  503  502  0.32216907462E+02  0.96593578122E+02 -0.22243733706E+03  0.24463568296E+03  0.00000000000E+00 0.  1.
         21    1    1    2  504  501 -0.32216907462E+02 -0.96593578122E+02  0.10981707942E+03  0.14975993922E+03  0.00000000000E+00 0. -1.
<mgrwt>
<rscale>  2 0.10182460E+03</rscale>
<asrwt>0</asrwt>
<pdfrwt beam="1">  1       21 0.21675028E-01 0.10182460E+03</pdfrwt>
<pdfrwt beam="2">  1       21 0.39001221E-01 0.10182460E+03</pdfrwt>
<totfact> 0.12997075E+05</totfact>
</mgrwt>
</event>
<event>
 4    1  0.5694171E+003  0.1134486E+03  0.7546771E-02  0.1254314E+00
         21   -1    0    0  504  501  0.00000000000E+00  0.00000000000E+00  0.64365225897E+02  0.64365225897E+02  0.00000000000E+00 0.  1.
         21   -1    0    0  503  502 -0.00000000000E+00 -0.00000000000E+00 -0.20575869274E+03  0.20575869274E+03  0.00000000000E+00 0.  1.
         21    1    1    2  503  501  0.54467441083E+02 -0.99518226521E+02 -0.48026521188E+02  0.12319547997E+03  0.00000000000E+00 0.  1.
         21    1    1    2  504  502 -0.54467441083E+02  0.99518226521E+02 -0.93366945658E+02  0.14692843867E+03  0.00000000000E+00 0.  1.
<mgrwt>
<rscale>  2 0.11344858E+03</rscale>
<asrwt>0</asrwt>
<pdfrwt beam="1">  1       21 0.99023425E-02 0.11344858E+03</pdfrwt>
<pdfrwt beam="2">  1       21 0.31655183E-01 0.11344858E+03</pdfrwt>
<totfact> 0.79455843E+05</totfact>
</mgrwt>
</event>
<event>
 4    1  0.5694171E+003  0.1450126E+03  0.7546771E-02  0.1206739E+00
         21   -1    0    0  503  501  0.00000000000E+00  0.00000000000E+00  0.85789787839E+03  0.85789787839E+03  0.00000000000E+00 0. -1.
         21   -1    0    0  501  502 -0.00000000000E+00 -0.00000000000E+00 -0.40501838865E+02  0.40501838865E+02  0.00000000000E+00 0.  1.
         21    1    1    2  503  504 -0.78360938557E+02 -0.12201728966E+03  0.69094314802E+03  0.70599652228E+03  0.00000000000E+00 0. -1.
         21    1    1    2  504  502  0.78360938557E+02  0.12201728966E+03  0.12645289151E+03  0.19240319498E+03  0.00000000000E+00 0.  1.
<mgrwt>
<rscale>  2 0.14501261E+03</rscale>
<asrwt>0</asrwt>
<pdfrwt beam="1">  1       21 0.13198428E+00 0.14501261E+03</pdfrwt>
<pdfrwt beam="2">  1       21 0.62310528E-02 0.14501261E+03</pdfrwt>
<totfact> 0.78722886E+04</totfact>
</mgrwt>
</event>
<event>
 4    1  0.5694171E+003  0.1370267E+03  0.7546771E-02  0.1217387E+00
         21   -1    0    0  502  501  0.00000000000E+00  0.00000000000E+00  0.18271546157E+03  0.18271546157E+03  0.00000000000E+00 0. -1.
         21   -1    0    0  503  502 -0.00000000000E+00 -0.00000000000E+00 -0.13548331515E+03  0.13548331515E+03  0.00000000000E+00 0. -1.
         21    1    1    2  503  504 -0.50615769669E+02  0.12733561263E+03 -0.54571377078E+02  0.14749355775E+03  0.00000000000E+00 0. -1.
         21    1    1    2  504  501  0.50615769669E+02 -0.12733561263E+03  0.10180352350E+03  0.17070521896E+03  0.00000000000E+00 0. -1.
<mgrwt>
<rscale>  2 0.13702669E+03</rscale>
<asrwt>0</asrwt>
<pdfrwt beam="1">  1       21 0.28110071E-01 0.13702669E+03</pdfrwt>
<pdfrwt beam="2">  1       21 0.20843587E-01 0.13702669E+03</pdfrwt>
<totfact> 0.26170041E+05</totfact>
</mgrwt>
</event>
<event>
 4    1  0.5694171E+003  0.1006355E+03  0.7546771E-02  0.1278965E+00
         21   -1    0    0  504  501  0.00000000000E+00  0.00000000000E+00  0.90224887942E+03  0.90224887942E+03  0.00000000000E+00 0. -1.
         21   -1    0    0  503  502 -0.00000000000E+00 -0.00000000000E+00 -0.11256451184E+02  0.11256451184E+02  0.00000000000E+00 0. -1.
         21    1    1    2  503  501 -0.34083254344E+02 -0.94688142635E+02  0.46973774480E+03  0.48039677504E+03  0.00000000000E+00 0. -1.
         21    1    1    2  504  502  0.34083254344E+02  0.94688142635E+02  0.42125468344E+03  0.43310855556E+03  0.00000000000E+00 0. -1.
<mgrwt>
<rscale>  2 0.10063554E+03</rscale>
<asrwt>0</asrwt>
<pdfrwt beam="1">  1       21 0.13880746E+00 0.10063554E+03</pdfrwt>
<pdfrwt beam="2">  1       21 0.17317624E-02 0.10063554E+03</pdfrwt>
<totfact> 0.58050267E+05</totfact>
</mgrwt>
</event>
<event>
 4    1  0.5694171E+003  0.1794985E+03  0.7546771E-02  0.1168289E+00
         21   -1    0    0  504  501  0.00000000000E+00  0.00000000000E+00  0.33367493908E+03  0.33367493908E+03  0.00000000000E+00 0. -1.
         21   -1    0    0  503  502 -0.00000000000E+00 -0.00000000000E+00 -0.78609311071E+03  0.78609311071E+03  0.00000000000E+00 0.  1.
         21    1    1    2  503  501 -0.11118544595E+03 -0.14091661924E+03  0.29816183690E+03  0.34802324341E+03  0.00000000000E+00 0. -1.
         21    1    1    2  504  502  0.11118544595E+03  0.14091661924E+03 -0.75058000854E+03  0.77174480638E+03  0.00000000000E+00 0.  1.
<mgrwt>
<rscale>  2 0.17949846E+03</rscale>
<asrwt>0</asrwt>
<pdfrwt beam="1">  1       21 0.51334606E-01 0.17949846E+03</pdfrwt>
<pdfrwt beam="2">  1       21 0.12093740E+00 0.17949846E+03</pdfrwt>
<totfact> 0.18918031E+03</totfact>
</mgrwt>
</event>
<event>
 4    1  0.5694171E+003  0.1076529E+03  0.7546771E-02  0.1264979E+00
         21   -1    0    0  503  501  0.00000000000E+00  0.00000000000E+00  0.24377111020E+04  0.24377111020E+04  0.00000000000E+00 0.  1.
         21   -1    0    0  504  502 -0.00000000000E+00 -0.00000000000E+00 -0.16507963957E+02  0.16507963957E+02  0.00000000000E+00 0.  1.
         21    1    1    2  503  502 -0.66288785753E+02 -0.84822961441E+02  0.17515716342E+03  0.20559467357E+03  0.00000000000E+00 0.  1.
         21    1    1    2  504  501  0.66288785753E+02  0.84822961441E+02  0.22460459746E+04  0.22486243924E+04  0.00000000000E+00 0.  1.
<mgrwt>
<rscale>  2 0.10765286E+03</rscale>
<asrwt>0</asrwt>
<pdfrwt beam="1">  1       21 0.37503219E+00 0.10765286E+03</pdfrwt>
<pdfrwt beam="2">  1       21 0.25396887E-02 0.10765286E+03</pdfrwt>
<totfact> 0.11810149E+04</totfact>
</mgrwt>
</event>
<event>
 4    1  0.5694171E+003  0.1106032E+03  0.7546771E-02  0.1259457E+00
         21   -1    0    0  504  501  0.00000000000E+00  0.00000000000E+00  0.38024280502E+03  0.38024280502E+03  0.00000000000E+00 0. -1.
         21   -1    0    0  501  502 -0.00000000000E+00 -0.00000000000E+00 -0.63933174739E+02  0.63933174739E+02  0.00000000000E+00 0. -1.
         21    1    1    2  503  502  0.10843376871E+03  0.21798950968E+02  0.16196463942E+01  0.11061509713E+03  0.00000000000E+00 0. -1.
         21    1    1    2  504  503 -0.10843376871E+03 -0.21798950968E+02  0.31468998388E+03  0.33356088262E+03  0.00000000000E+00 0. -1.
<mgrwt>
<rscale>  2 0.11060324E+03</rscale>
<asrwt>0</asrwt>
<pdfrwt beam="1">  1       21 0.58498892E-01 0.11060324E+03</pdfrwt>
<pdfrwt beam="2">  1       21 0.98358733E-02 0.11060324E+03</pdfrwt>
<totfact> 0.23349691E+05</totfact>
</mgrwt>
</event>
<event>
 4    1  0.5694171E+003  0.1143437E+03  0.7546771E-02  0.1252731E+00
         21   -1    0    0  503  501  0.00000000000E+00  0.00000000000E+00  0.32863681978E+02  0.32863681978E+02  0.00000000000E+00 0.  1.
         21   -1    0    0  504  502 -0.00000000000E+00 -0.00000000000E+00 -0.43626007339E+03  0.43626007339E+03  0.00000000000E+00 0. -1.
         21    1    1    2  503  502 -0.33393594597E+02  0.10935882283E+03 -0.13208937159E+03  0.17470571364E+03  0.00000000000E+00 0.  1.
         21    1    1    2  504  501  0.33393594597E+02 -0.10935882283E+03 -0.27130701983E+03  0.29441804173E+03  0.00000000000E+00 0. -1.
<mgrwt>
<rscale>  2 0.11434371E+03</rscale>
<asrwt>0</asrwt>
<pdfrwt beam="1">  1       21 0.50559509E-02 0.11434371E+03</pdfrwt>
<pdfrwt beam="2">  1       21 0.67116937E-01 0.11434371E+03</pdfrwt>
<totfact> 0.54188601E+05</totfact>
</mgrwt>
</event>
<event>
 4    1  0.5694171E+003  0.1227701E+03  0.7546771E-02  0.1238596E+00
         21   -1    0    0  503  501  0.00000000000E+00  0.00000000000E+00  0.14755227525E+02  0.14755227525E+02  0.00000000000E+00 0. -1.
         21   -1    0    0  504  502 -0.00000000000E+00 -0.00000000000E+00 -0.16371116308E+04  0.16371116308E+04  0.00000000000E+00 0. -1.
         21    1    1    2  503  502 -0.11869296168E+03 -0.31376280302E+02 -0.30470239701E+03  0.32850576990E+03  0.00000000000E+00 0. -1.
         21    1    1    2  504  501  0.11869296168E+03  0.31376280302E+02 -0.13176540063E+04  0.13233610884E+04  0.00000000000E+00 0. -1.
<mgrwt>
<rscale>  2 0.12277007E+03</rscale>
<asrwt>0</asrwt>
<pdfrwt beam="1">  1       21 0.22700353E-02 0.12277007E+03</pdfrwt>
<pdfrwt beam="2">  1       21 0.25186329E+00 0.12277007E+03</pdfrwt>
<totfact> 0.68849006E+04</totfact>
</mgrwt>
</event>
<event>
 4    1  0.5694171E+003  0.1405463E+03  0.7546771E-02  0.1212596E+00
         21   -1    0    0  502  501  0.00000000000E+00  0.00000000000E+00  0.59037089630E+03  0.59037089630E+03  0.00000000000E+00 0. -1.
         21   -1    0    0  503  502 -0.00000000000E+00 -0.00000000000E+00 -0.14205611837E+03  0.14205611837E+03  0.00000000000E+00 0. -1.
         21    1    1    2  503  504 -0.57845736552E+02 -0.12809038491E+03 -0.96036727465E+02  0.17022434892E+03  0.00000000000E+00 0. -1.
         21    1    1    2  504  501  0.57845736552E+02  0.12809038491E+03  0.54435150540E+03  0.56220266575E+03  0.00000000000E+00 0. -1.
<mgrwt>
<rscale>  2 0.14054635E+03</rscale>
<asrwt>0</asrwt>
<pdfrwt beam="1">  1       21 0.90826290E-01 0.14054635E+03</pdfrwt>
<pdfrwt beam="2">  1       21 0.21854788E-01 0.14054635E+03</pdfrwt>
<totfact> 0.20793401E+04</totfact>
</mgrwt>
</event>
<event>
 4    1  0.5694171E+003  0.1051826E+03  0.7546771E-02  0.1269760E+00
         21   -1    0    0  504  501  0.00000000000E+00  0.00000000000E+00  0.27407016341E+03  0.27407016341E+03  0.00000000000E+00 0.  1.
         21   -1    0    0  503  502 -0.00000000000E+00 -0.00000000000E+00 -0.47943272245E+02  0.47943272245E+02  0.00000000000E+00 0.  1.
         21    1    1    2  503  501 -0.10509681166E+03 -0.42466823316E+01  0.17706781690E+03  0.20595238750E+03  0.00000000000E+00 0.  1.
         21    1    1    2  504  502  0.10509681166E+03  0.42466823316E+01  0.49059074267E+02  0.11606104816E+03  0.00000000000E+00 0.  1.
<mgrwt>
<rscale>  2 0.10518258E+03</rscale>
<asrwt>0</asrwt>
<pdfrwt beam="1">  1       21 0.42164640E-01 0.10518258E+03</pdfrwt>
<pdfrwt beam="2">  1       21 0.73758882E-02 0.10518258E+03</pdfrwt>
<totfact> 0.75100290E+05</totfact>
</mgrwt>
</event>
<event>
 4    1  0.5694171E+003  0.1196605E+03  0.7546771E-02  0.1243658E+00
         21   -1    0    0  503  501  0.00000000000E+00  0.00000000000E+00  0.12232747981E+03  0.12232747981E+03  0.00000000000E+00 0. -1.
         21   -1    0    0  504  502 -0.00000000000E+00 -0.00000000000E+00 -0.19514200361E+03  0.19514200361E+03  0.00000000000E+00 0. -1.
         21    1    1    2  503  502  0.11373694303E+03  0.37182530440E+02  0.64006980853E+02  0.13570381858E+03  0.00000000000E+00 0. -1.
         21    1    1    2  504  501 -0.11373694303E+03 -0.37182530440E+02 -0.13682150466E+03  0.18176566484E+03  0.00000000000E+00 0. -1.
<mgrwt>
<rscale>  2 0.11966049E+03</rscale>
<asrwt>0</asrwt>
<pdfrwt beam="1">  1       21 0.18819612E-01 0.11966049E+03</pdfrwt>
<pdfrwt beam="2">  1       21 0.30021847E-01 0.11966049E+03</pdfrwt>
<totfact> 0.27946734E+05</totfact>
</mgrwt>
</event>
<event>
 4    1  0.5694171E+003  0.1024637E+03  0.7546771E-02  0.1275199E+00
         21   -1    0    0  503  501  0.00000000000E+00  0.00000000000E+00  0.85966229766E+02  0.85966229766E+02  0.00000000000E+00 0.  1.
         21   -1    0    0  504  502 -0.00000000000E+00 -0.00000000000E+00 -0.18707795801E+03  0.18707795801E+03  0.00000000000E+00 0. -1.
         21    1    1    2  503  502 -0.60753665881E+02 -0.82509460792E+02 -0.13099799800E+03  0.16631083704E+03  0.00000000000E+00 0. -1.
         21    1    1    2  504  501  0.60753665881E+02  0.82509460792E+02  0.29886269757E+02  0.10673335073E+03  0.00000000000E+00 0.  1.
<mgrwt>
<rscale>  2 0.10246374E+03</rscale>
<asrwt>0</asrwt>
<pdfrwt beam="1">  1       21 0.13225574E-01 0.10246374E+03</pdfrwt>
<pdfrwt beam="2">  1       21 0.28781224E-01 0.10246374E+03</pdfrwt>
<totfact> 0.57347185E+05</totfact>
</mgrwt>
</event>
<event>
 4    1  0.5694171E+003  0.1139843E+03  0.7546771E-02  0.1253365E+00
         21   -1    0    0  503  501  0.00000000000E+00  0.00000000000E+00  0.68923738068E+02  0.68923738068E+02  0.00000000000E+00 0.  1.
         21   -1    0    0  504  502 -0.00000000000E+00 -0.00000000000E+00 -0.74039259825E+03  0.74039259825E+03  0.00000000000E+00 0.  1.
         21    1    1    2  503  502  0.10367980792E+03 -0.47359388248E+02 -0.68510225698E+03  0.69451963021E+03  0.00000000000E+00 0.  1.
         21    1    1    2  504  501 -0.10367980792E+03  0.47359388248E+02  0.13633396794E+02  0.11479670611E+03  0.00000000000E+00 0.  1.
<mgrwt>
<rscale>  2 0.11398427E+03</rscale>
<asrwt>0</asrwt>
<pdfrwt beam="1">  1       21 0.10603652E-01 0.11398427E+03</pdfrwt>
<pdfrwt beam="2">  1       21 0.11390655E+00 0.11398427E+03</pdfrwt>
<totfact> 0.45950919E+04</totfact>
</mgrwt>
</event>
<event>
 4    1  0.5694171E+003  0.1063805E+03  0.7546771E-02  0.1267423E+00
         21   -1    0    0  503  501  0.00000000000E+00  0.00000000000E+00  0.61894552829E+03  0.61894552829E+03  0.00000000000E+00 0. -1.
         21   -1    0    0  504  502 -0.00000000000E+00 -0.00000000000E+00 -0.20273905205E+02  0.20273905205E+02  0.00000000000E+00 0. -1.
         21    1    1    2  503  502  0.52968746853E+02 -0.92255723210E+02  0.39946629299E+03  0.41338858940E+03  0.00000000000E+00 0. -1.
         21    1    1    2  504  501 -0.52968746853E+02  0.92255723210E+02  0.19920533010E+03  0.22583084410E+03  0.00000000000E+00 0. -1.
<mgrwt>
<rscale>  2 0.10638048E+03</rscale>
<asrwt>0</asrwt>
<pdfrwt beam="1">  1       21 0.95222374E-01 0.10638048E+03</pdfrwt>
<pdfrwt beam="2">  1       21 0.31190628E-02 0.10638048E+03</pdfrwt>
<totfact> 0.55380893E+05</totfact>
</mgrwt>
</event>
<event>
 4    1  0.5694171E+003  0.1240856E+03  0.7546771E-02  0.1236505E+00
         21   -1    0    0  503  501  0.00000000000E+00  0.00000000000E+00  0.24717167441E+03  0.24717167441E+03  0.00000000000E+00 0.  1.
         21   -1    0    0  504  502 -0.00000000000E+00 -0.00000000000E+00 -0.62294687589E+02  0.62294687589E+02  0.00000000000E+00 0.  1.
         21    1    1    2  503  502  0.79528998261E+02 -0.95249027746E+02  0.91823306043E+02  0.15436566452E+03  0.00000000000E+00 0.  1.
         21    1    1    2  504  501 -0.79528998261E+02  0.95249027746E+02  0.93053680774E+02  0.15510069747E+03  0.00000000000E+00 0.  1.
<mgrwt>
<rscale>  2 0.12408561E+03</rscale>
<asrwt>0</asrwt>
<pdfrwt beam="1">  1       21 0.38026411E-01 0.12408561E+03</pdfrwt>
<pdfrwt beam="2">  1       21 0.95837982E-02 0.12408561E+03</pdfrwt>
<totfact> 0.58737784E+05</totfact>
</mgrwt>
</event>
<event>
 4    1  0.5694171E+003  0.1065345E+03  0.7546771E-02  0.1267125E+00
         21   -1    0    0  503  501  0.00000000000E+00  0.00000000000E+00  0.11337900149E+04  0.11337900149E+04  0.00000000000E+00 0. -1.
         21   -1    0    0  504  502 -0.00000000000E+00 -0.00000000000E+00 -0.11592593356E+02  0.11592593356E+02  0.00000000000E+00 0. -1.
         21    1    1    2  503  502 -0.92424751992E+02 -0.52983681623E+02  0.77267671108E+03  0.77998647754E+03  0.00000000000E+00 0. -1.
         21    1    1    2  504  501  0.92424751992E+02  0.52983681623E+02  0.34952071047E+03  0.36539613073E+03  0.00000000000E+00 0. -1.
<mgrwt>
<rscale>  2 0.10653453E+03</rscale>
<asrwt>0</asrwt>
<pdfrwt beam="1">  1       21 0.17442915E+00 0.10653453E+03</pdfrwt>
<pdfrwt beam="2">  1       21 0.17834768E-02 0.10653453E+03</pdfrwt>
<totfact> 0.30518410E+05</totfact>
</mgrwt>
</event>
<event>
 4    1  0.5694171E+003  0.1232478E+03  0.7546771E-02  0.1237833E+00
         21   -1    0    0  503  501  0.00000000000E+00  0.00000000000E+00  0.71870947703E+03  0.71870947703E+03  0.00000000000E+00 0. -1.
         21   -1    0    0  504  502 -0.00000000000E+00 -0.00000000000E+00 -0.24326062411E+02  0.24326062411E+02  0.00000000000E+00 0.  1.
         21    1    1    2  503  502 -0.11643460486E+03  0.40410481951E+02  0.21263606488E+03  0.24577249714E+03  0.00000000000E+00 0.  1.
         21    1    1    2  504  501  0.11643460486E+03 -0.40410481951E+02  0.48174734974E+03  0.49726304231E+03  0.00000000000E+00 0. -1.
<mgrwt>
<rscale>  2 0.12324782E+03</rscale>
<asrwt>0</asrwt>
<pdfrwt beam="1">  1       21 0.11057067E+00 0.12324782E+03</pdfrwt>
<pdfrwt beam="2">  1       21 0.37424717E-02 0.12324782E+03</pdfrwt>
<totfact> 0.28806687E+05</totfact>
</mgrwt>
</event>
<event>
 4    1  0.5694171E+003  0.1330494E+03  0.7546771E-02  0.1223000E+00
         21   -1    0    0  504  501  0.00000000000E+00  0.00000000000E+00  0.92369605576E+03  0.92369605576E+03  0.00000000000E+00 0. -1.
         21   -1    0    0  501  502 -0.00000000000E+00 -0.00000000000E+00 -0.21565876193E+02  0.21565876193E+02  0.00000000000E+00 0.  1.
         21    1    1    2  503  502  0.12261863355E+03 -0.51641240120E+02  0.29335071716E+03  0.32211300848E+03  0.00000000000E+00 0.  1.
         21    1    1    2  504  503 -0.12261863355E+03  0.51641240120E+02  0.60877946240E+03  0.62314892347E+03  0.00000000000E+00 0. -1.
<mgrwt>
<rscale>  2 0.13304942E+03</rscale>
<asrwt>0</asrwt>
<pdfrwt beam="1">  1       21 0.14210705E+00 0.13304942E+03</pdfrwt>
<pdfrwt beam="2">  1       21 0.33178278E-02 0.13304942E+03</pdfrwt>
<totfact> 0.18867181E+05</totfact>
</mgrwt>
</event>
<event>
 4    1  0.5694171E+003  0.1082213E+03  0.7546771E-02  0.1263900E+00
         21   -1    0    0  502  501  0.00000000000E+00  0.00000000000E+00  0.20419547234E+03  0.20419547234E+03  0.00000000000E+00 0. -1.
         21   -1    0    0  503  502 -0.00000000000E+00 -0.00000000000E+00 -0.85286661774E+02  0.85286661774E+02  0.00000000000E+00 0. -1.
         21    1    1    2  503  504 -0.97691626110E+02  0.46563894392E+02 -0.23376283068E+02  0.11071721042E+03  0.00000000000E+00 0. -1.
         21    1    1    2  504  501  0.97691626110E+02 -0.46563894392E+02  0.14228509363E+03  0.17876492369E+03  0.00000000000E+00 0. -1.
<mgrwt>
<rscale>  2 0.10822130E+03</rscale>
<asrwt>0</asrwt>
<pdfrwt beam="1">  1       21 0.31414688E-01 0.10822130E+03</pdfrwt>
<pdfrwt beam="2">  1       21 0.13121025E-01 0.10822130E+03</pdfrwt>
<totfact> 0.49161812E+05</totfact>
</mgrwt>
</event>
<event>
 4    1  0.5694171E+003  0.1014496E+03  0.7546771E-02  0.1277277E+00
         21   -1    0    0  504  501  0.00000000000E+00  0.00000000000E+00  0.19127540054E+03  0.19127540054E+03  0.00000000000E+00 0. -1.
         21   -1    0    0  503  502 -0.00000000000E+00 -0.00000000000E+00 -0.67132443751E+02  0.67132443751E+02  0.00000000000E+00 0. -1.
         21    1    1    2  503  501 -0.68248266361E+02 -0.75061275500E+02  0.11963465230E+03  0.15685812371E+03  0.00000000000E+00 0. -1.
         21    1    1    2  504  502  0.68248266361E+02  0.75061275500E+02  0.45083044841E+01  0.10154972058E+03  0.00000000000E+00 0. -1.
<mgrwt>
<rscale>  2 0.10144960E+03</rscale>
<asrwt>0</asrwt>
<pdfrwt beam="1">  1       21 0.29426984E-01 0.10144960E+03</pdfrwt>
<pdfrwt beam="2">  1       21 0.10328068E-01 0.10144960E+03</pdfrwt>
<totfact> 0.84883706E+05</totfact>
</mgrwt>
</event>
<event>
 4    1  0.5694171E+003  0.1039604E+03  0.7546771E-02  0.1272182E+00
         21   -1    0    0  504  501  0.00000000000E+00  0.00000000000E+00  0.15816390322E+04  0.15816390322E+04  0.00000000000E+00 0.  1.
         21   -1    0    0  503  502 -0.00000000000E+00 -0.00000000000E+00 -0.75437235669E+02  0.75437235669E+02  0.00000000000E+00 0.  1.
         21    1    1    2  503  501  0.22893651548E+02 -0.10140828033E+03  0.15432230638E+04  0.15467207839E+04  0.00000000000E+00 0.  1.
         21    1    1    2  504  502 -0.22893651548E+02  0.10140828033E+03 -0.37021267331E+02  0.11035548394E+03  0.00000000000E+00 0.  1.
<mgrwt>
<rscale>  2 0.10396037E+03</rscale>
<asrwt>0</asrwt>
<pdfrwt beam="1">  1       21 0.24332906E+00 0.10396037E+03</pdfrwt>
<pdfrwt beam="2">  1       21 0.11605730E-01 0.10396037E+03</pdfrwt>
<totfact> 0.50934405E+03</totfact>
</mgrwt>
</event>
<event>
 4    1  0.5694171E+003  0.1296698E+03  0.7546771E-02  0.1227946E+00
         21   -1    0    0  504  501  0.00000000000E+00  0.00000000000E+00  0.78805230973E+02  0.78805230973E+02  0.00000000000E+00 0. -1.
         21   -1    0    0  503  502 -0.00000000000E+00 -0.00000000000E+00 -0.22227662119E+03  0.22227662119E+03  0.00000000000E+00 0. -1.
         21    1    1    2  503  501  0.19462936791E+02 -0.12820083597E+03 -0.10187904882E+03  0.16490482358E+03  0.00000000000E+00 0. -1.
         21    1    1    2  504  502 -0.19462936791E+02  0.12820083597E+03 -0.41592341391E+02  0.13617702858E+03  0.00000000000E+00 0. -1.
<mgrwt>
<rscale>  2 0.12966981E+03</rscale>
<asrwt>0</asrwt>
<pdfrwt beam="1">  1       21 0.12123882E-01 0.12966981E+03</pdfrwt>
<pdfrwt beam="2">  1       21 0.34196403E-01 0.12966981E+03</pdfrwt>
<totfact> 0.47883054E+05</totfact>
</mgrwt>
</event>
<event>
 4    1  0.5694171E+003  0.1054664E+03  0.7546771E-02  0.1269203E+00
         21   -1    0    0  504  501  0.00000000000E+00  0.00000000000E+00  0.14366119714E+02  0.14366119714E+02  0.00000000000E+00 0. -1.
         21   -1    0    0  503  502 -0.00000000000E+00 -0.00000000000E+00 -0.77454501327E+03  0.77454501327E+03  0.00000000000E+00 0. -1.
         21    1    1    2  503  501 -0.10440295392E+03 -0.14939118041E+02 -0.38761707923E+03  0.40170904165E+03  0.00000000000E+00 0. -1.
         21    1    1    2  504  502  0.10440295392E+03  0.14939118041E+02 -0.37256181433E+03  0.38720209133E+03  0.00000000000E+00 0. -1.
<mgrwt>
<rscale>  2 0.10546636E+03</rscale>
<asrwt>0</asrwt>
<pdfrwt beam="1">  1       21 0.22101716E-02 0.10546636E+03</pdfrwt>
<pdfrwt beam="2">  1       21 0.11916080E+00 0.10546636E+03</pdfrwt>
<totfact> 0.57108953E+05</totfact>
</mgrwt>
</event>
<event>
 4    1  0.5694171E+003  0.1402459E+03  0.7546771E-02  0.1212999E+00
         21   -1    0    0  503  501  0.00000000000E+00  0.00000000000E+00  0.53633858321E+02  0.53633858321E+02  0.00000000000E+00 0.  1.
         21   -1    0    0  504  502 -0.00000000000E+00 -0.00000000000E+00 -0.38012236099E+03  0.38012236099E+03  0.00000000000E+00 0.  1.
         21    1    1    2  503  502 -0.40798283203E+02  0.13418049965E+03 -0.20395927230E+03  0.24752432437E+03  0.00000000000E+00 0.  1.
         21    1    1    2  504  501  0.40798283203E+02 -0.13418049965E+03 -0.12252923036E+03  0.18623189494E+03  0.00000000000E+00 0.  1.
<mgrwt>
<rscale>  2 0.14024588E+03</rscale>
<asrwt>0</asrwt>
<pdfrwt beam="1">  1       21 0.82513626E-02 0.14024588E+03</pdfrwt>
<pdfrwt beam="2">  1       21 0.58480365E-01 0.14024588E+03</pdfrwt>
<totfact> 0.31488314E+05</totfact>
</mgrwt>
</event>
<event>
 4    1  0.5694171E+003  0.1069844E+03  0.7546771E-02  0.1266258E+00
         21   -1    0    0  503  501  0.00000000000E+00  0.00000000000E+00  0.27403997910E+03  0.27403997910E+03  0.00000000000E+00 0. -1.
         21   -1    0    0  504  502 -0.00000000000E+00 -0.00000000000E+00 -0.30916295220E+03  0.30916295220E+03  0.00000000000E+00 0. -1.
         21    1    1    2  503  502 -0.27817741669E+02  0.10330453438E+03  0.25362866282E+03  0.27526923580E+03  0.00000000000E+00 0. -1.
         21    1    1    2  504  501  0.27817741669E+02 -0.10330453438E+03 -0.28875163592E+03  0.30793369550E+03  0.00000000000E+00 0. -1.
<mgrwt>
<rscale>  2 0.10698436E+03</rscale>
<asrwt>0</asrwt>
<pdfrwt beam="1">  1       21 0.42159997E-01 0.10698436E+03</pdfrwt>
<pdfrwt beam="2">  1       21 0.47563531E-01 0.10698436E+03</pdfrwt>
<totfact> 0.24219417E+04</totfact>
</mgrwt>
</event>
<event>
 4    1  0.5694171E+003  0.1256250E+03  0.7546771E-02  0.1234096E+00
         21   -1    0    0  504  501  0.00000000000E+00  0.00000000000E+00  0.22275279667E+03  0.22275279667E+03  0.00000000000E+00 0.  1.
         21   -1    0    0  501  502 -0.00000000000E+00 -0.00000000000E+00 -0.78252861323E+03  0.78252861323E+03  0.00000000000E+00 0.  1.
         21    1    1    2  503  502  0.33137326127E+02  0.12117568710E+03 -0.75923495533E+03  0.76955789056E+03  0.00000000000E+00 0.  1.
         21    1    1    2  504  503 -0.33137326127E+02 -0.12117568710E+03  0.19945913877E+03  0.23572351933E+03  0.00000000000E+00 0.  1.
<mgrwt>
<rscale>  2 0.12562496E+03</rscale>
<asrwt>0</asrwt>
<pdfrwt beam="1">  1       21 0.34269661E-01 0.12562496E+03</pdfrwt>
<pdfrwt beam="2">  1       21 0.12038902E+00 0.12562496E+03</pdfrwt>
<totfact> 0.45803395E+03</totfact>
</mgrwt>
</event>
<event>
 4    1  0.5694171E+003  0.1857079E+03  0.7546771E-02  0.1162390E+00
         21   -1    0    0  502  501  0.00000000000E+00  0.00000000000E+00  0.81943832872E+02  0.81943832872E+02  0.00000000000E+00 0. -1.
         21   -1    0    0  503  502 -0.00000000000E+00 -0.00000000000E+00 -0.18020549624E+04  0.18020549624E+04  0.00000000000E+00 0. -1.
         21    1    1    2  503  504 -0.21615901446E+02 -0.18444557914E+03 -0.16847500123E+04  0.16949542834E+04  0.00000000000E+00 0. -1.
         21    1    1    2  504  501  0.21615901446E+02  0.18444557914E+03 -0.35361117229E+02  0.18904451188E+03  0.00000000000E+00 0. -1.
<mgrwt>
<rscale>  2 0.18570789E+03</rscale>
<asrwt>0</asrwt>
<pdfrwt beam="1">  1       21 0.12606744E-01 0.18570789E+03</pdfrwt>
<pdfrwt beam="2">  1       21 0.27723922E+00 0.18570789E+03</pdfrwt>
<totfact> 0.25007210E+03</totfact>
</mgrwt>
</event>
<event>
 4    1  0.5694171E+003  0.1565236E+03  0.7546771E-02  0.1192678E+00
         21   -1    0    0  503  501  0.00000000000E+00  0.00000000000E+00  0.12868587082E+04  0.12868587082E+04  0.00000000000E+00 0.  1.
         21   -1    0    0  504  502 -0.00000000000E+00 -0.00000000000E+00 -0.41524678279E+02  0.41524678279E+02  0.00000000000E+00 0.  1.
         21    1    1    2  503  502  0.15005677752E+03  0.44526518843E+02  0.13390244316E+03  0.20598425096E+03  0.00000000000E+00 0.  1.
         21    1    1    2  504  501 -0.15005677752E+03 -0.44526518843E+02  0.11114315868E+04  0.11223991355E+04  0.00000000000E+00 0.  1.
<mgrwt>
<rscale>  2 0.15652363E+03</rscale>
<asrwt>0</asrwt>
<pdfrwt beam="1">  1       21 0.19797823E+00 0.15652363E+03</pdfrwt>
<pdfrwt beam="2">  1       21 0.63884130E-02 0.15652363E+03</pdfrwt>
<totfact> 0.25193878E+04</totfact>
</mgrwt>
</event>
<event>
 4    1  0.5694171E+003  0.1175745E+03  0.7546771E-02  0.1247153E+00
         21   -1    0    0  503  501  0.00000000000E+00  0.00000000000E+00  0.22596212872E+03  0.22596212872E+03  0.00000000000E+00 0.  1.
         21   -1    0    0  501  502 -0.00000000000E+00 -0.00000000000E+00 -0.10293841364E+03  0.10293841364E+03  0.00000000000E+00 0.  1.
         21    1    1    2  503  504  0.11935498597E+02  0.11696708499E+03  0.16625650621E+03  0.20362951887E+03  0.00000000000E+00 0.  1.
         21    1    1    2  504  502 -0.11935498597E+02 -0.11696708499E+03 -0.43232791135E+02  0.12527102349E+03  0.00000000000E+00 0.  1.
<mgrwt>
<rscale>  2 0.11757447E+03</rscale>
<asrwt>0</asrwt>
<pdfrwt beam="1">  1       21 0.34763404E-01 0.11757447E+03</pdfrwt>
<pdfrwt beam="2">  1       21 0.15836679E-01 0.11757447E+03</pdfrwt>
<totfact> 0.28792425E+05</totfact>
</mgrwt>
</event>
<event>
 4    1  0.5694171E+003  0.2938184E+03  0.7546771E-02  0.1088372E+00
         21   -1    0    0  503  501  0.00000000000E+00  0.00000000000E+00  0.39552825832E+03  0.39552825832E+03  0.00000000000E+00 0. -1.
         21   -1    0    0  504  502 -0.00000000000E+00 -0.00000000000E+00 -0.27030946101E+03  0.27030946101E+03  0.00000000000E+00 0.  1.
         21    1    1    2  503  502  0.85475828659E+02  0.28111057405E+03  0.20869333078E+03  0.36039170140E+03  0.00000000000E+00 0. -1.
         21    1    1    2  504  501 -0.85475828659E+02 -0.28111057405E+03 -0.83474533466E+02  0.30544601792E+03  0.00000000000E+00 0.  1.
<mgrwt>
<rscale>  2 0.29381843E+03</rscale>
<asrwt>0</asrwt>
<pdfrwt beam="1">  1       21 0.60850501E-01 0.29381843E+03</pdfrwt>
<pdfrwt beam="2">  1       21 0.41586071E-01 0.29381843E+03</pdfrwt>
<totfact> 0.13250645E+04</totfact>
</mgrwt>
</event>
<event>
 4    1  0.5694171E+003  0.1131615E+03  0.7546771E-02  0.1254825E+00
         21   -1    0    0  503  501  0.00000000000E+00  0.00000000000E+00  0.34657060334E+03  0.34657060334E+03  0.00000000000E+00 0. -1.
         21   -1    0    0  501  502 -0.00000000000E+00 -0.00000000000E+00 -0.29891498406E+03  0.29891498406E+03  0.00000000000E+00 0.  1.
         21    1    1    2  503  504 -0.25038076909E+02 -0.11035674349E+03  0.32596554765E+03  0.34504935065E+03  0.00000000000E+00 0. -1.
         21    1    1    2  504  502  0.25038076909E+02  0.11035674349E+03 -0.27830992836E+03  0.30043623675E+03  0.00000000000E+00 0.  1.
<mgrwt>
<rscale>  2 0.11316146E+03</rscale>
<asrwt>0</asrwt>
<pdfrwt beam="1">  1       21 0.53318554E-01 0.11316146E+03</pdfrwt>
<pdfrwt beam="2">  1       21 0.45986921E-01 0.11316146E+03</pdfrwt>
<totfact> 0.15985437E+04</totfact>
</mgrwt>
</event>
<event>
 4    1  0.5694171E+003  0.1209864E+03  0.7546771E-02  0.1241479E+00
         21   -1    0    0  503  501  0.00000000000E+00  0.00000000000E+00  0.14899730292E+03  0.14899730292E+03  0.00000000000E+00 0. -1.
         21   -1    0    0  504  502 -0.00000000000E+00 -0.00000000000E+00 -0.11659066704E+03  0.11659066704E+03  0.00000000000E+00 0.  1.
         21    1    1    2  503  502  0.30222522249E+02 -0.11715083781E+03  0.68884389329E+02  0.13922204834E+03  0.00000000000E+00 0. -1.
         21    1    1    2  504  501 -0.30222522249E+02  0.11715083781E+03 -0.36477753443E+02  0.12636592162E+03  0.00000000000E+00 0.  1.
<mgrwt>
<rscale>  2 0.12098644E+03</rscale>
<asrwt>0</asrwt>
<pdfrwt beam="1">  1       21 0.22922662E-01 0.12098644E+03</pdfrwt>
<pdfrwt beam="2">  1       21 0.17937026E-01 0.12098644E+03</pdfrwt>
<totfact> 0.50893814E+05</totfact>
</mgrwt>
</event>
<event>
 4    1  0.5694171E+003  0.1370574E+03  0.7546771E-02  0.1217344E+00
         21   -1    0    0  503  501  0.00000000000E+00  0.00000000000E+00  0.41829658963E+02  0.41829658963E+02  0.00000000000E+00 0. -1.
         21   -1    0    0  504  502 -0.00000000000E+00 -0.00000000000E+00 -0.49266183036E+03  0.49266183036E+03  0.00000000000E+00 0. -1.
         21    1    1    2  503  502  0.21387785622E+02  0.13537832382E+03 -0.14592742295E+03  0.20019875300E+03  0.00000000000E+00 0. -1.
         21    1    1    2  504  501 -0.21387785622E+02 -0.13537832382E+03 -0.30490474844E+03  0.33429273632E+03  0.00000000000E+00 0. -1.
<mgrwt>
<rscale>  2 0.13705739E+03</rscale>
<asrwt>0</asrwt>
<pdfrwt beam="1">  1       21 0.64353322E-02 0.13705739E+03</pdfrwt>
<pdfrwt beam="2">  1       21 0.75794127E-01 0.13705739E+03</pdfrwt>
<totfact> 0.27534782E+05</totfact>
</mgrwt>
</event>
<event>
 4    1  0.5694171E+003  0.1085535E+03  0.7546771E-02  0.1263272E+00
         21   -1    0    0  504  501  0.00000000000E+00  0.00000000000E+00  0.48522479191E+03  0.48522479191E+03  0.00000000000E+00 0.  1.
         21   -1    0    0  503  502 -0.00000000000E+00 -0.00000000000E+00 -0.48144787335E+02  0.48144787335E+02  0.00000000000E+00 0. -1.
         21    1    1    2  503  501  0.49209071682E+02 -0.96759087569E+02  0.40627866132E+03  0.42053086023E+03  0.00000000000E+00 0.  1.
         21    1    1    2  504  502 -0.49209071682E+02  0.96759087569E+02  0.30801343258E+02  0.11283871902E+03  0.00000000000E+00 0. -1.
<mgrwt>
<rscale>  2 0.10855346E+03</rscale>
<asrwt>0</asrwt>
<pdfrwt beam="1">  1       21 0.74649965E-01 0.10855346E+03</pdfrwt>
<pdfrwt beam="2">  1       21 0.74068907E-02 0.10855346E+03</pdfrwt>
<totfact> 0.22560977E+05</totfact>
</mgrwt>
</event>
<event>
 4    1  0.5694171E+003  0.1450171E+03  0.7546771E-02  0.1206733E+00
         21   -1    0    0  504  501  0.00000000000E+00  0.00000000000E+00  0.43274012242E+02  0.43274012242E+02  0.00000000000E+00 0.  1.
         21   -1    0    0  503  502 -0.00000000000E+00 -0.00000000000E+00 -0.54062592931E+03  0.54062592931E+03  0.00000000000E+00 0.  1.
         21    1    1    2  503  501  0.28558897427E+02 -0.14217719865E+03 -0.34150202481E+03  0.37101697991E+03  0.00000000000E+00 0.  1.
         21    1    1    2  504  502 -0.28558897427E+02  0.14217719865E+03 -0.15584989226E+03  0.21288296164E+03  0.00000000000E+00 0.  1.
<mgrwt>
<rscale>  2 0.14501712E+03</rscale>
<asrwt>0</asrwt>
<pdfrwt beam="1">  1       21 0.66575399E-02 0.14501712E+03</pdfrwt>
<pdfrwt beam="2">  1       21 0.83173225E-01 0.14501712E+03</pdfrwt>
<totfact> 0.21065848E+05</totfact>
</mgrwt>
</event>
<event>
 4    1  0.5694171E+003  0.1985901E+03  0.7546771E-02  0.1150934E+00
         21   -1    0    0  503  501  0.00000000000E+00  0.00000000000E+00  0.69530772791E+03  0.69530772791E+03  0.00000000000E+00 0. -1.
         21   -1    0    0  504  502 -0.00000000000E+00 -0.00000000000E+00 -0.26527717995E+03  0.26527717995E+03  0.00000000000E+00 0. -1.
         21    1    1    2  503  502 -0.19459779067E+03  0.39620024113E+02  0.64087650237E+03  0.67094018939E+03  0.00000000000E+00 0. -1.
         21    1    1    2  504  501  0.19459779067E+03 -0.39620024113E+02 -0.21084595441E+03  0.28964471847E+03  0.00000000000E+00 0. -1.
<mgrwt>
<rscale>  2 0.19859015E+03</rscale>
<asrwt>0</asrwt>
<pdfrwt beam="1">  1       21 0.10697042E+00 0.19859015E+03</pdfrwt>
<pdfrwt beam="2">  1       21 0.40811874E-01 0.19859015E+03</pdfrwt>
<totfact> 0.40210057E+03</totfact>
</mgrwt>
</event>
<event>
 4    1  0.5694171E+003  0.1005070E+03  0.7546771E-02  0.1279233E+00
         21   -1    0    0  504  501  0.00000000000E+00  0.00000000000E+00  0.13432910598E+04  0.13432910598E+04  0.00000000000E+00 0. -1.
         21   -1    0    0  503  502 -0.00000000000E+00 -0.00000000000E+00 -0.76460686984E+01  0.76460686984E+01  0.00000000000E+00 0. -1.
         21    1    1    2  503  501  0.81224316203E+02  0.59196838449E+02  0.75452929032E+03  0.76119386832E+03  0.00000000000E+00 0. -1.
         21    1    1    2  504  502 -0.81224316203E+02 -0.59196838449E+02  0.58111570079E+03  0.58974326018E+03  0.00000000000E+00 0. -1.
<mgrwt>
<rscale>  2 0.10050699E+03</rscale>
<asrwt>0</asrwt>
<pdfrwt beam="1">  1       21 0.20665998E+00 0.10050699E+03</pdfrwt>
<pdfrwt beam="2">  1       21 0.11763193E-02 0.10050699E+03</pdfrwt>
<totfact> 0.36876968E+05</totfact>
</mgrwt>
</event>
<event>
 4    1  0.5694171E+003  0.1042481E+03  0.7546771E-02  0.1271608E+00
         21   -1    0    0  502  501  0.00000000000E+00  0.00000000000E+00  0.97110282579E+02  0.97110282579E+02  0.00000000000E+00 0.  1.
         21   -1    0    0  504  502 -0.00000000000E+00 -0.00000000000E+00 -0.12182660957E+03  0.12182660957E+03  0.00000000000E+00 0.  1.
         21    1    1    2  503  501  0.10415342652E+03 -0.44408171142E+01  0.18873077877E+02  0.10594267403E+03  0.00000000000E+00 0.  1.
         21    1    1    2  504  503 -0.10415342652E+03  0.44408171142E+01 -0.43589404870E+02  0.11299421812E+03  0.00000000000E+00 0.  1.
<mgrwt>
<rscale>  2 0.10424806E+03</rscale>
<asrwt>0</asrwt>
<pdfrwt beam="1">  1       21 0.14940043E-01 0.10424806E+03</pdfrwt>
<pdfrwt beam="2">  1       21 0.18742555E-01 0.10424806E+03</pdfrwt>
<totfact> 0.10272497E+06</totfact>
</mgrwt>
</event>
<event>
 4    1  0.5694171E+003  0.1252932E+03  0.7546771E-02  0.1234612E+00
         21   -1    0    0  503  501  0.00000000000E+00  0.00000000000E+00  0.28973665739E+03  0.28973665739E+03  0.00000000000E+00 0. -1.
         21   -1    0    0  504  502 -0.00000000000E+00 -0.00000000000E+00 -0.57973840571E+02  0.57973840571E+02  0.00000000000E+00 0.  1.
         21    1    1    2  503  502  0.11921908562E+03  0.38538198976E+02  0.71416010226E+02  0.14421730019E+03  0.00000000000E+00 0.  1.
         21    1    1    2  504  501 -0.11921908562E+03 -0.38538198976E+02  0.16034680660E+03  0.20349319778E+03  0.00000000000E+00 0. -1.
<mgrwt>
<rscale>  2 0.12529319E+03</rscale>
<asrwt>0</asrwt>
<pdfrwt beam="1">  1       21 0.44574870E-01 0.12529319E+03</pdfrwt>
<pdfrwt beam="2">  1       21 0.89190526E-02 0.12529319E+03</pdfrwt>
<totfact> 0.48395320E+05</totfact>
</mgrwt>
</event>
<event>
 4    1  0.5694171E+003  0.1704161E+03  0.7546771E-02  0.1177415E+00
         21   -1    0    0  503  501  0.00000000000E+00  0.00000000000E+00  0.18424817043E+02  0.18424817043E+02  0.00000000000E+00 0. -1.
         21   -1    0    0  504  502 -0.00000000000E+00 -0.00000000000E+00 -0.26097281772E+04  0.26097281772E+04  0.00000000000E+00 0.  1.
         21    1    1    2  503  502  0.15120032301E+03  0.78613774619E+02 -0.46870244435E+03  0.49872201132E+03  0.00000000000E+00 0. -1.
         21    1    1    2  504  501 -0.15120032301E+03 -0.78613774619E+02 -0.21226009158E+04  0.21294309830E+04  0.00000000000E+00 0.  1.
<mgrwt>
<rscale>  2 0.17041615E+03</rscale>
<asrwt>0</asrwt>
<pdfrwt beam="1">  1       21 0.28345871E-02 0.17041615E+03</pdfrwt>
<pdfrwt beam="2">  1       21 0.40149666E+00 0.17041615E+03</pdfrwt>
<totfact> 0.61172793E+03</totfact>
</mgrwt>
</event>
<event>
 4    1  0.5694171E+003  0.1128731E+03  0.7546771E-02  0.1255340E+00
         21   -1    0    0  502  501  0.00000000000E+00  0.00000000000E+00  0.23282122947E+03  0.23282122947E+03  0.00000000000E+00 0.  1.
         21   -1    0    0  504  502 -0.00000000000E+00 -0.00000000000E+00 -0.80122649744E+02  0.80122649744E+02  0.00000000000E+00 0. -1.
         21    1    1    2  503  501 -0.69094786459E+02 -0.89253867956E+02  0.16445112012E+03  0.19946055592E+03  0.00000000000E+00 0.  1.
         21    1    1    2  504  503  0.69094786459E+02  0.89253867956E+02 -0.11752540386E+02  0.11348332330E+03  0.00000000000E+00 0. -1.
<mgrwt>
<rscale>  2 0.11287313E+03</rscale>
<asrwt>0</asrwt>
<pdfrwt beam="1">  1       21 0.35818650E-01 0.11287313E+03</pdfrwt>
<pdfrwt beam="2">  1       21 0.12326562E-01 0.11287313E+03</pdfrwt>
<totfact> 0.42525110E+05</totfact>
</mgrwt>
</event>
<event>
 4    1  0.5694171E+003  0.1200780E+03  0.7546771E-02  0.1242969E+00
         21   -1    0    0  504  501  0.00000000000E+00  0.00000000000E+00  0.82614208232E+03  0.82614208232E+03  0.00000000000E+00 0. -1.
         21   -1    0    0  503  502 -0.00000000000E+00 -0.00000000000E+00 -0.19335211810E+03  0.19335211810E+03  0.00000000000E+00 0. -1.
         21    1    1    2  503  501  0.10042166899E+03 -0.65834671755E+02 -0.16980175673E+03  0.20796959441E+03  0.00000000000E+00 0. -1.
         21    1    1    2  504  502 -0.10042166899E+03  0.65834671755E+02  0.80259172095E+03  0.81152460601E+03  0.00000000000E+00 0. -1.
<mgrwt>
<rscale>  2 0.12007796E+03</rscale>
<asrwt>0</asrwt>
<pdfrwt beam="1">  1       21 0.12709878E+00 0.12007796E+03</pdfrwt>
<pdfrwt beam="2">  1       21 0.29746480E-01 0.12007796E+03</pdfrwt>
<totfact> 0.53099738E+03</totfact>
</mgrwt>
</event>
<event>
 4    1  0.5694171E+003  0.1157796E+03  0.7546771E-02  0.1250226E+00
         21   -1    0    0  502  501  0.00000000000E+00  0.00000000000E+00  0.40179557194E+02  0.40179557194E+02  0.00000000000E+00 0. -1.
         21   -1    0    0  504  502 -0.00000000000E+00 -0.00000000000E+00 -0.45539523173E+03  0.45539523173E+03  0.00000000000E+00 0. -1.
         21    1    1    2  503  501  0.64911558021E+02 -0.95871769374E+02 -0.79476470808E+02  0.14043295888E+03  0.00000000000E+00 0. -1.
         21    1    1    2  504  503 -0.64911558021E+02  0.95871769374E+02 -0.33573920373E+03  0.35514183005E+03  0.00000000000E+00 0. -1.
<mgrwt>
<rscale>  2 0.11577956E+03</rscale>
<asrwt>0</asrwt>
<pdfrwt beam="1">  1       21 0.61814699E-02 0.11577956E+03</pdfrwt>
<pdfrwt beam="2">  1       21 0.70060810E-01 0.11577956E+03</pdfrwt>
<totfact> 0.35190919E+05</totfact>
</mgrwt>
</event>
<event>
 4    1  0.5694171E+003  0.1024815E+03  0.7546771E-02  0.1275163E+00
         21   -1    0    0  503  501  0.00000000000E+00  0.00000000000E+00  0.64925084389E+03  0.64925084389E+03  0.00000000000E+00 0. -1.
         21   -1    0    0  504  502 -0.00000000000E+00 -0.00000000000E+00 -0.23013258436E+02  0.23013258436E+02  0.00000000000E+00 0. -1.
         21    1    1    2  503  502 -0.84282195615E+02  0.58300722433E+02  0.49633040985E+03  0.50680009716E+03  0.00000000000E+00 0. -1.
         21    1    1    2  504  501  0.84282195615E+02 -0.58300722433E+02  0.12990717560E+03  0.16546400517E+03  0.00000000000E+00 0. -1.
<mgrwt>
<rscale>  2 0.10248152E+03</rscale>
<asrwt>0</asrwt>
<pdfrwt beam="1">  1       21 0.99884731E-01 0.10248152E+03</pdfrwt>
<pdfrwt beam="2">  1       21 0.35405018E-02 0.10248152E+03</pdfrwt>
<totfact> 0.40314077E+05</totfact>
</mgrwt>
</event>
<event>
 4    1  0.5694171E+003  0.1188823E+03  0.7546771E-02  0.1244952E+00
         21   -1    0    0  504  501  0.00000000000E+00  0.00000000000E+00  0.10266752631E+03  0.10266752631E+03  0.00000000000E+00 0. -1.
         21   -1    0    0  503  502 -0.00000000000E+00 -0.00000000000E+00 -0.12643474145E+04  0.12643474145E+04  0.00000000000E+00 0. -1.
         21    1    1    2  503  501  0.11680999648E+03  0.22100409663E+02  0.64386511030E+02  0.13519846962E+03  0.00000000000E+00 0. -1.
         21    1    1    2  504  502 -0.11680999648E+03 -0.22100409663E+02 -0.12260663992E+04  0.12318164712E+04  0.00000000000E+00 0. -1.
<mgrwt>
<rscale>  2 0.11888231E+03</rscale>
<asrwt>0</asrwt>
<pdfrwt beam="1">  1       21 0.15795004E-01 0.11888231E+03</pdfrwt>
<pdfrwt beam="2">  1       21 0.19451499E+00 0.11888231E+03</pdfrwt>
<totfact> 0.56310120E+03</totfact>
</mgrwt>
</event>
<event>
 4    1  0.5694171E+003  0.1029951E+03  0.7546771E-02  0.1274121E+00
         21   -1    0    0  503  501  0.00000000000E+00  0.00000000000E+00  0.30259207070E+02  0.30259207070E+02  0.00000000000E+00 0.  1.
         21   -1    0    0  501  502 -0.00000000000E+00 -0.00000000000E+00 -0.38026862574E+03  0.38026862574E+03  0.00000000000E+00 0. -1.
         21    1    1    2  503  504  0.90087528487E+02 -0.49922231713E+02 -0.11764191808E+03  0.15635732441E+03  0.00000000000E+00 0.  1.
         21    1    1    2  504  502 -0.90087528487E+02  0.49922231713E+02 -0.23236750060E+03  0.25417050840E+03  0.00000000000E+00 0. -1.
<mgrwt>
<rscale>  2 0.10299511E+03</rscale>
<asrwt>0</asrwt>
<pdfrwt beam="1">  1       21 0.46552631E-02 0.10299511E+03</pdfrwt>
<pdfrwt beam="2">  1       21 0.58502859E-01 0.10299511E+03</pdfrwt>
<totfact> 0.83334525E+05</totfact>
</mgrwt>
</event>
<event>
 4    1  0.5694171E+003  0.1105911E+03  0.7546771E-02  0.1259479E+00
         21   -1    0    0  503  501  0.00000000000E+00  0.00000000000E+00  0.30730841761E+03  0.30730841761E+03  0.00000000000E+00 0.  1.
         21   -1    0    0  504  502 -0.00000000000E+00 -0.00000000000E+00 -0.40577648509E+02  0.40577648509E+02  0.00000000000E+00 0.  1.
         21    1    1    2  503  502  0.30326767638E+02  0.10635172107E+03  0.10926160241E+03  0.15546221139E+03  0.00000000000E+00 0.  1.
         21    1    1    2  504  501 -0.30326767638E+02 -0.10635172107E+03  0.15746916669E+03  0.19242385473E+03  0.00000000000E+00 0.  1.
<mgrwt>
<rscale>  2 0.11059115E+03</rscale>
<asrwt>0</asrwt>
<pdfrwt beam="1">  1       21 0.47278217E-01 0.11059115E+03</pdfrwt>
<pdfrwt beam="2">  1       21 0.62427154E-02 0.11059115E+03</pdfrwt>
<totfact> 0.79160559E+05</totfact>
</mgrwt>
</event>
<event>
 4    1  0.5694171E+003  0.1184444E+03  0.7546771E-02  0.1245686E+00
         21   -1    0    0  503  501  0.00000000000E+00  0.00000000000E+00  0.26541628546E+03  0.26541628546E+03  0.00000000000E+00 0. -1.
         21   -1    0    0  504  502 -0.00000000000E+00 -0.00000000000E+00 -0.10825776239E+03  0.10825776239E+03  0.00000000000E+00 0. -1.
         21    1    1    2  503  502 -0.17110450179E+02 -0.11720203965E+03 -0.55077713558E+02  0.13062404118E+03  0.00000000000E+00 0. -1.
         21    1    1    2  504  501  0.17110450179E+02  0.11720203965E+03  0.21223623662E+03  0.24305000666E+03  0.00000000000E+00 0. -1.
<mgrwt>
<rscale>  2 0.11844444E+03</rscale>
<asrwt>0</asrwt>
<pdfrwt beam="1">  1       21 0.40833274E-01 0.11844444E+03</pdfrwt>
<pdfrwt beam="2">  1       21 0.16655041E-01 0.11844444E+03</pdfrwt>
<totfact> 0.19112484E+05</totfact>
</mgrwt>
</event>
<event>
 4    1  0.5694171E+003  0.1261471E+03  0.7546771E-02  0.1233287E+00
         21   -1    0    0  503  501  0.00000000000E+00  0.00000000000E+00  0.22345424993E+03  0.22345424993E+03  0.00000000000E+00 0. -1.
         21   -1    0    0  504  502 -0.00000000000E+00 -0.00000000000E+00 -0.36931670313E+03  0.36931670313E+03  0.00000000000E+00 0.  1.
         21    1    1    2  503  502 -0.10939366876E+03  0.62818139596E+02 -0.33921231741E+03  0.36190895224E+03  0.00000000000E+00 0.  1.
         21    1    1    2  504  501  0.10939366876E+03 -0.62818139596E+02  0.19334986422E+03  0.23086200081E+03  0.00000000000E+00 0. -1.
<mgrwt>
<rscale>  2 0.12614711E+03</rscale>
<asrwt>0</asrwt>
<pdfrwt beam="1">  1       21 0.34377577E-01 0.12614711E+03</pdfrwt>
<pdfrwt beam="2">  1       21 0.56817954E-01 0.12614711E+03</pdfrwt>
<totfact> 0.24741736E+04</totfact>
</mgrwt>
</event>
<event>
 4    1  0.5694171E+003  0.1002958E+03  0.7546771E-02  0.1279675E+00
         21   -1    0    0  503  501  0.00000000000E+00  0.00000000000E+00  0.78858426131E+03  0.78858426131E+03  0.00000000000E+00 0. -1.
         21   -1    0    0  501  502 -0.00000000000E+00 -0.00000000000E+00 -0.25118839542E+03  0.25118839542E+03  0.00000000000E+00 0. -1.
         21    1    1    2  503  504  0.11181316478E+02  0.99670600536E+02  0.77521159217E+03  0.78167273400E+03  0.00000000000E+00 0. -1.
         21    1    1    2  504  502 -0.11181316478E+02 -0.99670600536E+02 -0.23781572627E+03  0.25809992273E+03  0.00000000000E+00 0. -1.
<mgrwt>
<rscale>  2 0.10029581E+03</rscale>
<asrwt>0</asrwt>
<pdfrwt beam="1">  1       21 0.12132065E+00 0.10029581E+03</pdfrwt>
<pdfrwt beam="2">  1       21 0.38644369E-01 0.10029581E+03</pdfrwt>
<totfact> 0.36687883E+03</totfact>
</mgrwt>
</event>
<event>
 4    1  0.5694171E+003  0.1497810E+03  0.7546771E-02  0.1200742E+00
         21   -1    0    0  502  501  0.00000000000E+00  0.00000000000E+00  0.68303326844E+03  0.68303326844E+03  0.00000000000E+00 0.  1.
         21   -1    0    0  504  502 -0.00000000000E+00 -0.00000000000E+00 -0.15265632319E+03  0.15265632319E+03  0.00000000000E+00 0.  1.
         21    1    1    2  503  501  0.13988297149E+03 -0.53545189835E+02  0.63536276185E+03  0.65277880803E+03  0.00000000000E+00 0.  1.
         21    1    1    2  504  503 -0.13988297149E+03  0.53545189835E+02 -0.10498581660E+03  0.18291078359E+03  0.00000000000E+00 0.  1.
<mgrwt>
<rscale>  2 0.14978095E+03</rscale>
<asrwt>0</asrwt>
<pdfrwt beam="1">  1       21 0.10508204E+00 0.14978095E+03</pdfrwt>
<pdfrwt beam="2">  1       21 0.23485589E-01 0.14978095E+03</pdfrwt>
<totfact> 0.12831916E+04</totfact>
</mgrwt>
</event>
<event>
 4    1  0.5694171E+003  0.1502351E+03  0.7546771E-02  0.1200184E+00
         21   -1    0    0  503  501  0.00000000000E+00  0.00000000000E+00  0.55994594470E+03  0.55994594470E+03  0.00000000000E+00 0. -1.
         21   -1    0    0  504  502 -0.00000000000E+00 -0.00000000000E+00 -0.32216891342E+03  0.32216891342E+03  0.00000000000E+00 0. -1.
         21    1    1    2  503  502 -0.11275681388E+03 -0.99279845168E+02  0.53143259624E+03  0.55226007558E+03  0.00000000000E+00 0. -1.
         21    1    1    2  504  501  0.11275681388E+03  0.99279845168E+02 -0.29365556495E+03  0.32985478254E+03  0.00000000000E+00 0. -1.
<mgrwt>
<rscale>  2 0.15023510E+03</rscale>
<asrwt>0</asrwt>
<pdfrwt beam="1">  1       21 0.86145530E-01 0.15023510E+03</pdfrwt>
<pdfrwt beam="2">  1       21 0.49564448E-01 0.15023510E+03</pdfrwt>
<totfact> 0.46770161E+03</totfact>
</mgrwt>
</event>
<event>
 4    1  0.5694171E+003  0.1602252E+03  0.7546771E-02  0.1188443E+00
         21   -1    0    0  504  501  0.00000000000E+00  0.00000000000E+00  0.16504037558E+04  0.16504037558E+04  0.00000000000E+00 0.  1.
         21   -1    0    0  503  502 -0.00000000000E+00 -0.00000000000E+00 -0.24130251127E+02  0.24130251127E+02  0.00000000000E+00 0.  1.
         21    1    1    2  503  501 -0.15935754278E+03 -0.16652400259E+02  0.31401675735E+03  0.35253177555E+03  0.00000000000E+00 0.  1.
         21    1    1    2  504  502  0.15935754278E+03  0.16652400259E+02  0.13122567473E+04  0.13220022313E+04  0.00000000000E+00 0.  1.
<mgrwt>
<rscale>  2 0.16022524E+03</rscale>
<asrwt>0</asrwt>
<pdfrwt beam="1">  1       21 0.25390818E+00 0.16022524E+03</pdfrwt>
<pdfrwt beam="2">  1       21 0.37123476E-02 0.16022524E+03</pdfrwt>
<totfact> 0.28830130E+04</totfact>
</mgrwt>
</event>
<event>
 4    1  0.5694171E+003  0.1010201E+03  0.7546771E-02  0.1278165E+00
         21   -1    0    0  503  501  0.00000000000E+00  0.00000000000E+00  0.11851563853E+03  0.11851563853E+03  0.00000000000E+00 0.  1.
         21   -1    0    0  501  502 -0.00000000000E+00 -0.00000000000E+00 -0.21949396766E+03  0.21949396766E+03  0.00000000000E+00 0.  1.
         21    1    1    2  503  504 -0.70142287859E+02 -0.72698844152E+02  0.81258811646E+02  0.12964589063E+03  0.00000000000E+00 0.  1.
         21    1    1    2  504  502  0.70142287859E+02  0.72698844152E+02 -0.18223714077E+03  0.20836371556E+03  0.00000000000E+00 0.  1.
<mgrwt>
<rscale>  2 0.10102011E+03</rscale>
<asrwt>0</asrwt>
<pdfrwt beam="1">  1       21 0.18233175E-01 0.10102011E+03</pdfrwt>
<pdfrwt beam="2">  1       21 0.33768302E-01 0.10102011E+03</pdfrwt>
<totfact> 0.23684759E+05</totfact>
</mgrwt>
</event>
<event>
 4    1  0.5694171E+003  0.1210498E+03  0.7546771E-02  0.1241375E+00
         21   -1    0    0  504  501  0.00000000000E+00  0.00000000000E+00  0.22597658752E+02  0.22597658752E+02  0.00000000000E+00 0. -1.
         21   -1    0    0  503  502 -0.00000000000E+00 -0.00000000000E+00 -0.86074402628E+03  0.86074402628E+03  0.00000000000E+00 0. -1.
         21    1    1    2  503  501  0.11956647332E+03 -0.18892125241E+02 -0.63842872855E+03  0.64980327437E+03  0.00000000000E+00 0. -1.
         21    1    1    2  504  502 -0.11956647332E+03  0.18892125241E+02 -0.19971763898E+03  0.23353841067E+03  0.00000000000E+00 0. -1.
<mgrwt>
<rscale>  2 0.12104980E+03</rscale>
<asrwt>0</asrwt>
<pdfrwt beam="1">  1       21 0.34765634E-02 0.12104980E+03</pdfrwt>
<pdfrwt beam="2">  1       21 0.13242214E+00 0.12104980E+03</pdfrwt>
<totfact> 0.20973176E+05</totfact>
</mgrwt>
</event>
<event>
 4    1  0.5694171E+003  0.1233803E+03  0.7546771E-02  0.1237623E+00
         21   -1    0    0  503  501  0.00000000000E+00  0.00000000000E+00  0.36200272824E+02  0.36200272824E+02  0.00000000000E+00 0.  1.
         21   -1    0    0  504  502 -0.00000000000E+00 -0.00000000000E+00 -0.90673927437E+03  0.90673927437E+03  0.00000000000E+00 0. -1.
         21    1    1    2  503  502 -0.57863475462E+02 -0.10897024358E+03 -0.78051794009E+03  0.79020943463E+03  0.00000000000E+00 0. -1.
         21    1    1    2  504  501  0.57863475462E+02  0.10897024358E+03 -0.90021061465E+02  0.15273011257E+03  0.00000000000E+00 0.  1.
<mgrwt>
<rscale>  2 0.12338029E+03</rscale>
<asrwt>0</asrwt>
<pdfrwt beam="1">  1       21 0.55692725E-02 0.12338029E+03</pdfrwt>
<pdfrwt beam="2">  1       21 0.13949835E+00 0.12338029E+03</pdfrwt>
<totfact> 0.83804994E+04</totfact>
</mgrwt>
</event>
<event>
 4    1  0.5694171E+003  0.1024638E+03  0.7546771E-02  0.1275199E+00
         21   -1    0    0  502  501  0.00000000000E+00  0.00000000000E+00  0.25016819216E+03  0.25016819216E+03  0.00000000000E+00 0. -1.
         21   -1    0    0  504  502 -0.00000000000E+00 -0.00000000000E+00 -0.47159289795E+02  0.47159289795E+02  0.00000000000E+00 0. -1.
         21    1    1    2  503  501  0.52880988042E+02  0.87763502199E+02  0.15083285891E+03  0.18234413218E+03  0.00000000000E+00 0. -1.
         21    1    1    2  504  503 -0.52880988042E+02 -0.87763502199E+02  0.52176043459E+02  0.11498334978E+03  0.00000000000E+00 0. -1.
<mgrwt>
<rscale>  2 0.10246380E+03</rscale>
<asrwt>0</asrwt>
<pdfrwt beam="1">  1       21 0.38487413E-01 0.10246380E+03</pdfrwt>
<pdfrwt beam="2">  1       21 0.72552755E-02 0.10246380E+03</pdfrwt>
<totfact> 0.92590991E+05</totfact>
</mgrwt>
</event>
<event>
 4    1  0.5694171E+003  0.1310942E+03  0.7546771E-02  0.1225841E+00
         21   -1    0    0  502  501  0.00000000000E+00  0.00000000000E+00  0.53930460492E+03  0.53930460492E+03  0.00000000000E+00 0.  1.
         21   -1    0    0  503  502 -0.00000000000E+00 -0.00000000000E+00 -0.87321485254E+02  0.87321485254E+02  0.00000000000E+00 0.  1.
         21    1    1    2  503  504 -0.10755009657E+03  0.74957804027E+02 -0.23691233035E+02  0.13321775474E+03  0.00000000000E+00 0.  1.
         21    1    1    2  504  501  0.10755009657E+03 -0.74957804027E+02  0.47567435271E+03  0.49340833544E+03  0.00000000000E+00 0.  1.
<mgrwt>
<rscale>  2 0.13109422E+03</rscale>
<asrwt>0</asrwt>
<pdfrwt beam="1">  1       21 0.82969937E-01 0.13109422E+03</pdfrwt>
<pdfrwt beam="2">  1       21 0.13434075E-01 0.13109422E+03</pdfrwt>
<totfact> 0.62482443E+04</totfact>
</mgrwt>
</event>
<event>
 4    1  0.5694171E+003  0.1186341E+03  0.7546771E-02  0.1245367E+00
         21   -1    0    0  503  501  0.00000000000E+00  0.00000000000E+00  0.13226879312E+04  0.13226879312E+04  0.00000000000E+00 0. -1.
         21   -1    0    0  504  502 -0.00000000000E+00 -0.00000000000E+00 -0.28460325208E+02  0.28460325208E+02  0.00000000000E+00 0.  1.
         21    1    1    2  503  502  0.10916054323E+03 -0.46454570459E+02  0.11816841800E+04  0.11876243314E+04  0.00000000000E+00 0. -1.
         21    1    1    2  504  501 -0.10916054323E+03  0.46454570459E+02  0.11254342605E+03  0.16352392505E+03  0.00000000000E+00 0.  1.
<mgrwt>
<rscale>  2 0.11863411E+03</rscale>
<asrwt>0</asrwt>
<pdfrwt beam="1">  1       21 0.20349040E+00 0.11863411E+03</pdfrwt>
<pdfrwt beam="2">  1       21 0.43785126E-02 0.11863411E+03</pdfrwt>
<totfact> 0.45436954E+04</totfact>
</mgrwt>
</event>
<event>
 4    1  0.5694171E+003  0.1041659E+03  0.7546771E-02  0.1271772E+00
         21   -1    0    0  503  501  0.00000000000E+00  0.00000000000E+00  0.44911226103E+02  0.44911226103E+02  0.00000000000E+00 0.  1.
         21   -1    0    0  501  502 -0.00000000000E+00 -0.00000000000E+00 -0.28893148059E+03  0.28893148059E+03  0.00000000000E+00 0.  1.
         21    1    1    2  503  504  0.72223809842E+02  0.75061697300E+02 -0.54449907285E+02  0.11753862988E+03  0.00000000000E+00 0.  1.
         21    1    1    2  504  502 -0.72223809842E+02 -0.75061697300E+02 -0.18957034720E+03  0.21630407682E+03  0.00000000000E+00 0.  1.
<mgrwt>
<rscale>  2 0.10416591E+03</rscale>
<asrwt>0</asrwt>
<pdfrwt beam="1">  1       21 0.69094195E-02 0.10416591E+03</pdfrwt>
<pdfrwt beam="2">  1       21 0.44450997E-01 0.10416591E+03</pdfrwt>
<totfact> 0.75486488E+05</totfact>
</mgrwt>
</event>
<event>
 4    1  0.5694171E+003  0.1293016E+03  0.7546771E-02  0.1228496E+00
         21   -1    0    0  503  501  0.00000000000E+00  0.00000000000E+00  0.10020548892E+03  0.10020548892E+03  0.00000000000E+00 0.  1.
         21   -1    0    0  504  502 -0.00000000000E+00 -0.00000000000E+00 -0.20498581103E+03  0.20498581103E+03  0.00000000000E+00 0.  1.
         21    1    1    2  503  502 -0.49537286240E+02  0.11943596308E+03 -0.11821186546E+03  0.17519399858E+03  0.00000000000E+00 0.  1.
         21    1    1    2  504  501  0.49537286240E+02 -0.11943596308E+03  0.13431543356E+02  0.12999730136E+03  0.00000000000E+00 0.  1.
<mgrwt>
<rscale>  2 0.12930155E+03</rscale>
<asrwt>0</asrwt>
<pdfrwt beam="1">  1       21 0.15416229E-01 0.12930155E+03</pdfrwt>
<pdfrwt beam="2">  1       21 0.31536279E-01 0.12930155E+03</pdfrwt>
<totfact> 0.36477374E+05</totfact>
</mgrwt>
</event>
<event>
 4    1  0.5694171E+003  0.1191076E+03  0.7546771E-02  0.1244577E+00
         21   -1    0    0  504  501  0.00000000000E+00  0.00000000000E+00  0.53783583033E+02  0.53783583033E+02  0.00000000000E+00 0.  1.
         21   -1    0    0  503  502 -0.00000000000E+00 -0.00000000000E+00 -0.44608010853E+03  0.44608010853E+03  0.00000000000E+00 0.  1.
         21    1    1    2  503  501 -0.56480873594E+02 -0.10486434628E+03 -0.36369966767E+02  0.12453672023E+03  0.00000000000E+00 0.  1.
         21    1    1    2  504  502  0.56480873594E+02  0.10486434628E+03 -0.35592655873E+03  0.37532697133E+03  0.00000000000E+00 0.  1.
<mgrwt>
<rscale>  2 0.11910760E+03</rscale>
<asrwt>0</asrwt>
<pdfrwt beam="1">  1       21 0.82743970E-02 0.11910760E+03</pdfrwt>
<pdfrwt beam="2">  1       21 0.68627712E-01 0.11910760E+03</pdfrwt>
<totfact> 0.22344383E+05</totfact>
</mgrwt>
</event>
<event>
 4    1  0.5694171E+003  0.1114592E+03  0.7546771E-02  0.1257891E+00
         21   -1    0    0  504  501  0.00000000000E+00  0.00000000000E+00  0.33163359657E+03  0.33163359657E+03  0.00000000000E+00 0.  1.
         21   -1    0    0  503  502 -0.00000000000E+00 -0.00000000000E+00 -0.36619914675E+03  0.36619914675E+03  0.00000000000E+00 0.  1.
         21    1    1    2  503  501 -0.74861423288E+02  0.82576758113E+02  0.31330598105E+03  0.33254141312E+03  0.00000000000E+00 0.  1.
         21    1    1    2  504  502  0.74861423288E+02 -0.82576758113E+02 -0.34787153123E+03  0.36529133020E+03  0.00000000000E+00 0.  1.
<mgrwt>
<rscale>  2 0.11145920E+03</rscale>
<asrwt>0</asrwt>
<pdfrwt beam="1">  1       21 0.51020554E-01 0.11145920E+03</pdfrwt>
<pdfrwt beam="2">  1       21 0.56338330E-01 0.11145920E+03</pdfrwt>
<totfact> 0.11542396E+04</totfact>
</mgrwt>
</event>
<event>
 4    1  0.5694171E+003  0.1517489E+03  0.7546771E-02  0.1198340E+00
         21   -1    0    0  504  501  0.00000000000E+00  0.00000000000E+00  0.77526774498E+03  0.77526774498E+03  0.00000000000E+00 0. -1.
         21   -1    0    0  503  502 -0.00000000000E+00 -0.00000000000E+00 -0.17206780558E+03  0.17206780558E+03  0.00000000000E+00 0. -1.
         21    1    1    2  503  501  0.11915620264E+03  0.93965622651E+02  0.73244930370E+03  0.74800382443E+03  0.00000000000E+00 0. -1.
         21    1    1    2  504  502 -0.11915620264E+03 -0.93965622651E+02 -0.12924936431E+03  0.19933172613E+03  0.00000000000E+00 0. -1.
<mgrwt>
<rscale>  2 0.15174893E+03</rscale>
<asrwt>0</asrwt>
<pdfrwt beam="1">  1       21 0.11927196E+00 0.15174893E+03</pdfrwt>
<pdfrwt beam="2">  1       21 0.26471970E-01 0.15174893E+03</pdfrwt>
<totfact> 0.75240685E+03</totfact>
</mgrwt>
</event>
<event>
 4    1  0.5694171E+003  0.1934109E+03  0.7546771E-02  0.1155420E+00
         21   -1    0    0  503  501  0.00000000000E+00  0.00000000000E+00  0.12203133423E+04  0.12203133423E+04  0.00000000000E+00 0.  1.
         21   -1    0    0  501  502 -0.00000000000E+00 -0.00000000000E+00 -0.41946032471E+02  0.41946032471E+02  0.00000000000E+00 0. -1.
         21    1    1    2  503  504  0.18288928876E+03 -0.62922768392E+02  0.91664103854E+03  0.93682365484E+03  0.00000000000E+00 0.  1.
         21    1    1    2  504  502 -0.18288928876E+03  0.62922768392E+02  0.26172627127E+03  0.32543571992E+03  0.00000000000E+00 0. -1.
<mgrwt>
<rscale>  2 0.19341088E+03</rscale>
<asrwt>0</asrwt>
<pdfrwt beam="1">  1       21 0.18774049E+00 0.19341088E+03</pdfrwt>
<pdfrwt beam="2">  1       21 0.64532367E-02 0.19341088E+03</pdfrwt>
<totfact> 0.28077987E+04</totfact>
</mgrwt>
</event>
<event>
 4    1  0.5694171E+003  0.1258822E+03  0.7546771E-02  0.1233697E+00
         21   -1    0    0  503  501  0.00000000000E+00  0.00000000000E+00  0.28984232334E+02  0.28984232334E+02  0.00000000000E+00 0.  1.
         21   -1    0    0  501  502 -0.00000000000E+00 -0.00000000000E+00 -0.57392598274E+03  0.57392598274E+03  0.00000000000E+00 0.  1.
         21    1    1    2  503  504  0.10918181416E+03 -0.62655074035E+02 -0.20683997418E+03  0.24213447042E+03  0.00000000000E+00 0.  1.
         21    1    1    2  504  502 -0.10918181416E+03  0.62655074035E+02 -0.33810177623E+03  0.36077574466E+03  0.00000000000E+00 0.  1.
<mgrwt>
<rscale>  2 0.12588219E+03</rscale>
<asrwt>0</asrwt>
<pdfrwt beam="1">  1       21 0.44591127E-02 0.12588219E+03</pdfrwt>
<pdfrwt beam="2">  1       21 0.88296304E-01 0.12588219E+03</pdfrwt>
<totfact> 0.36366695E+05</totfact>
</mgrwt>
</event>
<event>
 4    1  0.5694171E+003  0.1068795E+03  0.7546771E-02  0.1266460E+00
         21   -1    0    0  504  501  0.00000000000E+00  0.00000000000E+00  0.81527317583E+01  0.81527317583E+01  0.00000000000E+00 0. -1.
         21   -1    0    0  503  502 -0.00000000000E+00 -0.00000000000E+00 -0.27345409769E+04  0.27345409769E+04  0.00000000000E+00 0.  1.
         21    1    1    2  503  501  0.66008471822E+02  0.84060118339E+02 -0.40559570784E+03  0.41944141434E+03  0.00000000000E+00 0. -1.
         21    1    1    2  504  502 -0.66008471822E+02 -0.84060118339E+02 -0.23207925373E+04  0.23232522943E+04  0.00000000000E+00 0.  1.
<mgrwt>
<rscale>  2 0.10687947E+03</rscale>
<asrwt>0</asrwt>
<pdfrwt beam="1">  1       21 0.12542661E-02 0.10687947E+03</pdfrwt>
<pdfrwt beam="2">  1       21 0.42069872E+00 0.10687947E+03</pdfrwt>
<totfact> 0.19386073E+04</totfact>
</mgrwt>
</event>
<event>
 4    1  0.5694171E+003  0.2510683E+03  0.7546771E-02  0.1112632E+00
         21   -1    0    0  504  501  0.00000000000E+00  0.00000000000E+00  0.56357357613E+03  0.56357357613E+03  0.00000000000E+00 0.  1.
         21   -1    0    0  503  502 -0.00000000000E+00 -0.00000000000E+00 -0.14174276014E+03  0.14174276014E+03  0.00000000000E+00 0.  1.
         21    1    1    2  503  501  0.24123612374E+03 -0.69573068725E+02  0.37286952544E+03  0.44951858948E+03  0.00000000000E+00 0.  1.
         21    1    1    2  504  502 -0.24123612374E+03  0.69573068725E+02  0.48961290547E+02  0.25579774679E+03  0.00000000000E+00 0.  1.
<mgrwt>
<rscale>  2 0.25106828E+03</rscale>
<asrwt>0</asrwt>
<pdfrwt beam="1">  1       21 0.86703626E-01 0.25106828E+03</pdfrwt>
<pdfrwt beam="2">  1       21 0.21806579E-01 0.25106828E+03</pdfrwt>
<totfact> 0.21767473E+04</totfact>
</mgrwt>
</event>
<event>
 4    1  0.5694171E+003  0.1184082E+03  0.7546771E-02  0.1245746E+00
         21   -1    0    0  502  501  0.00000000000E+00  0.00000000000E+00  0.22250192169E+03  0.22250192169E+03  0.00000000000E+00 0. -1.
         21   -1    0    0  504  502 -0.00000000000E+00 -0.00000000000E+00 -0.32010525218E+03  0.32010525218E+03  0.00000000000E+00 0.  1.
         21    1    1    2  503  501 -0.11833782228E+03 -0.40807848469E+01  0.19433682088E+03  0.22756821601E+03  0.00000000000E+00 0. -1.
         21    1    1    2  504  503  0.11833782228E+03  0.40807848469E+01 -0.29194015137E+03  0.31503895786E+03  0.00000000000E+00 0.  1.
<mgrwt>
<rscale>  2 0.11840816E+03</rscale>
<asrwt>0</asrwt>
<pdfrwt beam="1">  1       21 0.34231065E-01 0.11840816E+03</pdfrwt>
<pdfrwt beam="2">  1       21 0.49246962E-01 0.11840816E+03</pdfrwt>
<totfact> 0.33763806E+04</totfact>
</mgrwt>
</event>
<event>
 4    1  0.5694171E+003  0.1092280E+03  0.7546771E-02  0.1262006E+00
         21   -1    0    0  504  501  0.00000000000E+00  0.00000000000E+00  0.58110807414E+03  0.58110807414E+03  0.00000000000E+00 0.  1.
         21   -1    0    0  501  502 -0.00000000000E+00 -0.00000000000E+00 -0.12411757685E+03  0.12411757685E+03  0.00000000000E+00 0.  1.
         21    1    1    2  503  502  0.85083155429E+02 -0.68495416574E+02 -0.93636161004E+02  0.14386971911E+03  0.00000000000E+00 0.  1.
         21    1    1    2  504  503 -0.85083155429E+02  0.68495416574E+02  0.55062665829E+03  0.56135593188E+03  0.00000000000E+00 0.  1.
<mgrwt>
<rscale>  2 0.10922804E+03</rscale>
<asrwt>0</asrwt>
<pdfrwt beam="1">  1       21 0.89401241E-01 0.10922804E+03</pdfrwt>
<pdfrwt beam="2">  1       21 0.19095012E-01 0.10922804E+03</pdfrwt>
<totfact> 0.28337619E+04</totfact>
</mgrwt>
</event>
<event>
 4    1  0.5694171E+003  0.1063093E+03  0.7546771E-02  0.1267561E+00
         21   -1    0    0  504  501  0.00000000000E+00  0.00000000000E+00  0.29924113802E+02  0.29924113802E+02  0.00000000000E+00 0.  1.
         21   -1    0    0  503  502 -0.00000000000E+00 -0.00000000000E+00 -0.42288005260E+03  0.42288005260E+03  0.00000000000E+00 0. -1.
         21    1    1    2  503  501 -0.10406346355E+03  0.21736441832E+02 -0.27049833650E+03  0.29063899841E+03  0.00000000000E+00 0. -1.
         21    1    1    2  504  502  0.10406346355E+03 -0.21736441832E+02 -0.12245760229E+03  0.16216516799E+03  0.00000000000E+00 0.  1.
<mgrwt>
<rscale>  2 0.10630935E+03</rscale>
<asrwt>0</asrwt>
<pdfrwt beam="1">  1       21 0.46037099E-02 0.10630935E+03</pdfrwt>
<pdfrwt beam="2">  1       21 0.65058468E-01 0.10630935E+03</pdfrwt>
<totfact> 0.67779152E+05</totfact>
</mgrwt>
</event>
<event>
 4    1  0.5694171E+003  0.1031101E+03  0.7546771E-02  0.1273889E+00
         21   -1    0    0  502  501  0.00000000000E+00  0.00000000000E+00  0.32277226593E+03  0.32277226593E+03  0.00000000000E+00 0.  1.
         21   -1    0    0  504  502 -0.00000000000E+00 -0.00000000000E+00 -0.10110769245E+03  0.10110769245E+03  0.00000000000E+00 0.  1.
         21    1    1    2  503  501 -0.88324103794E+02 -0.53202871323E+02  0.28485834557E+03  0.30294548993E+03  0.00000000000E+00 0.  1.
         21    1    1    2  504  503  0.88324103794E+02  0.53202871323E+02 -0.63193772091E+02  0.12093446845E+03  0.00000000000E+00 0.  1.
<mgrwt>
<rscale>  2 0.10311010E+03</rscale>
<asrwt>0</asrwt>
<pdfrwt beam="1">  1       21 0.49657271E-01 0.10311010E+03</pdfrwt>
<pdfrwt beam="2">  1       21 0.15555030E-01 0.10311010E+03</pdfrwt>
<totfact> 0.14627361E+05</totfact>
</mgrwt>
</event>
<event>
 4    1  0.5694171E+003  0.1339011E+03  0.7546771E-02  0.1221779E+00
         21   -1    0    0  503  501  0.00000000000E+00  0.00000000000E+00  0.50400334943E+03  0.50400334943E+03  0.00000000000E+00 0. -1.
         21   -1    0    0  504  502 -0.00000000000E+00 -0.00000000000E+00 -0.85994631977E+02  0.85994631977E+02  0.00000000000E+00 0. -1.
         21    1    1    2  503  502  0.27457114508E+02 -0.13105574798E+03  0.43488980869E+03  0.45503697423E+03  0.00000000000E+00 0. -1.
         21    1    1    2  504  501 -0.27457114508E+02  0.13105574798E+03 -0.16881091236E+02  0.13496100718E+03  0.00000000000E+00 0. -1.
<mgrwt>
<rscale>  2 0.13390109E+03</rscale>
<asrwt>0</asrwt>
<pdfrwt beam="1">  1       21 0.77538975E-01 0.13390109E+03</pdfrwt>
<pdfrwt beam="2">  1       21 0.13229944E-01 0.13390109E+03</pdfrwt>
<totfact> 0.74612601E+04</totfact>
</mgrwt>
</event>
<event>
 4    1  0.5694171E+003  0.1009067E+03  0.7546771E-02  0.1278401E+00
         21   -1    0    0  503  501  0.00000000000E+00  0.00000000000E+00  0.16033813038E+04  0.16033813038E+04  0.00000000000E+00 0. -1.
         21   -1    0    0  504  502 -0.00000000000E+00 -0.00000000000E+00 -0.67188827953E+01  0.67188827953E+01  0.00000000000E+00 0.  1.
         21    1    1    2  503  502 -0.20072030781E+02  0.98890176298E+02  0.60980662277E+03  0.61809891649E+03  0.00000000000E+00 0. -1.
         21    1    1    2  504  501  0.20072030781E+02 -0.98890176298E+02  0.98685579823E+03  0.99200127010E+03  0.00000000000E+00 0.  1.
<mgrwt>
<rscale>  2 0.10090666E+03</rscale>
<asrwt>0</asrwt>
<pdfrwt beam="1">  1       21 0.24667374E+00 0.10090666E+03</pdfrwt>
<pdfrwt beam="2">  1       21 0.10336755E-02 0.10090666E+03</pdfrwt>
<totfact> 0.26350194E+05</totfact>
</mgrwt>
</event>
<event>
 4    1  0.5694171E+003  0.1214235E+03  0.7546771E-02  0.1240767E+00
         21   -1    0    0  504  501  0.00000000000E+00  0.00000000000E+00  0.86762092830E+03  0.86762092830E+03  0.00000000000E+00 0. -1.
         21   -1    0    0  503  502 -0.00000000000E+00 -0.00000000000E+00 -0.20971505893E+02  0.20971505893E+02  0.00000000000E+00 0. -1.
         21    1    1    2  503  501  0.11758116977E+03  0.30304208858E+02  0.22981373775E+03  0.25991927712E+03  0.00000000000E+00 0. -1.
         21    1    1    2  504  502 -0.11758116977E+03 -0.30304208858E+02  0.61683568465E+03  0.62867315707E+03  0.00000000000E+00 0. -1.
<mgrwt>
<rscale>  2 0.12142354E+03</rscale>
<asrwt>0</asrwt>
<pdfrwt beam="1">  1       21 0.13348011E+00 0.12142354E+03</pdfrwt>
<pdfrwt beam="2">  1       21 0.32263862E-02 0.12142354E+03</pdfrwt>
<totfact> 0.23246615E+05</totfact>
</mgrwt>
</event>
<event>
 4    1  0.5694171E+003  0.1063122E+03  0.7546771E-02  0.1267556E+00
         21   -1    0    0  504  501  0.00000000000E+00  0.00000000000E+00  0.54348335707E+03  0.54348335707E+03  0.00000000000E+00 0.  1.
         21   -1    0    0  503  502 -0.00000000000E+00 -0.00000000000E+00 -0.70736105775E+02  0.70736105775E+02  0.00000000000E+00 0.  1.
         21    1    1    2  503  501  0.24087458217E+01 -0.10628486620E+03 -0.21672756213E+02  0.10849877050E+03  0.00000000000E+00 0.  1.
         21    1    1    2  504  502 -0.24087458217E+01  0.10628486620E+03  0.49442000751E+03  0.50572069234E+03  0.00000000000E+00 0.  1.
<mgrwt>
<rscale>  2 0.10631216E+03</rscale>
<asrwt>0</asrwt>
<pdfrwt beam="1">  1       21 0.83612821E-01 0.10631216E+03</pdfrwt>
<pdfrwt beam="2">  1       21 0.10882478E-01 0.10631216E+03</pdfrwt>
<totfact> 0.90302718E+04</totfact>
</mgrwt>
</event>
<event>
 4    1  0.5694171E+003  0.1073827E+03  0.7546771E-02  0.1265495E+00
         21   -1    0    0  504  501  0.00000000000E+00  0.00000000000E+00  0.25819836817E+02  0.25819836817E+02  0.00000000000E+00 0. -1.
         21   -1    0    0  503  502 -0.00000000000E+00 -0.00000000000E+00 -0.56082259065E+03  0.56082259065E+03  0.00000000000E+00 0. -1.
         21    1    1    2  503  501  0.10517413124E+03  0.21666563622E+02 -0.39987887917E+03  0.41404607940E+03  0.00000000000E+00 0. -1.
         21    1    1    2  504  502 -0.10517413124E+03 -0.21666563622E+02 -0.13512387466E+03  0.17259634806E+03  0.00000000000E+00 0. -1.
<mgrwt>
<rscale>  2 0.10738267E+03</rscale>
<asrwt>0</asrwt>
<pdfrwt beam="1">  1       21 0.39722829E-02 0.10738267E+03</pdfrwt>
<pdfrwt beam="2">  1       21 0.86280392E-01 0.10738267E+03</pdfrwt>
<totfact> 0.46575052E+05</totfact>
</mgrwt>
</event>
<event>
 4    1  0.5694171E+003  0.1308705E+03  0.7546771E-02  0.1226170E+00
         21   -1    0    0  503  501  0.00000000000E+00  0.00000000000E+00  0.12053032670E+04  0.12053032670E+04  0.00000000000E+00 0.  1.
         21   -1    0    0  504  502 -0.00000000000E+00 -0.00000000000E+00 -0.16363032732E+02  0.16363032732E+02  0.00000000000E+00 0.  1.
         21    1    1    2  503  502 -0.12162932536E+03  0.48305309523E+02  0.81605395490E+03  0.82648118734E+03  0.00000000000E+00 0.  1.
         21    1    1    2  504  501  0.12162932536E+03 -0.48305309523E+02  0.37288627934E+03  0.39518511237E+03  0.00000000000E+00 0.  1.
<mgrwt>
<rscale>  2 0.13087053E+03</rscale>
<asrwt>0</asrwt>
<pdfrwt beam="1">  1       21 0.18543120E+00 0.13087053E+03</pdfrwt>
<pdfrwt beam="2">  1       21 0.25173906E-02 0.13087053E+03</pdfrwt>
<totfact> 0.14595980E+05</totfact>
</mgrwt>
</event>
<event>
 4    1  0.5694171E+003  0.1067950E+03  0.7546771E-02  0.1266623E+00
         21   -1    0    0  503  501  0.00000000000E+00  0.00000000000E+00  0.58787313974E+02  0.58787313974E+02  0.00000000000E+00 0. -1.
         21   -1    0    0  504  502 -0.00000000000E+00 -0.00000000000E+00 -0.27628255092E+03  0.27628255092E+03  0.00000000000E+00 0.  1.
         21    1    1    2  503  502  0.10096165497E+03  0.34812682455E+02 -0.20017215748E+03  0.22687897934E+03  0.00000000000E+00 0.  1.
         21    1    1    2  504  501 -0.10096165497E+03 -0.34812682455E+02 -0.17323079464E+02  0.10819088555E+03  0.00000000000E+00 0. -1.
<mgrwt>
<rscale>  2 0.10679503E+03</rscale>
<asrwt>0</asrwt>
<pdfrwt beam="1">  1       21 0.90442023E-02 0.10679503E+03</pdfrwt>
<pdfrwt beam="2">  1       21 0.42505007E-01 0.10679503E+03</pdfrwt>
<totfact> 0.52065038E+05</totfact>
</mgrwt>
</event>
<event>
 4    1  0.5694171E+003  0.1537742E+03  0.7546771E-02  0.1195911E+00
         21   -1    0    0  504  501  0.00000000000E+00  0.00000000000E+00  0.96376920113E+03  0.96376920113E+03  0.00000000000E+00 0.  1.
         21   -1    0    0  503  502 -0.00000000000E+00 -0.00000000000E+00 -0.31817134214E+02  0.31817134214E+02  0.00000000000E+00 0. -1.
         21    1    1    2  503  501 -0.73653940751E+02  0.13498740892E+03  0.22783482463E+03  0.27487308138E+03  0.00000000000E+00 0. -1.
         21    1    1    2  504  502  0.73653940751E+02 -0.13498740892E+03  0.70411724228E+03  0.72071325396E+03  0.00000000000E+00 0.  1.
<mgrwt>
<rscale>  2 0.15377420E+03</rscale>
<asrwt>0</asrwt>
<pdfrwt beam="1">  1       21 0.14827216E+00 0.15377420E+03</pdfrwt>
<pdfrwt beam="2">  1       21 0.48949445E-02 0.15377420E+03</pdfrwt>
<totfact> 0.87637683E+04</totfact>
</mgrwt>
</event>
<event>
 4    1  0.5694171E+003  0.1017581E+03  0.7546771E-02  0.1276642E+00
         21   -1    0    0  504  501  0.00000000000E+00  0.00000000000E+00  0.46633406923E+02  0.46633406923E+02  0.00000000000E+00 0.  1.
         21   -1    0    0  501  502 -0.00000000000E+00 -0.00000000000E+00 -0.31712339692E+03  0.31712339692E+03  0.00000000000E+00 0.  1.
         21    1    1    2  503  502  0.10161815569E+03 -0.53352181211E+01 -0.23483320991E+03  0.25593231643E+03  0.00000000000E+00 0.  1.
         21    1    1    2  504  503 -0.10161815569E+03  0.53352181211E+01 -0.35656780087E+02  0.10782448741E+03  0.00000000000E+00 0.  1.
<mgrwt>
<rscale>  2 0.10175812E+03</rscale>
<asrwt>0</asrwt>
<pdfrwt beam="1">  1       21 0.71743705E-02 0.10175812E+03</pdfrwt>
<pdfrwt beam="2">  1       21 0.48788213E-01 0.10175812E+03</pdfrwt>
<totfact> 0.58614493E+05</totfact>
</mgrwt>
</event>
<event>
 4    1  0.5694171E+003  0.1082687E+03  0.7546771E-02  0.1263810E+00
         21   -1    0    0  504  501  0.00000000000E+00  0.00000000000E+00  0.14045457203E+03  0.14045457203E+03  0.00000000000E+00 0. -1.
         21   -1    0    0  503  502 -0.00000000000E+00 -0.00000000000E+00 -0.10626525354E+03  0.10626525354E+03  0.00000000000E+00 0. -1.
         21    1    1    2  503  501  0.16137916829E+02 -0.10705919727E+03  0.74244070629E+02  0.13127941995E+03  0.00000000000E+00 0. -1.
         21    1    1    2  504  502 -0.16137916829E+02  0.10705919727E+03 -0.40054752139E+02  0.11544040561E+03  0.00000000000E+00 0. -1.
<mgrwt>
<rscale>  2 0.10826867E+03</rscale>
<asrwt>0</asrwt>
<pdfrwt beam="1">  1       21 0.21608396E-01 0.10826867E+03</pdfrwt>
<pdfrwt beam="2">  1       21 0.16348500E-01 0.10826867E+03</pdfrwt>
<totfact> 0.67255096E+05</totfact>
</mgrwt>
</event>
<event>
 4    1  0.5694171E+003  0.1004356E+03  0.7546771E-02  0.1279383E+00
         21   -1    0    0  502  501  0.00000000000E+00  0.00000000000E+00  0.50979047386E+03  0.50979047386E+03  0.00000000000E+00 0. -1.
         21   -1    0    0  504  502 -0.00000000000E+00 -0.00000000000E+00 -0.69166481455E+02  0.69166481455E+02  0.00000000000E+00 0. -1.
         21    1    1    2  503  501 -0.98578343948E+02  0.19225330948E+02  0.46490330344E+03  0.47562841042E+03  0.00000000000E+00 0. -1.
         21    1    1    2  504  503  0.98578343948E+02 -0.19225330948E+02 -0.24279311039E+02  0.10332854490E+03  0.00000000000E+00 0. -1.
<mgrwt>
<rscale>  2 0.10043557E+03</rscale>
<asrwt>0</asrwt>
<pdfrwt beam="1">  1       21 0.78429301E-01 0.10043557E+03</pdfrwt>
<pdfrwt beam="2">  1       21 0.10640997E-01 0.10043557E+03</pdfrwt>
<totfact> 0.10860564E+05</totfact>
</mgrwt>
</event>
<event>
 4    1  0.5694171E+003  0.1002418E+03  0.7546771E-02  0.1279788E+00
         21   -1    0    0  504  501  0.00000000000E+00  0.00000000000E+00  0.30437661933E+03  0.30437661933E+03  0.00000000000E+00 0.  1.
         21   -1    0    0  503  502 -0.00000000000E+00 -0.00000000000E+00 -0.73523151937E+02  0.73523151937E+02  0.00000000000E+00 0. -1.
         21    1    1    2  503  501 -0.70296857851E+02 -0.71461654234E+02 -0.24827495732E+02  0.10327061922E+03  0.00000000000E+00 0. -1.
         21    1    1    2  504  502  0.70296857851E+02  0.71461654234E+02  0.25568096312E+03  0.27462915205E+03  0.00000000000E+00 0.  1.
<mgrwt>
<rscale>  2 0.10024179E+03</rscale>
<asrwt>0</asrwt>
<pdfrwt beam="1">  1       21 0.46827171E-01 0.10024179E+03</pdfrwt>
<pdfrwt beam="2">  1       21 0.11311254E-01 0.10024179E+03</pdfrwt>
<totfact> 0.29036664E+05</totfact>
</mgrwt>
</event>
<event>
 4    1  0.5694171E+003  0.1448704E+03  0.7546771E-02  0.1206922E+00
         21   -1    0    0  504  501  0.00000000000E+00  0.00000000000E+00  0.37884655817E+03  0.37884655817E+03  0.00000000000E+00 0. -1.
         21   -1    0    0  503  502 -0.00000000000E+00 -0.00000000000E+00 -0.81221776725E+02  0.81221776725E+02  0.00000000000E+00 0. -1.
         21    1    1    2  503  501 -0.14397501638E+03  0.16081943041E+02  0.19105237292E+02  0.14612475603E+03  0.00000000000E+00 0. -1.
         21    1    1    2  504  502  0.14397501638E+03 -0.16081943041E+02  0.27851954415E+03  0.31394357886E+03  0.00000000000E+00 0. -1.
<mgrwt>
<rscale>  2 0.14487040E+03</rscale>
<asrwt>0</asrwt>
<pdfrwt beam="1">  1       21 0.58284085E-01 0.14487040E+03</pdfrwt>
<pdfrwt beam="2">  1       21 0.12495658E-01 0.14487040E+03</pdfrwt>
<totfact> 0.15285938E+05</totfact>
</mgrwt>
</event>
<event>
 4    1  0.5694171E+003  0.1179475E+03  0.7546771E-02  0.1246522E+00
         21   -1    0    0  504  501  0.00000000000E+00  0.00000000000E+00  0.76170215960E+02  0.76170215960E+02  0.00000000000E+00 0. -1.
         21   -1    0    0  503  502 -0.00000000000E+00 -0.00000000000E+00 -0.24666980604E+03  0.24666980604E+03  0.00000000000E+00 0. -1.
         21    1    1    2  503  501  0.25461868208E+02  0.11516644248E+03 -0.30074552132E+01  0.11798585082E+03  0.00000000000E+00 0. -1.
         21    1    1    2  504  502 -0.25461868208E+02 -0.11516644248E+03 -0.16749213486E+03  0.20485417118E+03  0.00000000000E+00 0. -1.
<mgrwt>
<rscale>  2 0.11794751E+03</rscale>
<asrwt>0</asrwt>
<pdfrwt beam="1">  1       21 0.11718495E-01 0.11794751E+03</pdfrwt>
<pdfrwt beam="2">  1       21 0.37949201E-01 0.11794751E+03</pdfrwt>
<totfact> 0.41470677E+05</totfact>
</mgrwt>
</event>
<event>
 4    1  0.5694171E+003  0.1209847E+03  0.7546771E-02  0.1241481E+00
         21   -1    0    0  503  501  0.00000000000E+00  0.00000000000E+00  0.66637978292E+03  0.66637978292E+03  0.00000000000E+00 0.  1.
         21   -1    0    0  504  502 -0.00000000000E+00 -0.00000000000E+00 -0.10019867707E+03  0.10019867707E+03  0.00000000000E+00 0. -1.
         21    1    1    2  503  502 -0.94395714624E+02 -0.75675335841E+02  0.62177195314E+03  0.63343323966E+03  0.00000000000E+00 0.  1.
         21    1    1    2  504  501  0.94395714624E+02  0.75675335841E+02 -0.55590847294E+02  0.13314522033E+03  0.00000000000E+00 0. -1.
<mgrwt>
<rscale>  2 0.12098474E+03</rscale>
<asrwt>0</asrwt>
<pdfrwt beam="1">  1       21 0.10251996E+00 0.12098474E+03</pdfrwt>
<pdfrwt beam="2">  1       21 0.15415181E-01 0.12098474E+03</pdfrwt>
<totfact> 0.30202961E+04</totfact>
</mgrwt>
</event>
<event>
 4    1  0.5694171E+003  0.1101451E+03  0.7546771E-02  0.1260301E+00
         21   -1    0    0  503  501  0.00000000000E+00  0.00000000000E+00  0.24654496791E+02  0.24654496791E+02  0.00000000000E+00 0.  1.
         21   -1    0    0  504  502 -0.00000000000E+00 -0.00000000000E+00 -0.16182184675E+04  0.16182184675E+04  0.00000000000E+00 0.  1.
         21    1    1    2  503  502  0.67812509224E+02  0.86795197144E+02 -0.11152789455E+03  0.15674952605E+03  0.00000000000E+00 0.  1.
         21    1    1    2  504  501 -0.67812509224E+02 -0.86795197144E+02 -0.14820360762E+04  0.14861234383E+04  0.00000000000E+00 0.  1.
<mgrwt>
<rscale>  2 0.11014510E+03</rscale>
<asrwt>0</asrwt>
<pdfrwt beam="1">  1       21 0.37929997E-02 0.11014510E+03</pdfrwt>
<pdfrwt beam="2">  1       21 0.24895668E+00 0.11014510E+03</pdfrwt>
<totfact> 0.31347994E+04</totfact>
</mgrwt>
</event>
<event>
 4    1  0.5694171E+003  0.1629445E+03  0.7546771E-02  0.1185412E+00
         21   -1    0    0  502  501  0.00000000000E+00  0.00000000000E+00  0.23988170175E+03  0.23988170175E+03  0.00000000000E+00 0. -1.
         21   -1    0    0  503  502 -0.00000000000E+00 -0.00000000000E+00 -0.13506666977E+03  0.13506666977E+03  0.00000000000E+00 0. -1.
         21    1    1    2  503  504 -0.13845617275E+03  0.85911661647E+02 -0.27247520213E+02  0.16520699966E+03  0.00000000000E+00 0. -1.
         21    1    1    2  504  501  0.13845617275E+03 -0.85911661647E+02  0.13206255220E+03  0.20974137186E+03  0.00000000000E+00 0. -1.
<mgrwt>
<rscale>  2 0.16294455E+03</rscale>
<asrwt>0</asrwt>
<pdfrwt beam="1">  1       21 0.36904877E-01 0.16294455E+03</pdfrwt>
<pdfrwt beam="2">  1       21 0.20779488E-01 0.16294455E+03</pdfrwt>
<totfact> 0.15367494E+05</totfact>
</mgrwt>
</event>
<event>
 4    1  0.5694171E+003  0.1564294E+03  0.7546771E-02  0.1192788E+00
         21   -1    0    0  503  501  0.00000000000E+00  0.00000000000E+00  0.56178084822E+02  0.56178084822E+02  0.00000000000E+00 0.  1.
         21   -1    0    0  504  502 -0.00000000000E+00 -0.00000000000E+00 -0.75814675710E+03  0.75814675710E+03  0.00000000000E+00 0.  1.
         21    1    1    2  503  502  0.14758684019E+03  0.51848678702E+02 -0.61656687896E+03  0.63610131041E+03  0.00000000000E+00 0.  1.
         21    1    1    2  504  501 -0.14758684019E+03 -0.51848678702E+02 -0.85401793319E+02  0.17822353151E+03  0.00000000000E+00 0.  1.
<mgrwt>
<rscale>  2 0.15642941E+03</rscale>
<asrwt>0</asrwt>
<pdfrwt beam="1">  1       21 0.86427820E-02 0.15642941E+03</pdfrwt>
<pdfrwt beam="2">  1       21 0.11663797E+00 0.15642941E+03</pdfrwt>
<totfact> 0.60503996E+04</totfact>
</mgrwt>
</event>
<event>
 4    1  0.5694171E+003  0.1441712E+03  0.7546771E-02  0.1207824E+00
         21   -1    0    0  503  501  0.00000000000E+00  0.00000000000E+00  0.30119511972E+03  0.30119511972E+03  0.00000000000E+00 0.  1.
         21   -1    0    0  504  502 -0.00000000000E+00 -0.00000000000E+00 -0.76732930729E+02  0.76732930729E+02  0.00000000000E+00 0.  1.
         21    1    1    2  503  502 -0.71977456937E+01 -0.14399137648E+03  0.52280510268E+02  0.15335767277E+03  0.00000000000E+00 0.  1.
         21    1    1    2  504  501  0.71977456937E+01  0.14399137648E+03  0.17218167872E+03  0.22457037768E+03  0.00000000000E+00 0.  1.
<mgrwt>
<rscale>  2 0.14417116E+03</rscale>
<asrwt>0</asrwt>
<pdfrwt beam="1">  1       21 0.46337710E-01 0.14417116E+03</pdfrwt>
<pdfrwt beam="2">  1       21 0.11805066E-01 0.14417116E+03</pdfrwt>
<totfact> 0.27269028E+05</totfact>
</mgrwt>
</event>
<event>
 4    1  0.5694171E+003  0.1555215E+03  0.7546771E-02  0.1193848E+00
         21   -1    0    0  504  501  0.00000000000E+00  0.00000000000E+00  0.25277502322E+03  0.25277502322E+03  0.00000000000E+00 0. -1.
         21   -1    0    0  503  502 -0.00000000000E+00 -0.00000000000E+00 -0.97786561783E+02  0.97786561783E+02  0.00000000000E+00 0. -1.
         21    1    1    2  503  501 -0.14358201217E+03  0.59759007539E+02  0.10318649673E+03  0.18663972329E+03  0.00000000000E+00 0. -1.
         21    1    1    2  504  502  0.14358201217E+03 -0.59759007539E+02  0.51801964712E+02  0.16392186172E+03  0.00000000000E+00 0. -1.
<mgrwt>
<rscale>  2 0.15552149E+03</rscale>
<asrwt>0</asrwt>
<pdfrwt beam="1">  1       21 0.38888465E-01 0.15552149E+03</pdfrwt>
<pdfrwt beam="2">  1       21 0.15044087E-01 0.15552149E+03</pdfrwt>
<totfact> 0.25116167E+05</totfact>
</mgrwt>
</event>
<event>
 4    1  0.5694171E+003  0.1154503E+03  0.7546771E-02  0.1250797E+00
         21   -1    0    0  504  501  0.00000000000E+00  0.00000000000E+00  0.28733277813E+03  0.28733277813E+03  0.00000000000E+00 0. -1.
         21   -1    0    0  503  502 -0.00000000000E+00 -0.00000000000E+00 -0.18504441841E+03  0.18504441841E+03  0.00000000000E+00 0. -1.
         21    1    1    2  503  501 -0.99011119304E+02  0.59376485044E+02  0.25559603455E+03  0.28046051701E+03  0.00000000000E+00 0. -1.
         21    1    1    2  504  502  0.99011119304E+02 -0.59376485044E+02 -0.15330767483E+03  0.19191667953E+03  0.00000000000E+00 0. -1.
<mgrwt>
<rscale>  2 0.11545029E+03</rscale>
<asrwt>0</asrwt>
<pdfrwt beam="1">  1       21 0.44205042E-01 0.11545029E+03</pdfrwt>
<pdfrwt beam="2">  1       21 0.28468372E-01 0.11545029E+03</pdfrwt>
<totfact> 0.60191549E+04</totfact>
</mgrwt>
</event>
<event>
 4    1  0.5694171E+003  0.1012414E+03  0.7546771E-02  0.1277707E+00
         21   -1    0    0  503  501  0.00000000000E+00  0.00000000000E+00  0.32959984422E+03  0.32959984422E+03  0.00000000000E+00 0. -1.
         21   -1    0    0  504  502 -0.00000000000E+00 -0.00000000000E+00 -0.52589083420E+03  0.52589083420E+03  0.00000000000E+00 0.  1.
         21    1    1    2  503  502  0.37916312639E+02  0.93873225147E+02  0.31676008436E+03  0.33254590692E+03  0.00000000000E+00 0. -1.
         21    1    1    2  504  501 -0.37916312639E+02 -0.93873225147E+02 -0.51305107434E+03  0.52294477150E+03  0.00000000000E+00 0.  1.
<mgrwt>
<rscale>  2 0.10124144E+03</rscale>
<asrwt>0</asrwt>
<pdfrwt beam="1">  1       21 0.50707669E-01 0.10124144E+03</pdfrwt>
<pdfrwt beam="2">  1       21 0.80906282E-01 0.10124144E+03</pdfrwt>
<totfact> 0.54218119E+03</totfact>
</mgrwt>
</event>
<event>
 4    1  0.5694171E+003  0.1186740E+03  0.7546771E-02  0.1245301E+00
         21   -1    0    0  503  501  0.00000000000E+00  0.00000000000E+00  0.83131699250E+02  0.83131699250E+02  0.00000000000E+00 0. -1.
         21   -1    0    0  501  502 -0.00000000000E+00 -0.00000000000E+00 -0.25517973226E+03  0.25517973226E+03  0.00000000000E+00 0. -1.
         21    1    1    2  503  504  0.10394603870E+03 -0.57260250940E+02  0.12043530548E+02  0.11928353586E+03  0.00000000000E+00 0. -1.
         21    1    1    2  504  502 -0.10394603870E+03  0.57260250940E+02 -0.18409156356E+03  0.21902789565E+03  0.00000000000E+00 0. -1.
<mgrwt>
<rscale>  2 0.11867399E+03</rscale>
<asrwt>0</asrwt>
<pdfrwt beam="1">  1       21 0.12789492E-01 0.11867399E+03</pdfrwt>
<pdfrwt beam="2">  1       21 0.39258420E-01 0.11867399E+03</pdfrwt>
<totfact> 0.33207976E+05</totfact>
</mgrwt>
</event>
<event>
 4    1  0.5694171E+003  0.1351393E+03  0.7546771E-02  0.1220023E+00
         21   -1    0    0  502  501  0.00000000000E+00  0.00000000000E+00  0.59825617144E+03  0.59825617144E+03  0.00000000000E+00 0. -1.
         21   -1    0    0  504  502 -0.00000000000E+00 -0.00000000000E+00 -0.21129527529E+03  0.21129527529E+03  0.00000000000E+00 0.  1.
         21    1    1    2  503  501  0.79704796299E+01  0.13490402948E+03  0.56787658186E+03  0.58373490382E+03  0.00000000000E+00 0. -1.
         21    1    1    2  504  503 -0.79704796299E+01 -0.13490402948E+03 -0.18091568571E+03  0.22581654291E+03  0.00000000000E+00 0.  1.
<mgrwt>
<rscale>  2 0.13513928E+03</rscale>
<asrwt>0</asrwt>
<pdfrwt beam="1">  1       21 0.92039411E-01 0.13513928E+03</pdfrwt>
<pdfrwt beam="2">  1       21 0.32506966E-01 0.13513928E+03</pdfrwt>
<totfact> 0.94983461E+03</totfact>
</mgrwt>
</event>
<event>
 4    1  0.5694171E+003  0.1023944E+03  0.7546771E-02  0.1275340E+00
         21   -1    0    0  502  501  0.00000000000E+00  0.00000000000E+00  0.32893927074E+02  0.32893927074E+02  0.00000000000E+00 0.  1.
         21   -1    0    0  504  502 -0.00000000000E+00 -0.00000000000E+00 -0.33299875788E+03  0.33299875788E+03  0.00000000000E+00 0.  1.
         21    1    1    2  503  501  0.51198081433E+02  0.88675688964E+02 -0.11219611576E+03  0.15189664166E+03  0.00000000000E+00 0.  1.
         21    1    1    2  504  503 -0.51198081433E+02 -0.88675688964E+02 -0.18790871504E+03  0.21399604329E+03  0.00000000000E+00 0.  1.
<mgrwt>
<rscale>  2 0.10239444E+03</rscale>
<asrwt>0</asrwt>
<pdfrwt beam="1">  1       21 0.50606040E-02 0.10239444E+03</pdfrwt>
<pdfrwt beam="2">  1       21 0.51230580E-01 0.10239444E+03</pdfrwt>
<totfact> 0.95532345E+05</totfact>
</mgrwt>
</event>
<event>
 4    1  0.5694171E+003  0.1357283E+03  0.7546771E-02  0.1219195E+00
         21   -1    0    0  503  501  0.00000000000E+00  0.00000000000E+00  0.15788179420E+04  0.15788179420E+04  0.00000000000E+00 0.  1.
         21   -1    0    0  504  502 -0.00000000000E+00 -0.00000000000E+00 -0.40797676170E+02  0.40797676170E+02  0.00000000000E+00 0. -1.
         21    1    1    2  503  502  0.13544433059E+03  0.87745448322E+01  0.84736729429E+02  0.16000772682E+03  0.00000000000E+00 0. -1.
         21    1    1    2  504  501 -0.13544433059E+03 -0.87745448322E+01  0.14532835364E+04  0.14596078914E+04  0.00000000000E+00 0.  1.
<mgrwt>
<rscale>  2 0.13572826E+03</rscale>
<asrwt>0</asrwt>
<pdfrwt beam="1">  1       21 0.24289502E+00 0.13572826E+03</pdfrwt>
<pdfrwt beam="2">  1       21 0.62765668E-02 0.13572826E+03</pdfrwt>
<totfact> 0.14157095E+04</totfact>
</mgrwt>
</event>
<event>
 4    1  0.5694171E+003  0.1432624E+03  0.7546771E-02  0.1209005E+00
         21   -1    0    0  504  501  0.00000000000E+00  0.00000000000E+00  0.73051823073E+02  0.73051823073E+02  0.00000000000E+00 0.  1.
         21   -1    0    0  503  502 -0.00000000000E+00 -0.00000000000E+00 -0.37338233120E+03  0.37338233120E+03  0.00000000000E+00 0.  1.
         21    1    1    2  503  501  0.91726399942E+02 -0.11004714010E+03 -0.26122487634E+03  0.29793043065E+03  0.00000000000E+00 0.  1.
         21    1    1    2  504  502 -0.91726399942E+02  0.11004714010E+03 -0.39105631786E+02  0.14850372362E+03  0.00000000000E+00 0.  1.
<mgrwt>
<rscale>  2 0.14326237E+03</rscale>
<asrwt>0</asrwt>
<pdfrwt beam="1">  1       21 0.11238742E-01 0.14326237E+03</pdfrwt>
<pdfrwt beam="2">  1       21 0.57443434E-01 0.14326237E+03</pdfrwt>
<totfact> 0.19035951E+05</totfact>
</mgrwt>
</event>
<event>
 4    1  0.5694171E+003  0.1459115E+03  0.7546771E-02  0.1205589E+00
         21   -1    0    0  502  501  0.00000000000E+00  0.00000000000E+00  0.19097191597E+03  0.19097191597E+03  0.00000000000E+00 0.  1.
         21   -1    0    0  504  502 -0.00000000000E+00 -0.00000000000E+00 -0.41257022226E+03  0.41257022226E+03  0.00000000000E+00 0.  1.
         21    1    1    2  503  501  0.55543245359E+02  0.13492632693E+03  0.14699594754E+03  0.20711826186E+03  0.00000000000E+00 0.  1.
         21    1    1    2  504  503 -0.55543245359E+02 -0.13492632693E+03 -0.36859425383E+03  0.39642387637E+03  0.00000000000E+00 0.  1.
<mgrwt>
<rscale>  2 0.14591150E+03</rscale>
<asrwt>0</asrwt>
<pdfrwt beam="1">  1       21 0.29380295E-01 0.14591150E+03</pdfrwt>
<pdfrwt beam="2">  1       21 0.63472342E-01 0.14591150E+03</pdfrwt>
<totfact> 0.26185501E+04</totfact>
</mgrwt>
</event>
<event>
 4    1  0.5694171E+003  0.1281781E+03  0.7546771E-02  0.1230184E+00
         21   -1    0    0  502  501  0.00000000000E+00  0.00000000000E+00  0.94375770272E+02  0.94375770272E+02  0.00000000000E+00 0.  1.
         21   -1    0    0  503  502 -0.00000000000E+00 -0.00000000000E+00 -0.58427575062E+03  0.58427575062E+03  0.00000000000E+00 0. -1.
         21    1    1    2  503  504 -0.47537715954E+02  0.11903697853E+03 -0.52926483598E+03  0.54456487520E+03  0.00000000000E+00 0. -1.
         21    1    1    2  504  501  0.47537715954E+02 -0.11903697853E+03  0.39364855626E+02  0.13408664570E+03  0.00000000000E+00 0.  1.
<mgrwt>
<rscale>  2 0.12817814E+03</rscale>
<asrwt>0</asrwt>
<pdfrwt beam="1">  1       21 0.14519349E-01 0.12817814E+03</pdfrwt>
<pdfrwt beam="2">  1       21 0.89888577E-01 0.12817814E+03</pdfrwt>
<totfact> 0.45402834E+04</totfact>
</mgrwt>
</event>
<event>
 4    1  0.5694171E+003  0.1280431E+03  0.7546771E-02  0.1230389E+00
         21   -1    0    0  503  501  0.00000000000E+00  0.00000000000E+00  0.42505443199E+02  0.42505443199E+02  0.00000000000E+00 0.  1.
         21   -1    0    0  504  502 -0.00000000000E+00 -0.00000000000E+00 -0.42915723952E+03  0.42915723952E+03  0.00000000000E+00 0.  1.
         21    1    1    2  503  502 -0.67202541916E+01 -0.12786666643E+03 -0.11829460296E+03  0.17432343299E+03  0.00000000000E+00 0.  1.
         21    1    1    2  504  501  0.67202541916E+01  0.12786666643E+03 -0.26835719336E+03  0.29733924972E+03  0.00000000000E+00 0.  1.
<mgrwt>
<rscale>  2 0.12804314E+03</rscale>
<asrwt>0</asrwt>
<pdfrwt beam="1">  1       21 0.65392984E-02 0.12804314E+03</pdfrwt>
<pdfrwt beam="2">  1       21 0.66024196E-01 0.12804314E+03</pdfrwt>
<totfact> 0.36292271E+05</totfact>
</mgrwt>
</event>
<event>
 4    1  0.5694171E+003  0.1088048E+03  0.7546771E-02  0.1262799E+00
         21   -1    0    0  503  501  0.00000000000E+00  0.00000000000E+00  0.79723157968E+01  0.79723157968E+01  0.00000000000E+00 0. -1.
         21   -1    0    0  501  502 -0.00000000000E+00 -0.00000000000E+00 -0.15508351808E+04  0.15508351808E+04  0.00000000000E+00 0. -1.
         21    1    1    2  503  504 -0.49577676055E+02  0.96853134216E+02 -0.61078183352E+03  0.62039739178E+03  0.00000000000E+00 0. -1.
         21    1    1    2  504  502  0.49577676055E+02 -0.96853134216E+02 -0.93208103154E+03  0.93841010487E+03  0.00000000000E+00 0. -1.
<mgrwt>
<rscale>  2 0.10880476E+03</rscale>
<asrwt>0</asrwt>
<pdfrwt beam="1">  1       21 0.12265100E-02 0.10880476E+03</pdfrwt>
<pdfrwt beam="2">  1       21 0.23859006E+00 0.10880476E+03</pdfrwt>
<totfact> 0.22233810E+05</totfact>
</mgrwt>
</event>
<event>
 4    1  0.5694171E+003  0.1211666E+03  0.7546771E-02  0.1241185E+00
         21   -1    0    0  503  501  0.00000000000E+00  0.00000000000E+00  0.11482228830E+03  0.11482228830E+03  0.00000000000E+00 0.  1.
         21   -1    0    0  504  502 -0.00000000000E+00 -0.00000000000E+00 -0.13220055586E+03  0.13220055586E+03  0.00000000000E+00 0.  1.
         21    1    1    2  503  502 -0.95629432334E+02 -0.74406744044E+02  0.13687115212E+02  0.12193723390E+03  0.00000000000E+00 0.  1.
         21    1    1    2  504  501  0.95629432334E+02  0.74406744044E+02 -0.31065382769E+02  0.12508561026E+03  0.00000000000E+00 0.  1.
<mgrwt>
<rscale>  2 0.12116663E+03</rscale>
<asrwt>0</asrwt>
<pdfrwt beam="1">  1       21 0.17664968E-01 0.12116663E+03</pdfrwt>
<pdfrwt beam="2">  1       21 0.20338547E-01 0.12116663E+03</pdfrwt>
<totfact> 0.65367309E+05</totfact>
</mgrwt>
</event>
<event>
 4    1  0.5694171E+003  0.1529961E+03  0.7546771E-02  0.1196839E+00
         21   -1    0    0  504  501  0.00000000000E+00  0.00000000000E+00  0.43634252274E+02  0.43634252274E+02  0.00000000000E+00 0.  1.
         21   -1    0    0  503  502 -0.00000000000E+00 -0.00000000000E+00 -0.57897286357E+03  0.57897286357E+03  0.00000000000E+00 0.  1.
         21    1    1    2  503  501 -0.73890972097E+02 -0.13396985340E+03 -0.18330815349E+03  0.23876699209E+03  0.00000000000E+00 0.  1.
         21    1    1    2  504  502  0.73890972097E+02  0.13396985340E+03 -0.35203045780E+03  0.38384012375E+03  0.00000000000E+00 0.  1.
<mgrwt>
<rscale>  2 0.15299607E+03</rscale>
<asrwt>0</asrwt>
<pdfrwt beam="1">  1       21 0.67129614E-02 0.15299607E+03</pdfrwt>
<pdfrwt beam="2">  1       21 0.89072754E-01 0.15299607E+03</pdfrwt>
<totfact> 0.17729365E+05</totfact>
</mgrwt>
</event>
<event>
 4    1  0.5694171E+003  0.1002082E+03  0.7546771E-02  0.1279859E+00
         21   -1    0    0  503  501  0.00000000000E+00  0.00000000000E+00  0.15698078735E+03  0.15698078735E+03  0.00000000000E+00 0. -1.
         21   -1    0    0  504  502 -0.00000000000E+00 -0.00000000000E+00 -0.10419627825E+03  0.10419627825E+03  0.00000000000E+00 0. -1.
         21    1    1    2  503  502 -0.62178899420E+02 -0.78584203541E+02  0.10753440871E+03  0.14698755606E+03  0.00000000000E+00 0. -1.
         21    1    1    2  504  501  0.62178899420E+02  0.78584203541E+02 -0.54749899618E+02  0.11418950953E+03  0.00000000000E+00 0. -1.
<mgrwt>
<rscale>  2 0.10020825E+03</rscale>
<asrwt>0</asrwt>
<pdfrwt beam="1">  1       21 0.24150890E-01 0.10020825E+03</pdfrwt>
<pdfrwt beam="2">  1       21 0.16030197E-01 0.10020825E+03</pdfrwt>
<totfact> 0.56636336E+05</totfact>
</mgrwt>
</event>
<event>
 4    1  0.5694171E+003  0.1011089E+03  0.7546771E-02  0.1277981E+00
         21   -1    0    0  504  501  0.00000000000E+00  0.00000000000E+00  0.10810918820E+03  0.10810918820E+03  0.00000000000E+00 0. -1.
         21   -1    0    0  501  502 -0.00000000000E+00 -0.00000000000E+00 -0.95227070132E+02  0.95227070132E+02  0.00000000000E+00 0. -1.
         21    1    1    2  503  502  0.42967813647E+02  0.91524765983E+02 -0.20557179391E+01  0.10112982633E+03  0.00000000000E+00 0. -1.
         21    1    1    2  504  503 -0.42967813647E+02 -0.91524765983E+02  0.14937836011E+02  0.10220643200E+03  0.00000000000E+00 0. -1.
<mgrwt>
<rscale>  2 0.10110893E+03</rscale>
<asrwt>0</asrwt>
<pdfrwt beam="1">  1       21 0.16632183E-01 0.10110893E+03</pdfrwt>
<pdfrwt beam="2">  1       21 0.14650319E-01 0.10110893E+03</pdfrwt>
<totfact> 0.13208330E+06</totfact>
</mgrwt>
</event>
<event>
 4    1  0.5694171E+003  0.1112441E+03  0.7546771E-02  0.1258283E+00
         21   -1    0    0  502  501  0.00000000000E+00  0.00000000000E+00  0.10544243769E+03  0.10544243769E+03  0.00000000000E+00 0. -1.
         21   -1    0    0  504  502 -0.00000000000E+00 -0.00000000000E+00 -0.24848148577E+03  0.24848148577E+03  0.00000000000E+00 0.  1.
         21    1    1    2  503  501 -0.94208984395E+01 -0.11084448898E+03  0.57027349870E+02  0.12500949043E+03  0.00000000000E+00 0. -1.
         21    1    1    2  504  503  0.94208984395E+01  0.11084448898E+03 -0.20006639794E+03  0.22891443303E+03  0.00000000000E+00 0.  1.
<mgrwt>
<rscale>  2 0.11124412E+03</rscale>
<asrwt>0</asrwt>
<pdfrwt beam="1">  1       21 0.16221914E-01 0.11124412E+03</pdfrwt>
<pdfrwt beam="2">  1       21 0.38227921E-01 0.11124412E+03</pdfrwt>
<totfact> 0.22901443E+05</totfact>
</mgrwt>
</event>
<event>
 4    1  0.5694171E+003  0.1018909E+03  0.7546771E-02  0.1276369E+00
         21   -1    0    0  502  501  0.00000000000E+00  0.00000000000E+00  0.16261116115E+03  0.16261116115E+03  0.00000000000E+00 0. -1.
         21   -1    0    0  504  502 -0.00000000000E+00 -0.00000000000E+00 -0.12085383939E+03  0.12085383939E+03  0.00000000000E+00 0. -1.
         21    1    1    2  503  501  0.53624739513E+01 -0.10174966854E+03  0.11822374680E+03  0.15607243665E+03  0.00000000000E+00 0. -1.
         21    1    1    2  504  503 -0.53624739513E+01  0.10174966854E+03 -0.76466425048E+02  0.12739256389E+03  0.00000000000E+00 0. -1.
<mgrwt>
<rscale>  2 0.10189088E+03</rscale>
<asrwt>0</asrwt>
<pdfrwt beam="1">  1       21 0.25017102E-01 0.10189088E+03</pdfrwt>
<pdfrwt beam="2">  1       21 0.18592898E-01 0.10189088E+03</pdfrwt>
<totfact> 0.40521559E+05</totfact>
</mgrwt>
</event>
<event>
 4    1  0.5694171E+003  0.1089855E+03  0.7546771E-02  0.1262460E+00
         21   -1    0    0  504  501  0.00000000000E+00  0.00000000000E+00  0.77606482243E+02  0.77606482243E+02  0.00000000000E+00 0.  1.
         21   -1    0    0  503  502 -0.00000000000E+00 -0.00000000000E+00 -0.21226058054E+03  0.21226058054E+03  0.00000000000E+00 0.  1.
         21    1    1    2  503  501 -0.10891508835E+03 -0.39173187504E+01  0.92195390218E+01  0.10937477660E+03  0.00000000000E+00 0.  1.
         21    1    1    2  504  502  0.10891508835E+03  0.39173187504E+01 -0.14387363732E+03  0.18049228619E+03  0.00000000000E+00 0.  1.
<mgrwt>
<rscale>  2 0.10898551E+03</rscale>
<asrwt>0</asrwt>
<pdfrwt beam="1">  1       21 0.11939459E-01 0.10898551E+03</pdfrwt>
<pdfrwt beam="2">  1       21 0.32655474E-01 0.10898551E+03</pdfrwt>
<totfact> 0.53898592E+05</totfact>
</mgrwt>
</event>
<event>
 4    1  0.5694171E+003  0.1067684E+03  0.7546771E-02  0.1266674E+00
         21   -1    0    0  504  501  0.00000000000E+00  0.00000000000E+00  0.50097076876E+02  0.50097076876E+02  0.00000000000E+00 0.  1.
         21   -1    0    0  503  502 -0.00000000000E+00 -0.00000000000E+00 -0.23759204797E+03  0.23759204797E+03  0.00000000000E+00 0.  1.
         21    1    1    2  503  501 -0.10056639335E+03 -0.35859339606E+02 -0.12332291086E+03  0.16311968628E+03  0.00000000000E+00 0.  1.
         21    1    1    2  504  502  0.10056639335E+03  0.35859339606E+02 -0.64172060233E+02  0.12456943856E+03  0.00000000000E+00 0.  1.
<mgrwt>
<rscale>  2 0.10676840E+03</rscale>
<asrwt>0</asrwt>
<pdfrwt beam="1">  1       21 0.77072428E-02 0.10676840E+03</pdfrwt>
<pdfrwt beam="2">  1       21 0.36552622E-01 0.10676840E+03</pdfrwt>
<totfact> 0.92488799E+05</totfact>
</mgrwt>
</event>
<event>
 4    1  0.5694171E+003  0.1017411E+03  0.7546771E-02  0.1276677E+00
         21   -1    0    0  504  501  0.00000000000E+00  0.00000000000E+00  0.40598080147E+03  0.40598080147E+03  0.00000000000E+00 0. -1.
         21   -1    0    0  503  502 -0.00000000000E+00 -0.00000000000E+00 -0.26320450523E+02  0.26320450523E+02  0.00000000000E+00 0. -1.
         21    1    1    2  503  501  0.95375625623E+02 -0.35422434582E+02  0.22806423888E+03  0.24972896486E+03  0.00000000000E+00 0. -1.
         21    1    1    2  504  502 -0.95375625623E+02  0.35422434582E+02  0.15159611207E+03  0.18257228713E+03  0.00000000000E+00 0. -1.
<mgrwt>
<rscale>  2 0.10174114E+03</rscale>
<asrwt>0</asrwt>
<pdfrwt beam="1">  1       21 0.62458581E-01 0.10174114E+03</pdfrwt>
<pdfrwt beam="2">  1       21 0.40493004E-02 0.10174114E+03</pdfrwt>
<totfact> 0.91452291E+05</totfact>
</mgrwt>
</event>
<event>
 4    1  0.5694171E+003  0.1038519E+03  0.7546771E-02  0.1272398E+00
         21   -1    0    0  503  501  0.00000000000E+00  0.00000000000E+00  0.21094410494E+03  0.21094410494E+03  0.00000000000E+00 0.  1.
         21   -1    0    0  504  502 -0.00000000000E+00 -0.00000000000E+00 -0.53961707866E+02  0.53961707866E+02  0.00000000000E+00 0.  1.
         21    1    1    2  503  502  0.10054813080E+03 -0.25986239059E+02  0.10884226915E+03  0.15043886061E+03  0.00000000000E+00 0.  1.
         21    1    1    2  504  501 -0.10054813080E+03  0.25986239059E+02  0.48140127927E+02  0.11446695220E+03  0.00000000000E+00 0.  1.
<mgrwt>
<rscale>  2 0.10385187E+03</rscale>
<asrwt>0</asrwt>
<pdfrwt beam="1">  1       21 0.32452939E-01 0.10385187E+03</pdfrwt>
<pdfrwt beam="2">  1       21 0.83018013E-02 0.10385187E+03</pdfrwt>
<totfact> 0.10263503E+06</totfact>
</mgrwt>
</event>
<event>
 4    1  0.5694171E+003  0.1004588E+03  0.7546771E-02  0.1279334E+00
         21   -1    0    0  503  501  0.00000000000E+00  0.00000000000E+00  0.96248920841E+02  0.96248920841E+02  0.00000000000E+00 0.  1.
         21   -1    0    0  504  502 -0.00000000000E+00 -0.00000000000E+00 -0.16255499285E+03  0.16255499285E+03  0.00000000000E+00 0.  1.
         21    1    1    2  503  502  0.29316052910E+02 -0.96086145899E+02 -0.11024985739E+03  0.14915431421E+03  0.00000000000E+00 0.  1.
         21    1    1    2  504  501 -0.29316052910E+02  0.96086145899E+02  0.43943785386E+02  0.10964959948E+03  0.00000000000E+00 0.  1.
<mgrwt>
<rscale>  2 0.10045884E+03</rscale>
<asrwt>0</asrwt>
<pdfrwt beam="1">  1       21 0.14807526E-01 0.10045884E+03</pdfrwt>
<pdfrwt beam="2">  1       21 0.25008460E-01 0.10045884E+03</pdfrwt>
<totfact> 0.61169831E+05</totfact>
</mgrwt>
</event>
<event>
 4    1  0.5694171E+003  0.1263888E+03  0.7546771E-02  0.1232915E+00
         21   -1    0    0  502  501  0.00000000000E+00  0.00000000000E+00  0.14682686182E+02  0.14682686182E+02  0.00000000000E+00 0.  1.
         21   -1    0    0  504  502 -0.00000000000E+00 -0.00000000000E+00 -0.10959265591E+04  0.10959265591E+04  0.00000000000E+00 0.  1.
         21    1    1    2  503  501  0.12088425464E+03 -0.36893495325E+02 -0.58797568436E+03  0.60140630061E+03  0.00000000000E+00 0.  1.
         21    1    1    2  504  503 -0.12088425464E+03  0.36893495325E+02 -0.49326818855E+03  0.50920294466E+03  0.00000000000E+00 0.  1.
<mgrwt>
<rscale>  2 0.12638882E+03</rscale>
<asrwt>0</asrwt>
<pdfrwt beam="1">  1       21 0.22588748E-02 0.12638882E+03</pdfrwt>
<pdfrwt beam="2">  1       21 0.16860408E+00 0.12638882E+03</pdfrwt>
<totfact> 0.22655311E+05</totfact>
</mgrwt>
</event>
<event>
 4    1  0.5694171E+003  0.1253544E+03  0.7546771E-02  0.1234516E+00
         21   -1    0    0  503  501  0.00000000000E+00  0.00000000000E+00  0.34729046956E+03  0.34729046956E+03  0.00000000000E+00 0. -1.
         21   -1    0    0  501  502 -0.00000000000E+00 -0.00000000000E+00 -0.55228035881E+02  0.55228035881E+02  0.00000000000E+00 0. -1.
         21    1    1    2  503  504  0.94734331712E+02 -0.82092271949E+02  0.23159130123E+03  0.26334058844E+03  0.00000000000E+00 0. -1.
         21    1    1    2  504  502 -0.94734331712E+02  0.82092271949E+02  0.60471132448E+02  0.13917791699E+03  0.00000000000E+00 0. -1.
<mgrwt>
<rscale>  2 0.12535444E+03</rscale>
<asrwt>0</asrwt>
<pdfrwt beam="1">  1       21 0.53429302E-01 0.12535444E+03</pdfrwt>
<pdfrwt beam="2">  1       21 0.84966211E-02 0.12535444E+03</pdfrwt>
<totfact> 0.36277947E+05</totfact>
</mgrwt>
</event>
<event>
 4    1  0.5694171E+003  0.1346050E+03  0.7546771E-02  0.1220778E+00
         21   -1    0    0  503  501  0.00000000000E+00  0.00000000000E+00  0.19717508852E+03  0.19717508852E+03  0.00000000000E+00 0.  1.
         21   -1    0    0  504  502 -0.00000000000E+00 -0.00000000000E+00 -0.94654374685E+02  0.94654374685E+02  0.00000000000E+00 0.  1.
         21    1    1    2  503  502  0.65094379609E+02 -0.11781859773E+03  0.76194522566E+02  0.15467419144E+03  0.00000000000E+00 0.  1.
         21    1    1    2  504  501 -0.65094379609E+02  0.11781859773E+03  0.26326191271E+02  0.13715527177E+03  0.00000000000E+00 0.  1.
<mgrwt>
<rscale>  2 0.13460498E+03</rscale>
<asrwt>0</asrwt>
<pdfrwt beam="1">  1       21 0.30334629E-01 0.13460498E+03</pdfrwt>
<pdfrwt beam="2">  1       21 0.14562212E-01 0.13460498E+03</pdfrwt>
<totfact> 0.43557873E+05</totfact>
</mgrwt>
</event>
<event>
 4    1  0.5694171E+003  0.1260623E+03  0.7546771E-02  0.1233418E+00
         21   -1    0    0  503  501  0.00000000000E+00  0.00000000000E+00  0.53862132600E+02  0.53862132600E+02  0.00000000000E+00 0. -1.
         21   -1    0    0  504  502 -0.00000000000E+00 -0.00000000000E+00 -0.81069358122E+03  0.81069358122E+03  0.00000000000E+00 0. -1.
         21    1    1    2  503  502  0.16910974283E+02 -0.12492290124E+03 -0.72317174045E+03  0.73407702491E+03  0.00000000000E+00 0. -1.
         21    1    1    2  504  501 -0.16910974283E+02  0.12492290124E+03 -0.33659708168E+02  0.13047868891E+03  0.00000000000E+00 0. -1.
<mgrwt>
<rscale>  2 0.12606234E+03</rscale>
<asrwt>0</asrwt>
<pdfrwt beam="1">  1       21 0.82864823E-02 0.12606234E+03</pdfrwt>
<pdfrwt beam="2">  1       21 0.12472208E+00 0.12606234E+03</pdfrwt>
<totfact> 0.56152378E+04</totfact>
</mgrwt>
</event>
<event>
 4    1  0.5694171E+003  0.1538379E+03  0.7546771E-02  0.1195835E+00
         21   -1    0    0  503  501  0.00000000000E+00  0.00000000000E+00  0.52511368713E+03  0.52511368713E+03  0.00000000000E+00 0. -1.
         21   -1    0    0  504  502 -0.00000000000E+00 -0.00000000000E+00 -0.74231608900E+02  0.74231608900E+02  0.00000000000E+00 0. -1.
         21    1    1    2  503  502 -0.12147970289E+03 -0.94386419301E+02  0.41327286456E+03  0.44097684174E+03  0.00000000000E+00 0. -1.
         21    1    1    2  504  501  0.12147970289E+03  0.94386419301E+02  0.37609213667E+02  0.15836845429E+03  0.00000000000E+00 0. -1.
<mgrwt>
<rscale>  2 0.15383795E+03</rscale>
<asrwt>0</asrwt>
<pdfrwt beam="1">  1       21 0.80786719E-01 0.15383795E+03</pdfrwt>
<pdfrwt beam="2">  1       21 0.11420248E-01 0.15383795E+03</pdfrwt>
<totfact> 0.87675613E+04</totfact>
</mgrwt>
</event>
<event>
 4    1  0.5694171E+003  0.1046268E+03  0.7546771E-02  0.1270857E+00
         21   -1    0    0  504  501  0.00000000000E+00  0.00000000000E+00  0.18508856381E+03  0.18508856381E+03  0.00000000000E+00 0.  1.
         21   -1    0    0  503  502 -0.00000000000E+00 -0.00000000000E+00 -0.10631944908E+03  0.10631944908E+03  0.00000000000E+00 0.  1.
         21    1    1    2  503  501  0.52884748431E+02 -0.90277209417E+02  0.13644132288E+03  0.17193895936E+03  0.00000000000E+00 0.  1.
         21    1    1    2  504  502 -0.52884748431E+02  0.90277209417E+02 -0.57672208155E+02  0.11946905353E+03  0.00000000000E+00 0.  1.
<mgrwt>
<rscale>  2 0.10462682E+03</rscale>
<asrwt>0</asrwt>
<pdfrwt beam="1">  1       21 0.28475164E-01 0.10462682E+03</pdfrwt>
<pdfrwt beam="2">  1       21 0.16356838E-01 0.10462682E+03</pdfrwt>
<totfact> 0.40011161E+05</totfact>
</mgrwt>
</event>
<event>
 4    1  0.5694171E+003  0.1550605E+03  0.7546771E-02  0.1194389E+00
         21   -1    0    0  502  501  0.00000000000E+00  0.00000000000E+00  0.10791645636E+04  0.10791645636E+04  0.00000000000E+00 0. -1.
         21   -1    0    0  504  502 -0.00000000000E+00 -0.00000000000E+00 -0.26126663768E+02  0.26126663768E+02  0.00000000000E+00 0.  1.
         21    1    1    2  503  501 -0.87405577159E+01  0.15481400450E+03  0.73857347778E+03  0.75467513237E+03  0.00000000000E+00 0.  1.
         21    1    1    2  504  503  0.87405577159E+01 -0.15481400450E+03  0.31446442209E+03  0.35061609504E+03  0.00000000000E+00 0. -1.
<mgrwt>
<rscale>  2 0.15506055E+03</rscale>
<asrwt>0</asrwt>
<pdfrwt beam="1">  1       21 0.16602528E+00 0.15506055E+03</pdfrwt>
<pdfrwt beam="2">  1       21 0.40194876E-02 0.15506055E+03</pdfrwt>
<totfact> 0.90297535E+04</totfact>
</mgrwt>
</event>
<event>
 4    1  0.5694171E+003  0.1290249E+03  0.7546771E-02  0.1228910E+00
         21   -1    0    0  503  501  0.00000000000E+00  0.00000000000E+00  0.22533151927E+03  0.22533151927E+03  0.00000000000E+00 0. -1.
         21   -1    0    0  504  502 -0.00000000000E+00 -0.00000000000E+00 -0.13231351125E+03  0.13231351125E+03  0.00000000000E+00 0. -1.
         21    1    1    2  503  502 -0.12694132129E+03 -0.23093917087E+02  0.16534613515E+03  0.20973023737E+03  0.00000000000E+00 0. -1.
         21    1    1    2  504  501  0.12694132129E+03  0.23093917087E+02 -0.72328127126E+02  0.14791479315E+03  0.00000000000E+00 0. -1.
<mgrwt>
<rscale>  2 0.12902491E+03</rscale>
<asrwt>0</asrwt>
<pdfrwt beam="1">  1       21 0.34666388E-01 0.12902491E+03</pdfrwt>
<pdfrwt beam="2">  1       21 0.20355925E-01 0.12902491E+03</pdfrwt>
<totfact> 0.18244584E+05</totfact>
</mgrwt>
</event>
<event>
 4    1  0.5694171E+003  0.1013066E+03  0.7546771E-02  0.1277572E+00
         21   -1    0    0  503  501  0.00000000000E+00  0.00000000000E+00  0.65007389201E+03  0.65007389201E+03  0.00000000000E+00 0. -1.
         21   -1    0    0  501  502 -0.00000000000E+00 -0.00000000000E+00 -0.12016287045E+03  0.12016287045E+03  0.00000000000E+00 0.  1.
         21    1    1    2  503  504 -0.85137186153E+02 -0.54906091654E+02  0.62388421110E+03  0.63205579518E+03  0.00000000000E+00 0. -1.
         21    1    1    2  504  502  0.85137186153E+02  0.54906091654E+02 -0.93973189535E+02  0.13818096728E+03  0.00000000000E+00 0.  1.
<mgrwt>
<rscale>  2 0.10130656E+03</rscale>
<asrwt>0</asrwt>
<pdfrwt beam="1">  1       21 0.10001137E+00 0.10130656E+03</pdfrwt>
<pdfrwt beam="2">  1       21 0.18486596E-01 0.10130656E+03</pdfrwt>
<totfact> 0.23404102E+04</totfact>
</mgrwt>
</event>
<event>
 4    1  0.5694171E+003  0.1046736E+03  0.7546771E-02  0.1270764E+00
         21   -1    0    0  504  501  0.00000000000E+00  0.00000000000E+00  0.76086444022E+03  0.76086444022E+03  0.00000000000E+00 0.  1.
         21   -1    0    0  503  502 -0.00000000000E+00 -0.00000000000E+00 -0.19769461325E+02  0.19769461325E+02  0.00000000000E+00 0.  1.
         21    1    1    2  503  501 -0.84263126051E+02  0.62098980027E+02  0.57396087021E+03  0.58342749187E+03  0.00000000000E+00 0.  1.
         21    1    1    2  504  502  0.84263126051E+02 -0.62098980027E+02  0.16713410868E+03  0.19720640968E+03  0.00000000000E+00 0.  1.
<mgrwt>
<rscale>  2 0.10467358E+03</rscale>
<asrwt>0</asrwt>
<pdfrwt beam="1">  1       21 0.11705605E+00 0.10467358E+03</pdfrwt>
<pdfrwt beam="2">  1       21 0.30414562E-02 0.10467358E+03</pdfrwt>
<totfact> 0.35521903E+05</totfact>
</mgrwt>
</event>
<event>
 4    1  0.5694171E+003  0.1271676E+03  0.7546771E-02  0.1231720E+00
         21   -1    0    0  503  501  0.00000000000E+00  0.00000000000E+00  0.26968915545E+02  0.26968915545E+02  0.00000000000E+00 0. -1.
         21   -1    0    0  504  502 -0.00000000000E+00 -0.00000000000E+00 -0.64004174769E+03  0.64004174769E+03  0.00000000000E+00 0. -1.
         21    1    1    2  503  502  0.11416097153E+03 -0.56025634447E+02 -0.39032926430E+03  0.41052226944E+03  0.00000000000E+00 0. -1.
         21    1    1    2  504  501 -0.11416097153E+03  0.56025634447E+02 -0.22274356785E+03  0.25648839380E+03  0.00000000000E+00 0. -1.
<mgrwt>
<rscale>  2 0.12716760E+03</rscale>
<asrwt>0</asrwt>
<pdfrwt beam="1">  1       21 0.41490640E-02 0.12716760E+03</pdfrwt>
<pdfrwt beam="2">  1       21 0.98467960E-01 0.12716760E+03</pdfrwt>
<totfact> 0.31895757E+05</totfact>
</mgrwt>
</event>
<event>
 4    1  0.5694171E+003  0.1029608E+03  0.7546771E-02  0.1274190E+00
         21   -1    0    0  503  501  0.00000000000E+00  0.00000000000E+00  0.28323267564E+02  0.28323267564E+02  0.00000000000E+00 0.  1.
         21   -1    0    0  504  502 -0.00000000000E+00 -0.00000000000E+00 -0.72014315357E+03  0.72014315357E+03  0.00000000000E+00 0.  1.
         21    1    1    2  503  502  0.71889540932E+02 -0.73707612106E+02 -0.86561790549E+02  0.13451342595E+03  0.00000000000E+00 0.  1.
         21    1    1    2  504  501 -0.71889540932E+02  0.73707612106E+02 -0.60525809545E+03  0.61395299518E+03  0.00000000000E+00 0.  1.
<mgrwt>
<rscale>  2 0.10296076E+03</rscale>
<asrwt>0</asrwt>
<pdfrwt beam="1">  1       21 0.43574256E-02 0.10296076E+03</pdfrwt>
<pdfrwt beam="2">  1       21 0.11079126E+00 0.10296076E+03</pdfrwt>
<totfact> 0.22425764E+05</totfact>
</mgrwt>
</event>
<event>
 4    1  0.5694171E+003  0.1099762E+03  0.7546771E-02  0.1260614E+00
         21   -1    0    0  504  501  0.00000000000E+00  0.00000000000E+00  0.46784138599E+03  0.46784138599E+03  0.00000000000E+00 0.  1.
         21   -1    0    0  503  502 -0.00000000000E+00 -0.00000000000E+00 -0.86113675118E+02  0.86113675118E+02  0.00000000000E+00 0.  1.
         21    1    1    2  503  501  0.10681894367E+03 -0.26162479754E+02 -0.40837247900E+02  0.11731343866E+03  0.00000000000E+00 0.  1.
         21    1    1    2  504  502 -0.10681894367E+03  0.26162479754E+02  0.42256495877E+03  0.43664162245E+03  0.00000000000E+00 0.  1.
<mgrwt>
<rscale>  2 0.10997619E+03</rscale>
<asrwt>0</asrwt>
<pdfrwt beam="1">  1       21 0.71975596E-01 0.10997619E+03</pdfrwt>
<pdfrwt beam="2">  1       21 0.13248258E-01 0.10997619E+03</pdfrwt>
<totfact> 0.88725379E+04</totfact>
</mgrwt>
</event>
<event>
 4    1  0.5694171E+003  0.1265559E+03  0.7546771E-02  0.1232658E+00
         21   -1    0    0  503  501  0.00000000000E+00  0.00000000000E+00  0.17367789559E+04  0.17367789559E+04  0.00000000000E+00 0.  1.
         21   -1    0    0  504  502 -0.00000000000E+00 -0.00000000000E+00 -0.92368558837E+01  0.92368558837E+01  0.00000000000E+00 0.  1.
         21    1    1    2  503  502 -0.70417888562E+02 -0.10515567382E+03  0.82863755359E+03  0.83824613926E+03  0.00000000000E+00 0.  1.
         21    1    1    2  504  501  0.70417888562E+02  0.10515567382E+03  0.89890454647E+03  0.90776967257E+03  0.00000000000E+00 0.  1.
<mgrwt>
<rscale>  2 0.12655590E+03</rscale>
<asrwt>0</asrwt>
<pdfrwt beam="1">  1       21 0.26719650E+00 0.12655590E+03</pdfrwt>
<pdfrwt beam="2">  1       21 0.14210561E-02 0.12655590E+03</pdfrwt>
<totfact> 0.11910061E+05</totfact>
</mgrwt>
</event>
<event>
 4    1  0.5694171E+003  0.1723743E+03  0.7546771E-02  0.1175394E+00
         21   -1    0    0  504  501  0.00000000000E+00  0.00000000000E+00  0.87978019272E+03  0.87978019272E+03  0.00000000000E+00 0.  1.
         21   -1    0    0  503  502 -0.00000000000E+00 -0.00000000000E+00 -0.53688885470E+02  0.53688885470E+02  0.00000000000E+00 0.  1.
         21    1    1    2  503  501  0.15426231423E+03 -0.76915746494E+02  0.69731275401E+03  0.71830214433E+03  0.00000000000E+00 0.  1.
         21    1    1    2  504  502 -0.15426231423E+03  0.76915746494E+02  0.12877855324E+03  0.21516693386E+03  0.00000000000E+00 0.  1.
<mgrwt>
<rscale>  2 0.17237428E+03</rscale>
<asrwt>0</asrwt>
<pdfrwt beam="1">  1       21 0.13535079E+00 0.17237428E+03</pdfrwt>
<pdfrwt beam="2">  1       21 0.82598292E-02 0.17237428E+03</pdfrwt>
<totfact> 0.44802255E+04</totfact>
</mgrwt>
</event>
<event>
 4    1  0.5694171E+003  0.1149792E+03  0.7546771E-02  0.1251617E+00
         21   -1    0    0  502  501  0.00000000000E+00  0.00000000000E+00  0.17167838153E+03  0.17167838153E+03  0.00000000000E+00 0.  1.
         21   -1    0    0  504  502 -0.00000000000E+00 -0.00000000000E+00 -0.34422754316E+03  0.34422754316E+03  0.00000000000E+00 0.  1.
         21    1    1    2  503  501  0.23875809124E+01  0.11495442755E+03  0.14100146011E+03  0.18193854102E+03  0.00000000000E+00 0.  1.
         21    1    1    2  504  503 -0.23875809124E+01 -0.11495442755E+03 -0.31355062175E+03  0.33396738367E+03  0.00000000000E+00 0.  1.
<mgrwt>
<rscale>  2 0.11497922E+03</rscale>
<asrwt>0</asrwt>
<pdfrwt beam="1">  1       21 0.26412059E-01 0.11497922E+03</pdfrwt>
<pdfrwt beam="2">  1       21 0.52958083E-01 0.11497922E+03</pdfrwt>
<totfact> 0.47976847E+04</totfact>
</mgrwt>
</event>
<event>
 4    1  0.5694171E+003  0.1139655E+03  0.7546771E-02  0.1253398E+00
         21   -1    0    0  503  501  0.00000000000E+00  0.00000000000E+00  0.34842843818E+03  0.34842843818E+03  0.00000000000E+00 0.  1.
         21   -1    0    0  504  502 -0.00000000000E+00 -0.00000000000E+00 -0.41199282221E+02  0.41199282221E+02  0.00000000000E+00 0.  1.
         21    1    1    2  503  502  0.12644894631E+02 -0.11326184603E+03  0.21372927095E+03  0.24221548338E+03  0.00000000000E+00 0.  1.
         21    1    1    2  504  501 -0.12644894631E+02  0.11326184603E+03  0.93499885006E+02  0.14741223702E+03  0.00000000000E+00 0.  1.
<mgrwt>
<rscale>  2 0.11396552E+03</rscale>
<asrwt>0</asrwt>
<pdfrwt beam="1">  1       21 0.53604373E-01 0.11396552E+03</pdfrwt>
<pdfrwt beam="2">  1       21 0.63383514E-02 0.11396552E+03</pdfrwt>
<totfact> 0.59580137E+05</totfact>
</mgrwt>
</event>
<event>
 4    1  0.5694171E+003  0.1131130E+03  0.7546771E-02  0.1254911E+00
         21   -1    0    0  504  501  0.00000000000E+00  0.00000000000E+00  0.78395861346E+02  0.78395861346E+02  0.00000000000E+00 0. -1.
         21   -1    0    0  503  502 -0.00000000000E+00 -0.00000000000E+00 -0.20569221856E+03  0.20569221856E+03  0.00000000000E+00 0. -1.
         21    1    1    2  503  501 -0.72487584600E+02  0.86833754681E+02  0.90924839786E+00  0.11311665486E+03  0.00000000000E+00 0. -1.
         21    1    1    2  504  502  0.72487584600E+02 -0.86833754681E+02 -0.12820560561E+03  0.17097142505E+03  0.00000000000E+00 0. -1.
<mgrwt>
<rscale>  2 0.11311300E+03</rscale>
<asrwt>0</asrwt>
<pdfrwt beam="1">  1       21 0.12060902E-01 0.11311300E+03</pdfrwt>
<pdfrwt beam="2">  1       21 0.31644956E-01 0.11311300E+03</pdfrwt>
<totfact> 0.56257266E+05</totfact>
</mgrwt>
</event>
<event>
 4    1  0.5694171E+003  0.1032087E+03  0.7546771E-02  0.1273690E+00
         21   -1    0    0  503  501  0.00000000000E+00  0.00000000000E+00  0.29602127241E+03  0.29602127241E+03  0.00000000000E+00 0. -1.
         21   -1    0    0  504  502 -0.00000000000E+00 -0.00000000000E+00 -0.11753247207E+03  0.11753247207E+03  0.00000000000E+00 0.  1.
         21    1    1    2  503  502  0.89964644407E+02  0.50580639740E+02 -0.82994348072E+02  0.13243904323E+03  0.00000000000E+00 0.  1.
         21    1    1    2  504  501 -0.89964644407E+02 -0.50580639740E+02  0.26148314841E+03  0.28111470126E+03  0.00000000000E+00 0. -1.
<mgrwt>
<rscale>  2 0.10320871E+03</rscale>
<asrwt>0</asrwt>
<pdfrwt beam="1">  1       21 0.45541734E-01 0.10320871E+03</pdfrwt>
<pdfrwt beam="2">  1       21 0.18081919E-01 0.10320871E+03</pdfrwt>
<totfact> 0.13285807E+05</totfact>
</mgrwt>
</event>
<event>
 4    1  0.5694171E+003  0.1432968E+03  0.7546771E-02  0.1208960E+00
         21   -1    0    0  503  501  0.00000000000E+00  0.00000000000E+00  0.15694343478E+04  0.15694343478E+04  0.00000000000E+00 0.  1.
         21   -1    0    0  504  502 -0.00000000000E+00 -0.00000000000E+00 -0.81745913885E+02  0.81745913885E+02  0.00000000000E+00 0.  1.
         21    1    1    2  503  502  0.13954191672E+03 -0.32588694515E+02 -0.12797783793E+02  0.14386713593E+03  0.00000000000E+00 0.  1.
         21    1    1    2  504  501 -0.13954191672E+03  0.32588694515E+02  0.15004862177E+04  0.15073131258E+04  0.00000000000E+00 0.  1.
<mgrwt>
<rscale>  2 0.14329679E+03</rscale>
<asrwt>0</asrwt>
<pdfrwt beam="1">  1       21 0.24145142E+00 0.14329679E+03</pdfrwt>
<pdfrwt beam="2">  1       21 0.12576296E-01 0.14329679E+03</pdfrwt>
<totfact> 0.42672401E+03</totfact>
</mgrwt>
</event>
<event>
 4    1  0.5694171E+003  0.1271700E+03  0.7546771E-02  0.1231716E+00
         21   -1    0    0  504  501  0.00000000000E+00  0.00000000000E+00  0.15577151374E+03  0.15577151374E+03  0.00000000000E+00 0.  1.
         21   -1    0    0  501  502 -0.00000000000E+00 -0.00000000000E+00 -0.10244707117E+04  0.10244707117E+04  0.00000000000E+00 0.  1.
         21    1    1    2  503  502  0.91045517978E+02 -0.88785801973E+02 -0.99377066443E+03  0.10018744125E+04  0.00000000000E+00 0.  1.
         21    1    1    2  504  503 -0.91045517978E+02  0.88785801973E+02  0.12507146645E+03  0.17836781295E+03  0.00000000000E+00 0.  1.
<mgrwt>
<rscale>  2 0.12716998E+03</rscale>
<asrwt>0</asrwt>
<pdfrwt beam="1">  1       21 0.23964848E-01 0.12716998E+03</pdfrwt>
<pdfrwt beam="2">  1       21 0.15761088E+00 0.12716998E+03</pdfrwt>
<totfact> 0.45936330E+03</totfact>
</mgrwt>
</event>
<event>
 4    1  0.5694171E+003  0.1386097E+03  0.7546771E-02  0.1215212E+00
         21   -1    0    0  503  501  0.00000000000E+00  0.00000000000E+00  0.16098159268E+03  0.16098159268E+03  0.00000000000E+00 0. -1.
         21   -1    0    0  504  502 -0.00000000000E+00 -0.00000000000E+00 -0.15099044112E+03  0.15099044112E+03  0.00000000000E+00 0. -1.
         21    1    1    2  503  502 -0.13166281550E+03 -0.43330821543E+02  0.76404641511E+02  0.15827294881E+03  0.00000000000E+00 0. -1.
         21    1    1    2  504  501  0.13166281550E+03  0.43330821543E+02 -0.66413489956E+02  0.15369908499E+03  0.00000000000E+00 0. -1.
<mgrwt>
<rscale>  2 0.13860973E+03</rscale>
<asrwt>0</asrwt>
<pdfrwt beam="1">  1       21 0.24766399E-01 0.13860973E+03</pdfrwt>
<pdfrwt beam="2">  1       21 0.23229298E-01 0.13860973E+03</pdfrwt>
<totfact> 0.27190936E+05</totfact>
</mgrwt>
</event>
<event>
 4    1  0.5694171E+003  0.1001391E+03  0.7546771E-02  0.1280004E+00
         21   -1    0    0  503  501  0.00000000000E+00  0.00000000000E+00  0.16402008011E+03  0.16402008011E+03  0.00000000000E+00 0.  1.
         21   -1    0    0  504  502 -0.00000000000E+00 -0.00000000000E+00 -0.78481378199E+03  0.78481378199E+03  0.00000000000E+00 0. -1.
         21    1    1    2  503  502  0.95369812936E+02  0.30535907796E+02  0.14516664762E+03  0.17635531879E+03  0.00000000000E+00 0.  1.
         21    1    1    2  504  501 -0.95369812936E+02 -0.30535907796E+02 -0.76596034949E+03  0.77247854331E+03  0.00000000000E+00 0. -1.
<mgrwt>
<rscale>  2 0.10013912E+03</rscale>
<asrwt>0</asrwt>
<pdfrwt beam="1">  1       21 0.25233858E-01 0.10013912E+03</pdfrwt>
<pdfrwt beam="2">  1       21 0.12074058E+00 0.10013912E+03</pdfrwt>
<totfact> 0.84333621E+03</totfact>
</mgrwt>
</event>
<event>
 4    1  0.5694171E+003  0.1576294E+03  0.7546771E-02  0.1191399E+00
         21   -1    0    0  503  501  0.00000000000E+00  0.00000000000E+00  0.19031202014E+03  0.19031202014E+03  0.00000000000E+00 0. -1.
         21   -1    0    0  504  502 -0.00000000000E+00 -0.00000000000E+00 -0.46530665529E+03  0.46530665529E+03  0.00000000000E+00 0.  1.
         21    1    1    2  503  502 -0.15761157532E+03 -0.23709174663E+01  0.14054453759E+03  0.21118664013E+03  0.00000000000E+00 0. -1.
         21    1    1    2  504  501  0.15761157532E+03  0.23709174663E+01 -0.41553917273E+03  0.44443203530E+03  0.00000000000E+00 0.  1.
<mgrwt>
<rscale>  2 0.15762941E+03</rscale>
<asrwt>0</asrwt>
<pdfrwt beam="1">  1       21 0.29278772E-01 0.15762941E+03</pdfrwt>
<pdfrwt beam="2">  1       21 0.71585639E-01 0.15762941E+03</pdfrwt>
<totfact> 0.20143657E+04</totfact>
</mgrwt>
</event>
<event>
 4    1  0.5694171E+003  0.1005603E+03  0.7546771E-02  0.1279122E+00
         21   -1    0    0  504  501  0.00000000000E+00  0.00000000000E+00  0.70906601740E+03  0.70906601740E+03  0.00000000000E+00 0. -1.
         21   -1    0    0  503  502 -0.00000000000E+00 -0.00000000000E+00 -0.10219780616E+04  0.10219780616E+04  0.00000000000E+00 0.  1.
         21    1    1    2  503  501  0.72739313129E+02  0.69436107555E+02 -0.10159177295E+04  0.10208825661E+04  0.00000000000E+00 0.  1.
         21    1    1    2  504  502 -0.72739313129E+02 -0.69436107555E+02  0.70300568533E+03  0.71016151284E+03  0.00000000000E+00 0. -1.
<mgrwt>
<rscale>  2 0.10056033E+03</rscale>
<asrwt>0</asrwt>
<pdfrwt beam="1">  1       21 0.10908708E+00 0.10056033E+03</pdfrwt>
<pdfrwt beam="2">  1       21 0.15722739E+00 0.10056033E+03</pdfrwt>
<totfact> 0.20619161E+02</totfact>
</mgrwt>
</event>
<event>
 4    1  0.5694171E+003  0.1379979E+03  0.7546771E-02  0.1216049E+00
         21   -1    0    0  503  501  0.00000000000E+00  0.00000000000E+00  0.25712112031E+04  0.25712112031E+04  0.00000000000E+00 0.  1.
         21   -1    0    0  504  502 -0.00000000000E+00 -0.00000000000E+00 -0.29633413901E+02  0.29633413901E+02  0.00000000000E+00 0.  1.
         21    1    1    2  503  502 -0.12133044691E+03  0.65744513887E+02  0.23970371440E+04  0.24010061408E+04  0.00000000000E+00 0.  1.
         21    1    1    2  504  501  0.12133044691E+03 -0.65744513887E+02  0.14454064519E+03  0.19983847619E+03  0.00000000000E+00 0.  1.
<mgrwt>
<rscale>  2 0.13799789E+03</rscale>
<asrwt>0</asrwt>
<pdfrwt beam="1">  1       21 0.39557078E+00 0.13799789E+03</pdfrwt>
<pdfrwt beam="2">  1       21 0.45589888E-02 0.13799789E+03</pdfrwt>
<totfact> 0.31918421E+03</totfact>
</mgrwt>
</event>
<event>
 4    1  0.5694171E+003  0.1532158E+03  0.7546771E-02  0.1196576E+00
         21   -1    0    0  504  501  0.00000000000E+00  0.00000000000E+00  0.35062949174E+02  0.35062949174E+02  0.00000000000E+00 0.  1.
         21   -1    0    0  503  502 -0.00000000000E+00 -0.00000000000E+00 -0.11003216582E+04  0.11003216582E+04  0.00000000000E+00 0.  1.
         21    1    1    2  503  501 -0.11387921675E+03 -0.10250180057E+03 -0.88784776073E+03  0.90097099918E+03  0.00000000000E+00 0.  1.
         21    1    1    2  504  502  0.11387921675E+03  0.10250180057E+03 -0.17741094827E+03  0.23441360817E+03  0.00000000000E+00 0.  1.
<mgrwt>
<rscale>  2 0.15321584E+03</rscale>
<asrwt>0</asrwt>
<pdfrwt beam="1">  1       21 0.53943003E-02 0.15321584E+03</pdfrwt>
<pdfrwt beam="2">  1       21 0.16928024E+00 0.15321584E+03</pdfrwt>
<totfact> 0.52302579E+04</totfact>
</mgrwt>
</event>
<event>
 4    1  0.5694171E+003  0.1084688E+03  0.7546771E-02  0.1263432E+00
         21   -1    0    0  504  501  0.00000000000E+00  0.00000000000E+00  0.31022549797E+03  0.31022549797E+03  0.00000000000E+00 0.  1.
         21   -1    0    0  503  502 -0.00000000000E+00 -0.00000000000E+00 -0.83804644051E+02  0.83804644051E+02  0.00000000000E+00 0.  1.
         21    1    1    2  503  501  0.97701959448E+02 -0.47114732844E+02 -0.32561149123E+02  0.11325060425E+03  0.00000000000E+00 0.  1.
         21    1    1    2  504  502 -0.97701959448E+02  0.47114732844E+02  0.25898200304E+03  0.28077953777E+03  0.00000000000E+00 0.  1.
<mgrwt>
<rscale>  2 0.10846876E+03</rscale>
<asrwt>0</asrwt>
<pdfrwt beam="1">  1       21 0.47726999E-01 0.10846876E+03</pdfrwt>
<pdfrwt beam="2">  1       21 0.12893022E-01 0.10846876E+03</pdfrwt>
<totfact> 0.22138266E+05</totfact>
</mgrwt>
</event>
<event>
 4    1  0.5694171E+003  0.1022721E+03  0.7546771E-02  0.1275589E+00
         21   -1    0    0  503  501  0.00000000000E+00  0.00000000000E+00  0.26432864694E+04  0.26432864694E+04  0.00000000000E+00 0.  1.
         21   -1    0    0  501  502 -0.00000000000E+00 -0.00000000000E+00 -0.12916885988E+02  0.12916885988E+02  0.00000000000E+00 0. -1.
         21    1    1    2  503  504  0.73739492550E+02 -0.70866617201E+02  0.24213059133E+04  0.24234648576E+04  0.00000000000E+00 0.  1.
         21    1    1    2  504  502 -0.73739492550E+02  0.70866617201E+02  0.20906367008E+03  0.23273849777E+03  0.00000000000E+00 0. -1.
<mgrwt>
<rscale>  2 0.10227214E+03</rscale>
<asrwt>0</asrwt>
<pdfrwt beam="1">  1       21 0.40665903E+00 0.10227214E+03</pdfrwt>
<pdfrwt beam="2">  1       21 0.19872153E-02 0.10227214E+03</pdfrwt>
<totfact> 0.11497735E+04</totfact>
</mgrwt>
</event>
<event>
 4    1  0.5694171E+003  0.1102066E+03  0.7546771E-02  0.1260188E+00
         21   -1    0    0  503  501  0.00000000000E+00  0.00000000000E+00  0.11450802238E+04  0.11450802238E+04  0.00000000000E+00 0. -1.
         21   -1    0    0  504  502 -0.00000000000E+00 -0.00000000000E+00 -0.20748076839E+03  0.20748076839E+03  0.00000000000E+00 0.  1.
         21    1    1    2  503  502 -0.40921422621E+02  0.10232759926E+03  0.11275673075E+04  0.11329402162E+04  0.00000000000E+00 0. -1.
         21    1    1    2  504  501  0.40921422621E+02 -0.10232759926E+03 -0.18996785214E+03  0.21962077599E+03  0.00000000000E+00 0.  1.
<mgrwt>
<rscale>  2 0.11020663E+03</rscale>
<asrwt>0</asrwt>
<pdfrwt beam="1">  1       21 0.17616618E+00 0.11020663E+03</pdfrwt>
<pdfrwt beam="2">  1       21 0.31920119E-01 0.11020663E+03</pdfrwt>
<totfact> 0.20218973E+03</totfact>
</mgrwt>
</event>
<event>
 4    1  0.5694171E+003  0.1286622E+03  0.7546771E-02  0.1229454E+00
         21   -1    0    0  503  501  0.00000000000E+00  0.00000000000E+00  0.20593314410E+03  0.20593314410E+03  0.00000000000E+00 0. -1.
         21   -1    0    0  501  502 -0.00000000000E+00 -0.00000000000E+00 -0.92186274156E+02  0.92186274156E+02  0.00000000000E+00 0. -1.
         21    1    1    2  503  504  0.63301951180E+02 -0.11201260602E+03  0.11020561561E+03  0.16940849637E+03  0.00000000000E+00 0. -1.
         21    1    1    2  504  502 -0.63301951180E+02  0.11201260602E+03  0.35412543323E+01  0.12871092189E+03  0.00000000000E+00 0. -1.
<mgrwt>
<rscale>  2 0.12866220E+03</rscale>
<asrwt>0</asrwt>
<pdfrwt beam="1">  1       21 0.31682022E-01 0.12866220E+03</pdfrwt>
<pdfrwt beam="2">  1       21 0.14182504E-01 0.12866220E+03</pdfrwt>
<totfact> 0.42014661E+05</totfact>
</mgrwt>
</event>
<event>
 4    1  0.5694171E+003  0.1049186E+03  0.7546771E-02  0.1270280E+00
         21   -1    0    0  504  501  0.00000000000E+00  0.00000000000E+00  0.71417232772E+03  0.71417232772E+03  0.00000000000E+00 0. -1.
         21   -1    0    0  503  502 -0.00000000000E+00 -0.00000000000E+00 -0.18731028922E+02  0.18731028922E+02  0.00000000000E+00 0. -1.
         21    1    1    2  503  501  0.50767177443E+02 -0.91818357014E+02  0.19350045112E+03  0.22011438293E+03  0.00000000000E+00 0. -1.
         21    1    1    2  504  502 -0.50767177443E+02  0.91818357014E+02  0.50194084768E+03  0.51278897371E+03  0.00000000000E+00 0. -1.
<mgrwt>
<rscale>  2 0.10491862E+03</rscale>
<asrwt>0</asrwt>
<pdfrwt beam="1">  1       21 0.10987264E+00 0.10491862E+03</pdfrwt>
<pdfrwt beam="2">  1       21 0.28816973E-02 0.10491862E+03</pdfrwt>
<totfact> 0.45105529E+05</totfact>
</mgrwt>
</event>
<event>
 4    1  0.5694171E+003  0.1004200E+03  0.7546771E-02  0.1279415E+00
         21   -1    0    0  504  501  0.00000000000E+00  0.00000000000E+00  0.23524137681E+03  0.23524137681E+03  0.00000000000E+00 0. -1.
         21   -1    0    0  503  502 -0.00000000000E+00 -0.00000000000E+00 -0.52104104613E+02  0.52104104613E+02  0.00000000000E+00 0.  1.
         21    1    1    2  503  501 -0.93081270820E+02  0.37683478722E+02  0.31076516887E+02  0.10511858755E+03  0.00000000000E+00 0.  1.
         21    1    1    2  504  502  0.93081270820E+02 -0.37683478722E+02  0.15206075531E+03  0.18222689387E+03  0.00000000000E+00 0. -1.
<mgrwt>
<rscale>  2 0.10041996E+03</rscale>
<asrwt>0</asrwt>
<pdfrwt beam="1">  1       21 0.36190980E-01 0.10041996E+03</pdfrwt>
<pdfrwt beam="2">  1       21 0.80160162E-02 0.10041996E+03</pdfrwt>
<totfact> 0.88111373E+05</totfact>
</mgrwt>
</event>
<event>
 4    1  0.5694171E+003  0.1387184E+03  0.7546771E-02  0.1215064E+00
         21   -1    0    0  504  501  0.00000000000E+00  0.00000000000E+00  0.23862797862E+03  0.23862797862E+03  0.00000000000E+00 0. -1.
         21   -1    0    0  503  502 -0.00000000000E+00 -0.00000000000E+00 -0.13345416573E+03  0.13345416573E+03  0.00000000000E+00 0. -1.
         21    1    1    2  503  501  0.12789991639E+03  0.53706553655E+02  0.16962332939E+03  0.21912292530E+03  0.00000000000E+00 0. -1.
         21    1    1    2  504  502 -0.12789991639E+03 -0.53706553655E+02 -0.64449516489E+02  0.15295921905E+03  0.00000000000E+00 0. -1.
<mgrwt>
<rscale>  2 0.13871836E+03</rscale>
<asrwt>0</asrwt>
<pdfrwt beam="1">  1       21 0.36711997E-01 0.13871836E+03</pdfrwt>
<pdfrwt beam="2">  1       21 0.20531410E-01 0.13871836E+03</pdfrwt>
<totfact> 0.15992537E+05</totfact>
</mgrwt>
</event>
<event>
 4    1  0.5694171E+003  0.1080266E+03  0.7546771E-02  0.1264268E+00
         21   -1    0    0  504  501  0.00000000000E+00  0.00000000000E+00  0.15264375603E+03  0.15264375603E+03  0.00000000000E+00 0. -1.
         21   -1    0    0  503  502 -0.00000000000E+00 -0.00000000000E+00 -0.91132461078E+02  0.91132461078E+02  0.00000000000E+00 0. -1.
         21    1    1    2  503  501  0.61861054621E+01  0.10784936712E+03  0.79678387718E+02  0.13423263150E+03  0.00000000000E+00 0. -1.
         21    1    1    2  504  502 -0.61861054621E+01 -0.10784936712E+03 -0.18167092767E+02  0.10954358561E+03  0.00000000000E+00 0. -1.
<mgrwt>
<rscale>  2 0.10802664E+03</rscale>
<asrwt>0</asrwt>
<pdfrwt beam="1">  1       21 0.23483655E-01 0.10802664E+03</pdfrwt>
<pdfrwt beam="2">  1       21 0.14020379E-01 0.10802664E+03</pdfrwt>
<totfact> 0.75902550E+05</totfact>
</mgrwt>
</event>
<event>
 4    1  0.5694171E+003  0.1074100E+03  0.7546771E-02  0.1265443E+00
         21   -1    0    0  503  501  0.00000000000E+00  0.00000000000E+00  0.65340843394E+02  0.65340843394E+02  0.00000000000E+00 0. -1.
         21   -1    0    0  501  502 -0.00000000000E+00 -0.00000000000E+00 -0.30544856500E+03  0.30544856500E+03  0.00000000000E+00 0.  1.
         21    1    1    2  503  504 -0.10689314304E+03 -0.10524254387E+02  0.37403634745E+00  0.10741063198E+03  0.00000000000E+00 0. -1.
         21    1    1    2  504  502  0.10689314304E+03  0.10524254387E+02 -0.24048175796E+03  0.26337877642E+03  0.00000000000E+00 0.  1.
<mgrwt>
<rscale>  2 0.10740998E+03</rscale>
<asrwt>0</asrwt>
<pdfrwt beam="1">  1       21 0.10052438E-01 0.10740998E+03</pdfrwt>
<pdfrwt beam="2">  1       21 0.46992086E-01 0.10740998E+03</pdfrwt>
<totfact> 0.35386878E+05</totfact>
</mgrwt>
</event>
<event>
 4    1  0.5694171E+003  0.1343779E+03  0.7546771E-02  0.1221101E+00
         21   -1    0    0  502  501  0.00000000000E+00  0.00000000000E+00  0.66776120925E+03  0.66776120925E+03  0.00000000000E+00 0.  1.
         21   -1    0    0  503  502 -0.00000000000E+00 -0.00000000000E+00 -0.11994486265E+03  0.11994486265E+03  0.00000000000E+00 0. -1.
         21    1    1    2  503  504 -0.98585812060E+00  0.13437423939E+03 -0.72715792407E+02  0.15279068883E+03  0.00000000000E+00 0. -1.
         21    1    1    2  504  501  0.98585812060E+00 -0.13437423939E+03  0.62053213901E+03  0.63491538308E+03  0.00000000000E+00 0.  1.
<mgrwt>
<rscale>  2 0.13437786E+03</rscale>
<asrwt>0</asrwt>
<pdfrwt beam="1">  1       21 0.10273249E+00 0.13437786E+03</pdfrwt>
<pdfrwt beam="2">  1       21 0.18453056E-01 0.13437786E+03</pdfrwt>
<totfact> 0.21451953E+04</totfact>
</mgrwt>
</event>
<event>
 4    1  0.5694171E+003  0.2041394E+03  0.7546771E-02  0.1146293E+00
         21   -1    0    0  503  501  0.00000000000E+00  0.00000000000E+00  0.54204744930E+03  0.54204744930E+03  0.00000000000E+00 0.  1.
         21   -1    0    0  501  502 -0.00000000000E+00 -0.00000000000E+00 -0.60450132329E+03  0.60450132329E+03  0.00000000000E+00 0.  1.
         21    1    1    2  503  504  0.67950846037E+02 -0.19249826400E+03  0.50435368887E+03  0.54410067322E+03  0.00000000000E+00 0.  1.
         21    1    1    2  504  502 -0.67950846037E+02  0.19249826400E+03 -0.56680756286E+03  0.60244809938E+03  0.00000000000E+00 0.  1.
<mgrwt>
<rscale>  2 0.20413941E+03</rscale>
<asrwt>0</asrwt>
<pdfrwt beam="1">  1       21 0.83391915E-01 0.20413941E+03</pdfrwt>
<pdfrwt beam="2">  1       21 0.93000203E-01 0.20413941E+03</pdfrwt>
<totfact> 0.12050721E+03</totfact>
</mgrwt>
</event>
<event>
 4    1  0.5694171E+003  0.1022518E+03  0.7546771E-02  0.1275631E+00
         21   -1    0    0  504  501  0.00000000000E+00  0.00000000000E+00  0.25681180412E+03  0.25681180412E+03  0.00000000000E+00 0.  1.
         21   -1    0    0  503  502 -0.00000000000E+00 -0.00000000000E+00 -0.42191617702E+02  0.42191617702E+02  0.00000000000E+00 0.  1.
         21    1    1    2  503  501 -0.81554011713E+02 -0.61679527984E+02  0.13530321595E+03  0.16959475595E+03  0.00000000000E+00 0.  1.
         21    1    1    2  504  502  0.81554011713E+02  0.61679527984E+02  0.79316970469E+02  0.12940866587E+03  0.00000000000E+00 0.  1.
<mgrwt>
<rscale>  2 0.10225175E+03</rscale>
<asrwt>0</asrwt>
<pdfrwt beam="1">  1       21 0.39509507E-01 0.10225175E+03</pdfrwt>
<pdfrwt beam="2">  1       21 0.64910183E-02 0.10225175E+03</pdfrwt>
<totfact> 0.10620559E+06</totfact>
</mgrwt>
</event>
<event>
 4    1  0.5694171E+003  0.1312119E+03  0.7546771E-02  0.1225668E+00
         21   -1    0    0  504  501  0.00000000000E+00  0.00000000000E+00  0.63902529162E+02  0.63902529162E+02  0.00000000000E+00 0. -1.
         21   -1    0    0  503  502 -0.00000000000E+00 -0.00000000000E+00 -0.27829828593E+03  0.27829828593E+03  0.00000000000E+00 0. -1.
         21    1    1    2  503  501  0.19255637655E+02  0.12979131940E+03 -0.13775980412E+03  0.19024807437E+03  0.00000000000E+00 0. -1.
         21    1    1    2  504  502 -0.19255637655E+02 -0.12979131940E+03 -0.76635952648E+02  0.15195274072E+03  0.00000000000E+00 0. -1.
<mgrwt>
<rscale>  2 0.13121191E+03</rscale>
<asrwt>0</asrwt>
<pdfrwt beam="1">  1       21 0.98311583E-02 0.13121191E+03</pdfrwt>
<pdfrwt beam="2">  1       21 0.42815121E-01 0.13121191E+03</pdfrwt>
<totfact> 0.44291330E+05</totfact>
</mgrwt>
</event>
<event>
 4    1  0.5694171E+003  0.1044381E+03  0.7546771E-02  0.1271231E+00
         21   -1    0    0  502  501  0.00000000000E+00  0.00000000000E+00  0.49732408154E+03  0.49732408154E+03  0.00000000000E+00 0.  1.
         21   -1    0    0  504  502 -0.00000000000E+00 -0.00000000000E+00 -0.55274831428E+02  0.55274831428E+02  0.00000000000E+00 0.  1.
         21    1    1    2  503  501  0.41778577999E+02 -0.95717606103E+02  0.43561862878E+03  0.44796305588E+03  0.00000000000E+00 0.  1.
         21    1    1    2  504  503 -0.41778577999E+02  0.95717606103E+02  0.64306213364E+01  0.10463585709E+03  0.00000000000E+00 0.  1.
<mgrwt>
<rscale>  2 0.10443807E+03</rscale>
<asrwt>0</asrwt>
<pdfrwt beam="1">  1       21 0.76511394E-01 0.10443807E+03</pdfrwt>
<pdfrwt beam="2">  1       21 0.85038205E-02 0.10443807E+03</pdfrwt>
<totfact> 0.16887598E+05</totfact>
</mgrwt>
</event>
<event>
 4    1  0.5694171E+003  0.1121487E+03  0.7546771E-02  0.1256642E+00
         21   -1    0    0  504  501  0.00000000000E+00  0.00000000000E+00  0.18558264250E+03  0.18558264250E+03  0.00000000000E+00 0.  1.
         21   -1    0    0  501  502 -0.00000000000E+00 -0.00000000000E+00 -0.52554212448E+03  0.52554212448E+03  0.00000000000E+00 0.  1.
         21    1    1    2  503  502 -0.11205558411E+03 -0.45681264758E+01 -0.50182508420E+03  0.51420398369E+03  0.00000000000E+00 0.  1.
         21    1    1    2  504  503  0.11205558411E+03  0.45681264758E+01  0.16186560222E+03  0.19692078329E+03  0.00000000000E+00 0.  1.
<mgrwt>
<rscale>  2 0.11214866E+03</rscale>
<asrwt>0</asrwt>
<pdfrwt beam="1">  1       21 0.28551176E-01 0.11214866E+03</pdfrwt>
<pdfrwt beam="2">  1       21 0.80852634E-01 0.11214866E+03</pdfrwt>
<totfact> 0.16703586E+04</totfact>
</mgrwt>
</event>
<event>
 4    1  0.5694171E+003  0.1466283E+03  0.7546771E-02  0.1204678E+00
         21   -1    0    0  504  501  0.00000000000E+00  0.00000000000E+00  0.57405810536E+02  0.57405810536E+02  0.00000000000E+00 0.  1.
         21   -1    0    0  501  502 -0.00000000000E+00 -0.00000000000E+00 -0.55898402265E+03  0.55898402265E+03  0.00000000000E+00 0.  1.
         21    1    1    2  503  502  0.12990315166E+03  0.68007607631E+02 -0.42783126757E+03  0.45226038630E+03  0.00000000000E+00 0.  1.
         21    1    1    2  504  503 -0.12990315166E+03 -0.68007607631E+02 -0.73746944548E+02  0.16412944689E+03  0.00000000000E+00 0.  1.
<mgrwt>
<rscale>  2 0.14662832E+03</rscale>
<asrwt>0</asrwt>
<pdfrwt beam="1">  1       21 0.88316630E-02 0.14662832E+03</pdfrwt>
<pdfrwt beam="2">  1       21 0.85997543E-01 0.14662832E+03</pdfrwt>
<totfact> 0.11988493E+05</totfact>
</mgrwt>
</event>
<event>
 4    1  0.5694171E+003  0.1086413E+03  0.7546771E-02  0.1263107E+00
         21   -1    0    0  504  501  0.00000000000E+00  0.00000000000E+00  0.60768712734E+03  0.60768712734E+03  0.00000000000E+00 0. -1.
         21   -1    0    0  501  502 -0.00000000000E+00 -0.00000000000E+00 -0.75859114269E+02  0.75859114269E+02  0.00000000000E+00 0. -1.
         21    1    1    2  503  502 -0.41099417969E+02  0.10056719625E+03 -0.28876665449E+02  0.11241345527E+03  0.00000000000E+00 0. -1.
         21    1    1    2  504  503  0.41099417969E+02 -0.10056719625E+03  0.56070467852E+03  0.57113278634E+03  0.00000000000E+00 0. -1.
<mgrwt>
<rscale>  2 0.10864126E+03</rscale>
<asrwt>0</asrwt>
<pdfrwt beam="1">  1       21 0.93490324E-01 0.10864126E+03</pdfrwt>
<pdfrwt beam="2">  1       21 0.11670633E-01 0.10864126E+03</pdfrwt>
<totfact> 0.61939112E+04</totfact>
</mgrwt>
</event>
<event>
 4    1  0.5694171E+003  0.1096055E+03  0.7546771E-02  0.1261302E+00
         21   -1    0    0  503  501  0.00000000000E+00  0.00000000000E+00  0.74911292558E+03  0.74911292558E+03  0.00000000000E+00 0. -1.
         21   -1    0    0  504  502 -0.00000000000E+00 -0.00000000000E+00 -0.30766967316E+02  0.30766967316E+02  0.00000000000E+00 0. -1.
         21    1    1    2  503  502 -0.15872173123E+02 -0.10845013152E+03  0.89362034659E+02  0.14141757368E+03  0.00000000000E+00 0. -1.
         21    1    1    2  504  501  0.15872173123E+02  0.10845013152E+03  0.62898392361E+03  0.63846231922E+03  0.00000000000E+00 0. -1.
<mgrwt>
<rscale>  2 0.10960546E+03</rscale>
<asrwt>0</asrwt>
<pdfrwt beam="1">  1       21 0.11524813E+00 0.10960546E+03</pdfrwt>
<pdfrwt beam="2">  1       21 0.47333801E-02 0.10960546E+03</pdfrwt>
<totfact> 0.17743954E+05</totfact>
</mgrwt>
</event>
<event>
 4    1  0.5694171E+003  0.1019549E+03  0.7546771E-02  0.1276238E+00
         21   -1    0    0  503  501  0.00000000000E+00  0.00000000000E+00  0.42608796896E+03  0.42608796896E+03  0.00000000000E+00 0. -1.
         21   -1    0    0  501  502 -0.00000000000E+00 -0.00000000000E+00 -0.37664548082E+03  0.37664548082E+03  0.00000000000E+00 0.  1.
         21    1    1    2  503  504  0.10084776670E+03  0.14984380735E+02  0.41287180720E+03  0.42527395040E+03  0.00000000000E+00 0. -1.
         21    1    1    2  504  502 -0.10084776670E+03 -0.14984380735E+02 -0.36342931906E+03  0.37745949938E+03  0.00000000000E+00 0.  1.
<mgrwt>
<rscale>  2 0.10195491E+03</rscale>
<asrwt>0</asrwt>
<pdfrwt beam="1">  1       21 0.65551995E-01 0.10195491E+03</pdfrwt>
<pdfrwt beam="2">  1       21 0.57945458E-01 0.10195491E+03</pdfrwt>
<totfact> 0.64987994E+03</totfact>
</mgrwt>
</event>
<event>
 4    1  0.5694171E+003  0.1015333E+03  0.7546771E-02  0.1277104E+00
         21   -1    0    0  503  501  0.00000000000E+00  0.00000000000E+00  0.43967349132E+03  0.43967349132E+03  0.00000000000E+00 0. -1.
         21   -1    0    0  504  502 -0.00000000000E+00 -0.00000000000E+00 -0.37120927504E+02  0.37120927504E+02  0.00000000000E+00 0. -1.
         21    1    1    2  503  502 -0.84153700978E+02 -0.56808146182E+02  0.34596640352E+03  0.36055757270E+03  0.00000000000E+00 0. -1.
         21    1    1    2  504  501  0.84153700978E+02  0.56808146182E+02  0.56586160288E+02  0.11623684613E+03  0.00000000000E+00 0. -1.
<mgrwt>
<rscale>  2 0.10153330E+03</rscale>
<asrwt>0</asrwt>
<pdfrwt beam="1">  1       21 0.67642072E-01 0.10153330E+03</pdfrwt>
<pdfrwt beam="2">  1       21 0.57109122E-02 0.10153330E+03</pdfrwt>
<totfact> 0.43486626E+05</totfact>
</mgrwt>
</event>
<event>
 4    1  0.5694171E+003  0.1841721E+03  0.7546771E-02  0.1163825E+00
         21   -1    0    0  504  501  0.00000000000E+00  0.00000000000E+00  0.28490375751E+02  0.28490375751E+02  0.00000000000E+00 0. -1.
         21   -1    0    0  503  502 -0.00000000000E+00 -0.00000000000E+00 -0.23296946043E+04  0.23296946043E+04  0.00000000000E+00 0. -1.
         21    1    1    2  503  501 -0.89475998821E+02  0.16097641058E+03 -0.19750948869E+04  0.19836630691E+04  0.00000000000E+00 0. -1.
         21    1    1    2  504  502  0.89475998821E+02 -0.16097641058E+03 -0.32610934159E+03  0.37452191097E+03  0.00000000000E+00 0. -1.
<mgrwt>
<rscale>  2 0.18417209E+03</rscale>
<asrwt>0</asrwt>
<pdfrwt beam="1">  1       21 0.43831339E-02 0.18417209E+03</pdfrwt>
<pdfrwt beam="2">  1       21 0.35841463E+00 0.18417209E+03</pdfrwt>
<totfact> 0.52979708E+03</totfact>
</mgrwt>
</event>
<event>
 4    1  0.5694171E+003  0.1033133E+03  0.7546771E-02  0.1273479E+00
         21   -1    0    0  503  501  0.00000000000E+00  0.00000000000E+00  0.41887609913E+02  0.41887609913E+02  0.00000000000E+00 0. -1.
         21   -1    0    0  501  502 -0.00000000000E+00 -0.00000000000E+00 -0.30831067648E+03  0.30831067648E+03  0.00000000000E+00 0.  1.
         21    1    1    2  503  504  0.24400089667E+02  0.10039059489E+03 -0.60275060174E+02  0.11961069683E+03  0.00000000000E+00 0. -1.
         21    1    1    2  504  502 -0.24400089667E+02 -0.10039059489E+03 -0.20614800639E+03  0.23058758955E+03  0.00000000000E+00 0.  1.
<mgrwt>
<rscale>  2 0.10331329E+03</rscale>
<asrwt>0</asrwt>
<pdfrwt beam="1">  1       21 0.64442475E-02 0.10331329E+03</pdfrwt>
<pdfrwt beam="2">  1       21 0.47432413E-01 0.10331329E+03</pdfrwt>
<totfact> 0.74490830E+05</totfact>
</mgrwt>
</event>
<event>
 4    1  0.5694171E+003  0.1141992E+03  0.7546771E-02  0.1252985E+00
         21   -1    0    0  503  501  0.00000000000E+00  0.00000000000E+00  0.25536661307E+04  0.25536661307E+04  0.00000000000E+00 0.  1.
         21   -1    0    0  504  502 -0.00000000000E+00 -0.00000000000E+00 -0.54094228570E+01  0.54094228570E+01  0.00000000000E+00 0.  1.
         21    1    1    2  503  502  0.24070572216E+02  0.11163366048E+03  0.15766906784E+04  0.15808209772E+04  0.00000000000E+00 0.  1.
         21    1    1    2  504  501 -0.24070572216E+02 -0.11163366048E+03  0.97156602949E+03  0.97825457641E+03  0.00000000000E+00 0.  1.
<mgrwt>
<rscale>  2 0.11419924E+03</rscale>
<asrwt>0</asrwt>
<pdfrwt beam="1">  1       21 0.39287075E+00 0.11419924E+03</pdfrwt>
<pdfrwt beam="2">  1       21 0.83222094E-03 0.11419924E+03</pdfrwt>
<totfact> 0.53876845E+04</totfact>
</mgrwt>
</event>
<event>
 4    1  0.5694171E+003  0.1057890E+03  0.7546771E-02  0.1268573E+00
         21   -1    0    0  503  501  0.00000000000E+00  0.00000000000E+00  0.27715867120E+03  0.27715867120E+03  0.00000000000E+00 0. -1.
         21   -1    0    0  504  502 -0.00000000000E+00 -0.00000000000E+00 -0.41515590040E+02  0.41515590040E+02  0.00000000000E+00 0. -1.
         21    1    1    2  503  502  0.40852059280E+02 -0.97582853216E+02  0.91453820602E+02  0.13983956984E+03  0.00000000000E+00 0. -1.
         21    1    1    2  504  501 -0.40852059280E+02  0.97582853216E+02  0.14418926055E+03  0.17883469140E+03  0.00000000000E+00 0. -1.
<mgrwt>
<rscale>  2 0.10578896E+03</rscale>
<asrwt>0</asrwt>
<pdfrwt beam="1">  1       21 0.42639794E-01 0.10578896E+03</pdfrwt>
<pdfrwt beam="2">  1       21 0.63870140E-02 0.10578896E+03</pdfrwt>
<totfact> 0.93797330E+05</totfact>
</mgrwt>
</event>
<event>
 4    1  0.5694171E+003  0.1027402E+03  0.7546771E-02  0.1274637E+00
         21   -1    0    0  503  501  0.00000000000E+00  0.00000000000E+00  0.27499370362E+02  0.27499370362E+02  0.00000000000E+00 0.  1.
         21   -1    0    0  504  502 -0.00000000000E+00 -0.00000000000E+00 -0.81850399540E+03  0.81850399540E+03  0.00000000000E+00 0.  1.
         21    1    1    2  503  502  0.89931204645E+02 -0.49678320864E+02 -0.87251013568E+02  0.13478982343E+03  0.00000000000E+00 0.  1.
         21    1    1    2  504  501 -0.89931204645E+02  0.49678320864E+02 -0.70375361147E+03  0.71121354232E+03  0.00000000000E+00 0.  1.
<mgrwt>
<rscale>  2 0.10274024E+03</rscale>
<asrwt>0</asrwt>
<pdfrwt beam="1">  1       21 0.42306727E-02 0.10274024E+03</pdfrwt>
<pdfrwt beam="2">  1       21 0.12592368E+00 0.10274024E+03</pdfrwt>
<totfact> 0.17302318E+05</totfact>
</mgrwt>
</event>
<event>
 4    1  0.5694171E+003  0.1266186E+03  0.7546771E-02  0.1232561E+00
         21   -1    0    0  504  501  0.00000000000E+00  0.00000000000E+00  0.27406129199E+02  0.27406129199E+02  0.00000000000E+00 0. -1.
         21   -1    0    0  503  502 -0.00000000000E+00 -0.00000000000E+00 -0.70307650913E+03  0.70307650913E+03  0.00000000000E+00 0. -1.
         21    1    1    2  503  501  0.10092139875E+03 -0.76466533431E+02 -0.48752155560E+03  0.50369586720E+03  0.00000000000E+00 0. -1.
         21    1    1    2  504  502 -0.10092139875E+03  0.76466533431E+02 -0.18814882433E+03  0.22678677113E+03  0.00000000000E+00 0. -1.
<mgrwt>
<rscale>  2 0.12661856E+03</rscale>
<asrwt>0</asrwt>
<pdfrwt beam="1">  1       21 0.42163278E-02 0.12661856E+03</pdfrwt>
<pdfrwt beam="2">  1       21 0.10816561E+00 0.12661856E+03</pdfrwt>
<totfact> 0.24884815E+05</totfact>
</mgrwt>
</event>
<event>
 4    1  0.5694171E+003  0.1181996E+03  0.7546771E-02  0.1246097E+00
         21   -1    0    0  503  501  0.00000000000E+00  0.00000000000E+00  0.74942472829E+03  0.74942472829E+03  0.00000000000E+00 0. -1.
         21   -1    0    0  501  502 -0.00000000000E+00 -0.00000000000E+00 -0.65754913801E+02  0.65754913801E+02  0.00000000000E+00 0.  1.
         21    1    1    2  503  504  0.63130182630E+02 -0.99928579552E+02  0.68684115493E+03  0.69693752451E+03  0.00000000000E+00 0. -1.
         21    1    1    2  504  502 -0.63130182630E+02  0.99928579552E+02 -0.31713404367E+01  0.11824211758E+03  0.00000000000E+00 0.  1.
<mgrwt>
<rscale>  2 0.11819958E+03</rscale>
<asrwt>0</asrwt>
<pdfrwt beam="1">  1       21 0.11529611E+00 0.11819958E+03</pdfrwt>
<pdfrwt beam="2">  1       21 0.10116141E-01 0.11819958E+03</pdfrwt>
<totfact> 0.48324701E+04</totfact>
</mgrwt>
</event>
<event>
 4    1  0.5694171E+003  0.1011472E+03  0.7546771E-02  0.1277902E+00
         21   -1    0    0  503  501  0.00000000000E+00  0.00000000000E+00  0.10043518993E+03  0.10043518993E+03  0.00000000000E+00 0. -1.
         21   -1    0    0  504  502 -0.00000000000E+00 -0.00000000000E+00 -0.10747208297E+03  0.10747208297E+03  0.00000000000E+00 0. -1.
         21    1    1    2  503  502 -0.62535526740E+02 -0.79498812616E+02  0.20227536481E+02  0.10314992266E+03  0.00000000000E+00 0. -1.
         21    1    1    2  504  501  0.62535526740E+02  0.79498812616E+02 -0.27264429524E+02  0.10475735024E+03  0.00000000000E+00 0. -1.
<mgrwt>
<rscale>  2 0.10114719E+03</rscale>
<asrwt>0</asrwt>
<pdfrwt beam="1">  1       21 0.15451568E-01 0.10114719E+03</pdfrwt>
<pdfrwt beam="2">  1       21 0.16534167E-01 0.10114719E+03</pdfrwt>
<totfact> 0.12135542E+06</totfact>
</mgrwt>
</event>
<event>
 4    1  0.5694171E+003  0.1860585E+03  0.7546771E-02  0.1162065E+00
         21   -1    0    0  503  501  0.00000000000E+00  0.00000000000E+00  0.92884772321E+03  0.92884772321E+03  0.00000000000E+00 0.  1.
         21   -1    0    0  501  502 -0.00000000000E+00 -0.00000000000E+00 -0.37886328795E+02  0.37886328795E+02  0.00000000000E+00 0. -1.
         21    1    1    2  503  504  0.18194850825E+03  0.38891040685E+02  0.38380886995E+03  0.42652903928E+03  0.00000000000E+00 0. -1.
         21    1    1    2  504  502 -0.18194850825E+03 -0.38891040685E+02  0.50715252446E+03  0.54020501272E+03  0.00000000000E+00 0.  1.
<mgrwt>
<rscale>  2 0.18605852E+03</rscale>
<asrwt>0</asrwt>
<pdfrwt beam="1">  1       21 0.14289963E+00 0.18605852E+03</pdfrwt>
<pdfrwt beam="2">  1       21 0.58286666E-02 0.18605852E+03</pdfrwt>
<totfact> 0.70538579E+04</totfact>
</mgrwt>
</event>
<event>
 4    1  0.5694171E+003  0.1502509E+03  0.7546771E-02  0.1200165E+00
         21   -1    0    0  504  501  0.00000000000E+00  0.00000000000E+00  0.12459002823E+02  0.12459002823E+02  0.00000000000E+00 0.  1.
         21   -1    0    0  503  502 -0.00000000000E+00 -0.00000000000E+00 -0.18148227086E+04  0.18148227086E+04  0.00000000000E+00 0.  1.
         21    1    1    2  503  501 -0.12304059511E+03  0.86234187299E+02 -0.93741335317E+03  0.94937827962E+03  0.00000000000E+00 0.  1.
         21    1    1    2  504  502  0.12304059511E+03 -0.86234187299E+02 -0.86495035259E+03  0.87790343180E+03  0.00000000000E+00 0.  1.
<mgrwt>
<rscale>  2 0.15025087E+03</rscale>
<asrwt>0</asrwt>
<pdfrwt beam="1">  1       21 0.19167706E-02 0.15025087E+03</pdfrwt>
<pdfrwt beam="2">  1       21 0.27920335E+00 0.15025087E+03</pdfrwt>
<totfact> 0.61600740E+04</totfact>
</mgrwt>
</event>
<event>
 4    1  0.5694171E+003  0.1139793E+03  0.7546771E-02  0.1253373E+00
         21   -1    0    0  504  501  0.00000000000E+00  0.00000000000E+00  0.34541729465E+03  0.34541729465E+03  0.00000000000E+00 0.  1.
         21   -1    0    0  503  502 -0.00000000000E+00 -0.00000000000E+00 -0.87804437799E+02  0.87804437799E+02  0.00000000000E+00 0.  1.
         21    1    1    2  503  501  0.66102130001E+02 -0.92853645956E+02 -0.34968706384E+02  0.11922290713E+03  0.00000000000E+00 0.  1.
         21    1    1    2  504  502 -0.66102130001E+02  0.92853645956E+02  0.29258156324E+03  0.31399882532E+03  0.00000000000E+00 0.  1.
<mgrwt>
<rscale>  2 0.11397935E+03</rscale>
<asrwt>0</asrwt>
<pdfrwt beam="1">  1       21 0.53141122E-01 0.11397935E+03</pdfrwt>
<pdfrwt beam="2">  1       21 0.13508375E-01 0.11397935E+03</pdfrwt>
<totfact> 0.16309110E+05</totfact>
</mgrwt>
</event>
<event>
 4    1  0.5694171E+003  0.1502288E+03  0.7546771E-02  0.1200192E+00
         21   -1    0    0  503  501  0.00000000000E+00  0.00000000000E+00  0.50987974430E+02  0.50987974430E+02  0.00000000000E+00 0.  1.
         21   -1    0    0  504  502 -0.00000000000E+00 -0.00000000000E+00 -0.70545491204E+03  0.70545491204E+03  0.00000000000E+00 0.  1.
         21    1    1    2  503  502  0.14949124193E+03  0.14867734631E+02 -0.55809247671E+03  0.57795838389E+03  0.00000000000E+00 0.  1.
         21    1    1    2  504  501 -0.14949124193E+03 -0.14867734631E+02 -0.96374460906E+02  0.17848450258E+03  0.00000000000E+00 0.  1.
<mgrwt>
<rscale>  2 0.15022876E+03</rscale>
<asrwt>0</asrwt>
<pdfrwt beam="1">  1       21 0.78443032E-02 0.15022876E+03</pdfrwt>
<pdfrwt beam="2">  1       21 0.10853153E+00 0.15022876E+03</pdfrwt>
<totfact> 0.85405635E+04</totfact>
</mgrwt>
</event>
<event>
 4    1  0.5694171E+003  0.1062062E+03  0.7546771E-02  0.1267761E+00
         21   -1    0    0  502  501  0.00000000000E+00  0.00000000000E+00  0.30572617616E+03  0.30572617616E+03  0.00000000000E+00 0.  1.
         21   -1    0    0  503  502 -0.00000000000E+00 -0.00000000000E+00 -0.72095416743E+02  0.72095416743E+02  0.00000000000E+00 0.  1.
         21    1    1    2  503  504 -0.76905740538E+02 -0.73247991308E+02 -0.15185545925E+02  0.10728635497E+03  0.00000000000E+00 0.  1.
         21    1    1    2  504  501  0.76905740538E+02  0.73247991308E+02  0.24881630534E+03  0.27053523793E+03  0.00000000000E+00 0.  1.
<mgrwt>
<rscale>  2 0.10620622E+03</rscale>
<asrwt>0</asrwt>
<pdfrwt beam="1">  1       21 0.47034796E-01 0.10620622E+03</pdfrwt>
<pdfrwt beam="2">  1       21 0.11091603E-01 0.10620622E+03</pdfrwt>
<totfact> 0.29749516E+05</totfact>
</mgrwt>
</event>
<event>
 4    1  0.5694171E+003  0.1536426E+03  0.7546771E-02  0.1196067E+00
         21   -1    0    0  503  501  0.00000000000E+00  0.00000000000E+00  0.36050771976E+03  0.36050771976E+03  0.00000000000E+00 0. -1.
         21   -1    0    0  504  502 -0.00000000000E+00 -0.00000000000E+00 -0.88159659050E+02  0.88159659050E+02  0.00000000000E+00 0. -1.
         21    1    1    2  503  502 -0.15342569350E+03  0.81618554149E+01  0.24995704644E+03  0.29340174569E+03  0.00000000000E+00 0. -1.
         21    1    1    2  504  501  0.15342569350E+03 -0.81618554149E+01  0.22391014271E+02  0.15526563312E+03  0.00000000000E+00 0. -1.
<mgrwt>
<rscale>  2 0.15364264E+03</rscale>
<asrwt>0</asrwt>
<pdfrwt beam="1">  1       21 0.55462726E-01 0.15364264E+03</pdfrwt>
<pdfrwt beam="2">  1       21 0.13563025E-01 0.15364264E+03</pdfrwt>
<totfact> 0.14621258E+05</totfact>
</mgrwt>
</event>
<event>
 4    1  0.5694171E+003  0.1154896E+03  0.7546771E-02  0.1250729E+00
         21   -1    0    0  503  501  0.00000000000E+00  0.00000000000E+00  0.14665584325E+04  0.14665584325E+04  0.00000000000E+00 0.  1.
         21   -1    0    0  504  502 -0.00000000000E+00 -0.00000000000E+00 -0.24664594451E+02  0.24664594451E+02  0.00000000000E+00 0. -1.
         21    1    1    2  503  502  0.31383291899E+02 -0.11114379103E+03  0.12854155822E+03  0.17280273575E+03  0.00000000000E+00 0. -1.
         21    1    1    2  504  501 -0.31383291899E+02  0.11114379103E+03  0.13133522798E+04  0.13184202912E+04  0.00000000000E+00 0.  1.
<mgrwt>
<rscale>  2 0.11548962E+03</rscale>
<asrwt>0</asrwt>
<pdfrwt beam="1">  1       21 0.22562431E+00 0.11548962E+03</pdfrwt>
<pdfrwt beam="2">  1       21 0.37945541E-02 0.11548962E+03</pdfrwt>
<totfact> 0.42482388E+04</totfact>
</mgrwt>
</event>
<event>
 4    1  0.5694171E+003  0.1325066E+03  0.7546771E-02  0.1223783E+00
         21   -1    0    0  502  501  0.00000000000E+00  0.00000000000E+00  0.17129344090E+04  0.17129344090E+04  0.00000000000E+00 0. -1.
         21   -1    0    0  504  502 -0.00000000000E+00 -0.00000000000E+00 -0.15875093055E+03  0.15875093055E+03  0.00000000000E+00 0. -1.
         21    1    1    2  503  501  0.11657171268E+03  0.63000192308E+02  0.16822175303E+04  0.16874281637E+04  0.00000000000E+00 0. -1.
         21    1    1    2  504  503 -0.11657171268E+03 -0.63000192308E+02 -0.12803405184E+03  0.18425717586E+03  0.00000000000E+00 0. -1.
<mgrwt>
<rscale>  2 0.13250656E+03</rscale>
<asrwt>0</asrwt>
<pdfrwt beam="1">  1       21 0.26352836E+00 0.13250656E+03</pdfrwt>
<pdfrwt beam="2">  1       21 0.24423221E-01 0.13250656E+03</pdfrwt>
<totfact> 0.96012363E+02</totfact>
</mgrwt>
</event>
<event>
 4    1  0.5694171E+003  0.1056867E+03  0.7546771E-02  0.1268773E+00
         21   -1    0    0  503  501  0.00000000000E+00  0.00000000000E+00  0.17214638932E+03  0.17214638932E+03  0.00000000000E+00 0.  1.
         21   -1    0    0  501  502 -0.00000000000E+00 -0.00000000000E+00 -0.27093157073E+03  0.27093157073E+03  0.00000000000E+00 0. -1.
         21    1    1    2  503  504 -0.26306885668E+02  0.10236028007E+03  0.14380570034E+03  0.17846500671E+03  0.00000000000E+00 0.  1.
         21    1    1    2  504  502  0.26306885668E+02 -0.10236028007E+03 -0.24259088175E+03  0.26461295334E+03  0.00000000000E+00 0. -1.
<mgrwt>
<rscale>  2 0.10568670E+03</rscale>
<asrwt>0</asrwt>
<pdfrwt beam="1">  1       21 0.26484060E-01 0.10568670E+03</pdfrwt>
<pdfrwt beam="2">  1       21 0.41681780E-01 0.10568670E+03</pdfrwt>
<totfact> 0.78135182E+04</totfact>
</mgrwt>
</event>
<event>
 4    1  0.5694171E+003  0.1152090E+03  0.7546771E-02  0.1251217E+00
         21   -1    0    0  504  501  0.00000000000E+00  0.00000000000E+00  0.23211069647E+03  0.23211069647E+03  0.00000000000E+00 0.  1.
         21   -1    0    0  503  502 -0.00000000000E+00 -0.00000000000E+00 -0.62163047985E+03  0.62163047985E+03  0.00000000000E+00 0. -1.
         21    1    1    2  503  501 -0.56144193725E+02 -0.10060292416E+03  0.21200297517E+03  0.24128485307E+03  0.00000000000E+00 0.  1.
         21    1    1    2  504  502  0.56144193725E+02  0.10060292416E+03 -0.60152275855E+03  0.61245632325E+03  0.00000000000E+00 0. -1.
<mgrwt>
<rscale>  2 0.11520902E+03</rscale>
<asrwt>0</asrwt>
<pdfrwt beam="1">  1       21 0.35709339E-01 0.11520902E+03</pdfrwt>
<pdfrwt beam="2">  1       21 0.95635456E-01 0.11520902E+03</pdfrwt>
<totfact> 0.73790258E+03</totfact>
</mgrwt>
</event>
<event>
 4    1  0.5694171E+003  0.1169389E+03  0.7546771E-02  0.1248234E+00
         21   -1    0    0  502  501  0.00000000000E+00  0.00000000000E+00  0.74581456797E+03  0.74581456797E+03  0.00000000000E+00 0. -1.
         21   -1    0    0  503  502 -0.00000000000E+00 -0.00000000000E+00 -0.16468522327E+03  0.16468522327E+03  0.00000000000E+00 0. -1.
         21    1    1    2  503  504  0.10268067977E+03  0.55958764549E+02 -0.13859494037E+03  0.18133742808E+03  0.00000000000E+00 0. -1.
         21    1    1    2  504  501 -0.10268067977E+03 -0.55958764549E+02  0.71972428508E+03  0.72916236316E+03  0.00000000000E+00 0. -1.
<mgrwt>
<rscale>  2 0.11693890E+03</rscale>
<asrwt>0</asrwt>
<pdfrwt beam="1">  1       21 0.11474070E+00 0.11693890E+03</pdfrwt>
<pdfrwt beam="2">  1       21 0.25336189E-01 0.11693890E+03</pdfrwt>
<totfact> 0.92807615E+03</totfact>
</mgrwt>
</event>
<event>
 4    1  0.5694171E+003  0.1084085E+03  0.7546771E-02  0.1263546E+00
         21   -1    0    0  503  501  0.00000000000E+00  0.00000000000E+00  0.16193994730E+03  0.16193994730E+03  0.00000000000E+00 0.  1.
         21   -1    0    0  504  502 -0.00000000000E+00 -0.00000000000E+00 -0.35644894499E+03  0.35644894499E+03  0.00000000000E+00 0.  1.
         21    1    1    2  503  502 -0.40527441855E+02 -0.10054809753E+03  0.13405404377E+03  0.17240324856E+03  0.00000000000E+00 0.  1.
         21    1    1    2  504  501  0.40527441855E+02  0.10054809753E+03 -0.32856304146E+03  0.34598564374E+03  0.00000000000E+00 0.  1.
<mgrwt>
<rscale>  2 0.10840846E+03</rscale>
<asrwt>0</asrwt>
<pdfrwt beam="1">  1       21 0.24913838E-01 0.10840846E+03</pdfrwt>
<pdfrwt beam="2">  1       21 0.54838299E-01 0.10840846E+03</pdfrwt>
<totfact> 0.50030325E+04</totfact>
</mgrwt>
</event>
<event>
 4    1  0.5694171E+003  0.1172983E+03  0.7546771E-02  0.1247622E+00
         21   -1    0    0  503  501  0.00000000000E+00  0.00000000000E+00  0.87617191448E+02  0.87617191448E+02  0.00000000000E+00 0. -1.
         21   -1    0    0  504  502 -0.00000000000E+00 -0.00000000000E+00 -0.68502183893E+03  0.68502183893E+03  0.00000000000E+00 0. -1.
         21    1    1    2  503  502 -0.93762703059E+02 -0.70480035186E+02  0.40459053438E+02  0.12407987286E+03  0.00000000000E+00 0. -1.
         21    1    1    2  504  501  0.93762703059E+02  0.70480035186E+02 -0.63786370092E+03  0.64855915752E+03  0.00000000000E+00 0. -1.
<mgrwt>
<rscale>  2 0.11729825E+03</rscale>
<asrwt>0</asrwt>
<pdfrwt beam="1">  1       21 0.13479568E-01 0.11729825E+03</pdfrwt>
<pdfrwt beam="2">  1       21 0.10538797E+00 0.11729825E+03</pdfrwt>
<totfact> 0.36095640E+04</totfact>
</mgrwt>
</event>
<event>
 4    1  0.5694171E+003  0.1707935E+03  0.7546771E-02  0.1177023E+00
         21   -1    0    0  504  501  0.00000000000E+00  0.00000000000E+00  0.45048911016E+02  0.45048911016E+02  0.00000000000E+00 0. -1.
         21   -1    0    0  503  502 -0.00000000000E+00 -0.00000000000E+00 -0.11810752175E+04  0.11810752175E+04  0.00000000000E+00 0.  1.
         21    1    1    2  503  501  0.28114071031E+02  0.16846374110E+03 -0.15596110414E+03  0.23128834614E+03  0.00000000000E+00 0. -1.
         21    1    1    2  504  502 -0.28114071031E+02 -0.16846374110E+03 -0.98006520234E+03  0.99483578237E+03  0.00000000000E+00 0.  1.
<mgrwt>
<rscale>  2 0.17079354E+03</rscale>
<asrwt>0</asrwt>
<pdfrwt beam="1">  1       21 0.69306012E-02 0.17079354E+03</pdfrwt>
<pdfrwt beam="2">  1       21 0.18170389E+00 0.17079354E+03</pdfrwt>
<totfact> 0.27691287E+04</totfact>
</mgrwt>
</event>
