<event>
 4    1  0.5810391E+003  0.1267828E+03  0.7546771E-02  0.1232309E+00
         21   -1    0    0  504  501  0.00000000000E+00  0.00000000000E+00  0.14905113447E+04  0.14905113447E+04  0.00000000000E+00 0.  1.
         21   -1    0    0  501  502 -0.00000000000E+00 -0.00000000000E+00 -0.25135233203E+02  0.25135233203E+02  0.00000000000E+00 0.  1.
         21    1    1    2  503  502  0.11907167700E+03 -0.43541080462E+02  0.16006489456E+03  0.20419270414E+03  0.00000000000E+00 0.  1.
         21    1    1    2  504  503 -0.11907167700E+03  0.43541080462E+02  0.13053112169E+04  0.13114538737E+04  0.00000000000E+00 0.  1.
<mgrwt>
<rscale>  2 0.12678285E+03</rscale>
<asrwt>0</asrwt>
<pdfrwt beam="1">  1       21 0.22930937E+00 0.12678285E+03</pdfrwt>
<pdfrwt beam="2">  1       21 0.38669601E-02 0.12678285E+03</pdfrwt>
<totfact> 0.38714373E+04</totfact>
</mgrwt>
</event>
<event>
 4    1  0.5810391E+003  0.1834332E+03  0.7546771E-02  0.1164521E+00
         21   -1    0    0  504  501  0.00000000000E+00  0.00000000000E+00  0.12086695950E+04  0.12086695950E+04  0.00000000000E+00 0. -1.
         21   -1    0    0  503  502 -0.00000000000E+00 -0.00000000000E+00 -0.32104514517E+02  0.32104514517E+02  0.00000000000E+00 0. -1.
         21    1    1    2  503  501  0.17753775280E+03  0.46131286822E+02  0.81442514104E+03  0.83482696390E+03  0.00000000000E+00 0. -1.
         21    1    1    2  504  502 -0.17753775280E+03 -0.46131286822E+02  0.36213993943E+03  0.40594714561E+03  0.00000000000E+00 0. -1.
<mgrwt>
<rscale>  2 0.18343323E+03</rscale>
<asrwt>0</asrwt>
<pdfrwt beam="1">  1       21 0.18594913E+00 0.18343323E+03</pdfrwt>
<pdfrwt beam="2">  1       21 0.49391570E-02 0.18343323E+03</pdfrwt>
<totfact> 0.45834047E+04</totfact>
</mgrwt>
</event>
<event>
 4    1  0.5810391E+003  0.1550823E+03  0.7546771E-02  0.1194363E+00
         21   -1    0    0  504  501  0.00000000000E+00  0.00000000000E+00  0.11515539149E+04  0.11515539149E+04  0.00000000000E+00 0. -1.
         21   -1    0    0  503  502 -0.00000000000E+00 -0.00000000000E+00 -0.24405940747E+02  0.24405940747E+02  0.00000000000E+00 0. -1.
         21    1    1    2  503  501 -0.11597501855E+03  0.10295779119E+03  0.34025400882E+03  0.37392954178E+03  0.00000000000E+00 0. -1.
         21    1    1    2  504  502  0.11597501855E+03 -0.10295779119E+03  0.78689396535E+03  0.80203031389E+03  0.00000000000E+00 0. -1.
<mgrwt>
<rscale>  2 0.15508227E+03</rscale>
<asrwt>0</asrwt>
<pdfrwt beam="1">  1       21 0.17716210E+00 0.15508227E+03</pdfrwt>
<pdfrwt beam="2">  1       21 0.37547610E-02 0.15508227E+03</pdfrwt>
<totfact> 0.84682040E+04</totfact>
</mgrwt>
</event>
<event>
 4    1  0.5810391E+003  0.1038042E+03  0.7546771E-02  0.1272494E+00
         21   -1    0    0  503  501  0.00000000000E+00  0.00000000000E+00  0.22734617444E+02  0.22734617444E+02  0.00000000000E+00 0.  1.
         21   -1    0    0  504  502 -0.00000000000E+00 -0.00000000000E+00 -0.65485864184E+03  0.65485864184E+03  0.00000000000E+00 0.  1.
         21    1    1    2  503  502  0.85720871443E+02 -0.58542713417E+02 -0.13799559831E+03  0.17267918881E+03  0.00000000000E+00 0.  1.
         21    1    1    2  504  501 -0.85720871443E+02  0.58542713417E+02 -0.49412842609E+03  0.50491407047E+03  0.00000000000E+00 0.  1.
<mgrwt>
<rscale>  2 0.10380422E+03</rscale>
<asrwt>0</asrwt>
<pdfrwt beam="1">  1       21 0.34976340E-02 0.10380422E+03</pdfrwt>
<pdfrwt beam="2">  1       21 0.10074747E+00 0.10380422E+03</pdfrwt>
<totfact> 0.40302729E+05</totfact>
</mgrwt>
</event>
<event>
 4    1  0.5810391E+003  0.1223713E+03  0.7546771E-02  0.1239236E+00
         21   -1    0    0  504  501  0.00000000000E+00  0.00000000000E+00  0.87517746693E+02  0.87517746693E+02  0.00000000000E+00 0. -1.
         21   -1    0    0  501  502 -0.00000000000E+00 -0.00000000000E+00 -0.19128092064E+03  0.19128092064E+03  0.00000000000E+00 0. -1.
         21    1    1    2  503  502  0.80025916700E+02 -0.92577449910E+02 -0.97154727913E+02  0.15624907274E+03  0.00000000000E+00 0. -1.
         21    1    1    2  504  503 -0.80025916700E+02  0.92577449910E+02 -0.66084460287E+01  0.12254959459E+03  0.00000000000E+00 0. -1.
<mgrwt>
<rscale>  2 0.12237129E+03</rscale>
<asrwt>0</asrwt>
<pdfrwt beam="1">  1       21 0.13464269E-01 0.12237129E+03</pdfrwt>
<pdfrwt beam="2">  1       21 0.29427834E-01 0.12237129E+03</pdfrwt>
<totfact> 0.53201402E+05</totfact>
</mgrwt>
</event>
<event>
 4    1  0.5810391E+003  0.1209654E+03  0.7546771E-02  0.1241513E+00
         21   -1    0    0  504  501  0.00000000000E+00  0.00000000000E+00  0.17335931709E+03  0.17335931709E+03  0.00000000000E+00 0. -1.
         21   -1    0    0  503  502 -0.00000000000E+00 -0.00000000000E+00 -0.11274692433E+03  0.11274692433E+03  0.00000000000E+00 0.  1.
         21    1    1    2  503  501  0.25981279273E+02  0.11814227103E+03 -0.41415324485E+02  0.12785871960E+03  0.00000000000E+00 0.  1.
         21    1    1    2  504  502 -0.25981279273E+02 -0.11814227103E+03  0.10202771725E+03  0.15824752182E+03  0.00000000000E+00 0. -1.
<mgrwt>
<rscale>  2 0.12096538E+03</rscale>
<asrwt>0</asrwt>
<pdfrwt beam="1">  1       21 0.26670664E-01 0.12096538E+03</pdfrwt>
<pdfrwt beam="2">  1       21 0.17345681E-01 0.12096538E+03</pdfrwt>
<totfact> 0.40671149E+05</totfact>
</mgrwt>
</event>
<event>
 4    1  0.5810391E+003  0.1334025E+03  0.7546771E-02  0.1222493E+00
         21   -1    0    0  503  501  0.00000000000E+00  0.00000000000E+00  0.29928667943E+03  0.29928667943E+03  0.00000000000E+00 0.  1.
         21   -1    0    0  504  502 -0.00000000000E+00 -0.00000000000E+00 -0.59501320093E+02  0.59501320093E+02  0.00000000000E+00 0.  1.
         21    1    1    2  503  502  0.12465401743E+03  0.47514206457E+02  0.12449656679E+03  0.18247087170E+03  0.00000000000E+00 0.  1.
         21    1    1    2  504  501 -0.12465401743E+03 -0.47514206457E+02  0.11528879255E+03  0.17631712782E+03  0.00000000000E+00 0.  1.
<mgrwt>
<rscale>  2 0.13340249E+03</rscale>
<asrwt>0</asrwt>
<pdfrwt beam="1">  1       21 0.46044104E-01 0.13340249E+03</pdfrwt>
<pdfrwt beam="2">  1       21 0.91540494E-02 0.13340249E+03</pdfrwt>
<totfact> 0.43270138E+05</totfact>
</mgrwt>
</event>
<event>
 4    1  0.5810391E+003  0.1353679E+03  0.7546771E-02  0.1219701E+00
         21   -1    0    0  503  501  0.00000000000E+00  0.00000000000E+00  0.68486000733E+03  0.68486000733E+03  0.00000000000E+00 0. -1.
         21   -1    0    0  504  502 -0.00000000000E+00 -0.00000000000E+00 -0.27091223741E+02  0.27091223741E+02  0.00000000000E+00 0. -1.
         21    1    1    2  503  502 -0.11383972259E+03  0.73246019639E+02  0.28931636295E+03  0.31941887813E+03  0.00000000000E+00 0. -1.
         21    1    1    2  504  501  0.11383972259E+03 -0.73246019639E+02  0.36845242063E+03  0.39253235294E+03  0.00000000000E+00 0. -1.
<mgrwt>
<rscale>  2 0.13536788E+03</rscale>
<asrwt>0</asrwt>
<pdfrwt beam="1">  1       21 0.10536306E+00 0.13536788E+03</pdfrwt>
<pdfrwt beam="2">  1       21 0.41678811E-02 0.13536788E+03</pdfrwt>
<totfact> 0.26936238E+05</totfact>
</mgrwt>
</event>
<event>
 4    1  0.5810391E+003  0.1037452E+03  0.7546771E-02  0.1272612E+00
         21   -1    0    0  504  501  0.00000000000E+00  0.00000000000E+00  0.97191841418E+03  0.97191841418E+03  0.00000000000E+00 0. -1.
         21   -1    0    0  501  502 -0.00000000000E+00 -0.00000000000E+00 -0.40538492276E+02  0.40538492276E+02  0.00000000000E+00 0.  1.
         21    1    1    2  503  502 -0.91620531478E+02  0.48669667747E+02  0.34109295910E+02  0.10920852721E+03  0.00000000000E+00 0.  1.
         21    1    1    2  504  503  0.91620531478E+02 -0.48669667747E+02  0.89727062600E+03  0.90324837926E+03  0.00000000000E+00 0. -1.
<mgrwt>
<rscale>  2 0.10374516E+03</rscale>
<asrwt>0</asrwt>
<pdfrwt beam="1">  1       21 0.14952589E+00 0.10374516E+03</pdfrwt>
<pdfrwt beam="2">  1       21 0.62366918E-02 0.10374516E+03</pdfrwt>
<totfact> 0.58769501E+04</totfact>
</mgrwt>
</event>
<event>
 4    1  0.5810391E+003  0.1252293E+03  0.7546771E-02  0.1234711E+00
         21   -1    0    0  503  501  0.00000000000E+00  0.00000000000E+00  0.85156927396E+02  0.85156927396E+02  0.00000000000E+00 0.  1.
         21   -1    0    0  504  502 -0.00000000000E+00 -0.00000000000E+00 -0.28187525655E+03  0.28187525655E+03  0.00000000000E+00 0.  1.
         21    1    1    2  503  502  0.81994777219E+02  0.94653248515E+02 -0.20641045640E+03  0.24142836921E+03  0.00000000000E+00 0.  1.
         21    1    1    2  504  501 -0.81994777219E+02 -0.94653248515E+02  0.96921272517E+01  0.12560381474E+03  0.00000000000E+00 0.  1.
<mgrwt>
<rscale>  2 0.12522931E+03</rscale>
<asrwt>0</asrwt>
<pdfrwt beam="1">  1       21 0.13101066E-01 0.12522931E+03</pdfrwt>
<pdfrwt beam="2">  1       21 0.43365424E-01 0.12522931E+03</pdfrwt>
<totfact> 0.26030386E+05</totfact>
</mgrwt>
</event>
<event>
 4    1  0.5810391E+003  0.1189919E+03  0.7546771E-02  0.1244769E+00
         21   -1    0    0  502  501  0.00000000000E+00  0.00000000000E+00  0.18219248170E+03  0.18219248170E+03  0.00000000000E+00 0. -1.
         21   -1    0    0  503  502 -0.00000000000E+00 -0.00000000000E+00 -0.48526366015E+03  0.48526366015E+03  0.00000000000E+00 0.  1.
         21    1    1    2  503  504 -0.10604070834E+03 -0.53985642239E+02 -0.45737511354E+03  0.47260033419E+03  0.00000000000E+00 0.  1.
         21    1    1    2  504  501  0.10604070834E+03  0.53985642239E+02  0.15430393509E+03  0.19485580766E+03  0.00000000000E+00 0. -1.
<mgrwt>
<rscale>  2 0.11899194E+03</rscale>
<asrwt>0</asrwt>
<pdfrwt beam="1">  1       21 0.28029613E-01 0.11899194E+03</pdfrwt>
<pdfrwt beam="2">  1       21 0.74655947E-01 0.11899194E+03</pdfrwt>
<totfact> 0.20522967E+04</totfact>
</mgrwt>
</event>
<event>
 4    1  0.5810391E+003  0.1161167E+03  0.7546771E-02  0.1249644E+00
         21   -1    0    0  504  501  0.00000000000E+00  0.00000000000E+00  0.39763388807E+02  0.39763388807E+02  0.00000000000E+00 0. -1.
         21   -1    0    0  501  502 -0.00000000000E+00 -0.00000000000E+00 -0.43030635952E+03  0.43030635952E+03  0.00000000000E+00 0. -1.
         21    1    1    2  503  502  0.11579607496E+03 -0.86229973209E+01 -0.30348875742E+03  0.32494386121E+03  0.00000000000E+00 0. -1.
         21    1    1    2  504  503 -0.11579607496E+03  0.86229973209E+01 -0.87054213299E+02  0.14512588712E+03  0.00000000000E+00 0. -1.
<mgrwt>
<rscale>  2 0.11611670E+03</rscale>
<asrwt>0</asrwt>
<pdfrwt beam="1">  1       21 0.61174439E-02 0.11611670E+03</pdfrwt>
<pdfrwt beam="2">  1       21 0.66200984E-01 0.11611670E+03</pdfrwt>
<totfact> 0.40485545E+05</totfact>
</mgrwt>
</event>
<event>
 4    1  0.5810391E+003  0.1018390E+03  0.7546771E-02  0.1276476E+00
         21   -1    0    0  504  501  0.00000000000E+00  0.00000000000E+00  0.61499648429E+02  0.61499648429E+02  0.00000000000E+00 0.  1.
         21   -1    0    0  503  502 -0.00000000000E+00 -0.00000000000E+00 -0.30570735863E+03  0.30570735863E+03  0.00000000000E+00 0.  1.
         21    1    1    2  503  501 -0.64285139442E+02  0.78984829245E+02 -0.24504523611E+03  0.26536456083E+03  0.00000000000E+00 0.  1.
         21    1    1    2  504  502  0.64285139442E+02 -0.78984829245E+02  0.83752591140E+00  0.10184244623E+03  0.00000000000E+00 0.  1.
<mgrwt>
<rscale>  2 0.10183900E+03</rscale>
<asrwt>0</asrwt>
<pdfrwt beam="1">  1       21 0.94614844E-02 0.10183900E+03</pdfrwt>
<pdfrwt beam="2">  1       21 0.47031901E-01 0.10183900E+03</pdfrwt>
<totfact> 0.39273532E+05</totfact>
</mgrwt>
</event>
<event>
 4    1  0.5810391E+003  0.1006201E+03  0.7546771E-02  0.1278997E+00
         21   -1    0    0  502  501  0.00000000000E+00  0.00000000000E+00  0.90089597236E+03  0.90089597236E+03  0.00000000000E+00 0.  1.
         21   -1    0    0  503  502 -0.00000000000E+00 -0.00000000000E+00 -0.21056078078E+02  0.21056078078E+02  0.00000000000E+00 0.  1.
         21    1    1    2  503  504  0.87275681611E+02 -0.50073638618E+02  0.12514563763E+03  0.16057971386E+03  0.00000000000E+00 0.  1.
         21    1    1    2  504  501 -0.87275681611E+02  0.50073638618E+02  0.75469425666E+03  0.76137233659E+03  0.00000000000E+00 0.  1.
<mgrwt>
<rscale>  2 0.10062015E+03</rscale>
<asrwt>0</asrwt>
<pdfrwt beam="1">  1       21 0.13859935E+00 0.10062015E+03</pdfrwt>
<pdfrwt beam="2">  1       21 0.32393973E-02 0.10062015E+03</pdfrwt>
<totfact> 0.21196217E+05</totfact>
</mgrwt>
</event>
<event>
 4    1  0.5810391E+003  0.1387899E+03  0.7546771E-02  0.1214967E+00
         21   -1    0    0  503  501  0.00000000000E+00  0.00000000000E+00  0.28825648169E+03  0.28825648169E+03  0.00000000000E+00 0.  1.
         21   -1    0    0  504  502 -0.00000000000E+00 -0.00000000000E+00 -0.68137894617E+02  0.68137894617E+02  0.00000000000E+00 0. -1.
         21    1    1    2  503  502  0.13464133710E+03  0.33680074379E+02  0.85320408123E+02  0.16291779862E+03  0.00000000000E+00 0. -1.
         21    1    1    2  504  501 -0.13464133710E+03 -0.33680074379E+02  0.13479817895E+03  0.19347657769E+03  0.00000000000E+00 0.  1.
<mgrwt>
<rscale>  2 0.13878990E+03</rscale>
<asrwt>0</asrwt>
<pdfrwt beam="1">  1       21 0.44347150E-01 0.13878990E+03</pdfrwt>
<pdfrwt beam="2">  1       21 0.10482753E-01 0.13878990E+03</pdfrwt>
<totfact> 0.36820659E+05</totfact>
</mgrwt>
</event>
<event>
 4    1  0.5810391E+003  0.1303510E+03  0.7546771E-02  0.1226936E+00
         21   -1    0    0  504  501  0.00000000000E+00  0.00000000000E+00  0.10251996178E+03  0.10251996178E+03  0.00000000000E+00 0.  1.
         21   -1    0    0  503  502 -0.00000000000E+00 -0.00000000000E+00 -0.32220467953E+03  0.32220467953E+03  0.00000000000E+00 0.  1.
         21    1    1    2  503  501 -0.13031696104E+03 -0.29767833537E+01 -0.25782936423E+03  0.28890716958E+03  0.00000000000E+00 0.  1.
         21    1    1    2  504  502  0.13031696104E+03  0.29767833537E+01  0.38144646483E+02  0.13581747173E+03  0.00000000000E+00 0.  1.
<mgrwt>
<rscale>  2 0.13035096E+03</rscale>
<asrwt>0</asrwt>
<pdfrwt beam="1">  1       21 0.15772302E-01 0.13035096E+03</pdfrwt>
<pdfrwt beam="2">  1       21 0.49569950E-01 0.13035096E+03</pdfrwt>
<totfact> 0.14178540E+05</totfact>
</mgrwt>
</event>
<event>
 4    1  0.5810391E+003  0.1005514E+03  0.7546771E-02  0.1279141E+00
         21   -1    0    0  503  501  0.00000000000E+00  0.00000000000E+00  0.51604659533E+02  0.51604659533E+02  0.00000000000E+00 0.  1.
         21   -1    0    0  504  502 -0.00000000000E+00 -0.00000000000E+00 -0.33482097456E+03  0.33482097456E+03  0.00000000000E+00 0.  1.
         21    1    1    2  503  502  0.99888276687E+02 -0.11528885026E+02 -0.17163502201E+02  0.10200572934E+03  0.00000000000E+00 0.  1.
         21    1    1    2  504  501 -0.99888276687E+02  0.11528885026E+02 -0.26605281283E+03  0.28441990476E+03  0.00000000000E+00 0.  1.
<mgrwt>
<rscale>  2 0.10055139E+03</rscale>
<asrwt>0</asrwt>
<pdfrwt beam="1">  1       21 0.79391784E-02 0.10055139E+03</pdfrwt>
<pdfrwt beam="2">  1       21 0.51510919E-01 0.10055139E+03</pdfrwt>
<totfact> 0.44114704E+05</totfact>
</mgrwt>
</event>
<event>
 4    1  0.5810391E+003  0.1224730E+03  0.7546771E-02  0.1239072E+00
         21   -1    0    0  504  501  0.00000000000E+00  0.00000000000E+00  0.41205738690E+03  0.41205738690E+03  0.00000000000E+00 0.  1.
         21   -1    0    0  503  502 -0.00000000000E+00 -0.00000000000E+00 -0.39190710412E+02  0.39190710412E+02  0.00000000000E+00 0.  1.
         21    1    1    2  503  501  0.38225034021E+02  0.11635493919E+03  0.12624502971E+03  0.17589039947E+03  0.00000000000E+00 0.  1.
         21    1    1    2  504  502 -0.38225034021E+02 -0.11635493919E+03  0.24662164678E+03  0.27535769784E+03  0.00000000000E+00 0.  1.
<mgrwt>
<rscale>  2 0.12247296E+03</rscale>
<asrwt>0</asrwt>
<pdfrwt beam="1">  1       21 0.63393441E-01 0.12247296E+03</pdfrwt>
<pdfrwt beam="2">  1       21 0.60293404E-02 0.12247296E+03</pdfrwt>
<totfact> 0.45498949E+05</totfact>
</mgrwt>
</event>
<event>
 4    1  0.5810391E+003  0.1049456E+03  0.7546771E-02  0.1270227E+00
         21   -1    0    0  504  501  0.00000000000E+00  0.00000000000E+00  0.40035556733E+03  0.40035556733E+03  0.00000000000E+00 0.  1.
         21   -1    0    0  503  502 -0.00000000000E+00 -0.00000000000E+00 -0.28368052282E+02  0.28368052282E+02  0.00000000000E+00 0.  1.
         21    1    1    2  503  501 -0.10492961515E+03  0.18298907635E+01  0.22328626759E+03  0.24671913167E+03  0.00000000000E+00 0.  1.
         21    1    1    2  504  502  0.10492961515E+03 -0.18298907635E+01  0.14870124746E+03  0.18200448794E+03  0.00000000000E+00 0.  1.
<mgrwt>
<rscale>  2 0.10494557E+03</rscale>
<asrwt>0</asrwt>
<pdfrwt beam="1">  1       21 0.61593160E-01 0.10494557E+03</pdfrwt>
<pdfrwt beam="2">  1       21 0.43643160E-02 0.10494557E+03</pdfrwt>
<totfact> 0.83228684E+05</totfact>
</mgrwt>
</event>
<event>
 4    1  0.5810391E+003  0.1306346E+03  0.7546771E-02  0.1226517E+00
         21   -1    0    0  504  501  0.00000000000E+00  0.00000000000E+00  0.18847711109E+03  0.18847711109E+03  0.00000000000E+00 0.  1.
         21   -1    0    0  503  502 -0.00000000000E+00 -0.00000000000E+00 -0.95145954694E+02  0.95145954694E+02  0.00000000000E+00 0.  1.
         21    1    1    2  503  501 -0.11134040300E+03 -0.68328015961E+02  0.15476345491E+02  0.13154816751E+03  0.00000000000E+00 0.  1.
         21    1    1    2  504  502  0.11134040300E+03  0.68328015961E+02  0.77854810900E+02  0.15207489827E+03  0.00000000000E+00 0.  1.
<mgrwt>
<rscale>  2 0.13063462E+03</rscale>
<asrwt>0</asrwt>
<pdfrwt beam="1">  1       21 0.28996479E-01 0.13063462E+03</pdfrwt>
<pdfrwt beam="2">  1       21 0.14637839E-01 0.13063462E+03</pdfrwt>
<totfact> 0.47093327E+05</totfact>
</mgrwt>
</event>
<event>
 4    1  0.5810391E+003  0.1127101E+03  0.7546771E-02  0.1255632E+00
         21   -1    0    0  503  501  0.00000000000E+00  0.00000000000E+00  0.88699740184E+01  0.88699740184E+01  0.00000000000E+00 0.  1.
         21   -1    0    0  504  502 -0.00000000000E+00 -0.00000000000E+00 -0.15064676673E+04  0.15064676673E+04  0.00000000000E+00 0.  1.
         21    1    1    2  503  502 -0.92683112714E+02 -0.64135781510E+02 -0.58056799558E+03  0.59140743599E+03  0.00000000000E+00 0.  1.
         21    1    1    2  504  501  0.92683112714E+02  0.64135781510E+02 -0.91702969774E+03  0.92393020537E+03  0.00000000000E+00 0.  1.
<mgrwt>
<rscale>  2 0.11271006E+03</rscale>
<asrwt>0</asrwt>
<pdfrwt beam="1">  1       21 0.13646126E-02 0.11271006E+03</pdfrwt>
<pdfrwt beam="2">  1       21 0.23176405E+00 0.11271006E+03</pdfrwt>
<totfact> 0.20505237E+05</totfact>
</mgrwt>
</event>
<event>
 4    1  0.5810391E+003  0.1233219E+03  0.7546771E-02  0.1237715E+00
         21   -1    0    0  502  501  0.00000000000E+00  0.00000000000E+00  0.44135153481E+03  0.44135153481E+03  0.00000000000E+00 0. -1.
         21   -1    0    0  503  502 -0.00000000000E+00 -0.00000000000E+00 -0.13288329943E+03  0.13288329943E+03  0.00000000000E+00 0.  1.
         21    1    1    2  503  504  0.11464507711E+03 -0.45439921499E+02 -0.92868169158E+02  0.15437868057E+03  0.00000000000E+00 0.  1.
         21    1    1    2  504  501 -0.11464507711E+03  0.45439921499E+02  0.40133640454E+03  0.41985615368E+03  0.00000000000E+00 0. -1.
<mgrwt>
<rscale>  2 0.12332186E+03</rscale>
<asrwt>0</asrwt>
<pdfrwt beam="1">  1       21 0.67900235E-01 0.12332186E+03</pdfrwt>
<pdfrwt beam="2">  1       21 0.20443585E-01 0.12332186E+03</pdfrwt>
<totfact> 0.45534527E+04</totfact>
</mgrwt>
</event>
<event>
 4    1  0.5810391E+003  0.1012939E+03  0.7546771E-02  0.1277598E+00
         21   -1    0    0  504  501  0.00000000000E+00  0.00000000000E+00  0.55690938293E+03  0.55690938293E+03  0.00000000000E+00 0. -1.
         21   -1    0    0  503  502 -0.00000000000E+00 -0.00000000000E+00 -0.20846635654E+02  0.20846635654E+02  0.00000000000E+00 0.  1.
         21    1    1    2  503  501  0.41142777650E+02  0.92562054050E+02  0.16955174184E+03  0.19750507630E+03  0.00000000000E+00 0.  1.
         21    1    1    2  504  502 -0.41142777650E+02 -0.92562054050E+02  0.36651100544E+03  0.38025094229E+03  0.00000000000E+00 0. -1.
<mgrwt>
<rscale>  2 0.10129394E+03</rscale>
<asrwt>0</asrwt>
<pdfrwt beam="1">  1       21 0.85678355E-01 0.10129394E+03</pdfrwt>
<pdfrwt beam="2">  1       21 0.32071751E-02 0.10129394E+03</pdfrwt>
<totfact> 0.67290346E+05</totfact>
</mgrwt>
</event>
<event>
 4    1  0.5810391E+003  0.1117219E+03  0.7546771E-02  0.1257414E+00
         21   -1    0    0  503  501  0.00000000000E+00  0.00000000000E+00  0.25342962105E+03  0.25342962105E+03  0.00000000000E+00 0.  1.
         21   -1    0    0  504  502 -0.00000000000E+00 -0.00000000000E+00 -0.85709110958E+02  0.85709110958E+02  0.00000000000E+00 0. -1.
         21    1    1    2  503  502  0.10788315740E+03 -0.29034763980E+02 -0.26732812895E+02  0.11487574355E+03  0.00000000000E+00 0. -1.
         21    1    1    2  504  501 -0.10788315740E+03  0.29034763980E+02  0.19445332299E+03  0.22426298846E+03  0.00000000000E+00 0.  1.
<mgrwt>
<rscale>  2 0.11172195E+03</rscale>
<asrwt>0</asrwt>
<pdfrwt beam="1">  1       21 0.38989172E-01 0.11172195E+03</pdfrwt>
<pdfrwt beam="2">  1       21 0.13186017E-01 0.11172195E+03</pdfrwt>
<totfact> 0.31925784E+05</totfact>
</mgrwt>
</event>
<event>
 4    1  0.5810391E+003  0.1294018E+03  0.7546771E-02  0.1228346E+00
         21   -1    0    0  502  501  0.00000000000E+00  0.00000000000E+00  0.99276595727E+02  0.99276595727E+02  0.00000000000E+00 0. -1.
         21   -1    0    0  504  502 -0.00000000000E+00 -0.00000000000E+00 -0.27830931959E+03  0.27830931959E+03  0.00000000000E+00 0.  1.
         21    1    1    2  503  501 -0.13876691264E+02  0.12865558576E+03  0.28980894454E+02  0.13260736990E+03  0.00000000000E+00 0. -1.
         21    1    1    2  504  503  0.13876691264E+02 -0.12865558576E+03 -0.20801361831E+03  0.24497854541E+03  0.00000000000E+00 0.  1.
<mgrwt>
<rscale>  2 0.12940179E+03</rscale>
<asrwt>0</asrwt>
<pdfrwt beam="1">  1       21 0.15273322E-01 0.12940179E+03</pdfrwt>
<pdfrwt beam="2">  1       21 0.42816818E-01 0.12940179E+03</pdfrwt>
<totfact> 0.20262886E+05</totfact>
</mgrwt>
</event>
<event>
 4    1  0.5810391E+003  0.1977889E+03  0.7546771E-02  0.1151618E+00
         21   -1    0    0  503  501  0.00000000000E+00  0.00000000000E+00  0.12447415273E+03  0.12447415273E+03  0.00000000000E+00 0. -1.
         21   -1    0    0  504  502 -0.00000000000E+00 -0.00000000000E+00 -0.53024849681E+03  0.53024849681E+03  0.00000000000E+00 0. -1.
         21    1    1    2  503  502 -0.16313667623E+03 -0.11183406067E+03 -0.41180583170E+03  0.45684184931E+03  0.00000000000E+00 0. -1.
         21    1    1    2  504  501  0.16313667623E+03  0.11183406067E+03  0.60314876196E+01  0.19788080023E+03  0.00000000000E+00 0. -1.
<mgrwt>
<rscale>  2 0.19778886E+03</rscale>
<asrwt>0</asrwt>
<pdfrwt beam="1">  1       21 0.19149870E-01 0.19778886E+03</pdfrwt>
<pdfrwt beam="2">  1       21 0.81576691E-01 0.19778886E+03</pdfrwt>
<totfact> 0.32843907E+04</totfact>
</mgrwt>
</event>
<event>
 4    1  0.5810391E+003  0.1125478E+03  0.7546771E-02  0.1255923E+00
         21   -1    0    0  504  501  0.00000000000E+00  0.00000000000E+00  0.27233325365E+03  0.27233325365E+03  0.00000000000E+00 0.  1.
         21   -1    0    0  503  502 -0.00000000000E+00 -0.00000000000E+00 -0.17365390282E+03  0.17365390282E+03  0.00000000000E+00 0. -1.
         21    1    1    2  503  501 -0.11236360131E+03  0.64358900184E+01 -0.14146673444E+03  0.18077565248E+03  0.00000000000E+00 0. -1.
         21    1    1    2  504  502  0.11236360131E+03 -0.64358900184E+01  0.24014608527E+03  0.26521150399E+03  0.00000000000E+00 0.  1.
<mgrwt>
<rscale>  2 0.11254777E+03</rscale>
<asrwt>0</asrwt>
<pdfrwt beam="1">  1       21 0.41897424E-01 0.11254777E+03</pdfrwt>
<pdfrwt beam="2">  1       21 0.26715985E-01 0.11254777E+03</pdfrwt>
<totfact> 0.75791762E+04</totfact>
</mgrwt>
</event>
<event>
 4    1  0.5810391E+003  0.1028927E+03  0.7546771E-02  0.1274328E+00
         21   -1    0    0  504  501  0.00000000000E+00  0.00000000000E+00  0.23584371664E+03  0.23584371664E+03  0.00000000000E+00 0. -1.
         21   -1    0    0  503  502 -0.00000000000E+00 -0.00000000000E+00 -0.45128022884E+02  0.45128022884E+02  0.00000000000E+00 0. -1.
         21    1    1    2  503  501 -0.22375779713E+02 -0.10043020638E+03  0.10557176697E+03  0.14741879070E+03  0.00000000000E+00 0. -1.
         21    1    1    2  504  502  0.22375779713E+02  0.10043020638E+03  0.85143926783E+02  0.13355294882E+03  0.00000000000E+00 0. -1.
<mgrwt>
<rscale>  2 0.10289267E+03</rscale>
<asrwt>0</asrwt>
<pdfrwt beam="1">  1       21 0.36283648E-01 0.10289267E+03</pdfrwt>
<pdfrwt beam="2">  1       21 0.69427729E-02 0.10289267E+03</pdfrwt>
<totfact> 0.11208159E+06</totfact>
</mgrwt>
</event>
<event>
 4    1  0.5810391E+003  0.1018878E+03  0.7546771E-02  0.1276376E+00
         21   -1    0    0  503  501  0.00000000000E+00  0.00000000000E+00  0.14250832822E+03  0.14250832822E+03  0.00000000000E+00 0. -1.
         21   -1    0    0  504  502 -0.00000000000E+00 -0.00000000000E+00 -0.73085026658E+02  0.73085026658E+02  0.00000000000E+00 0.  1.
         21    1    1    2  503  502  0.25867268369E+02  0.98549529399E+02  0.40879674051E+02  0.10978284505E+03  0.00000000000E+00 0.  1.
         21    1    1    2  504  501 -0.25867268369E+02 -0.98549529399E+02  0.28543627509E+02  0.10581050982E+03  0.00000000000E+00 0. -1.
<mgrwt>
<rscale>  2 0.10188781E+03</rscale>
<asrwt>0</asrwt>
<pdfrwt beam="1">  1       21 0.21924358E-01 0.10188781E+03</pdfrwt>
<pdfrwt beam="2">  1       21 0.11243850E-01 0.10188781E+03</pdfrwt>
<totfact> 0.12730830E+06</totfact>
</mgrwt>
</event>
<event>
 4    1  0.5810391E+003  0.1008821E+03  0.7546771E-02  0.1278452E+00
         21   -1    0    0  503  501  0.00000000000E+00  0.00000000000E+00  0.86416923593E+02  0.86416923593E+02  0.00000000000E+00 0.  1.
         21   -1    0    0  501  502 -0.00000000000E+00 -0.00000000000E+00 -0.31143922848E+03  0.31143922848E+03  0.00000000000E+00 0. -1.
         21    1    1    2  503  504  0.57428539319E+01 -0.10071854618E+03  0.44359329378E+02  0.11020415609E+03  0.00000000000E+00 0.  1.
         21    1    1    2  504  502 -0.57428539319E+01  0.10071854618E+03 -0.26938163427E+03  0.28765199599E+03  0.00000000000E+00 0. -1.
<mgrwt>
<rscale>  2 0.10088214E+03</rscale>
<asrwt>0</asrwt>
<pdfrwt beam="1">  1       21 0.13294911E-01 0.10088214E+03</pdfrwt>
<pdfrwt beam="2">  1       21 0.47913728E-01 0.10088214E+03</pdfrwt>
<totfact> 0.20841520E+05</totfact>
</mgrwt>
</event>
<event>
 4    1  0.5810391E+003  0.1430454E+03  0.7546771E-02  0.1209289E+00
         21   -1    0    0  503  501  0.00000000000E+00  0.00000000000E+00  0.14078936931E+04  0.14078936931E+04  0.00000000000E+00 0. -1.
         21   -1    0    0  504  502 -0.00000000000E+00 -0.00000000000E+00 -0.14901168131E+02  0.14901168131E+02  0.00000000000E+00 0. -1.
         21    1    1    2  503  502 -0.11484772871E+03  0.85275924676E+02  0.58478972702E+03  0.60203073754E+03  0.00000000000E+00 0. -1.
         21    1    1    2  504  501  0.11484772871E+03 -0.85275924676E+02  0.80820279794E+03  0.82076412368E+03  0.00000000000E+00 0. -1.
<mgrwt>
<rscale>  2 0.14304539E+03</rscale>
<asrwt>0</asrwt>
<pdfrwt beam="1">  1       21 0.21659892E+00 0.14304539E+03</pdfrwt>
<pdfrwt beam="2">  1       21 0.22924885E-02 0.14304539E+03</pdfrwt>
<totfact> 0.10734158E+05</totfact>
</mgrwt>
</event>
<event>
 4    1  0.5810391E+003  0.1227996E+03  0.7546771E-02  0.1238549E+00
         21   -1    0    0  503  501  0.00000000000E+00  0.00000000000E+00  0.99457396006E+02  0.99457396006E+02  0.00000000000E+00 0. -1.
         21   -1    0    0  504  502 -0.00000000000E+00 -0.00000000000E+00 -0.27836483543E+04  0.27836483543E+04  0.00000000000E+00 0. -1.
         21    1    1    2  503  502 -0.28525335242E+02  0.11944057076E+03  0.59648374731E+02  0.13651986413E+03  0.00000000000E+00 0. -1.
         21    1    1    2  504  501  0.28525335242E+02 -0.11944057076E+03 -0.27438393331E+04  0.27465858862E+04  0.00000000000E+00 0. -1.
<mgrwt>
<rscale>  2 0.12279961E+03</rscale>
<asrwt>0</asrwt>
<pdfrwt beam="1">  1       21 0.15301137E-01 0.12279961E+03</pdfrwt>
<pdfrwt beam="2">  1       21 0.42825363E+00 0.12279961E+03</pdfrwt>
<totfact> 0.25442419E+02</totfact>
</mgrwt>
</event>
<event>
 4    1  0.5810391E+003  0.1226162E+03  0.7546771E-02  0.1238843E+00
         21   -1    0    0  503  501  0.00000000000E+00  0.00000000000E+00  0.18240225831E+03  0.18240225831E+03  0.00000000000E+00 0.  1.
         21   -1    0    0  504  502 -0.00000000000E+00 -0.00000000000E+00 -0.90779308683E+02  0.90779308683E+02  0.00000000000E+00 0.  1.
         21    1    1    2  503  502 -0.30231812458E+02  0.11883081335E+03  0.87245018135E+02  0.15048726815E+03  0.00000000000E+00 0.  1.
         21    1    1    2  504  501  0.30231812458E+02 -0.11883081335E+03  0.43779314903E+01  0.12269429884E+03  0.00000000000E+00 0.  1.
<mgrwt>
<rscale>  2 0.12261617E+03</rscale>
<asrwt>0</asrwt>
<pdfrwt beam="1">  1       21 0.28061886E-01 0.12261617E+03</pdfrwt>
<pdfrwt beam="2">  1       21 0.13966048E-01 0.12261617E+03</pdfrwt>
<totfact> 0.54585492E+05</totfact>
</mgrwt>
</event>
<event>
 4    1  0.5810391E+003  0.1392971E+03  0.7546771E-02  0.1214278E+00
         21   -1    0    0  503  501  0.00000000000E+00  0.00000000000E+00  0.78454687610E+03  0.78454687610E+03  0.00000000000E+00 0. -1.
         21   -1    0    0  501  502 -0.00000000000E+00 -0.00000000000E+00 -0.13785641619E+04  0.13785641619E+04  0.00000000000E+00 0.  1.
         21    1    1    2  503  504  0.71897944451E+02 -0.11930782008E+03  0.77480106598E+03  0.78722319718E+03  0.00000000000E+00 0. -1.
         21    1    1    2  504  502 -0.71897944451E+02  0.11930782008E+03 -0.13688183518E+04  0.13758878408E+04  0.00000000000E+00 0.  1.
<mgrwt>
<rscale>  2 0.13929706E+03</rscale>
<asrwt>0</asrwt>
<pdfrwt beam="1">  1       21 0.12069952E+00 0.13929706E+03</pdfrwt>
<pdfrwt beam="2">  1       21 0.21208679E+00 0.13929706E+03</pdfrwt>
<totfact> 0.64495167E+01</totfact>
</mgrwt>
</event>
<event>
 4    1  0.5810391E+003  0.1100391E+03  0.7546771E-02  0.1260497E+00
         21   -1    0    0  504  501  0.00000000000E+00  0.00000000000E+00  0.92748466655E+03  0.92748466655E+03  0.00000000000E+00 0.  1.
         21   -1    0    0  503  502 -0.00000000000E+00 -0.00000000000E+00 -0.14084124287E+02  0.14084124287E+02  0.00000000000E+00 0.  1.
         21    1    1    2  503  501  0.24193045295E+02  0.10734667549E+03  0.58394002512E+03  0.59421760754E+03  0.00000000000E+00 0.  1.
         21    1    1    2  504  502 -0.24193045295E+02 -0.10734667549E+03  0.32946051714E+03  0.34735118329E+03  0.00000000000E+00 0.  1.
<mgrwt>
<rscale>  2 0.11003914E+03</rscale>
<asrwt>0</asrwt>
<pdfrwt beam="1">  1       21 0.14268990E+00 0.11003914E+03</pdfrwt>
<pdfrwt beam="2">  1       21 0.21667891E-02 0.11003914E+03</pdfrwt>
<totfact> 0.37704558E+05</totfact>
</mgrwt>
</event>
<event>
 4    1  0.5810391E+003  0.3147236E+03  0.7546771E-02  0.1078104E+00
         21   -1    0    0  502  501  0.00000000000E+00  0.00000000000E+00  0.24429403639E+03  0.24429403639E+03  0.00000000000E+00 0. -1.
         21   -1    0    0  503  502 -0.00000000000E+00 -0.00000000000E+00 -0.64262333905E+03  0.64262333905E+03  0.00000000000E+00 0.  1.
         21    1    1    2  503  504  0.18851546205E+02  0.31415849162E+03 -0.46856655013E+03  0.56445154845E+03  0.00000000000E+00 0.  1.
         21    1    1    2  504  501 -0.18851546205E+02 -0.31415849162E+03  0.70237247469E+02  0.32246582700E+03  0.00000000000E+00 0. -1.
<mgrwt>
<rscale>  2 0.31472359E+03</rscale>
<asrwt>0</asrwt>
<pdfrwt beam="1">  1       21 0.37583698E-01 0.31472359E+03</pdfrwt>
<pdfrwt beam="2">  1       21 0.98865129E-01 0.31472359E+03</pdfrwt>
<totfact> 0.53397813E+03</totfact>
</mgrwt>
</event>
<event>
 4    1  0.5810391E+003  0.1134054E+03  0.7546771E-02  0.1254390E+00
         21   -1    0    0  504  501  0.00000000000E+00  0.00000000000E+00  0.91743573928E+01  0.91743573928E+01  0.00000000000E+00 0. -1.
         21   -1    0    0  501  502 -0.00000000000E+00 -0.00000000000E+00 -0.18492735975E+04  0.18492735975E+04  0.00000000000E+00 0. -1.
         21    1    1    2  503  502 -0.72770413873E+02  0.86978508507E+02 -0.13771315114E+04  0.13817930358E+04  0.00000000000E+00 0. -1.
         21    1    1    2  504  503  0.72770413873E+02 -0.86978508507E+02 -0.46296772872E+03  0.47665491911E+03  0.00000000000E+00 0. -1.
<mgrwt>
<rscale>  2 0.11340544E+03</rscale>
<asrwt>0</asrwt>
<pdfrwt beam="1">  1       21 0.14114388E-02 0.11340544E+03</pdfrwt>
<pdfrwt beam="2">  1       21 0.28450379E+00 0.11340544E+03</pdfrwt>
<totfact> 0.97625297E+04</totfact>
</mgrwt>
</event>
<event>
 4    1  0.5810391E+003  0.1339819E+03  0.7546771E-02  0.1221664E+00
         21   -1    0    0  504  501  0.00000000000E+00  0.00000000000E+00  0.26729326314E+02  0.26729326314E+02  0.00000000000E+00 0.  1.
         21   -1    0    0  503  502 -0.00000000000E+00 -0.00000000000E+00 -0.67871584810E+03  0.67871584810E+03  0.00000000000E+00 0.  1.
         21    1    1    2  503  501 -0.12018141806E+03 -0.59224822011E+02 -0.28985207552E+03  0.31932018175E+03  0.00000000000E+00 0.  1.
         21    1    1    2  504  502  0.12018141806E+03  0.59224822011E+02 -0.36213444627E+03  0.38612499267E+03  0.00000000000E+00 0.  1.
<mgrwt>
<rscale>  2 0.13398191E+03</rscale>
<asrwt>0</asrwt>
<pdfrwt beam="1">  1       21 0.41122043E-02 0.13398191E+03</pdfrwt>
<pdfrwt beam="2">  1       21 0.10441782E+00 0.13398191E+03</pdfrwt>
<totfact> 0.28152168E+05</totfact>
</mgrwt>
</event>
<event>
 4    1  0.5810391E+003  0.1257638E+03  0.7546771E-02  0.1233880E+00
         21   -1    0    0  503  501  0.00000000000E+00  0.00000000000E+00  0.45370174157E+03  0.45370174157E+03  0.00000000000E+00 0. -1.
         21   -1    0    0  501  502 -0.00000000000E+00 -0.00000000000E+00 -0.16210155394E+03  0.16210155394E+03  0.00000000000E+00 0.  1.
         21    1    1    2  503  504 -0.58654568596E+01  0.12562699529E+03  0.41859170748E+03  0.43707615252E+03  0.00000000000E+00 0. -1.
         21    1    1    2  504  502  0.58654568596E+01 -0.12562699529E+03 -0.12699151984E+03  0.17872714299E+03  0.00000000000E+00 0.  1.
<mgrwt>
<rscale>  2 0.12576385E+03</rscale>
<asrwt>0</asrwt>
<pdfrwt beam="1">  1       21 0.69800267E-01 0.12576385E+03</pdfrwt>
<pdfrwt beam="2">  1       21 0.24938701E-01 0.12576385E+03</pdfrwt>
<totfact> 0.29533107E+04</totfact>
</mgrwt>
</event>
<event>
 4    1  0.5810391E+003  0.1625861E+03  0.7546771E-02  0.1185808E+00
         21   -1    0    0  504  501  0.00000000000E+00  0.00000000000E+00  0.81989960575E+02  0.81989960575E+02  0.00000000000E+00 0. -1.
         21   -1    0    0  503  502 -0.00000000000E+00 -0.00000000000E+00 -0.33668042986E+03  0.33668042986E+03  0.00000000000E+00 0.  1.
         21    1    1    2  503  501 -0.89671527342E+02  0.13562169480E+03 -0.84244879981E+02  0.18311588331E+03  0.00000000000E+00 0. -1.
         21    1    1    2  504  502  0.89671527342E+02 -0.13562169480E+03 -0.17044558931E+03  0.23555450713E+03  0.00000000000E+00 0.  1.
<mgrwt>
<rscale>  2 0.16258606E+03</rscale>
<asrwt>0</asrwt>
<pdfrwt beam="1">  1       21 0.12613840E-01 0.16258606E+03</pdfrwt>
<pdfrwt beam="2">  1       21 0.51796989E-01 0.16258606E+03</pdfrwt>
<totfact> 0.19168356E+05</totfact>
</mgrwt>
</event>
<event>
 4    1  0.5810391E+003  0.1072372E+03  0.7546771E-02  0.1265773E+00
         21   -1    0    0  503  501  0.00000000000E+00  0.00000000000E+00  0.38313070781E+03  0.38313070781E+03  0.00000000000E+00 0. -1.
         21   -1    0    0  504  502 -0.00000000000E+00 -0.00000000000E+00 -0.54556409542E+03  0.54556409542E+03  0.00000000000E+00 0.  1.
         21    1    1    2  503  502  0.74890827770E+02 -0.76753993000E+02  0.37017647906E+03  0.38539646752E+03  0.00000000000E+00 0. -1.
         21    1    1    2  504  501 -0.74890827770E+02  0.76753993000E+02 -0.53260986667E+03  0.54329833572E+03  0.00000000000E+00 0.  1.
<mgrwt>
<rscale>  2 0.10723717E+03</rscale>
<asrwt>0</asrwt>
<pdfrwt beam="1">  1       21 0.58943186E-01 0.10723717E+03</pdfrwt>
<pdfrwt beam="2">  1       21 0.83932937E-01 0.10723717E+03</pdfrwt>
<totfact> 0.36236735E+03</totfact>
</mgrwt>
</event>
<event>
 4    1  0.5810391E+003  0.1031596E+03  0.7546771E-02  0.1273789E+00
         21   -1    0    0  503  501  0.00000000000E+00  0.00000000000E+00  0.65134943792E+02  0.65134943792E+02  0.00000000000E+00 0.  1.
         21   -1    0    0  504  502 -0.00000000000E+00 -0.00000000000E+00 -0.23848165623E+03  0.23848165623E+03  0.00000000000E+00 0.  1.
         21    1    1    2  503  502  0.16930573268E+02 -0.10176081184E+03 -0.14839323403E+01  0.10317029220E+03  0.00000000000E+00 0.  1.
         21    1    1    2  504  501 -0.16930573268E+02  0.10176081184E+03 -0.17186278010E+03  0.20044630782E+03  0.00000000000E+00 0.  1.
<mgrwt>
<rscale>  2 0.10315962E+03</rscale>
<asrwt>0</asrwt>
<pdfrwt beam="1">  1       21 0.10020761E-01 0.10315962E+03</pdfrwt>
<pdfrwt beam="2">  1       21 0.36689486E-01 0.10315962E+03</pdfrwt>
<totfact> 0.58361136E+05</totfact>
</mgrwt>
</event>
<event>
 4    1  0.5810391E+003  0.1045015E+03  0.7546771E-02  0.1271105E+00
         21   -1    0    0  503  501  0.00000000000E+00  0.00000000000E+00  0.10593610894E+03  0.10593610894E+03  0.00000000000E+00 0. -1.
         21   -1    0    0  504  502 -0.00000000000E+00 -0.00000000000E+00 -0.14260429105E+03  0.14260429105E+03  0.00000000000E+00 0. -1.
         21    1    1    2  503  502  0.75131254305E+02  0.72635059742E+02  0.47084072609E+02  0.11461879065E+03  0.00000000000E+00 0. -1.
         21    1    1    2  504  501 -0.75131254305E+02 -0.72635059742E+02 -0.83752254715E+02  0.13392160934E+03  0.00000000000E+00 0. -1.
<mgrwt>
<rscale>  2 0.10450147E+03</rscale>
<asrwt>0</asrwt>
<pdfrwt beam="1">  1       21 0.16297863E-01 0.10450147E+03</pdfrwt>
<pdfrwt beam="2">  1       21 0.21939122E-01 0.10450147E+03</pdfrwt>
<totfact> 0.65743782E+05</totfact>
</mgrwt>
</event>
<event>
 4    1  0.5810391E+003  0.1182480E+03  0.7546771E-02  0.1246016E+00
         21   -1    0    0  504  501  0.00000000000E+00  0.00000000000E+00  0.10689481166E+03  0.10689481166E+03  0.00000000000E+00 0. -1.
         21   -1    0    0  503  502 -0.00000000000E+00 -0.00000000000E+00 -0.50285003280E+03  0.50285003280E+03  0.00000000000E+00 0.  1.
         21    1    1    2  503  501  0.97698160365E+02 -0.66615753957E+02  0.64260308575E+02  0.13458074332E+03  0.00000000000E+00 0. -1.
         21    1    1    2  504  502 -0.97698160365E+02  0.66615753957E+02 -0.46021552972E+03  0.47516410114E+03  0.00000000000E+00 0.  1.
<mgrwt>
<rscale>  2 0.11824800E+03</rscale>
<asrwt>0</asrwt>
<pdfrwt beam="1">  1       21 0.16445356E-01 0.11824800E+03</pdfrwt>
<pdfrwt beam="2">  1       21 0.77361542E-01 0.11824800E+03</pdfrwt>
<totfact> 0.51127876E+04</totfact>
</mgrwt>
</event>
<event>
 4    1  0.5810391E+003  0.8415870E+03  0.7546771E-02  0.9501699E-01
         21   -1    0    0  504  501  0.00000000000E+00  0.00000000000E+00  0.13773644398E+04  0.13773644398E+04  0.00000000000E+00 0.  1.
         21   -1    0    0  503  502 -0.00000000000E+00 -0.00000000000E+00 -0.51428260440E+03  0.51428260440E+03  0.00000000000E+00 0.  1.
         21    1    1    2  503  501 -0.10834717118E+03 -0.83458345062E+03  0.44195800827E+03  0.95057641809E+03  0.00000000000E+00 0.  1.
         21    1    1    2  504  502  0.10834717118E+03  0.83458345062E+03  0.42112382712E+03  0.94107062611E+03  0.00000000000E+00 0.  1.
<mgrwt>
<rscale>  2 0.84158698E+03</rscale>
<asrwt>0</asrwt>
<pdfrwt beam="1">  1       21 0.21190222E+00 0.84158698E+03</pdfrwt>
<pdfrwt beam="2">  1       21 0.79120401E-01 0.84158698E+03</pdfrwt>
<totfact> 0.10868048E+02</totfact>
</mgrwt>
</event>
<event>
 4    1  0.5810391E+003  0.1181803E+03  0.7546771E-02  0.1246130E+00
         21   -1    0    0  503  501  0.00000000000E+00  0.00000000000E+00  0.15195650930E+02  0.15195650930E+02  0.00000000000E+00 0.  1.
         21   -1    0    0  504  502 -0.00000000000E+00 -0.00000000000E+00 -0.93605012590E+03  0.93605012590E+03  0.00000000000E+00 0.  1.
         21    1    1    2  503  502 -0.97722807153E+02  0.66459273665E+02 -0.39645656451E+03  0.41369601115E+03  0.00000000000E+00 0.  1.
         21    1    1    2  504  501  0.97722807153E+02 -0.66459273665E+02 -0.52439791046E+03  0.53754976569E+03  0.00000000000E+00 0.  1.
<mgrwt>
<rscale>  2 0.11818029E+03</rscale>
<asrwt>0</asrwt>
<pdfrwt beam="1">  1       21 0.23377924E-02 0.11818029E+03</pdfrwt>
<pdfrwt beam="2">  1       21 0.14400771E+00 0.11818029E+03</pdfrwt>
<totfact> 0.32492650E+05</totfact>
</mgrwt>
</event>
<event>
 4    1  0.5810391E+003  0.1202360E+03  0.7546771E-02  0.1242708E+00
         21   -1    0    0  504  501  0.00000000000E+00  0.00000000000E+00  0.61217671807E+02  0.61217671807E+02  0.00000000000E+00 0.  1.
         21   -1    0    0  503  502 -0.00000000000E+00 -0.00000000000E+00 -0.34739909213E+03  0.34739909213E+03  0.00000000000E+00 0. -1.
         21    1    1    2  503  501 -0.79966728134E+02 -0.89788734549E+02 -0.25870608150E+03  0.28528149443E+03  0.00000000000E+00 0. -1.
         21    1    1    2  504  502  0.79966728134E+02  0.89788734549E+02 -0.27475338825E+02  0.12333526951E+03  0.00000000000E+00 0.  1.
<mgrwt>
<rscale>  2 0.12023599E+03</rscale>
<asrwt>0</asrwt>
<pdfrwt beam="1">  1       21 0.94181034E-02 0.12023599E+03</pdfrwt>
<pdfrwt beam="2">  1       21 0.53446014E-01 0.12023599E+03</pdfrwt>
<totfact> 0.30352276E+05</totfact>
</mgrwt>
</event>
<event>
 4    1  0.5810391E+003  0.1444530E+03  0.7546771E-02  0.1207460E+00
         21   -1    0    0  502  501  0.00000000000E+00  0.00000000000E+00  0.38364941650E+03  0.38364941650E+03  0.00000000000E+00 0. -1.
         21   -1    0    0  503  502 -0.00000000000E+00 -0.00000000000E+00 -0.55485467783E+02  0.55485467783E+02  0.00000000000E+00 0.  1.
         21    1    1    2  503  504 -0.83079951590E+02  0.11817105802E+03  0.13322981335E+03  0.19651173114E+03  0.00000000000E+00 0. -1.
         21    1    1    2  504  501  0.83079951590E+02 -0.11817105802E+03  0.19493413537E+03  0.24262315314E+03  0.00000000000E+00 0.  1.
<mgrwt>
<rscale>  2 0.14445303E+03</rscale>
<asrwt>0</asrwt>
<pdfrwt beam="1">  1       21 0.59022985E-01 0.14445303E+03</pdfrwt>
<pdfrwt beam="2">  1       21 0.85362261E-02 0.14445303E+03</pdfrwt>
<totfact> 0.29089444E+05</totfact>
</mgrwt>
</event>
<event>
 4    1  0.5810391E+003  0.1008256E+03  0.7546771E-02  0.1278569E+00
         21   -1    0    0  503  501  0.00000000000E+00  0.00000000000E+00  0.25346666546E+03  0.25346666546E+03  0.00000000000E+00 0. -1.
         21   -1    0    0  501  502 -0.00000000000E+00 -0.00000000000E+00 -0.63025421991E+02  0.63025421991E+02  0.00000000000E+00 0. -1.
         21    1    1    2  503  504  0.22705247737E+02  0.98235758116E+02  0.19064671690E+03  0.21566632355E+03  0.00000000000E+00 0. -1.
         21    1    1    2  504  502 -0.22705247737E+02 -0.98235758116E+02 -0.20547343189E+00  0.10082576390E+03  0.00000000000E+00 0. -1.
<mgrwt>
<rscale>  2 0.10082555E+03</rscale>
<asrwt>0</asrwt>
<pdfrwt beam="1">  1       21 0.38994871E-01 0.10082555E+03</pdfrwt>
<pdfrwt beam="2">  1       21 0.96962189E-02 0.10082555E+03</pdfrwt>
<totfact> 0.54804243E+05</totfact>
</mgrwt>
</event>
<event>
 4    1  0.5810391E+003  0.1016169E+03  0.7546771E-02  0.1276932E+00
         21   -1    0    0  504  501  0.00000000000E+00  0.00000000000E+00  0.93650976864E+03  0.93650976864E+03  0.00000000000E+00 0.  1.
         21   -1    0    0  503  502 -0.00000000000E+00 -0.00000000000E+00 -0.13464889924E+02  0.13464889924E+02  0.00000000000E+00 0.  1.
         21    1    1    2  503  501 -0.12123531415E+02 -0.10089106353E+03  0.25937238244E+03  0.27856780052E+03  0.00000000000E+00 0.  1.
         21    1    1    2  504  502  0.12123531415E+02  0.10089106353E+03  0.66367249627E+03  0.67140685804E+03  0.00000000000E+00 0.  1.
<mgrwt>
<rscale>  2 0.10161686E+03</rscale>
<asrwt>0</asrwt>
<pdfrwt beam="1">  1       21 0.14407838E+00 0.10161686E+03</pdfrwt>
<pdfrwt beam="2">  1       21 0.20715222E-02 0.10161686E+03</pdfrwt>
<totfact> 0.39652715E+05</totfact>
</mgrwt>
</event>
<event>
 4    1  0.5810391E+003  0.1185157E+03  0.7546771E-02  0.1245566E+00
         21   -1    0    0  502  501  0.00000000000E+00  0.00000000000E+00  0.11906291595E+03  0.11906291595E+03  0.00000000000E+00 0.  1.
         21   -1    0    0  504  502 -0.00000000000E+00 -0.00000000000E+00 -0.51155430527E+03  0.51155430527E+03  0.00000000000E+00 0.  1.
         21    1    1    2  503  501  0.95254376450E+02 -0.70516424539E+02  0.80326384339E+02  0.14317224027E+03  0.00000000000E+00 0.  1.
         21    1    1    2  504  503 -0.95254376450E+02  0.70516424539E+02 -0.47281777366E+03  0.48744498095E+03  0.00000000000E+00 0.  1.
<mgrwt>
<rscale>  2 0.11851566E+03</rscale>
<asrwt>0</asrwt>
<pdfrwt beam="1">  1       21 0.18317372E-01 0.11851566E+03</pdfrwt>
<pdfrwt beam="2">  1       21 0.78700662E-01 0.11851566E+03</pdfrwt>
<totfact> 0.40440600E+04</totfact>
</mgrwt>
</event>
<event>
 4    1  0.5810391E+003  0.1214160E+03  0.7546771E-02  0.1240779E+00
         21   -1    0    0  502  501  0.00000000000E+00  0.00000000000E+00  0.13324822294E+04  0.13324822294E+04  0.00000000000E+00 0. -1.
         21   -1    0    0  504  502 -0.00000000000E+00 -0.00000000000E+00 -0.33882296762E+02  0.33882296762E+02  0.00000000000E+00 0. -1.
         21    1    1    2  503  501  0.12141519234E+03  0.44686787720E+00  0.12099566723E+04  0.12160333044E+04  0.00000000000E+00 0. -1.
         21    1    1    2  504  503 -0.12141519234E+03 -0.44686787720E+00  0.88643260311E+02  0.15033122171E+03  0.00000000000E+00 0. -1.
<mgrwt>
<rscale>  2 0.12141601E+03</rscale>
<asrwt>0</asrwt>
<pdfrwt beam="1">  1       21 0.20499723E+00 0.12141601E+03</pdfrwt>
<pdfrwt beam="2">  1       21 0.52126621E-02 0.12141601E+03</pdfrwt>
<totfact> 0.33131913E+04</totfact>
</mgrwt>
</event>
<event>
 4    1  0.5810391E+003  0.1055073E+03  0.7546771E-02  0.1269123E+00
         21   -1    0    0  502  501  0.00000000000E+00  0.00000000000E+00  0.43219911918E+02  0.43219911918E+02  0.00000000000E+00 0.  1.
         21   -1    0    0  503  502 -0.00000000000E+00 -0.00000000000E+00 -0.30555213453E+03  0.30555213453E+03  0.00000000000E+00 0. -1.
         21    1    1    2  503  504 -0.31235883371E+02 -0.10077749529E+03 -0.20027714728E+03  0.22636854837E+03  0.00000000000E+00 0. -1.
         21    1    1    2  504  501  0.31235883371E+02  0.10077749529E+03 -0.62055075329E+02  0.12240349808E+03  0.00000000000E+00 0.  1.
<mgrwt>
<rscale>  2 0.10550727E+03</rscale>
<asrwt>0</asrwt>
<pdfrwt beam="1">  1       21 0.66492172E-02 0.10550727E+03</pdfrwt>
<pdfrwt beam="2">  1       21 0.47008021E-01 0.10550727E+03</pdfrwt>
<totfact> 0.71950810E+05</totfact>
</mgrwt>
</event>
<event>
 4    1  0.5810391E+003  0.1075170E+03  0.7546771E-02  0.1265238E+00
         21   -1    0    0  504  501  0.00000000000E+00  0.00000000000E+00  0.51903593904E+02  0.51903593904E+02  0.00000000000E+00 0.  1.
         21   -1    0    0  503  502 -0.00000000000E+00 -0.00000000000E+00 -0.22418492057E+03  0.22418492057E+03  0.00000000000E+00 0.  1.
         21    1    1    2  503  501  0.58899133630E+02  0.89948865110E+02 -0.74977182582E+02  0.13107816059E+03  0.00000000000E+00 0.  1.
         21    1    1    2  504  502 -0.58899133630E+02 -0.89948865110E+02 -0.97304144087E+02  0.14501035388E+03  0.00000000000E+00 0.  1.
<mgrwt>
<rscale>  2 0.10751700E+03</rscale>
<asrwt>0</asrwt>
<pdfrwt beam="1">  1       21 0.79851682E-02 0.10751700E+03</pdfrwt>
<pdfrwt beam="2">  1       21 0.34489988E-01 0.10751700E+03</pdfrwt>
<totfact> 0.97532079E+05</totfact>
</mgrwt>
</event>
<event>
 4    1  0.5810391E+003  0.1189148E+03  0.7546771E-02  0.1244898E+00
         21   -1    0    0  503  501  0.00000000000E+00  0.00000000000E+00  0.94961215830E+02  0.94961215830E+02  0.00000000000E+00 0.  1.
         21   -1    0    0  501  502 -0.00000000000E+00 -0.00000000000E+00 -0.29194361495E+03  0.29194361495E+03  0.00000000000E+00 0.  1.
         21    1    1    2  503  504  0.30806232041E+02  0.11485515710E+03  0.36916332198E+02  0.12451323877E+03  0.00000000000E+00 0.  1.
         21    1    1    2  504  502 -0.30806232041E+02 -0.11485515710E+03 -0.23389873132E+03  0.26239159201E+03  0.00000000000E+00 0.  1.
<mgrwt>
<rscale>  2 0.11891481E+03</rscale>
<asrwt>0</asrwt>
<pdfrwt beam="1">  1       21 0.14609418E-01 0.11891481E+03</pdfrwt>
<pdfrwt beam="2">  1       21 0.44914402E-01 0.11891481E+03</pdfrwt>
<totfact> 0.19982956E+05</totfact>
</mgrwt>
</event>
<event>
 4    1  0.5810391E+003  0.1049447E+03  0.7546771E-02  0.1270229E+00
         21   -1    0    0  503  501  0.00000000000E+00  0.00000000000E+00  0.48962204313E+02  0.48962204313E+02  0.00000000000E+00 0. -1.
         21   -1    0    0  501  502 -0.00000000000E+00 -0.00000000000E+00 -0.22493933859E+03  0.22493933859E+03  0.00000000000E+00 0.  1.
         21    1    1    2  503  504 -0.27451974913E+02 -0.10129056401E+03 -0.87506308436E+02  0.13664092835E+03  0.00000000000E+00 0. -1.
         21    1    1    2  504  502  0.27451974913E+02  0.10129056401E+03 -0.88470825841E+02  0.13726061456E+03  0.00000000000E+00 0.  1.
<mgrwt>
<rscale>  2 0.10494470E+03</rscale>
<asrwt>0</asrwt>
<pdfrwt beam="1">  1       21 0.75326468E-02 0.10494470E+03</pdfrwt>
<pdfrwt beam="2">  1       21 0.34606052E-01 0.10494470E+03</pdfrwt>
<totfact> 0.10703480E+06</totfact>
</mgrwt>
</event>
<event>
 4    1  0.5810391E+003  0.1013191E+03  0.7546771E-02  0.1277546E+00
         21   -1    0    0  502  501  0.00000000000E+00  0.00000000000E+00  0.32616514986E+03  0.32616514986E+03  0.00000000000E+00 0. -1.
         21   -1    0    0  503  502 -0.00000000000E+00 -0.00000000000E+00 -0.31972807539E+02  0.31972807539E+02  0.00000000000E+00 0. -1.
         21    1    1    2  503  504 -0.11060384200E+02  0.10071357493E+03  0.12471836755E+03  0.16068673709E+03  0.00000000000E+00 0. -1.
         21    1    1    2  504  501  0.11060384200E+02 -0.10071357493E+03  0.16947397477E+03  0.19745122030E+03  0.00000000000E+00 0. -1.
<mgrwt>
<rscale>  2 0.10131908E+03</rscale>
<asrwt>0</asrwt>
<pdfrwt beam="1">  1       21 0.50179252E-01 0.10131908E+03</pdfrwt>
<pdfrwt beam="2">  1       21 0.49188937E-02 0.10131908E+03</pdfrwt>
<totfact> 0.10451420E+06</totfact>
</mgrwt>
</event>
<event>
 4    1  0.5810391E+003  0.1123946E+03  0.7546771E-02  0.1256199E+00
         21   -1    0    0  504  501  0.00000000000E+00  0.00000000000E+00  0.31623586469E+03  0.31623586469E+03  0.00000000000E+00 0.  1.
         21   -1    0    0  503  502 -0.00000000000E+00 -0.00000000000E+00 -0.24852794057E+03  0.24852794057E+03  0.00000000000E+00 0. -1.
         21    1    1    2  503  501 -0.10703816242E+03 -0.34283922537E+02 -0.22484039205E+03  0.25136777330E+03  0.00000000000E+00 0. -1.
         21    1    1    2  504  502  0.10703816242E+03  0.34283922537E+02  0.29254831616E+03  0.31339603196E+03  0.00000000000E+00 0.  1.
<mgrwt>
<rscale>  2 0.11239464E+03</rscale>
<asrwt>0</asrwt>
<pdfrwt beam="1">  1       21 0.48651672E-01 0.11239464E+03</pdfrwt>
<pdfrwt beam="2">  1       21 0.38235068E-01 0.11239464E+03</pdfrwt>
<totfact> 0.27971346E+04</totfact>
</mgrwt>
</event>
<event>
 4    1  0.5810391E+003  0.1027757E+03  0.7546771E-02  0.1274565E+00
         21   -1    0    0  502  501  0.00000000000E+00  0.00000000000E+00  0.38362976394E+03  0.38362976394E+03  0.00000000000E+00 0.  1.
         21   -1    0    0  504  502 -0.00000000000E+00 -0.00000000000E+00 -0.50967826087E+02  0.50967826087E+02  0.00000000000E+00 0. -1.
         21    1    1    2  503  501 -0.20659688673E+02 -0.10067782269E+03  0.31367455358E+03  0.33008267492E+03  0.00000000000E+00 0.  1.
         21    1    1    2  504  503  0.20659688673E+02  0.10067782269E+03  0.18987384273E+02  0.10451491511E+03  0.00000000000E+00 0. -1.
<mgrwt>
<rscale>  2 0.10277571E+03</rscale>
<asrwt>0</asrwt>
<pdfrwt beam="1">  1       21 0.59019962E-01 0.10277571E+03</pdfrwt>
<pdfrwt beam="2">  1       21 0.78412042E-02 0.10277571E+03</pdfrwt>
<totfact> 0.33943983E+05</totfact>
</mgrwt>
</event>
<event>
 4    1  0.5810391E+003  0.1424970E+03  0.7546771E-02  0.1210008E+00
         21   -1    0    0  504  501  0.00000000000E+00  0.00000000000E+00  0.57284274398E+03  0.57284274398E+03  0.00000000000E+00 0. -1.
         21   -1    0    0  503  502 -0.00000000000E+00 -0.00000000000E+00 -0.35459159892E+02  0.35459159892E+02  0.00000000000E+00 0. -1.
         21    1    1    2  503  501 -0.13213073761E+03 -0.53356084651E+02  0.27438572759E+03  0.30918106523E+03  0.00000000000E+00 0. -1.
         21    1    1    2  504  502  0.13213073761E+03  0.53356084651E+02  0.26299785650E+03  0.29912083864E+03  0.00000000000E+00 0. -1.
<mgrwt>
<rscale>  2 0.14249703E+03</rscale>
<asrwt>0</asrwt>
<pdfrwt beam="1">  1       21 0.88129646E-01 0.14249703E+03</pdfrwt>
<pdfrwt beam="2">  1       21 0.54552558E-02 0.14249703E+03</pdfrwt>
<totfact> 0.25934084E+05</totfact>
</mgrwt>
</event>
<event>
 4    1  0.5810391E+003  0.1110118E+03  0.7546771E-02  0.1258708E+00
         21   -1    0    0  503  501  0.00000000000E+00  0.00000000000E+00  0.44907317581E+02  0.44907317581E+02  0.00000000000E+00 0. -1.
         21   -1    0    0  504  502 -0.00000000000E+00 -0.00000000000E+00 -0.27448029043E+03  0.27448029043E+03  0.00000000000E+00 0. -1.
         21    1    1    2  503  502 -0.10057662708E+03  0.46988965042E+02 -0.11248830581E+03  0.15804189221E+03  0.00000000000E+00 0. -1.
         21    1    1    2  504  501  0.10057662708E+03 -0.46988965042E+02 -0.11708466704E+03  0.16134571579E+03  0.00000000000E+00 0. -1.
<mgrwt>
<rscale>  2 0.11101180E+03</rscale>
<asrwt>0</asrwt>
<pdfrwt beam="1">  1       21 0.69088180E-02 0.11101180E+03</pdfrwt>
<pdfrwt beam="2">  1       21 0.42227738E-01 0.11101180E+03</pdfrwt>
<totfact> 0.83739512E+05</totfact>
</mgrwt>
</event>
<event>
 4    1  0.5810391E+003  0.1054166E+03  0.7546771E-02  0.1269301E+00
         21   -1    0    0  504  501  0.00000000000E+00  0.00000000000E+00  0.42791429432E+03  0.42791429432E+03  0.00000000000E+00 0. -1.
         21   -1    0    0  501  502 -0.00000000000E+00 -0.00000000000E+00 -0.51706979742E+02  0.51706979742E+02  0.00000000000E+00 0.  1.
         21    1    1    2  503  502 -0.10153591399E+02  0.10492644211E+03  0.18912298153E+02  0.10709962042E+03  0.00000000000E+00 0.  1.
         21    1    1    2  504  503  0.10153591399E+02 -0.10492644211E+03  0.35729501643E+03  0.37252165365E+03  0.00000000000E+00 0. -1.
<mgrwt>
<rscale>  2 0.10541657E+03</rscale>
<asrwt>0</asrwt>
<pdfrwt beam="1">  1       21 0.65832966E-01 0.10541657E+03</pdfrwt>
<pdfrwt beam="2">  1       21 0.79549202E-02 0.10541657E+03</pdfrwt>
<totfact> 0.26244832E+05</totfact>
</mgrwt>
</event>
<event>
 4    1  0.5810391E+003  0.1352594E+03  0.7546771E-02  0.1219854E+00
         21   -1    0    0  502  501  0.00000000000E+00  0.00000000000E+00  0.23405023389E+02  0.23405023389E+02  0.00000000000E+00 0. -1.
         21   -1    0    0  504  502 -0.00000000000E+00 -0.00000000000E+00 -0.81333632458E+03  0.81333632458E+03  0.00000000000E+00 0. -1.
         21    1    1    2  503  501  0.12542521982E+03  0.50632097953E+02 -0.31241918753E+03  0.34044212996E+03  0.00000000000E+00 0. -1.
         21    1    1    2  504  503 -0.12542521982E+03 -0.50632097953E+02 -0.47751211366E+03  0.49629921801E+03  0.00000000000E+00 0. -1.
<mgrwt>
<rscale>  2 0.13525936E+03</rscale>
<asrwt>0</asrwt>
<pdfrwt beam="1">  1       21 0.36007732E-02 0.13525936E+03</pdfrwt>
<pdfrwt beam="2">  1       21 0.12512865E+00 0.13525936E+03</pdfrwt>
<totfact> 0.22662949E+05</totfact>
</mgrwt>
</event>
<event>
 4    1  0.5810391E+003  0.1123303E+03  0.7546771E-02  0.1256314E+00
         21   -1    0    0  502  501  0.00000000000E+00  0.00000000000E+00  0.58306470597E+02  0.58306470597E+02  0.00000000000E+00 0. -1.
         21   -1    0    0  504  502 -0.00000000000E+00 -0.00000000000E+00 -0.10971976767E+04  0.10971976767E+04  0.00000000000E+00 0. -1.
         21    1    1    2  503  501 -0.33045024400E+02  0.10735975888E+03 -0.17973673476E+01  0.11234465717E+03  0.00000000000E+00 0. -1.
         21    1    1    2  504  503  0.33045024400E+02 -0.10735975888E+03 -0.10370938387E+04  0.10431594901E+04  0.00000000000E+00 0. -1.
<mgrwt>
<rscale>  2 0.11233028E+03</rscale>
<asrwt>0</asrwt>
<pdfrwt beam="1">  1       21 0.89702259E-02 0.11233028E+03</pdfrwt>
<pdfrwt beam="2">  1       21 0.16879965E+00 0.11233028E+03</pdfrwt>
<totfact> 0.22799418E+04</totfact>
</mgrwt>
</event>
<event>
 4    1  0.5810391E+003  0.1434867E+03  0.7546771E-02  0.1208713E+00
         21   -1    0    0  503  501  0.00000000000E+00  0.00000000000E+00  0.12035341959E+03  0.12035341959E+03  0.00000000000E+00 0.  1.
         21   -1    0    0  504  502 -0.00000000000E+00 -0.00000000000E+00 -0.18745943169E+04  0.18745943169E+04  0.00000000000E+00 0.  1.
         21    1    1    2  503  502 -0.13553345380E+03  0.47107625616E+02 -0.18279933834E+04  0.18336161690E+04  0.00000000000E+00 0.  1.
         21    1    1    2  504  501  0.13553345380E+03 -0.47107625616E+02  0.73752486027E+02  0.16133156754E+03  0.00000000000E+00 0.  1.
<mgrwt>
<rscale>  2 0.14348674E+03</rscale>
<asrwt>0</asrwt>
<pdfrwt beam="1">  1       21 0.18515913E-01 0.14348674E+03</pdfrwt>
<pdfrwt beam="2">  1       21 0.28839909E+00 0.14348674E+03</pdfrwt>
<totfact> 0.11413229E+03</totfact>
</mgrwt>
</event>
<event>
 4    1  0.5810391E+003  0.1101865E+03  0.7546771E-02  0.1260225E+00
         21   -1    0    0  503  501  0.00000000000E+00  0.00000000000E+00  0.17247138808E+03  0.17247138808E+03  0.00000000000E+00 0. -1.
         21   -1    0    0  504  502 -0.00000000000E+00 -0.00000000000E+00 -0.10149956355E+03  0.10149956355E+03  0.00000000000E+00 0.  1.
         21    1    1    2  503  502 -0.29232859604E+02  0.10623800826E+03  0.11131860364E+03  0.15662983751E+03  0.00000000000E+00 0. -1.
         21    1    1    2  504  501  0.29232859604E+02 -0.10623800826E+03 -0.40346779105E+02  0.11734111412E+03  0.00000000000E+00 0.  1.
<mgrwt>
<rscale>  2 0.11018654E+03</rscale>
<asrwt>0</asrwt>
<pdfrwt beam="1">  1       21 0.26534060E-01 0.11018654E+03</pdfrwt>
<pdfrwt beam="2">  1       21 0.15615317E-01 0.11018654E+03</pdfrwt>
<totfact> 0.49730237E+05</totfact>
</mgrwt>
</event>
<event>
 4    1  0.5810391E+003  0.1185389E+03  0.7546771E-02  0.1245527E+00
         21   -1    0    0  504  501  0.00000000000E+00  0.00000000000E+00  0.18893566069E+03  0.18893566069E+03  0.00000000000E+00 0. -1.
         21   -1    0    0  501  502 -0.00000000000E+00 -0.00000000000E+00 -0.16501656786E+03  0.16501656786E+03  0.00000000000E+00 0. -1.
         21    1    1    2  503  502  0.44926835714E+02  0.10969529512E+03 -0.11920677460E+03  0.16811226443E+03  0.00000000000E+00 0. -1.
         21    1    1    2  504  503 -0.44926835714E+02 -0.10969529512E+03  0.14312586743E+03  0.18583996413E+03  0.00000000000E+00 0. -1.
<mgrwt>
<rscale>  2 0.11853893E+03</rscale>
<asrwt>0</asrwt>
<pdfrwt beam="1">  1       21 0.29067025E-01 0.11853893E+03</pdfrwt>
<pdfrwt beam="2">  1       21 0.25387164E-01 0.11853893E+03</pdfrwt>
<totfact> 0.17040911E+05</totfact>
</mgrwt>
</event>
<event>
 4    1  0.5810391E+003  0.1062593E+03  0.7546771E-02  0.1267658E+00
         21   -1    0    0  503  501  0.00000000000E+00  0.00000000000E+00  0.52063530552E+02  0.52063530552E+02  0.00000000000E+00 0. -1.
         21   -1    0    0  504  502 -0.00000000000E+00 -0.00000000000E+00 -0.21697770474E+03  0.21697770474E+03  0.00000000000E+00 0. -1.
         21    1    1    2  503  502 -0.24164221910E+02  0.10347526203E+03 -0.79465783324E+02  0.13268703853E+03  0.00000000000E+00 0. -1.
         21    1    1    2  504  501  0.24164221910E+02 -0.10347526203E+03 -0.85448390861E+02  0.13635419676E+03  0.00000000000E+00 0. -1.
<mgrwt>
<rscale>  2 0.10625930E+03</rscale>
<asrwt>0</asrwt>
<pdfrwt beam="1">  1       21 0.80097738E-02 0.10625930E+03</pdfrwt>
<pdfrwt beam="2">  1       21 0.33381186E-01 0.10625930E+03</pdfrwt>
<totfact> 0.10337306E+06</totfact>
</mgrwt>
</event>
<event>
 4    1  0.5810391E+003  0.1883888E+03  0.7546771E-02  0.1159923E+00
         21   -1    0    0  504  501  0.00000000000E+00  0.00000000000E+00  0.72246283523E+02  0.72246283523E+02  0.00000000000E+00 0.  1.
         21   -1    0    0  503  502 -0.00000000000E+00 -0.00000000000E+00 -0.56807881098E+03  0.56807881098E+03  0.00000000000E+00 0.  1.
         21    1    1    2  503  501 -0.10575322537E+03 -0.15590569991E+03 -0.13016816479E+03  0.22898489702E+03  0.00000000000E+00 0.  1.
         21    1    1    2  504  502  0.10575322537E+03  0.15590569991E+03 -0.36566436267E+03  0.41134019749E+03  0.00000000000E+00 0.  1.
<mgrwt>
<rscale>  2 0.18838878E+03</rscale>
<asrwt>0</asrwt>
<pdfrwt beam="1">  1       21 0.11114813E-01 0.18838878E+03</pdfrwt>
<pdfrwt beam="2">  1       21 0.87396741E-01 0.18838878E+03</pdfrwt>
<totfact> 0.75775958E+04</totfact>
</mgrwt>
</event>
<event>
 4    1  0.5810391E+003  0.1659978E+03  0.7546771E-02  0.1182087E+00
         21   -1    0    0  504  501  0.00000000000E+00  0.00000000000E+00  0.10679029777E+04  0.10679029777E+04  0.00000000000E+00 0.  1.
         21   -1    0    0  503  502 -0.00000000000E+00 -0.00000000000E+00 -0.34590687893E+02  0.34590687893E+02  0.00000000000E+00 0.  1.
         21    1    1    2  503  501 -0.11914683365E+03 -0.11558238370E+03  0.79449964192E+03  0.81165567601E+03  0.00000000000E+00 0.  1.
         21    1    1    2  504  502  0.11914683365E+03  0.11558238370E+03  0.23881264785E+03  0.29083798954E+03  0.00000000000E+00 0.  1.
<mgrwt>
<rscale>  2 0.16599776E+03</rscale>
<asrwt>0</asrwt>
<pdfrwt beam="1">  1       21 0.16429274E+00 0.16599776E+03</pdfrwt>
<pdfrwt beam="2">  1       21 0.53216451E-02 0.16599776E+03</pdfrwt>
<totfact> 0.57580926E+04</totfact>
</mgrwt>
</event>
<event>
 4    1  0.5810391E+003  0.1051013E+03  0.7546771E-02  0.1269920E+00
         21   -1    0    0  504  501  0.00000000000E+00  0.00000000000E+00  0.88610770099E+02  0.88610770099E+02  0.00000000000E+00 0. -1.
         21   -1    0    0  503  502 -0.00000000000E+00 -0.00000000000E+00 -0.13160263089E+03  0.13160263089E+03  0.00000000000E+00 0. -1.
         21    1    1    2  503  501  0.16086343674E+02  0.10386295136E+03 -0.46784293951E+02  0.11504370160E+03  0.00000000000E+00 0. -1.
         21    1    1    2  504  502 -0.16086343674E+02 -0.10386295136E+03  0.37924331653E+01  0.10516969938E+03  0.00000000000E+00 0. -1.
<mgrwt>
<rscale>  2 0.10510130E+03</rscale>
<asrwt>0</asrwt>
<pdfrwt beam="1">  1       21 0.13632426E-01 0.10510130E+03</pdfrwt>
<pdfrwt beam="2">  1       21 0.20246558E-01 0.10510130E+03</pdfrwt>
<totfact> 0.10502326E+06</totfact>
</mgrwt>
</event>
<event>
 4    1  0.5810391E+003  0.1201898E+03  0.7546771E-02  0.1242784E+00
         21   -1    0    0  503  501  0.00000000000E+00  0.00000000000E+00  0.36549235724E+03  0.36549235724E+03  0.00000000000E+00 0. -1.
         21   -1    0    0  504  502 -0.00000000000E+00 -0.00000000000E+00 -0.96985379856E+02  0.96985379856E+02  0.00000000000E+00 0. -1.
         21    1    1    2  503  502  0.40639298620E+02  0.11311072571E+03 -0.43737116890E+02  0.12790044666E+03  0.00000000000E+00 0. -1.
         21    1    1    2  504  501 -0.40639298620E+02 -0.11311072571E+03  0.31224409427E+03  0.33457729043E+03  0.00000000000E+00 0. -1.
<mgrwt>
<rscale>  2 0.12018980E+03</rscale>
<asrwt>0</asrwt>
<pdfrwt beam="1">  1       21 0.56229593E-01 0.12018980E+03</pdfrwt>
<pdfrwt beam="2">  1       21 0.14920828E-01 0.12018980E+03</pdfrwt>
<totfact> 0.12104422E+05</totfact>
</mgrwt>
</event>
<event>
 4    1  0.5810391E+003  0.1242867E+03  0.7546771E-02  0.1236188E+00
         21   -1    0    0  502  501  0.00000000000E+00  0.00000000000E+00  0.88110429800E+03  0.88110429800E+03  0.00000000000E+00 0.  1.
         21   -1    0    0  503  502 -0.00000000000E+00 -0.00000000000E+00 -0.17823915741E+02  0.17823915741E+02  0.00000000000E+00 0.  1.
         21    1    1    2  503  504 -0.59710521633E+02 -0.10900388706E+03  0.48919715903E+03  0.50473859986E+03  0.00000000000E+00 0.  1.
         21    1    1    2  504  501  0.59710521633E+02  0.10900388706E+03  0.37408322323E+03  0.39418961388E+03  0.00000000000E+00 0.  1.
<mgrwt>
<rscale>  2 0.12428674E+03</rscale>
<asrwt>0</asrwt>
<pdfrwt beam="1">  1       21 0.13555447E+00 0.12428674E+03</pdfrwt>
<pdfrwt beam="2">  1       21 0.27421416E-02 0.12428674E+03</pdfrwt>
<totfact> 0.29163727E+05</totfact>
</mgrwt>
</event>
<event>
 4    1  0.5810391E+003  0.1163262E+03  0.7546771E-02  0.1249284E+00
         21   -1    0    0  503  501  0.00000000000E+00  0.00000000000E+00  0.31227549935E+03  0.31227549935E+03  0.00000000000E+00 0.  1.
         21   -1    0    0  504  502 -0.00000000000E+00 -0.00000000000E+00 -0.13821184780E+03  0.13821184780E+03  0.00000000000E+00 0.  1.
         21    1    1    2  503  502 -0.72270152466E+02 -0.91152640093E+02 -0.99591133954E+02  0.15313449218E+03  0.00000000000E+00 0.  1.
         21    1    1    2  504  501  0.72270152466E+02  0.91152640093E+02  0.27365478550E+03  0.29735285497E+03  0.00000000000E+00 0.  1.
<mgrwt>
<rscale>  2 0.11632617E+03</rscale>
<asrwt>0</asrwt>
<pdfrwt beam="1">  1       21 0.48042384E-01 0.11632617E+03</pdfrwt>
<pdfrwt beam="2">  1       21 0.21263361E-01 0.11632617E+03</pdfrwt>
<totfact> 0.87968872E+04</totfact>
</mgrwt>
</event>
<event>
 4    1  0.5810391E+003  0.1350567E+03  0.7546771E-02  0.1220140E+00
         21   -1    0    0  504  501  0.00000000000E+00  0.00000000000E+00  0.15104094950E+03  0.15104094950E+03  0.00000000000E+00 0.  1.
         21   -1    0    0  501  502 -0.00000000000E+00 -0.00000000000E+00 -0.18264470689E+03  0.18264470689E+03  0.00000000000E+00 0. -1.
         21    1    1    2  503  502  0.67970633128E+02 -0.11670601079E+03 -0.11291587969E+03  0.17604060841E+03  0.00000000000E+00 0. -1.
         21    1    1    2  504  503 -0.67970633128E+02  0.11670601079E+03  0.81312122302E+02  0.15764504799E+03  0.00000000000E+00 0.  1.
<mgrwt>
<rscale>  2 0.13505665E+03</rscale>
<asrwt>0</asrwt>
<pdfrwt beam="1">  1       21 0.23237069E-01 0.13505665E+03</pdfrwt>
<pdfrwt beam="2">  1       21 0.28099185E-01 0.13505665E+03</pdfrwt>
<totfact> 0.21385300E+05</totfact>
</mgrwt>
</event>
<event>
 4    1  0.5810391E+003  0.1000491E+03  0.7546771E-02  0.1280193E+00
         21   -1    0    0  504  501  0.00000000000E+00  0.00000000000E+00  0.25608783507E+03  0.25608783507E+03  0.00000000000E+00 0.  1.
         21   -1    0    0  503  502 -0.00000000000E+00 -0.00000000000E+00 -0.40463780277E+02  0.40463780277E+02  0.00000000000E+00 0.  1.
         21    1    1    2  503  501 -0.52303821496E+02 -0.85288557503E+02  0.80466022680E+02  0.12839240083E+03  0.00000000000E+00 0.  1.
         21    1    1    2  504  502  0.52303821496E+02  0.85288557503E+02  0.13515803212E+03  0.16815921452E+03  0.00000000000E+00 0.  1.
<mgrwt>
<rscale>  2 0.10004913E+03</rscale>
<asrwt>0</asrwt>
<pdfrwt beam="1">  1       21 0.39398127E-01 0.10004913E+03</pdfrwt>
<pdfrwt beam="2">  1       21 0.62251971E-02 0.10004913E+03</pdfrwt>
<totfact> 0.11458386E+06</totfact>
</mgrwt>
</event>
<event>
 4    1  0.5810391E+003  0.1291356E+03  0.7546771E-02  0.1228744E+00
         21   -1    0    0  504  501  0.00000000000E+00  0.00000000000E+00  0.56889518088E+02  0.56889518088E+02  0.00000000000E+00 0. -1.
         21   -1    0    0  503  502 -0.00000000000E+00 -0.00000000000E+00 -0.31817899880E+03  0.31817899880E+03  0.00000000000E+00 0. -1.
         21    1    1    2  503  501  0.69413431054E+02 -0.10889339559E+03 -0.18326395683E+03  0.22419115480E+03  0.00000000000E+00 0. -1.
         21    1    1    2  504  502 -0.69413431054E+02  0.10889339559E+03 -0.78025523876E+02  0.15087736209E+03  0.00000000000E+00 0. -1.
<mgrwt>
<rscale>  2 0.12913557E+03</rscale>
<asrwt>0</asrwt>
<pdfrwt beam="1">  1       21 0.87522335E-02 0.12913557E+03</pdfrwt>
<pdfrwt beam="2">  1       21 0.48950616E-01 0.12913557E+03</pdfrwt>
<totfact> 0.41286702E+05</totfact>
</mgrwt>
</event>
<event>
 4    1  0.5810391E+003  0.1056595E+03  0.7546771E-02  0.1268826E+00
         21   -1    0    0  503  501  0.00000000000E+00  0.00000000000E+00  0.22076560372E+03  0.22076560372E+03  0.00000000000E+00 0.  1.
         21   -1    0    0  504  502 -0.00000000000E+00 -0.00000000000E+00 -0.95959792614E+02  0.95959792614E+02  0.00000000000E+00 0. -1.
         21    1    1    2  503  502  0.27400236912E+02  0.10204484073E+03  0.17131887142E+03  0.20128109252E+03  0.00000000000E+00 0.  1.
         21    1    1    2  504  501 -0.27400236912E+02 -0.10204484073E+03 -0.46513060317E+02  0.11544430381E+03  0.00000000000E+00 0. -1.
<mgrwt>
<rscale>  2 0.10565946E+03</rscale>
<asrwt>0</asrwt>
<pdfrwt beam="1">  1       21 0.33963939E-01 0.10565946E+03</pdfrwt>
<pdfrwt beam="2">  1       21 0.14763045E-01 0.10565946E+03</pdfrwt>
<totfact> 0.34255804E+05</totfact>
</mgrwt>
</event>
<event>
 4    1  0.5810391E+003  0.1077709E+03  0.7546771E-02  0.1264754E+00
         21   -1    0    0  503  501  0.00000000000E+00  0.00000000000E+00  0.63602717163E+02  0.63602717163E+02  0.00000000000E+00 0.  1.
         21   -1    0    0  504  502 -0.00000000000E+00 -0.00000000000E+00 -0.29284607057E+03  0.29284607057E+03  0.00000000000E+00 0.  1.
         21    1    1    2  503  502  0.80532568065E+02  0.71617485628E+02 -0.22396877070E+03  0.24854892680E+03  0.00000000000E+00 0.  1.
         21    1    1    2  504  501 -0.80532568065E+02 -0.71617485628E+02 -0.52745827137E+01  0.10789986093E+03  0.00000000000E+00 0.  1.
<mgrwt>
<rscale>  2 0.10777086E+03</rscale>
<asrwt>0</asrwt>
<pdfrwt beam="1">  1       21 0.97850334E-02 0.10777086E+03</pdfrwt>
<pdfrwt beam="2">  1       21 0.45053242E-01 0.10777086E+03</pdfrwt>
<totfact> 0.40393303E+05</totfact>
</mgrwt>
</event>
<event>
 4    1  0.5810391E+003  0.1358572E+03  0.7546771E-02  0.1219015E+00
         21   -1    0    0  503  501  0.00000000000E+00  0.00000000000E+00  0.25655349649E+03  0.25655349649E+03  0.00000000000E+00 0. -1.
         21   -1    0    0  504  502 -0.00000000000E+00 -0.00000000000E+00 -0.17910899019E+03  0.17910899019E+03  0.00000000000E+00 0.  1.
         21    1    1    2  503  502 -0.13404540059E+03 -0.22113615330E+02 -0.12977403488E+03  0.18787890124E+03  0.00000000000E+00 0.  1.
         21    1    1    2  504  501  0.13404540059E+03  0.22113615330E+02  0.20721854118E+03  0.24778358543E+03  0.00000000000E+00 0. -1.
<mgrwt>
<rscale>  2 0.13585721E+03</rscale>
<asrwt>0</asrwt>
<pdfrwt beam="1">  1       21 0.39469769E-01 0.13585721E+03</pdfrwt>
<pdfrwt beam="2">  1       21 0.27555229E-01 0.13585721E+03</pdfrwt>
<totfact> 0.79636534E+04</totfact>
</mgrwt>
</event>
<event>
 4    1  0.5810391E+003  0.2953094E+03  0.7546771E-02  0.1087609E+00
         21   -1    0    0  503  501  0.00000000000E+00  0.00000000000E+00  0.68988623861E+03  0.68988623861E+03  0.00000000000E+00 0. -1.
         21   -1    0    0  501  502 -0.00000000000E+00 -0.00000000000E+00 -0.15254216204E+03  0.15254216204E+03  0.00000000000E+00 0. -1.
         21    1    1    2  503  504  0.27588804254E+03 -0.10532539684E+03  0.44301570814E+03  0.53241954218E+03  0.00000000000E+00 0. -1.
         21    1    1    2  504  502 -0.27588804254E+03  0.10532539684E+03  0.94328368431E+02  0.31000885847E+03  0.00000000000E+00 0. -1.
<mgrwt>
<rscale>  2 0.29530942E+03</rscale>
<asrwt>0</asrwt>
<pdfrwt beam="1">  1       21 0.10613634E+00 0.29530942E+03</pdfrwt>
<pdfrwt beam="2">  1       21 0.23468025E-01 0.29530942E+03</pdfrwt>
<totfact> 0.11469271E+04</totfact>
</mgrwt>
</event>
<event>
 4    1  0.5810391E+003  0.1018184E+03  0.7546771E-02  0.1276518E+00
         21   -1    0    0  504  501  0.00000000000E+00  0.00000000000E+00  0.97174742722E+03  0.97174742722E+03  0.00000000000E+00 0.  1.
         21   -1    0    0  501  502 -0.00000000000E+00 -0.00000000000E+00 -0.14212697175E+02  0.14212697175E+02  0.00000000000E+00 0.  1.
         21    1    1    2  503  502 -0.13153363100E+02  0.10096523821E+03  0.23258543847E+03  0.25389560153E+03  0.00000000000E+00 0.  1.
         21    1    1    2  504  503  0.13153363100E+02 -0.10096523821E+03  0.72494929158E+03  0.73206452287E+03  0.00000000000E+00 0.  1.
<mgrwt>
<rscale>  2 0.10181842E+03</rscale>
<asrwt>0</asrwt>
<pdfrwt beam="1">  1       21 0.14949955E+00 0.10181842E+03</pdfrwt>
<pdfrwt beam="2">  1       21 0.21865696E-02 0.10181842E+03</pdfrwt>
<totfact> 0.33083299E+05</totfact>
</mgrwt>
</event>
<event>
 4    1  0.5810391E+003  0.1039532E+03  0.7546771E-02  0.1272196E+00
         21   -1    0    0  502  501  0.00000000000E+00  0.00000000000E+00  0.10484952350E+03  0.10484952350E+03  0.00000000000E+00 0.  1.
         21   -1    0    0  503  502 -0.00000000000E+00 -0.00000000000E+00 -0.14538483179E+03  0.14538483179E+03  0.00000000000E+00 0.  1.
         21    1    1    2  503  504 -0.32664225797E+02 -0.98687964959E+02 -0.87772011395E+02  0.13605216668E+03  0.00000000000E+00 0.  1.
         21    1    1    2  504  501  0.32664225797E+02  0.98687964959E+02  0.47236703104E+02  0.11418218861E+03  0.00000000000E+00 0.  1.
<mgrwt>
<rscale>  2 0.10395319E+03</rscale>
<asrwt>0</asrwt>
<pdfrwt beam="1">  1       21 0.16130696E-01 0.10395319E+03</pdfrwt>
<pdfrwt beam="2">  1       21 0.22366897E-01 0.10395319E+03</pdfrwt>
<totfact> 0.64618228E+05</totfact>
</mgrwt>
</event>
<event>
 4    1  0.5810391E+003  0.1457961E+03  0.7546771E-02  0.1205736E+00
         21   -1    0    0  503  501  0.00000000000E+00  0.00000000000E+00  0.23791089435E+02  0.23791089435E+02  0.00000000000E+00 0.  1.
         21   -1    0    0  504  502 -0.00000000000E+00 -0.00000000000E+00 -0.91582795412E+03  0.91582795412E+03  0.00000000000E+00 0.  1.
         21    1    1    2  503  502 -0.13699852046E+03  0.49878863225E+02 -0.51943322599E+03  0.53950660040E+03  0.00000000000E+00 0.  1.
         21    1    1    2  504  501  0.13699852046E+03 -0.49878863225E+02 -0.37260363869E+03  0.40011244316E+03  0.00000000000E+00 0.  1.
<mgrwt>
<rscale>  2 0.14579608E+03</rscale>
<asrwt>0</asrwt>
<pdfrwt beam="1">  1       21 0.36601680E-02 0.14579608E+03</pdfrwt>
<pdfrwt beam="2">  1       21 0.14089659E+00 0.14579608E+03</pdfrwt>
<totfact> 0.16310770E+05</totfact>
</mgrwt>
</event>
<event>
 4    1  0.5810391E+003  0.1412764E+03  0.7546771E-02  0.1211622E+00
         21   -1    0    0  503  501  0.00000000000E+00  0.00000000000E+00  0.42858614001E+02  0.42858614001E+02  0.00000000000E+00 0. -1.
         21   -1    0    0  504  502 -0.00000000000E+00 -0.00000000000E+00 -0.52231857452E+03  0.52231857452E+03  0.00000000000E+00 0.  1.
         21    1    1    2  503  502  0.13531340203E+03 -0.40611592378E+02 -0.14668612734E+03  0.20365617633E+03  0.00000000000E+00 0. -1.
         21    1    1    2  504  501 -0.13531340203E+03  0.40611592378E+02 -0.33277383319E+03  0.36152101220E+03  0.00000000000E+00 0.  1.
<mgrwt>
<rscale>  2 0.14127639E+03</rscale>
<asrwt>0</asrwt>
<pdfrwt beam="1">  1       21 0.65936331E-02 0.14127639E+03</pdfrwt>
<pdfrwt beam="2">  1       21 0.80356702E-01 0.14127639E+03</pdfrwt>
<totfact> 0.23165397E+05</totfact>
</mgrwt>
</event>
<event>
 4    1  0.5810391E+003  0.1336991E+03  0.7546771E-02  0.1222068E+00
         21   -1    0    0  502  501  0.00000000000E+00  0.00000000000E+00  0.21507224220E+03  0.21507224220E+03  0.00000000000E+00 0.  1.
         21   -1    0    0  504  502 -0.00000000000E+00 -0.00000000000E+00 -0.48221707486E+03  0.48221707486E+03  0.00000000000E+00 0. -1.
         21    1    1    2  503  501 -0.12273804320E+03 -0.53017083788E+02  0.18360660352E+03  0.22712732834E+03  0.00000000000E+00 0.  1.
         21    1    1    2  504  503  0.12273804320E+03  0.53017083788E+02 -0.45075143618E+03  0.47016198872E+03  0.00000000000E+00 0. -1.
<mgrwt>
<rscale>  2 0.13369906E+03</rscale>
<asrwt>0</asrwt>
<pdfrwt beam="1">  1       21 0.33088038E-01 0.13369906E+03</pdfrwt>
<pdfrwt beam="2">  1       21 0.74187242E-01 0.13369906E+03</pdfrwt>
<totfact> 0.14928082E+04</totfact>
</mgrwt>
</event>
<event>
 4    1  0.5810391E+003  0.1171204E+03  0.7546771E-02  0.1247925E+00
         21   -1    0    0  502  501  0.00000000000E+00  0.00000000000E+00  0.57926722857E+02  0.57926722857E+02  0.00000000000E+00 0. -1.
         21   -1    0    0  504  502 -0.00000000000E+00 -0.00000000000E+00 -0.68110789105E+03  0.68110789105E+03  0.00000000000E+00 0. -1.
         21    1    1    2  503  501 -0.31771968706E+02 -0.11272857629E+03 -0.13143291213E+02  0.11785557268E+03  0.00000000000E+00 0. -1.
         21    1    1    2  504  503  0.31771968706E+02  0.11272857629E+03 -0.61003787698E+03  0.62117904122E+03  0.00000000000E+00 0. -1.
<mgrwt>
<rscale>  2 0.11712041E+03</rscale>
<asrwt>0</asrwt>
<pdfrwt beam="1">  1       21 0.89118032E-02 0.11712041E+03</pdfrwt>
<pdfrwt beam="2">  1       21 0.10478583E+00 0.11712041E+03</pdfrwt>
<totfact> 0.75687725E+04</totfact>
</mgrwt>
</event>
<event>
 4    1  0.5810391E+003  0.1420141E+03  0.7546771E-02  0.1210644E+00
         21   -1    0    0  504  501  0.00000000000E+00  0.00000000000E+00  0.13912898056E+03  0.13912898056E+03  0.00000000000E+00 0.  1.
         21   -1    0    0  503  502 -0.00000000000E+00 -0.00000000000E+00 -0.15189270880E+03  0.15189270880E+03  0.00000000000E+00 0.  1.
         21    1    1    2  503  501 -0.10445744976E+03 -0.96211412161E+02  0.24707399081E+02  0.14414732120E+03  0.00000000000E+00 0.  1.
         21    1    1    2  504  502  0.10445744976E+03  0.96211412161E+02 -0.37471127320E+02  0.14687436816E+03  0.00000000000E+00 0.  1.
<mgrwt>
<rscale>  2 0.14201406E+03</rscale>
<asrwt>0</asrwt>
<pdfrwt beam="1">  1       21 0.21404459E-01 0.14201406E+03</pdfrwt>
<pdfrwt beam="2">  1       21 0.23368109E-01 0.14201406E+03</pdfrwt>
<totfact> 0.35343319E+05</totfact>
</mgrwt>
</event>
<event>
 4    1  0.5810391E+003  0.1071450E+03  0.7546771E-02  0.1265950E+00
         21   -1    0    0  502  501  0.00000000000E+00  0.00000000000E+00  0.12583032239E+04  0.12583032239E+04  0.00000000000E+00 0. -1.
         21   -1    0    0  503  502 -0.00000000000E+00 -0.00000000000E+00 -0.98987860783E+01  0.98987860783E+01  0.00000000000E+00 0.  1.
         21    1    1    2  503  504 -0.85889345835E+02  0.64055218486E+02  0.44673588148E+03  0.45940504845E+03  0.00000000000E+00 0.  1.
         21    1    1    2  504  501  0.85889345835E+02 -0.64055218486E+02  0.80166855631E+03  0.80879696149E+03  0.00000000000E+00 0. -1.
<mgrwt>
<rscale>  2 0.10714500E+03</rscale>
<asrwt>0</asrwt>
<pdfrwt beam="1">  1       21 0.19358498E+00 0.10714500E+03</pdfrwt>
<pdfrwt beam="2">  1       21 0.15228912E-02 0.10714500E+03</pdfrwt>
<totfact> 0.29431164E+05</totfact>
</mgrwt>
</event>
<event>
 4    1  0.5810391E+003  0.1239798E+03  0.7546771E-02  0.1236672E+00
         21   -1    0    0  503  501  0.00000000000E+00  0.00000000000E+00  0.16280694999E+03  0.16280694999E+03  0.00000000000E+00 0. -1.
         21   -1    0    0  504  502 -0.00000000000E+00 -0.00000000000E+00 -0.14066608177E+03  0.14066608177E+03  0.00000000000E+00 0. -1.
         21    1    1    2  503  502  0.38469556299E+02  0.11786042158E+03  0.98080366342E+02  0.15808461025E+03  0.00000000000E+00 0. -1.
         21    1    1    2  504  501 -0.38469556299E+02 -0.11786042158E+03 -0.75939498124E+02  0.14538842152E+03  0.00000000000E+00 0. -1.
<mgrwt>
<rscale>  2 0.12397978E+03</rscale>
<asrwt>0</asrwt>
<pdfrwt beam="1">  1       21 0.25047223E-01 0.12397978E+03</pdfrwt>
<pdfrwt beam="2">  1       21 0.21640936E-01 0.12397978E+03</pdfrwt>
<totfact> 0.30469749E+05</totfact>
</mgrwt>
</event>
<event>
 4    1  0.5810391E+003  0.1863389E+03  0.7546771E-02  0.1161805E+00
         21   -1    0    0  503  501  0.00000000000E+00  0.00000000000E+00  0.27815863200E+03  0.27815863200E+03  0.00000000000E+00 0.  1.
         21   -1    0    0  501  502 -0.00000000000E+00 -0.00000000000E+00 -0.13032080327E+03  0.13032080327E+03  0.00000000000E+00 0.  1.
         21    1    1    2  503  504  0.52598637260E+02  0.17876123325E+03  0.11584657014E+03  0.21941427248E+03  0.00000000000E+00 0.  1.
         21    1    1    2  504  502 -0.52598637260E+02 -0.17876123325E+03  0.31991258583E+02  0.18906516278E+03  0.00000000000E+00 0.  1.
<mgrwt>
<rscale>  2 0.18633893E+03</rscale>
<asrwt>0</asrwt>
<pdfrwt beam="1">  1       21 0.42793636E-01 0.18633893E+03</pdfrwt>
<pdfrwt beam="2">  1       21 0.20049354E-01 0.18633893E+03</pdfrwt>
<totfact> 0.12094571E+05</totfact>
</mgrwt>
</event>
<event>
 4    1  0.5810391E+003  0.1179952E+03  0.7546771E-02  0.1246441E+00
         21   -1    0    0  504  501  0.00000000000E+00  0.00000000000E+00  0.22115239092E+02  0.22115239092E+02  0.00000000000E+00 0. -1.
         21   -1    0    0  503  502 -0.00000000000E+00 -0.00000000000E+00 -0.12557452989E+04  0.12557452989E+04  0.00000000000E+00 0.  1.
         21    1    1    2  503  501 -0.11599944672E+03 -0.21610049704E+02 -0.16563052149E+03  0.20336257162E+03  0.00000000000E+00 0. -1.
         21    1    1    2  504  502  0.11599944672E+03  0.21610049704E+02 -0.10679995383E+04  0.10744979663E+04  0.00000000000E+00 0.  1.
<mgrwt>
<rscale>  2 0.11799519E+03</rscale>
<asrwt>0</asrwt>
<pdfrwt beam="1">  1       21 0.34023439E-02 0.11799519E+03</pdfrwt>
<pdfrwt beam="2">  1       21 0.19319162E+00 0.11799519E+03</pdfrwt>
<totfact> 0.80111975E+04</totfact>
</mgrwt>
</event>
<event>
 4    1  0.5810391E+003  0.1055090E+03  0.7546771E-02  0.1269120E+00
         21   -1    0    0  503  501  0.00000000000E+00  0.00000000000E+00  0.24588547677E+03  0.24588547677E+03  0.00000000000E+00 0.  1.
         21   -1    0    0  501  502 -0.00000000000E+00 -0.00000000000E+00 -0.49424505820E+02  0.49424505820E+02  0.00000000000E+00 0. -1.
         21    1    1    2  503  504  0.10528083979E+03  0.69348714908E+01  0.14102052335E+03  0.17612193412E+03  0.00000000000E+00 0.  1.
         21    1    1    2  504  502 -0.10528083979E+03 -0.69348714908E+01  0.55440447602E+02  0.11918804848E+03  0.00000000000E+00 0. -1.
<mgrwt>
<rscale>  2 0.10550899E+03</rscale>
<asrwt>0</asrwt>
<pdfrwt beam="1">  1       21 0.37828534E-01 0.10550899E+03</pdfrwt>
<pdfrwt beam="2">  1       21 0.76037703E-02 0.10550899E+03</pdfrwt>
<totfact> 0.88458332E+05</totfact>
</mgrwt>
</event>
<event>
 4    1  0.5810391E+003  0.1284522E+03  0.7546771E-02  0.1229771E+00
         21   -1    0    0  503  501  0.00000000000E+00  0.00000000000E+00  0.17164672500E+03  0.17164672500E+03  0.00000000000E+00 0.  1.
         21   -1    0    0  504  502 -0.00000000000E+00 -0.00000000000E+00 -0.96861693021E+02  0.96861693021E+02  0.00000000000E+00 0.  1.
         21    1    1    2  503  502 -0.12673754435E+03 -0.20917721411E+02  0.49081633278E+02  0.13750986489E+03  0.00000000000E+00 0.  1.
         21    1    1    2  504  501  0.12673754435E+03  0.20917721411E+02  0.25703398705E+02  0.13099855313E+03  0.00000000000E+00 0.  1.
<mgrwt>
<rscale>  2 0.12845216E+03</rscale>
<asrwt>0</asrwt>
<pdfrwt beam="1">  1       21 0.26407189E-01 0.12845216E+03</pdfrwt>
<pdfrwt beam="2">  1       21 0.14901799E-01 0.12845216E+03</pdfrwt>
<totfact> 0.54536496E+05</totfact>
</mgrwt>
</event>
<event>
 4    1  0.5810391E+003  0.1133547E+03  0.7546771E-02  0.1254481E+00
         21   -1    0    0  504  501  0.00000000000E+00  0.00000000000E+00  0.45093610273E+02  0.45093610273E+02  0.00000000000E+00 0. -1.
         21   -1    0    0  503  502 -0.00000000000E+00 -0.00000000000E+00 -0.30076139764E+03  0.30076139764E+03  0.00000000000E+00 0. -1.
         21    1    1    2  503  501 -0.92213470735E+02  0.65923925248E+02 -0.88180568158E+02  0.14361441678E+03  0.00000000000E+00 0. -1.
         21    1    1    2  504  502  0.92213470735E+02 -0.65923925248E+02 -0.16748721920E+03  0.20224059113E+03  0.00000000000E+00 0. -1.
<mgrwt>
<rscale>  2 0.11335470E+03</rscale>
<asrwt>0</asrwt>
<pdfrwt beam="1">  1       21 0.69374783E-02 0.11335470E+03</pdfrwt>
<pdfrwt beam="2">  1       21 0.46270986E-01 0.11335470E+03</pdfrwt>
<totfact> 0.69135642E+05</totfact>
</mgrwt>
</event>
<event>
 4    1  0.5810391E+003  0.1115923E+03  0.7546771E-02  0.1257649E+00
         21   -1    0    0  502  501  0.00000000000E+00  0.00000000000E+00  0.10760662055E+03  0.10760662055E+03  0.00000000000E+00 0. -1.
         21   -1    0    0  503  502 -0.00000000000E+00 -0.00000000000E+00 -0.43057477422E+03  0.43057477422E+03  0.00000000000E+00 0.  1.
         21    1    1    2  503  504 -0.10703681742E+03  0.31559007626E+02 -0.39158883798E+03  0.40717891556E+03  0.00000000000E+00 0.  1.
         21    1    1    2  504  501  0.10703681742E+03 -0.31559007626E+02  0.68620684304E+02  0.13100247921E+03  0.00000000000E+00 0. -1.
<mgrwt>
<rscale>  2 0.11159234E+03</rscale>
<asrwt>0</asrwt>
<pdfrwt beam="1">  1       21 0.16554865E-01 0.11159234E+03</pdfrwt>
<pdfrwt beam="2">  1       21 0.66242273E-01 0.11159234E+03</pdfrwt>
<totfact> 0.71146682E+04</totfact>
</mgrwt>
</event>
<event>
 4    1  0.5810391E+003  0.1275828E+03  0.7546771E-02  0.1231087E+00
         21   -1    0    0  503  501  0.00000000000E+00  0.00000000000E+00  0.31129912189E+03  0.31129912189E+03  0.00000000000E+00 0.  1.
         21   -1    0    0  504  502 -0.00000000000E+00 -0.00000000000E+00 -0.31994713728E+03  0.31994713728E+03  0.00000000000E+00 0.  1.
         21    1    1    2  503  502  0.12103496404E+03 -0.40347215713E+02  0.28435841984E+03  0.31166820702E+03  0.00000000000E+00 0.  1.
         21    1    1    2  504  501 -0.12103496404E+03  0.40347215713E+02 -0.29300643522E+03  0.31957805215E+03  0.00000000000E+00 0.  1.
<mgrwt>
<rscale>  2 0.12758276E+03</rscale>
<asrwt>0</asrwt>
<pdfrwt beam="1">  1       21 0.47892173E-01 0.12758276E+03</pdfrwt>
<pdfrwt beam="2">  1       21 0.49222636E-01 0.12758276E+03</pdfrwt>
<totfact> 0.17147733E+04</totfact>
</mgrwt>
</event>
<event>
 4    1  0.5810391E+003  0.1176063E+03  0.7546771E-02  0.1247099E+00
         21   -1    0    0  503  501  0.00000000000E+00  0.00000000000E+00  0.39486289670E+02  0.39486289670E+02  0.00000000000E+00 0.  1.
         21   -1    0    0  504  502 -0.00000000000E+00 -0.00000000000E+00 -0.48448831371E+03  0.48448831371E+03  0.00000000000E+00 0.  1.
         21    1    1    2  503  502 -0.71518944030E+02 -0.93361057198E+02 -0.84612286584E+02  0.14488093524E+03  0.00000000000E+00 0.  1.
         21    1    1    2  504  501  0.71518944030E+02  0.93361057198E+02 -0.36038973745E+03  0.37909366813E+03  0.00000000000E+00 0.  1.
<mgrwt>
<rscale>  2 0.11760632E+03</rscale>
<asrwt>0</asrwt>
<pdfrwt beam="1">  1       21 0.60748136E-02 0.11760632E+03</pdfrwt>
<pdfrwt beam="2">  1       21 0.74536666E-01 0.11760632E+03</pdfrwt>
<totfact> 0.31643031E+05</totfact>
</mgrwt>
</event>
<event>
 4    1  0.5810391E+003  0.1150230E+03  0.7546771E-02  0.1251541E+00
         21   -1    0    0  503  501  0.00000000000E+00  0.00000000000E+00  0.38414706330E+02  0.38414706330E+02  0.00000000000E+00 0. -1.
         21   -1    0    0  504  502 -0.00000000000E+00 -0.00000000000E+00 -0.40296435259E+03  0.40296435259E+03  0.00000000000E+00 0. -1.
         21    1    1    2  503  502  0.66364315746E+02  0.93947112289E+02 -0.98146886640E+02  0.15120546838E+03  0.00000000000E+00 0. -1.
         21    1    1    2  504  501 -0.66364315746E+02 -0.93947112289E+02 -0.26640275962E+03  0.29017359054E+03  0.00000000000E+00 0. -1.
<mgrwt>
<rscale>  2 0.11502296E+03</rscale>
<asrwt>0</asrwt>
<pdfrwt beam="1">  1       21 0.59099542E-02 0.11502296E+03</pdfrwt>
<pdfrwt beam="2">  1       21 0.61994522E-01 0.11502296E+03</pdfrwt>
<totfact> 0.49399733E+05</totfact>
</mgrwt>
</event>
<event>
 4    1  0.5810391E+003  0.1546835E+03  0.7546771E-02  0.1194833E+00
         21   -1    0    0  503  501  0.00000000000E+00  0.00000000000E+00  0.68052632834E+02  0.68052632834E+02  0.00000000000E+00 0. -1.
         21   -1    0    0  501  502 -0.00000000000E+00 -0.00000000000E+00 -0.51810422472E+03  0.51810422472E+03  0.00000000000E+00 0. -1.
         21    1    1    2  503  504 -0.15460527787E+03  0.49179173463E+01 -0.58878147387E+02  0.16551016312E+03  0.00000000000E+00 0. -1.
         21    1    1    2  504  502  0.15460527787E+03 -0.49179173463E+01 -0.39117344450E+03  0.42064669444E+03  0.00000000000E+00 0. -1.
<mgrwt>
<rscale>  2 0.15468348E+03</rscale>
<asrwt>0</asrwt>
<pdfrwt beam="1">  1       21 0.10469635E-01 0.15468348E+03</pdfrwt>
<pdfrwt beam="2">  1       21 0.79708346E-01 0.15468348E+03</pdfrwt>
<totfact> 0.10533726E+05</totfact>
</mgrwt>
</event>
<event>
 4    1  0.5810391E+003  0.1503244E+03  0.7546771E-02  0.1200075E+00
         21   -1    0    0  503  501  0.00000000000E+00  0.00000000000E+00  0.84127307183E+03  0.84127307183E+03  0.00000000000E+00 0. -1.
         21   -1    0    0  504  502 -0.00000000000E+00 -0.00000000000E+00 -0.12347950116E+03  0.12347950116E+03  0.00000000000E+00 0. -1.
         21    1    1    2  503  502 -0.14569783298E+03 -0.37007693651E+02  0.78559289789E+03  0.79984600339E+03  0.00000000000E+00 0. -1.
         21    1    1    2  504  501  0.14569783298E+03  0.37007693651E+02 -0.67799327225E+02  0.16490656960E+03  0.00000000000E+00 0. -1.
<mgrwt>
<rscale>  2 0.15032441E+03</rscale>
<asrwt>0</asrwt>
<pdfrwt beam="1">  1       21 0.12942662E+00 0.15032441E+03</pdfrwt>
<pdfrwt beam="2">  1       21 0.18996847E-01 0.15032441E+03</pdfrwt>
<totfact> 0.11470388E+04</totfact>
</mgrwt>
</event>
<event>
 4    1  0.5810391E+003  0.1029013E+03  0.7546771E-02  0.1274311E+00
         21   -1    0    0  503  501  0.00000000000E+00  0.00000000000E+00  0.39974501219E+02  0.39974501219E+02  0.00000000000E+00 0.  1.
         21   -1    0    0  504  502 -0.00000000000E+00 -0.00000000000E+00 -0.93227202637E+03  0.93227202637E+03  0.00000000000E+00 0.  1.
         21    1    1    2  503  502  0.10140509578E+03 -0.17483778348E+02 -0.34844024248E+02  0.10864060926E+03  0.00000000000E+00 0.  1.
         21    1    1    2  504  501 -0.10140509578E+03  0.17483778348E+02 -0.85745350091E+03  0.86360591833E+03  0.00000000000E+00 0.  1.
<mgrwt>
<rscale>  2 0.10290129E+03</rscale>
<asrwt>0</asrwt>
<pdfrwt beam="1">  1       21 0.61499242E-02 0.10290129E+03</pdfrwt>
<pdfrwt beam="2">  1       21 0.14342644E+00 0.10290129E+03</pdfrwt>
<totfact> 0.66959668E+04</totfact>
</mgrwt>
</event>
<event>
 4    1  0.5810391E+003  0.1103637E+03  0.7546771E-02  0.1259898E+00
         21   -1    0    0  502  501  0.00000000000E+00  0.00000000000E+00  0.15114304729E+04  0.15114304729E+04  0.00000000000E+00 0.  1.
         21   -1    0    0  504  502 -0.00000000000E+00 -0.00000000000E+00 -0.14786362502E+03  0.14786362502E+03  0.00000000000E+00 0.  1.
         21    1    1    2  503  501 -0.43591742095E+02  0.10138987980E+03  0.14885055177E+04  0.14925913117E+04  0.00000000000E+00 0.  1.
         21    1    1    2  504  503  0.43591742095E+02 -0.10138987980E+03 -0.12493866981E+03  0.16670278617E+03  0.00000000000E+00 0.  1.
<mgrwt>
<rscale>  2 0.11036371E+03</rscale>
<asrwt>0</asrwt>
<pdfrwt beam="1">  1       21 0.23252775E+00 0.11036371E+03</pdfrwt>
<pdfrwt beam="2">  1       21 0.22748251E-01 0.11036371E+03</pdfrwt>
<totfact> 0.17207930E+03</totfact>
</mgrwt>
</event>
<event>
 4    1  0.5810391E+003  0.1368794E+03  0.7546771E-02  0.1217591E+00
         21   -1    0    0  502  501  0.00000000000E+00  0.00000000000E+00  0.84090982554E+02  0.84090982554E+02  0.00000000000E+00 0.  1.
         21   -1    0    0  503  502 -0.00000000000E+00 -0.00000000000E+00 -0.32315059956E+04  0.32315059956E+04  0.00000000000E+00 0.  1.
         21    1    1    2  503  504  0.41648372246E+02 -0.13038935824E+03 -0.31733344199E+04  0.31762851434E+04  0.00000000000E+00 0.  1.
         21    1    1    2  504  501 -0.41648372246E+02  0.13038935824E+03  0.25919406849E+02  0.13931183476E+03  0.00000000000E+00 0.  1.
<mgrwt>
<rscale>  2 0.13687941E+03</rscale>
<asrwt>0</asrwt>
<pdfrwt beam="1">  1       21 0.12937075E-01 0.13687941E+03</pdfrwt>
<pdfrwt beam="2">  1       21 0.49715475E+00 0.13687941E+03</pdfrwt>
<totfact> 0.11499884E+02</totfact>
</mgrwt>
</event>
<event>
 4    1  0.5810391E+003  0.1481872E+03  0.7546771E-02  0.1202718E+00
         21   -1    0    0  503  501  0.00000000000E+00  0.00000000000E+00  0.58068979996E+03  0.58068979996E+03  0.00000000000E+00 0.  1.
         21   -1    0    0  504  502 -0.00000000000E+00 -0.00000000000E+00 -0.60397514204E+02  0.60397514204E+02  0.00000000000E+00 0.  1.
         21    1    1    2  503  502  0.12150079199E+03  0.84835230291E+02  0.64147691190E+02  0.16147564843E+03  0.00000000000E+00 0.  1.
         21    1    1    2  504  501 -0.12150079199E+03 -0.84835230291E+02  0.45614459457E+03  0.47961166573E+03  0.00000000000E+00 0.  1.
<mgrwt>
<rscale>  2 0.14818724E+03</rscale>
<asrwt>0</asrwt>
<pdfrwt beam="1">  1       21 0.89336888E-01 0.14818724E+03</pdfrwt>
<pdfrwt beam="2">  1       21 0.92919257E-02 0.14818724E+03</pdfrwt>
<totfact> 0.10051937E+05</totfact>
</mgrwt>
</event>
<event>
 4    1  0.5810391E+003  0.1356796E+03  0.7546771E-02  0.1219263E+00
         21   -1    0    0  503  501  0.00000000000E+00  0.00000000000E+00  0.34413870032E+03  0.34413870032E+03  0.00000000000E+00 0. -1.
         21   -1    0    0  504  502 -0.00000000000E+00 -0.00000000000E+00 -0.11590805402E+03  0.11590805402E+03  0.00000000000E+00 0. -1.
         21    1    1    2  503  502  0.62622325441E+02  0.12036362631E+03 -0.54679989559E+02  0.14628348998E+03  0.00000000000E+00 0. -1.
         21    1    1    2  504  501 -0.62622325441E+02 -0.12036362631E+03  0.28291063586E+03  0.31376326436E+03  0.00000000000E+00 0. -1.
<mgrwt>
<rscale>  2 0.13567962E+03</rscale>
<asrwt>0</asrwt>
<pdfrwt beam="1">  1       21 0.52944415E-01 0.13567962E+03</pdfrwt>
<pdfrwt beam="2">  1       21 0.17832009E-01 0.13567962E+03</pdfrwt>
<totfact> 0.98729213E+04</totfact>
</mgrwt>
</event>
<event>
 4    1  0.5810391E+003  0.1481321E+03  0.7546771E-02  0.1202787E+00
         21   -1    0    0  503  501  0.00000000000E+00  0.00000000000E+00  0.38555624507E+03  0.38555624507E+03  0.00000000000E+00 0.  1.
         21   -1    0    0  501  502 -0.00000000000E+00 -0.00000000000E+00 -0.10050520200E+03  0.10050520200E+03  0.00000000000E+00 0.  1.
         21    1    1    2  503  504  0.33624994924E+02 -0.14426533885E+03  0.30258144677E+03  0.33689562213E+03  0.00000000000E+00 0.  1.
         21    1    1    2  504  502 -0.33624994924E+02  0.14426533885E+03 -0.17530403698E+02  0.14916582494E+03  0.00000000000E+00 0.  1.
<mgrwt>
<rscale>  2 0.14813213E+03</rscale>
<asrwt>0</asrwt>
<pdfrwt beam="1">  1       21 0.59316345E-01 0.14813213E+03</pdfrwt>
<pdfrwt beam="2">  1       21 0.15462339E-01 0.14813213E+03</pdfrwt>
<totfact> 0.10029721E+05</totfact>
</mgrwt>
</event>
<event>
 4    1  0.5810391E+003  0.1228824E+03  0.7546771E-02  0.1238416E+00
         21   -1    0    0  503  501  0.00000000000E+00  0.00000000000E+00  0.17722766608E+03  0.17722766608E+03  0.00000000000E+00 0. -1.
         21   -1    0    0  504  502 -0.00000000000E+00 -0.00000000000E+00 -0.51383879258E+03  0.51383879258E+03  0.00000000000E+00 0.  1.
         21    1    1    2  503  502  0.58828290803E+02  0.10788562691E+03 -0.48389416800E+03  0.49925308424E+03  0.00000000000E+00 0.  1.
         21    1    1    2  504  501 -0.58828290803E+02 -0.10788562691E+03  0.14728304150E+03  0.19181337442E+03  0.00000000000E+00 0. -1.
<mgrwt>
<rscale>  2 0.12288237E+03</rscale>
<asrwt>0</asrwt>
<pdfrwt beam="1">  1       21 0.27265795E-01 0.12288237E+03</pdfrwt>
<pdfrwt beam="2">  1       21 0.79052122E-01 0.12288237E+03</pdfrwt>
<totfact> 0.19001030E+04</totfact>
</mgrwt>
</event>
<event>
 4    1  0.5810391E+003  0.1673912E+03  0.7546771E-02  0.1180596E+00
         21   -1    0    0  502  501  0.00000000000E+00  0.00000000000E+00  0.22788207727E+04  0.22788207727E+04  0.00000000000E+00 0. -1.
         21   -1    0    0  503  502 -0.00000000000E+00 -0.00000000000E+00 -0.37503146146E+02  0.37503146146E+02  0.00000000000E+00 0. -1.
         21    1    1    2  503  504  0.86596597642E+02  0.14325092801E+03  0.17114894779E+03  0.23939874985E+03  0.00000000000E+00 0. -1.
         21    1    1    2  504  501 -0.86596597642E+02 -0.14325092801E+03  0.20701686787E+04  0.20769251690E+04  0.00000000000E+00 0. -1.
<mgrwt>
<rscale>  2 0.16739116E+03</rscale>
<asrwt>0</asrwt>
<pdfrwt beam="1">  1       21 0.35058770E+00 0.16739116E+03</pdfrwt>
<pdfrwt beam="2">  1       21 0.57697166E-02 0.16739116E+03</pdfrwt>
<totfact> 0.37885376E+03</totfact>
</mgrwt>
</event>
<event>
 4    1  0.5810391E+003  0.1433855E+03  0.7546771E-02  0.1208845E+00
         21   -1    0    0  503  501  0.00000000000E+00  0.00000000000E+00  0.25524902881E+03  0.25524902881E+03  0.00000000000E+00 0.  1.
         21   -1    0    0  504  502 -0.00000000000E+00 -0.00000000000E+00 -0.91611506309E+02  0.91611506309E+02  0.00000000000E+00 0.  1.
         21    1    1    2  503  502  0.54973213952E+02  0.13242865361E+03  0.14209230709E+03  0.20186536673E+03  0.00000000000E+00 0.  1.
         21    1    1    2  504  501 -0.54973213952E+02 -0.13242865361E+03  0.21545215411E+02  0.14499516839E+03  0.00000000000E+00 0.  1.
<mgrwt>
<rscale>  2 0.14338550E+03</rscale>
<asrwt>0</asrwt>
<pdfrwt beam="1">  1       21 0.39269081E-01 0.14338550E+03</pdfrwt>
<pdfrwt beam="2">  1       21 0.14094078E-01 0.14338550E+03</pdfrwt>
<totfact> 0.27775815E+05</totfact>
</mgrwt>
</event>
<event>
 4    1  0.5810391E+003  0.1100076E+03  0.7546771E-02  0.1260556E+00
         21   -1    0    0  503  501  0.00000000000E+00  0.00000000000E+00  0.45019706558E+02  0.45019706558E+02  0.00000000000E+00 0.  1.
         21   -1    0    0  504  502 -0.00000000000E+00 -0.00000000000E+00 -0.32333412667E+03  0.32333412667E+03  0.00000000000E+00 0.  1.
         21    1    1    2  503  502 -0.10684766171E+03 -0.26177299014E+02 -0.21479002916E+03  0.24132225430E+03  0.00000000000E+00 0.  1.
         21    1    1    2  504  501  0.10684766171E+03  0.26177299014E+02 -0.63524390953E+02  0.12703157892E+03  0.00000000000E+00 0.  1.
<mgrwt>
<rscale>  2 0.11000761E+03</rscale>
<asrwt>0</asrwt>
<pdfrwt beam="1">  1       21 0.69261088E-02 0.11000761E+03</pdfrwt>
<pdfrwt beam="2">  1       21 0.49743711E-01 0.11000761E+03</pdfrwt>
<totfact> 0.59808898E+05</totfact>
</mgrwt>
</event>
<event>
 4    1  0.5810391E+003  0.1157235E+03  0.7546771E-02  0.1250323E+00
         21   -1    0    0  503  501  0.00000000000E+00  0.00000000000E+00  0.63496034143E+02  0.63496034143E+02  0.00000000000E+00 0.  1.
         21   -1    0    0  504  502 -0.00000000000E+00 -0.00000000000E+00 -0.21458902078E+03  0.21458902078E+03  0.00000000000E+00 0.  1.
         21    1    1    2  503  502  0.41029318049E+02 -0.10820594422E+03 -0.93752976560E+02  0.14893472368E+03  0.00000000000E+00 0.  1.
         21    1    1    2  504  501 -0.41029318049E+02  0.10820594422E+03 -0.57340010073E+02  0.12915033124E+03  0.00000000000E+00 0.  1.
<mgrwt>
<rscale>  2 0.11572351E+03</rscale>
<asrwt>0</asrwt>
<pdfrwt beam="1">  1       21 0.97686206E-02 0.11572351E+03</pdfrwt>
<pdfrwt beam="2">  1       21 0.33013696E-01 0.11572351E+03</pdfrwt>
<totfact> 0.74997192E+05</totfact>
</mgrwt>
</event>
<event>
 4    1  0.5810391E+003  0.1040556E+03  0.7546771E-02  0.1271992E+00
         21   -1    0    0  503  501  0.00000000000E+00  0.00000000000E+00  0.15050488270E+02  0.15050488270E+02  0.00000000000E+00 0.  1.
         21   -1    0    0  504  502 -0.00000000000E+00 -0.00000000000E+00 -0.97557616369E+03  0.97557616369E+03  0.00000000000E+00 0. -1.
         21    1    1    2  503  502  0.92238347100E+02  0.48162811651E+02 -0.22645512103E+03  0.24921775808E+03  0.00000000000E+00 0.  1.
         21    1    1    2  504  501 -0.92238347100E+02 -0.48162811651E+02 -0.73407055439E+03  0.74140889388E+03  0.00000000000E+00 0. -1.
<mgrwt>
<rscale>  2 0.10405561E+03</rscale>
<asrwt>0</asrwt>
<pdfrwt beam="1">  1       21 0.23154586E-02 0.10405561E+03</pdfrwt>
<pdfrwt beam="2">  1       21 0.15008871E+00 0.10405561E+03</pdfrwt>
<totfact> 0.29837355E+05</totfact>
</mgrwt>
</event>
<event>
 4    1  0.5810391E+003  0.1011351E+03  0.7546771E-02  0.1277927E+00
         21   -1    0    0  504  501  0.00000000000E+00  0.00000000000E+00  0.28865079627E+02  0.28865079627E+02  0.00000000000E+00 0.  1.
         21   -1    0    0  503  502 -0.00000000000E+00 -0.00000000000E+00 -0.35677723806E+03  0.35677723806E+03  0.00000000000E+00 0.  1.
         21    1    1    2  503  501 -0.67696750450E+02 -0.75136283610E+02 -0.17986368201E+03  0.20634741394E+03  0.00000000000E+00 0.  1.
         21    1    1    2  504  502  0.67696750450E+02  0.75136283610E+02 -0.14804847643E+03  0.17929490374E+03  0.00000000000E+00 0.  1.
<mgrwt>
<rscale>  2 0.10113511E+03</rscale>
<asrwt>0</asrwt>
<pdfrwt beam="1">  1       21 0.44407814E-02 0.10113511E+03</pdfrwt>
<pdfrwt beam="2">  1       21 0.54888807E-01 0.10113511E+03</pdfrwt>
<totfact> 0.10295563E+06</totfact>
</mgrwt>
</event>
<event>
 4    1  0.5810391E+003  0.1017662E+03  0.7546771E-02  0.1276625E+00
         21   -1    0    0  504  501  0.00000000000E+00  0.00000000000E+00  0.52331133710E+02  0.52331133710E+02  0.00000000000E+00 0.  1.
         21   -1    0    0  503  502 -0.00000000000E+00 -0.00000000000E+00 -0.52145376800E+03  0.52145376800E+03  0.00000000000E+00 0. -1.
         21    1    1    2  503  501  0.29823355893E+02 -0.97298107212E+02 -0.85739547609E+01  0.10212671993E+03  0.00000000000E+00 0.  1.
         21    1    1    2  504  502 -0.29823355893E+02  0.97298107212E+02 -0.46054867953E+03  0.47165818178E+03  0.00000000000E+00 0. -1.
<mgrwt>
<rscale>  2 0.10176617E+03</rscale>
<asrwt>0</asrwt>
<pdfrwt beam="1">  1       21 0.80509436E-02 0.10176617E+03</pdfrwt>
<pdfrwt beam="2">  1       21 0.80223657E-01 0.10176617E+03</pdfrwt>
<totfact> 0.16723980E+05</totfact>
</mgrwt>
</event>
<event>
 4    1  0.5810391E+003  0.1005336E+03  0.7546771E-02  0.1279178E+00
         21   -1    0    0  503  501  0.00000000000E+00  0.00000000000E+00  0.28685471219E+02  0.28685471219E+02  0.00000000000E+00 0.  1.
         21   -1    0    0  504  502 -0.00000000000E+00 -0.00000000000E+00 -0.68018224760E+03  0.68018224760E+03  0.00000000000E+00 0. -1.
         21    1    1    2  503  502  0.57900065101E+02 -0.82186335371E+02 -0.57181668058E+03  0.58058705415E+03  0.00000000000E+00 0. -1.
         21    1    1    2  504  501 -0.57900065101E+02  0.82186335371E+02 -0.79680095800E+02  0.12828066467E+03  0.00000000000E+00 0.  1.
<mgrwt>
<rscale>  2 0.10053363E+03</rscale>
<asrwt>0</asrwt>
<pdfrwt beam="1">  1       21 0.44131498E-02 0.10053363E+03</pdfrwt>
<pdfrwt beam="2">  1       21 0.10464341E+00 0.10053363E+03</pdfrwt>
<totfact> 0.25146174E+05</totfact>
</mgrwt>
</event>
<event>
 4    1  0.5810391E+003  0.1154290E+03  0.7546771E-02  0.1250834E+00
         21   -1    0    0  504  501  0.00000000000E+00  0.00000000000E+00  0.57781517881E+02  0.57781517881E+02  0.00000000000E+00 0.  1.
         21   -1    0    0  503  502 -0.00000000000E+00 -0.00000000000E+00 -0.35135058046E+03  0.35135058046E+03  0.00000000000E+00 0.  1.
         21    1    1    2  503  501  0.27957966671E+02 -0.11199198925E+03 -0.26855203224E+02  0.11851183695E+03  0.00000000000E+00 0.  1.
         21    1    1    2  504  502 -0.27957966671E+02  0.11199198925E+03 -0.26671385935E+03  0.29062026139E+03  0.00000000000E+00 0.  1.
<mgrwt>
<rscale>  2 0.11542900E+03</rscale>
<asrwt>0</asrwt>
<pdfrwt beam="1">  1       21 0.88894642E-02 0.11542900E+03</pdfrwt>
<pdfrwt beam="2">  1       21 0.54053936E-01 0.11542900E+03</pdfrwt>
<totfact> 0.32801833E+05</totfact>
</mgrwt>
</event>
<event>
 4    1  0.5810391E+003  0.2250184E+03  0.7546771E-02  0.1130196E+00
         21   -1    0    0  503  501  0.00000000000E+00  0.00000000000E+00  0.14444467275E+04  0.14444467275E+04  0.00000000000E+00 0. -1.
         21   -1    0    0  504  502 -0.00000000000E+00 -0.00000000000E+00 -0.29816823641E+03  0.29816823641E+03  0.00000000000E+00 0.  1.
         21    1    1    2  503  502 -0.77865236564E+02 -0.21111672134E+03 -0.24535030710E+03  0.33291145713E+03  0.00000000000E+00 0.  1.
         21    1    1    2  504  501  0.77865236564E+02  0.21111672134E+03  0.13916287982E+04  0.14097035068E+04  0.00000000000E+00 0. -1.
<mgrwt>
<rscale>  2 0.22501837E+03</rscale>
<asrwt>0</asrwt>
<pdfrwt beam="1">  1       21 0.22222257E+00 0.22501837E+03</pdfrwt>
<pdfrwt beam="2">  1       21 0.45872037E-01 0.22501837E+03</pdfrwt>
<totfact> 0.42715703E+02</totfact>
</mgrwt>
</event>
<event>
 4    1  0.5810391E+003  0.1164529E+03  0.7546771E-02  0.1249066E+00
         21   -1    0    0  502  501  0.00000000000E+00  0.00000000000E+00  0.20574658529E+04  0.20574658529E+04  0.00000000000E+00 0.  1.
         21   -1    0    0  504  502 -0.00000000000E+00 -0.00000000000E+00 -0.44473437607E+02  0.44473437607E+02  0.00000000000E+00 0.  1.
         21    1    1    2  503  501  0.10890931119E+03  0.41231579705E+02  0.19764640177E+04  0.19798917381E+04  0.00000000000E+00 0.  1.
         21    1    1    2  504  503 -0.10890931119E+03 -0.41231579705E+02  0.36528397619E+02  0.12204755246E+03  0.00000000000E+00 0.  1.
<mgrwt>
<rscale>  2 0.11645291E+03</rscale>
<asrwt>0</asrwt>
<pdfrwt beam="1">  1       21 0.31653313E+00 0.11645291E+03</pdfrwt>
<pdfrwt beam="2">  1       21 0.68420689E-02 0.11645291E+03</pdfrwt>
<totfact> 0.48320316E+03</totfact>
</mgrwt>
</event>
<event>
 4    1  0.5810391E+003  0.2277745E+03  0.7546771E-02  0.1128216E+00
         21   -1    0    0  502  501  0.00000000000E+00  0.00000000000E+00  0.27036777694E+03  0.27036777694E+03  0.00000000000E+00 0. -1.
         21   -1    0    0  504  502 -0.00000000000E+00 -0.00000000000E+00 -0.55384121179E+03  0.55384121179E+03  0.00000000000E+00 0.  1.
         21    1    1    2  503  501 -0.13706441805E+03 -0.18191916730E+03  0.19141259643E+03  0.29752314229E+03  0.00000000000E+00 0. -1.
         21    1    1    2  504  503  0.13706441805E+03  0.18191916730E+03 -0.47488603128E+03  0.52668584643E+03  0.00000000000E+00 0.  1.
<mgrwt>
<rscale>  2 0.22777453E+03</rscale>
<asrwt>0</asrwt>
<pdfrwt beam="1">  1       21 0.41595043E-01 0.22777453E+03</pdfrwt>
<pdfrwt beam="2">  1       21 0.85206340E-01 0.22777453E+03</pdfrwt>
<totfact> 0.64669702E+03</totfact>
</mgrwt>
</event>
<event>
 4    1  0.5810391E+003  0.1056920E+03  0.7546771E-02  0.1268762E+00
         21   -1    0    0  502  501  0.00000000000E+00  0.00000000000E+00  0.14611443415E+02  0.14611443415E+02  0.00000000000E+00 0.  1.
         21   -1    0    0  504  502 -0.00000000000E+00 -0.00000000000E+00 -0.14132763672E+04  0.14132763672E+04  0.00000000000E+00 0.  1.
         21    1    1    2  503  501 -0.10521822940E+03 -0.99965967093E+01 -0.21561716300E+03  0.24012823391E+03  0.00000000000E+00 0.  1.
         21    1    1    2  504  503  0.10521822940E+03  0.99965967093E+01 -0.11830477608E+04  0.11877595768E+04  0.00000000000E+00 0.  1.
<mgrwt>
<rscale>  2 0.10569204E+03</rscale>
<asrwt>0</asrwt>
<pdfrwt beam="1">  1       21 0.22479138E-02 0.10569204E+03</pdfrwt>
<pdfrwt beam="2">  1       21 0.21742719E+00 0.10569204E+03</pdfrwt>
<totfact> 0.11273999E+05</totfact>
</mgrwt>
</event>
<event>
 4    1  0.5810391E+003  0.1530185E+03  0.7546771E-02  0.1196812E+00
         21   -1    0    0  503  501  0.00000000000E+00  0.00000000000E+00  0.47092321224E+02  0.47092321224E+02  0.00000000000E+00 0. -1.
         21   -1    0    0  504  502 -0.00000000000E+00 -0.00000000000E+00 -0.51697817894E+03  0.51697817894E+03  0.00000000000E+00 0. -1.
         21    1    1    2  503  502  0.33099880809E+02 -0.14939560073E+03 -0.17978856646E+03  0.23609018670E+03  0.00000000000E+00 0. -1.
         21    1    1    2  504  501 -0.33099880809E+02  0.14939560073E+03 -0.29009729126E+03  0.32798031347E+03  0.00000000000E+00 0. -1.
<mgrwt>
<rscale>  2 0.15301846E+03</rscale>
<asrwt>0</asrwt>
<pdfrwt beam="1">  1       21 0.72449724E-02 0.15301846E+03</pdfrwt>
<pdfrwt beam="2">  1       21 0.79535105E-01 0.15301846E+03</pdfrwt>
<totfact> 0.20107374E+05</totfact>
</mgrwt>
</event>
<event>
 4    1  0.5810391E+003  0.1045537E+03  0.7546771E-02  0.1271002E+00
         21   -1    0    0  504  501  0.00000000000E+00  0.00000000000E+00  0.30285291697E+02  0.30285291697E+02  0.00000000000E+00 0. -1.
         21   -1    0    0  503  502 -0.00000000000E+00 -0.00000000000E+00 -0.38350135657E+03  0.38350135657E+03  0.00000000000E+00 0. -1.
         21    1    1    2  503  501 -0.10336404172E+03 -0.15727155742E+02 -0.12643714972E+03  0.16406651510E+03  0.00000000000E+00 0. -1.
         21    1    1    2  504  502  0.10336404172E+03  0.15727155742E+02 -0.22677891515E+03  0.24972013316E+03  0.00000000000E+00 0. -1.
<mgrwt>
<rscale>  2 0.10455366E+03</rscale>
<asrwt>0</asrwt>
<pdfrwt beam="1">  1       21 0.46592756E-02 0.10455366E+03</pdfrwt>
<pdfrwt beam="2">  1       21 0.59000209E-01 0.10455366E+03</pdfrwt>
<totfact> 0.81754442E+05</totfact>
</mgrwt>
</event>
<event>
 4    1  0.5810391E+003  0.1414704E+03  0.7546771E-02  0.1211364E+00
         21   -1    0    0  503  501  0.00000000000E+00  0.00000000000E+00  0.70702145089E+03  0.70702145089E+03  0.00000000000E+00 0. -1.
         21   -1    0    0  501  502 -0.00000000000E+00 -0.00000000000E+00 -0.42766812197E+02  0.42766812197E+02  0.00000000000E+00 0.  1.
         21    1    1    2  503  504 -0.14059330444E+03  0.15728932380E+02  0.55011494857E+03  0.56801437764E+03  0.00000000000E+00 0. -1.
         21    1    1    2  504  502  0.14059330444E+03 -0.15728932380E+02  0.11413969012E+03  0.18177388544E+03  0.00000000000E+00 0.  1.
<mgrwt>
<rscale>  2 0.14147041E+03</rscale>
<asrwt>0</asrwt>
<pdfrwt beam="1">  1       21 0.10877252E+00 0.14147041E+03</pdfrwt>
<pdfrwt beam="2">  1       21 0.65795101E-02 0.14147041E+03</pdfrwt>
<totfact> 0.11535119E+05</totfact>
</mgrwt>
</event>
<event>
 4    1  0.5810391E+003  0.1513170E+03  0.7546771E-02  0.1198864E+00
         21   -1    0    0  504  501  0.00000000000E+00  0.00000000000E+00  0.23810613203E+03  0.23810613203E+03  0.00000000000E+00 0.  1.
         21   -1    0    0  503  502 -0.00000000000E+00 -0.00000000000E+00 -0.22725547967E+03  0.22725547967E+03  0.00000000000E+00 0. -1.
         21    1    1    2  503  501 -0.10182824334E+03  0.11192787107E+03 -0.17129779904E+03  0.22856022274E+03  0.00000000000E+00 0. -1.
         21    1    1    2  504  502  0.10182824334E+03 -0.11192787107E+03  0.18214845140E+03  0.23680138895E+03  0.00000000000E+00 0.  1.
<mgrwt>
<rscale>  2 0.15131702E+03</rscale>
<asrwt>0</asrwt>
<pdfrwt beam="1">  1       21 0.36631713E-01 0.15131702E+03</pdfrwt>
<pdfrwt beam="2">  1       21 0.34962381E-01 0.15131702E+03</pdfrwt>
<totfact> 0.57782760E+04</totfact>
</mgrwt>
</event>
<event>
 4    1  0.5810391E+003  0.1396388E+03  0.7546771E-02  0.1213816E+00
         21   -1    0    0  503  501  0.00000000000E+00  0.00000000000E+00  0.47583122883E+03  0.47583122883E+03  0.00000000000E+00 0. -1.
         21   -1    0    0  501  502 -0.00000000000E+00 -0.00000000000E+00 -0.11311987672E+03  0.11311987672E+03  0.00000000000E+00 0. -1.
         21    1    1    2  503  504  0.99140718110E+02  0.98336754697E+02  0.41651979192E+03  0.43930369493E+03  0.00000000000E+00 0. -1.
         21    1    1    2  504  502 -0.99140718110E+02 -0.98336754697E+02 -0.53808439811E+02  0.14964741062E+03  0.00000000000E+00 0. -1.
<mgrwt>
<rscale>  2 0.13963882E+03</rscale>
<asrwt>0</asrwt>
<pdfrwt beam="1">  1       21 0.73204803E-01 0.13963882E+03</pdfrwt>
<pdfrwt beam="2">  1       21 0.17403058E-01 0.13963882E+03</pdfrwt>
<totfact> 0.51481317E+04</totfact>
</mgrwt>
</event>
<event>
 4    1  0.5810391E+003  0.1000626E+03  0.7546771E-02  0.1280164E+00
         21   -1    0    0  503  501  0.00000000000E+00  0.00000000000E+00  0.15131083852E+04  0.15131083852E+04  0.00000000000E+00 0. -1.
         21   -1    0    0  504  502 -0.00000000000E+00 -0.00000000000E+00 -0.83288880040E+01  0.83288880040E+01  0.00000000000E+00 0. -1.
         21    1    1    2  503  502  0.83853134614E+02  0.54600197701E+02  0.40752899459E+03  0.41963366310E+03  0.00000000000E+00 0. -1.
         21    1    1    2  504  501 -0.83853134614E+02 -0.54600197701E+02  0.10972505026E+04  0.11018036101E+04  0.00000000000E+00 0. -1.
<mgrwt>
<rscale>  2 0.10006263E+03</rscale>
<asrwt>0</asrwt>
<pdfrwt beam="1">  1       21 0.23278569E+00 0.10006263E+03</pdfrwt>
<pdfrwt beam="2">  1       21 0.12813686E-02 0.10006263E+03</pdfrwt>
<totfact> 0.22577163E+05</totfact>
</mgrwt>
</event>
<event>
 4    1  0.5810391E+003  0.1096162E+03  0.7546771E-02  0.1261282E+00
         21   -1    0    0  504  501  0.00000000000E+00  0.00000000000E+00  0.26934569500E+03  0.26934569500E+03  0.00000000000E+00 0. -1.
         21   -1    0    0  503  502 -0.00000000000E+00 -0.00000000000E+00 -0.47409909706E+03  0.47409909706E+03  0.00000000000E+00 0.  1.
         21    1    1    2  503  501  0.65907233788E+02 -0.87589699480E+02  0.25142494247E+03  0.27428128011E+03  0.00000000000E+00 0. -1.
         21    1    1    2  504  502 -0.65907233788E+02  0.87589699480E+02 -0.45617834454E+03  0.46916351195E+03  0.00000000000E+00 0.  1.
<mgrwt>
<rscale>  2 0.10961623E+03</rscale>
<asrwt>0</asrwt>
<pdfrwt beam="1">  1       21 0.41437799E-01 0.10961623E+03</pdfrwt>
<pdfrwt beam="2">  1       21 0.72938322E-01 0.10961623E+03</pdfrwt>
<totfact> 0.10154847E+04</totfact>
</mgrwt>
</event>
<event>
 4    1  0.5810391E+003  0.1002345E+03  0.7546771E-02  0.1279804E+00
         21   -1    0    0  504  501  0.00000000000E+00  0.00000000000E+00  0.79726415578E+03  0.79726415578E+03  0.00000000000E+00 0. -1.
         21   -1    0    0  503  502 -0.00000000000E+00 -0.00000000000E+00 -0.33713749955E+02  0.33713749955E+02  0.00000000000E+00 0. -1.
         21    1    1    2  503  501  0.46384013970E+02  0.88856504266E+02  0.52983967665E+02  0.11337661104E+03  0.00000000000E+00 0. -1.
         21    1    1    2  504  502 -0.46384013970E+02 -0.88856504266E+02  0.71056643816E+03  0.71760129469E+03  0.00000000000E+00 0. -1.
<mgrwt>
<rscale>  2 0.10023450E+03</rscale>
<asrwt>0</asrwt>
<pdfrwt beam="1">  1       21 0.12265601E+00 0.10023450E+03</pdfrwt>
<pdfrwt beam="2">  1       21 0.51867314E-02 0.10023450E+03</pdfrwt>
<totfact> 0.13160334E+05</totfact>
</mgrwt>
</event>
<event>
 4    1  0.5810391E+003  0.1110118E+03  0.7546771E-02  0.1258708E+00
         21   -1    0    0  504  501  0.00000000000E+00  0.00000000000E+00  0.12229996838E+03  0.12229996838E+03  0.00000000000E+00 0.  1.
         21   -1    0    0  501  502 -0.00000000000E+00 -0.00000000000E+00 -0.15463054085E+03  0.15463054085E+03  0.00000000000E+00 0.  1.
         21    1    1    2  503  502  0.75958155338E+02 -0.80956679488E+02 -0.97888682944E+02  0.14800614705E+03  0.00000000000E+00 0.  1.
         21    1    1    2  504  503 -0.75958155338E+02  0.80956679488E+02  0.65558110465E+02  0.12892436218E+03  0.00000000000E+00 0.  1.
<mgrwt>
<rscale>  2 0.11101183E+03</rscale>
<asrwt>0</asrwt>
<pdfrwt beam="1">  1       21 0.18815380E-01 0.11101183E+03</pdfrwt>
<pdfrwt beam="2">  1       21 0.23789314E-01 0.11101183E+03</pdfrwt>
<totfact> 0.43541259E+05</totfact>
</mgrwt>
</event>
<event>
 4    1  0.5810391E+003  0.1231716E+03  0.7546771E-02  0.1237955E+00
         21   -1    0    0  503  501  0.00000000000E+00  0.00000000000E+00  0.48407317082E+03  0.48407317082E+03  0.00000000000E+00 0.  1.
         21   -1    0    0  504  502 -0.00000000000E+00 -0.00000000000E+00 -0.89009694917E+02  0.89009694917E+02  0.00000000000E+00 0. -1.
         21    1    1    2  503  502  0.11369514858E+03  0.47377752738E+02 -0.33110903682E+02  0.12754438525E+03  0.00000000000E+00 0. -1.
         21    1    1    2  504  501 -0.11369514858E+03 -0.47377752738E+02  0.42817437959E+03  0.44553848050E+03  0.00000000000E+00 0.  1.
<mgrwt>
<rscale>  2 0.12317158E+03</rscale>
<asrwt>0</asrwt>
<pdfrwt beam="1">  1       21 0.74472794E-01 0.12317158E+03</pdfrwt>
<pdfrwt beam="2">  1       21 0.13693800E-01 0.12317158E+03</pdfrwt>
<totfact> 0.77105055E+04</totfact>
</mgrwt>
</event>
<event>
 4    1  0.5810391E+003  0.1062972E+03  0.7546771E-02  0.1267585E+00
         21   -1    0    0  504  501  0.00000000000E+00  0.00000000000E+00  0.49380224819E+02  0.49380224819E+02  0.00000000000E+00 0. -1.
         21   -1    0    0  501  502 -0.00000000000E+00 -0.00000000000E+00 -0.27517711909E+03  0.27517711909E+03  0.00000000000E+00 0. -1.
         21    1    1    2  503  502  0.10627985422E+03 -0.19183984069E+01 -0.17950585791E+03  0.20861792993E+03  0.00000000000E+00 0. -1.
         21    1    1    2  504  503 -0.10627985422E+03  0.19183984069E+01 -0.46291036363E+02  0.11593941398E+03  0.00000000000E+00 0. -1.
<mgrwt>
<rscale>  2 0.10629717E+03</rscale>
<asrwt>0</asrwt>
<pdfrwt beam="1">  1       21 0.75969577E-02 0.10629717E+03</pdfrwt>
<pdfrwt beam="2">  1       21 0.42334941E-01 0.10629717E+03</pdfrwt>
<totfact> 0.70834814E+05</totfact>
</mgrwt>
</event>
<event>
 4    1  0.5810391E+003  0.1075682E+03  0.7546771E-02  0.1265141E+00
         21   -1    0    0  504  501  0.00000000000E+00  0.00000000000E+00  0.17390406683E+03  0.17390406683E+03  0.00000000000E+00 0.  1.
         21   -1    0    0  503  502 -0.00000000000E+00 -0.00000000000E+00 -0.11128817104E+03  0.11128817104E+03  0.00000000000E+00 0. -1.
         21    1    1    2  503  501  0.14596662639E+02 -0.10657326777E+03  0.12173306050E+03  0.16244956751E+03  0.00000000000E+00 0.  1.
         21    1    1    2  504  502 -0.14596662639E+02  0.10657326777E+03 -0.59117164716E+02  0.12274267036E+03  0.00000000000E+00 0. -1.
<mgrwt>
<rscale>  2 0.10756823E+03</rscale>
<asrwt>0</asrwt>
<pdfrwt beam="1">  1       21 0.26754472E-01 0.10756823E+03</pdfrwt>
<pdfrwt beam="2">  1       21 0.17121257E-01 0.10756823E+03</pdfrwt>
<totfact> 0.41459379E+05</totfact>
</mgrwt>
</event>
<event>
 4    1  0.5810391E+003  0.1365083E+03  0.7546771E-02  0.1218106E+00
         21   -1    0    0  504  501  0.00000000000E+00  0.00000000000E+00  0.46647980689E+02  0.46647980689E+02  0.00000000000E+00 0. -1.
         21   -1    0    0  503  502 -0.00000000000E+00 -0.00000000000E+00 -0.50611836515E+03  0.50611836515E+03  0.00000000000E+00 0. -1.
         21    1    1    2  503  501  0.12680532988E+03  0.50546229186E+02 -0.35660571380E+03  0.38184047466E+03  0.00000000000E+00 0. -1.
         21    1    1    2  504  502 -0.12680532988E+03 -0.50546229186E+02 -0.10286467066E+03  0.17092587118E+03  0.00000000000E+00 0. -1.
<mgrwt>
<rscale>  2 0.13650829E+03</rscale>
<asrwt>0</asrwt>
<pdfrwt beam="1">  1       21 0.71766119E-02 0.13650829E+03</pdfrwt>
<pdfrwt beam="2">  1       21 0.77864370E-01 0.13650829E+03</pdfrwt>
<totfact> 0.21526210E+05</totfact>
</mgrwt>
</event>
<event>
 4    1  0.5810391E+003  0.1061570E+03  0.7546771E-02  0.1267857E+00
         21   -1    0    0  503  501  0.00000000000E+00  0.00000000000E+00  0.41360071522E+02  0.41360071522E+02  0.00000000000E+00 0. -1.
         21   -1    0    0  501  502 -0.00000000000E+00 -0.00000000000E+00 -0.89219265324E+03  0.89219265324E+03  0.00000000000E+00 0.  1.
         21    1    1    2  503  504  0.76978000501E+02  0.73100650163E+02 -0.36390192988E+02  0.11222104865E+03  0.00000000000E+00 0. -1.
         21    1    1    2  504  502 -0.76978000501E+02 -0.73100650163E+02 -0.81444238873E+03  0.82133167611E+03  0.00000000000E+00 0.  1.
<mgrwt>
<rscale>  2 0.10615704E+03</rscale>
<asrwt>0</asrwt>
<pdfrwt beam="1">  1       21 0.63630879E-02 0.10615704E+03</pdfrwt>
<pdfrwt beam="2">  1       21 0.13726041E+00 0.10615704E+03</pdfrwt>
<totfact> 0.70459165E+04</totfact>
</mgrwt>
</event>
<event>
 4    1  0.5810391E+003  0.1214762E+03  0.7546771E-02  0.1240681E+00
         21   -1    0    0  503  501  0.00000000000E+00  0.00000000000E+00  0.60869937081E+02  0.60869937081E+02  0.00000000000E+00 0. -1.
         21   -1    0    0  504  502 -0.00000000000E+00 -0.00000000000E+00 -0.31155192185E+03  0.31155192185E+03  0.00000000000E+00 0.  1.
         21    1    1    2  503  502  0.99800202416E+02 -0.69255952760E+02 -0.37628834048E+02  0.12717073778E+03  0.00000000000E+00 0. -1.
         21    1    1    2  504  501 -0.99800202416E+02  0.69255952760E+02 -0.21305315072E+03  0.24525112115E+03  0.00000000000E+00 0.  1.
<mgrwt>
<rscale>  2 0.12147620E+03</rscale>
<asrwt>0</asrwt>
<pdfrwt beam="1">  1       21 0.93646058E-02 0.12147620E+03</pdfrwt>
<pdfrwt beam="2">  1       21 0.47931064E-01 0.12147620E+03</pdfrwt>
<totfact> 0.38369278E+05</totfact>
</mgrwt>
</event>
<event>
 4    1  0.5810391E+003  0.1092475E+03  0.7546771E-02  0.1261970E+00
         21   -1    0    0  504  501  0.00000000000E+00  0.00000000000E+00  0.81946569666E+03  0.81946569666E+03  0.00000000000E+00 0. -1.
         21   -1    0    0  503  502 -0.00000000000E+00 -0.00000000000E+00 -0.32163327287E+02  0.32163327287E+02  0.00000000000E+00 0. -1.
         21    1    1    2  503  501  0.18278646385E+02  0.10770749598E+03  0.78670979676E+02  0.13462591373E+03  0.00000000000E+00 0. -1.
         21    1    1    2  504  502 -0.18278646385E+02 -0.10770749598E+03  0.70863138969E+03  0.71700311022E+03  0.00000000000E+00 0. -1.
<mgrwt>
<rscale>  2 0.10924749E+03</rscale>
<asrwt>0</asrwt>
<pdfrwt beam="1">  1       21 0.12607163E+00 0.10924749E+03</pdfrwt>
<pdfrwt beam="2">  1       21 0.49482048E-02 0.10924749E+03</pdfrwt>
<totfact> 0.13252058E+05</totfact>
</mgrwt>
</event>
<event>
 4    1  0.5810391E+003  0.1493337E+03  0.7546771E-02  0.1201294E+00
         21   -1    0    0  502  501  0.00000000000E+00  0.00000000000E+00  0.52247333889E+02  0.52247333889E+02  0.00000000000E+00 0.  1.
         21   -1    0    0  503  502 -0.00000000000E+00 -0.00000000000E+00 -0.10989309956E+04  0.10989309956E+04  0.00000000000E+00 0.  1.
         21    1    1    2  503  504  0.11643399494E+03  0.93507573423E+02 -0.97347999018E+03  0.98486741887E+03  0.00000000000E+00 0.  1.
         21    1    1    2  504  501 -0.11643399494E+03 -0.93507573423E+02 -0.73203671524E+02  0.16631091061E+03  0.00000000000E+00 0.  1.
<mgrwt>
<rscale>  2 0.14933366E+03</rscale>
<asrwt>0</asrwt>
<pdfrwt beam="1">  1       21 0.80380519E-02 0.14933366E+03</pdfrwt>
<pdfrwt beam="2">  1       21 0.16906630E+00 0.14933366E+03</pdfrwt>
<totfact> 0.26589558E+04</totfact>
</mgrwt>
</event>
<event>
 4    1  0.5810391E+003  0.1153006E+03  0.7546771E-02  0.1251057E+00
         21   -1    0    0  504  501  0.00000000000E+00  0.00000000000E+00  0.11378726746E+02  0.11378726746E+02  0.00000000000E+00 0.  1.
         21   -1    0    0  503  502 -0.00000000000E+00 -0.00000000000E+00 -0.12318635621E+04  0.12318635621E+04  0.00000000000E+00 0.  1.
         21    1    1    2  503  501  0.71020397897E+02 -0.90831316493E+02 -0.46908266654E+03  0.48304531156E+03  0.00000000000E+00 0.  1.
         21    1    1    2  504  502 -0.71020397897E+02  0.90831316493E+02 -0.75140216881E+03  0.76019697728E+03  0.00000000000E+00 0.  1.
<mgrwt>
<rscale>  2 0.11530059E+03</rscale>
<asrwt>0</asrwt>
<pdfrwt beam="1">  1       21 0.17505743E-02 0.11530059E+03</pdfrwt>
<pdfrwt beam="2">  1       21 0.18951737E+00 0.11530059E+03</pdfrwt>
<totfact> 0.24903713E+05</totfact>
</mgrwt>
</event>
<event>
 4    1  0.5810391E+003  0.1248634E+03  0.7546771E-02  0.1235283E+00
         21   -1    0    0  504  501  0.00000000000E+00  0.00000000000E+00  0.73087415940E+03  0.73087415940E+03  0.00000000000E+00 0. -1.
         21   -1    0    0  501  502 -0.00000000000E+00 -0.00000000000E+00 -0.24474429790E+02  0.24474429790E+02  0.00000000000E+00 0. -1.
         21    1    1    2  503  502 -0.17252703722E+02  0.12366569763E+03  0.21786558181E+03  0.25111008003E+03  0.00000000000E+00 0. -1.
         21    1    1    2  504  503  0.17252703722E+02 -0.12366569763E+03  0.48853414780E+03  0.50423850916E+03  0.00000000000E+00 0. -1.
<mgrwt>
<rscale>  2 0.12486337E+03</rscale>
<asrwt>0</asrwt>
<pdfrwt beam="1">  1       21 0.11244216E+00 0.12486337E+03</pdfrwt>
<pdfrwt beam="2">  1       21 0.37652974E-02 0.12486337E+03</pdfrwt>
<totfact> 0.27384403E+05</totfact>
</mgrwt>
</event>
<event>
 4    1  0.5810391E+003  0.2002784E+03  0.7546771E-02  0.1149504E+00
         21   -1    0    0  504  501  0.00000000000E+00  0.00000000000E+00  0.20708387108E+03  0.20708387108E+03  0.00000000000E+00 0.  1.
         21   -1    0    0  501  502 -0.00000000000E+00 -0.00000000000E+00 -0.96236047270E+03  0.96236047270E+03  0.00000000000E+00 0.  1.
         21    1    1    2  503  502  0.75840353718E+02  0.18536367644E+03 -0.90021362029E+03  0.92222340783E+03  0.00000000000E+00 0.  1.
         21    1    1    2  504  503 -0.75840353718E+02 -0.18536367644E+03  0.14493701866E+03  0.24722093595E+03  0.00000000000E+00 0.  1.
<mgrwt>
<rscale>  2 0.20027844E+03</rscale>
<asrwt>0</asrwt>
<pdfrwt beam="1">  1       21 0.31859058E-01 0.20027844E+03</pdfrwt>
<pdfrwt beam="2">  1       21 0.14805546E+00 0.20027844E+03</pdfrwt>
<totfact> 0.29104208E+03</totfact>
</mgrwt>
</event>
<event>
 4    1  0.5810391E+003  0.1002871E+03  0.7546771E-02  0.1279693E+00
         21   -1    0    0  503  501  0.00000000000E+00  0.00000000000E+00  0.32389158248E+03  0.32389158248E+03  0.00000000000E+00 0. -1.
         21   -1    0    0  504  502 -0.00000000000E+00 -0.00000000000E+00 -0.20751382873E+03  0.20751382873E+03  0.00000000000E+00 0.  1.
         21    1    1    2  503  502  0.73920306530E+02 -0.67773806583E+02  0.30320675251E+03  0.31936160593E+03  0.00000000000E+00 0. -1.
         21    1    1    2  504  501 -0.73920306530E+02  0.67773806583E+02 -0.18682899877E+03  0.21204380528E+03  0.00000000000E+00 0.  1.
<mgrwt>
<rscale>  2 0.10028709E+03</rscale>
<asrwt>0</asrwt>
<pdfrwt beam="1">  1       21 0.49829474E-01 0.10028709E+03</pdfrwt>
<pdfrwt beam="2">  1       21 0.31925204E-01 0.10028709E+03</pdfrwt>
<totfact> 0.38238283E+04</totfact>
</mgrwt>
</event>
<event>
 4    1  0.5810391E+003  0.1074556E+03  0.7546771E-02  0.1265356E+00
         21   -1    0    0  502  501  0.00000000000E+00  0.00000000000E+00  0.49845994838E+03  0.49845994838E+03  0.00000000000E+00 0.  1.
         21   -1    0    0  504  502 -0.00000000000E+00 -0.00000000000E+00 -0.96948979212E+02  0.96948979212E+02  0.00000000000E+00 0.  1.
         21    1    1    2  503  501  0.20577730540E+02  0.10546688219E+03  0.46046954510E+03  0.47284131397E+03  0.00000000000E+00 0.  1.
         21    1    1    2  504  503 -0.20577730540E+02 -0.10546688219E+03 -0.58958575932E+02  0.12256761362E+03  0.00000000000E+00 0.  1.
<mgrwt>
<rscale>  2 0.10745560E+03</rscale>
<asrwt>0</asrwt>
<pdfrwt beam="1">  1       21 0.76686145E-01 0.10745560E+03</pdfrwt>
<pdfrwt beam="2">  1       21 0.14915228E-01 0.10745560E+03</pdfrwt>
<totfact> 0.62573269E+04</totfact>
</mgrwt>
</event>
<event>
 4    1  0.5810391E+003  0.1135815E+03  0.7546771E-02  0.1254078E+00
         21   -1    0    0  503  501  0.00000000000E+00  0.00000000000E+00  0.22054301893E+03  0.22054301893E+03  0.00000000000E+00 0.  1.
         21   -1    0    0  504  502 -0.00000000000E+00 -0.00000000000E+00 -0.13456532818E+03  0.13456532818E+03  0.00000000000E+00 0.  1.
         21    1    1    2  503  502 -0.54352892824E+02  0.99732247343E+02  0.17648560467E+03  0.20987597951E+03  0.00000000000E+00 0.  1.
         21    1    1    2  504  501  0.54352892824E+02 -0.99732247343E+02 -0.90507913921E+02  0.14523236761E+03  0.00000000000E+00 0.  1.
<mgrwt>
<rscale>  2 0.11358150E+03</rscale>
<asrwt>0</asrwt>
<pdfrwt beam="1">  1       21 0.33929695E-01 0.11358150E+03</pdfrwt>
<pdfrwt beam="2">  1       21 0.20702358E-01 0.11358150E+03</pdfrwt>
<totfact> 0.18525396E+05</totfact>
</mgrwt>
</event>
<event>
 4    1  0.5810391E+003  0.1713974E+03  0.7546771E-02  0.1176398E+00
         21   -1    0    0  504  501  0.00000000000E+00  0.00000000000E+00  0.23347390533E+03  0.23347390533E+03  0.00000000000E+00 0.  1.
         21   -1    0    0  503  502 -0.00000000000E+00 -0.00000000000E+00 -0.13141612285E+03  0.13141612285E+03  0.00000000000E+00 0. -1.
         21    1    1    2  503  501  0.10795042407E+03 -0.13313061614E+03  0.88657986305E+02  0.19296967002E+03  0.00000000000E+00 0.  1.
         21    1    1    2  504  502 -0.10795042407E+03  0.13313061614E+03  0.13399796182E+02  0.17192035816E+03  0.00000000000E+00 0. -1.
<mgrwt>
<rscale>  2 0.17139736E+03</rscale>
<asrwt>0</asrwt>
<pdfrwt beam="1">  1       21 0.35919062E-01 0.17139736E+03</pdfrwt>
<pdfrwt beam="2">  1       21 0.20217865E-01 0.17139736E+03</pdfrwt>
<totfact> 0.17018547E+05</totfact>
</mgrwt>
</event>
<event>
 4    1  0.5810391E+003  0.1158372E+03  0.7546771E-02  0.1250127E+00
         21   -1    0    0  502  501  0.00000000000E+00  0.00000000000E+00  0.67559991378E+03  0.67559991378E+03  0.00000000000E+00 0.  1.
         21   -1    0    0  504  502 -0.00000000000E+00 -0.00000000000E+00 -0.19870356548E+02  0.19870356548E+02  0.00000000000E+00 0.  1.
         21    1    1    2  503  501  0.78998333475E+02 -0.84720277318E+02  0.32042249219E+03  0.34071811748E+03  0.00000000000E+00 0.  1.
         21    1    1    2  504  503 -0.78998333475E+02  0.84720277318E+02  0.33530706504E+03  0.35475215284E+03  0.00000000000E+00 0.  1.
<mgrwt>
<rscale>  2 0.11583722E+03</rscale>
<asrwt>0</asrwt>
<pdfrwt beam="1">  1       21 0.10393843E+00 0.11583722E+03</pdfrwt>
<pdfrwt beam="2">  1       21 0.30569784E-02 0.11583722E+03</pdfrwt>
<totfact> 0.46615653E+05</totfact>
</mgrwt>
</event>
<event>
 4    1  0.5810391E+003  0.1111453E+03  0.7546771E-02  0.1258464E+00
         21   -1    0    0  504  501  0.00000000000E+00  0.00000000000E+00  0.30689768628E+03  0.30689768628E+03  0.00000000000E+00 0. -1.
         21   -1    0    0  503  502 -0.00000000000E+00 -0.00000000000E+00 -0.41411480684E+02  0.41411480684E+02  0.00000000000E+00 0. -1.
         21    1    1    2  503  501  0.10680250762E+03  0.30765304451E+02  0.16188283698E+03  0.19636530371E+03  0.00000000000E+00 0. -1.
         21    1    1    2  504  502 -0.10680250762E+03 -0.30765304451E+02  0.10360336861E+03  0.15194386325E+03  0.00000000000E+00 0. -1.
<mgrwt>
<rscale>  2 0.11114531E+03</rscale>
<asrwt>0</asrwt>
<pdfrwt beam="1">  1       21 0.47215027E-01 0.11114531E+03</pdfrwt>
<pdfrwt beam="2">  1       21 0.63709972E-02 0.11114531E+03</pdfrwt>
<totfact> 0.76688464E+05</totfact>
</mgrwt>
</event>
<event>
 4    1  0.5810391E+003  0.1273146E+03  0.7546771E-02  0.1231496E+00
         21   -1    0    0  504  501  0.00000000000E+00  0.00000000000E+00  0.77418278702E+02  0.77418278702E+02  0.00000000000E+00 0.  1.
         21   -1    0    0  503  502 -0.00000000000E+00 -0.00000000000E+00 -0.21056956110E+03  0.21056956110E+03  0.00000000000E+00 0.  1.
         21    1    1    2  503  501  0.80821316480E+02 -0.98371407879E+02 -0.77446526307E+02  0.14902007758E+03  0.00000000000E+00 0.  1.
         21    1    1    2  504  502 -0.80821316480E+02  0.98371407879E+02 -0.55704756093E+02  0.13896776222E+03  0.00000000000E+00 0.  1.
<mgrwt>
<rscale>  2 0.12731465E+03</rscale>
<asrwt>0</asrwt>
<pdfrwt beam="1">  1       21 0.11910504E-01 0.12731465E+03</pdfrwt>
<pdfrwt beam="2">  1       21 0.32395317E-01 0.12731465E+03</pdfrwt>
<totfact> 0.54926285E+05</totfact>
</mgrwt>
</event>
<event>
 4    1  0.5810391E+003  0.1087477E+03  0.7546771E-02  0.1262907E+00
         21   -1    0    0  502  501  0.00000000000E+00  0.00000000000E+00  0.12268502287E+03  0.12268502287E+03  0.00000000000E+00 0.  1.
         21   -1    0    0  504  502 -0.00000000000E+00 -0.00000000000E+00 -0.29258329565E+03  0.29258329565E+03  0.00000000000E+00 0.  1.
         21    1    1    2  503  501 -0.57103475812E+02  0.92548654131E+02  0.85075577486E+02  0.13807213410E+03  0.00000000000E+00 0.  1.
         21    1    1    2  504  503  0.57103475812E+02 -0.92548654131E+02 -0.25497385027E+03  0.27719618442E+03  0.00000000000E+00 0.  1.
<mgrwt>
<rscale>  2 0.10874769E+03</rscale>
<asrwt>0</asrwt>
<pdfrwt beam="1">  1       21 0.18874619E-01 0.10874769E+03</pdfrwt>
<pdfrwt beam="2">  1       21 0.45012814E-01 0.10874769E+03</pdfrwt>
<totfact> 0.12551199E+05</totfact>
</mgrwt>
</event>
<event>
 4    1  0.5810391E+003  0.1187054E+03  0.7546771E-02  0.1245248E+00
         21   -1    0    0  503  501  0.00000000000E+00  0.00000000000E+00  0.45142892234E+02  0.45142892234E+02  0.00000000000E+00 0. -1.
         21   -1    0    0  501  502 -0.00000000000E+00 -0.00000000000E+00 -0.54361046095E+03  0.54361046095E+03  0.00000000000E+00 0.  1.
         21    1    1    2  503  504 -0.81889619207E+02  0.85936432411E+02 -0.57143381496E+02  0.13174348636E+03  0.00000000000E+00 0. -1.
         21    1    1    2  504  502  0.81889619207E+02 -0.85936432411E+02 -0.44132418722E+03  0.45700986682E+03  0.00000000000E+00 0.  1.
<mgrwt>
<rscale>  2 0.11870543E+03</rscale>
<asrwt>0</asrwt>
<pdfrwt beam="1">  1       21 0.69450606E-02 0.11870543E+03</pdfrwt>
<pdfrwt beam="2">  1       21 0.83632375E-01 0.11870543E+03</pdfrwt>
<totfact> 0.19506249E+05</totfact>
</mgrwt>
</event>
<event>
 4    1  0.5810391E+003  0.1102169E+03  0.7546771E-02  0.1260169E+00
         21   -1    0    0  503  501  0.00000000000E+00  0.00000000000E+00  0.12155897454E+03  0.12155897454E+03  0.00000000000E+00 0.  1.
         21   -1    0    0  504  502 -0.00000000000E+00 -0.00000000000E+00 -0.15137559166E+03  0.15137559166E+03  0.00000000000E+00 0.  1.
         21    1    1    2  503  502 -0.33595659229E+02 -0.10497186747E+03  0.64645642020E+02  0.12777644662E+03  0.00000000000E+00 0.  1.
         21    1    1    2  504  501  0.33595659229E+02  0.10497186747E+03 -0.94462259138E+02  0.14515811958E+03  0.00000000000E+00 0.  1.
<mgrwt>
<rscale>  2 0.11021688E+03</rscale>
<asrwt>0</asrwt>
<pdfrwt beam="1">  1       21 0.18701381E-01 0.11021688E+03</pdfrwt>
<pdfrwt beam="2">  1       21 0.23288553E-01 0.11021688E+03</pdfrwt>
<totfact> 0.45819218E+05</totfact>
</mgrwt>
</event>
<event>
 4    1  0.5810391E+003  0.1081100E+03  0.7546771E-02  0.1264111E+00
         21   -1    0    0  504  501  0.00000000000E+00  0.00000000000E+00  0.27034088903E+03  0.27034088903E+03  0.00000000000E+00 0.  1.
         21   -1    0    0  503  502 -0.00000000000E+00 -0.00000000000E+00 -0.44845013079E+02  0.44845013079E+02  0.00000000000E+00 0.  1.
         21    1    1    2  503  501 -0.10359766424E+03 -0.30907723210E+02  0.82873047928E+02  0.13621932852E+03  0.00000000000E+00 0.  1.
         21    1    1    2  504  502  0.10359766424E+03  0.30907723210E+02  0.14262282802E+03  0.17896657359E+03  0.00000000000E+00 0.  1.
<mgrwt>
<rscale>  2 0.10810996E+03</rscale>
<asrwt>0</asrwt>
<pdfrwt beam="1">  1       21 0.41590905E-01 0.10810996E+03</pdfrwt>
<pdfrwt beam="2">  1       21 0.68992329E-02 0.10810996E+03</pdfrwt>
<totfact> 0.86514492E+05</totfact>
</mgrwt>
</event>
<event>
 4    1  0.5810391E+003  0.1311261E+03  0.7546771E-02  0.1225794E+00
         21   -1    0    0  503  501  0.00000000000E+00  0.00000000000E+00  0.78609211263E+02  0.78609211263E+02  0.00000000000E+00 0. -1.
         21   -1    0    0  504  502 -0.00000000000E+00 -0.00000000000E+00 -0.27568633403E+03  0.27568633403E+03  0.00000000000E+00 0. -1.
         21    1    1    2  503  502  0.12565139653E+03 -0.37493688090E+02 -0.17905897759E+03  0.22193730545E+03  0.00000000000E+00 0. -1.
         21    1    1    2  504  501 -0.12565139653E+03  0.37493688090E+02 -0.18018145180E+02  0.13235823984E+03  0.00000000000E+00 0. -1.
<mgrwt>
<rscale>  2 0.13112608E+03</rscale>
<asrwt>0</asrwt>
<pdfrwt beam="1">  1       21 0.12093725E-01 0.13112608E+03</pdfrwt>
<pdfrwt beam="2">  1       21 0.42413283E-01 0.13112608E+03</pdfrwt>
<totfact> 0.31348818E+05</totfact>
</mgrwt>
</event>
<event>
 4    1  0.5810391E+003  0.1605107E+03  0.7546771E-02  0.1188121E+00
         21   -1    0    0  504  501  0.00000000000E+00  0.00000000000E+00  0.35936417067E+02  0.35936417067E+02  0.00000000000E+00 0.  1.
         21   -1    0    0  503  502 -0.00000000000E+00 -0.00000000000E+00 -0.78019250226E+03  0.78019250226E+03  0.00000000000E+00 0.  1.
         21    1    1    2  503  501 -0.15864127248E+03 -0.24426252963E+02 -0.25592427712E+03  0.30209424156E+03  0.00000000000E+00 0.  1.
         21    1    1    2  504  502  0.15864127248E+03  0.24426252963E+02 -0.48833180807E+03  0.51403467776E+03  0.00000000000E+00 0.  1.
<mgrwt>
<rscale>  2 0.16051073E+03</rscale>
<asrwt>0</asrwt>
<pdfrwt beam="1">  1       21 0.55286793E-02 0.16051073E+03</pdfrwt>
<pdfrwt beam="2">  1       21 0.12002962E+00 0.16051073E+03</pdfrwt>
<totfact> 0.12132290E+05</totfact>
</mgrwt>
</event>
<event>
 4    1  0.5810391E+003  0.1153764E+03  0.7546771E-02  0.1250925E+00
         21   -1    0    0  504  501  0.00000000000E+00  0.00000000000E+00  0.12846829745E+03  0.12846829745E+03  0.00000000000E+00 0.  1.
         21   -1    0    0  503  502 -0.00000000000E+00 -0.00000000000E+00 -0.51436813423E+03  0.51436813423E+03  0.00000000000E+00 0. -1.
         21    1    1    2  503  501  0.11359537465E+03  0.20194334696E+02  0.94274881550E+02  0.14899487772E+03  0.00000000000E+00 0.  1.
         21    1    1    2  504  502 -0.11359537465E+03 -0.20194334696E+02 -0.48017471833E+03  0.49384155396E+03  0.00000000000E+00 0. -1.
<mgrwt>
<rscale>  2 0.11537643E+03</rscale>
<asrwt>0</asrwt>
<pdfrwt beam="1">  1       21 0.19764354E-01 0.11537643E+03</pdfrwt>
<pdfrwt beam="2">  1       21 0.79133557E-01 0.11537643E+03</pdfrwt>
<totfact> 0.34822374E+04</totfact>
</mgrwt>
</event>
<event>
 4    1  0.5810391E+003  0.1233411E+03  0.7546771E-02  0.1237685E+00
         21   -1    0    0  503  501  0.00000000000E+00  0.00000000000E+00  0.17111834053E+04  0.17111834053E+04  0.00000000000E+00 0.  1.
         21   -1    0    0  504  502 -0.00000000000E+00 -0.00000000000E+00 -0.19748269917E+02  0.19748269917E+02  0.00000000000E+00 0. -1.
         21    1    1    2  503  502  0.53032105411E+02 -0.11135813111E+03  0.14874566769E+04  0.14925616916E+04  0.00000000000E+00 0.  1.
         21    1    1    2  504  501 -0.53032105411E+02  0.11135813111E+03  0.20397845853E+03  0.23836998366E+03  0.00000000000E+00 0. -1.
<mgrwt>
<rscale>  2 0.12334114E+03</rscale>
<asrwt>0</asrwt>
<pdfrwt beam="1">  1       21 0.26325887E+00 0.12334114E+03</pdfrwt>
<pdfrwt beam="2">  1       21 0.30381967E-02 0.12334114E+03</pdfrwt>
<totfact> 0.36869083E+04</totfact>
</mgrwt>
</event>
<event>
 4    1  0.5810391E+003  0.1157516E+03  0.7546771E-02  0.1250275E+00
         21   -1    0    0  504  501  0.00000000000E+00  0.00000000000E+00  0.87277314017E+02  0.87277314017E+02  0.00000000000E+00 0.  1.
         21   -1    0    0  503  502 -0.00000000000E+00 -0.00000000000E+00 -0.15788396906E+03  0.15788396906E+03  0.00000000000E+00 0.  1.
         21    1    1    2  503  501  0.87358984974E+02 -0.75939645180E+02 -0.14913353639E+02  0.11670831197E+03  0.00000000000E+00 0.  1.
         21    1    1    2  504  502 -0.87358984974E+02  0.75939645180E+02 -0.55693301408E+02  0.12845297111E+03  0.00000000000E+00 0.  1.
<mgrwt>
<rscale>  2 0.11575155E+03</rscale>
<asrwt>0</asrwt>
<pdfrwt beam="1">  1       21 0.13427279E-01 0.11575155E+03</pdfrwt>
<pdfrwt beam="2">  1       21 0.24289841E-01 0.11575155E+03</pdfrwt>
<totfact> 0.76984467E+05</totfact>
</mgrwt>
</event>
<event>
 4    1  0.5810391E+003  0.1564929E+03  0.7546771E-02  0.1192714E+00
         21   -1    0    0  502  501  0.00000000000E+00  0.00000000000E+00  0.69686086925E+02  0.69686086925E+02  0.00000000000E+00 0.  1.
         21   -1    0    0  504  502 -0.00000000000E+00 -0.00000000000E+00 -0.35680579635E+03  0.35680579635E+03  0.00000000000E+00 0.  1.
         21    1    1    2  503  501  0.15027648755E+03 -0.43669115495E+02 -0.11739301791E+03  0.19563009741E+03  0.00000000000E+00 0.  1.
         21    1    1    2  504  503 -0.15027648755E+03  0.43669115495E+02 -0.16972669152E+03  0.23086178587E+03  0.00000000000E+00 0.  1.
<mgrwt>
<rscale>  2 0.15649286E+03</rscale>
<asrwt>0</asrwt>
<pdfrwt beam="1">  1       21 0.10720936E-01 0.15649286E+03</pdfrwt>
<pdfrwt beam="2">  1       21 0.54893199E-01 0.15649286E+03</pdfrwt>
<totfact> 0.22696188E+05</totfact>
</mgrwt>
</event>
<event>
 4    1  0.5810391E+003  0.1440348E+03  0.7546771E-02  0.1208001E+00
         21   -1    0    0  503  501  0.00000000000E+00  0.00000000000E+00  0.43139877777E+03  0.43139877777E+03  0.00000000000E+00 0.  1.
         21   -1    0    0  504  502 -0.00000000000E+00 -0.00000000000E+00 -0.48136602928E+02  0.48136602928E+02  0.00000000000E+00 0.  1.
         21    1    1    2  503  502  0.10616878301E+03  0.97335543037E+02  0.18418023747E+03  0.23381269918E+03  0.00000000000E+00 0.  1.
         21    1    1    2  504  501 -0.10616878301E+03 -0.97335543037E+02  0.19908193737E+03  0.24572268151E+03  0.00000000000E+00 0.  1.
<mgrwt>
<rscale>  2 0.14403478E+03</rscale>
<asrwt>0</asrwt>
<pdfrwt beam="1">  1       21 0.66369040E-01 0.14403478E+03</pdfrwt>
<pdfrwt beam="2">  1       21 0.74056315E-02 0.14403478E+03</pdfrwt>
<totfact> 0.28913559E+05</totfact>
</mgrwt>
</event>
<event>
 4    1  0.5810391E+003  0.1041415E+03  0.7546771E-02  0.1271820E+00
         21   -1    0    0  504  501  0.00000000000E+00  0.00000000000E+00  0.65177933675E+03  0.65177933675E+03  0.00000000000E+00 0.  1.
         21   -1    0    0  503  502 -0.00000000000E+00 -0.00000000000E+00 -0.67917858876E+02  0.67917858876E+02  0.00000000000E+00 0. -1.
         21    1    1    2  503  501  0.81006501331E+02 -0.65447618552E+02  0.60460622195E+03  0.61350968017E+03  0.00000000000E+00 0.  1.
         21    1    1    2  504  502 -0.81006501331E+02  0.65447618552E+02 -0.20744744082E+02  0.10618751546E+03  0.00000000000E+00 0. -1.
<mgrwt>
<rscale>  2 0.10414146E+03</rscale>
<asrwt>0</asrwt>
<pdfrwt beam="1">  1       21 0.10027374E+00 0.10414146E+03</pdfrwt>
<pdfrwt beam="2">  1       21 0.10448902E-01 0.10414146E+03</pdfrwt>
<totfact> 0.64144852E+04</totfact>
</mgrwt>
</event>
<event>
 4    1  0.5810391E+003  0.1234631E+03  0.7546771E-02  0.1237491E+00
         21   -1    0    0  504  501  0.00000000000E+00  0.00000000000E+00  0.85563279329E+01  0.85563279329E+01  0.00000000000E+00 0.  1.
         21   -1    0    0  503  502 -0.00000000000E+00 -0.00000000000E+00 -0.17822594569E+04  0.17822594569E+04  0.00000000000E+00 0.  1.
         21    1    1    2  503  501 -0.80701840771E+02 -0.93436405948E+02 -0.90526272464E+03  0.91364311943E+03  0.00000000000E+00 0.  1.
         21    1    1    2  504  502  0.80701840771E+02  0.93436405948E+02 -0.86844040428E+03  0.87717266535E+03  0.00000000000E+00 0.  1.
<mgrwt>
<rscale>  2 0.12346315E+03</rscale>
<asrwt>0</asrwt>
<pdfrwt beam="1">  1       21 0.13163578E-02 0.12346315E+03</pdfrwt>
<pdfrwt beam="2">  1       21 0.27419383E+00 0.12346315E+03</pdfrwt>
<totfact> 0.12321427E+05</totfact>
</mgrwt>
</event>
<event>
 4    1  0.5810391E+003  0.1114868E+03  0.7546771E-02  0.1257841E+00
         21   -1    0    0  503  501  0.00000000000E+00  0.00000000000E+00  0.17414701350E+04  0.17414701350E+04  0.00000000000E+00 0.  1.
         21   -1    0    0  504  502 -0.00000000000E+00 -0.00000000000E+00 -0.81010336909E+01  0.81010336909E+01  0.00000000000E+00 0.  1.
         21    1    1    2  503  502 -0.94408321111E+02  0.59299087709E+02  0.11684159557E+04  0.11737227775E+04  0.00000000000E+00 0.  1.
         21    1    1    2  504  501  0.94408321111E+02 -0.59299087709E+02  0.56495314558E+03  0.57584839116E+03  0.00000000000E+00 0.  1.
<mgrwt>
<rscale>  2 0.11148683E+03</rscale>
<asrwt>0</asrwt>
<pdfrwt beam="1">  1       21 0.26791818E+00 0.11148683E+03</pdfrwt>
<pdfrwt beam="2">  1       21 0.12463143E-02 0.11148683E+03</pdfrwt>
<totfact> 0.14747698E+05</totfact>
</mgrwt>
</event>
<event>
 4    1  0.5810391E+003  0.1286705E+03  0.7546771E-02  0.1229442E+00
         21   -1    0    0  503  501  0.00000000000E+00  0.00000000000E+00  0.22554343161E+03  0.22554343161E+03  0.00000000000E+00 0. -1.
         21   -1    0    0  504  502 -0.00000000000E+00 -0.00000000000E+00 -0.98541850622E+02  0.98541850622E+02  0.00000000000E+00 0.  1.
         21    1    1    2  503  502 -0.78121822001E+02 -0.10224033657E+03 -0.18340212845E+02  0.12997103101E+03  0.00000000000E+00 0.  1.
         21    1    1    2  504  501  0.78121822001E+02  0.10224033657E+03  0.14534179383E+03  0.19411425122E+03  0.00000000000E+00 0. -1.
<mgrwt>
<rscale>  2 0.12867053E+03</rscale>
<asrwt>0</asrwt>
<pdfrwt beam="1">  1       21 0.34698989E-01 0.12867053E+03</pdfrwt>
<pdfrwt beam="2">  1       21 0.15160285E-01 0.12867053E+03</pdfrwt>
<totfact> 0.31203972E+05</totfact>
</mgrwt>
</event>
<event>
 4    1  0.5810391E+003  0.1044842E+03  0.7546771E-02  0.1271139E+00
         21   -1    0    0  502  501  0.00000000000E+00  0.00000000000E+00  0.75078235228E+03  0.75078235228E+03  0.00000000000E+00 0. -1.
         21   -1    0    0  503  502 -0.00000000000E+00 -0.00000000000E+00 -0.10453553964E+03  0.10453553964E+03  0.00000000000E+00 0.  1.
         21    1    1    2  503  504  0.10184798052E+03  0.23322357885E+02 -0.73678952690E+02  0.12784964444E+03  0.00000000000E+00 0.  1.
         21    1    1    2  504  501 -0.10184798052E+03 -0.23322357885E+02  0.71992576533E+03  0.72746824748E+03  0.00000000000E+00 0. -1.
<mgrwt>
<rscale>  2 0.10448418E+03</rscale>
<asrwt>0</asrwt>
<pdfrwt beam="1">  1       21 0.11550497E+00 0.10448418E+03</pdfrwt>
<pdfrwt beam="2">  1       21 0.16082391E-01 0.10448418E+03</pdfrwt>
<totfact> 0.21380262E+04</totfact>
</mgrwt>
</event>
<event>
 4    1  0.5810391E+003  0.1107321E+03  0.7546771E-02  0.1259220E+00
         21   -1    0    0  502  501  0.00000000000E+00  0.00000000000E+00  0.22035793902E+03  0.22035793902E+03  0.00000000000E+00 0. -1.
         21   -1    0    0  504  502 -0.00000000000E+00 -0.00000000000E+00 -0.86655995352E+02  0.86655995352E+02  0.00000000000E+00 0.  1.
         21    1    1    2  503  501  0.61076854021E+02 -0.92364523088E+02  0.15868295321E+03  0.19349900998E+03  0.00000000000E+00 0. -1.
         21    1    1    2  504  503 -0.61076854021E+02  0.92364523088E+02 -0.24981009542E+02  0.11351492439E+03  0.00000000000E+00 0.  1.
<mgrwt>
<rscale>  2 0.11073205E+03</rscale>
<asrwt>0</asrwt>
<pdfrwt beam="1">  1       21 0.33901221E-01 0.11073205E+03</pdfrwt>
<pdfrwt beam="2">  1       21 0.13331692E-01 0.11073205E+03</pdfrwt>
<totfact> 0.41219071E+05</totfact>
</mgrwt>
</event>
<event>
 4    1  0.5810391E+003  0.1583139E+03  0.7546771E-02  0.1190614E+00
         21   -1    0    0  504  501  0.00000000000E+00  0.00000000000E+00  0.92600531354E+02  0.92600531354E+02  0.00000000000E+00 0.  1.
         21   -1    0    0  503  502 -0.00000000000E+00 -0.00000000000E+00 -0.61574155506E+03  0.61574155506E+03  0.00000000000E+00 0.  1.
         21    1    1    2  503  501  0.49468213329E+02 -0.15038673944E+03 -0.52671010471E+03  0.54998800890E+03  0.00000000000E+00 0.  1.
         21    1    1    2  504  502 -0.49468213329E+02  0.15038673944E+03  0.35690810005E+01  0.15835407752E+03  0.00000000000E+00 0.  1.
<mgrwt>
<rscale>  2 0.15831385E+03</rscale>
<asrwt>0</asrwt>
<pdfrwt beam="1">  1       21 0.14246236E-01 0.15831385E+03</pdfrwt>
<pdfrwt beam="2">  1       21 0.94729466E-01 0.15831385E+03</pdfrwt>
<totfact> 0.40935361E+04</totfact>
</mgrwt>
</event>
<event>
 4    1  0.5810391E+003  0.1042122E+03  0.7546771E-02  0.1271680E+00
         21   -1    0    0  504  501  0.00000000000E+00  0.00000000000E+00  0.37824806845E+02  0.37824806845E+02  0.00000000000E+00 0.  1.
         21   -1    0    0  503  502 -0.00000000000E+00 -0.00000000000E+00 -0.75420573818E+03  0.75420573818E+03  0.00000000000E+00 0. -1.
         21    1    1    2  503  501 -0.31026399906E+02 -0.99486406222E+02 -0.66983983815E+03  0.67789792099E+03  0.00000000000E+00 0. -1.
         21    1    1    2  504  502  0.31026399906E+02  0.99486406222E+02 -0.46541093189E+02  0.11413262404E+03  0.00000000000E+00 0.  1.
<mgrwt>
<rscale>  2 0.10421220E+03</rscale>
<asrwt>0</asrwt>
<pdfrwt beam="1">  1       21 0.58192019E-02 0.10421220E+03</pdfrwt>
<pdfrwt beam="2">  1       21 0.11603163E+00 0.10421220E+03</pdfrwt>
<totfact> 0.12381551E+05</totfact>
</mgrwt>
</event>
<event>
 4    1  0.5810391E+003  0.3709237E+03  0.7546771E-02  0.1054340E+00
         21   -1    0    0  502  501  0.00000000000E+00  0.00000000000E+00  0.76699554407E+03  0.76699554407E+03  0.00000000000E+00 0.  1.
         21   -1    0    0  504  502 -0.00000000000E+00 -0.00000000000E+00 -0.13632163238E+04  0.13632163238E+04  0.00000000000E+00 0.  1.
         21    1    1    2  503  501  0.51077412409E+02  0.36739010804E+03  0.69444801371E+03  0.78730072862E+03  0.00000000000E+00 0.  1.
         21    1    1    2  504  503 -0.51077412409E+02 -0.36739010804E+03 -0.12906687934E+04  0.13429111392E+04  0.00000000000E+00 0.  1.
<mgrwt>
<rscale>  2 0.37092370E+03</rscale>
<asrwt>0</asrwt>
<pdfrwt beam="1">  1       21 0.11799932E+00 0.37092370E+03</pdfrwt>
<pdfrwt beam="2">  1       21 0.20972559E+00 0.37092370E+03</pdfrwt>
<totfact> 0.52912042E+01</totfact>
</mgrwt>
</event>
<event>
 4    1  0.5810391E+003  0.1415157E+03  0.7546771E-02  0.1211304E+00
         21   -1    0    0  503  501  0.00000000000E+00  0.00000000000E+00  0.21150407213E+03  0.21150407213E+03  0.00000000000E+00 0.  1.
         21   -1    0    0  504  502 -0.00000000000E+00 -0.00000000000E+00 -0.26116284067E+03  0.26116284067E+03  0.00000000000E+00 0.  1.
         21    1    1    2  503  502  0.18318600706E+02  0.14032501908E+03  0.16385899213E+03  0.21650970281E+03  0.00000000000E+00 0.  1.
         21    1    1    2  504  501 -0.18318600706E+02 -0.14032501908E+03 -0.21351776067E+03  0.25615720999E+03  0.00000000000E+00 0.  1.
<mgrwt>
<rscale>  2 0.14151566E+03</rscale>
<asrwt>0</asrwt>
<pdfrwt beam="1">  1       21 0.32539088E-01 0.14151566E+03</pdfrwt>
<pdfrwt beam="2">  1       21 0.40178898E-01 0.14151566E+03</pdfrwt>
<totfact> 0.55585688E+04</totfact>
</mgrwt>
</event>
<event>
 4    1  0.5810391E+003  0.1160254E+03  0.7546771E-02  0.1249802E+00
         21   -1    0    0  502  501  0.00000000000E+00  0.00000000000E+00  0.27765989534E+03  0.27765989534E+03  0.00000000000E+00 0. -1.
         21   -1    0    0  503  502 -0.00000000000E+00 -0.00000000000E+00 -0.55072771963E+02  0.55072771963E+02  0.00000000000E+00 0. -1.
         21    1    1    2  503  504 -0.57289207562E+02 -0.10089518008E+03  0.53746971524E+02  0.12786957267E+03  0.00000000000E+00 0. -1.
         21    1    1    2  504  501  0.57289207562E+02  0.10089518008E+03  0.16884015185E+03  0.20486309463E+03  0.00000000000E+00 0. -1.
<mgrwt>
<rscale>  2 0.11602539E+03</rscale>
<asrwt>0</asrwt>
<pdfrwt beam="1">  1       21 0.42716906E-01 0.11602539E+03</pdfrwt>
<pdfrwt beam="2">  1       21 0.84727343E-02 0.11602539E+03</pdfrwt>
<totfact> 0.57673903E+05</totfact>
</mgrwt>
</event>
<event>
 4    1  0.5810391E+003  0.1035459E+03  0.7546771E-02  0.1273011E+00
         21   -1    0    0  502  501  0.00000000000E+00  0.00000000000E+00  0.17031769801E+02  0.17031769801E+02  0.00000000000E+00 0.  1.
         21   -1    0    0  503  502 -0.00000000000E+00 -0.00000000000E+00 -0.14172920105E+04  0.14172920105E+04  0.00000000000E+00 0.  1.
         21    1    1    2  503  504  0.81828054445E+02 -0.63450091310E+02 -0.12348044661E+04  0.12391383354E+04  0.00000000000E+00 0.  1.
         21    1    1    2  504  501 -0.81828054445E+02  0.63450091310E+02 -0.16545577461E+03  0.19518544498E+03  0.00000000000E+00 0.  1.
<mgrwt>
<rscale>  2 0.10354586E+03</rscale>
<asrwt>0</asrwt>
<pdfrwt beam="1">  1       21 0.26202725E-02 0.10354586E+03</pdfrwt>
<pdfrwt beam="2">  1       21 0.21804490E+00 0.10354586E+03</pdfrwt>
<totfact> 0.87417110E+04</totfact>
</mgrwt>
</event>
<event>
 4    1  0.5810391E+003  0.1057070E+03  0.7546771E-02  0.1268733E+00
         21   -1    0    0  503  501  0.00000000000E+00  0.00000000000E+00  0.20085137076E+03  0.20085137076E+03  0.00000000000E+00 0. -1.
         21   -1    0    0  504  502 -0.00000000000E+00 -0.00000000000E+00 -0.82786229328E+02  0.82786229328E+02  0.00000000000E+00 0. -1.
         21    1    1    2  503  502  0.10554880855E+03 -0.57804965307E+01  0.14025303477E+03  0.17562710181E+03  0.00000000000E+00 0. -1.
         21    1    1    2  504  501 -0.10554880855E+03  0.57804965307E+01 -0.22187893342E+02  0.10801049828E+03  0.00000000000E+00 0. -1.
<mgrwt>
<rscale>  2 0.10570698E+03</rscale>
<asrwt>0</asrwt>
<pdfrwt beam="1">  1       21 0.30900211E-01 0.10570698E+03</pdfrwt>
<pdfrwt beam="2">  1       21 0.12736343E-01 0.10570698E+03</pdfrwt>
<totfact> 0.53504573E+05</totfact>
</mgrwt>
</event>
<event>
 4    1  0.5810391E+003  0.1379833E+03  0.7546771E-02  0.1216069E+00
         21   -1    0    0  503  501  0.00000000000E+00  0.00000000000E+00  0.36218185686E+02  0.36218185686E+02  0.00000000000E+00 0.  1.
         21   -1    0    0  504  502 -0.00000000000E+00 -0.00000000000E+00 -0.52699743344E+03  0.52699743344E+03  0.00000000000E+00 0. -1.
         21    1    1    2  503  502 -0.11749329478E+03 -0.72351415141E+02 -0.23134290066E+03  0.26936766561E+03  0.00000000000E+00 0.  1.
         21    1    1    2  504  501  0.11749329478E+03  0.72351415141E+02 -0.25943634710E+03  0.29384795352E+03  0.00000000000E+00 0. -1.
<mgrwt>
<rscale>  2 0.13798334E+03</rscale>
<asrwt>0</asrwt>
<pdfrwt beam="1">  1       21 0.55720289E-02 0.13798334E+03</pdfrwt>
<pdfrwt beam="2">  1       21 0.81076524E-01 0.13798334E+03</pdfrwt>
<totfact> 0.30253830E+05</totfact>
</mgrwt>
</event>
<event>
 4    1  0.5810391E+003  0.1052293E+03  0.7546771E-02  0.1269669E+00
         21   -1    0    0  503  501  0.00000000000E+00  0.00000000000E+00  0.73691643015E+03  0.73691643015E+03  0.00000000000E+00 0.  1.
         21   -1    0    0  504  502 -0.00000000000E+00 -0.00000000000E+00 -0.20319439820E+02  0.20319439820E+02  0.00000000000E+00 0.  1.
         21    1    1    2  503  502  0.95637590451E+02 -0.43893614404E+02  0.16505803541E+03  0.19574818811E+03  0.00000000000E+00 0.  1.
         21    1    1    2  504  501 -0.95637590451E+02  0.43893614404E+02  0.55153895492E+03  0.56148768186E+03  0.00000000000E+00 0.  1.
<mgrwt>
<rscale>  2 0.10522926E+03</rscale>
<asrwt>0</asrwt>
<pdfrwt beam="1">  1       21 0.11337174E+00 0.10522926E+03</pdfrwt>
<pdfrwt beam="2">  1       21 0.31260682E-02 0.10522926E+03</pdfrwt>
<totfact> 0.36656310E+05</totfact>
</mgrwt>
</event>
<event>
 4    1  0.5810391E+003  0.1927239E+03  0.7546771E-02  0.1156027E+00
         21   -1    0    0  503  501  0.00000000000E+00  0.00000000000E+00  0.21183687331E+04  0.21183687331E+04  0.00000000000E+00 0. -1.
         21   -1    0    0  504  502 -0.00000000000E+00 -0.00000000000E+00 -0.40467829568E+02  0.40467829568E+02  0.00000000000E+00 0. -1.
         21    1    1    2  503  502 -0.19253601827E+03  0.85075926540E+01  0.18515516964E+04  0.18615547754E+04  0.00000000000E+00 0. -1.
         21    1    1    2  504  501  0.19253601827E+03 -0.85075926540E+01  0.22634920717E+03  0.29728178729E+03  0.00000000000E+00 0. -1.
<mgrwt>
<rscale>  2 0.19272389E+03</rscale>
<asrwt>0</asrwt>
<pdfrwt beam="1">  1       21 0.32590280E+00 0.19272389E+03</pdfrwt>
<pdfrwt beam="2">  1       21 0.62258216E-02 0.19272389E+03</pdfrwt>
<totfact> 0.44765987E+03</totfact>
</mgrwt>
</event>
<event>
 4    1  0.5810391E+003  0.1132614E+03  0.7546771E-02  0.1254647E+00
         21   -1    0    0  503  501  0.00000000000E+00  0.00000000000E+00  0.17839864561E+02  0.17839864561E+02  0.00000000000E+00 0. -1.
         21   -1    0    0  501  502 -0.00000000000E+00 -0.00000000000E+00 -0.10276908696E+04  0.10276908696E+04  0.00000000000E+00 0.  1.
         21    1    1    2  503  504  0.92153934745E+02 -0.65846778515E+02 -0.21845042682E+03  0.24606652537E+03  0.00000000000E+00 0. -1.
         21    1    1    2  504  502 -0.92153934745E+02  0.65846778515E+02 -0.79140057818E+03  0.79946420875E+03  0.00000000000E+00 0.  1.
<mgrwt>
<rscale>  2 0.11326141E+03</rscale>
<asrwt>0</asrwt>
<pdfrwt beam="1">  1       21 0.27445944E-02 0.11326141E+03</pdfrwt>
<pdfrwt beam="2">  1       21 0.15810630E+00 0.11326141E+03</pdfrwt>
<totfact> 0.19708867E+05</totfact>
</mgrwt>
</event>
<event>
 4    1  0.5810391E+003  0.1015505E+03  0.7546771E-02  0.1277069E+00
         21   -1    0    0  502  501  0.00000000000E+00  0.00000000000E+00  0.90106014284E+02  0.90106014284E+02  0.00000000000E+00 0.  1.
         21   -1    0    0  503  502 -0.00000000000E+00 -0.00000000000E+00 -0.22536017147E+03  0.22536017147E+03  0.00000000000E+00 0.  1.
         21    1    1    2  503  504 -0.78635082863E+01  0.10124555093E+03 -0.17828255234E+03  0.20517593625E+03  0.00000000000E+00 0.  1.
         21    1    1    2  504  501  0.78635082863E+01 -0.10124555093E+03  0.43028395156E+02  0.11029024950E+03  0.00000000000E+00 0.  1.
<mgrwt>
<rscale>  2 0.10155046E+03</rscale>
<asrwt>0</asrwt>
<pdfrwt beam="1">  1       21 0.13862464E-01 0.10155046E+03</pdfrwt>
<pdfrwt beam="2">  1       21 0.34670796E-01 0.10155046E+03</pdfrwt>
<totfact> 0.36842352E+05</totfact>
</mgrwt>
</event>
<event>
 4    1  0.5810391E+003  0.1033592E+03  0.7546771E-02  0.1273386E+00
         21   -1    0    0  504  501  0.00000000000E+00  0.00000000000E+00  0.23006572373E+03  0.23006572373E+03  0.00000000000E+00 0. -1.
         21   -1    0    0  501  502 -0.00000000000E+00 -0.00000000000E+00 -0.97210479732E+02  0.97210479732E+02  0.00000000000E+00 0. -1.
         21    1    1    2  503  502 -0.10313314494E+03 -0.68325287627E+01 -0.51836878705E+02  0.11562954220E+03  0.00000000000E+00 0. -1.
         21    1    1    2  504  503  0.10313314494E+03  0.68325287627E+01  0.18469212270E+03  0.21164666126E+03  0.00000000000E+00 0. -1.
<mgrwt>
<rscale>  2 0.10335922E+03</rscale>
<asrwt>0</asrwt>
<pdfrwt beam="1">  1       21 0.35394727E-01 0.10335922E+03</pdfrwt>
<pdfrwt beam="2">  1       21 0.14955458E-01 0.10335922E+03</pdfrwt>
<totfact> 0.30892588E+05</totfact>
</mgrwt>
</event>
<event>
 4    1  0.5810391E+003  0.1143460E+03  0.7546771E-02  0.1252727E+00
         21   -1    0    0  503  501  0.00000000000E+00  0.00000000000E+00  0.14094153666E+03  0.14094153666E+03  0.00000000000E+00 0. -1.
         21   -1    0    0  504  502 -0.00000000000E+00 -0.00000000000E+00 -0.10495578665E+03  0.10495578665E+03  0.00000000000E+00 0. -1.
         21    1    1    2  503  502  0.10662683322E+03 -0.41300536078E+02 -0.23902289237E+02  0.11681752982E+03  0.00000000000E+00 0. -1.
         21    1    1    2  504  501 -0.10662683322E+03  0.41300536078E+02  0.59888039243E+02  0.12907979349E+03  0.00000000000E+00 0. -1.
<mgrwt>
<rscale>  2 0.11434604E+03</rscale>
<asrwt>0</asrwt>
<pdfrwt beam="1">  1       21 0.21683313E-01 0.11434604E+03</pdfrwt>
<pdfrwt beam="2">  1       21 0.16147044E-01 0.11434604E+03</pdfrwt>
<totfact> 0.68344557E+05</totfact>
</mgrwt>
</event>
<event>
 4    1  0.5810391E+003  0.1143319E+03  0.7546771E-02  0.1252752E+00
         21   -1    0    0  504  501  0.00000000000E+00  0.00000000000E+00  0.53272241822E+03  0.53272241822E+03  0.00000000000E+00 0.  1.
         21   -1    0    0  501  502 -0.00000000000E+00 -0.00000000000E+00 -0.27106130153E+02  0.27106130153E+02  0.00000000000E+00 0.  1.
         21    1    1    2  503  502  0.98988320182E+02  0.57210951654E+02  0.16664420582E+03  0.20209421530E+03  0.00000000000E+00 0.  1.
         21    1    1    2  504  503 -0.98988320182E+02 -0.57210951654E+02  0.33897208224E+03  0.35773433308E+03  0.00000000000E+00 0.  1.
<mgrwt>
<rscale>  2 0.11433189E+03</rscale>
<asrwt>0</asrwt>
<pdfrwt beam="1">  1       21 0.81957288E-01 0.11433189E+03</pdfrwt>
<pdfrwt beam="2">  1       21 0.41701743E-02 0.11433189E+03</pdfrwt>
<totfact> 0.48185918E+05</totfact>
</mgrwt>
</event>
<event>
 4    1  0.5810391E+003  0.1051491E+03  0.7546771E-02  0.1269826E+00
         21   -1    0    0  503  501  0.00000000000E+00  0.00000000000E+00  0.39056754864E+02  0.39056754864E+02  0.00000000000E+00 0.  1.
         21   -1    0    0  504  502 -0.00000000000E+00 -0.00000000000E+00 -0.37087201998E+03  0.37087201998E+03  0.00000000000E+00 0. -1.
         21    1    1    2  503  502  0.10384473572E+03  0.16510849418E+02 -0.26562810432E+03  0.28568273853E+03  0.00000000000E+00 0. -1.
         21    1    1    2  504  501 -0.10384473572E+03 -0.16510849418E+02 -0.66187160791E+02  0.12424603631E+03  0.00000000000E+00 0.  1.
<mgrwt>
<rscale>  2 0.10514912E+03</rscale>
<asrwt>0</asrwt>
<pdfrwt beam="1">  1       21 0.60087314E-02 0.10514912E+03</pdfrwt>
<pdfrwt beam="2">  1       21 0.57057235E-01 0.10514912E+03</pdfrwt>
<totfact> 0.57272660E+05</totfact>
</mgrwt>
</event>
<event>
 4    1  0.5810391E+003  0.1028640E+03  0.7546771E-02  0.1274386E+00
         21   -1    0    0  504  501  0.00000000000E+00  0.00000000000E+00  0.12450619337E+04  0.12450619337E+04  0.00000000000E+00 0. -1.
         21   -1    0    0  503  502 -0.00000000000E+00 -0.00000000000E+00 -0.89052184721E+01  0.89052184721E+01  0.00000000000E+00 0. -1.
         21    1    1    2  503  501 -0.56598564066E+02 -0.85892961924E+02  0.75209219091E+03  0.75909397441E+03  0.00000000000E+00 0. -1.
         21    1    1    2  504  502  0.56598564066E+02  0.85892961924E+02  0.48406452433E+03  0.49487317777E+03  0.00000000000E+00 0. -1.
<mgrwt>
<rscale>  2 0.10286398E+03</rscale>
<asrwt>0</asrwt>
<pdfrwt beam="1">  1       21 0.19154785E+00 0.10286398E+03</pdfrwt>
<pdfrwt beam="2">  1       21 0.13700346E-02 0.10286398E+03</pdfrwt>
<totfact> 0.35947288E+05</totfact>
</mgrwt>
</event>
<event>
 4    1  0.5810391E+003  0.1358772E+03  0.7546771E-02  0.1218987E+00
         21   -1    0    0  504  501  0.00000000000E+00  0.00000000000E+00  0.41660817527E+02  0.41660817527E+02  0.00000000000E+00 0. -1.
         21   -1    0    0  503  502 -0.00000000000E+00 -0.00000000000E+00 -0.44684700551E+03  0.44684700551E+03  0.00000000000E+00 0. -1.
         21    1    1    2  503  501 -0.25140797712E+01 -0.13585391161E+03 -0.18042037756E+03  0.22586305262E+03  0.00000000000E+00 0. -1.
         21    1    1    2  504  502  0.25140797712E+01  0.13585391161E+03 -0.22476581042E+03  0.26264477043E+03  0.00000000000E+00 0. -1.
<mgrwt>
<rscale>  2 0.13587717E+03</rscale>
<asrwt>0</asrwt>
<pdfrwt beam="1">  1       21 0.64093564E-02 0.13587717E+03</pdfrwt>
<pdfrwt beam="2">  1       21 0.68745695E-01 0.13587717E+03</pdfrwt>
<totfact> 0.34361192E+05</totfact>
</mgrwt>
</event>
<event>
 4    1  0.5810391E+003  0.1035521E+03  0.7546771E-02  0.1272999E+00
         21   -1    0    0  504  501  0.00000000000E+00  0.00000000000E+00  0.14114143570E+02  0.14114143570E+02  0.00000000000E+00 0. -1.
         21   -1    0    0  503  502 -0.00000000000E+00 -0.00000000000E+00 -0.76324369809E+03  0.76324369809E+03  0.00000000000E+00 0. -1.
         21    1    1    2  503  501 -0.10348056060E+03  0.38492460245E+01 -0.34822075199E+03  0.36329152926E+03  0.00000000000E+00 0. -1.
         21    1    1    2  504  502  0.10348056060E+03 -0.38492460245E+01 -0.40090880253E+03  0.41406631240E+03  0.00000000000E+00 0. -1.
<mgrwt>
<rscale>  2 0.10355213E+03</rscale>
<asrwt>0</asrwt>
<pdfrwt beam="1">  1       21 0.21714060E-02 0.10355213E+03</pdfrwt>
<pdfrwt beam="2">  1       21 0.11742215E+00 0.10355213E+03</pdfrwt>
<totfact> 0.60894288E+05</totfact>
</mgrwt>
</event>
<event>
 4    1  0.5810391E+003  0.1642988E+03  0.7546771E-02  0.1183927E+00
         21   -1    0    0  503  501  0.00000000000E+00  0.00000000000E+00  0.23823113250E+03  0.23823113250E+03  0.00000000000E+00 0.  1.
         21   -1    0    0  504  502 -0.00000000000E+00 -0.00000000000E+00 -0.17309922382E+03  0.17309922382E+03  0.00000000000E+00 0.  1.
         21    1    1    2  503  502  0.84779833692E+02 -0.14073549264E+03  0.15343711429E+03  0.22480446421E+03  0.00000000000E+00 0.  1.
         21    1    1    2  504  501 -0.84779833692E+02  0.14073549264E+03 -0.88305205608E+02  0.18652589211E+03  0.00000000000E+00 0.  1.
<mgrwt>
<rscale>  2 0.16429881E+03</rscale>
<asrwt>0</asrwt>
<pdfrwt beam="1">  1       21 0.36650943E-01 0.16429881E+03</pdfrwt>
<pdfrwt beam="2">  1       21 0.26630650E-01 0.16429881E+03</pdfrwt>
<totfact> 0.97431434E+04</totfact>
</mgrwt>
</event>
<event>
 4    1  0.5810391E+003  0.1265389E+03  0.7546771E-02  0.1232684E+00
         21   -1    0    0  504  501  0.00000000000E+00  0.00000000000E+00  0.19620064507E+03  0.19620064507E+03  0.00000000000E+00 0.  1.
         21   -1    0    0  503  502 -0.00000000000E+00 -0.00000000000E+00 -0.19552901707E+03  0.19552901707E+03  0.00000000000E+00 0.  1.
         21    1    1    2  503  501  0.11163868093E+03 -0.59572693873E+02 -0.14916630654E+03  0.19560850682E+03  0.00000000000E+00 0.  1.
         21    1    1    2  504  502 -0.11163868093E+03  0.59572693873E+02  0.14983793454E+03  0.19612115531E+03  0.00000000000E+00 0.  1.
<mgrwt>
<rscale>  2 0.12653893E+03</rscale>
<asrwt>0</asrwt>
<pdfrwt beam="1">  1       21 0.30184715E-01 0.12653893E+03</pdfrwt>
<pdfrwt beam="2">  1       21 0.30081387E-01 0.12653893E+03</pdfrwt>
<totfact> 0.11433132E+05</totfact>
</mgrwt>
</event>
<event>
 4    1  0.5810391E+003  0.1044596E+03  0.7546771E-02  0.1271188E+00
         21   -1    0    0  504  501  0.00000000000E+00  0.00000000000E+00  0.17960056370E+04  0.17960056370E+04  0.00000000000E+00 0.  1.
         21   -1    0    0  501  502 -0.00000000000E+00 -0.00000000000E+00 -0.85987348268E+01  0.85987348268E+01  0.00000000000E+00 0. -1.
         21    1    1    2  503  502 -0.15234876242E+02 -0.10334270607E+03  0.40493322259E+03  0.41818982664E+03  0.00000000000E+00 0. -1.
         21    1    1    2  504  503  0.15234876242E+02  0.10334270607E+03  0.13824736796E+04  0.13864145452E+04  0.00000000000E+00 0.  1.
<mgrwt>
<rscale>  2 0.10445964E+03</rscale>
<asrwt>0</asrwt>
<pdfrwt beam="1">  1       21 0.27630826E+00 0.10445964E+03</pdfrwt>
<pdfrwt beam="2">  1       21 0.13228837E-02 0.10445964E+03</pdfrwt>
<totfact> 0.12145042E+05</totfact>
</mgrwt>
</event>
<event>
 4    1  0.5810391E+003  0.1051372E+03  0.7546771E-02  0.1269850E+00
         21   -1    0    0  504  501  0.00000000000E+00  0.00000000000E+00  0.18700617577E+03  0.18700617577E+03  0.00000000000E+00 0. -1.
         21   -1    0    0  503  502 -0.00000000000E+00 -0.00000000000E+00 -0.83928925710E+02  0.83928925710E+02  0.00000000000E+00 0. -1.
         21    1    1    2  503  501  0.70827447879E+02  0.77700026608E+02 -0.22128928672E+02  0.10744073246E+03  0.00000000000E+00 0. -1.
         21    1    1    2  504  502 -0.70827447879E+02 -0.77700026608E+02  0.12520617873E+03  0.16349436902E+03  0.00000000000E+00 0. -1.
<mgrwt>
<rscale>  2 0.10513716E+03</rscale>
<asrwt>0</asrwt>
<pdfrwt beam="1">  1       21 0.28770181E-01 0.10513716E+03</pdfrwt>
<pdfrwt beam="2">  1       21 0.12912143E-01 0.10513716E+03</pdfrwt>
<totfact> 0.59883845E+05</totfact>
</mgrwt>
</event>
<event>
 4    1  0.5810391E+003  0.1130836E+03  0.7546771E-02  0.1254964E+00
         21   -1    0    0  502  501  0.00000000000E+00  0.00000000000E+00  0.60936490174E+02  0.60936490174E+02  0.00000000000E+00 0. -1.
         21   -1    0    0  504  502 -0.00000000000E+00 -0.00000000000E+00 -0.27089619756E+03  0.27089619756E+03  0.00000000000E+00 0.  1.
         21    1    1    2  503  501  0.33124385580E+02  0.10812342165E+03 -0.26221790232E+02  0.11608394167E+03  0.00000000000E+00 0. -1.
         21    1    1    2  504  503 -0.33124385580E+02 -0.10812342165E+03 -0.18373791715E+03  0.21574874606E+03  0.00000000000E+00 0.  1.
<mgrwt>
<rscale>  2 0.11308359E+03</rscale>
<asrwt>0</asrwt>
<pdfrwt beam="1">  1       21 0.93748447E-02 0.11308359E+03</pdfrwt>
<pdfrwt beam="2">  1       21 0.41676338E-01 0.11308359E+03</pdfrwt>
<totfact> 0.50875649E+05</totfact>
</mgrwt>
</event>
<event>
 4    1  0.5810391E+003  0.1066810E+03  0.7546771E-02  0.1266843E+00
         21   -1    0    0  504  501  0.00000000000E+00  0.00000000000E+00  0.21478867402E+02  0.21478867402E+02  0.00000000000E+00 0.  1.
         21   -1    0    0  503  502 -0.00000000000E+00 -0.00000000000E+00 -0.58115732888E+03  0.58115732888E+03  0.00000000000E+00 0. -1.
         21    1    1    2  503  501  0.73646817969E+02 -0.77181497184E+02 -0.36935858467E+03  0.38445624117E+03  0.00000000000E+00 0. -1.
         21    1    1    2  504  502 -0.73646817969E+02  0.77181497184E+02 -0.19031987680E+03  0.21817995510E+03  0.00000000000E+00 0.  1.
<mgrwt>
<rscale>  2 0.10668101E+03</rscale>
<asrwt>0</asrwt>
<pdfrwt beam="1">  1       21 0.33044413E-02 0.10668101E+03</pdfrwt>
<pdfrwt beam="2">  1       21 0.89408816E-01 0.10668101E+03</pdfrwt>
<totfact> 0.58181905E+05</totfact>
</mgrwt>
</event>
<event>
 4    1  0.5810391E+003  0.1249925E+03  0.7546771E-02  0.1235081E+00
         21   -1    0    0  502  501  0.00000000000E+00  0.00000000000E+00  0.14632078348E+04  0.14632078348E+04  0.00000000000E+00 0.  1.
         21   -1    0    0  504  502 -0.00000000000E+00 -0.00000000000E+00 -0.15229727883E+03  0.15229727883E+03  0.00000000000E+00 0.  1.
         21    1    1    2  503  501 -0.10847164653E+03 -0.62105050143E+02  0.14343782361E+04  0.14398138975E+04  0.00000000000E+00 0.  1.
         21    1    1    2  504  503  0.10847164653E+03  0.62105050143E+02 -0.12346768017E+03  0.17569121606E+03  0.00000000000E+00 0.  1.
<mgrwt>
<rscale>  2 0.12499254E+03</rscale>
<asrwt>0</asrwt>
<pdfrwt beam="1">  1       21 0.22510889E+00 0.12499254E+03</pdfrwt>
<pdfrwt beam="2">  1       21 0.23430352E-01 0.12499254E+03</pdfrwt>
<totfact> 0.17546808E+03</totfact>
</mgrwt>
</event>
<event>
 4    1  0.5810391E+003  0.1462801E+03  0.7546771E-02  0.1205120E+00
         21   -1    0    0  503  501  0.00000000000E+00  0.00000000000E+00  0.14146114130E+03  0.14146114130E+03  0.00000000000E+00 0.  1.
         21   -1    0    0  504  502 -0.00000000000E+00 -0.00000000000E+00 -0.15178341941E+03  0.15178341941E+03  0.00000000000E+00 0.  1.
         21    1    1    2  503  502 -0.19591588416E+02  0.14496217843E+03 -0.13745049965E+02  0.14692443606E+03  0.00000000000E+00 0.  1.
         21    1    1    2  504  501  0.19591588416E+02 -0.14496217843E+03  0.34227718496E+01  0.14632012466E+03  0.00000000000E+00 0.  1.
<mgrwt>
<rscale>  2 0.14628009E+03</rscale>
<asrwt>0</asrwt>
<pdfrwt beam="1">  1       21 0.21763253E-01 0.14628009E+03</pdfrwt>
<pdfrwt beam="2">  1       21 0.23351295E-01 0.14628009E+03</pdfrwt>
<totfact> 0.34287412E+05</totfact>
</mgrwt>
</event>
<event>
 4    1  0.5810391E+003  0.2081081E+03  0.7546771E-02  0.1143073E+00
         21   -1    0    0  504  501  0.00000000000E+00  0.00000000000E+00  0.81771786898E+02  0.81771786898E+02  0.00000000000E+00 0. -1.
         21   -1    0    0  503  502 -0.00000000000E+00 -0.00000000000E+00 -0.67568745052E+03  0.67568745052E+03  0.00000000000E+00 0. -1.
         21    1    1    2  503  501  0.55764275089E+02  0.20049772177E+03 -0.47303967600E+03  0.51679350410E+03  0.00000000000E+00 0. -1.
         21    1    1    2  504  502 -0.55764275089E+02 -0.20049772177E+03 -0.12087598763E+03  0.24066573332E+03  0.00000000000E+00 0. -1.
<mgrwt>
<rscale>  2 0.20810812E+03</rscale>
<asrwt>0</asrwt>
<pdfrwt beam="1">  1       21 0.12580275E-01 0.20810812E+03</pdfrwt>
<pdfrwt beam="2">  1       21 0.10395192E+00 0.20810812E+03</pdfrwt>
<totfact> 0.40019559E+04</totfact>
</mgrwt>
</event>
<event>
 4    1  0.5810391E+003  0.1232295E+03  0.7546771E-02  0.1237862E+00
         21   -1    0    0  503  501  0.00000000000E+00  0.00000000000E+00  0.13690133585E+04  0.13690133585E+04  0.00000000000E+00 0. -1.
         21   -1    0    0  504  502 -0.00000000000E+00 -0.00000000000E+00 -0.11937581150E+02  0.11937581150E+02  0.00000000000E+00 0. -1.
         21    1    1    2  503  502 -0.86261365059E+02 -0.88002825784E+02  0.49480448041E+03  0.50991861535E+03  0.00000000000E+00 0. -1.
         21    1    1    2  504  501  0.86261365059E+02  0.88002825784E+02  0.86227129692E+03  0.87103232428E+03  0.00000000000E+00 0. -1.
<mgrwt>
<rscale>  2 0.12322954E+03</rscale>
<asrwt>0</asrwt>
<pdfrwt beam="1">  1       21 0.21061732E+00 0.12322954E+03</pdfrwt>
<pdfrwt beam="2">  1       21 0.18365520E-02 0.12322954E+03</pdfrwt>
<totfact> 0.16930663E+05</totfact>
</mgrwt>
</event>
<event>
 4    1  0.5810391E+003  0.1374533E+03  0.7546771E-02  0.1216797E+00
         21   -1    0    0  503  501  0.00000000000E+00  0.00000000000E+00  0.62314767043E+03  0.62314767043E+03  0.00000000000E+00 0.  1.
         21   -1    0    0  501  502 -0.00000000000E+00 -0.00000000000E+00 -0.28525258243E+03  0.28525258243E+03  0.00000000000E+00 0.  1.
         21    1    1    2  503  504  0.87875541139E+02 -0.10569441531E+03  0.59833138965E+03  0.61391682824E+03  0.00000000000E+00 0.  1.
         21    1    1    2  504  502 -0.87875541139E+02  0.10569441531E+03 -0.26043630165E+03  0.29448342462E+03  0.00000000000E+00 0.  1.
<mgrwt>
<rscale>  2 0.13745334E+03</rscale>
<asrwt>0</asrwt>
<pdfrwt beam="1">  1       21 0.95868872E-01 0.13745334E+03</pdfrwt>
<pdfrwt beam="2">  1       21 0.43885013E-01 0.13745334E+03</pdfrwt>
<totfact> 0.47507711E+03</totfact>
</mgrwt>
</event>
<event>
 4    1  0.5810391E+003  0.1292836E+03  0.7546771E-02  0.1228523E+00
         21   -1    0    0  502  501  0.00000000000E+00  0.00000000000E+00  0.17687373078E+04  0.17687373078E+04  0.00000000000E+00 0. -1.
         21   -1    0    0  504  502 -0.00000000000E+00 -0.00000000000E+00 -0.37117558540E+03  0.37117558540E+03  0.00000000000E+00 0. -1.
         21    1    1    2  503  501  0.10212726603E+03  0.79273401956E+02  0.17550293978E+04  0.17597847704E+04  0.00000000000E+00 0. -1.
         21    1    1    2  504  503 -0.10212726603E+03 -0.79273401956E+02 -0.35746767548E+03  0.38012812279E+03  0.00000000000E+00 0. -1.
<mgrwt>
<rscale>  2 0.12928361E+03</rscale>
<asrwt>0</asrwt>
<pdfrwt beam="1">  1       21 0.27211343E+00 0.12928361E+03</pdfrwt>
<pdfrwt beam="2">  1       21 0.57103937E-01 0.12928361E+03</pdfrwt>
<totfact> 0.15988206E+02</totfact>
</mgrwt>
</event>
<event>
 4    1  0.5810391E+003  0.1318259E+03  0.7546771E-02  0.1224771E+00
         21   -1    0    0  502  501  0.00000000000E+00  0.00000000000E+00  0.49166305599E+02  0.49166305599E+02  0.00000000000E+00 0.  1.
         21   -1    0    0  504  502 -0.00000000000E+00 -0.00000000000E+00 -0.26062409517E+04  0.26062409517E+04  0.00000000000E+00 0.  1.
         21    1    1    2  503  501  0.39653830749E+02  0.12572051310E+03 -0.44143243447E+02  0.13902050083E+03  0.00000000000E+00 0.  1.
         21    1    1    2  504  503 -0.39653830749E+02 -0.12572051310E+03 -0.25129314027E+04  0.25163867565E+04  0.00000000000E+00 0.  1.
<mgrwt>
<rscale>  2 0.13182592E+03</rscale>
<asrwt>0</asrwt>
<pdfrwt beam="1">  1       21 0.75640433E-02 0.13182592E+03</pdfrwt>
<pdfrwt beam="2">  1       21 0.40096034E+00 0.13182592E+03</pdfrwt>
<totfact> 0.12692578E+03</totfact>
</mgrwt>
</event>
<event>
 4    1  0.5810391E+003  0.1356561E+03  0.7546771E-02  0.1219296E+00
         21   -1    0    0  502  501  0.00000000000E+00  0.00000000000E+00  0.99873872083E+03  0.99873872083E+03  0.00000000000E+00 0. -1.
         21   -1    0    0  504  502 -0.00000000000E+00 -0.00000000000E+00 -0.77670702865E+02  0.77670702865E+02  0.00000000000E+00 0.  1.
         21    1    1    2  503  501 -0.12024041168E+03  0.62807881946E+02  0.93058424579E+03  0.94041991958E+03  0.00000000000E+00 0. -1.
         21    1    1    2  504  503  0.12024041168E+03 -0.62807881946E+02 -0.95162278264E+01  0.13598950411E+03  0.00000000000E+00 0.  1.
<mgrwt>
<rscale>  2 0.13565613E+03</rscale>
<asrwt>0</asrwt>
<pdfrwt beam="1">  1       21 0.15365210E+00 0.13565613E+03</pdfrwt>
<pdfrwt beam="2">  1       21 0.11949340E-01 0.13565613E+03</pdfrwt>
<totfact> 0.17320944E+04</totfact>
</mgrwt>
</event>
<event>
 4    1  0.5810391E+003  0.1001544E+03  0.7546771E-02  0.1279972E+00
         21   -1    0    0  503  501  0.00000000000E+00  0.00000000000E+00  0.12380665015E+03  0.12380665015E+03  0.00000000000E+00 0.  1.
         21   -1    0    0  504  502 -0.00000000000E+00 -0.00000000000E+00 -0.11569837658E+03  0.11569837658E+03  0.00000000000E+00 0.  1.
         21    1    1    2  503  502 -0.95528856047E+02 -0.30085450545E+02 -0.61506964877E+02  0.11753298856E+03  0.00000000000E+00 0.  1.
         21    1    1    2  504  501  0.95528856047E+02  0.30085450545E+02  0.69615238449E+02  0.12197203817E+03  0.00000000000E+00 0.  1.
<mgrwt>
<rscale>  2 0.10015436E+03</rscale>
<asrwt>0</asrwt>
<pdfrwt beam="1">  1       21 0.19047177E-01 0.10015436E+03</pdfrwt>
<pdfrwt beam="2">  1       21 0.17799750E-01 0.10015436E+03</pdfrwt>
<totfact> 0.72688898E+05</totfact>
</mgrwt>
</event>
<event>
 4    1  0.5810391E+003  0.1306278E+03  0.7546771E-02  0.1226527E+00
         21   -1    0    0  504  501  0.00000000000E+00  0.00000000000E+00  0.48883087640E+02  0.48883087640E+02  0.00000000000E+00 0. -1.
         21   -1    0    0  503  502 -0.00000000000E+00 -0.00000000000E+00 -0.51000637090E+03  0.51000637090E+03  0.00000000000E+00 0.  1.
         21    1    1    2  503  501  0.54269401403E+02 -0.11882108423E+03 -0.38753836620E+03  0.40896161588E+03  0.00000000000E+00 0.  1.
         21    1    1    2  504  502 -0.54269401403E+02  0.11882108423E+03 -0.73584917058E+02  0.14992784266E+03  0.00000000000E+00 0. -1.
<mgrwt>
<rscale>  2 0.13062778E+03</rscale>
<asrwt>0</asrwt>
<pdfrwt beam="1">  1       21 0.75204748E-02 0.13062778E+03</pdfrwt>
<pdfrwt beam="2">  1       21 0.78462521E-01 0.13062778E+03</pdfrwt>
<totfact> 0.19561311E+05</totfact>
</mgrwt>
</event>
<event>
 4    1  0.5810391E+003  0.1246331E+03  0.7546771E-02  0.1235644E+00
         21   -1    0    0  502  501  0.00000000000E+00  0.00000000000E+00  0.45193463076E+03  0.45193463076E+03  0.00000000000E+00 0. -1.
         21   -1    0    0  504  502 -0.00000000000E+00 -0.00000000000E+00 -0.11340736610E+03  0.11340736610E+03  0.00000000000E+00 0.  1.
         21    1    1    2  503  501  0.12433442458E+03  0.86230137375E+01  0.40524316912E+03  0.42397574414E+03  0.00000000000E+00 0. -1.
         21    1    1    2  504  503 -0.12433442458E+03 -0.86230137375E+01 -0.66715904460E+02  0.14136625273E+03  0.00000000000E+00 0.  1.
<mgrwt>
<rscale>  2 0.12463308E+03</rscale>
<asrwt>0</asrwt>
<pdfrwt beam="1">  1       21 0.69528404E-01 0.12463308E+03</pdfrwt>
<pdfrwt beam="2">  1       21 0.17447287E-01 0.12463308E+03</pdfrwt>
<totfact> 0.57824613E+04</totfact>
</mgrwt>
</event>
<event>
 4    1  0.5810391E+003  0.1495847E+03  0.7546771E-02  0.1200984E+00
         21   -1    0    0  503  501  0.00000000000E+00  0.00000000000E+00  0.99702269979E+02  0.99702269979E+02  0.00000000000E+00 0.  1.
         21   -1    0    0  504  502 -0.00000000000E+00 -0.00000000000E+00 -0.22433981610E+04  0.22433981610E+04  0.00000000000E+00 0. -1.
         21    1    1    2  503  502 -0.87901713644E+02 -0.12103257995E+03  0.39558966330E+02  0.15472720668E+03  0.00000000000E+00 0.  1.
         21    1    1    2  504  501  0.87901713644E+02  0.12103257995E+03 -0.21832548573E+04  0.21883732243E+04  0.00000000000E+00 0. -1.
<mgrwt>
<rscale>  2 0.14958475E+03</rscale>
<asrwt>0</asrwt>
<pdfrwt beam="1">  1       21 0.15338813E-01 0.14958475E+03</pdfrwt>
<pdfrwt beam="2">  1       21 0.34513814E+00 0.14958475E+03</pdfrwt>
<totfact> 0.75617283E+02</totfact>
</mgrwt>
</event>
<event>
 4    1  0.5810391E+003  0.1131079E+03  0.7546771E-02  0.1254920E+00
         21   -1    0    0  503  501  0.00000000000E+00  0.00000000000E+00  0.20400100298E+03  0.20400100298E+03  0.00000000000E+00 0.  1.
         21   -1    0    0  501  502 -0.00000000000E+00 -0.00000000000E+00 -0.79159544979E+02  0.79159544979E+02  0.00000000000E+00 0.  1.
         21    1    1    2  503  504  0.13858089494E+02  0.11225577720E+03  0.12695575364E+03  0.17003284842E+03  0.00000000000E+00 0.  1.
         21    1    1    2  504  502 -0.13858089494E+02 -0.11225577720E+03 -0.21142956324E+01  0.11312769955E+03  0.00000000000E+00 0.  1.
<mgrwt>
<rscale>  2 0.11310794E+03</rscale>
<asrwt>0</asrwt>
<pdfrwt beam="1">  1       21 0.31384770E-01 0.11310794E+03</pdfrwt>
<pdfrwt beam="2">  1       21 0.12178392E-01 0.11310794E+03</pdfrwt>
<totfact> 0.56191604E+05</totfact>
</mgrwt>
</event>
<event>
 4    1  0.5810391E+003  0.1458783E+03  0.7546771E-02  0.1205631E+00
         21   -1    0    0  503  501  0.00000000000E+00  0.00000000000E+00  0.43312289547E+02  0.43312289547E+02  0.00000000000E+00 0. -1.
         21   -1    0    0  504  502 -0.00000000000E+00 -0.00000000000E+00 -0.49454200942E+03  0.49454200942E+03  0.00000000000E+00 0. -1.
         21    1    1    2  503  502 -0.14585249968E+03  0.27456678071E+01 -0.20393108026E+03  0.25073566929E+03  0.00000000000E+00 0. -1.
         21    1    1    2  504  501  0.14585249968E+03 -0.27456678071E+01 -0.24729863961E+03  0.28711862968E+03  0.00000000000E+00 0. -1.
<mgrwt>
<rscale>  2 0.14587834E+03</rscale>
<asrwt>0</asrwt>
<pdfrwt beam="1">  1       21 0.66634291E-02 0.14587834E+03</pdfrwt>
<pdfrwt beam="2">  1       21 0.76083387E-01 0.14587834E+03</pdfrwt>
<totfact> 0.25673972E+05</totfact>
</mgrwt>
</event>
<event>
 4    1  0.5810391E+003  0.1175310E+03  0.7546771E-02  0.1247227E+00
         21   -1    0    0  504  501  0.00000000000E+00  0.00000000000E+00  0.46024224746E+03  0.46024224746E+03  0.00000000000E+00 0. -1.
         21   -1    0    0  503  502 -0.00000000000E+00 -0.00000000000E+00 -0.83683665222E+02  0.83683665222E+02  0.00000000000E+00 0. -1.
         21    1    1    2  503  501 -0.95130142446E+02 -0.69020154757E+02  0.40607808815E+03  0.42274453212E+03  0.00000000000E+00 0. -1.
         21    1    1    2  504  502  0.95130142446E+02  0.69020154757E+02 -0.29519505912E+02  0.12118138056E+03  0.00000000000E+00 0. -1.
<mgrwt>
<rscale>  2 0.11753096E+03</rscale>
<asrwt>0</asrwt>
<pdfrwt beam="1">  1       21 0.70806498E-01 0.11753096E+03</pdfrwt>
<pdfrwt beam="2">  1       21 0.12874410E-01 0.11753096E+03</pdfrwt>
<totfact> 0.96391743E+04</totfact>
</mgrwt>
</event>
<event>
 4    1  0.5810391E+003  0.1005874E+03  0.7546771E-02  0.1279066E+00
         21   -1    0    0  504  501  0.00000000000E+00  0.00000000000E+00  0.83548181379E+03  0.83548181379E+03  0.00000000000E+00 0.  1.
         21   -1    0    0  501  502 -0.00000000000E+00 -0.00000000000E+00 -0.12018638611E+03  0.12018638611E+03  0.00000000000E+00 0. -1.
         21    1    1    2  503  502  0.97400587672E+02  0.25118579529E+02 -0.95473702220E+02  0.13868325541E+03  0.00000000000E+00 0. -1.
         21    1    1    2  504  503 -0.97400587672E+02 -0.25118579529E+02  0.81076912990E+03  0.81698494448E+03  0.00000000000E+00 0.  1.
<mgrwt>
<rscale>  2 0.10058736E+03</rscale>
<asrwt>0</asrwt>
<pdfrwt beam="1">  1       21 0.12853566E+00 0.10058736E+03</pdfrwt>
<pdfrwt beam="2">  1       21 0.18490214E-01 0.10058736E+03</pdfrwt>
<totfact> 0.12860447E+04</totfact>
</mgrwt>
</event>
<event>
 4    1  0.5810391E+003  0.1813596E+03  0.7546771E-02  0.1166494E+00
         21   -1    0    0  504  501  0.00000000000E+00  0.00000000000E+00  0.18217351676E+03  0.18217351676E+03  0.00000000000E+00 0. -1.
         21   -1    0    0  503  502 -0.00000000000E+00 -0.00000000000E+00 -0.30367558913E+03  0.30367558913E+03  0.00000000000E+00 0. -1.
         21    1    1    2  503  501 -0.18648441548E+02 -0.18039827398E+03  0.93931704867E+02  0.20424119762E+03  0.00000000000E+00 0. -1.
         21    1    1    2  504  502  0.18648441548E+02  0.18039827398E+03 -0.21543377724E+03  0.28160790827E+03  0.00000000000E+00 0. -1.
<mgrwt>
<rscale>  2 0.18135959E+03</rscale>
<asrwt>0</asrwt>
<pdfrwt beam="1">  1       21 0.28026695E-01 0.18135959E+03</pdfrwt>
<pdfrwt beam="2">  1       21 0.46719321E-01 0.18135959E+03</pdfrwt>
<totfact> 0.53623272E+04</totfact>
</mgrwt>
</event>
<event>
 4    1  0.5810391E+003  0.1003561E+03  0.7546771E-02  0.1279549E+00
         21   -1    0    0  504  501  0.00000000000E+00  0.00000000000E+00  0.17319961276E+03  0.17319961276E+03  0.00000000000E+00 0.  1.
         21   -1    0    0  503  502 -0.00000000000E+00 -0.00000000000E+00 -0.59238458409E+02  0.59238458409E+02  0.00000000000E+00 0.  1.
         21    1    1    2  503  501 -0.85119607183E+02  0.53160182007E+02  0.72742794749E+02  0.12394703169E+03  0.00000000000E+00 0.  1.
         21    1    1    2  504  502  0.85119607183E+02 -0.53160182007E+02  0.41218359603E+02  0.10849103947E+03  0.00000000000E+00 0.  1.
<mgrwt>
<rscale>  2 0.10035613E+03</rscale>
<asrwt>0</asrwt>
<pdfrwt beam="1">  1       21 0.26646094E-01 0.10035613E+03</pdfrwt>
<pdfrwt beam="2">  1       21 0.91136090E-02 0.10035613E+03</pdfrwt>
<totfact> 0.12733255E+06</totfact>
</mgrwt>
</event>
<event>
 4    1  0.5810391E+003  0.1005678E+03  0.7546771E-02  0.1279106E+00
         21   -1    0    0  504  501  0.00000000000E+00  0.00000000000E+00  0.49851353999E+02  0.49851353999E+02  0.00000000000E+00 0. -1.
         21   -1    0    0  503  502 -0.00000000000E+00 -0.00000000000E+00 -0.20408026515E+03  0.20408026515E+03  0.00000000000E+00 0. -1.
         21    1    1    2  503  501 -0.99735379064E+02  0.12912719654E+02 -0.86848074525E+02  0.13287765882E+03  0.00000000000E+00 0. -1.
         21    1    1    2  504  502  0.99735379064E+02 -0.12912719654E+02 -0.67380836626E+02  0.12105396032E+03  0.00000000000E+00 0. -1.
<mgrwt>
<rscale>  2 0.10056781E+03</rscale>
<asrwt>0</asrwt>
<pdfrwt beam="1">  1       21 0.76694392E-02 0.10056781E+03</pdfrwt>
<pdfrwt beam="2">  1       21 0.31396963E-01 0.10056781E+03</pdfrwt>
<totfact> 0.12523529E+06</totfact>
</mgrwt>
</event>
<event>
 4    1  0.5810391E+003  0.1603932E+03  0.7546771E-02  0.1188254E+00
         21   -1    0    0  502  501  0.00000000000E+00  0.00000000000E+00  0.16458217793E+02  0.16458217793E+02  0.00000000000E+00 0. -1.
         21   -1    0    0  504  502 -0.00000000000E+00 -0.00000000000E+00 -0.20117673817E+04  0.20117673817E+04  0.00000000000E+00 0.  1.
         21    1    1    2  503  501  0.15993004115E+03 -0.12180230085E+02 -0.51874267232E+03  0.54297323705E+03  0.00000000000E+00 0. -1.
         21    1    1    2  504  503 -0.15993004115E+03  0.12180230085E+02 -0.14765664916E+04  0.14852523625E+04  0.00000000000E+00 0.  1.
<mgrwt>
<rscale>  2 0.16039319E+03</rscale>
<asrwt>0</asrwt>
<pdfrwt beam="1">  1       21 0.25320334E-02 0.16039319E+03</pdfrwt>
<pdfrwt beam="2">  1       21 0.30950268E+00 0.16039319E+03</pdfrwt>
<totfact> 0.26064899E+04</totfact>
</mgrwt>
</event>
<event>
 4    1  0.5810391E+003  0.1253335E+03  0.7546771E-02  0.1234549E+00
         21   -1    0    0  504  501  0.00000000000E+00  0.00000000000E+00  0.95335837345E+02  0.95335837345E+02  0.00000000000E+00 0. -1.
         21   -1    0    0  503  502 -0.00000000000E+00 -0.00000000000E+00 -0.73963304919E+03  0.73963304919E+03  0.00000000000E+00 0. -1.
         21    1    1    2  503  501 -0.18460873009E+02 -0.12396646407E+03 -0.69020496983E+03  0.70149225828E+03  0.00000000000E+00 0. -1.
         21    1    1    2  504  502  0.18460873009E+02  0.12396646407E+03  0.45907757986E+02  0.13347662826E+03  0.00000000000E+00 0. -1.
<mgrwt>
<rscale>  2 0.12533351E+03</rscale>
<asrwt>0</asrwt>
<pdfrwt beam="1">  1       21 0.14667051E-01 0.12533351E+03</pdfrwt>
<pdfrwt beam="2">  1       21 0.11378970E+00 0.12533351E+03</pdfrwt>
<totfact> 0.25695515E+04</totfact>
</mgrwt>
</event>
<event>
 4    1  0.5810391E+003  0.2164691E+03  0.7546771E-02  0.1136543E+00
         21   -1    0    0  503  501  0.00000000000E+00  0.00000000000E+00  0.11297163297E+04  0.11297163297E+04  0.00000000000E+00 0. -1.
         21   -1    0    0  504  502 -0.00000000000E+00 -0.00000000000E+00 -0.44485876213E+02  0.44485876213E+02  0.00000000000E+00 0. -1.
         21    1    1    2  503  502  0.21598220178E+03 -0.14510455498E+02  0.38996395382E+03  0.44601653566E+03  0.00000000000E+00 0. -1.
         21    1    1    2  504  501 -0.21598220178E+03  0.14510455498E+02  0.69526649965E+03  0.72818567024E+03  0.00000000000E+00 0. -1.
<mgrwt>
<rscale>  2 0.21646909E+03</rscale>
<asrwt>0</asrwt>
<pdfrwt beam="1">  1       21 0.17380249E+00 0.21646909E+03</pdfrwt>
<pdfrwt beam="2">  1       21 0.68439818E-02 0.21646909E+03</pdfrwt>
<totfact> 0.31087517E+04</totfact>
</mgrwt>
</event>
<event>
 4    1  0.5810391E+003  0.1113649E+03  0.7546771E-02  0.1258063E+00
         21   -1    0    0  504  501  0.00000000000E+00  0.00000000000E+00  0.24325161344E+03  0.24325161344E+03  0.00000000000E+00 0. -1.
         21   -1    0    0  503  502 -0.00000000000E+00 -0.00000000000E+00 -0.51092537975E+02  0.51092537975E+02  0.00000000000E+00 0. -1.
         21    1    1    2  503  501 -0.62347103525E+02  0.92276614399E+02  0.89321339912E+02  0.14276006671E+03  0.00000000000E+00 0. -1.
         21    1    1    2  504  502  0.62347103525E+02 -0.92276614399E+02  0.10283773555E+03  0.15158408471E+03  0.00000000000E+00 0. -1.
<mgrwt>
<rscale>  2 0.11136487E+03</rscale>
<asrwt>0</asrwt>
<pdfrwt beam="1">  1       21 0.37423325E-01 0.11136487E+03</pdfrwt>
<pdfrwt beam="2">  1       21 0.78603906E-02 0.11136487E+03</pdfrwt>
<totfact> 0.85406570E+05</totfact>
</mgrwt>
</event>
<event>
 4    1  0.5810391E+003  0.1154174E+03  0.7546771E-02  0.1250854E+00
         21   -1    0    0  503  501  0.00000000000E+00  0.00000000000E+00  0.44131229469E+03  0.44131229469E+03  0.00000000000E+00 0.  1.
         21   -1    0    0  504  502 -0.00000000000E+00 -0.00000000000E+00 -0.32736072081E+02  0.32736072081E+02  0.00000000000E+00 0. -1.
         21    1    1    2  503  502 -0.85501973474E+02  0.77528002398E+02  0.27045009606E+03  0.29404835161E+03  0.00000000000E+00 0.  1.
         21    1    1    2  504  501  0.85501973474E+02 -0.77528002398E+02  0.13812612655E+03  0.18000001517E+03  0.00000000000E+00 0. -1.
<mgrwt>
<rscale>  2 0.11541741E+03</rscale>
<asrwt>0</asrwt>
<pdfrwt beam="1">  1       21 0.67894195E-01 0.11541741E+03</pdfrwt>
<pdfrwt beam="2">  1       21 0.50363191E-02 0.11541741E+03</pdfrwt>
<totfact> 0.53198703E+05</totfact>
</mgrwt>
</event>
<event>
 4    1  0.5810391E+003  0.1085425E+03  0.7546771E-02  0.1263293E+00
         21   -1    0    0  503  501  0.00000000000E+00  0.00000000000E+00  0.74315252841E+03  0.74315252841E+03  0.00000000000E+00 0.  1.
         21   -1    0    0  501  502 -0.00000000000E+00 -0.00000000000E+00 -0.96224628911E+02  0.96224628911E+02  0.00000000000E+00 0. -1.
         21    1    1    2  503  504  0.81422977145E+02 -0.71775917433E+02  0.70702488745E+03  0.71530809796E+03  0.00000000000E+00 0.  1.
         21    1    1    2  504  502 -0.81422977145E+02  0.71775917433E+02 -0.60096987951E+02  0.12406905936E+03  0.00000000000E+00 0. -1.
<mgrwt>
<rscale>  2 0.10854254E+03</rscale>
<asrwt>0</asrwt>
<pdfrwt beam="1">  1       21 0.11433115E+00 0.10854254E+03</pdfrwt>
<pdfrwt beam="2">  1       21 0.14803790E-01 0.10854254E+03</pdfrwt>
<totfact> 0.25331659E+04</totfact>
</mgrwt>
</event>
<event>
 4    1  0.5810391E+003  0.1032052E+03  0.7546771E-02  0.1273697E+00
         21   -1    0    0  504  501  0.00000000000E+00  0.00000000000E+00  0.23608435572E+03  0.23608435572E+03  0.00000000000E+00 0.  1.
         21   -1    0    0  501  502 -0.00000000000E+00 -0.00000000000E+00 -0.46498665857E+02  0.46498665857E+02  0.00000000000E+00 0.  1.
         21    1    1    2  503  502  0.10207222670E+03  0.15250654396E+02  0.70433746852E+02  0.12494892804E+03  0.00000000000E+00 0.  1.
         21    1    1    2  504  503 -0.10207222670E+03 -0.15250654396E+02  0.11915194301E+03  0.15763409354E+03  0.00000000000E+00 0.  1.
<mgrwt>
<rscale>  2 0.10320524E+03</rscale>
<asrwt>0</asrwt>
<pdfrwt beam="1">  1       21 0.36320669E-01 0.10320524E+03</pdfrwt>
<pdfrwt beam="2">  1       21 0.71536410E-02 0.10320524E+03</pdfrwt>
<totfact> 0.10631112E+06</totfact>
</mgrwt>
</event>
<event>
 4    1  0.5810391E+003  0.1333038E+03  0.7546771E-02  0.1222634E+00
         21   -1    0    0  504  501  0.00000000000E+00  0.00000000000E+00  0.35858777643E+04  0.35858777643E+04  0.00000000000E+00 0. -1.
         21   -1    0    0  503  502 -0.00000000000E+00 -0.00000000000E+00 -0.73187145537E+01  0.73187145537E+01  0.00000000000E+00 0.  1.
         21    1    1    2  503  501  0.87337919862E+02 -0.10070746967E+03  0.76838035691E+03  0.77985785857E+03  0.00000000000E+00 0.  1.
         21    1    1    2  504  502 -0.87337919862E+02  0.10070746967E+03  0.28101786928E+04  0.28133386203E+04  0.00000000000E+00 0. -1.
<mgrwt>
<rscale>  2 0.13330381E+03</rscale>
<asrwt>0</asrwt>
<pdfrwt beam="1">  1       21 0.55167210E+00 0.13330381E+03</pdfrwt>
<pdfrwt beam="2">  1       21 0.11259589E-02 0.13330381E+03</pdfrwt>
<totfact> 0.27468343E+03</totfact>
</mgrwt>
</event>
<event>
 4    1  0.5810391E+003  0.1053918E+03  0.7546771E-02  0.1269350E+00
         21   -1    0    0  503  501  0.00000000000E+00  0.00000000000E+00  0.22285796667E+03  0.22285796667E+03  0.00000000000E+00 0. -1.
         21   -1    0    0  504  502 -0.00000000000E+00 -0.00000000000E+00 -0.52412827950E+02  0.52412827950E+02  0.00000000000E+00 0. -1.
         21    1    1    2  503  502 -0.96713108109E+01  0.10494713256E+03  0.11571157772E+03  0.15651391026E+03  0.00000000000E+00 0. -1.
         21    1    1    2  504  501  0.96713108109E+01 -0.10494713256E+03  0.54733560998E+02  0.11875688437E+03  0.00000000000E+00 0. -1.
<mgrwt>
<rscale>  2 0.10539182E+03</rscale>
<asrwt>0</asrwt>
<pdfrwt beam="1">  1       21 0.34285840E-01 0.10539182E+03</pdfrwt>
<pdfrwt beam="2">  1       21 0.80635121E-02 0.10539182E+03</pdfrwt>
<totfact> 0.97001440E+05</totfact>
</mgrwt>
</event>
<event>
 4    1  0.5810391E+003  0.1600678E+03  0.7546771E-02  0.1188620E+00
         21   -1    0    0  502  501  0.00000000000E+00  0.00000000000E+00  0.81894079489E+02  0.81894079489E+02  0.00000000000E+00 0. -1.
         21   -1    0    0  504  502 -0.00000000000E+00 -0.00000000000E+00 -0.88312972347E+03  0.88312972347E+03  0.00000000000E+00 0. -1.
         21    1    1    2  503  501  0.44856235096E+02 -0.15365423942E+03 -0.12883341861E+02  0.16058545269E+03  0.00000000000E+00 0. -1.
         21    1    1    2  504  503 -0.44856235096E+02  0.15365423942E+03 -0.78835230212E+03  0.80443835026E+03  0.00000000000E+00 0. -1.
<mgrwt>
<rscale>  2 0.16006782E+03</rscale>
<asrwt>0</asrwt>
<pdfrwt beam="1">  1       21 0.12599089E-01 0.16006782E+03</pdfrwt>
<pdfrwt beam="2">  1       21 0.13586612E+00 0.16006782E+03</pdfrwt>
<totfact> 0.21250680E+04</totfact>
</mgrwt>
</event>
<event>
 4    1  0.5810391E+003  0.1151054E+03  0.7546771E-02  0.1251397E+00
         21   -1    0    0  503  501  0.00000000000E+00  0.00000000000E+00  0.59757985463E+02  0.59757985463E+02  0.00000000000E+00 0.  1.
         21   -1    0    0  504  502 -0.00000000000E+00 -0.00000000000E+00 -0.29671188451E+03  0.29671188451E+03  0.00000000000E+00 0.  1.
         21    1    1    2  503  502 -0.11509912016E+03 -0.12013986084E+01 -0.28869001423E+02  0.11867042624E+03  0.00000000000E+00 0.  1.
         21    1    1    2  504  501  0.11509912016E+03  0.12013986084E+01 -0.20808489763E+03  0.23779944374E+03  0.00000000000E+00 0.  1.
<mgrwt>
<rscale>  2 0.11510539E+03</rscale>
<asrwt>0</asrwt>
<pdfrwt beam="1">  1       21 0.91935364E-02 0.11510539E+03</pdfrwt>
<pdfrwt beam="2">  1       21 0.45647981E-01 0.11510539E+03</pdfrwt>
<totfact> 0.43796300E+05</totfact>
</mgrwt>
</event>
<event>
 4    1  0.5810391E+003  0.1118108E+03  0.7546771E-02  0.1257253E+00
         21   -1    0    0  504  501  0.00000000000E+00  0.00000000000E+00  0.38934728897E+02  0.38934728897E+02  0.00000000000E+00 0.  1.
         21   -1    0    0  503  502 -0.00000000000E+00 -0.00000000000E+00 -0.36398600081E+03  0.36398600081E+03  0.00000000000E+00 0.  1.
         21    1    1    2  503  501 -0.83339786209E+02 -0.74539556396E+02 -0.93367872048E+02  0.14566820162E+03  0.00000000000E+00 0.  1.
         21    1    1    2  504  502  0.83339786209E+02  0.74539556396E+02 -0.23168339987E+03  0.25725252809E+03  0.00000000000E+00 0.  1.
<mgrwt>
<rscale>  2 0.11181085E+03</rscale>
<asrwt>0</asrwt>
<pdfrwt beam="1">  1       21 0.59899580E-02 0.11181085E+03</pdfrwt>
<pdfrwt beam="2">  1       21 0.55997849E-01 0.11181085E+03</pdfrwt>
<totfact> 0.59864853E+05</totfact>
</mgrwt>
</event>
<event>
 4    1  0.5810391E+003  0.1039972E+03  0.7546771E-02  0.1272108E+00
         21   -1    0    0  504  501  0.00000000000E+00  0.00000000000E+00  0.58001709703E+03  0.58001709703E+03  0.00000000000E+00 0.  1.
         21   -1    0    0  503  502 -0.00000000000E+00 -0.00000000000E+00 -0.11370082699E+03  0.11370082699E+03  0.00000000000E+00 0.  1.
         21    1    1    2  503  501  0.38550953093E+02  0.96587968599E+02  0.55030218660E+03  0.56004277358E+03  0.00000000000E+00 0.  1.
         21    1    1    2  504  502 -0.38550953093E+02 -0.96587968599E+02 -0.83985916567E+02  0.13367515044E+03  0.00000000000E+00 0.  1.
<mgrwt>
<rscale>  2 0.10399717E+03</rscale>
<asrwt>0</asrwt>
<pdfrwt beam="1">  1       21 0.89233398E-01 0.10399717E+03</pdfrwt>
<pdfrwt beam="2">  1       21 0.17492435E-01 0.10399717E+03</pdfrwt>
<totfact> 0.33533396E+04</totfact>
</mgrwt>
</event>
<event>
 4    1  0.5810391E+003  0.1415873E+03  0.7546771E-02  0.1211209E+00
         21   -1    0    0  503  501  0.00000000000E+00  0.00000000000E+00  0.53053575085E+02  0.53053575085E+02  0.00000000000E+00 0. -1.
         21   -1    0    0  504  502 -0.00000000000E+00 -0.00000000000E+00 -0.38027605743E+03  0.38027605743E+03  0.00000000000E+00 0. -1.
         21    1    1    2  503  502  0.99887206550E+02  0.10034697942E+03 -0.14635110075E+03  0.20363107573E+03  0.00000000000E+00 0. -1.
         21    1    1    2  504  501 -0.99887206550E+02 -0.10034697942E+03 -0.18087138159E+03  0.22969855678E+03  0.00000000000E+00 0. -1.
<mgrwt>
<rscale>  2 0.14158732E+03</rscale>
<asrwt>0</asrwt>
<pdfrwt beam="1">  1       21 0.81620887E-02 0.14158732E+03</pdfrwt>
<pdfrwt beam="2">  1       21 0.58504007E-01 0.14158732E+03</pdfrwt>
<totfact> 0.32051234E+05</totfact>
</mgrwt>
</event>
<event>
 4    1  0.5810391E+003  0.1449622E+03  0.7546771E-02  0.1206804E+00
         21   -1    0    0  503  501  0.00000000000E+00  0.00000000000E+00  0.11557428935E+03  0.11557428935E+03  0.00000000000E+00 0. -1.
         21   -1    0    0  504  502 -0.00000000000E+00 -0.00000000000E+00 -0.19066037993E+03  0.19066037993E+03  0.00000000000E+00 0. -1.
         21    1    1    2  503  502  0.11066068748E+03 -0.93638934932E+02 -0.45774099496E+01  0.14503444615E+03  0.00000000000E+00 0. -1.
         21    1    1    2  504  501 -0.11066068748E+03  0.93638934932E+02 -0.70508680628E+02  0.16120022312E+03  0.00000000000E+00 0. -1.
<mgrwt>
<rscale>  2 0.14496219E+03</rscale>
<asrwt>0</asrwt>
<pdfrwt beam="1">  1       21 0.17780660E-01 0.14496219E+03</pdfrwt>
<pdfrwt beam="2">  1       21 0.29332366E-01 0.14496219E+03</pdfrwt>
<totfact> 0.32288863E+05</totfact>
</mgrwt>
</event>
<event>
 4    1  0.5810391E+003  0.1033990E+03  0.7546771E-02  0.1273307E+00
         21   -1    0    0  504  501  0.00000000000E+00  0.00000000000E+00  0.17100859283E+02  0.17100859283E+02  0.00000000000E+00 0. -1.
         21   -1    0    0  503  502 -0.00000000000E+00 -0.00000000000E+00 -0.10501181271E+04  0.10501181271E+04  0.00000000000E+00 0. -1.
         21    1    1    2  503  501 -0.72854129084E+02 -0.73373159977E+02 -0.17707063332E+03  0.20504963769E+03  0.00000000000E+00 0. -1.
         21    1    1    2  504  502  0.72854129084E+02  0.73373159977E+02 -0.85594663445E+03  0.86216934865E+03  0.00000000000E+00 0. -1.
<mgrwt>
<rscale>  2 0.10339896E+03</rscale>
<asrwt>0</asrwt>
<pdfrwt beam="1">  1       21 0.26309017E-02 0.10339896E+03</pdfrwt>
<pdfrwt beam="2">  1       21 0.16155662E+00 0.10339896E+03</pdfrwt>
<totfact> 0.20047173E+05</totfact>
</mgrwt>
</event>
<event>
 4    1  0.5810391E+003  0.1033749E+03  0.7546771E-02  0.1273355E+00
         21   -1    0    0  504  501  0.00000000000E+00  0.00000000000E+00  0.20908699203E+03  0.20908699203E+03  0.00000000000E+00 0.  1.
         21   -1    0    0  503  502 -0.00000000000E+00 -0.00000000000E+00 -0.37614484353E+03  0.37614484353E+03  0.00000000000E+00 0. -1.
         21    1    1    2  503  501 -0.81867103899E+02  0.63120138995E+02 -0.35553934969E+03  0.37026288476E+03  0.00000000000E+00 0. -1.
         21    1    1    2  504  502  0.81867103899E+02 -0.63120138995E+02  0.18848149819E+03  0.21496895080E+03  0.00000000000E+00 0.  1.
<mgrwt>
<rscale>  2 0.10337492E+03</rscale>
<asrwt>0</asrwt>
<pdfrwt beam="1">  1       21 0.32167230E-01 0.10337492E+03</pdfrwt>
<pdfrwt beam="2">  1       21 0.57868436E-01 0.10337492E+03</pdfrwt>
<totfact> 0.27576250E+04</totfact>
</mgrwt>
</event>
<event>
 4    1  0.5810391E+003  0.1106388E+03  0.7546771E-02  0.1259392E+00
         21   -1    0    0  504  501  0.00000000000E+00  0.00000000000E+00  0.17823833042E+03  0.17823833042E+03  0.00000000000E+00 0.  1.
         21   -1    0    0  501  502 -0.00000000000E+00 -0.00000000000E+00 -0.29013424928E+03  0.29013424928E+03  0.00000000000E+00 0.  1.
         21    1    1    2  503  502 -0.43768835763E+02 -0.10161312420E+03 -0.26054839996E+03  0.28306608189E+03  0.00000000000E+00 0.  1.
         21    1    1    2  504  503  0.43768835763E+02  0.10161312420E+03  0.14865248110E+03  0.18530649781E+03  0.00000000000E+00 0.  1.
<mgrwt>
<rscale>  2 0.11063877E+03</rscale>
<asrwt>0</asrwt>
<pdfrwt beam="1">  1       21 0.27421282E-01 0.11063877E+03</pdfrwt>
<pdfrwt beam="2">  1       21 0.44636038E-01 0.11063877E+03</pdfrwt>
<totfact> 0.63569819E+04</totfact>
</mgrwt>
</event>
<event>
 4    1  0.5810391E+003  0.1040193E+03  0.7546771E-02  0.1272064E+00
         21   -1    0    0  504  501  0.00000000000E+00  0.00000000000E+00  0.26039993388E+03  0.26039993388E+03  0.00000000000E+00 0. -1.
         21   -1    0    0  503  502 -0.00000000000E+00 -0.00000000000E+00 -0.56132764428E+02  0.56132764428E+02  0.00000000000E+00 0. -1.
         21    1    1    2  503  501 -0.10013288886E+03  0.28167692369E+02  0.18279718307E+03  0.21032076565E+03  0.00000000000E+00 0. -1.
         21    1    1    2  504  502  0.10013288886E+03 -0.28167692369E+02  0.21469986383E+02  0.10621193266E+03  0.00000000000E+00 0. -1.
<mgrwt>
<rscale>  2 0.10401930E+03</rscale>
<asrwt>0</asrwt>
<pdfrwt beam="1">  1       21 0.40061528E-01 0.10401930E+03</pdfrwt>
<pdfrwt beam="2">  1       21 0.86358100E-02 0.10401930E+03</pdfrwt>
<totfact> 0.63463672E+05</totfact>
</mgrwt>
</event>
<event>
 4    1  0.5810391E+003  0.1054540E+03  0.7546771E-02  0.1269228E+00
         21   -1    0    0  503  501  0.00000000000E+00  0.00000000000E+00  0.19109280650E+04  0.19109280650E+04  0.00000000000E+00 0. -1.
         21   -1    0    0  504  502 -0.00000000000E+00 -0.00000000000E+00 -0.23416864322E+03  0.23416864322E+03  0.00000000000E+00 0.  1.
         21    1    1    2  503  502  0.10458150411E+03  0.13537378204E+02  0.18975169818E+04  0.19004450131E+04  0.00000000000E+00 0. -1.
         21    1    1    2  504  501 -0.10458150411E+03 -0.13537378204E+02 -0.22075756002E+03  0.24465169511E+03  0.00000000000E+00 0.  1.
<mgrwt>
<rscale>  2 0.10545403E+03</rscale>
<asrwt>0</asrwt>
<pdfrwt beam="1">  1       21 0.29398892E+00 0.10545403E+03</pdfrwt>
<pdfrwt beam="2">  1       21 0.36025946E-01 0.10545403E+03</pdfrwt>
<totfact> 0.32608471E+02</totfact>
</mgrwt>
</event>
<event>
 4    1  0.5810391E+003  0.1019055E+03  0.7546771E-02  0.1276339E+00
         21   -1    0    0  503  501  0.00000000000E+00  0.00000000000E+00  0.13063863236E+03  0.13063863236E+03  0.00000000000E+00 0. -1.
         21   -1    0    0  504  502 -0.00000000000E+00 -0.00000000000E+00 -0.29397580561E+03  0.29397580561E+03  0.00000000000E+00 0. -1.
         21    1    1    2  503  502  0.10189193208E+03  0.16645765906E+01 -0.26301381768E+03  0.28206560395E+03  0.00000000000E+00 0. -1.
         21    1    1    2  504  501 -0.10189193208E+03 -0.16645765906E+01  0.99676644429E+02  0.14254883403E+03  0.00000000000E+00 0. -1.
<mgrwt>
<rscale>  2 0.10190553E+03</rscale>
<asrwt>0</asrwt>
<pdfrwt beam="1">  1       21 0.20098251E-01 0.10190553E+03</pdfrwt>
<pdfrwt beam="2">  1       21 0.45227047E-01 0.10190553E+03</pdfrwt>
<totfact> 0.11110519E+05</totfact>
</mgrwt>
</event>
<event>
 4    1  0.5810391E+003  0.1064210E+03  0.7546771E-02  0.1267345E+00
         21   -1    0    0  504  501  0.00000000000E+00  0.00000000000E+00  0.15864569570E+02  0.15864569570E+02  0.00000000000E+00 0.  1.
         21   -1    0    0  503  502 -0.00000000000E+00 -0.00000000000E+00 -0.71510297437E+03  0.71510297437E+03  0.00000000000E+00 0.  1.
         21    1    1    2  503  501  0.10514193224E+03 -0.16450249795E+02 -0.33451944291E+03  0.35103944838E+03  0.00000000000E+00 0.  1.
         21    1    1    2  504  502 -0.10514193224E+03  0.16450249795E+02 -0.36471896189E+03  0.37992809556E+03  0.00000000000E+00 0.  1.
<mgrwt>
<rscale>  2 0.10642103E+03</rscale>
<asrwt>0</asrwt>
<pdfrwt beam="1">  1       21 0.24407037E-02 0.10642103E+03</pdfrwt>
<pdfrwt beam="2">  1       21 0.11001581E+00 0.10642103E+03</pdfrwt>
<totfact> 0.58871751E+05</totfact>
</mgrwt>
</event>
<event>
 4    1  0.5810391E+003  0.1022312E+03  0.7546771E-02  0.1275673E+00
         21   -1    0    0  503  501  0.00000000000E+00  0.00000000000E+00  0.31295944703E+02  0.31295944703E+02  0.00000000000E+00 0. -1.
         21   -1    0    0  504  502 -0.00000000000E+00 -0.00000000000E+00 -0.12471328969E+04  0.12471328969E+04  0.00000000000E+00 0. -1.
         21    1    1    2  503  502 -0.52231883142E+02 -0.87880863975E+02 -0.60940835080E+02  0.11901681079E+03  0.00000000000E+00 0. -1.
         21    1    1    2  504  501  0.52231883142E+02  0.87880863975E+02 -0.11548961171E+04  0.11594120308E+04  0.00000000000E+00 0. -1.
<mgrwt>
<rscale>  2 0.10223119E+03</rscale>
<asrwt>0</asrwt>
<pdfrwt beam="1">  1       21 0.48147609E-02 0.10223119E+03</pdfrwt>
<pdfrwt beam="2">  1       21 0.19186659E+00 0.10223119E+03</pdfrwt>
<totfact> 0.46613844E+04</totfact>
</mgrwt>
</event>
<event>
 4    1  0.5810391E+003  0.1311708E+03  0.7546771E-02  0.1225729E+00
         21   -1    0    0  504  501  0.00000000000E+00  0.00000000000E+00  0.21126002089E+02  0.21126002089E+02  0.00000000000E+00 0. -1.
         21   -1    0    0  503  502 -0.00000000000E+00 -0.00000000000E+00 -0.87854942621E+03  0.87854942621E+03  0.00000000000E+00 0. -1.
         21    1    1    2  503  501  0.75490228012E+02  0.10727067817E+03 -0.55023173777E+03  0.56565072101E+03  0.00000000000E+00 0. -1.
         21    1    1    2  504  502 -0.75490228012E+02 -0.10727067817E+03 -0.30719168635E+03  0.33402470730E+03  0.00000000000E+00 0. -1.
<mgrwt>
<rscale>  2 0.13117078E+03</rscale>
<asrwt>0</asrwt>
<pdfrwt beam="1">  1       21 0.32501545E-02 0.13117078E+03</pdfrwt>
<pdfrwt beam="2">  1       21 0.13516144E+00 0.13117078E+03</pdfrwt>
<totfact> 0.22180569E+05</totfact>
</mgrwt>
</event>
<event>
 4    1  0.5810391E+003  0.1465319E+03  0.7546771E-02  0.1204800E+00
         21   -1    0    0  503  501  0.00000000000E+00  0.00000000000E+00  0.14535622106E+04  0.14535622106E+04  0.00000000000E+00 0. -1.
         21   -1    0    0  504  502 -0.00000000000E+00 -0.00000000000E+00 -0.36521042091E+02  0.36521042091E+02  0.00000000000E+00 0. -1.
         21    1    1    2  503  502 -0.12663737102E+03  0.73719583761E+02  0.13356815862E+03  0.19827267529E+03  0.00000000000E+00 0. -1.
         21    1    1    2  504  501  0.12663737102E+03 -0.73719583761E+02  0.12834730099E+04  0.12918105774E+04  0.00000000000E+00 0. -1.
<mgrwt>
<rscale>  2 0.14653191E+03</rscale>
<asrwt>0</asrwt>
<pdfrwt beam="1">  1       21 0.22362491E+00 0.14653191E+03</pdfrwt>
<pdfrwt beam="2">  1       21 0.56186230E-02 0.14653191E+03</pdfrwt>
<totfact> 0.21950542E+04</totfact>
</mgrwt>
</event>
<event>
 4    1  0.5810391E+003  0.1086803E+03  0.7546771E-02  0.1263033E+00
         21   -1    0    0  502  501  0.00000000000E+00  0.00000000000E+00  0.39827940957E+03  0.39827940957E+03  0.00000000000E+00 0.  1.
         21   -1    0    0  503  502 -0.00000000000E+00 -0.00000000000E+00 -0.31500248993E+02  0.31500248993E+02  0.00000000000E+00 0.  1.
         21    1    1    2  503  504 -0.25871807984E+02  0.10555596161E+03  0.13139505528E+03  0.17051707255E+03  0.00000000000E+00 0.  1.
         21    1    1    2  504  501  0.25871807984E+02 -0.10555596161E+03  0.23538410530E+03  0.25926258601E+03  0.00000000000E+00 0.  1.
<mgrwt>
<rscale>  2 0.10868032E+03</rscale>
<asrwt>0</asrwt>
<pdfrwt beam="1">  1       21 0.61273752E-01 0.10868032E+03</pdfrwt>
<pdfrwt beam="2">  1       21 0.48461924E-02 0.10868032E+03</pdfrwt>
<totfact> 0.70696417E+05</totfact>
</mgrwt>
</event>
<event>
 4    1  0.5810391E+003  0.1108027E+03  0.7546771E-02  0.1259091E+00
         21   -1    0    0  504  501  0.00000000000E+00  0.00000000000E+00  0.11627472606E+03  0.11627472606E+03  0.00000000000E+00 0.  1.
         21   -1    0    0  503  502 -0.00000000000E+00 -0.00000000000E+00 -0.10728901276E+03  0.10728901276E+03  0.00000000000E+00 0.  1.
         21    1    1    2  503  501 -0.54225888066E+02  0.96627060098E+02 -0.95814068015E+01  0.11121618154E+03  0.00000000000E+00 0.  1.
         21    1    1    2  504  502  0.54225888066E+02 -0.96627060098E+02  0.18567120103E+02  0.11234755729E+03  0.00000000000E+00 0.  1.
<mgrwt>
<rscale>  2 0.11080269E+03</rscale>
<asrwt>0</asrwt>
<pdfrwt beam="1">  1       21 0.17888419E-01 0.11080269E+03</pdfrwt>
<pdfrwt beam="2">  1       21 0.16506002E-01 0.11080269E+03</pdfrwt>
<totfact> 0.93555425E+05</totfact>
</mgrwt>
</event>
<event>
 4    1  0.5810391E+003  0.1086800E+03  0.7546771E-02  0.1263034E+00
         21   -1    0    0  503  501  0.00000000000E+00  0.00000000000E+00  0.43549376527E+02  0.43549376527E+02  0.00000000000E+00 0.  1.
         21   -1    0    0  504  502 -0.00000000000E+00 -0.00000000000E+00 -0.27188405591E+03  0.27188405591E+03  0.00000000000E+00 0.  1.
         21    1    1    2  503  502  0.88893846948E+02  0.62523810033E+02 -0.10635681335E+03  0.15206286395E+03  0.00000000000E+00 0.  1.
         21    1    1    2  504  501 -0.88893846948E+02 -0.62523810033E+02 -0.12197786602E+03  0.16337056848E+03  0.00000000000E+00 0.  1.
<mgrwt>
<rscale>  2 0.10868000E+03</rscale>
<asrwt>0</asrwt>
<pdfrwt beam="1">  1       21 0.66999040E-02 0.10868000E+03</pdfrwt>
<pdfrwt beam="2">  1       21 0.41828317E-01 0.10868000E+03</pdfrwt>
<totfact> 0.89911312E+05</totfact>
</mgrwt>
</event>
<event>
 4    1  0.5810391E+003  0.1150346E+03  0.7546771E-02  0.1251521E+00
         21   -1    0    0  503  501  0.00000000000E+00  0.00000000000E+00  0.13274550799E+04  0.13274550799E+04  0.00000000000E+00 0. -1.
         21   -1    0    0  504  502 -0.00000000000E+00 -0.00000000000E+00 -0.15359105216E+03  0.15359105216E+03  0.00000000000E+00 0.  1.
         21    1    1    2  503  502 -0.84980877213E+02  0.77532047270E+02  0.13030204964E+04  0.13080884458E+04  0.00000000000E+00 0. -1.
         21    1    1    2  504  501  0.84980877213E+02 -0.77532047270E+02 -0.12915646868E+03  0.17295768629E+03  0.00000000000E+00 0.  1.
<mgrwt>
<rscale>  2 0.11503464E+03</rscale>
<asrwt>0</asrwt>
<pdfrwt beam="1">  1       21 0.20422385E+00 0.11503464E+03</pdfrwt>
<pdfrwt beam="2">  1       21 0.23629394E-01 0.11503464E+03</pdfrwt>
<totfact> 0.23475516E+03</totfact>
</mgrwt>
</event>
<event>
 4    1  0.5810391E+003  0.1014204E+03  0.7546771E-02  0.1277337E+00
         21   -1    0    0  502  501  0.00000000000E+00  0.00000000000E+00  0.30552408036E+03  0.30552408036E+03  0.00000000000E+00 0.  1.
         21   -1    0    0  503  502 -0.00000000000E+00 -0.00000000000E+00 -0.11940361243E+03  0.11940361243E+03  0.00000000000E+00 0.  1.
         21    1    1    2  503  504 -0.14324283571E+02  0.10040370607E+03 -0.86975777482E+02  0.13360716733E+03  0.00000000000E+00 0.  1.
         21    1    1    2  504  501  0.14324283571E+02 -0.10040370607E+03  0.27309624541E+03  0.29132052545E+03  0.00000000000E+00 0.  1.
<mgrwt>
<rscale>  2 0.10142036E+03</rscale>
<asrwt>0</asrwt>
<pdfrwt beam="1">  1       21 0.47003704E-01 0.10142036E+03</pdfrwt>
<pdfrwt beam="2">  1       21 0.18369787E-01 0.10142036E+03</pdfrwt>
<totfact> 0.12117431E+05</totfact>
</mgrwt>
</event>
<event>
 4    1  0.5810391E+003  0.1076860E+03  0.7546771E-02  0.1264916E+00
         21   -1    0    0  503  501  0.00000000000E+00  0.00000000000E+00  0.98617386819E+01  0.98617386819E+01  0.00000000000E+00 0. -1.
         21   -1    0    0  504  502 -0.00000000000E+00 -0.00000000000E+00 -0.12021261523E+04  0.12021261523E+04  0.00000000000E+00 0. -1.
         21    1    1    2  503  502 -0.10235622814E+03 -0.33458472356E+02 -0.50659822807E+03  0.51791701216E+03  0.00000000000E+00 0. -1.
         21    1    1    2  504  501  0.10235622814E+03  0.33458472356E+02 -0.68566618556E+03  0.69407087882E+03  0.00000000000E+00 0. -1.
<mgrwt>
<rscale>  2 0.10768596E+03</rscale>
<asrwt>0</asrwt>
<pdfrwt beam="1">  1       21 0.15171921E-02 0.10768596E+03</pdfrwt>
<pdfrwt beam="2">  1       21 0.18494230E+00 0.10768596E+03</pdfrwt>
<totfact> 0.33629254E+05</totfact>
</mgrwt>
</event>
<event>
 4    1  0.5810391E+003  0.1330823E+03  0.7546771E-02  0.1222952E+00
         21   -1    0    0  503  501  0.00000000000E+00  0.00000000000E+00  0.22940564439E+03  0.22940564439E+03  0.00000000000E+00 0. -1.
         21   -1    0    0  501  502 -0.00000000000E+00 -0.00000000000E+00 -0.83818213708E+02  0.83818213708E+02  0.00000000000E+00 0. -1.
         21    1    1    2  503  504  0.77118114240E+02 -0.10846062926E+03  0.11678961163E+03  0.17706135950E+03  0.00000000000E+00 0. -1.
         21    1    1    2  504  502 -0.77118114240E+02  0.10846062926E+03  0.28797819051E+02  0.13616249860E+03  0.00000000000E+00 0. -1.
<mgrwt>
<rscale>  2 0.13308235E+03</rscale>
<asrwt>0</asrwt>
<pdfrwt beam="1">  1       21 0.35293176E-01 0.13308235E+03</pdfrwt>
<pdfrwt beam="2">  1       21 0.12895110E-01 0.13308235E+03</pdfrwt>
<totfact> 0.40318726E+05</totfact>
</mgrwt>
</event>
<event>
 4    1  0.5810391E+003  0.1200662E+03  0.7546771E-02  0.1242988E+00
         21   -1    0    0  502  501  0.00000000000E+00  0.00000000000E+00  0.11005193099E+03  0.11005193099E+03  0.00000000000E+00 0.  1.
         21   -1    0    0  503  502 -0.00000000000E+00 -0.00000000000E+00 -0.15887420616E+03  0.15887420616E+03  0.00000000000E+00 0.  1.
         21    1    1    2  503  504  0.90344453462E+02 -0.79080772498E+02 -0.80741464624E+02  0.14468957447E+03  0.00000000000E+00 0.  1.
         21    1    1    2  504  501 -0.90344453462E+02  0.79080772498E+02  0.31919189457E+02  0.12423656268E+03  0.00000000000E+00 0.  1.
<mgrwt>
<rscale>  2 0.12006619E+03</rscale>
<asrwt>0</asrwt>
<pdfrwt beam="1">  1       21 0.16931066E-01 0.12006619E+03</pdfrwt>
<pdfrwt beam="2">  1       21 0.24442186E-01 0.12006619E+03</pdfrwt>
<totfact> 0.50127019E+05</totfact>
</mgrwt>
</event>
<event>
 4    1  0.5810391E+003  0.1093893E+03  0.7546771E-02  0.1261705E+00
         21   -1    0    0  504  501  0.00000000000E+00  0.00000000000E+00  0.23699060601E+03  0.23699060601E+03  0.00000000000E+00 0.  1.
         21   -1    0    0  503  502 -0.00000000000E+00 -0.00000000000E+00 -0.54019345462E+02  0.54019345462E+02  0.00000000000E+00 0. -1.
         21    1    1    2  503  501  0.16432950115E+02  0.10814794011E+03  0.12866961979E+03  0.16888424988E+03  0.00000000000E+00 0.  1.
         21    1    1    2  504  502 -0.16432950115E+02 -0.10814794011E+03  0.54301640759E+02  0.12212570159E+03  0.00000000000E+00 0. -1.
<mgrwt>
<rscale>  2 0.10938930E+03</rscale>
<asrwt>0</asrwt>
<pdfrwt beam="1">  1       21 0.36460093E-01 0.10938930E+03</pdfrwt>
<pdfrwt beam="2">  1       21 0.83106687E-02 0.10938930E+03</pdfrwt>
<totfact> 0.81691721E+05</totfact>
</mgrwt>
</event>
<event>
 4    1  0.5810391E+003  0.1062693E+03  0.7546771E-02  0.1267639E+00
         21   -1    0    0  504  501  0.00000000000E+00  0.00000000000E+00  0.27885736847E+03  0.27885736847E+03  0.00000000000E+00 0. -1.
         21   -1    0    0  503  502 -0.00000000000E+00 -0.00000000000E+00 -0.14093479720E+03  0.14093479720E+03  0.00000000000E+00 0. -1.
         21    1    1    2  503  501  0.53899472647E+02 -0.91586073553E+02  0.24615229105E+03  0.26811212656E+03  0.00000000000E+00 0. -1.
         21    1    1    2  504  502 -0.53899472647E+02  0.91586073553E+02 -0.10822971978E+03  0.15168003911E+03  0.00000000000E+00 0. -1.
<mgrwt>
<rscale>  2 0.10626929E+03</rscale>
<asrwt>0</asrwt>
<pdfrwt beam="1">  1       21 0.42901133E-01 0.10626929E+03</pdfrwt>
<pdfrwt beam="2">  1       21 0.21682277E-01 0.10626929E+03</pdfrwt>
<totfact> 0.10721334E+05</totfact>
</mgrwt>
</event>
<event>
 4    1  0.5810391E+003  0.1096844E+03  0.7546771E-02  0.1261155E+00
         21   -1    0    0  504  501  0.00000000000E+00  0.00000000000E+00  0.57888017411E+03  0.57888017411E+03  0.00000000000E+00 0. -1.
         21   -1    0    0  503  502 -0.00000000000E+00 -0.00000000000E+00 -0.76830604563E+02  0.76830604563E+02  0.00000000000E+00 0.  1.
         21    1    1    2  503  501 -0.32697859292E+02 -0.10469729344E+03 -0.28999066367E+02  0.11345315820E+03  0.00000000000E+00 0.  1.
         21    1    1    2  504  502  0.32697859292E+02  0.10469729344E+03  0.53104863592E+03  0.54225762048E+03  0.00000000000E+00 0. -1.
<mgrwt>
<rscale>  2 0.10968443E+03</rscale>
<asrwt>0</asrwt>
<pdfrwt beam="1">  1       21 0.89058485E-01 0.10968443E+03</pdfrwt>
<pdfrwt beam="2">  1       21 0.11820093E-01 0.10968443E+03</pdfrwt>
<totfact> 0.67618284E+04</totfact>
</mgrwt>
</event>
<event>
 4    1  0.5810391E+003  0.1013064E+03  0.7546771E-02  0.1277572E+00
         21   -1    0    0  503  501  0.00000000000E+00  0.00000000000E+00  0.39549101237E+02  0.39549101237E+02  0.00000000000E+00 0. -1.
         21   -1    0    0  501  502 -0.00000000000E+00 -0.00000000000E+00 -0.42834305513E+03  0.42834305513E+03  0.00000000000E+00 0. -1.
         21    1    1    2  503  504  0.81257818988E+02 -0.60499280509E+02 -0.47517416310E+02  0.11189683169E+03  0.00000000000E+00 0. -1.
         21    1    1    2  504  502 -0.81257818988E+02  0.60499280509E+02 -0.34127653759E+03  0.35599532468E+03  0.00000000000E+00 0. -1.
<mgrwt>
<rscale>  2 0.10130645E+03</rscale>
<asrwt>0</asrwt>
<pdfrwt beam="1">  1       21 0.60844769E-02 0.10130645E+03</pdfrwt>
<pdfrwt beam="2">  1       21 0.65898933E-01 0.10130645E+03</pdfrwt>
<totfact> 0.41341420E+05</totfact>
</mgrwt>
</event>
<event>
 4    1  0.5810391E+003  0.1264710E+03  0.7546771E-02  0.1232788E+00
         21   -1    0    0  502  501  0.00000000000E+00  0.00000000000E+00  0.13247231051E+03  0.13247231051E+03  0.00000000000E+00 0. -1.
         21   -1    0    0  504  502 -0.00000000000E+00 -0.00000000000E+00 -0.36960585181E+03  0.36960585181E+03  0.00000000000E+00 0. -1.
         21    1    1    2  503  501 -0.77654245582E+02 -0.99823529555E+02  0.87426567052E+02  0.15374759685E+03  0.00000000000E+00 0. -1.
         21    1    1    2  504  503  0.77654245582E+02  0.99823529555E+02 -0.32456010835E+03  0.34833056547E+03  0.00000000000E+00 0. -1.
<mgrwt>
<rscale>  2 0.12647102E+03</rscale>
<asrwt>0</asrwt>
<pdfrwt beam="1">  1       21 0.20380356E-01 0.12647102E+03</pdfrwt>
<pdfrwt beam="2">  1       21 0.56862439E-01 0.12647102E+03</pdfrwt>
<totfact> 0.66761545E+04</totfact>
</mgrwt>
</event>
<event>
 4    1  0.5810391E+003  0.1078304E+03  0.7546771E-02  0.1264641E+00
         21   -1    0    0  504  501  0.00000000000E+00  0.00000000000E+00  0.22559240077E+03  0.22559240077E+03  0.00000000000E+00 0. -1.
         21   -1    0    0  501  502 -0.00000000000E+00 -0.00000000000E+00 -0.21846082577E+03  0.21846082577E+03  0.00000000000E+00 0. -1.
         21    1    1    2  503  502  0.90374505405E+02  0.58820361485E+02 -0.19051005085E+03  0.21890972027E+03  0.00000000000E+00 0. -1.
         21    1    1    2  504  503 -0.90374505405E+02 -0.58820361485E+02  0.19764162585E+03  0.22514350628E+03  0.00000000000E+00 0. -1.
<mgrwt>
<rscale>  2 0.10783036E+03</rscale>
<asrwt>0</asrwt>
<pdfrwt beam="1">  1       21 0.34706523E-01 0.10783036E+03</pdfrwt>
<pdfrwt beam="2">  1       21 0.33609358E-01 0.10783036E+03</pdfrwt>
<totfact> 0.70957389E+04</totfact>
</mgrwt>
</event>
<event>
 4    1  0.5810391E+003  0.1040930E+03  0.7546771E-02  0.1271917E+00
         21   -1    0    0  504  501  0.00000000000E+00  0.00000000000E+00  0.10427459540E+03  0.10427459540E+03  0.00000000000E+00 0.  1.
         21   -1    0    0  503  502 -0.00000000000E+00 -0.00000000000E+00 -0.10494450390E+03  0.10494450390E+03  0.00000000000E+00 0.  1.
         21    1    1    2  503  501  0.72259662676E+02 -0.74925863382E+02 -0.10712956673E+02  0.10464277947E+03  0.00000000000E+00 0.  1.
         21    1    1    2  504  502 -0.72259662676E+02  0.74925863382E+02  0.10043048178E+02  0.10457631984E+03  0.00000000000E+00 0.  1.
<mgrwt>
<rscale>  2 0.10409296E+03</rscale>
<asrwt>0</asrwt>
<pdfrwt beam="1">  1       21 0.16042246E-01 0.10409296E+03</pdfrwt>
<pdfrwt beam="2">  1       21 0.16145308E-01 0.10409296E+03</pdfrwt>
<totfact> 0.11848562E+06</totfact>
</mgrwt>
</event>
<event>
 4    1  0.5810391E+003  0.1205911E+03  0.7546771E-02  0.1242125E+00
         21   -1    0    0  504  501  0.00000000000E+00  0.00000000000E+00  0.20762857231E+03  0.20762857231E+03  0.00000000000E+00 0.  1.
         21   -1    0    0  503  502 -0.00000000000E+00 -0.00000000000E+00 -0.70039994299E+02  0.70039994299E+02  0.00000000000E+00 0.  1.
         21    1    1    2  503  501  0.43910755718E+02 -0.11231237578E+03  0.68469065594E+02  0.13867313065E+03  0.00000000000E+00 0.  1.
         21    1    1    2  504  502 -0.43910755718E+02  0.11231237578E+03  0.69119512419E+02  0.13899543596E+03  0.00000000000E+00 0.  1.
<mgrwt>
<rscale>  2 0.12059114E+03</rscale>
<asrwt>0</asrwt>
<pdfrwt beam="1">  1       21 0.31942857E-01 0.12059114E+03</pdfrwt>
<pdfrwt beam="2">  1       21 0.10775384E-01 0.12059114E+03</pdfrwt>
<totfact> 0.67357763E+05</totfact>
</mgrwt>
</event>
<event>
 4    1  0.5810391E+003  0.1134431E+03  0.7546771E-02  0.1254323E+00
         21   -1    0    0  504  501  0.00000000000E+00  0.00000000000E+00  0.30911938612E+02  0.30911938612E+02  0.00000000000E+00 0. -1.
         21   -1    0    0  503  502 -0.00000000000E+00 -0.00000000000E+00 -0.41839929546E+03  0.41839929546E+03  0.00000000000E+00 0. -1.
         21    1    1    2  503  501  0.52712335510E+02 -0.10045275075E+03 -0.17791716563E+03  0.21100678490E+03  0.00000000000E+00 0. -1.
         21    1    1    2  504  502 -0.52712335510E+02  0.10045275075E+03 -0.20957019122E+03  0.23830444918E+03  0.00000000000E+00 0. -1.
<mgrwt>
<rscale>  2 0.11344314E+03</rscale>
<asrwt>0</asrwt>
<pdfrwt beam="1">  1       21 0.47556834E-02 0.11344314E+03</pdfrwt>
<pdfrwt beam="2">  1       21 0.64369115E-01 0.11344314E+03</pdfrwt>
<totfact> 0.65678219E+05</totfact>
</mgrwt>
</event>
<event>
 4    1  0.5810391E+003  0.1261106E+03  0.7546771E-02  0.1233344E+00
         21   -1    0    0  503  501  0.00000000000E+00  0.00000000000E+00  0.11117050342E+03  0.11117050342E+03  0.00000000000E+00 0.  1.
         21   -1    0    0  504  502 -0.00000000000E+00 -0.00000000000E+00 -0.17166293895E+03  0.17166293895E+03  0.00000000000E+00 0.  1.
         21    1    1    2  503  502 -0.81188812152E+02  0.96500104425E+02  0.27480739752E+02  0.12907007566E+03  0.00000000000E+00 0.  1.
         21    1    1    2  504  501  0.81188812152E+02 -0.96500104425E+02 -0.87973175283E+02  0.15376336671E+03  0.00000000000E+00 0.  1.
<mgrwt>
<rscale>  2 0.12611064E+03</rscale>
<asrwt>0</asrwt>
<pdfrwt beam="1">  1       21 0.17103154E-01 0.12611064E+03</pdfrwt>
<pdfrwt beam="2">  1       21 0.26409683E-01 0.12611064E+03</pdfrwt>
<totfact> 0.42491241E+05</totfact>
</mgrwt>
</event>
<event>
 4    1  0.5810391E+003  0.1029855E+03  0.7546771E-02  0.1274140E+00
         21   -1    0    0  504  501  0.00000000000E+00  0.00000000000E+00  0.59988841111E+03  0.59988841111E+03  0.00000000000E+00 0.  1.
         21   -1    0    0  503  502 -0.00000000000E+00 -0.00000000000E+00 -0.19236785813E+02  0.19236785813E+02  0.00000000000E+00 0.  1.
         21    1    1    2  503  501 -0.20679727658E+02  0.10088783923E+03  0.20226123008E+03  0.22697051006E+03  0.00000000000E+00 0.  1.
         21    1    1    2  504  502  0.20679727658E+02 -0.10088783923E+03  0.37839039522E+03  0.39215468687E+03  0.00000000000E+00 0.  1.
<mgrwt>
<rscale>  2 0.10298547E+03</rscale>
<asrwt>0</asrwt>
<pdfrwt beam="1">  1       21 0.92290511E-01 0.10298547E+03</pdfrwt>
<pdfrwt beam="2">  1       21 0.29595060E-02 0.10298547E+03</pdfrwt>
<totfact> 0.64835482E+05</totfact>
</mgrwt>
</event>
<event>
 4    1  0.5810391E+003  0.1135096E+03  0.7546771E-02  0.1254205E+00
         21   -1    0    0  502  501  0.00000000000E+00  0.00000000000E+00  0.13664555126E+03  0.13664555126E+03  0.00000000000E+00 0. -1.
         21   -1    0    0  503  502 -0.00000000000E+00 -0.00000000000E+00 -0.13059143706E+03  0.13059143706E+03  0.00000000000E+00 0. -1.
         21    1    1    2  503  504  0.57895596539E+02  0.97634644335E+02 -0.67420526956E+02  0.13202254099E+03  0.00000000000E+00 0. -1.
         21    1    1    2  504  501 -0.57895596539E+02 -0.97634644335E+02  0.73474641157E+02  0.13521444733E+03  0.00000000000E+00 0. -1.
<mgrwt>
<rscale>  2 0.11350958E+03</rscale>
<asrwt>0</asrwt>
<pdfrwt beam="1">  1       21 0.21022392E-01 0.11350958E+03</pdfrwt>
<pdfrwt beam="2">  1       21 0.20090990E-01 0.11350958E+03</pdfrwt>
<totfact> 0.48577807E+05</totfact>
</mgrwt>
</event>
<event>
 4    1  0.5810391E+003  0.1056111E+03  0.7546771E-02  0.1268920E+00
         21   -1    0    0  502  501  0.00000000000E+00  0.00000000000E+00  0.96659041726E+02  0.96659041726E+02  0.00000000000E+00 0.  1.
         21   -1    0    0  503  502 -0.00000000000E+00 -0.00000000000E+00 -0.35157757271E+03  0.35157757271E+03  0.00000000000E+00 0.  1.
         21    1    1    2  503  504  0.79353281339E+02 -0.69690411944E+02 -0.31115254862E+03  0.32858728717E+03  0.00000000000E+00 0.  1.
         21    1    1    2  504  501 -0.79353281339E+02  0.69690411944E+02  0.56234017636E+02  0.11964932727E+03  0.00000000000E+00 0.  1.
<mgrwt>
<rscale>  2 0.10561106E+03</rscale>
<asrwt>0</asrwt>
<pdfrwt beam="1">  1       21 0.14870622E-01 0.10561106E+03</pdfrwt>
<pdfrwt beam="2">  1       21 0.54088857E-01 0.10561106E+03</pdfrwt>
<totfact> 0.13282357E+05</totfact>
</mgrwt>
</event>
<event>
 4    1  0.5810391E+003  0.1183278E+03  0.7546771E-02  0.1245881E+00
         21   -1    0    0  503  501  0.00000000000E+00  0.00000000000E+00  0.12311456382E+03  0.12311456382E+03  0.00000000000E+00 0. -1.
         21   -1    0    0  504  502 -0.00000000000E+00 -0.00000000000E+00 -0.20538891004E+03  0.20538891004E+03  0.00000000000E+00 0. -1.
         21    1    1    2  503  502  0.11750720881E+03 -0.13911131904E+02  0.68590372054E+02  0.13677025573E+03  0.00000000000E+00 0. -1.
         21    1    1    2  504  501 -0.11750720881E+03  0.13911131904E+02 -0.15086471827E+03  0.19173321813E+03  0.00000000000E+00 0. -1.
<mgrwt>
<rscale>  2 0.11832778E+03</rscale>
<asrwt>0</asrwt>
<pdfrwt beam="1">  1       21 0.18940702E-01 0.11832778E+03</pdfrwt>
<pdfrwt beam="2">  1       21 0.31598294E-01 0.11832778E+03</pdfrwt>
<totfact> 0.25028481E+05</totfact>
</mgrwt>
</event>
<event>
 4    1  0.5810391E+003  0.1042735E+03  0.7546771E-02  0.1271558E+00
         21   -1    0    0  503  501  0.00000000000E+00  0.00000000000E+00  0.23045587334E+02  0.23045587334E+02  0.00000000000E+00 0. -1.
         21   -1    0    0  504  502 -0.00000000000E+00 -0.00000000000E+00 -0.56169988162E+03  0.56169988162E+03  0.00000000000E+00 0. -1.
         21    1    1    2  503  502 -0.30900577811E+02  0.99589699474E+02 -0.15236119563E+03  0.18462634667E+03  0.00000000000E+00 0. -1.
         21    1    1    2  504  501  0.30900577811E+02 -0.99589699474E+02 -0.38629309866E+03  0.40011912229E+03  0.00000000000E+00 0. -1.
<mgrwt>
<rscale>  2 0.10427346E+03</rscale>
<asrwt>0</asrwt>
<pdfrwt beam="1">  1       21 0.35454752E-02 0.10427346E+03</pdfrwt>
<pdfrwt beam="2">  1       21 0.86415360E-01 0.10427346E+03</pdfrwt>
<totfact> 0.55991539E+05</totfact>
</mgrwt>
</event>
<event>
 4    1  0.5810391E+003  0.1024253E+03  0.7546771E-02  0.1275277E+00
         21   -1    0    0  504  501  0.00000000000E+00  0.00000000000E+00  0.33317290340E+03  0.33317290340E+03  0.00000000000E+00 0.  1.
         21   -1    0    0  503  502 -0.00000000000E+00 -0.00000000000E+00 -0.45235096984E+02  0.45235096984E+02  0.00000000000E+00 0.  1.
         21    1    1    2  503  501  0.91254376717E+01  0.10201797806E+03  0.24827228213E+03  0.26857041448E+03  0.00000000000E+00 0.  1.
         21    1    1    2  504  502 -0.91254376717E+01 -0.10201797806E+03  0.39665524286E+02  0.10983758590E+03  0.00000000000E+00 0.  1.
<mgrwt>
<rscale>  2 0.10242530E+03</rscale>
<asrwt>0</asrwt>
<pdfrwt beam="1">  1       21 0.51257368E-01 0.10242530E+03</pdfrwt>
<pdfrwt beam="2">  1       21 0.69592459E-02 0.10242530E+03</pdfrwt>
<totfact> 0.55789493E+05</totfact>
</mgrwt>
</event>
<event>
 4    1  0.5810391E+003  0.1088482E+03  0.7546771E-02  0.1262718E+00
         21   -1    0    0  504  501  0.00000000000E+00  0.00000000000E+00  0.15287086504E+02  0.15287086504E+02  0.00000000000E+00 0.  1.
         21   -1    0    0  503  502 -0.00000000000E+00 -0.00000000000E+00 -0.92167275849E+03  0.92167275849E+03  0.00000000000E+00 0.  1.
         21    1    1    2  503  501  0.24050959935E+02 -0.10615776876E+03 -0.26632444986E+03  0.28770928580E+03  0.00000000000E+00 0.  1.
         21    1    1    2  504  502 -0.24050959935E+02  0.10615776876E+03 -0.64006122212E+03  0.64925055919E+03  0.00000000000E+00 0.  1.
<mgrwt>
<rscale>  2 0.10884815E+03</rscale>
<asrwt>0</asrwt>
<pdfrwt beam="1">  1       21 0.23518599E-02 0.10884815E+03</pdfrwt>
<pdfrwt beam="2">  1       21 0.14179578E+00 0.10884815E+03</pdfrwt>
<totfact> 0.33574157E+05</totfact>
</mgrwt>
</event>
<event>
 4    1  0.5810391E+003  0.1199066E+03  0.7546771E-02  0.1243251E+00
         21   -1    0    0  504  501  0.00000000000E+00  0.00000000000E+00  0.41545272200E+03  0.41545272200E+03  0.00000000000E+00 0.  1.
         21   -1    0    0  503  502 -0.00000000000E+00 -0.00000000000E+00 -0.56786604552E+03  0.56786604552E+03  0.00000000000E+00 0.  1.
         21    1    1    2  503  501 -0.64827270667E+02 -0.10087124187E+03 -0.55264915345E+03  0.56550744404E+03  0.00000000000E+00 0.  1.
         21    1    1    2  504  502  0.64827270667E+02  0.10087124187E+03  0.40023582993E+03  0.41781132347E+03  0.00000000000E+00 0.  1.
<mgrwt>
<rscale>  2 0.11990656E+03</rscale>
<asrwt>0</asrwt>
<pdfrwt beam="1">  1       21 0.63915804E-01 0.11990656E+03</pdfrwt>
<pdfrwt beam="2">  1       21 0.87364006E-01 0.11990656E+03</pdfrwt>
<totfact> 0.27412401E+03</totfact>
</mgrwt>
</event>
<event>
 4    1  0.5810391E+003  0.1022378E+03  0.7546771E-02  0.1275659E+00
         21   -1    0    0  503  501  0.00000000000E+00  0.00000000000E+00  0.19318458591E+02  0.19318458591E+02  0.00000000000E+00 0.  1.
         21   -1    0    0  504  502 -0.00000000000E+00 -0.00000000000E+00 -0.12031217686E+04  0.12031217686E+04  0.00000000000E+00 0.  1.
         21    1    1    2  503  502 -0.86928470653E+02  0.53814533381E+02 -0.13849269341E+03  0.17214177047E+03  0.00000000000E+00 0.  1.
         21    1    1    2  504  501  0.86928470653E+02 -0.53814533381E+02 -0.10453106166E+04  0.10502984567E+04  0.00000000000E+00 0.  1.
<mgrwt>
<rscale>  2 0.10223778E+03</rscale>
<asrwt>0</asrwt>
<pdfrwt beam="1">  1       21 0.29720706E-02 0.10223778E+03</pdfrwt>
<pdfrwt beam="2">  1       21 0.18509565E+00 0.10223778E+03</pdfrwt>
<totfact> 0.11406284E+05</totfact>
</mgrwt>
</event>
<event>
 4    1  0.5810391E+003  0.1361900E+03  0.7546771E-02  0.1218549E+00
         21   -1    0    0  503  501  0.00000000000E+00  0.00000000000E+00  0.15387753490E+03  0.15387753490E+03  0.00000000000E+00 0.  1.
         21   -1    0    0  504  502 -0.00000000000E+00 -0.00000000000E+00 -0.12061268227E+03  0.12061268227E+03  0.00000000000E+00 0.  1.
         21    1    1    2  503  502 -0.30887150851E+02  0.13264125990E+03  0.20102170147E+02  0.13766559905E+03  0.00000000000E+00 0.  1.
         21    1    1    2  504  501  0.30887150851E+02 -0.13264125990E+03  0.13162682482E+02  0.13682461813E+03  0.00000000000E+00 0.  1.
<mgrwt>
<rscale>  2 0.13619001E+03</rscale>
<asrwt>0</asrwt>
<pdfrwt beam="1">  1       21 0.23673467E-01 0.13619001E+03</pdfrwt>
<pdfrwt beam="2">  1       21 0.18555797E-01 0.13619001E+03</pdfrwt>
<totfact> 0.44967377E+05</totfact>
</mgrwt>
</event>
<event>
 4    1  0.5810391E+003  0.1091679E+03  0.7546771E-02  0.1262119E+00
         21   -1    0    0  503  501  0.00000000000E+00  0.00000000000E+00  0.30837231069E+03  0.30837231069E+03  0.00000000000E+00 0.  1.
         21   -1    0    0  504  502 -0.00000000000E+00 -0.00000000000E+00 -0.11118695471E+03  0.11118695471E+03  0.00000000000E+00 0. -1.
         21    1    1    2  503  502 -0.10877707729E+03  0.92289079192E+01  0.26803637771E+03  0.28941514311E+03  0.00000000000E+00 0.  1.
         21    1    1    2  504  501  0.10877707729E+03 -0.92289079192E+01 -0.70851021734E+02  0.13014412229E+03  0.00000000000E+00 0. -1.
<mgrwt>
<rscale>  2 0.10916788E+03</rscale>
<asrwt>0</asrwt>
<pdfrwt beam="1">  1       21 0.47441894E-01 0.10916788E+03</pdfrwt>
<pdfrwt beam="2">  1       21 0.17105685E-01 0.10916788E+03</pdfrwt>
<totfact> 0.13494151E+05</totfact>
</mgrwt>
</event>
<event>
 4    1  0.5810391E+003  0.1419911E+03  0.7546771E-02  0.1210675E+00
         21   -1    0    0  503  501  0.00000000000E+00  0.00000000000E+00  0.34319744688E+03  0.34319744688E+03  0.00000000000E+00 0. -1.
         21   -1    0    0  504  502 -0.00000000000E+00 -0.00000000000E+00 -0.29799358621E+03  0.29799358621E+03  0.00000000000E+00 0. -1.
         21    1    1    2  503  502 -0.58116905482E+02  0.12955265589E+03 -0.26465981841E+03  0.30034361127E+03  0.00000000000E+00 0. -1.
         21    1    1    2  504  501  0.58116905482E+02 -0.12955265589E+03  0.30986367908E+03  0.34084742182E+03  0.00000000000E+00 0. -1.
<mgrwt>
<rscale>  2 0.14199107E+03</rscale>
<asrwt>0</asrwt>
<pdfrwt beam="1">  1       21 0.52799607E-01 0.14199107E+03</pdfrwt>
<pdfrwt beam="2">  1       21 0.45845167E-01 0.14199107E+03</pdfrwt>
<totfact> 0.16039751E+04</totfact>
</mgrwt>
</event>
<event>
 4    1  0.5810391E+003  0.1089796E+03  0.7546771E-02  0.1262471E+00
         21   -1    0    0  503  501  0.00000000000E+00  0.00000000000E+00  0.52979970858E+03  0.52979970858E+03  0.00000000000E+00 0. -1.
         21   -1    0    0  504  502 -0.00000000000E+00 -0.00000000000E+00 -0.57298084486E+02  0.57298084486E+02  0.00000000000E+00 0. -1.
         21    1    1    2  503  502 -0.52116514330E+02  0.95710094787E+02  0.72141533320E+01  0.10921811809E+03  0.00000000000E+00 0. -1.
         21    1    1    2  504  501  0.52116514330E+02 -0.95710094787E+02  0.46528747076E+03  0.47787967498E+03  0.00000000000E+00 0. -1.
<mgrwt>
<rscale>  2 0.10897960E+03</rscale>
<asrwt>0</asrwt>
<pdfrwt beam="1">  1       21 0.81507644E-01 0.10897960E+03</pdfrwt>
<pdfrwt beam="2">  1       21 0.88150903E-02 0.10897960E+03</pdfrwt>
<totfact> 0.13772730E+05</totfact>
</mgrwt>
</event>
<event>
 4    1  0.5810391E+003  0.1101681E+03  0.7546771E-02  0.1260259E+00
         21   -1    0    0  504  501  0.00000000000E+00  0.00000000000E+00  0.65751124829E+03  0.65751124829E+03  0.00000000000E+00 0. -1.
         21   -1    0    0  503  502 -0.00000000000E+00 -0.00000000000E+00 -0.18474000045E+02  0.18474000045E+02  0.00000000000E+00 0. -1.
         21    1    1    2  503  501 -0.95683157895E+02 -0.54605296195E+02  0.32914724610E+03  0.34709496495E+03  0.00000000000E+00 0. -1.
         21    1    1    2  504  502  0.95683157895E+02  0.54605296195E+02  0.30989000214E+03  0.32889028339E+03  0.00000000000E+00 0. -1.
<mgrwt>
<rscale>  2 0.11016808E+03</rscale>
<asrwt>0</asrwt>
<pdfrwt beam="1">  1       21 0.10115556E+00 0.11016808E+03</pdfrwt>
<pdfrwt beam="2">  1       21 0.28421544E-02 0.11016808E+03</pdfrwt>
<totfact> 0.56011939E+05</totfact>
</mgrwt>
</event>
<event>
 4    1  0.5810391E+003  0.1138307E+03  0.7546771E-02  0.1253636E+00
         21   -1    0    0  503  501  0.00000000000E+00  0.00000000000E+00  0.49989646480E+02  0.49989646480E+02  0.00000000000E+00 0. -1.
         21   -1    0    0  504  502 -0.00000000000E+00 -0.00000000000E+00 -0.30539315388E+03  0.30539315388E+03  0.00000000000E+00 0. -1.
         21    1    1    2  503  502 -0.51182859512E+02 -0.10167469725E+03 -0.19680762719E+03  0.22735582528E+03  0.00000000000E+00 0. -1.
         21    1    1    2  504  501  0.51182859512E+02  0.10167469725E+03 -0.58595880211E+02  0.12802697508E+03  0.00000000000E+00 0. -1.
<mgrwt>
<rscale>  2 0.11383070E+03</rscale>
<asrwt>0</asrwt>
<pdfrwt beam="1">  1       21 0.76907148E-02 0.11383070E+03</pdfrwt>
<pdfrwt beam="2">  1       21 0.46983562E-01 0.11383070E+03</pdfrwt>
<totfact> 0.56191458E+05</totfact>
</mgrwt>
</event>
<event>
 4    1  0.5810391E+003  0.1001182E+03  0.7546771E-02  0.1280048E+00
         21   -1    0    0  503  501  0.00000000000E+00  0.00000000000E+00  0.11840224716E+03  0.11840224716E+03  0.00000000000E+00 0. -1.
         21   -1    0    0  504  502 -0.00000000000E+00 -0.00000000000E+00 -0.87871585598E+02  0.87871585598E+02  0.00000000000E+00 0.  1.
         21    1    1    2  503  502  0.76740679722E+02 -0.64300197435E+02  0.34990169094E+02  0.10605639654E+03  0.00000000000E+00 0. -1.
         21    1    1    2  504  501 -0.76740679722E+02  0.64300197435E+02 -0.44595075305E+01  0.10021743622E+03  0.00000000000E+00 0.  1.
<mgrwt>
<rscale>  2 0.10011817E+03</rscale>
<asrwt>0</asrwt>
<pdfrwt beam="1">  1       21 0.18215730E-01 0.10011817E+03</pdfrwt>
<pdfrwt beam="2">  1       21 0.13518705E-01 0.10011817E+03</pdfrwt>
<totfact> 0.12922591E+06</totfact>
</mgrwt>
</event>
<event>
 4    1  0.5810391E+003  0.1698356E+03  0.7546771E-02  0.1178019E+00
         21   -1    0    0  504  501  0.00000000000E+00  0.00000000000E+00  0.10553507297E+02  0.10553507297E+02  0.00000000000E+00 0. -1.
         21   -1    0    0  501  502 -0.00000000000E+00 -0.00000000000E+00 -0.33234414710E+04  0.33234414710E+04  0.00000000000E+00 0.  1.
         21    1    1    2  503  502 -0.98575838101E+02  0.13830018435E+03 -0.23589992795E+04  0.23651050162E+04  0.00000000000E+00 0. -1.
         21    1    1    2  504  503  0.98575838101E+02 -0.13830018435E+03 -0.95388868413E+03  0.96888996205E+03  0.00000000000E+00 0.  1.
<mgrwt>
<rscale>  2 0.16983562E+03</rscale>
<asrwt>0</asrwt>
<pdfrwt beam="1">  1       21 0.16236149E-02 0.16983562E+03</pdfrwt>
<pdfrwt beam="2">  1       21 0.51129920E+00 0.16983562E+03</pdfrwt>
<totfact> 0.28173337E+03</totfact>
</mgrwt>
</event>
<event>
 4    1  0.5810391E+003  0.1005388E+03  0.7546771E-02  0.1279167E+00
         21   -1    0    0  504  501  0.00000000000E+00  0.00000000000E+00  0.66430351621E+03  0.66430351621E+03  0.00000000000E+00 0.  1.
         21   -1    0    0  503  502 -0.00000000000E+00 -0.00000000000E+00 -0.20678374118E+02  0.20678374118E+02  0.00000000000E+00 0.  1.
         21    1    1    2  503  501 -0.55783072955E+02  0.83643874466E+02  0.49784035517E+03  0.50789080342E+03  0.00000000000E+00 0.  1.
         21    1    1    2  504  502  0.55783072955E+02 -0.83643874466E+02  0.14578478693E+03  0.17709108691E+03  0.00000000000E+00 0.  1.
<mgrwt>
<rscale>  2 0.10053879E+03</rscale>
<asrwt>0</asrwt>
<pdfrwt beam="1">  1       21 0.10220052E+00 0.10053879E+03</pdfrwt>
<pdfrwt beam="2">  1       21 0.31812888E-02 0.10053879E+03</pdfrwt>
<totfact> 0.45550977E+05</totfact>
</mgrwt>
</event>
<event>
 4    1  0.5810391E+003  0.1063559E+03  0.7546771E-02  0.1267471E+00
         21   -1    0    0  503  501  0.00000000000E+00  0.00000000000E+00  0.47321600261E+03  0.47321600261E+03  0.00000000000E+00 0. -1.
         21   -1    0    0  504  502 -0.00000000000E+00 -0.00000000000E+00 -0.40667548091E+03  0.40667548091E+03  0.00000000000E+00 0.  1.
         21    1    1    2  503  502  0.74503503602E+02  0.75899998564E+02  0.46009061149E+03  0.47222341387E+03  0.00000000000E+00 0. -1.
         21    1    1    2  504  501 -0.74503503602E+02 -0.75899998564E+02 -0.39355008979E+03  0.40766806964E+03  0.00000000000E+00 0.  1.
<mgrwt>
<rscale>  2 0.10635592E+03</rscale>
<asrwt>0</asrwt>
<pdfrwt beam="1">  1       21 0.72802462E-01 0.10635592E+03</pdfrwt>
<pdfrwt beam="2">  1       21 0.62565459E-01 0.10635592E+03</pdfrwt>
<totfact> 0.43804114E+03</totfact>
</mgrwt>
</event>
<event>
 4    1  0.5810391E+003  0.1000223E+03  0.7546771E-02  0.1280249E+00
         21   -1    0    0  503  501  0.00000000000E+00  0.00000000000E+00  0.92911145723E+03  0.92911145723E+03  0.00000000000E+00 0.  1.
         21   -1    0    0  504  502 -0.00000000000E+00 -0.00000000000E+00 -0.21257261707E+02  0.21257261707E+02  0.00000000000E+00 0. -1.
         21    1    1    2  503  502 -0.96824034563E+02  0.25091043858E+02  0.78772668569E+03  0.79405150053E+03  0.00000000000E+00 0.  1.
         21    1    1    2  504  501  0.96824034563E+02 -0.25091043858E+02  0.12012750984E+03  0.15631721841E+03  0.00000000000E+00 0. -1.
<mgrwt>
<rscale>  2 0.10002227E+03</rscale>
<asrwt>0</asrwt>
<pdfrwt beam="1">  1       21 0.14294019E+00 0.10002227E+03</pdfrwt>
<pdfrwt beam="2">  1       21 0.32703487E-02 0.10002227E+03</pdfrwt>
<totfact> 0.19313354E+05</totfact>
</mgrwt>
</event>
<event>
 4    1  0.5810391E+003  0.1027378E+03  0.7546771E-02  0.1274642E+00
         21   -1    0    0  504  501  0.00000000000E+00  0.00000000000E+00  0.27143251221E+02  0.27143251221E+02  0.00000000000E+00 0. -1.
         21   -1    0    0  503  502 -0.00000000000E+00 -0.00000000000E+00 -0.40629962676E+03  0.40629962676E+03  0.00000000000E+00 0. -1.
         21    1    1    2  503  501  0.91116640516E+02 -0.47463830372E+02 -0.23447198845E+03  0.25599252086E+03  0.00000000000E+00 0. -1.
         21    1    1    2  504  502 -0.91116640516E+02  0.47463830372E+02 -0.14468438709E+03  0.17745035711E+03  0.00000000000E+00 0. -1.
<mgrwt>
<rscale>  2 0.10273781E+03</rscale>
<asrwt>0</asrwt>
<pdfrwt beam="1">  1       21 0.41758848E-02 0.10273781E+03</pdfrwt>
<pdfrwt beam="2">  1       21 0.62507636E-01 0.10273781E+03</pdfrwt>
<totfact> 0.86775781E+05</totfact>
</mgrwt>
</event>
<event>
 4    1  0.5810391E+003  0.1066716E+03  0.7546771E-02  0.1266861E+00
         21   -1    0    0  503  501  0.00000000000E+00  0.00000000000E+00  0.36066061360E+02  0.36066061360E+02  0.00000000000E+00 0. -1.
         21   -1    0    0  504  502 -0.00000000000E+00 -0.00000000000E+00 -0.41466186053E+03  0.41466186053E+03  0.00000000000E+00 0. -1.
         21    1    1    2  503  502 -0.83649171807E+02 -0.66194037441E+02 -0.79090633390E+02  0.13279368519E+03  0.00000000000E+00 0. -1.
         21    1    1    2  504  501  0.83649171807E+02  0.66194037441E+02 -0.29950516578E+03  0.31793423670E+03  0.00000000000E+00 0. -1.
<mgrwt>
<rscale>  2 0.10667162E+03</rscale>
<asrwt>0</asrwt>
<pdfrwt beam="1">  1       21 0.55486251E-02 0.10667162E+03</pdfrwt>
<pdfrwt beam="2">  1       21 0.63794130E-01 0.10667162E+03</pdfrwt>
<totfact> 0.51726111E+05</totfact>
</mgrwt>
</event>
<event>
 4    1  0.5810391E+003  0.1401877E+03  0.7546771E-02  0.1213077E+00
         21   -1    0    0  503  501  0.00000000000E+00  0.00000000000E+00  0.91129688190E+03  0.91129688190E+03  0.00000000000E+00 0. -1.
         21   -1    0    0  504  502 -0.00000000000E+00 -0.00000000000E+00 -0.67717387727E+02  0.67717387727E+02  0.00000000000E+00 0. -1.
         21    1    1    2  503  502  0.13955705116E+03  0.13282085022E+02  0.17676019137E+02  0.14129765024E+03  0.00000000000E+00 0. -1.
         21    1    1    2  504  501 -0.13955705116E+03 -0.13282085022E+02  0.82590347504E+03  0.83771661938E+03  0.00000000000E+00 0. -1.
<mgrwt>
<rscale>  2 0.14018768E+03</rscale>
<asrwt>0</asrwt>
<pdfrwt beam="1">  1       21 0.14019951E+00 0.14018768E+03</pdfrwt>
<pdfrwt beam="2">  1       21 0.10418060E-01 0.14018768E+03</pdfrwt>
<totfact> 0.27856929E+04</totfact>
</mgrwt>
</event>
<event>
 4    1  0.5810391E+003  0.1135876E+03  0.7546771E-02  0.1254067E+00
         21   -1    0    0  503  501  0.00000000000E+00  0.00000000000E+00  0.28068368205E+03  0.28068368205E+03  0.00000000000E+00 0.  1.
         21   -1    0    0  504  502 -0.00000000000E+00 -0.00000000000E+00 -0.54183932450E+02  0.54183932450E+02  0.00000000000E+00 0.  1.
         21    1    1    2  503  502 -0.96961896215E+02 -0.59165249731E+02  0.48046882670E+02  0.12333141947E+03  0.00000000000E+00 0.  1.
         21    1    1    2  504  501  0.96961896215E+02  0.59165249731E+02  0.17845286694E+03  0.21153619504E+03  0.00000000000E+00 0.  1.
<mgrwt>
<rscale>  2 0.11358757E+03</rscale>
<asrwt>0</asrwt>
<pdfrwt beam="1">  1       21 0.43182104E-01 0.11358757E+03</pdfrwt>
<pdfrwt beam="2">  1       21 0.83359897E-02 0.11358757E+03</pdfrwt>
<totfact> 0.58042575E+05</totfact>
</mgrwt>
</event>
<event>
 4    1  0.5810391E+003  0.1806879E+03  0.7546771E-02  0.1167139E+00
         21   -1    0    0  502  501  0.00000000000E+00  0.00000000000E+00  0.14934230961E+03  0.14934230961E+03  0.00000000000E+00 0. -1.
         21   -1    0    0  503  502 -0.00000000000E+00 -0.00000000000E+00 -0.11967740169E+04  0.11967740169E+04  0.00000000000E+00 0. -1.
         21    1    1    2  503  504  0.18066012573E+03  0.31653068847E+01 -0.11322035480E+04  0.11465308431E+04  0.00000000000E+00 0. -1.
         21    1    1    2  504  501 -0.18066012573E+03 -0.31653068847E+01  0.84771840701E+02  0.19958548337E+03  0.00000000000E+00 0. -1.
<mgrwt>
<rscale>  2 0.18068785E+03</rscale>
<asrwt>0</asrwt>
<pdfrwt beam="1">  1       21 0.22975741E-01 0.18068785E+03</pdfrwt>
<pdfrwt beam="2">  1       21 0.18411907E+00 0.18068785E+03</pdfrwt>
<totfact> 0.30709005E+03</totfact>
</mgrwt>
</event>
<event>
 4    1  0.5810391E+003  0.1041949E+03  0.7546771E-02  0.1271714E+00
         21   -1    0    0  503  501  0.00000000000E+00  0.00000000000E+00  0.65244973429E+03  0.65244973429E+03  0.00000000000E+00 0.  1.
         21   -1    0    0  504  502 -0.00000000000E+00 -0.00000000000E+00 -0.16829155459E+02  0.16829155459E+02  0.00000000000E+00 0.  1.
         21    1    1    2  503  502  0.17051103815E+02  0.10279028326E+03  0.35331400696E+03  0.36835766585E+03  0.00000000000E+00 0.  1.
         21    1    1    2  504  501 -0.17051103815E+02 -0.10279028326E+03  0.28230657187E+03  0.30092122390E+03  0.00000000000E+00 0.  1.
<mgrwt>
<rscale>  2 0.10419493E+03</rscale>
<asrwt>0</asrwt>
<pdfrwt beam="1">  1       21 0.10037686E+00 0.10419493E+03</pdfrwt>
<pdfrwt beam="2">  1       21 0.25891013E-02 0.10419493E+03</pdfrwt>
<totfact> 0.66403513E+05</totfact>
</mgrwt>
</event>
<event>
 4    1  0.5810391E+003  0.1093912E+03  0.7546771E-02  0.1261701E+00
         21   -1    0    0  504  501  0.00000000000E+00  0.00000000000E+00  0.22387632625E+02  0.22387632625E+02  0.00000000000E+00 0.  1.
         21   -1    0    0  503  502 -0.00000000000E+00 -0.00000000000E+00 -0.56930971495E+03  0.56930971495E+03  0.00000000000E+00 0. -1.
         21    1    1    2  503  501  0.56026452934E+02  0.93954666418E+02 -0.20031766238E+03  0.22824024323E+03  0.00000000000E+00 0.  1.
         21    1    1    2  504  502 -0.56026452934E+02 -0.93954666418E+02 -0.34660441995E+03  0.36345710434E+03  0.00000000000E+00 0. -1.
<mgrwt>
<rscale>  2 0.10939124E+03</rscale>
<asrwt>0</asrwt>
<pdfrwt beam="1">  1       21 0.34442512E-02 0.10939124E+03</pdfrwt>
<pdfrwt beam="2">  1       21 0.87586109E-01 0.10939124E+03</pdfrwt>
<totfact> 0.56941314E+05</totfact>
</mgrwt>
</event>
<event>
 4    1  0.5810391E+003  0.1578541E+03  0.7546771E-02  0.1191141E+00
         21   -1    0    0  503  501  0.00000000000E+00  0.00000000000E+00  0.87965849656E+02  0.87965849656E+02  0.00000000000E+00 0. -1.
         21   -1    0    0  501  502 -0.00000000000E+00 -0.00000000000E+00 -0.28726006700E+03  0.28726006700E+03  0.00000000000E+00 0. -1.
         21    1    1    2  503  504  0.15396415390E+03  0.34827535491E+02 -0.77530455643E+02  0.17586611233E+03  0.00000000000E+00 0. -1.
         21    1    1    2  504  502 -0.15396415390E+03 -0.34827535491E+02 -0.12176376170E+03  0.19935980432E+03  0.00000000000E+00 0. -1.
<mgrwt>
<rscale>  2 0.15785410E+03</rscale>
<asrwt>0</asrwt>
<pdfrwt beam="1">  1       21 0.13533208E-01 0.15785410E+03</pdfrwt>
<pdfrwt beam="2">  1       21 0.44193856E-01 0.15785410E+03</pdfrwt>
<totfact> 0.23470713E+05</totfact>
</mgrwt>
</event>
<event>
 4    1  0.5810391E+003  0.1097044E+03  0.7546771E-02  0.1261118E+00
         21   -1    0    0  504  501  0.00000000000E+00  0.00000000000E+00  0.20005938700E+02  0.20005938700E+02  0.00000000000E+00 0. -1.
         21   -1    0    0  503  502 -0.00000000000E+00 -0.00000000000E+00 -0.60392096901E+03  0.60392096901E+03  0.00000000000E+00 0. -1.
         21    1    1    2  503  501 -0.49799166476E+02  0.97750237618E+02 -0.27251262444E+03  0.29376554668E+03  0.00000000000E+00 0. -1.
         21    1    1    2  504  502  0.49799166476E+02 -0.97750237618E+02 -0.31140240587E+03  0.33016136103E+03  0.00000000000E+00 0. -1.
<mgrwt>
<rscale>  2 0.10970445E+03</rscale>
<asrwt>0</asrwt>
<pdfrwt beam="1">  1       21 0.30778368E-02 0.10970445E+03</pdfrwt>
<pdfrwt beam="2">  1       21 0.92910915E-01 0.10970445E+03</pdfrwt>
<totfact> 0.59864227E+05</totfact>
</mgrwt>
</event>
<event>
 4    1  0.5810391E+003  0.2754418E+03  0.7546771E-02  0.1098205E+00
         21   -1    0    0  504  501  0.00000000000E+00  0.00000000000E+00  0.44452744754E+03  0.44452744754E+03  0.00000000000E+00 0.  1.
         21   -1    0    0  503  502 -0.00000000000E+00 -0.00000000000E+00 -0.25606597173E+03  0.25606597173E+03  0.00000000000E+00 0.  1.
         21    1    1    2  503  501 -0.10059893587E+03  0.25641381228E+03  0.29652095066E+03  0.40471330989E+03  0.00000000000E+00 0.  1.
         21    1    1    2  504  502  0.10059893587E+03 -0.25641381228E+03 -0.10805947485E+03  0.29588010938E+03  0.00000000000E+00 0.  1.
<mgrwt>
<rscale>  2 0.27544181E+03</rscale>
<asrwt>0</asrwt>
<pdfrwt beam="1">  1       21 0.68388838E-01 0.27544181E+03</pdfrwt>
<pdfrwt beam="2">  1       21 0.39394765E-01 0.27544181E+03</pdfrwt>
<totfact> 0.11549992E+04</totfact>
</mgrwt>
</event>
<event>
 4    1  0.5810391E+003  0.1269776E+03  0.7546771E-02  0.1232011E+00
         21   -1    0    0  504  501  0.00000000000E+00  0.00000000000E+00  0.33181819174E+02  0.33181819174E+02  0.00000000000E+00 0.  1.
         21   -1    0    0  503  502 -0.00000000000E+00 -0.00000000000E+00 -0.11761165887E+04  0.11761165887E+04  0.00000000000E+00 0. -1.
         21    1    1    2  503  501 -0.65210787976E+02  0.10895347251E+03 -0.10346673605E+04  0.10424297832E+04  0.00000000000E+00 0. -1.
         21    1    1    2  504  502  0.65210787976E+02 -0.10895347251E+03 -0.10826740904E+03  0.16686862468E+03  0.00000000000E+00 0.  1.
<mgrwt>
<rscale>  2 0.12697758E+03</rscale>
<asrwt>0</asrwt>
<pdfrwt beam="1">  1       21 0.51048957E-02 0.12697758E+03</pdfrwt>
<pdfrwt beam="2">  1       21 0.18094100E+00 0.12697758E+03</pdfrwt>
<totfact> 0.48683037E+04</totfact>
</mgrwt>
</event>
<event>
 4    1  0.5810391E+003  0.1237684E+03  0.7546771E-02  0.1237007E+00
         21   -1    0    0  503  501  0.00000000000E+00  0.00000000000E+00  0.20444697770E+03  0.20444697770E+03  0.00000000000E+00 0.  1.
         21   -1    0    0  504  502 -0.00000000000E+00 -0.00000000000E+00 -0.87346229466E+02  0.87346229466E+02  0.00000000000E+00 0.  1.
         21    1    1    2  503  502  0.47530426386E+02 -0.11427804820E+03  0.11356385696E+03  0.16797429369E+03  0.00000000000E+00 0.  1.
         21    1    1    2  504  501 -0.47530426386E+02  0.11427804820E+03  0.35368912667E+01  0.12381891347E+03  0.00000000000E+00 0.  1.
<mgrwt>
<rscale>  2 0.12376839E+03</rscale>
<asrwt>0</asrwt>
<pdfrwt beam="1">  1       21 0.31453381E-01 0.12376839E+03</pdfrwt>
<pdfrwt beam="2">  1       21 0.13437881E-01 0.12376839E+03</pdfrwt>
<totfact> 0.46948438E+05</totfact>
</mgrwt>
</event>
<event>
 4    1  0.5810391E+003  0.1019751E+03  0.7546771E-02  0.1276197E+00
         21   -1    0    0  503  501  0.00000000000E+00  0.00000000000E+00  0.29612121357E+02  0.29612121357E+02  0.00000000000E+00 0. -1.
         21   -1    0    0  504  502 -0.00000000000E+00 -0.00000000000E+00 -0.40026843196E+03  0.40026843196E+03  0.00000000000E+00 0.  1.
         21    1    1    2  503  502 -0.68138944026E+02  0.75868351115E+02 -0.26060664650E+03  0.27984772037E+03  0.00000000000E+00 0.  1.
         21    1    1    2  504  501  0.68138944026E+02 -0.75868351115E+02 -0.11004966410E+03  0.15003283295E+03  0.00000000000E+00 0. -1.
<mgrwt>
<rscale>  2 0.10197511E+03</rscale>
<asrwt>0</asrwt>
<pdfrwt beam="1">  1       21 0.45557108E-02 0.10197511E+03</pdfrwt>
<pdfrwt beam="2">  1       21 0.61579762E-01 0.10197511E+03</pdfrwt>
<totfact> 0.77525846E+05</totfact>
</mgrwt>
</event>
<event>
 4    1  0.5810391E+003  0.1038977E+03  0.7546771E-02  0.1272307E+00
         21   -1    0    0  503  501  0.00000000000E+00  0.00000000000E+00  0.23289603841E+03  0.23289603841E+03  0.00000000000E+00 0. -1.
         21   -1    0    0  504  502 -0.00000000000E+00 -0.00000000000E+00 -0.10078688742E+03  0.10078688742E+03  0.00000000000E+00 0.  1.
         21    1    1    2  503  502  0.77441975031E+02 -0.69263779907E+02 -0.56561843044E+02  0.11829612332E+03  0.00000000000E+00 0.  1.
         21    1    1    2  504  501 -0.77441975031E+02  0.69263779907E+02  0.18867099403E+03  0.21538680250E+03  0.00000000000E+00 0. -1.
<mgrwt>
<rscale>  2 0.10389769E+03</rscale>
<asrwt>0</asrwt>
<pdfrwt beam="1">  1       21 0.35830160E-01 0.10389769E+03</pdfrwt>
<pdfrwt beam="2">  1       21 0.15505675E-01 0.10389769E+03</pdfrwt>
<totfact> 0.28266198E+05</totfact>
</mgrwt>
</event>
<event>
 4    1  0.5810391E+003  0.1031030E+03  0.7546771E-02  0.1273903E+00
         21   -1    0    0  503  501  0.00000000000E+00  0.00000000000E+00  0.62825818935E+02  0.62825818935E+02  0.00000000000E+00 0. -1.
         21   -1    0    0  504  502 -0.00000000000E+00 -0.00000000000E+00 -0.21847851077E+03  0.21847851077E+03  0.00000000000E+00 0. -1.
         21    1    1    2  503  502 -0.75607294270E+02  0.70098247464E+02 -0.14462441728E+03  0.17761320142E+03  0.00000000000E+00 0. -1.
         21    1    1    2  504  501  0.75607294270E+02 -0.70098247464E+02 -0.11028274547E+02  0.10369112828E+03  0.00000000000E+00 0. -1.
<mgrwt>
<rscale>  2 0.10310299E+03</rscale>
<asrwt>0</asrwt>
<pdfrwt beam="1">  1       21 0.96655107E-02 0.10310299E+03</pdfrwt>
<pdfrwt beam="2">  1       21 0.33612078E-01 0.10310299E+03</pdfrwt>
<totfact> 0.73732960E+05</totfact>
</mgrwt>
</event>
<event>
 4    1  0.5810391E+003  0.1041533E+03  0.7546771E-02  0.1271797E+00
         21   -1    0    0  503  501  0.00000000000E+00  0.00000000000E+00  0.93999363867E+03  0.93999363867E+03  0.00000000000E+00 0. -1.
         21   -1    0    0  504  502 -0.00000000000E+00 -0.00000000000E+00 -0.11710360042E+02  0.11710360042E+02  0.00000000000E+00 0. -1.
         21    1    1    2  503  502  0.36565087671E+02 -0.97523901001E+02  0.40681707907E+03  0.41993815345E+03  0.00000000000E+00 0. -1.
         21    1    1    2  504  501 -0.36565087671E+02  0.97523901001E+02  0.52146619956E+03  0.53176584526E+03  0.00000000000E+00 0. -1.
<mgrwt>
<rscale>  2 0.10415333E+03</rscale>
<asrwt>0</asrwt>
<pdfrwt beam="1">  1       21 0.14461435E+00 0.10415333E+03</pdfrwt>
<pdfrwt beam="2">  1       21 0.18015946E-02 0.10415333E+03</pdfrwt>
<totfact> 0.49096394E+05</totfact>
</mgrwt>
</event>
<event>
 4    1  0.5810391E+003  0.1036581E+03  0.7546771E-02  0.1272786E+00
         21   -1    0    0  502  501  0.00000000000E+00  0.00000000000E+00  0.16182767614E+04  0.16182767614E+04  0.00000000000E+00 0.  1.
         21   -1    0    0  504  502 -0.00000000000E+00 -0.00000000000E+00 -0.18902173677E+02  0.18902173677E+02  0.00000000000E+00 0.  1.
         21    1    1    2  503  501 -0.10304254233E+03  0.11279533329E+02  0.14590099443E+04  0.14626875985E+04  0.00000000000E+00 0.  1.
         21    1    1    2  504  503  0.10304254233E+03 -0.11279533329E+02  0.14036464348E+03  0.17449133658E+03  0.00000000000E+00 0.  1.
<mgrwt>
<rscale>  2 0.10365806E+03</rscale>
<asrwt>0</asrwt>
<pdfrwt beam="1">  1       21 0.24896555E+00 0.10365806E+03</pdfrwt>
<pdfrwt beam="2">  1       21 0.29080280E-02 0.10365806E+03</pdfrwt>
<totfact> 0.48869237E+04</totfact>
</mgrwt>
</event>
<event>
 4    1  0.5810391E+003  0.1414103E+03  0.7546771E-02  0.1211444E+00
         21   -1    0    0  504  501  0.00000000000E+00  0.00000000000E+00  0.31373269142E+03  0.31373269142E+03  0.00000000000E+00 0.  1.
         21   -1    0    0  503  502 -0.00000000000E+00 -0.00000000000E+00 -0.65388268293E+02  0.65388268293E+02  0.00000000000E+00 0.  1.
         21    1    1    2  503  501 -0.13529568977E+03  0.41133458524E+02  0.94063295321E+02  0.16983753592E+03  0.00000000000E+00 0.  1.
         21    1    1    2  504  502  0.13529568977E+03 -0.41133458524E+02  0.15428112781E+03  0.20928342380E+03  0.00000000000E+00 0.  1.
<mgrwt>
<rscale>  2 0.14141034E+03</rscale>
<asrwt>0</asrwt>
<pdfrwt beam="1">  1       21 0.48266567E-01 0.14141034E+03</pdfrwt>
<pdfrwt beam="2">  1       21 0.10059734E-01 0.14141034E+03</pdfrwt>
<totfact> 0.33275291E+05</totfact>
</mgrwt>
</event>
<event>
 4    1  0.5810391E+003  0.1096432E+03  0.7546771E-02  0.1261232E+00
         21   -1    0    0  502  501  0.00000000000E+00  0.00000000000E+00  0.54150750468E+02  0.54150750468E+02  0.00000000000E+00 0. -1.
         21   -1    0    0  503  502 -0.00000000000E+00 -0.00000000000E+00 -0.70462672263E+03  0.70462672263E+03  0.00000000000E+00 0.  1.
         21    1    1    2  503  504  0.90527316679E+02  0.61858133621E+02 -0.63922324202E+03  0.64855838357E+03  0.00000000000E+00 0.  1.
         21    1    1    2  504  501 -0.90527316679E+02 -0.61858133621E+02 -0.11252730139E+02  0.11021908952E+03  0.00000000000E+00 0. -1.
<mgrwt>
<rscale>  2 0.10964317E+03</rscale>
<asrwt>0</asrwt>
<pdfrwt beam="1">  1       21 0.83308858E-02 0.10964317E+03</pdfrwt>
<pdfrwt beam="2">  1       21 0.10840410E+00 0.10964317E+03</pdfrwt>
<totfact> 0.78803423E+04</totfact>
</mgrwt>
</event>
<event>
 4    1  0.5810391E+003  0.1477615E+03  0.7546771E-02  0.1203251E+00
         21   -1    0    0  504  501  0.00000000000E+00  0.00000000000E+00  0.62264793449E+03  0.62264793449E+03  0.00000000000E+00 0. -1.
         21   -1    0    0  503  502 -0.00000000000E+00 -0.00000000000E+00 -0.46103345282E+02  0.46103345282E+02  0.00000000000E+00 0. -1.
         21    1    1    2  503  501 -0.22771163263E+02  0.14599631566E+03  0.12466189241E+03  0.19332365991E+03  0.00000000000E+00 0. -1.
         21    1    1    2  504  502  0.22771163263E+02 -0.14599631566E+03  0.45188269680E+03  0.47542761986E+03  0.00000000000E+00 0. -1.
<mgrwt>
<rscale>  2 0.14776146E+03</rscale>
<asrwt>0</asrwt>
<pdfrwt beam="1">  1       21 0.95791984E-01 0.14776146E+03</pdfrwt>
<pdfrwt beam="2">  1       21 0.70928228E-02 0.14776146E+03</pdfrwt>
<totfact> 0.13660186E+05</totfact>
</mgrwt>
</event>
<event>
 4    1  0.5810391E+003  0.1012723E+03  0.7546771E-02  0.1277643E+00
         21   -1    0    0  504  501  0.00000000000E+00  0.00000000000E+00  0.23072239528E+03  0.23072239528E+03  0.00000000000E+00 0.  1.
         21   -1    0    0  503  502 -0.00000000000E+00 -0.00000000000E+00 -0.11591259584E+03  0.11591259584E+03  0.00000000000E+00 0.  1.
         21    1    1    2  503  501  0.94333906469E+02  0.36840162168E+02 -0.78680098958E+02  0.12824445965E+03  0.00000000000E+00 0.  1.
         21    1    1    2  504  502 -0.94333906469E+02 -0.36840162168E+02  0.19348989839E+03  0.21839053148E+03  0.00000000000E+00 0.  1.
<mgrwt>
<rscale>  2 0.10127232E+03</rscale>
<asrwt>0</asrwt>
<pdfrwt beam="1">  1       21 0.35495753E-01 0.10127232E+03</pdfrwt>
<pdfrwt beam="2">  1       21 0.17832707E-01 0.10127232E+03</pdfrwt>
<totfact> 0.22375042E+05</totfact>
</mgrwt>
</event>
<event>
 4    1  0.5810391E+003  0.1245323E+03  0.7546771E-02  0.1235802E+00
         21   -1    0    0  503  501  0.00000000000E+00  0.00000000000E+00  0.25994713965E+03  0.25994713965E+03  0.00000000000E+00 0.  1.
         21   -1    0    0  504  502 -0.00000000000E+00 -0.00000000000E+00 -0.14785456812E+03  0.14785456812E+03  0.00000000000E+00 0.  1.
         21    1    1    2  503  502 -0.12256404417E+03  0.22053303315E+02 -0.10143321936E+03  0.16061441747E+03  0.00000000000E+00 0.  1.
         21    1    1    2  504  501  0.12256404417E+03 -0.22053303315E+02  0.21352579089E+03  0.24718729029E+03  0.00000000000E+00 0.  1.
<mgrwt>
<rscale>  2 0.12453230E+03</rscale>
<asrwt>0</asrwt>
<pdfrwt beam="1">  1       21 0.39991868E-01 0.12453230E+03</pdfrwt>
<pdfrwt beam="2">  1       21 0.22746857E-01 0.12453230E+03</pdfrwt>
<totfact> 0.11199753E+05</totfact>
</mgrwt>
</event>
<event>
 4    1  0.5810391E+003  0.1046898E+03  0.7546771E-02  0.1270732E+00
         21   -1    0    0  503  501  0.00000000000E+00  0.00000000000E+00  0.65740873955E+03  0.65740873955E+03  0.00000000000E+00 0. -1.
         21   -1    0    0  504  502 -0.00000000000E+00 -0.00000000000E+00 -0.34594824558E+02  0.34594824558E+02  0.00000000000E+00 0. -1.
         21    1    1    2  503  502 -0.92862874464E+02 -0.48336818703E+02  0.56045468058E+03  0.57014858632E+03  0.00000000000E+00 0. -1.
         21    1    1    2  504  501  0.92862874464E+02  0.48336818703E+02  0.62359234412E+02  0.12185497779E+03  0.00000000000E+00 0. -1.
<mgrwt>
<rscale>  2 0.10468983E+03</rscale>
<asrwt>0</asrwt>
<pdfrwt beam="1">  1       21 0.10113980E+00 0.10468983E+03</pdfrwt>
<pdfrwt beam="2">  1       21 0.53222812E-02 0.10468983E+03</pdfrwt>
<totfact> 0.19900890E+05</totfact>
</mgrwt>
</event>
<event>
 4    1  0.5810391E+003  0.1174239E+03  0.7546771E-02  0.1247408E+00
         21   -1    0    0  502  501  0.00000000000E+00  0.00000000000E+00  0.34654526001E+03  0.34654526001E+03  0.00000000000E+00 0.  1.
         21   -1    0    0  503  502 -0.00000000000E+00 -0.00000000000E+00 -0.50582843132E+02  0.50582843132E+02  0.00000000000E+00 0.  1.
         21    1    1    2  503  504  0.11626840665E+03 -0.16432878774E+02  0.56252578535E+02  0.13020266695E+03  0.00000000000E+00 0.  1.
         21    1    1    2  504  501 -0.11626840665E+03  0.16432878774E+02  0.23970983834E+03  0.26692543619E+03  0.00000000000E+00 0.  1.
<mgrwt>
<rscale>  2 0.11742394E+03</rscale>
<asrwt>0</asrwt>
<pdfrwt beam="1">  1       21 0.53314654E-01 0.11742394E+03</pdfrwt>
<pdfrwt beam="2">  1       21 0.77819761E-02 0.11742394E+03</pdfrwt>
<totfact> 0.42442574E+05</totfact>
</mgrwt>
</event>
<event>
 4    1  0.5810391E+003  0.1090733E+03  0.7546771E-02  0.1262296E+00
         21   -1    0    0  503  501  0.00000000000E+00  0.00000000000E+00  0.21035193179E+03  0.21035193179E+03  0.00000000000E+00 0.  1.
         21   -1    0    0  501  502 -0.00000000000E+00 -0.00000000000E+00 -0.87765409679E+02  0.87765409679E+02  0.00000000000E+00 0.  1.
         21    1    1    2  503  504  0.64366755212E+02 -0.88056291022E+02  0.15017807244E+03  0.18560830533E+03  0.00000000000E+00 0.  1.
         21    1    1    2  504  502 -0.64366755212E+02  0.88056291022E+02 -0.27591550324E+02  0.11250903615E+03  0.00000000000E+00 0.  1.
<mgrwt>
<rscale>  2 0.10907332E+03</rscale>
<asrwt>0</asrwt>
<pdfrwt beam="1">  1       21 0.32361836E-01 0.10907332E+03</pdfrwt>
<pdfrwt beam="2">  1       21 0.13502371E-01 0.10907332E+03</pdfrwt>
<totfact> 0.44110817E+05</totfact>
</mgrwt>
</event>
<event>
 4    1  0.5810391E+003  0.1707723E+03  0.7546771E-02  0.1177045E+00
         21   -1    0    0  503  501  0.00000000000E+00  0.00000000000E+00  0.75784818791E+02  0.75784818791E+02  0.00000000000E+00 0.  1.
         21   -1    0    0  501  502 -0.00000000000E+00 -0.00000000000E+00 -0.38522698383E+03  0.38522698383E+03  0.00000000000E+00 0.  1.
         21    1    1    2  503  504  0.16890878485E+03  0.25159574451E+02 -0.14718859463E+03  0.22544991501E+03  0.00000000000E+00 0.  1.
         21    1    1    2  504  502 -0.16890878485E+03 -0.25159574451E+02 -0.16225357040E+03  0.23556188761E+03  0.00000000000E+00 0.  1.
<mgrwt>
<rscale>  2 0.17077231E+03</rscale>
<asrwt>0</asrwt>
<pdfrwt beam="1">  1       21 0.11659203E-01 0.17077231E+03</pdfrwt>
<pdfrwt beam="2">  1       21 0.59265689E-01 0.17077231E+03</pdfrwt>
<totfact> 0.16554196E+05</totfact>
</mgrwt>
</event>
<event>
 4    1  0.5810391E+003  0.1582884E+03  0.7546771E-02  0.1190643E+00
         21   -1    0    0  502  501  0.00000000000E+00  0.00000000000E+00  0.27590892264E+03  0.27590892264E+03  0.00000000000E+00 0. -1.
         21   -1    0    0  504  502 -0.00000000000E+00 -0.00000000000E+00 -0.29542513500E+03  0.29542513500E+03  0.00000000000E+00 0.  1.
         21    1    1    2  503  501 -0.15619536511E+03  0.25655731962E+02  0.22798371419E+03  0.27754600087E+03  0.00000000000E+00 0. -1.
         21    1    1    2  504  503  0.15619536511E+03 -0.25655731962E+02 -0.24749992655E+03  0.29378805677E+03  0.00000000000E+00 0.  1.
<mgrwt>
<rscale>  2 0.15828837E+03</rscale>
<asrwt>0</asrwt>
<pdfrwt beam="1">  1       21 0.42447527E-01 0.15828837E+03</pdfrwt>
<pdfrwt beam="2">  1       21 0.45450021E-01 0.15828837E+03</pdfrwt>
<totfact> 0.25300900E+04</totfact>
</mgrwt>
</event>
<event>
 4    1  0.5810391E+003  0.1032503E+03  0.7546771E-02  0.1273606E+00
         21   -1    0    0  504  501  0.00000000000E+00  0.00000000000E+00  0.13365034018E+04  0.13365034018E+04  0.00000000000E+00 0. -1.
         21   -1    0    0  503  502 -0.00000000000E+00 -0.00000000000E+00 -0.80941224225E+01  0.80941224225E+01  0.00000000000E+00 0. -1.
         21    1    1    2  503  501  0.10189279109E+03 -0.16687695455E+02  0.74524876859E+03  0.75236716246E+03  0.00000000000E+00 0. -1.
         21    1    1    2  504  502 -0.10189279109E+03  0.16687695455E+02  0.58316051077E+03  0.59223036175E+03  0.00000000000E+00 0. -1.
<mgrwt>
<rscale>  2 0.10325028E+03</rscale>
<asrwt>0</asrwt>
<pdfrwt beam="1">  1       21 0.20561573E+00 0.10325028E+03</pdfrwt>
<pdfrwt beam="2">  1       21 0.12452507E-02 0.10325028E+03</pdfrwt>
<totfact> 0.34152984E+05</totfact>
</mgrwt>
</event>
<event>
 4    1  0.5810391E+003  0.1643647E+03  0.7546771E-02  0.1183855E+00
         21   -1    0    0  502  501  0.00000000000E+00  0.00000000000E+00  0.10776711141E+03  0.10776711141E+03  0.00000000000E+00 0.  1.
         21   -1    0    0  503  502 -0.00000000000E+00 -0.00000000000E+00 -0.46664539620E+03  0.46664539620E+03  0.00000000000E+00 0.  1.
         21    1    1    2  503  504 -0.11813738342E+03 -0.11427735980E+03 -0.37482178672E+03  0.40927634689E+03  0.00000000000E+00 0.  1.
         21    1    1    2  504  501  0.11813738342E+03  0.11427735980E+03  0.15943501931E+02  0.16513616072E+03  0.00000000000E+00 0.  1.
<mgrwt>
<rscale>  2 0.16436471E+03</rscale>
<asrwt>0</asrwt>
<pdfrwt beam="1">  1       21 0.16579556E-01 0.16436471E+03</pdfrwt>
<pdfrwt beam="2">  1       21 0.71791599E-01 0.16436471E+03</pdfrwt>
<totfact> 0.58018443E+04</totfact>
</mgrwt>
</event>
<event>
 4    1  0.5810391E+003  0.1044647E+03  0.7546771E-02  0.1271178E+00
         21   -1    0    0  502  501  0.00000000000E+00  0.00000000000E+00  0.44670455923E+02  0.44670455923E+02  0.00000000000E+00 0.  1.
         21   -1    0    0  504  502 -0.00000000000E+00 -0.00000000000E+00 -0.31086811428E+03  0.31086811428E+03  0.00000000000E+00 0. -1.
         21    1    1    2  503  501  0.10043333937E+03  0.28740439977E+02 -0.50834642833E+02  0.11617671651E+03  0.00000000000E+00 0.  1.
         21    1    1    2  504  503 -0.10043333937E+03 -0.28740439977E+02 -0.21536301552E+03  0.23936185369E+03  0.00000000000E+00 0. -1.
<mgrwt>
<rscale>  2 0.10446468E+03</rscale>
<asrwt>0</asrwt>
<pdfrwt beam="1">  1       21 0.68723779E-02 0.10446468E+03</pdfrwt>
<pdfrwt beam="2">  1       21 0.47825863E-01 0.10446468E+03</pdfrwt>
<totfact> 0.65679309E+05</totfact>
</mgrwt>
</event>
<event>
 4    1  0.5810391E+003  0.1818597E+03  0.7546771E-02  0.1166015E+00
         21   -1    0    0  503  501  0.00000000000E+00  0.00000000000E+00  0.94526571478E+02  0.94526571478E+02  0.00000000000E+00 0.  1.
         21   -1    0    0  504  502 -0.00000000000E+00 -0.00000000000E+00 -0.35604192670E+03  0.35604192670E+03  0.00000000000E+00 0.  1.
         21    1    1    2  503  502  0.13254095979E+03  0.12452244407E+03 -0.16039526817E+03  0.24248626177E+03  0.00000000000E+00 0.  1.
         21    1    1    2  504  501 -0.13254095979E+03 -0.12452244407E+03 -0.10112008705E+03  0.20808223640E+03  0.00000000000E+00 0.  1.
<mgrwt>
<rscale>  2 0.18185969E+03</rscale>
<asrwt>0</asrwt>
<pdfrwt beam="1">  1       21 0.14542549E-01 0.18185969E+03</pdfrwt>
<pdfrwt beam="2">  1       21 0.54775681E-01 0.18185969E+03</pdfrwt>
<totfact> 0.13105984E+05</totfact>
</mgrwt>
</event>
<event>
 4    1  0.5810391E+003  0.1059185E+03  0.7546771E-02  0.1268321E+00
         21   -1    0    0  504  501  0.00000000000E+00  0.00000000000E+00  0.15821956519E+02  0.15821956519E+02  0.00000000000E+00 0. -1.
         21   -1    0    0  503  502 -0.00000000000E+00 -0.00000000000E+00 -0.20164703231E+04  0.20164703231E+04  0.00000000000E+00 0. -1.
         21    1    1    2  503  501 -0.91756944457E+02 -0.52909203640E+02 -0.18211157948E+03  0.21067355806E+03  0.00000000000E+00 0. -1.
         21    1    1    2  504  502  0.91756944457E+02  0.52909203640E+02 -0.18185367871E+04  0.18216187215E+04  0.00000000000E+00 0. -1.
<mgrwt>
<rscale>  2 0.10591846E+03</rscale>
<asrwt>0</asrwt>
<pdfrwt beam="1">  1       21 0.24341478E-02 0.10591846E+03</pdfrwt>
<pdfrwt beam="2">  1       21 0.31022612E+00 0.10591846E+03</pdfrwt>
<totfact> 0.29634222E+04</totfact>
</mgrwt>
</event>
<event>
 4    1  0.5810391E+003  0.1135481E+03  0.7546771E-02  0.1254137E+00
         21   -1    0    0  502  501  0.00000000000E+00  0.00000000000E+00  0.64852044869E+03  0.64852044869E+03  0.00000000000E+00 0. -1.
         21   -1    0    0  504  502 -0.00000000000E+00 -0.00000000000E+00 -0.29159548502E+02  0.29159548502E+02  0.00000000000E+00 0.  1.
         21    1    1    2  503  501 -0.94421441099E+02  0.63069592791E+02  0.50081808428E+03  0.51352890436E+03  0.00000000000E+00 0. -1.
         21    1    1    2  504  503  0.94421441099E+02 -0.63069592791E+02  0.11854281591E+03  0.16415109283E+03  0.00000000000E+00 0.  1.
<mgrwt>
<rscale>  2 0.11354815E+03</rscale>
<asrwt>0</asrwt>
<pdfrwt beam="1">  1       21 0.99772366E-01 0.11354815E+03</pdfrwt>
<pdfrwt beam="2">  1       21 0.44860849E-02 0.11354815E+03</pdfrwt>
<totfact> 0.27256651E+05</totfact>
</mgrwt>
</event>
<event>
 4    1  0.5810391E+003  0.1367278E+03  0.7546771E-02  0.1217801E+00
         21   -1    0    0  504  501  0.00000000000E+00  0.00000000000E+00  0.54530843799E+03  0.54530843799E+03  0.00000000000E+00 0.  1.
         21   -1    0    0  503  502 -0.00000000000E+00 -0.00000000000E+00 -0.11426057915E+03  0.11426057915E+03  0.00000000000E+00 0.  1.
         21    1    1    2  503  501  0.11040837584E+03  0.80650398383E+02  0.49143411032E+03  0.51009997157E+03  0.00000000000E+00 0.  1.
         21    1    1    2  504  502 -0.11040837584E+03 -0.80650398383E+02 -0.60386251475E+02  0.14946904557E+03  0.00000000000E+00 0.  1.
<mgrwt>
<rscale>  2 0.13672782E+03</rscale>
<asrwt>0</asrwt>
<pdfrwt beam="1">  1       21 0.83893604E-01 0.13672782E+03</pdfrwt>
<pdfrwt beam="2">  1       21 0.17578551E-01 0.13672782E+03</pdfrwt>
<totfact> 0.37357888E+04</totfact>
</mgrwt>
</event>
<event>
 4    1  0.5810391E+003  0.1049206E+03  0.7546771E-02  0.1270276E+00
         21   -1    0    0  504  501  0.00000000000E+00  0.00000000000E+00  0.76560150796E+03  0.76560150796E+03  0.00000000000E+00 0.  1.
         21   -1    0    0  503  502 -0.00000000000E+00 -0.00000000000E+00 -0.15229119554E+02  0.15229119554E+02  0.00000000000E+00 0.  1.
         21    1    1    2  503  501 -0.46467833472E+02  0.94069477648E+02  0.46744662537E+03  0.47907689753E+03  0.00000000000E+00 0.  1.
         21    1    1    2  504  502  0.46467833472E+02 -0.94069477648E+02  0.28292576303E+03  0.30175372998E+03  0.00000000000E+00 0.  1.
<mgrwt>
<rscale>  2 0.10492057E+03</rscale>
<asrwt>0</asrwt>
<pdfrwt beam="1">  1       21 0.11778482E+00 0.10492057E+03</pdfrwt>
<pdfrwt beam="2">  1       21 0.23429421E-02 0.10492057E+03</pdfrwt>
<totfact> 0.53459367E+05</totfact>
</mgrwt>
</event>
<event>
 4    1  0.5810391E+003  0.1313787E+03  0.7546771E-02  0.1225424E+00
         21   -1    0    0  504  501  0.00000000000E+00  0.00000000000E+00  0.72779626551E+03  0.72779626551E+03  0.00000000000E+00 0.  1.
         21   -1    0    0  503  502 -0.00000000000E+00 -0.00000000000E+00 -0.49141522331E+03  0.49141522331E+03  0.00000000000E+00 0.  1.
         21    1    1    2  503  501  0.12327601283E+03  0.45424423640E+02 -0.47652341013E+03  0.49430245195E+03  0.00000000000E+00 0.  1.
         21    1    1    2  504  502 -0.12327601283E+03 -0.45424423640E+02  0.71290445232E+03  0.72490903688E+03  0.00000000000E+00 0.  1.
<mgrwt>
<rscale>  2 0.13137866E+03</rscale>
<asrwt>0</asrwt>
<pdfrwt beam="1">  1       21 0.11196866E+00 0.13137866E+03</pdfrwt>
<pdfrwt beam="2">  1       21 0.75602342E-01 0.13137866E+03</pdfrwt>
<totfact> 0.10496732E+03</totfact>
</mgrwt>
</event>
<event>
 4    1  0.5810391E+003  0.1140378E+03  0.7546771E-02  0.1253270E+00
         21   -1    0    0  503  501  0.00000000000E+00  0.00000000000E+00  0.32901593221E+02  0.32901593221E+02  0.00000000000E+00 0.  1.
         21   -1    0    0  504  502 -0.00000000000E+00 -0.00000000000E+00 -0.42723713629E+03  0.42723713629E+03  0.00000000000E+00 0.  1.
         21    1    1    2  503  502 -0.98143766930E+02 -0.58072561160E+02 -0.26011215096E+03  0.28401223992E+03  0.00000000000E+00 0.  1.
         21    1    1    2  504  501  0.98143766930E+02  0.58072561160E+02 -0.13422339211E+03  0.17612648959E+03  0.00000000000E+00 0.  1.
<mgrwt>
<rscale>  2 0.11403781E+03</rscale>
<asrwt>0</asrwt>
<pdfrwt beam="1">  1       21 0.50617835E-02 0.11403781E+03</pdfrwt>
<pdfrwt beam="2">  1       21 0.65728791E-01 0.11403781E+03</pdfrwt>
<totfact> 0.56574330E+05</totfact>
</mgrwt>
</event>
<event>
 4    1  0.5810391E+003  0.1052044E+03  0.7546771E-02  0.1269717E+00
         21   -1    0    0  504  501  0.00000000000E+00  0.00000000000E+00  0.38776978508E+03  0.38776978508E+03  0.00000000000E+00 0.  1.
         21   -1    0    0  503  502 -0.00000000000E+00 -0.00000000000E+00 -0.28921323020E+02  0.28921323020E+02  0.00000000000E+00 0.  1.
         21    1    1    2  503  501  0.87779432108E+02  0.57989154195E+02  0.20326482260E+03  0.22887673279E+03  0.00000000000E+00 0.  1.
         21    1    1    2  504  502 -0.87779432108E+02 -0.57989154195E+02  0.15558363945E+03  0.18781437530E+03  0.00000000000E+00 0.  1.
<mgrwt>
<rscale>  2 0.10520442E+03</rscale>
<asrwt>0</asrwt>
<pdfrwt beam="1">  1       21 0.59656886E-01 0.10520442E+03</pdfrwt>
<pdfrwt beam="2">  1       21 0.44494346E-02 0.10520442E+03</pdfrwt>
<totfact> 0.86235568E+05</totfact>
</mgrwt>
</event>
<event>
 4    1  0.5810391E+003  0.1122135E+03  0.7546771E-02  0.1256525E+00
         21   -1    0    0  504  501  0.00000000000E+00  0.00000000000E+00  0.83395869170E+03  0.83395869170E+03  0.00000000000E+00 0. -1.
         21   -1    0    0  503  502 -0.00000000000E+00 -0.00000000000E+00 -0.44228574617E+02  0.44228574617E+02  0.00000000000E+00 0. -1.
         21    1    1    2  503  501 -0.87134030381E+02  0.70707376025E+02  0.75121227059E+03  0.75954706751E+03  0.00000000000E+00 0. -1.
         21    1    1    2  504  502  0.87134030381E+02 -0.70707376025E+02  0.38517846492E+02  0.11864019881E+03  0.00000000000E+00 0. -1.
<mgrwt>
<rscale>  2 0.11221351E+03</rscale>
<asrwt>0</asrwt>
<pdfrwt beam="1">  1       21 0.12830132E+00 0.11221351E+03</pdfrwt>
<pdfrwt beam="2">  1       21 0.68043967E-02 0.11221351E+03</pdfrwt>
<totfact> 0.74050123E+04</totfact>
</mgrwt>
</event>
<event>
 4    1  0.5810391E+003  0.1124052E+03  0.7546771E-02  0.1256180E+00
         21   -1    0    0  504  501  0.00000000000E+00  0.00000000000E+00  0.38138280242E+02  0.38138280242E+02  0.00000000000E+00 0. -1.
         21   -1    0    0  503  502 -0.00000000000E+00 -0.00000000000E+00 -0.45038706143E+03  0.45038706143E+03  0.00000000000E+00 0.  1.
         21    1    1    2  503  501  0.94374231056E+02 -0.61060911733E+02 -0.33173025352E+03  0.35025689362E+03  0.00000000000E+00 0.  1.
         21    1    1    2  504  502 -0.94374231056E+02  0.61060911733E+02 -0.80518527675E+02  0.13826844806E+03  0.00000000000E+00 0. -1.
<mgrwt>
<rscale>  2 0.11240521E+03</rscale>
<asrwt>0</asrwt>
<pdfrwt beam="1">  1       21 0.58674278E-02 0.11240521E+03</pdfrwt>
<pdfrwt beam="2">  1       21 0.69290316E-01 0.11240521E+03</pdfrwt>
<totfact> 0.39390241E+05</totfact>
</mgrwt>
</event>
<event>
 4    1  0.5810391E+003  0.1137782E+03  0.7546771E-02  0.1253729E+00
         21   -1    0    0  504  501  0.00000000000E+00  0.00000000000E+00  0.25554657010E+03  0.25554657010E+03  0.00000000000E+00 0.  1.
         21   -1    0    0  501  502 -0.00000000000E+00 -0.00000000000E+00 -0.39517082083E+03  0.39517082083E+03  0.00000000000E+00 0. -1.
         21    1    1    2  503  502  0.11240156106E+03 -0.17645541677E+02 -0.37360157211E+03  0.39054271309E+03  0.00000000000E+00 0. -1.
         21    1    1    2  504  503 -0.11240156106E+03  0.17645541677E+02  0.23397732138E+03  0.26017467784E+03  0.00000000000E+00 0.  1.
<mgrwt>
<rscale>  2 0.11377819E+03</rscale>
<asrwt>0</asrwt>
<pdfrwt beam="1">  1       21 0.39314857E-01 0.11377819E+03</pdfrwt>
<pdfrwt beam="2">  1       21 0.60795510E-01 0.11377819E+03</pdfrwt>
<totfact> 0.16622720E+04</totfact>
</mgrwt>
</event>
<event>
 4    1  0.5810391E+003  0.1427866E+03  0.7546771E-02  0.1209628E+00
         21   -1    0    0  504  501  0.00000000000E+00  0.00000000000E+00  0.51094839448E+03  0.51094839448E+03  0.00000000000E+00 0.  1.
         21   -1    0    0  501  502 -0.00000000000E+00 -0.00000000000E+00 -0.48431885208E+02  0.48431885208E+02  0.00000000000E+00 0.  1.
         21    1    1    2  503  502  0.87143528318E+02  0.11311061501E+03  0.11388316380E+03  0.18264003054E+03  0.00000000000E+00 0.  1.
         21    1    1    2  504  503 -0.87143528318E+02 -0.11311061501E+03  0.34863334547E+03  0.37674024915E+03  0.00000000000E+00 0.  1.
<mgrwt>
<rscale>  2 0.14278657E+03</rscale>
<asrwt>0</asrwt>
<pdfrwt beam="1">  1       21 0.78607442E-01 0.14278657E+03</pdfrwt>
<pdfrwt beam="2">  1       21 0.74510596E-02 0.14278657E+03</pdfrwt>
<totfact> 0.19724355E+05</totfact>
</mgrwt>
</event>
<event>
 4    1  0.5810391E+003  0.1075226E+03  0.7546771E-02  0.1265228E+00
         21   -1    0    0  504  501  0.00000000000E+00  0.00000000000E+00  0.10342492789E+03  0.10342492789E+03  0.00000000000E+00 0.  1.
         21   -1    0    0  503  502 -0.00000000000E+00 -0.00000000000E+00 -0.16114397317E+03  0.16114397317E+03  0.00000000000E+00 0.  1.
         21    1    1    2  503  501 -0.81990102144E+02 -0.69561060342E+02 -0.10207365645E+03  0.14825703796E+03  0.00000000000E+00 0.  1.
         21    1    1    2  504  502  0.81990102144E+02  0.69561060342E+02  0.44354611160E+02  0.11631186310E+03  0.00000000000E+00 0.  1.
<mgrwt>
<rscale>  2 0.10752264E+03</rscale>
<asrwt>0</asrwt>
<pdfrwt beam="1">  1       21 0.15911528E-01 0.10752264E+03</pdfrwt>
<pdfrwt beam="2">  1       21 0.24791380E-01 0.10752264E+03</pdfrwt>
<totfact> 0.54649961E+05</totfact>
</mgrwt>
</event>
<event>
 4    1  0.5810391E+003  0.1620213E+03  0.7546771E-02  0.1186433E+00
         21   -1    0    0  503  501  0.00000000000E+00  0.00000000000E+00  0.15623341421E+02  0.15623341421E+02  0.00000000000E+00 0. -1.
         21   -1    0    0  504  502 -0.00000000000E+00 -0.00000000000E+00 -0.19086798870E+04  0.19086798870E+04  0.00000000000E+00 0. -1.
         21    1    1    2  503  502  0.57217844895E+02  0.15158177773E+03 -0.61366510965E+03  0.63469345666E+03  0.00000000000E+00 0. -1.
         21    1    1    2  504  501 -0.57217844895E+02 -0.15158177773E+03 -0.12793914359E+04  0.12896097718E+04  0.00000000000E+00 0. -1.
<mgrwt>
<rscale>  2 0.16202135E+03</rscale>
<asrwt>0</asrwt>
<pdfrwt beam="1">  1       21 0.24035936E-02 0.16202135E+03</pdfrwt>
<pdfrwt beam="2">  1       21 0.29364274E+00 0.16202135E+03</pdfrwt>
<totfact> 0.34884092E+04</totfact>
</mgrwt>
</event>
<event>
 4    1  0.5810391E+003  0.1298836E+03  0.7546771E-02  0.1227628E+00
         21   -1    0    0  504  501  0.00000000000E+00  0.00000000000E+00  0.17847220760E+02  0.17847220760E+02  0.00000000000E+00 0.  1.
         21   -1    0    0  501  502 -0.00000000000E+00 -0.00000000000E+00 -0.12637479381E+04  0.12637479381E+04  0.00000000000E+00 0.  1.
         21    1    1    2  503  502 -0.12068964672E+03  0.47997607724E+02 -0.94465426289E+03  0.95354152378E+03  0.00000000000E+00 0.  1.
         21    1    1    2  504  503  0.12068964672E+03 -0.47997607724E+02 -0.30124645445E+03  0.32805363509E+03  0.00000000000E+00 0.  1.
<mgrwt>
<rscale>  2 0.12988364E+03</rscale>
<asrwt>0</asrwt>
<pdfrwt beam="1">  1       21 0.27457266E-02 0.12988364E+03</pdfrwt>
<pdfrwt beam="2">  1       21 0.19442274E+00 0.12988364E+03</pdfrwt>
<totfact> 0.11087375E+05</totfact>
</mgrwt>
</event>
<event>
 4    1  0.5810391E+003  0.1085381E+03  0.7546771E-02  0.1263301E+00
         21   -1    0    0  504  501  0.00000000000E+00  0.00000000000E+00  0.27905340510E+03  0.27905340510E+03  0.00000000000E+00 0.  1.
         21   -1    0    0  503  502 -0.00000000000E+00 -0.00000000000E+00 -0.49851925967E+03  0.49851925967E+03  0.00000000000E+00 0.  1.
         21    1    1    2  503  501  0.35146648174E+02 -0.10269001022E+03  0.26222754706E+03  0.28380241633E+03  0.00000000000E+00 0.  1.
         21    1    1    2  504  502 -0.35146648174E+02  0.10269001022E+03 -0.48169340162E+03  0.49377024844E+03  0.00000000000E+00 0.  1.
<mgrwt>
<rscale>  2 0.10853813E+03</rscale>
<asrwt>0</asrwt>
<pdfrwt beam="1">  1       21 0.42931294E-01 0.10853813E+03</pdfrwt>
<pdfrwt beam="2">  1       21 0.76695270E-01 0.10853813E+03</pdfrwt>
<totfact> 0.84815098E+03</totfact>
</mgrwt>
</event>
<event>
 4    1  0.5810391E+003  0.1124576E+03  0.7546771E-02  0.1256085E+00
         21   -1    0    0  503  501  0.00000000000E+00  0.00000000000E+00  0.75036615338E+02  0.75036615338E+02  0.00000000000E+00 0. -1.
         21   -1    0    0  504  502 -0.00000000000E+00 -0.00000000000E+00 -0.16965558197E+03  0.16965558197E+03  0.00000000000E+00 0. -1.
         21    1    1    2  503  502 -0.10981667645E+03  0.24228206582E+02 -0.57228305005E+02  0.12618156488E+03  0.00000000000E+00 0. -1.
         21    1    1    2  504  501  0.10981667645E+03 -0.24228206582E+02 -0.37390661622E+02  0.11851063243E+03  0.00000000000E+00 0. -1.
<mgrwt>
<rscale>  2 0.11245758E+03</rscale>
<asrwt>0</asrwt>
<pdfrwt beam="1">  1       21 0.11544095E-01 0.11245758E+03</pdfrwt>
<pdfrwt beam="2">  1       21 0.26100859E-01 0.11245758E+03</pdfrwt>
<totfact> 0.87839688E+05</totfact>
</mgrwt>
</event>
<event>
 4    1  0.5810391E+003  0.1995113E+03  0.7546771E-02  0.1150152E+00
         21   -1    0    0  503  501  0.00000000000E+00  0.00000000000E+00  0.31179286795E+03  0.31179286795E+03  0.00000000000E+00 0.  1.
         21   -1    0    0  504  502 -0.00000000000E+00 -0.00000000000E+00 -0.12837541096E+03  0.12837541096E+03  0.00000000000E+00 0.  1.
         21    1    1    2  503  502 -0.18861499165E+03 -0.65031979946E+02  0.10809047952E+03  0.22691039036E+03  0.00000000000E+00 0.  1.
         21    1    1    2  504  501  0.18861499165E+03  0.65031979946E+02  0.75326977466E+02  0.21325788854E+03  0.00000000000E+00 0.  1.
<mgrwt>
<rscale>  2 0.19951134E+03</rscale>
<asrwt>0</asrwt>
<pdfrwt beam="1">  1       21 0.47968133E-01 0.19951134E+03</pdfrwt>
<pdfrwt beam="2">  1       21 0.19750063E-01 0.19951134E+03</pdfrwt>
<totfact> 0.97882375E+04</totfact>
</mgrwt>
</event>
<event>
 4    1  0.5810391E+003  0.1043271E+03  0.7546771E-02  0.1271451E+00
         21   -1    0    0  503  501  0.00000000000E+00  0.00000000000E+00  0.54485350680E+03  0.54485350680E+03  0.00000000000E+00 0. -1.
         21   -1    0    0  501  502 -0.00000000000E+00 -0.00000000000E+00 -0.55817909376E+02  0.55817909376E+02  0.00000000000E+00 0. -1.
         21    1    1    2  503  504  0.10065417827E+03  0.27438477599E+02  0.48518349905E+03  0.49627327291E+03  0.00000000000E+00 0. -1.
         21    1    1    2  504  502 -0.10065417827E+03 -0.27438477599E+02  0.38520983769E+01  0.10439814327E+03  0.00000000000E+00 0. -1.
<mgrwt>
<rscale>  2 0.10432705E+03</rscale>
<asrwt>0</asrwt>
<pdfrwt beam="1">  1       21 0.83823613E-01 0.10432705E+03</pdfrwt>
<pdfrwt beam="2">  1       21 0.85873710E-02 0.10432705E+03</pdfrwt>
<totfact> 0.13560203E+05</totfact>
</mgrwt>
</event>
<event>
 4    1  0.5810391E+003  0.1253614E+03  0.7546771E-02  0.1234505E+00
         21   -1    0    0  503  501  0.00000000000E+00  0.00000000000E+00  0.18191870589E+04  0.18191870589E+04  0.00000000000E+00 0. -1.
         21   -1    0    0  504  502 -0.00000000000E+00 -0.00000000000E+00 -0.88971861455E+01  0.88971861455E+01  0.00000000000E+00 0. -1.
         21    1    1    2  503  502  0.12477874488E+03 -0.12072956364E+02  0.10609284402E+04  0.10683092468E+04  0.00000000000E+00 0. -1.
         21    1    1    2  504  501 -0.12477874488E+03  0.12072956364E+02  0.74936143255E+03  0.75977499830E+03  0.00000000000E+00 0. -1.
<mgrwt>
<rscale>  2 0.12536144E+03</rscale>
<asrwt>0</asrwt>
<pdfrwt beam="1">  1       21 0.27987464E+00 0.12536144E+03</pdfrwt>
<pdfrwt beam="2">  1       21 0.13687993E-02 0.12536144E+03</pdfrwt>
<totfact> 0.10738226E+05</totfact>
</mgrwt>
</event>
<event>
 4    1  0.5810391E+003  0.1412885E+03  0.7546771E-02  0.1211606E+00
         21   -1    0    0  504  501  0.00000000000E+00  0.00000000000E+00  0.14083063368E+03  0.14083063368E+03  0.00000000000E+00 0. -1.
         21   -1    0    0  503  502 -0.00000000000E+00 -0.00000000000E+00 -0.14206357529E+03  0.14206357529E+03  0.00000000000E+00 0.  1.
         21    1    1    2  503  501 -0.14051746411E+03  0.14740458761E+02  0.60517621513E+01  0.14141804223E+03  0.00000000000E+00 0. -1.
         21    1    1    2  504  502  0.14051746411E+03 -0.14740458761E+02 -0.72847037619E+01  0.14147616673E+03  0.00000000000E+00 0.  1.
<mgrwt>
<rscale>  2 0.14128850E+03</rscale>
<asrwt>0</asrwt>
<pdfrwt beam="1">  1       21 0.21666251E-01 0.14128850E+03</pdfrwt>
<pdfrwt beam="2">  1       21 0.21855935E-01 0.14128850E+03</pdfrwt>
<totfact> 0.39172509E+05</totfact>
</mgrwt>
</event>
<event>
 4    1  0.5810391E+003  0.2052226E+03  0.7546771E-02  0.1145406E+00
         21   -1    0    0  504  501  0.00000000000E+00  0.00000000000E+00  0.19351006387E+04  0.19351006387E+04  0.00000000000E+00 0.  1.
         21   -1    0    0  503  502 -0.00000000000E+00 -0.00000000000E+00 -0.30047167136E+02  0.30047167136E+02  0.00000000000E+00 0.  1.
         21    1    1    2  503  501 -0.17505347078E+03 -0.10711013340E+03  0.14684097947E+04  0.14826812278E+04  0.00000000000E+00 0.  1.
         21    1    1    2  504  502  0.17505347078E+03  0.10711013340E+03  0.43664367686E+03  0.48246657796E+03  0.00000000000E+00 0.  1.
<mgrwt>
<rscale>  2 0.20522256E+03</rscale>
<asrwt>0</asrwt>
<pdfrwt beam="1">  1       21 0.29770769E+00 0.20522256E+03</pdfrwt>
<pdfrwt beam="2">  1       21 0.46226426E-02 0.20522256E+03</pdfrwt>
<totfact> 0.10669330E+04</totfact>
</mgrwt>
</event>
<event>
 4    1  0.5810391E+003  0.1537652E+03  0.7546771E-02  0.1195921E+00
         21   -1    0    0  504  501  0.00000000000E+00  0.00000000000E+00  0.50405492431E+02  0.50405492431E+02  0.00000000000E+00 0. -1.
         21   -1    0    0  501  502 -0.00000000000E+00 -0.00000000000E+00 -0.46909173957E+03  0.46909173957E+03  0.00000000000E+00 0. -1.
         21    1    1    2  503  502  0.15105700654E+02 -0.15302145313E+03 -0.21107637695E+03  0.26114552306E+03  0.00000000000E+00 0. -1.
         21    1    1    2  504  503 -0.15105700654E+02  0.15302145313E+03 -0.20760987019E+03  0.25835170894E+03  0.00000000000E+00 0. -1.
<mgrwt>
<rscale>  2 0.15376523E+03</rscale>
<asrwt>0</asrwt>
<pdfrwt beam="1">  1       21 0.77546913E-02 0.15376523E+03</pdfrwt>
<pdfrwt beam="2">  1       21 0.72167959E-01 0.15376523E+03</pdfrwt>
<totfact> 0.22191178E+05</totfact>
</mgrwt>
</event>
<event>
 4    1  0.5810391E+003  0.1208362E+03  0.7546771E-02  0.1241724E+00
         21   -1    0    0  503  501  0.00000000000E+00  0.00000000000E+00  0.11992495823E+03  0.11992495823E+03  0.00000000000E+00 0. -1.
         21   -1    0    0  504  502 -0.00000000000E+00 -0.00000000000E+00 -0.19421588222E+03  0.19421588222E+03  0.00000000000E+00 0.  1.
         21    1    1    2  503  502 -0.14565128046E+02 -0.11995522539E+03  0.58795804794E+02  0.13438134437E+03  0.00000000000E+00 0. -1.
         21    1    1    2  504  501  0.14565128046E+02  0.11995522539E+03 -0.13308672879E+03  0.17975949608E+03  0.00000000000E+00 0.  1.
<mgrwt>
<rscale>  2 0.12083625E+03</rscale>
<asrwt>0</asrwt>
<pdfrwt beam="1">  1       21 0.18449994E-01 0.12083625E+03</pdfrwt>
<pdfrwt beam="2">  1       21 0.29879366E-01 0.12083625E+03</pdfrwt>
<totfact> 0.29241384E+05</totfact>
</mgrwt>
</event>
<event>
 4    1  0.5810391E+003  0.1829737E+03  0.7546771E-02  0.1164956E+00
         21   -1    0    0  503  501  0.00000000000E+00  0.00000000000E+00  0.25265851885E+03  0.25265851885E+03  0.00000000000E+00 0.  1.
         21   -1    0    0  504  502 -0.00000000000E+00 -0.00000000000E+00 -0.17087768728E+03  0.17087768728E+03  0.00000000000E+00 0.  1.
         21    1    1    2  503  502  0.18193286998E+03  0.19488353071E+02 -0.59457875093E+02  0.19239179815E+03  0.00000000000E+00 0.  1.
         21    1    1    2  504  501 -0.18193286998E+03 -0.19488353071E+02  0.14123870666E+03  0.23114440798E+03  0.00000000000E+00 0.  1.
<mgrwt>
<rscale>  2 0.18297367E+03</rscale>
<asrwt>0</asrwt>
<pdfrwt beam="1">  1       21 0.38870542E-01 0.18297367E+03</pdfrwt>
<pdfrwt beam="2">  1       21 0.26288875E-01 0.18297367E+03</pdfrwt>
<totfact> 0.88125823E+04</totfact>
</mgrwt>
</event>
<event>
 4    1  0.5810391E+003  0.1125924E+03  0.7546771E-02  0.1255843E+00
         21   -1    0    0  503  501  0.00000000000E+00  0.00000000000E+00  0.99930346149E+02  0.99930346149E+02  0.00000000000E+00 0. -1.
         21   -1    0    0  501  502 -0.00000000000E+00 -0.00000000000E+00 -0.12246923233E+04  0.12246923233E+04  0.00000000000E+00 0. -1.
         21    1    1    2  503  504 -0.11253212302E+03 -0.36835160697E+01  0.64690316112E+02  0.12985331725E+03  0.00000000000E+00 0. -1.
         21    1    1    2  504  502  0.11253212302E+03  0.36835160697E+01 -0.11894522933E+04  0.11947693522E+04  0.00000000000E+00 0. -1.
<mgrwt>
<rscale>  2 0.11259239E+03</rscale>
<asrwt>0</asrwt>
<pdfrwt beam="1">  1       21 0.15373900E-01 0.11259239E+03</pdfrwt>
<pdfrwt beam="2">  1       21 0.18841420E+00 0.11259239E+03</pdfrwt>
<totfact> 0.65232201E+03</totfact>
</mgrwt>
</event>
<event>
 4    1  0.5810391E+003  0.3769639E+03  0.7546771E-02  0.1052062E+00
         21   -1    0    0  504  501  0.00000000000E+00  0.00000000000E+00  0.23158685548E+04  0.23158685548E+04  0.00000000000E+00 0. -1.
         21   -1    0    0  501  502 -0.00000000000E+00 -0.00000000000E+00 -0.12497731021E+03  0.12497731021E+03  0.00000000000E+00 0. -1.
         21    1    1    2  503  502 -0.37061507322E+03  0.68893102911E+02  0.22471808292E+03  0.43886217531E+03  0.00000000000E+00 0. -1.
         21    1    1    2  504  503  0.37061507322E+03 -0.68893102911E+02  0.19661731617E+04  0.20019836897E+04  0.00000000000E+00 0. -1.
<mgrwt>
<rscale>  2 0.37696391E+03</rscale>
<asrwt>0</asrwt>
<pdfrwt beam="1">  1       21 0.35628744E+00 0.37696391E+03</pdfrwt>
<pdfrwt beam="2">  1       21 0.19227280E-01 0.37696391E+03</pdfrwt>
<totfact> 0.32586511E+02</totfact>
</mgrwt>
</event>
<event>
 4    1  0.5810391E+003  0.1323314E+03  0.7546771E-02  0.1224037E+00
         21   -1    0    0  504  501  0.00000000000E+00  0.00000000000E+00  0.49044929852E+03  0.49044929852E+03  0.00000000000E+00 0.  1.
         21   -1    0    0  503  502 -0.00000000000E+00 -0.00000000000E+00 -0.66473350605E+02  0.66473350605E+02  0.00000000000E+00 0. -1.
         21    1    1    2  503  501  0.11097955226E+03  0.72077379066E+02  0.40143662542E+03  0.42268543128E+03  0.00000000000E+00 0.  1.
         21    1    1    2  504  502 -0.11097955226E+03 -0.72077379066E+02  0.22539322495E+02  0.13423721784E+03  0.00000000000E+00 0. -1.
<mgrwt>
<rscale>  2 0.13233144E+03</rscale>
<asrwt>0</asrwt>
<pdfrwt beam="1">  1       21 0.75453736E-01 0.13233144E+03</pdfrwt>
<pdfrwt beam="2">  1       21 0.10226670E-01 0.13233144E+03</pdfrwt>
<totfact> 0.12508488E+05</totfact>
</mgrwt>
</event>
<event>
 4    1  0.5810391E+003  0.1336783E+03  0.7546771E-02  0.1222098E+00
         21   -1    0    0  504  501  0.00000000000E+00  0.00000000000E+00  0.41544228336E+02  0.41544228336E+02  0.00000000000E+00 0.  1.
         21   -1    0    0  503  502 -0.00000000000E+00 -0.00000000000E+00 -0.71346675455E+03  0.71346675455E+03  0.00000000000E+00 0. -1.
         21    1    1    2  503  501  0.77671934434E+02 -0.10879783739E+03 -0.57385280849E+03  0.58921723043E+03  0.00000000000E+00 0. -1.
         21    1    1    2  504  502 -0.77671934434E+02  0.10879783739E+03 -0.98069717717E+02  0.16579375245E+03  0.00000000000E+00 0.  1.
<mgrwt>
<rscale>  2 0.13367834E+03</rscale>
<asrwt>0</asrwt>
<pdfrwt beam="1">  1       21 0.63914200E-02 0.13367834E+03</pdfrwt>
<pdfrwt beam="2">  1       21 0.10976411E+00 0.13367834E+03</pdfrwt>
<totfact> 0.11898819E+05</totfact>
</mgrwt>
</event>
<event>
 4    1  0.5810391E+003  0.1011297E+03  0.7546771E-02  0.1277938E+00
         21   -1    0    0  504  501  0.00000000000E+00  0.00000000000E+00  0.57104728525E+03  0.57104728525E+03  0.00000000000E+00 0.  1.
         21   -1    0    0  501  502 -0.00000000000E+00 -0.00000000000E+00 -0.14998342529E+03  0.14998342529E+03  0.00000000000E+00 0.  1.
         21    1    1    2  503  502  0.49385492640E+02  0.88251271366E+02 -0.12777473498E+03  0.16295274370E+03  0.00000000000E+00 0.  1.
         21    1    1    2  504  503 -0.49385492640E+02 -0.88251271366E+02  0.54883859493E+03  0.55807796684E+03  0.00000000000E+00 0.  1.
<mgrwt>
<rscale>  2 0.10112969E+03</rscale>
<asrwt>0</asrwt>
<pdfrwt beam="1">  1       21 0.87853427E-01 0.10112969E+03</pdfrwt>
<pdfrwt beam="2">  1       21 0.23074373E-01 0.10112969E+03</pdfrwt>
<totfact> 0.20930242E+04</totfact>
</mgrwt>
</event>
<event>
 4    1  0.5810391E+003  0.1435198E+03  0.7546771E-02  0.1208670E+00
         21   -1    0    0  503  501  0.00000000000E+00  0.00000000000E+00  0.13372435487E+03  0.13372435487E+03  0.00000000000E+00 0. -1.
         21   -1    0    0  501  502 -0.00000000000E+00 -0.00000000000E+00 -0.16075747069E+03  0.16075747069E+03  0.00000000000E+00 0. -1.
         21    1    1    2  503  504 -0.11460359368E+03  0.86394180270E+02  0.16598113269E+02  0.14447641826E+03  0.00000000000E+00 0. -1.
         21    1    1    2  504  502  0.11460359368E+03 -0.86394180270E+02 -0.43631229090E+02  0.15000540731E+03  0.00000000000E+00 0. -1.
<mgrwt>
<rscale>  2 0.14351982E+03</rscale>
<asrwt>0</asrwt>
<pdfrwt beam="1">  1       21 0.20572978E-01 0.14351982E+03</pdfrwt>
<pdfrwt beam="2">  1       21 0.24731918E-01 0.14351982E+03</pdfrwt>
<totfact> 0.34179312E+05</totfact>
</mgrwt>
</event>
<event>
 4    1  0.5810391E+003  0.1472129E+03  0.7546771E-02  0.1203940E+00
         21   -1    0    0  503  501  0.00000000000E+00  0.00000000000E+00  0.64522125292E+02  0.64522125292E+02  0.00000000000E+00 0.  1.
         21   -1    0    0  504  502 -0.00000000000E+00 -0.00000000000E+00 -0.37629937635E+03  0.37629937635E+03  0.00000000000E+00 0.  1.
         21    1    1    2  503  502  0.14690351439E+03 -0.95395803037E+01 -0.83650810469E+02  0.16931953291E+03  0.00000000000E+00 0.  1.
         21    1    1    2  504  501 -0.14690351439E+03  0.95395803037E+01 -0.22812644059E+03  0.27150196874E+03  0.00000000000E+00 0.  1.
<mgrwt>
<rscale>  2 0.14721293E+03</rscale>
<asrwt>0</asrwt>
<pdfrwt beam="1">  1       21 0.99264806E-02 0.14721293E+03</pdfrwt>
<pdfrwt beam="2">  1       21 0.57892213E-01 0.14721293E+03</pdfrwt>
<totfact> 0.23278319E+05</totfact>
</mgrwt>
</event>
<event>
 4    1  0.5810391E+003  0.1000861E+03  0.7546771E-02  0.1280115E+00
         21   -1    0    0  504  501  0.00000000000E+00  0.00000000000E+00  0.11110853602E+03  0.11110853602E+03  0.00000000000E+00 0. -1.
         21   -1    0    0  503  502 -0.00000000000E+00 -0.00000000000E+00 -0.17631948848E+03  0.17631948848E+03  0.00000000000E+00 0.  1.
         21    1    1    2  503  501  0.67138881484E+02  0.74226696030E+02  0.67857867667E+02  0.12092113965E+03  0.00000000000E+00 0. -1.
         21    1    1    2  504  502 -0.67138881484E+02 -0.74226696030E+02 -0.13306882013E+03  0.16650688485E+03  0.00000000000E+00 0.  1.
<mgrwt>
<rscale>  2 0.10008612E+03</rscale>
<asrwt>0</asrwt>
<pdfrwt beam="1">  1       21 0.17093621E-01 0.10008612E+03</pdfrwt>
<pdfrwt beam="2">  1       21 0.27126075E-01 0.10008612E+03</pdfrwt>
<totfact> 0.40535152E+05</totfact>
</mgrwt>
</event>
<event>
 4    1  0.5810391E+003  0.1308732E+03  0.7546771E-02  0.1226166E+00
         21   -1    0    0  503  501  0.00000000000E+00  0.00000000000E+00  0.56030988808E+03  0.56030988808E+03  0.00000000000E+00 0. -1.
         21   -1    0    0  504  502 -0.00000000000E+00 -0.00000000000E+00 -0.30591889852E+02  0.30591889852E+02  0.00000000000E+00 0.  1.
         21    1    1    2  503  502  0.11749746392E+03  0.57638025320E+02  0.25667802203E+03  0.28811699530E+03  0.00000000000E+00 0.  1.
         21    1    1    2  504  501 -0.11749746392E+03 -0.57638025320E+02  0.27303997620E+03  0.30278478263E+03  0.00000000000E+00 0. -1.
<mgrwt>
<rscale>  2 0.13087321E+03</rscale>
<asrwt>0</asrwt>
<pdfrwt beam="1">  1       21 0.86201514E-01 0.13087321E+03</pdfrwt>
<pdfrwt beam="2">  1       21 0.47064450E-02 0.13087321E+03</pdfrwt>
<totfact> 0.35057572E+05</totfact>
</mgrwt>
</event>
<event>
 4    1  0.5810391E+003  0.1016689E+03  0.7546771E-02  0.1276825E+00
         21   -1    0    0  503  501  0.00000000000E+00  0.00000000000E+00  0.74700473329E+03  0.74700473329E+03  0.00000000000E+00 0.  1.
         21   -1    0    0  501  502 -0.00000000000E+00 -0.00000000000E+00 -0.46416008005E+02  0.46416008005E+02  0.00000000000E+00 0.  1.
         21    1    1    2  503  504  0.15738863004E+02  0.10044327202E+03  0.68265247590E+03  0.69018183514E+03  0.00000000000E+00 0.  1.
         21    1    1    2  504  502 -0.15738863004E+02 -0.10044327202E+03  0.17936249391E+02  0.10323890616E+03  0.00000000000E+00 0.  1.
<mgrwt>
<rscale>  2 0.10166889E+03</rscale>
<asrwt>0</asrwt>
<pdfrwt beam="1">  1       21 0.11492380E+00 0.10166889E+03</pdfrwt>
<pdfrwt beam="2">  1       21 0.71409249E-02 0.10166889E+03</pdfrwt>
<totfact> 0.89713523E+04</totfact>
</mgrwt>
</event>
<event>
 4    1  0.5810391E+003  0.1084353E+03  0.7546771E-02  0.1263495E+00
         21   -1    0    0  504  501  0.00000000000E+00  0.00000000000E+00  0.42583001554E+02  0.42583001554E+02  0.00000000000E+00 0.  1.
         21   -1    0    0  503  502 -0.00000000000E+00 -0.00000000000E+00 -0.32153455087E+03  0.32153455087E+03  0.00000000000E+00 0. -1.
         21    1    1    2  503  501 -0.92882543226E+02  0.55955784660E+02 -0.20789419481E+03  0.23447433315E+03  0.00000000000E+00 0. -1.
         21    1    1    2  504  502  0.92882543226E+02 -0.55955784660E+02 -0.71057354508E+02  0.12964321927E+03  0.00000000000E+00 0.  1.
<mgrwt>
<rscale>  2 0.10843531E+03</rscale>
<asrwt>0</asrwt>
<pdfrwt beam="1">  1       21 0.65512309E-02 0.10843531E+03</pdfrwt>
<pdfrwt beam="2">  1       21 0.49466855E-01 0.10843531E+03</pdfrwt>
<totfact> 0.66498836E+05</totfact>
</mgrwt>
</event>
<event>
 4    1  0.5810391E+003  0.1145931E+03  0.7546771E-02  0.1252293E+00
         21   -1    0    0  502  501  0.00000000000E+00  0.00000000000E+00  0.19075247756E+03  0.19075247756E+03  0.00000000000E+00 0.  1.
         21   -1    0    0  504  502 -0.00000000000E+00 -0.00000000000E+00 -0.85165320051E+02  0.85165320051E+02  0.00000000000E+00 0.  1.
         21    1    1    2  503  501  0.11336807785E+03  0.16711146044E+02  0.11319350721E+03  0.16107251023E+03  0.00000000000E+00 0.  1.
         21    1    1    2  504  503 -0.11336807785E+03 -0.16711146044E+02 -0.76063496969E+01  0.11484528738E+03  0.00000000000E+00 0.  1.
<mgrwt>
<rscale>  2 0.11459312E+03</rscale>
<asrwt>0</asrwt>
<pdfrwt beam="1">  1       21 0.29346535E-01 0.11459312E+03</pdfrwt>
<pdfrwt beam="2">  1       21 0.13102357E-01 0.11459312E+03</pdfrwt>
<totfact> 0.56167156E+05</totfact>
</mgrwt>
</event>
<event>
 4    1  0.5810391E+003  0.1017862E+03  0.7546771E-02  0.1276584E+00
         21   -1    0    0  504  501  0.00000000000E+00  0.00000000000E+00  0.26138423764E+03  0.26138423764E+03  0.00000000000E+00 0. -1.
         21   -1    0    0  503  502 -0.00000000000E+00 -0.00000000000E+00 -0.39642390145E+02  0.39642390145E+02  0.00000000000E+00 0. -1.
         21    1    1    2  503  501 -0.41676057431E+02 -0.92862995838E+02  0.11266131126E+03  0.15183214684E+03  0.00000000000E+00 0. -1.
         21    1    1    2  504  502  0.41676057431E+02  0.92862995838E+02  0.10908053623E+03  0.14919448094E+03  0.00000000000E+00 0. -1.
<mgrwt>
<rscale>  2 0.10178620E+03</rscale>
<asrwt>0</asrwt>
<pdfrwt beam="1">  1       21 0.40212959E-01 0.10178620E+03</pdfrwt>
<pdfrwt beam="2">  1       21 0.60988294E-02 0.10178620E+03</pdfrwt>
<totfact> 0.11393209E+06</totfact>
</mgrwt>
</event>
<event>
 4    1  0.5810391E+003  0.1272393E+03  0.7546771E-02  0.1231611E+00
         21   -1    0    0  503  501  0.00000000000E+00  0.00000000000E+00  0.40771178225E+03  0.40771178225E+03  0.00000000000E+00 0. -1.
         21   -1    0    0  504  502 -0.00000000000E+00 -0.00000000000E+00 -0.74873244957E+02  0.74873244957E+02  0.00000000000E+00 0.  1.
         21    1    1    2  503  502 -0.12342268197E+03 -0.30930339029E+02  0.33177943809E+03  0.35534130049E+03  0.00000000000E+00 0. -1.
         21    1    1    2  504  501  0.12342268197E+03  0.30930339029E+02  0.10590992106E+01  0.12724372672E+03  0.00000000000E+00 0.  1.
<mgrwt>
<rscale>  2 0.12723932E+03</rscale>
<asrwt>0</asrwt>
<pdfrwt beam="1">  1       21 0.62724888E-01 0.12723932E+03</pdfrwt>
<pdfrwt beam="2">  1       21 0.11518961E-01 0.12723932E+03</pdfrwt>
<totfact> 0.15189273E+05</totfact>
</mgrwt>
</event>
<event>
 4    1  0.5810391E+003  0.1272783E+03  0.7546771E-02  0.1231551E+00
         21   -1    0    0  502  501  0.00000000000E+00  0.00000000000E+00  0.45449925003E+03  0.45449925003E+03  0.00000000000E+00 0.  1.
         21   -1    0    0  503  502 -0.00000000000E+00 -0.00000000000E+00 -0.96329045108E+02  0.96329045108E+02  0.00000000000E+00 0. -1.
         21    1    1    2  503  504  0.10464673633E+03  0.72448852526E+02 -0.39515609482E+02  0.13327137371E+03  0.00000000000E+00 0. -1.
         21    1    1    2  504  501 -0.10464673633E+03 -0.72448852526E+02  0.39768581440E+03  0.41755692143E+03  0.00000000000E+00 0.  1.
<mgrwt>
<rscale>  2 0.12727834E+03</rscale>
<asrwt>0</asrwt>
<pdfrwt beam="1">  1       21 0.69922960E-01 0.12727834E+03</pdfrwt>
<pdfrwt beam="2">  1       21 0.14819853E-01 0.12727834E+03</pdfrwt>
<totfact> 0.76666617E+04</totfact>
</mgrwt>
</event>
<event>
 4    1  0.5810391E+003  0.1065754E+03  0.7546771E-02  0.1267046E+00
         21   -1    0    0  503  501  0.00000000000E+00  0.00000000000E+00  0.16535077658E+03  0.16535077658E+03  0.00000000000E+00 0.  1.
         21   -1    0    0  504  502 -0.00000000000E+00 -0.00000000000E+00 -0.13725043945E+03  0.13725043945E+03  0.00000000000E+00 0. -1.
         21    1    1    2  503  502 -0.65446918354E+02  0.84113179160E+02  0.12098354898E+03  0.16123072026E+03  0.00000000000E+00 0.  1.
         21    1    1    2  504  501  0.65446918354E+02 -0.84113179160E+02 -0.92883211857E+02  0.14137049577E+03  0.00000000000E+00 0. -1.
<mgrwt>
<rscale>  2 0.10657545E+03</rscale>
<asrwt>0</asrwt>
<pdfrwt beam="1">  1       21 0.25438581E-01 0.10657545E+03</pdfrwt>
<pdfrwt beam="2">  1       21 0.21115452E-01 0.10657545E+03</pdfrwt>
<totfact> 0.31067379E+05</totfact>
</mgrwt>
</event>
<event>
 4    1  0.5810391E+003  0.1051032E+03  0.7546771E-02  0.1269916E+00
         21   -1    0    0  502  501  0.00000000000E+00  0.00000000000E+00  0.35838978377E+02  0.35838978377E+02  0.00000000000E+00 0.  1.
         21   -1    0    0  503  502 -0.00000000000E+00 -0.00000000000E+00 -0.40670221171E+03  0.40670221171E+03  0.00000000000E+00 0.  1.
         21    1    1    2  503  504 -0.98317158364E+02 -0.37154118838E+02 -0.29430947851E+03  0.31251361781E+03  0.00000000000E+00 0.  1.
         21    1    1    2  504  501  0.98317158364E+02  0.37154118838E+02 -0.76553754827E+02  0.13002757228E+03  0.00000000000E+00 0.  1.
<mgrwt>
<rscale>  2 0.10510325E+03</rscale>
<asrwt>0</asrwt>
<pdfrwt beam="1">  1       21 0.55136894E-02 0.10510325E+03</pdfrwt>
<pdfrwt beam="2">  1       21 0.62569566E-01 0.10510325E+03</pdfrwt>
<totfact> 0.54485816E+05</totfact>
</mgrwt>
</event>
<event>
 4    1  0.5810391E+003  0.1039855E+03  0.7546771E-02  0.1272131E+00
         21   -1    0    0  504  501  0.00000000000E+00  0.00000000000E+00  0.59784227540E+03  0.59784227540E+03  0.00000000000E+00 0. -1.
         21   -1    0    0  501  502 -0.00000000000E+00 -0.00000000000E+00 -0.19981909633E+02  0.19981909633E+02  0.00000000000E+00 0. -1.
         21    1    1    2  503  502 -0.18691616070E+02 -0.10229173571E+03  0.19379338600E+03  0.21992919806E+03  0.00000000000E+00 0. -1.
         21    1    1    2  504  503  0.18691616070E+02  0.10229173571E+03  0.38406697977E+03  0.39789498697E+03  0.00000000000E+00 0. -1.
<mgrwt>
<rscale>  2 0.10398546E+03</rscale>
<asrwt>0</asrwt>
<pdfrwt beam="1">  1       21 0.91975721E-01 0.10398546E+03</pdfrwt>
<pdfrwt beam="2">  1       21 0.30741404E-02 0.10398546E+03</pdfrwt>
<totfact> 0.61410170E+05</totfact>
</mgrwt>
</event>
<event>
 4    1  0.5810391E+003  0.1466142E+03  0.7546771E-02  0.1204696E+00
         21   -1    0    0  504  501  0.00000000000E+00  0.00000000000E+00  0.72176796180E+03  0.72176796180E+03  0.00000000000E+00 0. -1.
         21   -1    0    0  503  502 -0.00000000000E+00 -0.00000000000E+00 -0.40974324541E+02  0.40974324541E+02  0.00000000000E+00 0. -1.
         21    1    1    2  503  501 -0.14576271130E+03  0.15778071191E+02  0.14107654234E+03  0.20346573750E+03  0.00000000000E+00 0. -1.
         21    1    1    2  504  502  0.14576271130E+03 -0.15778071191E+02  0.53971709492E+03  0.55927654884E+03  0.00000000000E+00 0. -1.
<mgrwt>
<rscale>  2 0.14661417E+03</rscale>
<asrwt>0</asrwt>
<pdfrwt beam="1">  1       21 0.11104122E+00 0.14661417E+03</pdfrwt>
<pdfrwt beam="2">  1       21 0.63037428E-02 0.14661417E+03</pdfrwt>
<totfact> 0.11786280E+05</totfact>
</mgrwt>
</event>
<event>
 4    1  0.5810391E+003  0.1183034E+03  0.7546771E-02  0.1245922E+00
         21   -1    0    0  503  501  0.00000000000E+00  0.00000000000E+00  0.55949075558E+03  0.55949075558E+03  0.00000000000E+00 0. -1.
         21   -1    0    0  504  502 -0.00000000000E+00 -0.00000000000E+00 -0.52276524334E+02  0.52276524334E+02  0.00000000000E+00 0. -1.
         21    1    1    2  503  502 -0.45177620181E+02  0.10933742956E+03  0.32716358808E+02  0.12274384303E+03  0.00000000000E+00 0. -1.
         21    1    1    2  504  501  0.45177620181E+02 -0.10933742956E+03  0.47449787244E+03  0.48902343688E+03  0.00000000000E+00 0. -1.
<mgrwt>
<rscale>  2 0.11830338E+03</rscale>
<asrwt>0</asrwt>
<pdfrwt beam="1">  1       21 0.86075497E-01 0.11830338E+03</pdfrwt>
<pdfrwt beam="2">  1       21 0.80425426E-02 0.11830338E+03</pdfrwt>
<totfact> 0.14219169E+05</totfact>
</mgrwt>
</event>
<event>
 4    1  0.5810391E+003  0.1093725E+03  0.7546771E-02  0.1261736E+00
         21   -1    0    0  504  501  0.00000000000E+00  0.00000000000E+00  0.23652914039E+04  0.23652914039E+04  0.00000000000E+00 0.  1.
         21   -1    0    0  501  502 -0.00000000000E+00 -0.00000000000E+00 -0.90858707652E+02  0.90858707652E+02  0.00000000000E+00 0. -1.
         21    1    1    2  503  502  0.10932218142E+03 -0.33169752378E+01 -0.56190322030E+02  0.12296216477E+03  0.00000000000E+00 0. -1.
         21    1    1    2  504  503 -0.10932218142E+03  0.33169752378E+01  0.23306230183E+04  0.23331879468E+04  0.00000000000E+00 0.  1.
<mgrwt>
<rscale>  2 0.10937249E+03</rscale>
<asrwt>0</asrwt>
<pdfrwt beam="1">  1       21 0.36389094E+00 0.10937249E+03</pdfrwt>
<pdfrwt beam="2">  1       21 0.13978264E-01 0.10937249E+03</pdfrwt>
<totfact> 0.76125005E+02</totfact>
</mgrwt>
</event>
<event>
 4    1  0.5810391E+003  0.1957227E+03  0.7546771E-02  0.1153399E+00
         21   -1    0    0  502  501  0.00000000000E+00  0.00000000000E+00  0.22183369649E+03  0.22183369649E+03  0.00000000000E+00 0.  1.
         21   -1    0    0  504  502 -0.00000000000E+00 -0.00000000000E+00 -0.37257580143E+03  0.37257580143E+03  0.00000000000E+00 0.  1.
         21    1    1    2  503  501  0.15292607826E+03 -0.12215158187E+03  0.14232202505E+03  0.24199783714E+03  0.00000000000E+00 0.  1.
         21    1    1    2  504  503 -0.15292607826E+03  0.12215158187E+03 -0.29306412999E+03  0.35241166078E+03  0.00000000000E+00 0.  1.
<mgrwt>
<rscale>  2 0.19572275E+03</rscale>
<asrwt>0</asrwt>
<pdfrwt beam="1">  1       21 0.34128262E-01 0.19572275E+03</pdfrwt>
<pdfrwt beam="2">  1       21 0.57319353E-01 0.19572275E+03</pdfrwt>
<totfact> 0.23596668E+04</totfact>
</mgrwt>
</event>
<event>
 4    1  0.5810391E+003  0.1030837E+03  0.7546771E-02  0.1273942E+00
         21   -1    0    0  504  501  0.00000000000E+00  0.00000000000E+00  0.55802429906E+03  0.55802429906E+03  0.00000000000E+00 0.  1.
         21   -1    0    0  503  502 -0.00000000000E+00 -0.00000000000E+00 -0.30147787587E+02  0.30147787587E+02  0.00000000000E+00 0.  1.
         21    1    1    2  503  501 -0.94194101828E+02 -0.41877353634E+02  0.44242639351E+03  0.45427673861E+03  0.00000000000E+00 0.  1.
         21    1    1    2  504  502  0.94194101828E+02  0.41877353634E+02  0.85450117965E+02  0.13389534804E+03  0.00000000000E+00 0.  1.
<mgrwt>
<rscale>  2 0.10308366E+03</rscale>
<asrwt>0</asrwt>
<pdfrwt beam="1">  1       21 0.85849885E-01 0.10308366E+03</pdfrwt>
<pdfrwt beam="2">  1       21 0.46381216E-02 0.10308366E+03</pdfrwt>
<totfact> 0.36451065E+05</totfact>
</mgrwt>
</event>
<event>
 4    1  0.5810391E+003  0.1196041E+03  0.7546771E-02  0.1243752E+00
         21   -1    0    0  503  501  0.00000000000E+00  0.00000000000E+00  0.67673112829E+02  0.67673112829E+02  0.00000000000E+00 0.  1.
         21   -1    0    0  501  502 -0.00000000000E+00 -0.00000000000E+00 -0.95338338604E+03  0.95338338604E+03  0.00000000000E+00 0.  1.
         21    1    1    2  503  504  0.30800218612E+02  0.11557032137E+03  0.75332242512E+01  0.11984115368E+03  0.00000000000E+00 0.  1.
         21    1    1    2  504  502 -0.30800218612E+02 -0.11557032137E+03 -0.89324349746E+03  0.90121534519E+03  0.00000000000E+00 0.  1.
<mgrwt>
<rscale>  2 0.11960415E+03</rscale>
<asrwt>0</asrwt>
<pdfrwt beam="1">  1       21 0.10411249E-01 0.11960415E+03</pdfrwt>
<pdfrwt beam="2">  1       21 0.14667435E+00 0.11960415E+03</pdfrwt>
<totfact> 0.25250901E+04</totfact>
</mgrwt>
</event>
<event>
 4    1  0.5810391E+003  0.1414054E+03  0.7546771E-02  0.1211450E+00
         21   -1    0    0  502  501  0.00000000000E+00  0.00000000000E+00  0.12150485346E+04  0.12150485346E+04  0.00000000000E+00 0.  1.
         21   -1    0    0  504  502 -0.00000000000E+00 -0.00000000000E+00 -0.17231044313E+03  0.17231044313E+03  0.00000000000E+00 0.  1.
         21    1    1    2  503  501 -0.86418834950E+01  0.14114110605E+03  0.11810924571E+04  0.11895271692E+04  0.00000000000E+00 0.  1.
         21    1    1    2  504  503  0.86418834950E+01 -0.14114110605E+03 -0.13835436567E+03  0.19783180853E+03  0.00000000000E+00 0.  1.
<mgrwt>
<rscale>  2 0.14140542E+03</rscale>
<asrwt>0</asrwt>
<pdfrwt beam="1">  1       21 0.18693054E+00 0.14140542E+03</pdfrwt>
<pdfrwt beam="2">  1       21 0.26509300E-01 0.14140542E+03</pdfrwt>
<totfact> 0.23433988E+03</totfact>
</mgrwt>
</event>
<event>
 4    1  0.5810391E+003  0.1010622E+03  0.7546771E-02  0.1278078E+00
         21   -1    0    0  504  501  0.00000000000E+00  0.00000000000E+00  0.90434081772E+03  0.90434081772E+03  0.00000000000E+00 0.  1.
         21   -1    0    0  503  502 -0.00000000000E+00 -0.00000000000E+00 -0.54770109650E+02  0.54770109650E+02  0.00000000000E+00 0.  1.
         21    1    1    2  503  501 -0.92995357057E+02 -0.39565454564E+02 -0.24751288155E+01  0.10109247198E+03  0.00000000000E+00 0.  1.
         21    1    1    2  504  502  0.92995357057E+02  0.39565454564E+02  0.85204583689E+03  0.85801845539E+03  0.00000000000E+00 0.  1.
<mgrwt>
<rscale>  2 0.10106217E+03</rscale>
<asrwt>0</asrwt>
<pdfrwt beam="1">  1       21 0.13912935E+00 0.10106217E+03</pdfrwt>
<pdfrwt beam="2">  1       21 0.84261714E-02 0.10106217E+03</pdfrwt>
<totfact> 0.42352115E+04</totfact>
</mgrwt>
</event>
<event>
 4    1  0.5810391E+003  0.1110771E+03  0.7546771E-02  0.1258588E+00
         21   -1    0    0  503  501  0.00000000000E+00  0.00000000000E+00  0.33074271485E+03  0.33074271485E+03  0.00000000000E+00 0. -1.
         21   -1    0    0  504  502 -0.00000000000E+00 -0.00000000000E+00 -0.75978407775E+02  0.75978407775E+02  0.00000000000E+00 0. -1.
         21    1    1    2  503  502  0.24855176181E+02 -0.10826048826E+03 -0.17706015213E+02  0.11247940290E+03  0.00000000000E+00 0. -1.
         21    1    1    2  504  501 -0.24855176181E+02  0.10826048826E+03  0.27247032228E+03  0.29424171973E+03  0.00000000000E+00 0. -1.
<mgrwt>
<rscale>  2 0.11107706E+03</rscale>
<asrwt>0</asrwt>
<pdfrwt beam="1">  1       21 0.50883494E-01 0.11107706E+03</pdfrwt>
<pdfrwt beam="2">  1       21 0.11688986E-01 0.11107706E+03</pdfrwt>
<totfact> 0.23071909E+05</totfact>
</mgrwt>
</event>
<event>
 4    1  0.5810391E+003  0.2108539E+03  0.7546771E-02  0.1140892E+00
         21   -1    0    0  503  501  0.00000000000E+00  0.00000000000E+00  0.39074370859E+03  0.39074370859E+03  0.00000000000E+00 0. -1.
         21   -1    0    0  504  502 -0.00000000000E+00 -0.00000000000E+00 -0.14757505726E+03  0.14757505726E+03  0.00000000000E+00 0. -1.
         21    1    1    2  503  502  0.49906983750E+02  0.20486256869E+03 -0.72170286625E+01  0.21097740301E+03  0.00000000000E+00 0. -1.
         21    1    1    2  504  501 -0.49906983750E+02 -0.20486256869E+03  0.25038568000E+03  0.32734136284E+03  0.00000000000E+00 0. -1.
<mgrwt>
<rscale>  2 0.21085393E+03</rscale>
<asrwt>0</asrwt>
<pdfrwt beam="1">  1       21 0.60114416E-01 0.21085393E+03</pdfrwt>
<pdfrwt beam="2">  1       21 0.22703855E-01 0.21085393E+03</pdfrwt>
<totfact> 0.46518525E+04</totfact>
</mgrwt>
</event>
<event>
 4    1  0.5810391E+003  0.1127296E+03  0.7546771E-02  0.1255597E+00
         21   -1    0    0  504  501  0.00000000000E+00  0.00000000000E+00  0.32932821225E+03  0.32932821225E+03  0.00000000000E+00 0. -1.
         21   -1    0    0  503  502 -0.00000000000E+00 -0.00000000000E+00 -0.41004958483E+02  0.41004958483E+02  0.00000000000E+00 0.  1.
         21    1    1    2  503  501 -0.55555918891E+02  0.98089273038E+02  0.18912100923E+03  0.22016975665E+03  0.00000000000E+00 0. -1.
         21    1    1    2  504  502  0.55555918891E+02 -0.98089273038E+02  0.99202244533E+02  0.15016341408E+03  0.00000000000E+00 0.  1.
<mgrwt>
<rscale>  2 0.11272961E+03</rscale>
<asrwt>0</asrwt>
<pdfrwt beam="1">  1       21 0.50665877E-01 0.11272961E+03</pdfrwt>
<pdfrwt beam="2">  1       21 0.63084554E-02 0.11272961E+03</pdfrwt>
<totfact> 0.67490474E+05</totfact>
</mgrwt>
</event>
<event>
 4    1  0.5810391E+003  0.1192435E+03  0.7546771E-02  0.1244350E+00
         21   -1    0    0  504  501  0.00000000000E+00  0.00000000000E+00  0.17342832728E+04  0.17342832728E+04  0.00000000000E+00 0.  1.
         21   -1    0    0  503  502 -0.00000000000E+00 -0.00000000000E+00 -0.22065990632E+02  0.22065990632E+02  0.00000000000E+00 0. -1.
         21    1    1    2  503  501  0.10333989495E+03  0.59496789658E+02  0.15522761897E+04  0.15568495017E+04  0.00000000000E+00 0.  1.
         21    1    1    2  504  502 -0.10333989495E+03 -0.59496789658E+02  0.15994109250E+03  0.19949976175E+03  0.00000000000E+00 0. -1.
<mgrwt>
<rscale>  2 0.11924346E+03</rscale>
<asrwt>0</asrwt>
<pdfrwt beam="1">  1       21 0.26681270E+00 0.11924346E+03</pdfrwt>
<pdfrwt beam="2">  1       21 0.33947691E-02 0.11924346E+03</pdfrwt>
<totfact> 0.29487410E+04</totfact>
</mgrwt>
</event>
<event>
 4    1  0.5810391E+003  0.1122032E+03  0.7546771E-02  0.1256543E+00
         21   -1    0    0  503  501  0.00000000000E+00  0.00000000000E+00  0.10026641984E+03  0.10026641984E+03  0.00000000000E+00 0.  1.
         21   -1    0    0  504  502 -0.00000000000E+00 -0.00000000000E+00 -0.21244629075E+03  0.21244629075E+03  0.00000000000E+00 0.  1.
         21    1    1    2  503  502  0.10641845026E+03 -0.35562258155E+02 -0.15608161691E+03  0.19222651195E+03  0.00000000000E+00 0.  1.
         21    1    1    2  504  501 -0.10641845026E+03  0.35562258155E+02  0.43901745994E+02  0.12048619863E+03  0.00000000000E+00 0.  1.
<mgrwt>
<rscale>  2 0.11220321E+03</rscale>
<asrwt>0</asrwt>
<pdfrwt beam="1">  1       21 0.15425603E-01 0.11220321E+03</pdfrwt>
<pdfrwt beam="2">  1       21 0.32684044E-01 0.11220321E+03</pdfrwt>
<totfact> 0.34080885E+05</totfact>
</mgrwt>
</event>
<event>
 4    1  0.5810391E+003  0.2121349E+03  0.7546771E-02  0.1139886E+00
         21   -1    0    0  503  501  0.00000000000E+00  0.00000000000E+00  0.11954188667E+03  0.11954188667E+03  0.00000000000E+00 0. -1.
         21   -1    0    0  504  502 -0.00000000000E+00 -0.00000000000E+00 -0.37653487558E+03  0.37653487558E+03  0.00000000000E+00 0. -1.
         21    1    1    2  503  502 -0.20487643842E+03 -0.55016749412E+02 -0.13228335167E+03  0.25000016573E+03  0.00000000000E+00 0. -1.
         21    1    1    2  504  501  0.20487643842E+03  0.55016749412E+02 -0.12470963724E+03  0.24607659652E+03  0.00000000000E+00 0. -1.
<mgrwt>
<rscale>  2 0.21213486E+03</rscale>
<asrwt>0</asrwt>
<pdfrwt beam="1">  1       21 0.18391060E-01 0.21213486E+03</pdfrwt>
<pdfrwt beam="2">  1       21 0.57928441E-01 0.21213486E+03</pdfrwt>
<totfact> 0.74736520E+04</totfact>
</mgrwt>
</event>
<event>
 4    1  0.5810391E+003  0.1058939E+03  0.7546771E-02  0.1268368E+00
         21   -1    0    0  502  501  0.00000000000E+00  0.00000000000E+00  0.42607223759E+02  0.42607223759E+02  0.00000000000E+00 0. -1.
         21   -1    0    0  503  502 -0.00000000000E+00 -0.00000000000E+00 -0.41790707517E+03  0.41790707517E+03  0.00000000000E+00 0. -1.
         21    1    1    2  503  504  0.92508907623E+02 -0.51532666539E+02 -0.32775428820E+03  0.34443633250E+03  0.00000000000E+00 0. -1.
         21    1    1    2  504  501 -0.92508907623E+02  0.51532666539E+02 -0.47545563212E+02  0.11607796643E+03  0.00000000000E+00 0. -1.
<mgrwt>
<rscale>  2 0.10589388E+03</rscale>
<asrwt>0</asrwt>
<pdfrwt beam="1">  1       21 0.65549574E-02 0.10589388E+03</pdfrwt>
<pdfrwt beam="2">  1       21 0.64293397E-01 0.10589388E+03</pdfrwt>
<totfact> 0.38400429E+05</totfact>
</mgrwt>
</event>
<event>
 4    1  0.5810391E+003  0.1036122E+03  0.7546771E-02  0.1272878E+00
         21   -1    0    0  503  501  0.00000000000E+00  0.00000000000E+00  0.14820439028E+03  0.14820439028E+03  0.00000000000E+00 0. -1.
         21   -1    0    0  501  502 -0.00000000000E+00 -0.00000000000E+00 -0.19420281770E+03  0.19420281770E+03  0.00000000000E+00 0.  1.
         21    1    1    2  503  504  0.48039725462E+02 -0.91802315643E+02  0.11256587001E+03  0.15299201113E+03  0.00000000000E+00 0. -1.
         21    1    1    2  504  502 -0.48039725462E+02  0.91802315643E+02 -0.15856429742E+03  0.18941519685E+03  0.00000000000E+00 0.  1.
<mgrwt>
<rscale>  2 0.10361216E+03</rscale>
<asrwt>0</asrwt>
<pdfrwt beam="1">  1       21 0.22800675E-01 0.10361216E+03</pdfrwt>
<pdfrwt beam="2">  1       21 0.29877357E-01 0.10361216E+03</pdfrwt>
<totfact> 0.19862815E+05</totfact>
</mgrwt>
</event>
<event>
 4    1  0.5810391E+003  0.2535822E+03  0.7546771E-02  0.1111062E+00
         21   -1    0    0  504  501  0.00000000000E+00  0.00000000000E+00  0.17580976803E+03  0.17580976803E+03  0.00000000000E+00 0.  1.
         21   -1    0    0  503  502 -0.00000000000E+00 -0.00000000000E+00 -0.39051582313E+03  0.39051582313E+03  0.00000000000E+00 0.  1.
         21    1    1    2  503  501 -0.17468644708E+03  0.18381672033E+03 -0.36056644582E+02  0.25613282313E+03  0.00000000000E+00 0.  1.
         21    1    1    2  504  502  0.17468644708E+03 -0.18381672033E+03 -0.17864941052E+03  0.31019276804E+03  0.00000000000E+00 0.  1.
<mgrwt>
<rscale>  2 0.25358222E+03</rscale>
<asrwt>0</asrwt>
<pdfrwt beam="1">  1       21 0.27047657E-01 0.25358222E+03</pdfrwt>
<pdfrwt beam="2">  1       21 0.60079356E-01 0.25358222E+03</pdfrwt>
<totfact> 0.32666265E+04</totfact>
</mgrwt>
</event>
<event>
 4    1  0.5810391E+003  0.1517584E+03  0.7546771E-02  0.1198329E+00
         21   -1    0    0  503  501  0.00000000000E+00  0.00000000000E+00  0.11279926797E+04  0.11279926797E+04  0.00000000000E+00 0.  1.
         21   -1    0    0  504  502 -0.00000000000E+00 -0.00000000000E+00 -0.24125017300E+02  0.24125017300E+02  0.00000000000E+00 0.  1.
         21    1    1    2  503  502 -0.94447929754E+02 -0.11878632741E+03  0.77776525109E+03  0.79243257683E+03  0.00000000000E+00 0.  1.
         21    1    1    2  504  501  0.94447929754E+02  0.11878632741E+03  0.32610241134E+03  0.35968512021E+03  0.00000000000E+00 0.  1.
<mgrwt>
<rscale>  2 0.15175837E+03</rscale>
<asrwt>0</asrwt>
<pdfrwt beam="1">  1       21 0.17353729E+00 0.15175837E+03</pdfrwt>
<pdfrwt beam="2">  1       21 0.37115420E-02 0.15175837E+03</pdfrwt>
<totfact> 0.91572055E+04</totfact>
</mgrwt>
</event>
<event>
 4    1  0.5810391E+003  0.1020115E+03  0.7546771E-02  0.1276122E+00
         21   -1    0    0  502  501  0.00000000000E+00  0.00000000000E+00  0.49728243482E+02  0.49728243482E+02  0.00000000000E+00 0. -1.
         21   -1    0    0  504  502 -0.00000000000E+00 -0.00000000000E+00 -0.31935965445E+03  0.31935965445E+03  0.00000000000E+00 0. -1.
         21    1    1    2  503  501 -0.80461622465E+02  0.62707860040E+02 -0.26461894932E+02  0.10538776155E+03  0.00000000000E+00 0. -1.
         21    1    1    2  504  503  0.80461622465E+02 -0.62707860040E+02 -0.24316951604E+03  0.26370013639E+03  0.00000000000E+00 0. -1.
<mgrwt>
<rscale>  2 0.10201151E+03</rscale>
<asrwt>0</asrwt>
<pdfrwt beam="1">  1       21 0.76504993E-02 0.10201151E+03</pdfrwt>
<pdfrwt beam="2">  1       21 0.49132253E-01 0.10201151E+03</pdfrwt>
<totfact> 0.51780279E+05</totfact>
</mgrwt>
</event>
<event>
 4    1  0.5810391E+003  0.1090656E+03  0.7546771E-02  0.1262310E+00
         21   -1    0    0  503  501  0.00000000000E+00  0.00000000000E+00  0.57298494066E+03  0.57298494066E+03  0.00000000000E+00 0.  1.
         21   -1    0    0  501  502 -0.00000000000E+00 -0.00000000000E+00 -0.74856120347E+02  0.74856120347E+02  0.00000000000E+00 0. -1.
         21    1    1    2  503  504 -0.10298747719E+03  0.35900986863E+02  0.52442826902E+03  0.53564942888E+03  0.00000000000E+00 0.  1.
         21    1    1    2  504  502  0.10298747719E+03 -0.35900986863E+02 -0.26299448706E+02  0.11219163212E+03  0.00000000000E+00 0. -1.
<mgrwt>
<rscale>  2 0.10906558E+03</rscale>
<asrwt>0</asrwt>
<pdfrwt beam="1">  1       21 0.88151527E-01 0.10906558E+03</pdfrwt>
<pdfrwt beam="2">  1       21 0.11516327E-01 0.10906558E+03</pdfrwt>
<totfact> 0.72477626E+04</totfact>
</mgrwt>
</event>
<event>
 4    1  0.5810391E+003  0.1008079E+03  0.7546771E-02  0.1278606E+00
         21   -1    0    0  504  501  0.00000000000E+00  0.00000000000E+00  0.46905642152E+03  0.46905642152E+03  0.00000000000E+00 0.  1.
         21   -1    0    0  503  502 -0.00000000000E+00 -0.00000000000E+00 -0.21710879725E+02  0.21710879725E+02  0.00000000000E+00 0.  1.
         21    1    1    2  503  501 -0.81215702676E+02  0.59718047659E+02  0.21242620831E+03  0.23513215338E+03  0.00000000000E+00 0.  1.
         21    1    1    2  504  502  0.81215702676E+02 -0.59718047659E+02  0.23491933348E+03  0.25563514786E+03  0.00000000000E+00 0.  1.
<mgrwt>
<rscale>  2 0.10080791E+03</rscale>
<asrwt>0</asrwt>
<pdfrwt beam="1">  1       21 0.72162519E-01 0.10080791E+03</pdfrwt>
<pdfrwt beam="2">  1       21 0.33401357E-02 0.10080791E+03</pdfrwt>
<totfact> 0.92024502E+05</totfact>
</mgrwt>
</event>
<event>
 4    1  0.5810391E+003  0.1195183E+03  0.7546771E-02  0.1243894E+00
         21   -1    0    0  502  501  0.00000000000E+00  0.00000000000E+00  0.19746740425E+03  0.19746740425E+03  0.00000000000E+00 0. -1.
         21   -1    0    0  504  502 -0.00000000000E+00 -0.00000000000E+00 -0.94431252848E+02  0.94431252848E+02  0.00000000000E+00 0. -1.
         21    1    1    2  503  501  0.56794281576E+02  0.10516191974E+03  0.12211129252E+03  0.17086774869E+03  0.00000000000E+00 0. -1.
         21    1    1    2  504  503 -0.56794281576E+02 -0.10516191974E+03 -0.19075141113E+02  0.12103090841E+03  0.00000000000E+00 0. -1.
<mgrwt>
<rscale>  2 0.11951828E+03</rscale>
<asrwt>0</asrwt>
<pdfrwt beam="1">  1       21 0.30379601E-01 0.11951828E+03</pdfrwt>
<pdfrwt beam="2">  1       21 0.14527885E-01 0.11951828E+03</pdfrwt>
<totfact> 0.43682919E+05</totfact>
</mgrwt>
</event>
<event>
 4    1  0.5810391E+003  0.1605131E+03  0.7546771E-02  0.1188119E+00
         21   -1    0    0  503  501  0.00000000000E+00  0.00000000000E+00  0.31701890178E+03  0.31701890178E+03  0.00000000000E+00 0. -1.
         21   -1    0    0  501  502 -0.00000000000E+00 -0.00000000000E+00 -0.12043524885E+03  0.12043524885E+03  0.00000000000E+00 0. -1.
         21    1    1    2  503  504  0.15219115571E+03 -0.51012870549E+02  0.22302165644E+03  0.27477831079E+03  0.00000000000E+00 0. -1.
         21    1    1    2  504  502 -0.15219115571E+03  0.51012870549E+02 -0.26438003506E+02  0.16267583984E+03  0.00000000000E+00 0. -1.
<mgrwt>
<rscale>  2 0.16051312E+03</rscale>
<asrwt>0</asrwt>
<pdfrwt beam="1">  1       21 0.48772138E-01 0.16051312E+03</pdfrwt>
<pdfrwt beam="2">  1       21 0.18528500E-01 0.16051312E+03</pdfrwt>
<totfact> 0.10811858E+05</totfact>
</mgrwt>
</event>
<event>
 4    1  0.5810391E+003  0.1274307E+03  0.7546771E-02  0.1231319E+00
         21   -1    0    0  504  501  0.00000000000E+00  0.00000000000E+00  0.61323426236E+02  0.61323426236E+02  0.00000000000E+00 0. -1.
         21   -1    0    0  503  502 -0.00000000000E+00 -0.00000000000E+00 -0.27084436643E+03  0.27084436643E+03  0.00000000000E+00 0. -1.
         21    1    1    2  503  501  0.98743157563E+01 -0.12704755260E+03 -0.79954209965E+02  0.15043689184E+03  0.00000000000E+00 0. -1.
         21    1    1    2  504  502 -0.98743157563E+01  0.12704755260E+03 -0.12956673022E+03  0.18173090083E+03  0.00000000000E+00 0. -1.
<mgrwt>
<rscale>  2 0.12743070E+03</rscale>
<asrwt>0</asrwt>
<pdfrwt beam="1">  1       21 0.94343733E-02 0.12743070E+03</pdfrwt>
<pdfrwt beam="2">  1       21 0.41668364E-01 0.12743070E+03</pdfrwt>
<totfact> 0.50284346E+05</totfact>
</mgrwt>
</event>
<event>
 4    1  0.5810391E+003  0.1036125E+03  0.7546771E-02  0.1272878E+00
         21   -1    0    0  503  501  0.00000000000E+00  0.00000000000E+00  0.28877061869E+02  0.28877061869E+02  0.00000000000E+00 0.  1.
         21   -1    0    0  501  502 -0.00000000000E+00 -0.00000000000E+00 -0.88843913182E+03  0.88843913182E+03  0.00000000000E+00 0. -1.
         21    1    1    2  503  504 -0.92287098901E+02  0.47102435663E+02 -0.80010994863E+02  0.13090953887E+03  0.00000000000E+00 0.  1.
         21    1    1    2  504  502  0.92287098901E+02 -0.47102435663E+02 -0.77955107509E+03  0.78640665481E+03  0.00000000000E+00 0. -1.
<mgrwt>
<rscale>  2 0.10361249E+03</rscale>
<asrwt>0</asrwt>
<pdfrwt beam="1">  1       21 0.44426244E-02 0.10361249E+03</pdfrwt>
<pdfrwt beam="2">  1       21 0.13668296E+00 0.10361249E+03</pdfrwt>
<totfact> 0.13024488E+05</totfact>
</mgrwt>
</event>
<event>
 4    1  0.5810391E+003  0.2012241E+03  0.7546771E-02  0.1148710E+00
         21   -1    0    0  504  501  0.00000000000E+00  0.00000000000E+00  0.49603058426E+03  0.49603058426E+03  0.00000000000E+00 0. -1.
         21   -1    0    0  501  502 -0.00000000000E+00 -0.00000000000E+00 -0.11934269284E+03  0.11934269284E+03  0.00000000000E+00 0.  1.
         21    1    1    2  503  502 -0.94144204776E+01  0.20100376721E+03  0.15381216643E+02  0.20181111855E+03  0.00000000000E+00 0.  1.
         21    1    1    2  504  503  0.94144204776E+01 -0.20100376721E+03  0.36130667478E+03  0.41356215855E+03  0.00000000000E+00 0. -1.
<mgrwt>
<rscale>  2 0.20122412E+03</rscale>
<asrwt>0</asrwt>
<pdfrwt beam="1">  1       21 0.76312397E-01 0.20122412E+03</pdfrwt>
<pdfrwt beam="2">  1       21 0.18360415E-01 0.20122412E+03</pdfrwt>
<totfact> 0.41208292E+04</totfact>
</mgrwt>
</event>
<event>
 4    1  0.5810391E+003  0.1405581E+03  0.7546771E-02  0.1212580E+00
         21   -1    0    0  504  501  0.00000000000E+00  0.00000000000E+00  0.21275377244E+03  0.21275377244E+03  0.00000000000E+00 0. -1.
         21   -1    0    0  503  502 -0.00000000000E+00 -0.00000000000E+00 -0.14071734397E+03  0.14071734397E+03  0.00000000000E+00 0. -1.
         21    1    1    2  503  501 -0.13222003733E+03  0.47691063751E+02  0.13908503054E+03  0.19774028814E+03  0.00000000000E+00 0. -1.
         21    1    1    2  504  502  0.13222003733E+03 -0.47691063751E+02 -0.67048602071E+02  0.15573082827E+03  0.00000000000E+00 0. -1.
<mgrwt>
<rscale>  2 0.14055809E+03</rscale>
<asrwt>0</asrwt>
<pdfrwt beam="1">  1       21 0.32731350E-01 0.14055809E+03</pdfrwt>
<pdfrwt beam="2">  1       21 0.21648822E-01 0.14055809E+03</pdfrwt>
<totfact> 0.18148423E+05</totfact>
</mgrwt>
</event>
<event>
 4    1  0.5810391E+003  0.1067977E+03  0.7546771E-02  0.1266618E+00
         21   -1    0    0  503  501  0.00000000000E+00  0.00000000000E+00  0.72806310604E+03  0.72806310604E+03  0.00000000000E+00 0.  1.
         21   -1    0    0  504  502 -0.00000000000E+00 -0.00000000000E+00 -0.16452933773E+02  0.16452933773E+02  0.00000000000E+00 0. -1.
         21    1    1    2  503  502  0.39158887703E+02  0.99359624932E+02  0.27438661166E+03  0.29443805156E+03  0.00000000000E+00 0. -1.
         21    1    1    2  504  501 -0.39158887703E+02 -0.99359624932E+02  0.43722356061E+03  0.45007798824E+03  0.00000000000E+00 0.  1.
<mgrwt>
<rscale>  2 0.10679772E+03</rscale>
<asrwt>0</asrwt>
<pdfrwt beam="1">  1       21 0.11200968E+00 0.10679772E+03</pdfrwt>
<pdfrwt beam="2">  1       21 0.25312211E-02 0.10679772E+03</pdfrwt>
<totfact> 0.53178185E+05</totfact>
</mgrwt>
</event>
<event>
 4    1  0.5810391E+003  0.1277090E+03  0.7546771E-02  0.1230895E+00
         21   -1    0    0  503  501  0.00000000000E+00  0.00000000000E+00  0.25682570667E+03  0.25682570667E+03  0.00000000000E+00 0.  1.
         21   -1    0    0  501  502 -0.00000000000E+00 -0.00000000000E+00 -0.32489392162E+03  0.32489392162E+03  0.00000000000E+00 0.  1.
         21    1    1    2  503  504  0.10754178252E+03 -0.68879352998E+02  0.22685556868E+03  0.26033257440E+03  0.00000000000E+00 0.  1.
         21    1    1    2  504  502 -0.10754178252E+03  0.68879352998E+02 -0.29492378362E+03  0.32138705388E+03  0.00000000000E+00 0.  1.
<mgrwt>
<rscale>  2 0.12770905E+03</rscale>
<asrwt>0</asrwt>
<pdfrwt beam="1">  1       21 0.39511647E-01 0.12770905E+03</pdfrwt>
<pdfrwt beam="2">  1       21 0.49983680E-01 0.12770905E+03</pdfrwt>
<totfact> 0.24511034E+04</totfact>
</mgrwt>
</event>
<event>
 4    1  0.5810391E+003  0.1133583E+03  0.7546771E-02  0.1254474E+00
         21   -1    0    0  504  501  0.00000000000E+00  0.00000000000E+00  0.12820508991E+03  0.12820508991E+03  0.00000000000E+00 0.  1.
         21   -1    0    0  503  502 -0.00000000000E+00 -0.00000000000E+00 -0.16721025922E+03  0.16721025922E+03  0.00000000000E+00 0. -1.
         21    1    1    2  503  501 -0.88148273225E+02 -0.71273959770E+02  0.73982538172E+02  0.13536436521E+03  0.00000000000E+00 0.  1.
         21    1    1    2  504  502  0.88148273225E+02  0.71273959770E+02 -0.11298770748E+03  0.16005098392E+03  0.00000000000E+00 0. -1.
<mgrwt>
<rscale>  2 0.11335826E+03</rscale>
<asrwt>0</asrwt>
<pdfrwt beam="1">  1       21 0.19723860E-01 0.11335826E+03</pdfrwt>
<pdfrwt beam="2">  1       21 0.25724655E-01 0.11335826E+03</pdfrwt>
<totfact> 0.34458212E+05</totfact>
</mgrwt>
</event>
<event>
 4    1  0.5810391E+003  0.1281968E+03  0.7546771E-02  0.1230156E+00
         21   -1    0    0  504  501  0.00000000000E+00  0.00000000000E+00  0.89308703601E+02  0.89308703601E+02  0.00000000000E+00 0.  1.
         21   -1    0    0  501  502 -0.00000000000E+00 -0.00000000000E+00 -0.45438853140E+03  0.45438853140E+03  0.00000000000E+00 0. -1.
         21    1    1    2  503  502  0.11523545114E+03  0.56171179628E+02 -0.39223734537E+03  0.41265548066E+03  0.00000000000E+00 0. -1.
         21    1    1    2  504  503 -0.11523545114E+03 -0.56171179628E+02  0.27157517570E+02  0.13104175434E+03  0.00000000000E+00 0.  1.
<mgrwt>
<rscale>  2 0.12819677E+03</rscale>
<asrwt>0</asrwt>
<pdfrwt beam="1">  1       21 0.13739801E-01 0.12819677E+03</pdfrwt>
<pdfrwt beam="2">  1       21 0.69905927E-01 0.12819677E+03</pdfrwt>
<totfact> 0.87831158E+04</totfact>
</mgrwt>
</event>
<event>
 4    1  0.5810391E+003  0.1088664E+03  0.7546771E-02  0.1262684E+00
         21   -1    0    0  504  501  0.00000000000E+00  0.00000000000E+00  0.33452382543E+03  0.33452382543E+03  0.00000000000E+00 0.  1.
         21   -1    0    0  503  502 -0.00000000000E+00 -0.00000000000E+00 -0.36116260862E+02  0.36116260862E+02  0.00000000000E+00 0. -1.
         21    1    1    2  503  501 -0.11148187721E+02 -0.10829409892E+03  0.12364234896E+03  0.16474017241E+03  0.00000000000E+00 0. -1.
         21    1    1    2  504  502  0.11148187721E+02  0.10829409892E+03  0.17476521561E+03  0.20589991388E+03  0.00000000000E+00 0.  1.
<mgrwt>
<rscale>  2 0.10886640E+03</rscale>
<asrwt>0</asrwt>
<pdfrwt beam="1">  1       21 0.51465202E-01 0.10886640E+03</pdfrwt>
<pdfrwt beam="2">  1       21 0.55563480E-02 0.10886640E+03</pdfrwt>
<totfact> 0.80961162E+05</totfact>
</mgrwt>
</event>
<event>
 4    1  0.5810391E+003  0.1529516E+03  0.7546771E-02  0.1196892E+00
         21   -1    0    0  502  501  0.00000000000E+00  0.00000000000E+00  0.48786774068E+03  0.48786774068E+03  0.00000000000E+00 0.  1.
         21   -1    0    0  504  502 -0.00000000000E+00 -0.00000000000E+00 -0.57238640908E+02  0.57238640908E+02  0.00000000000E+00 0.  1.
         21    1    1    2  503  501  0.57739627293E+02  0.14163443543E+03  0.32509844274E+03  0.35928147090E+03  0.00000000000E+00 0.  1.
         21    1    1    2  504  503 -0.57739627293E+02 -0.14163443543E+03  0.10553065703E+03  0.18582491069E+03  0.00000000000E+00 0.  1.
<mgrwt>
<rscale>  2 0.15295155E+03</rscale>
<asrwt>0</asrwt>
<pdfrwt beam="1">  1       21 0.75056573E-01 0.15295155E+03</pdfrwt>
<pdfrwt beam="2">  1       21 0.88059451E-02 0.15295155E+03</pdfrwt>
<totfact> 0.16323265E+05</totfact>
</mgrwt>
</event>
<event>
 4    1  0.5810391E+003  0.1630618E+03  0.7546771E-02  0.1185283E+00
         21   -1    0    0  503  501  0.00000000000E+00  0.00000000000E+00  0.43684789755E+03  0.43684789755E+03  0.00000000000E+00 0. -1.
         21   -1    0    0  504  502 -0.00000000000E+00 -0.00000000000E+00 -0.75258057391E+02  0.75258057391E+02  0.00000000000E+00 0. -1.
         21    1    1    2  503  502  0.12566658041E+03 -0.10390889115E+03  0.29276862518E+03  0.33511582323E+03  0.00000000000E+00 0. -1.
         21    1    1    2  504  501 -0.12566658041E+03  0.10390889115E+03  0.68821214989E+02  0.17699013172E+03  0.00000000000E+00 0. -1.
<mgrwt>
<rscale>  2 0.16306179E+03</rscale>
<asrwt>0</asrwt>
<pdfrwt beam="1">  1       21 0.67207367E-01 0.16306179E+03</pdfrwt>
<pdfrwt beam="2">  1       21 0.11578163E-01 0.16306179E+03</pdfrwt>
<totfact> 0.12814593E+05</totfact>
</mgrwt>
</event>
<event>
 4    1  0.5810391E+003  0.1761964E+03  0.7546771E-02  0.1171536E+00
         21   -1    0    0  504  501  0.00000000000E+00  0.00000000000E+00  0.30221781782E+03  0.30221781782E+03  0.00000000000E+00 0.  1.
         21   -1    0    0  503  502 -0.00000000000E+00 -0.00000000000E+00 -0.10588754285E+03  0.10588754285E+03  0.00000000000E+00 0.  1.
         21    1    1    2  503  501 -0.12622145117E+03  0.12293618117E+03  0.62897547775E+02  0.18708623919E+03  0.00000000000E+00 0.  1.
         21    1    1    2  504  502  0.12622145117E+03 -0.12293618117E+03  0.13343272719E+03  0.22101912149E+03  0.00000000000E+00 0.  1.
<mgrwt>
<rscale>  2 0.17619637E+03</rscale>
<asrwt>0</asrwt>
<pdfrwt beam="1">  1       21 0.46495049E-01 0.17619637E+03</pdfrwt>
<pdfrwt beam="2">  1       21 0.16290391E-01 0.17619637E+03</pdfrwt>
<totfact> 0.15027588E+05</totfact>
</mgrwt>
</event>
<event>
 4    1  0.5810391E+003  0.1227602E+03  0.7546771E-02  0.1238612E+00
         21   -1    0    0  502  501  0.00000000000E+00  0.00000000000E+00  0.39984770529E+02  0.39984770529E+02  0.00000000000E+00 0.  1.
         21   -1    0    0  503  502 -0.00000000000E+00 -0.00000000000E+00 -0.88425384718E+03  0.88425384718E+03  0.00000000000E+00 0.  1.
         21    1    1    2  503  504  0.12238131475E+03  0.96380705438E+01 -0.77217887600E+03  0.78187613798E+03  0.00000000000E+00 0.  1.
         21    1    1    2  504  501 -0.12238131475E+03 -0.96380705438E+01 -0.72090200651E+02  0.14236247973E+03  0.00000000000E+00 0.  1.
<mgrwt>
<rscale>  2 0.12276025E+03</rscale>
<asrwt>0</asrwt>
<pdfrwt beam="1">  1       21 0.61515032E-02 0.12276025E+03</pdfrwt>
<pdfrwt beam="2">  1       21 0.13603905E+00 0.12276025E+03</pdfrwt>
<totfact> 0.75499162E+04</totfact>
</mgrwt>
</event>
<event>
 4    1  0.5810391E+003  0.1198126E+03  0.7546771E-02  0.1243407E+00
         21   -1    0    0  504  501  0.00000000000E+00  0.00000000000E+00  0.46150439358E+03  0.46150439358E+03  0.00000000000E+00 0. -1.
         21   -1    0    0  503  502 -0.00000000000E+00 -0.00000000000E+00 -0.34824227931E+02  0.34824227931E+02  0.00000000000E+00 0. -1.
         21    1    1    2  503  501  0.10692376194E+03 -0.54058833901E+02  0.13223823223E+03  0.17844326396E+03  0.00000000000E+00 0. -1.
         21    1    1    2  504  502 -0.10692376194E+03  0.54058833901E+02  0.29444193341E+03  0.31788535755E+03  0.00000000000E+00 0. -1.
<mgrwt>
<rscale>  2 0.11981256E+03</rscale>
<asrwt>0</asrwt>
<pdfrwt beam="1">  1       21 0.71000671E-01 0.11981256E+03</pdfrwt>
<pdfrwt beam="2">  1       21 0.53575739E-02 0.11981256E+03</pdfrwt>
<totfact> 0.43492236E+05</totfact>
</mgrwt>
</event>
<event>
 4    1  0.5810391E+003  0.1113447E+03  0.7546771E-02  0.1258100E+00
         21   -1    0    0  503  501  0.00000000000E+00  0.00000000000E+00  0.19837146922E+03  0.19837146922E+03  0.00000000000E+00 0.  1.
         21   -1    0    0  501  502 -0.00000000000E+00 -0.00000000000E+00 -0.65950846813E+02  0.65950846813E+02  0.00000000000E+00 0.  1.
         21    1    1    2  503  504  0.93031824152E+02 -0.61177854637E+02  0.96454096967E+02  0.14731273884E+03  0.00000000000E+00 0.  1.
         21    1    1    2  504  502 -0.93031824152E+02  0.61177854637E+02  0.35966525443E+02  0.11700957720E+03  0.00000000000E+00 0.  1.
<mgrwt>
<rscale>  2 0.11134474E+03</rscale>
<asrwt>0</asrwt>
<pdfrwt beam="1">  1       21 0.30518687E-01 0.11134474E+03</pdfrwt>
<pdfrwt beam="2">  1       21 0.10146284E-01 0.11134474E+03</pdfrwt>
<totfact> 0.81715464E+05</totfact>
</mgrwt>
</event>
<event>
 4    1  0.5810391E+003  0.1003153E+03  0.7546771E-02  0.1279634E+00
         21   -1    0    0  504  501  0.00000000000E+00  0.00000000000E+00  0.18991644339E+02  0.18991644339E+02  0.00000000000E+00 0. -1.
         21   -1    0    0  503  502 -0.00000000000E+00 -0.00000000000E+00 -0.53595238117E+03  0.53595238117E+03  0.00000000000E+00 0.  1.
         21    1    1    2  503  501 -0.60098837611E+02  0.80319953261E+02 -0.28803157460E+03  0.30500057892E+03  0.00000000000E+00 0.  1.
         21    1    1    2  504  502  0.60098837611E+02 -0.80319953261E+02 -0.22892916223E+03  0.24994344659E+03  0.00000000000E+00 0. -1.
<mgrwt>
<rscale>  2 0.10031533E+03</rscale>
<asrwt>0</asrwt>
<pdfrwt beam="1">  1       21 0.29217914E-02 0.10031533E+03</pdfrwt>
<pdfrwt beam="2">  1       21 0.82454215E-01 0.10031533E+03</pdfrwt>
<totfact> 0.85364117E+05</totfact>
</mgrwt>
</event>
<event>
 4    1  0.5810391E+003  0.1068623E+03  0.7546771E-02  0.1266493E+00
         21   -1    0    0  504  501  0.00000000000E+00  0.00000000000E+00  0.40612484007E+02  0.40612484007E+02  0.00000000000E+00 0. -1.
         21   -1    0    0  503  502 -0.00000000000E+00 -0.00000000000E+00 -0.40624383838E+03  0.40624383838E+03  0.00000000000E+00 0. -1.
         21    1    1    2  503  501 -0.53470356722E+02 -0.92522791035E+02 -0.30678234766E+03  0.32486143930E+03  0.00000000000E+00 0. -1.
         21    1    1    2  504  502  0.53470356722E+02  0.92522791035E+02 -0.58849006721E+02  0.12199488309E+03  0.00000000000E+00 0. -1.
<mgrwt>
<rscale>  2 0.10686228E+03</rscale>
<asrwt>0</asrwt>
<pdfrwt beam="1">  1       21 0.62480747E-02 0.10686228E+03</pdfrwt>
<pdfrwt beam="2">  1       21 0.62499050E-01 0.10686228E+03</pdfrwt>
<totfact> 0.44234153E+05</totfact>
</mgrwt>
</event>
<event>
 4    1  0.5810391E+003  0.1053034E+03  0.7546771E-02  0.1269523E+00
         21   -1    0    0  502  501  0.00000000000E+00  0.00000000000E+00  0.19286030407E+03  0.19286030407E+03  0.00000000000E+00 0.  1.
         21   -1    0    0  503  502 -0.00000000000E+00 -0.00000000000E+00 -0.16894486219E+03  0.16894486219E+03  0.00000000000E+00 0.  1.
         21    1    1    2  503  504 -0.88839829882E+02 -0.56535726970E+02 -0.13497178042E+03  0.17119049420E+03  0.00000000000E+00 0.  1.
         21    1    1    2  504  501  0.88839829882E+02  0.56535726970E+02  0.15888722230E+03  0.19061467206E+03  0.00000000000E+00 0.  1.
<mgrwt>
<rscale>  2 0.10530339E+03</rscale>
<asrwt>0</asrwt>
<pdfrwt beam="1">  1       21 0.29670816E-01 0.10530339E+03</pdfrwt>
<pdfrwt beam="2">  1       21 0.25991517E-01 0.10530339E+03</pdfrwt>
<totfact> 0.15739585E+05</totfact>
</mgrwt>
</event>
<event>
 4    1  0.5810391E+003  0.1182145E+03  0.7546771E-02  0.1246072E+00
         21   -1    0    0  504  501  0.00000000000E+00  0.00000000000E+00  0.16961046954E+03  0.16961046954E+03  0.00000000000E+00 0. -1.
         21   -1    0    0  503  502 -0.00000000000E+00 -0.00000000000E+00 -0.88886441058E+02  0.88886441058E+02  0.00000000000E+00 0. -1.
         21    1    1    2  503  501  0.99056367551E+02 -0.64517452309E+02  0.54274866495E+01  0.11833901815E+03  0.00000000000E+00 0. -1.
         21    1    1    2  504  502 -0.99056367551E+02  0.64517452309E+02  0.75296541837E+02  0.14015789245E+03  0.00000000000E+00 0. -1.
<mgrwt>
<rscale>  2 0.11821449E+03</rscale>
<asrwt>0</asrwt>
<pdfrwt beam="1">  1       21 0.26093918E-01 0.11821449E+03</pdfrwt>
<pdfrwt beam="2">  1       21 0.13674837E-01 0.11821449E+03</pdfrwt>
<totfact> 0.65099032E+05</totfact>
</mgrwt>
</event>
<event>
 4    1  0.5810391E+003  0.1108277E+03  0.7546771E-02  0.1259045E+00
         21   -1    0    0  504  501  0.00000000000E+00  0.00000000000E+00  0.15658254150E+03  0.15658254150E+03  0.00000000000E+00 0.  1.
         21   -1    0    0  501  502 -0.00000000000E+00 -0.00000000000E+00 -0.19955135571E+04  0.19955135571E+04  0.00000000000E+00 0.  1.
         21    1    1    2  503  502 -0.10694182449E+03  0.29089994875E+02 -0.19741520106E+04  0.19772604641E+04  0.00000000000E+00 0.  1.
         21    1    1    2  504  503  0.10694182449E+03 -0.29089994875E+02  0.13522099501E+03  0.17483563458E+03  0.00000000000E+00 0.  1.
<mgrwt>
<rscale>  2 0.11082771E+03</rscale>
<asrwt>0</asrwt>
<pdfrwt beam="1">  1       21 0.24089622E-01 0.11082771E+03</pdfrwt>
<pdfrwt beam="2">  1       21 0.30700208E+00 0.11082771E+03</pdfrwt>
<totfact> 0.58854858E+02</totfact>
</mgrwt>
</event>
<event>
 4    1  0.5810391E+003  0.1164185E+03  0.7546771E-02  0.1249125E+00
         21   -1    0    0  503  501  0.00000000000E+00  0.00000000000E+00  0.39408492461E+02  0.39408492461E+02  0.00000000000E+00 0. -1.
         21   -1    0    0  504  502 -0.00000000000E+00 -0.00000000000E+00 -0.36069380482E+03  0.36069380482E+03  0.00000000000E+00 0. -1.
         21    1    1    2  503  502 -0.45090198658E+02  0.10733188915E+03 -0.11749839178E+03  0.16540596275E+03  0.00000000000E+00 0. -1.
         21    1    1    2  504  501  0.45090198658E+02 -0.10733188915E+03 -0.20378692058E+03  0.23469633453E+03  0.00000000000E+00 0. -1.
<mgrwt>
<rscale>  2 0.11641847E+03</rscale>
<asrwt>0</asrwt>
<pdfrwt beam="1">  1       21 0.60628452E-02 0.11641847E+03</pdfrwt>
<pdfrwt beam="2">  1       21 0.55491353E-01 0.11641847E+03</pdfrwt>
<totfact> 0.59763566E+05</totfact>
</mgrwt>
</event>
<event>
 4    1  0.5810391E+003  0.1017387E+03  0.7546771E-02  0.1276682E+00
         21   -1    0    0  502  501  0.00000000000E+00  0.00000000000E+00  0.27487655603E+03  0.27487655603E+03  0.00000000000E+00 0.  1.
         21   -1    0    0  504  502 -0.00000000000E+00 -0.00000000000E+00 -0.41000088997E+02  0.41000088997E+02  0.00000000000E+00 0.  1.
         21    1    1    2  503  501  0.73161998126E+02 -0.70697112897E+02  0.16204400444E+03  0.19133483509E+03  0.00000000000E+00 0.  1.
         21    1    1    2  504  503 -0.73161998126E+02  0.70697112897E+02  0.71832462592E+02  0.12454180994E+03  0.00000000000E+00 0.  1.
<mgrwt>
<rscale>  2 0.10173868E+03</rscale>
<asrwt>0</asrwt>
<pdfrwt beam="1">  1       21 0.42288700E-01 0.10173868E+03</pdfrwt>
<pdfrwt beam="2">  1       21 0.63077062E-02 0.10173868E+03</pdfrwt>
<totfact> 0.97353682E+05</totfact>
</mgrwt>
</event>
<event>
 4    1  0.5810391E+003  0.1111809E+03  0.7546771E-02  0.1258399E+00
         21   -1    0    0  502  501  0.00000000000E+00  0.00000000000E+00  0.21209421611E+03  0.21209421611E+03  0.00000000000E+00 0. -1.
         21   -1    0    0  503  502 -0.00000000000E+00 -0.00000000000E+00 -0.72907958644E+02  0.72907958644E+02  0.00000000000E+00 0. -1.
         21    1    1    2  503  504 -0.24699370028E+02 -0.10840261006E+03  0.57668970401E+01  0.11133032763E+03  0.00000000000E+00 0. -1.
         21    1    1    2  504  501  0.24699370028E+02  0.10840261006E+03  0.13341936043E+03  0.17367184713E+03  0.00000000000E+00 0. -1.
<mgrwt>
<rscale>  2 0.11118087E+03</rscale>
<asrwt>0</asrwt>
<pdfrwt beam="1">  1       21 0.32629879E-01 0.11118087E+03</pdfrwt>
<pdfrwt beam="2">  1       21 0.11216609E-01 0.11118087E+03</pdfrwt>
<totfact> 0.60247200E+05</totfact>
</mgrwt>
</event>
<event>
 4    1  0.5810391E+003  0.2024986E+03  0.7546771E-02  0.1147648E+00
         21   -1    0    0  504  501  0.00000000000E+00  0.00000000000E+00  0.17575383510E+02  0.17575383510E+02  0.00000000000E+00 0. -1.
         21   -1    0    0  501  502 -0.00000000000E+00 -0.00000000000E+00 -0.23334477827E+04  0.23334477827E+04  0.00000000000E+00 0. -1.
         21    1    1    2  503  502  0.10686658945E+03 -0.17200349614E+03 -0.11442379128E+04  0.11620181030E+04  0.00000000000E+00 0. -1.
         21    1    1    2  504  503 -0.10686658945E+03  0.17200349614E+03 -0.11716344864E+04  0.11890050632E+04  0.00000000000E+00 0. -1.
<mgrwt>
<rscale>  2 0.20249857E+03</rscale>
<asrwt>0</asrwt>
<pdfrwt beam="1">  1       21 0.27039050E-02 0.20249857E+03</pdfrwt>
<pdfrwt beam="2">  1       21 0.35899199E+00 0.20249857E+03</pdfrwt>
<totfact> 0.11486628E+04</totfact>
</mgrwt>
</event>
<event>
 4    1  0.5810391E+003  0.1053102E+03  0.7546771E-02  0.1269510E+00
         21   -1    0    0  504  501  0.00000000000E+00  0.00000000000E+00  0.66838483855E+02  0.66838483855E+02  0.00000000000E+00 0.  1.
         21   -1    0    0  503  502 -0.00000000000E+00 -0.00000000000E+00 -0.16641114763E+03  0.16641114763E+03  0.00000000000E+00 0.  1.
         21    1    1    2  503  501 -0.90057043069E+00 -0.10530637467E+03 -0.43489414342E+02  0.11393670494E+03  0.00000000000E+00 0.  1.
         21    1    1    2  504  502  0.90057043069E+00  0.10530637467E+03 -0.56083249432E+02  0.11931292654E+03  0.00000000000E+00 0.  1.
<mgrwt>
<rscale>  2 0.10531023E+03</rscale>
<asrwt>0</asrwt>
<pdfrwt beam="1">  1       21 0.10282844E-01 0.10531023E+03</pdfrwt>
<pdfrwt beam="2">  1       21 0.25601715E-01 0.10531023E+03</pdfrwt>
<totfact> 0.11146955E+06</totfact>
</mgrwt>
</event>
<event>
 4    1  0.5810391E+003  0.1296007E+03  0.7546771E-02  0.1228049E+00
         21   -1    0    0  503  501  0.00000000000E+00  0.00000000000E+00  0.42680665119E+03  0.42680665119E+03  0.00000000000E+00 0. -1.
         21   -1    0    0  504  502 -0.00000000000E+00 -0.00000000000E+00 -0.71532866753E+02  0.71532866753E+02  0.00000000000E+00 0.  1.
         21    1    1    2  503  502 -0.79812712508E+02  0.10210913040E+03  0.34475793491E+03  0.36831287959E+03  0.00000000000E+00 0. -1.
         21    1    1    2  504  501  0.79812712508E+02 -0.10210913040E+03  0.10515849527E+02  0.13002663835E+03  0.00000000000E+00 0.  1.
<mgrwt>
<rscale>  2 0.12960071E+03</rscale>
<asrwt>0</asrwt>
<pdfrwt beam="1">  1       21 0.65662560E-01 0.12960071E+03</pdfrwt>
<pdfrwt beam="2">  1       21 0.11005057E-01 0.12960071E+03</pdfrwt>
<totfact> 0.14909286E+05</totfact>
</mgrwt>
</event>
<event>
 4    1  0.5810391E+003  0.1069335E+03  0.7546771E-02  0.1266356E+00
         21   -1    0    0  502  501  0.00000000000E+00  0.00000000000E+00  0.20191758701E+03  0.20191758701E+03  0.00000000000E+00 0. -1.
         21   -1    0    0  503  502 -0.00000000000E+00 -0.00000000000E+00 -0.84345024513E+02  0.84345024513E+02  0.00000000000E+00 0. -1.
         21    1    1    2  503  504  0.83869996319E+02  0.66337008612E+02 -0.23259351469E+02  0.10943387238E+03  0.00000000000E+00 0. -1.
         21    1    1    2  504  501 -0.83869996319E+02 -0.66337008612E+02  0.14083191396E+03  0.17682873914E+03  0.00000000000E+00 0. -1.
<mgrwt>
<rscale>  2 0.10693351E+03</rscale>
<asrwt>0</asrwt>
<pdfrwt beam="1">  1       21 0.31064244E-01 0.10693351E+03</pdfrwt>
<pdfrwt beam="2">  1       21 0.12976158E-01 0.10693351E+03</pdfrwt>
<totfact> 0.51238740E+05</totfact>
</mgrwt>
</event>
<event>
 4    1  0.5810391E+003  0.1357392E+03  0.7546771E-02  0.1219180E+00
         21   -1    0    0  503  501  0.00000000000E+00  0.00000000000E+00  0.10738415362E+04  0.10738415362E+04  0.00000000000E+00 0.  1.
         21   -1    0    0  504  502 -0.00000000000E+00 -0.00000000000E+00 -0.22165823354E+02  0.22165823354E+02  0.00000000000E+00 0.  1.
         21    1    1    2  503  502 -0.92940782294E+01  0.13542060123E+03  0.26536639678E+03  0.29806785078E+03  0.00000000000E+00 0.  1.
         21    1    1    2  504  501  0.92940782294E+01 -0.13542060123E+03  0.78630931604E+03  0.79793950875E+03  0.00000000000E+00 0.  1.
<mgrwt>
<rscale>  2 0.13573916E+03</rscale>
<asrwt>0</asrwt>
<pdfrwt beam="1">  1       21 0.16520635E+00 0.13573916E+03</pdfrwt>
<pdfrwt beam="2">  1       21 0.34101275E-02 0.13573916E+03</pdfrwt>
<totfact> 0.12144647E+05</totfact>
</mgrwt>
</event>
<event>
 4    1  0.5810391E+003  0.1072543E+03  0.7546771E-02  0.1265741E+00
         21   -1    0    0  503  501  0.00000000000E+00  0.00000000000E+00  0.15039402720E+03  0.15039402720E+03  0.00000000000E+00 0.  1.
         21   -1    0    0  504  502 -0.00000000000E+00 -0.00000000000E+00 -0.17568733771E+03  0.17568733771E+03  0.00000000000E+00 0.  1.
         21    1    1    2  503  502 -0.72322486075E+02 -0.79201879900E+02  0.10986519012E+03  0.15353774706E+03  0.00000000000E+00 0.  1.
         21    1    1    2  504  501  0.72322486075E+02  0.79201879900E+02 -0.13515850062E+03  0.17254361786E+03  0.00000000000E+00 0.  1.
<mgrwt>
<rscale>  2 0.10725428E+03</rscale>
<asrwt>0</asrwt>
<pdfrwt beam="1">  1       21 0.23137543E-01 0.10725428E+03</pdfrwt>
<pdfrwt beam="2">  1       21 0.27028821E-01 0.10725428E+03</pdfrwt>
<totfact> 0.23373776E+05</totfact>
</mgrwt>
</event>
<event>
 4    1  0.5810391E+003  0.1012344E+03  0.7546771E-02  0.1277721E+00
         21   -1    0    0  503  501  0.00000000000E+00  0.00000000000E+00  0.11142172058E+04  0.11142172058E+04  0.00000000000E+00 0. -1.
         21   -1    0    0  504  502 -0.00000000000E+00 -0.00000000000E+00 -0.17284353588E+03  0.17284353588E+03  0.00000000000E+00 0. -1.
         21    1    1    2  503  502 -0.25808661033E+02  0.97889276638E+02  0.10968604493E+04  0.11015222389E+04  0.00000000000E+00 0. -1.
         21    1    1    2  504  501  0.25808661033E+02 -0.97889276638E+02 -0.15548677939E+03  0.18553850282E+03  0.00000000000E+00 0. -1.
<mgrwt>
<rscale>  2 0.10123437E+03</rscale>
<asrwt>0</asrwt>
<pdfrwt beam="1">  1       21 0.17141803E+00 0.10123437E+03</pdfrwt>
<pdfrwt beam="2">  1       21 0.26591314E-01 0.10123437E+03</pdfrwt>
<totfact> 0.31332596E+03</totfact>
</mgrwt>
</event>
<event>
 4    1  0.5810391E+003  0.1449523E+03  0.7546771E-02  0.1206816E+00
         21   -1    0    0  504  501  0.00000000000E+00  0.00000000000E+00  0.20017776175E+03  0.20017776175E+03  0.00000000000E+00 0.  1.
         21   -1    0    0  503  502 -0.00000000000E+00 -0.00000000000E+00 -0.10510136065E+03  0.10510136065E+03  0.00000000000E+00 0.  1.
         21    1    1    2  503  501  0.11184384629E+03  0.92207013362E+02  0.53084314973E+02  0.15436684800E+03  0.00000000000E+00 0.  1.
         21    1    1    2  504  502 -0.11184384629E+03 -0.92207013362E+02  0.41992086130E+02  0.15091227440E+03  0.00000000000E+00 0.  1.
<mgrwt>
<rscale>  2 0.14495233E+03</rscale>
<asrwt>0</asrwt>
<pdfrwt beam="1">  1       21 0.30796579E-01 0.14495233E+03</pdfrwt>
<pdfrwt beam="2">  1       21 0.16169440E-01 0.14495233E+03</pdfrwt>
<totfact> 0.34951000E+05</totfact>
</mgrwt>
</event>
<event>
 4    1  0.5810391E+003  0.1541321E+03  0.7546771E-02  0.1195485E+00
         21   -1    0    0  503  501  0.00000000000E+00  0.00000000000E+00  0.20346205013E+03  0.20346205013E+03  0.00000000000E+00 0. -1.
         21   -1    0    0  504  502 -0.00000000000E+00 -0.00000000000E+00 -0.30323608198E+03  0.30323608198E+03  0.00000000000E+00 0.  1.
         21    1    1    2  503  502 -0.82830718185E+02  0.12998379210E+03  0.14878544014E+03  0.21422843248E+03  0.00000000000E+00 0. -1.
         21    1    1    2  504  501  0.82830718185E+02 -0.12998379210E+03 -0.24855947199E+03  0.29246969962E+03  0.00000000000E+00 0.  1.
<mgrwt>
<rscale>  2 0.15413213E+03</rscale>
<asrwt>0</asrwt>
<pdfrwt beam="1">  1       21 0.31301854E-01 0.15413213E+03</pdfrwt>
<pdfrwt beam="2">  1       21 0.46651705E-01 0.15413213E+03</pdfrwt>
<totfact> 0.44004757E+04</totfact>
</mgrwt>
</event>
<event>
 4    1  0.5810391E+003  0.1455933E+03  0.7546771E-02  0.1205995E+00
         21   -1    0    0  502  501  0.00000000000E+00  0.00000000000E+00  0.56353853743E+03  0.56353853743E+03  0.00000000000E+00 0.  1.
         21   -1    0    0  503  502 -0.00000000000E+00 -0.00000000000E+00 -0.48664658487E+02  0.48664658487E+02  0.00000000000E+00 0. -1.
         21    1    1    2  503  504  0.69134605223E+02  0.12813203706E+03  0.11157690682E+03  0.18343069181E+03  0.00000000000E+00 0. -1.
         21    1    1    2  504  501 -0.69134605223E+02 -0.12813203706E+03  0.40329697212E+03  0.42877250411E+03  0.00000000000E+00 0.  1.
<mgrwt>
<rscale>  2 0.14559331E+03</rscale>
<asrwt>0</asrwt>
<pdfrwt beam="1">  1       21 0.86698232E-01 0.14559331E+03</pdfrwt>
<pdfrwt beam="2">  1       21 0.74868709E-02 0.14559331E+03</pdfrwt>
<totfact> 0.15670873E+05</totfact>
</mgrwt>
</event>
<event>
 4    1  0.5810391E+003  0.2166212E+03  0.7546771E-02  0.1136427E+00
         21   -1    0    0  503  501  0.00000000000E+00  0.00000000000E+00  0.13174383023E+03  0.13174383023E+03  0.00000000000E+00 0.  1.
         21   -1    0    0  504  502 -0.00000000000E+00 -0.00000000000E+00 -0.36007495785E+03  0.36007495785E+03  0.00000000000E+00 0.  1.
         21    1    1    2  503  502  0.17088508308E+03  0.13312790987E+03 -0.13973556572E+03  0.25778048866E+03  0.00000000000E+00 0.  1.
         21    1    1    2  504  501 -0.17088508308E+03 -0.13312790987E+03 -0.88595561899E+02  0.23403829942E+03  0.00000000000E+00 0.  1.
<mgrwt>
<rscale>  2 0.21662122E+03</rscale>
<asrwt>0</asrwt>
<pdfrwt beam="1">  1       21 0.20268282E-01 0.21662122E+03</pdfrwt>
<pdfrwt beam="2">  1       21 0.55396146E-01 0.21662122E+03</pdfrwt>
<totfact> 0.68440686E+04</totfact>
</mgrwt>
</event>
<event>
 4    1  0.5810391E+003  0.1311717E+03  0.7546771E-02  0.1225727E+00
         21   -1    0    0  504  501  0.00000000000E+00  0.00000000000E+00  0.12878071531E+04  0.12878071531E+04  0.00000000000E+00 0.  1.
         21   -1    0    0  503  502 -0.00000000000E+00 -0.00000000000E+00 -0.11478822627E+03  0.11478822627E+03  0.00000000000E+00 0.  1.
         21    1    1    2  503  501  0.13111588653E+03  0.38264017020E+01 -0.72712445370E+02  0.14997705412E+03  0.00000000000E+00 0.  1.
         21    1    1    2  504  502 -0.13111588653E+03 -0.38264017020E+01  0.12457313722E+04  0.12526183252E+04  0.00000000000E+00 0.  1.
<mgrwt>
<rscale>  2 0.13117171E+03</rscale>
<asrwt>0</asrwt>
<pdfrwt beam="1">  1       21 0.19812417E+00 0.13117171E+03</pdfrwt>
<pdfrwt beam="2">  1       21 0.17659728E-01 0.13117171E+03</pdfrwt>
<totfact> 0.42912393E+03</totfact>
</mgrwt>
</event>
<event>
 4    1  0.5810391E+003  0.1047032E+03  0.7546771E-02  0.1270706E+00
         21   -1    0    0  503  501  0.00000000000E+00  0.00000000000E+00  0.11074373052E+03  0.11074373052E+03  0.00000000000E+00 0.  1.
         21   -1    0    0  504  502 -0.00000000000E+00 -0.00000000000E+00 -0.12120415586E+03  0.12120415586E+03  0.00000000000E+00 0.  1.
         21    1    1    2  503  502  0.57978519984E+02  0.87185100503E+02  0.44417173906E+02  0.11373493688E+03  0.00000000000E+00 0.  1.
         21    1    1    2  504  501 -0.57978519984E+02 -0.87185100503E+02 -0.54877599249E+02  0.11821294950E+03  0.00000000000E+00 0.  1.
<mgrwt>
<rscale>  2 0.10470315E+03</rscale>
<asrwt>0</asrwt>
<pdfrwt beam="1">  1       21 0.17037497E-01 0.10470315E+03</pdfrwt>
<pdfrwt beam="2">  1       21 0.18646793E-01 0.10470315E+03</pdfrwt>
<totfact> 0.81841870E+05</totfact>
</mgrwt>
</event>
<event>
 4    1  0.5810391E+003  0.1356054E+03  0.7546771E-02  0.1219368E+00
         21   -1    0    0  503  501  0.00000000000E+00  0.00000000000E+00  0.32641421355E+03  0.32641421355E+03  0.00000000000E+00 0. -1.
         21   -1    0    0  504  502 -0.00000000000E+00 -0.00000000000E+00 -0.56540719620E+02  0.56540719620E+02  0.00000000000E+00 0.  1.
         21    1    1    2  503  502 -0.99156769841E+02  0.92502791826E+02  0.12341162598E+03  0.18335555876E+03  0.00000000000E+00 0. -1.
         21    1    1    2  504  501  0.99156769841E+02 -0.92502791826E+02  0.14646186795E+03  0.19959937441E+03  0.00000000000E+00 0.  1.
<mgrwt>
<rscale>  2 0.13560543E+03</rscale>
<asrwt>0</asrwt>
<pdfrwt beam="1">  1       21 0.50217570E-01 0.13560543E+03</pdfrwt>
<pdfrwt beam="2">  1       21 0.86985725E-02 0.13560543E+03</pdfrwt>
<totfact> 0.39554141E+05</totfact>
</mgrwt>
</event>
<event>
 4    1  0.5810391E+003  0.1658173E+03  0.7546771E-02  0.1182281E+00
         21   -1    0    0  503  501  0.00000000000E+00  0.00000000000E+00  0.19414012109E+03  0.19414012109E+03  0.00000000000E+00 0. -1.
         21   -1    0    0  504  502 -0.00000000000E+00 -0.00000000000E+00 -0.17686443797E+03  0.17686443797E+03  0.00000000000E+00 0. -1.
         21    1    1    2  503  502 -0.19145194326E+02 -0.16470837067E+03 -0.74162901795E+02  0.18164669509E+03  0.00000000000E+00 0. -1.
         21    1    1    2  504  501  0.19145194326E+02  0.16470837067E+03  0.91438584919E+02  0.18935786397E+03  0.00000000000E+00 0. -1.
<mgrwt>
<rscale>  2 0.16581733E+03</rscale>
<asrwt>0</asrwt>
<pdfrwt beam="1">  1       21 0.29867711E-01 0.16581733E+03</pdfrwt>
<pdfrwt beam="2">  1       21 0.27209913E-01 0.16581733E+03</pdfrwt>
<totfact> 0.13966594E+05</totfact>
</mgrwt>
</event>
<event>
 4    1  0.5810391E+003  0.1133743E+03  0.7546771E-02  0.1254446E+00
         21   -1    0    0  503  501  0.00000000000E+00  0.00000000000E+00  0.51983504793E+02  0.51983504793E+02  0.00000000000E+00 0. -1.
         21   -1    0    0  504  502 -0.00000000000E+00 -0.00000000000E+00 -0.25503530994E+03  0.25503530994E+03  0.00000000000E+00 0. -1.
         21    1    1    2  503  502 -0.21085807023E+02  0.11139619865E+03 -0.74731650743E+02  0.13578860024E+03  0.00000000000E+00 0. -1.
         21    1    1    2  504  501  0.21085807023E+02 -0.11139619865E+03 -0.12832015441E+03  0.17123021450E+03  0.00000000000E+00 0. -1.
<mgrwt>
<rscale>  2 0.11337427E+03</rscale>
<asrwt>0</asrwt>
<pdfrwt beam="1">  1       21 0.79974621E-02 0.11337427E+03</pdfrwt>
<pdfrwt beam="2">  1       21 0.39236202E-01 0.11337427E+03</pdfrwt>
<totfact> 0.75502592E+05</totfact>
</mgrwt>
</event>
<event>
 4    1  0.5810391E+003  0.1066790E+03  0.7546771E-02  0.1266846E+00
         21   -1    0    0  504  501  0.00000000000E+00  0.00000000000E+00  0.14949524349E+03  0.14949524349E+03  0.00000000000E+00 0.  1.
         21   -1    0    0  503  502 -0.00000000000E+00 -0.00000000000E+00 -0.10646445745E+03  0.10646445745E+03  0.00000000000E+00 0.  1.
         21    1    1    2  503  501 -0.40800365403E+02  0.98568485809E+02 -0.46803187398E+02  0.11649444005E+03  0.00000000000E+00 0.  1.
         21    1    1    2  504  502  0.40800365403E+02 -0.98568485809E+02  0.89833973440E+02  0.13946526089E+03  0.00000000000E+00 0.  1.
<mgrwt>
<rscale>  2 0.10667903E+03</rscale>
<asrwt>0</asrwt>
<pdfrwt beam="1">  1       21 0.22999268E-01 0.10667903E+03</pdfrwt>
<pdfrwt beam="2">  1       21 0.16379147E-01 0.10667903E+03</pdfrwt>
<totfact> 0.59686000E+05</totfact>
</mgrwt>
</event>
<event>
 4    1  0.5810391E+003  0.1468669E+03  0.7546771E-02  0.1204377E+00
         21   -1    0    0  502  501  0.00000000000E+00  0.00000000000E+00  0.74474276393E+02  0.74474276393E+02  0.00000000000E+00 0.  1.
         21   -1    0    0  504  502 -0.00000000000E+00 -0.00000000000E+00 -0.39642598178E+03  0.39642598178E+03  0.00000000000E+00 0.  1.
         21    1    1    2  503  501 -0.19194928230E+02  0.14560713590E+03 -0.38768284617E+02  0.15189754174E+03  0.00000000000E+00 0.  1.
         21    1    1    2  504  503  0.19194928230E+02 -0.14560713590E+03 -0.28318342077E+03  0.31900271644E+03  0.00000000000E+00 0.  1.
<mgrwt>
<rscale>  2 0.14686689E+03</rscale>
<asrwt>0</asrwt>
<pdfrwt beam="1">  1       21 0.11457581E-01 0.14686689E+03</pdfrwt>
<pdfrwt beam="2">  1       21 0.60988612E-01 0.14686689E+03</pdfrwt>
<totfact> 0.16181272E+05</totfact>
</mgrwt>
</event>
<event>
 4    1  0.5810391E+003  0.1358539E+03  0.7546771E-02  0.1219019E+00
         21   -1    0    0  503  501  0.00000000000E+00  0.00000000000E+00  0.77558122549E+03  0.77558122549E+03  0.00000000000E+00 0. -1.
         21   -1    0    0  504  502 -0.00000000000E+00 -0.00000000000E+00 -0.24200988930E+02  0.24200988930E+02  0.00000000000E+00 0. -1.
         21    1    1    2  503  502 -0.29350565797E+02  0.13264544645E+03  0.32400403906E+03  0.35133301510E+03  0.00000000000E+00 0. -1.
         21    1    1    2  504  501  0.29350565797E+02 -0.13264544645E+03  0.42737619751E+03  0.44844919932E+03  0.00000000000E+00 0. -1.
<mgrwt>
<rscale>  2 0.13585386E+03</rscale>
<asrwt>0</asrwt>
<pdfrwt beam="1">  1       21 0.11932017E+00 0.13585386E+03</pdfrwt>
<pdfrwt beam="2">  1       21 0.37232297E-02 0.13585386E+03</pdfrwt>
<totfact> 0.24096565E+05</totfact>
</mgrwt>
</event>
<event>
 4    1  0.5810391E+003  0.1106728E+03  0.7546771E-02  0.1259329E+00
         21   -1    0    0  502  501  0.00000000000E+00  0.00000000000E+00  0.20525907199E+04  0.20525907199E+04  0.00000000000E+00 0.  1.
         21   -1    0    0  503  502 -0.00000000000E+00 -0.00000000000E+00 -0.59489173333E+02  0.59489173333E+02  0.00000000000E+00 0. -1.
         21    1    1    2  503  504 -0.10885591204E+02 -0.11013619236E+03 -0.51244440718E+01  0.11079141162E+03  0.00000000000E+00 0. -1.
         21    1    1    2  504  501  0.10885591204E+02  0.11013619236E+03  0.19982259906E+04  0.20012884816E+04  0.00000000000E+00 0.  1.
<mgrwt>
<rscale>  2 0.11067284E+03</rscale>
<asrwt>0</asrwt>
<pdfrwt beam="1">  1       21 0.31578313E+00 0.11067284E+03</pdfrwt>
<pdfrwt beam="2">  1       21 0.91521821E-02 0.11067284E+03</pdfrwt>
<totfact> 0.29944930E+03</totfact>
</mgrwt>
</event>
<event>
 4    1  0.5810391E+003  0.1387559E+03  0.7546771E-02  0.1215013E+00
         21   -1    0    0  503  501  0.00000000000E+00  0.00000000000E+00  0.23109436633E+03  0.23109436633E+03  0.00000000000E+00 0.  1.
         21   -1    0    0  504  502 -0.00000000000E+00 -0.00000000000E+00 -0.26259830778E+03  0.26259830778E+03  0.00000000000E+00 0.  1.
         21    1    1    2  503  502  0.41478929958E+02 -0.13241106097E+03 -0.21971569864E+03  0.25986184585E+03  0.00000000000E+00 0.  1.
         21    1    1    2  504  501 -0.41478929958E+02  0.13241106097E+03  0.18821175719E+03  0.23383082826E+03  0.00000000000E+00 0.  1.
<mgrwt>
<rscale>  2 0.13875587E+03</rscale>
<asrwt>0</asrwt>
<pdfrwt beam="1">  1       21 0.35552979E-01 0.13875587E+03</pdfrwt>
<pdfrwt beam="2">  1       21 0.40399740E-01 0.13875587E+03</pdfrwt>
<totfact> 0.46272874E+04</totfact>
</mgrwt>
</event>
<event>
 4    1  0.5810391E+003  0.1065204E+03  0.7546771E-02  0.1267153E+00
         21   -1    0    0  504  501  0.00000000000E+00  0.00000000000E+00  0.11166703270E+03  0.11166703270E+03  0.00000000000E+00 0.  1.
         21   -1    0    0  501  502 -0.00000000000E+00 -0.00000000000E+00 -0.10161149076E+03  0.10161149076E+03  0.00000000000E+00 0.  1.
         21    1    1    2  503  502  0.89713319918E+02  0.57429250663E+02  0.47928654181E+01  0.10662818652E+03  0.00000000000E+00 0.  1.
         21    1    1    2  504  503 -0.89713319918E+02 -0.57429250663E+02  0.52626765220E+01  0.10665033693E+03  0.00000000000E+00 0.  1.
<mgrwt>
<rscale>  2 0.10652041E+03</rscale>
<asrwt>0</asrwt>
<pdfrwt beam="1">  1       21 0.17179543E-01 0.10652041E+03</pdfrwt>
<pdfrwt beam="2">  1       21 0.15632537E-01 0.10652041E+03</pdfrwt>
<totfact> 0.11100321E+06</totfact>
</mgrwt>
</event>
<event>
 4    1  0.5810391E+003  0.1336161E+03  0.7546771E-02  0.1222187E+00
         21   -1    0    0  503  501  0.00000000000E+00  0.00000000000E+00  0.21434375958E+02  0.21434375958E+02  0.00000000000E+00 0.  1.
         21   -1    0    0  504  502 -0.00000000000E+00 -0.00000000000E+00 -0.83947801017E+03  0.83947801017E+03  0.00000000000E+00 0. -1.
         21    1    1    2  503  502  0.23055996661E+01 -0.13359618008E+03 -0.44704970094E+03  0.46659049523E+03  0.00000000000E+00 0. -1.
         21    1    1    2  504  501 -0.23055996661E+01  0.13359618008E+03 -0.37099393327E+03  0.39432189090E+03  0.00000000000E+00 0.  1.
<mgrwt>
<rscale>  2 0.13361607E+03</rscale>
<asrwt>0</asrwt>
<pdfrwt beam="1">  1       21 0.32975973E-02 0.13361607E+03</pdfrwt>
<pdfrwt beam="2">  1       21 0.12915042E+00 0.13361607E+03</pdfrwt>
<totfact> 0.24242545E+05</totfact>
</mgrwt>
</event>
<event>
 4    1  0.5810391E+003  0.1065423E+03  0.7546771E-02  0.1267110E+00
         21   -1    0    0  502  501  0.00000000000E+00  0.00000000000E+00  0.45406714151E+02  0.45406714151E+02  0.00000000000E+00 0. -1.
         21   -1    0    0  504  502 -0.00000000000E+00 -0.00000000000E+00 -0.85647894596E+03  0.85647894596E+03  0.00000000000E+00 0. -1.
         21    1    1    2  503  501  0.18861105596E+02  0.10485955808E+03 -0.26068918186E+02  0.10968526209E+03  0.00000000000E+00 0. -1.
         21    1    1    2  504  503 -0.18861105596E+02 -0.10485955808E+03 -0.78500331362E+03  0.79220039802E+03  0.00000000000E+00 0. -1.
<mgrwt>
<rscale>  2 0.10654233E+03</rscale>
<asrwt>0</asrwt>
<pdfrwt beam="1">  1       21 0.69856483E-02 0.10654233E+03</pdfrwt>
<pdfrwt beam="2">  1       21 0.13176599E+00 0.10654233E+03</pdfrwt>
<totfact> 0.66546202E+04</totfact>
</mgrwt>
</event>
<event>
 4    1  0.5810391E+003  0.1179156E+03  0.7546771E-02  0.1246576E+00
         21   -1    0    0  503  501  0.00000000000E+00  0.00000000000E+00  0.18295816472E+02  0.18295816472E+02  0.00000000000E+00 0. -1.
         21   -1    0    0  504  502 -0.00000000000E+00 -0.00000000000E+00 -0.10658462928E+04  0.10658462928E+04  0.00000000000E+00 0. -1.
         21    1    1    2  503  502 -0.24884119396E+02  0.11525998650E+03 -0.23338024624E+03  0.26147738568E+03  0.00000000000E+00 0. -1.
         21    1    1    2  504  501  0.24884119396E+02 -0.11525998650E+03 -0.81417023007E+03  0.82266472358E+03  0.00000000000E+00 0. -1.
<mgrwt>
<rscale>  2 0.11791558E+03</rscale>
<asrwt>0</asrwt>
<pdfrwt beam="1">  1       21 0.28147408E-02 0.11791558E+03</pdfrwt>
<pdfrwt beam="2">  1       21 0.16397637E+00 0.11791558E+03</pdfrwt>
<totfact> 0.17137396E+05</totfact>
</mgrwt>
</event>
<event>
 4    1  0.5810391E+003  0.1031209E+03  0.7546771E-02  0.1273867E+00
         21   -1    0    0  504  501  0.00000000000E+00  0.00000000000E+00  0.44876870621E+02  0.44876870621E+02  0.00000000000E+00 0.  1.
         21   -1    0    0  503  502 -0.00000000000E+00 -0.00000000000E+00 -0.10197070591E+04  0.10197070591E+04  0.00000000000E+00 0.  1.
         21    1    1    2  503  501 -0.82794184529E+02  0.61473931378E+02 -0.95377751778E+03  0.95933595505E+03  0.00000000000E+00 0.  1.
         21    1    1    2  504  502  0.82794184529E+02 -0.61473931378E+02 -0.21052670712E+02  0.10524797468E+03  0.00000000000E+00 0.  1.
<mgrwt>
<rscale>  2 0.10312091E+03</rscale>
<asrwt>0</asrwt>
<pdfrwt beam="1">  1       21 0.69041341E-02 0.10312091E+03</pdfrwt>
<pdfrwt beam="2">  1       21 0.15687801E+00 0.10312091E+03</pdfrwt>
<totfact> 0.43725175E+04</totfact>
</mgrwt>
</event>
<event>
 4    1  0.5810391E+003  0.1591664E+03  0.7546771E-02  0.1189641E+00
         21   -1    0    0  503  501  0.00000000000E+00  0.00000000000E+00  0.32092679793E+03  0.32092679793E+03  0.00000000000E+00 0. -1.
         21   -1    0    0  504  502 -0.00000000000E+00 -0.00000000000E+00 -0.18056963140E+03  0.18056963140E+03  0.00000000000E+00 0. -1.
         21    1    1    2  503  502  0.94180910329E+02 -0.12831168935E+03  0.25829463498E+03  0.30339751475E+03  0.00000000000E+00 0. -1.
         21    1    1    2  504  501 -0.94180910329E+02  0.12831168935E+03 -0.11793746846E+03  0.19809891459E+03  0.00000000000E+00 0. -1.
<mgrwt>
<rscale>  2 0.15916637E+03</rscale>
<asrwt>0</asrwt>
<pdfrwt beam="1">  1       21 0.49373354E-01 0.15916637E+03</pdfrwt>
<pdfrwt beam="2">  1       21 0.27779943E-01 0.15916637E+03</pdfrwt>
<totfact> 0.49204981E+04</totfact>
</mgrwt>
</event>
<event>
 4    1  0.5810391E+003  0.1061707E+03  0.7546771E-02  0.1267830E+00
         21   -1    0    0  503  501  0.00000000000E+00  0.00000000000E+00  0.10153486494E+03  0.10153486494E+03  0.00000000000E+00 0.  1.
         21   -1    0    0  501  502 -0.00000000000E+00 -0.00000000000E+00 -0.29713654845E+03  0.29713654845E+03  0.00000000000E+00 0.  1.
         21    1    1    2  503  504 -0.10368283474E+03 -0.22849424294E+02  0.59960852178E+02  0.12193248215E+03  0.00000000000E+00 0.  1.
         21    1    1    2  504  502  0.10368283474E+03  0.22849424294E+02 -0.25556253569E+03  0.27673893123E+03  0.00000000000E+00 0.  1.
<mgrwt>
<rscale>  2 0.10617074E+03</rscale>
<asrwt>0</asrwt>
<pdfrwt beam="1">  1       21 0.15620749E-01 0.10617074E+03</pdfrwt>
<pdfrwt beam="2">  1       21 0.45713314E-01 0.10617074E+03</pdfrwt>
<totfact> 0.17163290E+05</totfact>
</mgrwt>
</event>
<event>
 4    1  0.5810391E+003  0.1418335E+03  0.7546771E-02  0.1210883E+00
         21   -1    0    0  504  501  0.00000000000E+00  0.00000000000E+00  0.23112746271E+04  0.23112746271E+04  0.00000000000E+00 0. -1.
         21   -1    0    0  503  502 -0.00000000000E+00 -0.00000000000E+00 -0.87772621442E+01  0.87772621442E+01  0.00000000000E+00 0. -1.
         21    1    1    2  503  501  0.35320504923E+02  0.13736526766E+03  0.10450864858E+04  0.10546670174E+04  0.00000000000E+00 0. -1.
         21    1    1    2  504  502 -0.35320504923E+02 -0.13736526766E+03  0.12574108791E+04  0.12653848718E+04  0.00000000000E+00 0. -1.
<mgrwt>
<rscale>  2 0.14183355E+03</rscale>
<asrwt>0</asrwt>
<pdfrwt beam="1">  1       21 0.35558023E+00 0.14183355E+03</pdfrwt>
<pdfrwt beam="2">  1       21 0.13503499E-02 0.14183355E+03</pdfrwt>
<totfact> 0.39979488E+04</totfact>
</mgrwt>
</event>
<event>
 4    1  0.5810391E+003  0.1276894E+03  0.7546771E-02  0.1230925E+00
         21   -1    0    0  503  501  0.00000000000E+00  0.00000000000E+00  0.12457916354E+04  0.12457916354E+04  0.00000000000E+00 0.  1.
         21   -1    0    0  501  502 -0.00000000000E+00 -0.00000000000E+00 -0.61758081864E+02  0.61758081864E+02  0.00000000000E+00 0.  1.
         21    1    1    2  503  504 -0.40049279305E+02 -0.12124618790E+03  0.11723982828E+04  0.11793313005E+04  0.00000000000E+00 0.  1.
         21    1    1    2  504  502  0.40049279305E+02  0.12124618790E+03  0.11635270667E+02  0.12821841668E+03  0.00000000000E+00 0.  1.
<mgrwt>
<rscale>  2 0.12768940E+03</rscale>
<asrwt>0</asrwt>
<pdfrwt beam="1">  1       21 0.19166023E+00 0.12768940E+03</pdfrwt>
<pdfrwt beam="2">  1       21 0.95012443E-02 0.12768940E+03</pdfrwt>
<totfact> 0.14311128E+04</totfact>
</mgrwt>
</event>
<event>
 4    1  0.5810391E+003  0.1008552E+03  0.7546771E-02  0.1278508E+00
         21   -1    0    0  504  501  0.00000000000E+00  0.00000000000E+00  0.66531364137E+02  0.66531364137E+02  0.00000000000E+00 0.  1.
         21   -1    0    0  503  502 -0.00000000000E+00 -0.00000000000E+00 -0.45723801019E+03  0.45723801019E+03  0.00000000000E+00 0.  1.
         21    1    1    2  503  501  0.20942249598E+02  0.98656925490E+02 -0.40901491752E+03  0.42126591307E+03  0.00000000000E+00 0.  1.
         21    1    1    2  504  502 -0.20942249598E+02 -0.98656925490E+02  0.18308271462E+02  0.10250346126E+03  0.00000000000E+00 0.  1.
<mgrwt>
<rscale>  2 0.10085518E+03</rscale>
<asrwt>0</asrwt>
<pdfrwt beam="1">  1       21 0.10235594E-01 0.10085518E+03</pdfrwt>
<pdfrwt beam="2">  1       21 0.70344310E-01 0.10085518E+03</pdfrwt>
<totfact> 0.14740716E+05</totfact>
</mgrwt>
</event>
<event>
 4    1  0.5810391E+003  0.1218527E+03  0.7546771E-02  0.1240072E+00
         21   -1    0    0  503  501  0.00000000000E+00  0.00000000000E+00  0.17381801530E+04  0.17381801530E+04  0.00000000000E+00 0.  1.
         21   -1    0    0  504  502 -0.00000000000E+00 -0.00000000000E+00 -0.95696286324E+01  0.95696286324E+01  0.00000000000E+00 0.  1.
         21    1    1    2  503  502 -0.99793278597E+02 -0.69924175350E+02  0.57798474418E+03  0.59068981137E+03  0.00000000000E+00 0.  1.
         21    1    1    2  504  501  0.99793278597E+02  0.69924175350E+02  0.11506257802E+04  0.11570599703E+04  0.00000000000E+00 0.  1.
<mgrwt>
<rscale>  2 0.12185273E+03</rscale>
<asrwt>0</asrwt>
<pdfrwt beam="1">  1       21 0.26741208E+00 0.12185273E+03</pdfrwt>
<pdfrwt beam="2">  1       21 0.14722519E-02 0.12185273E+03</pdfrwt>
<totfact> 0.11277466E+05</totfact>
</mgrwt>
</event>
<event>
 4    1  0.5810391E+003  0.1029457E+03  0.7546771E-02  0.1274221E+00
         21   -1    0    0  503  501  0.00000000000E+00  0.00000000000E+00  0.30365565797E+03  0.30365565797E+03  0.00000000000E+00 0. -1.
         21   -1    0    0  501  502 -0.00000000000E+00 -0.00000000000E+00 -0.38951055745E+02  0.38951055745E+02  0.00000000000E+00 0. -1.
         21    1    1    2  503  504  0.85522512916E+02 -0.57303811815E+02  0.18759147616E+03  0.21398221653E+03  0.00000000000E+00 0. -1.
         21    1    1    2  504  502 -0.85522512916E+02  0.57303811815E+02  0.77113126066E+02  0.12862449718E+03  0.00000000000E+00 0. -1.
<mgrwt>
<rscale>  2 0.10294575E+03</rscale>
<asrwt>0</asrwt>
<pdfrwt beam="1">  1       21 0.46716254E-01 0.10294575E+03</pdfrwt>
<pdfrwt beam="2">  1       21 0.59924703E-02 0.10294575E+03</pdfrwt>
<totfact> 0.86865436E+05</totfact>
</mgrwt>
</event>
<event>
 4    1  0.5810391E+003  0.1035585E+03  0.7546771E-02  0.1272986E+00
         21   -1    0    0  502  501  0.00000000000E+00  0.00000000000E+00  0.10896539213E+03  0.10896539213E+03  0.00000000000E+00 0. -1.
         21   -1    0    0  504  502 -0.00000000000E+00 -0.00000000000E+00 -0.11721295921E+03  0.11721295921E+03  0.00000000000E+00 0. -1.
         21    1    1    2  503  501 -0.31350752858E+02  0.98698984723E+02  0.41158920978E+02  0.11143794716E+03  0.00000000000E+00 0. -1.
         21    1    1    2  504  503  0.31350752858E+02 -0.98698984723E+02 -0.49406488056E+02  0.11474040418E+03  0.00000000000E+00 0. -1.
<mgrwt>
<rscale>  2 0.10355848E+03</rscale>
<asrwt>0</asrwt>
<pdfrwt beam="1">  1       21 0.16763906E-01 0.10355848E+03</pdfrwt>
<pdfrwt beam="2">  1       21 0.18032763E-01 0.10355848E+03</pdfrwt>
<totfact> 0.89567787E+05</totfact>
</mgrwt>
</event>
<event>
 4    1  0.5810391E+003  0.1052928E+03  0.7546771E-02  0.1269544E+00
         21   -1    0    0  504  501  0.00000000000E+00  0.00000000000E+00  0.74566027657E+02  0.74566027657E+02  0.00000000000E+00 0.  1.
         21   -1    0    0  503  502 -0.00000000000E+00 -0.00000000000E+00 -0.42213618304E+03  0.42213618304E+03  0.00000000000E+00 0. -1.
         21    1    1    2  503  501 -0.88758035238E+02  0.56644381405E+02  0.26101043413E+02  0.10847967197E+03  0.00000000000E+00 0.  1.
         21    1    1    2  504  502  0.88758035238E+02 -0.56644381405E+02 -0.37367119880E+03  0.38822253873E+03  0.00000000000E+00 0. -1.
<mgrwt>
<rscale>  2 0.10529280E+03</rscale>
<asrwt>0</asrwt>
<pdfrwt beam="1">  1       21 0.11471697E-01 0.10529280E+03</pdfrwt>
<pdfrwt beam="2">  1       21 0.64944028E-01 0.10529280E+03</pdfrwt>
<totfact> 0.14317186E+05</totfact>
</mgrwt>
</event>
<event>
 4    1  0.5810391E+003  0.1003722E+03  0.7546771E-02  0.1279515E+00
         21   -1    0    0  503  501  0.00000000000E+00  0.00000000000E+00  0.69500018706E+03  0.69500018706E+03  0.00000000000E+00 0. -1.
         21   -1    0    0  504  502 -0.00000000000E+00 -0.00000000000E+00 -0.41448283030E+02  0.41448283030E+02  0.00000000000E+00 0. -1.
         21    1    1    2  503  502 -0.54640579467E+02 -0.84196064271E+02  0.29842830466E+02  0.10471468232E+03  0.00000000000E+00 0. -1.
         21    1    1    2  504  501  0.54640579467E+02  0.84196064271E+02  0.62370907356E+03  0.63173378776E+03  0.00000000000E+00 0. -1.
<mgrwt>
<rscale>  2 0.10037216E+03</rscale>
<asrwt>0</asrwt>
<pdfrwt beam="1">  1       21 0.10692310E+00 0.10037216E+03</pdfrwt>
<pdfrwt beam="2">  1       21 0.63766594E-02 0.10037216E+03</pdfrwt>
<totfact> 0.12908291E+05</totfact>
</mgrwt>
</event>
<event>
 4    1  0.5810391E+003  0.1097476E+03  0.7546771E-02  0.1261038E+00
         21   -1    0    0  503  501  0.00000000000E+00  0.00000000000E+00  0.40777968474E+03  0.40777968474E+03  0.00000000000E+00 0. -1.
         21   -1    0    0  501  502 -0.00000000000E+00 -0.00000000000E+00 -0.65175314526E+02  0.65175314526E+02  0.00000000000E+00 0. -1.
         21    1    1    2  503  504 -0.75743390833E+01  0.10948587602E+03  0.34616913900E+03  0.36314955660E+03  0.00000000000E+00 0. -1.
         21    1    1    2  504  502  0.75743390833E+01 -0.10948587602E+03 -0.35647687934E+01  0.10980544266E+03  0.00000000000E+00 0. -1.
<mgrwt>
<rscale>  2 0.10974756E+03</rscale>
<asrwt>0</asrwt>
<pdfrwt beam="1">  1       21 0.62735334E-01 0.10974756E+03</pdfrwt>
<pdfrwt beam="2">  1       21 0.10026972E-01 0.10974756E+03</pdfrwt>
<totfact> 0.19477554E+05</totfact>
</mgrwt>
</event>
<event>
 4    1  0.5810391E+003  0.1400149E+03  0.7546771E-02  0.1213309E+00
         21   -1    0    0  502  501  0.00000000000E+00  0.00000000000E+00  0.92353327869E+03  0.92353327869E+03  0.00000000000E+00 0.  1.
         21   -1    0    0  503  502 -0.00000000000E+00 -0.00000000000E+00 -0.46470812454E+02  0.46470812454E+02  0.00000000000E+00 0.  1.
         21    1    1    2  503  504  0.84740847455E+02 -0.11145926023E+03  0.81070969684E+02  0.16179208894E+03  0.00000000000E+00 0.  1.
         21    1    1    2  504  501 -0.84740847455E+02  0.11145926023E+03  0.79599149656E+03  0.80821200221E+03  0.00000000000E+00 0.  1.
<mgrwt>
<rscale>  2 0.14001492E+03</rscale>
<asrwt>0</asrwt>
<pdfrwt beam="1">  1       21 0.14208203E+00 0.14001492E+03</pdfrwt>
<pdfrwt beam="2">  1       21 0.71493564E-02 0.14001492E+03</pdfrwt>
<totfact> 0.51770996E+04</totfact>
</mgrwt>
</event>
<event>
 4    1  0.5810391E+003  0.1152559E+03  0.7546771E-02  0.1251135E+00
         21   -1    0    0  503  501  0.00000000000E+00  0.00000000000E+00  0.13588336164E+04  0.13588336164E+04  0.00000000000E+00 0. -1.
         21   -1    0    0  501  502 -0.00000000000E+00 -0.00000000000E+00 -0.12577755356E+04  0.12577755356E+04  0.00000000000E+00 0.  1.
         21    1    1    2  503  504 -0.32518047497E+02 -0.11057351883E+03  0.13537393430E+04  0.13586368665E+04  0.00000000000E+00 0. -1.
         21    1    1    2  504  502  0.32518047497E+02  0.11057351883E+03 -0.12526812622E+04  0.12579722855E+04  0.00000000000E+00 0.  1.
<mgrwt>
<rscale>  2 0.11525592E+03</rscale>
<asrwt>0</asrwt>
<pdfrwt beam="1">  1       21 0.20905133E+00 0.11525592E+03</pdfrwt>
<pdfrwt beam="2">  1       21 0.19350393E+00 0.11525592E+03</pdfrwt>
<totfact> 0.20778464E+01</totfact>
</mgrwt>
</event>
<event>
 4    1  0.5810391E+003  0.1096805E+03  0.7546771E-02  0.1261163E+00
         21   -1    0    0  504  501  0.00000000000E+00  0.00000000000E+00  0.27631858545E+02  0.27631858545E+02  0.00000000000E+00 0.  1.
         21   -1    0    0  503  502 -0.00000000000E+00 -0.00000000000E+00 -0.65863159811E+03  0.65863159811E+03  0.00000000000E+00 0.  1.
         21    1    1    2  503  501  0.48282741491E+02  0.98481362278E+02 -0.11571781242E+03  0.15943780591E+03  0.00000000000E+00 0.  1.
         21    1    1    2  504  502 -0.48282741491E+02 -0.98481362278E+02 -0.51528192714E+03  0.52682565074E+03  0.00000000000E+00 0.  1.
<mgrwt>
<rscale>  2 0.10968045E+03</rscale>
<asrwt>0</asrwt>
<pdfrwt beam="1">  1       21 0.42510553E-02 0.10968045E+03</pdfrwt>
<pdfrwt beam="2">  1       21 0.10132793E+00 0.10968045E+03</pdfrwt>
<totfact> 0.28779611E+05</totfact>
</mgrwt>
</event>
<event>
 4    1  0.5810391E+003  0.1032558E+03  0.7546771E-02  0.1273595E+00
         21   -1    0    0  504  501  0.00000000000E+00  0.00000000000E+00  0.63188888150E+03  0.63188888150E+03  0.00000000000E+00 0. -1.
         21   -1    0    0  501  502 -0.00000000000E+00 -0.00000000000E+00 -0.20389741660E+02  0.20389741660E+02  0.00000000000E+00 0. -1.
         21    1    1    2  503  502  0.44263286271E+02  0.93287255762E+02  0.17029978524E+03  0.19915764472E+03  0.00000000000E+00 0. -1.
         21    1    1    2  504  503 -0.44263286271E+02 -0.93287255762E+02  0.44119935460E+03  0.45312097844E+03  0.00000000000E+00 0. -1.
<mgrwt>
<rscale>  2 0.10325575E+03</rscale>
<asrwt>0</asrwt>
<pdfrwt beam="1">  1       21 0.97213659E-01 0.10325575E+03</pdfrwt>
<pdfrwt beam="2">  1       21 0.31368838E-02 0.10325575E+03</pdfrwt>
<totfact> 0.52331384E+05</totfact>
</mgrwt>
</event>
<event>
 4    1  0.5810391E+003  0.1201756E+03  0.7546771E-02  0.1242808E+00
         21   -1    0    0  504  501  0.00000000000E+00  0.00000000000E+00  0.38142202896E+02  0.38142202896E+02  0.00000000000E+00 0. -1.
         21   -1    0    0  501  502 -0.00000000000E+00 -0.00000000000E+00 -0.56340061716E+03  0.56340061716E+03  0.00000000000E+00 0. -1.
         21    1    1    2  503  502 -0.11797041746E+03 -0.22916123829E+02 -0.43486858911E+03  0.45116832548E+03  0.00000000000E+00 0. -1.
         21    1    1    2  504  503  0.11797041746E+03  0.22916123829E+02 -0.90389825158E+02  0.15037449458E+03  0.00000000000E+00 0. -1.
<mgrwt>
<rscale>  2 0.12017557E+03</rscale>
<asrwt>0</asrwt>
<pdfrwt beam="1">  1       21 0.58680317E-02 0.12017557E+03</pdfrwt>
<pdfrwt beam="2">  1       21 0.86677011E-01 0.12017557E+03</pdfrwt>
<totfact> 0.23946776E+05</totfact>
</mgrwt>
</event>
<event>
 4    1  0.5810391E+003  0.1221025E+03  0.7546771E-02  0.1239668E+00
         21   -1    0    0  504  501  0.00000000000E+00  0.00000000000E+00  0.36285506810E+02  0.36285506810E+02  0.00000000000E+00 0. -1.
         21   -1    0    0  503  502 -0.00000000000E+00 -0.00000000000E+00 -0.41143753537E+03  0.41143753537E+03  0.00000000000E+00 0. -1.
         21    1    1    2  503  501 -0.82482346817E+01  0.12182357705E+03 -0.17934108009E+03  0.21696137976E+03  0.00000000000E+00 0. -1.
         21    1    1    2  504  502  0.82482346817E+01 -0.12182357705E+03 -0.19581094847E+03  0.23076166241E+03  0.00000000000E+00 0. -1.
<mgrwt>
<rscale>  2 0.12210249E+03</rscale>
<asrwt>0</asrwt>
<pdfrwt beam="1">  1       21 0.55823855E-02 0.12210249E+03</pdfrwt>
<pdfrwt beam="2">  1       21 0.63298084E-01 0.12210249E+03</pdfrwt>
<totfact> 0.51993882E+05</totfact>
</mgrwt>
</event>
<event>
 4    1  0.5810391E+003  0.1618165E+03  0.7546771E-02  0.1186661E+00
         21   -1    0    0  503  501  0.00000000000E+00  0.00000000000E+00  0.21532344463E+02  0.21532344463E+02  0.00000000000E+00 0.  1.
         21   -1    0    0  504  502 -0.00000000000E+00 -0.00000000000E+00 -0.20190874863E+04  0.20190874863E+04  0.00000000000E+00 0.  1.
         21    1    1    2  503  502 -0.12687389962E+03 -0.10043708914E+03 -0.16422354003E+04  0.16501883848E+04  0.00000000000E+00 0.  1.
         21    1    1    2  504  501  0.12687389962E+03  0.10043708914E+03 -0.35531974151E+03  0.39043144595E+03  0.00000000000E+00 0.  1.
<mgrwt>
<rscale>  2 0.16181655E+03</rscale>
<asrwt>0</asrwt>
<pdfrwt beam="1">  1       21 0.33126673E-02 0.16181655E+03</pdfrwt>
<pdfrwt beam="2">  1       21 0.31062895E+00 0.16181655E+03</pdfrwt>
<totfact> 0.16474353E+04</totfact>
</mgrwt>
</event>
<event>
 4    1  0.5810391E+003  0.1129614E+03  0.7546771E-02  0.1255182E+00
         21   -1    0    0  504  501  0.00000000000E+00  0.00000000000E+00  0.47340196802E+03  0.47340196802E+03  0.00000000000E+00 0. -1.
         21   -1    0    0  501  502 -0.00000000000E+00 -0.00000000000E+00 -0.31025222503E+02  0.31025222503E+02  0.00000000000E+00 0.  1.
         21    1    1    2  503  502  0.99244930090E+01 -0.11252454318E+03  0.12982926351E+03  0.17209272513E+03  0.00000000000E+00 0.  1.
         21    1    1    2  504  503 -0.99244930090E+01  0.11252454318E+03  0.31254748201E+03  0.33233446540E+03  0.00000000000E+00 0. -1.
<mgrwt>
<rscale>  2 0.11296136E+03</rscale>
<asrwt>0</asrwt>
<pdfrwt beam="1">  1       21 0.72831067E-01 0.11296136E+03</pdfrwt>
<pdfrwt beam="2">  1       21 0.47731115E-02 0.11296136E+03</pdfrwt>
<totfact> 0.49971612E+05</totfact>
</mgrwt>
</event>
<event>
 4    1  0.5810391E+003  0.1454319E+03  0.7546771E-02  0.1206201E+00
         21   -1    0    0  502  501  0.00000000000E+00  0.00000000000E+00  0.12771908189E+04  0.12771908189E+04  0.00000000000E+00 0. -1.
         21   -1    0    0  503  502 -0.00000000000E+00 -0.00000000000E+00 -0.36771243014E+03  0.36771243014E+03  0.00000000000E+00 0. -1.
         21    1    1    2  503  504  0.12837893504E+03  0.68332108984E+02 -0.34897932350E+03  0.37807009444E+03  0.00000000000E+00 0. -1.
         21    1    1    2  504  501 -0.12837893504E+03 -0.68332108984E+02  0.12584577123E+04  0.12668331546E+04  0.00000000000E+00 0. -1.
<mgrwt>
<rscale>  2 0.14543187E+03</rscale>
<asrwt>0</asrwt>
<pdfrwt beam="1">  1       21 0.19649089E+00 0.14543187E+03</pdfrwt>
<pdfrwt beam="2">  1       21 0.56571144E-01 0.14543187E+03</pdfrwt>
<totfact> 0.44375988E+02</totfact>
</mgrwt>
</event>
<event>
 4    1  0.5810391E+003  0.2042898E+03  0.7546771E-02  0.1146169E+00
         21   -1    0    0  503  501  0.00000000000E+00  0.00000000000E+00  0.80017906755E+02  0.80017906755E+02  0.00000000000E+00 0.  1.
         21   -1    0    0  504  502 -0.00000000000E+00 -0.00000000000E+00 -0.24166482555E+04  0.24166482555E+04  0.00000000000E+00 0.  1.
         21    1    1    2  503  502  0.12384489686E+03  0.16247084178E+03 -0.62867472877E+02  0.21374436145E+03  0.00000000000E+00 0.  1.
         21    1    1    2  504  501 -0.12384489686E+03 -0.16247084178E+03 -0.22737628758E+04  0.22829218008E+04  0.00000000000E+00 0.  1.
<mgrwt>
<rscale>  2 0.20428983E+03</rscale>
<asrwt>0</asrwt>
<pdfrwt beam="1">  1       21 0.12310449E-01 0.20428983E+03</pdfrwt>
<pdfrwt beam="2">  1       21 0.37179199E+00 0.20428983E+03</pdfrwt>
<totfact> 0.71429397E+02</totfact>
</mgrwt>
</event>
<event>
 4    1  0.5810391E+003  0.1295368E+03  0.7546771E-02  0.1228145E+00
         21   -1    0    0  504  501  0.00000000000E+00  0.00000000000E+00  0.23822725544E+03  0.23822725544E+03  0.00000000000E+00 0. -1.
         21   -1    0    0  503  502 -0.00000000000E+00 -0.00000000000E+00 -0.86278327785E+02  0.86278327785E+02  0.00000000000E+00 0. -1.
         21    1    1    2  503  501 -0.37052574891E+02 -0.12412446156E+03  0.14550103281E+03  0.19480843363E+03  0.00000000000E+00 0. -1.
         21    1    1    2  504  502  0.37052574891E+02  0.12412446156E+03  0.64478948406E+01  0.12969714959E+03  0.00000000000E+00 0. -1.
<mgrwt>
<rscale>  2 0.12953677E+03</rscale>
<asrwt>0</asrwt>
<pdfrwt beam="1">  1       21 0.36650347E-01 0.12953677E+03</pdfrwt>
<pdfrwt beam="2">  1       21 0.13273589E-01 0.12953677E+03</pdfrwt>
<totfact> 0.35560554E+05</totfact>
</mgrwt>
</event>
<event>
 4    1  0.5810391E+003  0.1131189E+03  0.7546771E-02  0.1254901E+00
         21   -1    0    0  504  501  0.00000000000E+00  0.00000000000E+00  0.57328418917E+02  0.57328418917E+02  0.00000000000E+00 0.  1.
         21   -1    0    0  501  502 -0.00000000000E+00 -0.00000000000E+00 -0.30349535924E+03  0.30349535924E+03  0.00000000000E+00 0.  1.
         21    1    1    2  503  502  0.45995946596E+02  0.10334530795E+03 -0.21587877758E+03  0.24372018051E+03  0.00000000000E+00 0.  1.
         21    1    1    2  504  503 -0.45995946596E+02 -0.10334530795E+03 -0.30288162745E+02  0.11710359765E+03  0.00000000000E+00 0.  1.
<mgrwt>
<rscale>  2 0.11311887E+03</rscale>
<asrwt>0</asrwt>
<pdfrwt beam="1">  1       21 0.88197570E-02 0.11311887E+03</pdfrwt>
<pdfrwt beam="2">  1       21 0.46691593E-01 0.11311887E+03</pdfrwt>
<totfact> 0.44957116E+05</totfact>
</mgrwt>
</event>
<event>
 4    1  0.5810391E+003  0.1172675E+03  0.7546771E-02  0.1247674E+00
         21   -1    0    0  503  501  0.00000000000E+00  0.00000000000E+00  0.88034903799E+01  0.88034903799E+01  0.00000000000E+00 0. -1.
         21   -1    0    0  504  502 -0.00000000000E+00 -0.00000000000E+00 -0.33246504410E+04  0.33246504410E+04  0.00000000000E+00 0. -1.
         21    1    1    2  503  502 -0.11467999043E+03 -0.24498108815E+02 -0.44434996065E+03  0.45956342878E+03  0.00000000000E+00 0. -1.
         21    1    1    2  504  501  0.11467999043E+03  0.24498108815E+02 -0.28714969900E+04  0.28738905026E+04  0.00000000000E+00 0. -1.
<mgrwt>
<rscale>  2 0.11726746E+03</rscale>
<asrwt>0</asrwt>
<pdfrwt beam="1">  1       21 0.13543820E-02 0.11726746E+03</pdfrwt>
<pdfrwt beam="2">  1       21 0.51148510E+00 0.11726746E+03</pdfrwt>
<totfact> 0.41659005E+03</totfact>
</mgrwt>
</event>
<event>
 4    1  0.5810391E+003  0.1121973E+03  0.7546771E-02  0.1256554E+00
         21   -1    0    0  503  501  0.00000000000E+00  0.00000000000E+00  0.19277841635E+03  0.19277841635E+03  0.00000000000E+00 0.  1.
         21   -1    0    0  504  502 -0.00000000000E+00 -0.00000000000E+00 -0.99964688356E+02  0.99964688356E+02  0.00000000000E+00 0.  1.
         21    1    1    2  503  502  0.53686809143E+02  0.98518800787E+02  0.13260217024E+03  0.17369963482E+03  0.00000000000E+00 0.  1.
         21    1    1    2  504  501 -0.53686809143E+02 -0.98518800787E+02 -0.39788442251E+02  0.11904346988E+03  0.00000000000E+00 0.  1.
<mgrwt>
<rscale>  2 0.11219727E+03</rscale>
<asrwt>0</asrwt>
<pdfrwt beam="1">  1       21 0.29658218E-01 0.11219727E+03</pdfrwt>
<pdfrwt beam="2">  1       21 0.15379183E-01 0.11219727E+03</pdfrwt>
<totfact> 0.41332174E+05</totfact>
</mgrwt>
</event>
<event>
 4    1  0.5810391E+003  0.1267809E+03  0.7546771E-02  0.1232312E+00
         21   -1    0    0  503  501  0.00000000000E+00  0.00000000000E+00  0.21263406738E+03  0.21263406738E+03  0.00000000000E+00 0.  1.
         21   -1    0    0  504  502 -0.00000000000E+00 -0.00000000000E+00 -0.14989915588E+03  0.14989915588E+03  0.00000000000E+00 0. -1.
         21    1    1    2  503  502 -0.12543706016E+03 -0.18410619803E+02 -0.96257004864E+02  0.15918171367E+03  0.00000000000E+00 0. -1.
         21    1    1    2  504  501  0.12543706016E+03  0.18410619803E+02  0.15899191636E+03  0.20335150958E+03  0.00000000000E+00 0.  1.
<mgrwt>
<rscale>  2 0.12678094E+03</rscale>
<asrwt>0</asrwt>
<pdfrwt beam="1">  1       21 0.32712933E-01 0.12678094E+03</pdfrwt>
<pdfrwt beam="2">  1       21 0.23061409E-01 0.12678094E+03</pdfrwt>
<totfact> 0.16207151E+05</totfact>
</mgrwt>
</event>
<event>
 4    1  0.5810391E+003  0.1150790E+03  0.7546771E-02  0.1251443E+00
         21   -1    0    0  502  501  0.00000000000E+00  0.00000000000E+00  0.88186434630E+03  0.88186434630E+03  0.00000000000E+00 0.  1.
         21   -1    0    0  503  502 -0.00000000000E+00 -0.00000000000E+00 -0.58604297096E+02  0.58604297096E+02  0.00000000000E+00 0. -1.
         21    1    1    2  503  504 -0.31089855960E+02  0.11079983737E+03  0.60950779312E+01  0.11524032749E+03  0.00000000000E+00 0. -1.
         21    1    1    2  504  501  0.31089855960E+02 -0.11079983737E+03  0.81716497127E+03  0.82522831590E+03  0.00000000000E+00 0.  1.
<mgrwt>
<rscale>  2 0.11507903E+03</rscale>
<asrwt>0</asrwt>
<pdfrwt beam="1">  1       21 0.13567143E+00 0.11507903E+03</pdfrwt>
<pdfrwt beam="2">  1       21 0.90160464E-02 0.11507903E+03</pdfrwt>
<totfact> 0.39686922E+04</totfact>
</mgrwt>
</event>
<event>
 4    1  0.5810391E+003  0.1952100E+03  0.7546771E-02  0.1153844E+00
         21   -1    0    0  503  501  0.00000000000E+00  0.00000000000E+00  0.24001403420E+03  0.24001403420E+03  0.00000000000E+00 0.  1.
         21   -1    0    0  504  502 -0.00000000000E+00 -0.00000000000E+00 -0.15881494118E+03  0.15881494118E+03  0.00000000000E+00 0.  1.
         21    1    1    2  503  502  0.15934216953E+03  0.11276968186E+03  0.37229479484E+02  0.19872836305E+03  0.00000000000E+00 0.  1.
         21    1    1    2  504  501 -0.15934216953E+03 -0.11276968186E+03  0.43969613530E+02  0.20010061232E+03  0.00000000000E+00 0.  1.
<mgrwt>
<rscale>  2 0.19520996E+03</rscale>
<asrwt>0</asrwt>
<pdfrwt beam="1">  1       21 0.36925236E-01 0.19520996E+03</pdfrwt>
<pdfrwt beam="2">  1       21 0.24433068E-01 0.19520996E+03</pdfrwt>
<totfact> 0.11182358E+05</totfact>
</mgrwt>
</event>
<event>
 4    1  0.5810391E+003  0.1084709E+03  0.7546771E-02  0.1263428E+00
         21   -1    0    0  503  501  0.00000000000E+00  0.00000000000E+00  0.42438222872E+02  0.42438222872E+02  0.00000000000E+00 0. -1.
         21   -1    0    0  504  502 -0.00000000000E+00 -0.00000000000E+00 -0.98300904584E+03  0.98300904584E+03  0.00000000000E+00 0.  1.
         21    1    1    2  503  502  0.18376306364E+02  0.10690296755E+03 -0.90472887947E+03  0.91120814222E+03  0.00000000000E+00 0.  1.
         21    1    1    2  504  501 -0.18376306364E+02 -0.10690296755E+03 -0.35841943497E+02  0.11423912649E+03  0.00000000000E+00 0. -1.
<mgrwt>
<rscale>  2 0.10847089E+03</rscale>
<asrwt>0</asrwt>
<pdfrwt beam="1">  1       21 0.65289578E-02 0.10847089E+03</pdfrwt>
<pdfrwt beam="2">  1       21 0.15123215E+00 0.10847089E+03</pdfrwt>
<totfact> 0.52624699E+04</totfact>
</mgrwt>
</event>
<event>
 4    1  0.5810391E+003  0.1004229E+03  0.7546771E-02  0.1279409E+00
         21   -1    0    0  503  501  0.00000000000E+00  0.00000000000E+00  0.11156834312E+03  0.11156834312E+03  0.00000000000E+00 0.  1.
         21   -1    0    0  504  502 -0.00000000000E+00 -0.00000000000E+00 -0.15846490312E+03  0.15846490312E+03  0.00000000000E+00 0.  1.
         21    1    1    2  503  502 -0.79210517334E+02  0.61728928467E+02  0.65045192197E+02  0.11964799912E+03  0.00000000000E+00 0.  1.
         21    1    1    2  504  501  0.79210517334E+02 -0.61728928467E+02 -0.11194175219E+03  0.15038524712E+03  0.00000000000E+00 0.  1.
<mgrwt>
<rscale>  2 0.10042294E+03</rscale>
<asrwt>0</asrwt>
<pdfrwt beam="1">  1       21 0.17164360E-01 0.10042294E+03</pdfrwt>
<pdfrwt beam="2">  1       21 0.24379216E-01 0.10042294E+03</pdfrwt>
<totfact> 0.49186882E+05</totfact>
</mgrwt>
</event>
<event>
 4    1  0.5810391E+003  0.1277631E+03  0.7546771E-02  0.1230813E+00
         21   -1    0    0  502  501  0.00000000000E+00  0.00000000000E+00  0.18413568887E+02  0.18413568887E+02  0.00000000000E+00 0. -1.
         21   -1    0    0  504  502 -0.00000000000E+00 -0.00000000000E+00 -0.96955429660E+03  0.96955429660E+03  0.00000000000E+00 0. -1.
         21    1    1    2  503  501 -0.12617206510E+03  0.20100373479E+02 -0.33098039569E+03  0.35478364866E+03  0.00000000000E+00 0. -1.
         21    1    1    2  504  503  0.12617206510E+03 -0.20100373479E+02 -0.62016033202E+03  0.63318421682E+03  0.00000000000E+00 0. -1.
<mgrwt>
<rscale>  2 0.12776312E+03</rscale>
<asrwt>0</asrwt>
<pdfrwt beam="1">  1       21 0.28328561E-02 0.12776312E+03</pdfrwt>
<pdfrwt beam="2">  1       21 0.14916224E+00 0.12776312E+03</pdfrwt>
<totfact> 0.21639040E+05</totfact>
</mgrwt>
</event>
<event>
 4    1  0.5810391E+003  0.1024631E+03  0.7546771E-02  0.1275200E+00
         21   -1    0    0  503  501  0.00000000000E+00  0.00000000000E+00  0.50440177094E+03  0.50440177094E+03  0.00000000000E+00 0. -1.
         21   -1    0    0  501  502 -0.00000000000E+00 -0.00000000000E+00 -0.40225661508E+02  0.40225661508E+02  0.00000000000E+00 0. -1.
         21    1    1    2  503  504  0.13066666852E+02  0.10162650659E+03  0.42125611344E+03  0.43353823099E+03  0.00000000000E+00 0. -1.
         21    1    1    2  504  502 -0.13066666852E+02 -0.10162650659E+03  0.42919995989E+02  0.11108920145E+03  0.00000000000E+00 0. -1.
<mgrwt>
<rscale>  2 0.10246309E+03</rscale>
<asrwt>0</asrwt>
<pdfrwt beam="1">  1       21 0.77600268E-01 0.10246309E+03</pdfrwt>
<pdfrwt beam="2">  1       21 0.61885637E-02 0.10246309E+03</pdfrwt>
<totfact> 0.28156686E+05</totfact>
</mgrwt>
</event>
<event>
 4    1  0.5810391E+003  0.1258062E+03  0.7546771E-02  0.1233815E+00
         21   -1    0    0  503  501  0.00000000000E+00  0.00000000000E+00  0.47144767843E+02  0.47144767843E+02  0.00000000000E+00 0.  1.
         21   -1    0    0  501  502 -0.00000000000E+00 -0.00000000000E+00 -0.85394378438E+03  0.85394378438E+03  0.00000000000E+00 0.  1.
         21    1    1    2  503  504  0.12377842523E+03  0.22496774600E+02 -0.52418496028E+02  0.13628977271E+03  0.00000000000E+00 0.  1.
         21    1    1    2  504  502 -0.12377842523E+03 -0.22496774600E+02 -0.75438052051E+03  0.76479877951E+03  0.00000000000E+00 0.  1.
<mgrwt>
<rscale>  2 0.12580621E+03</rscale>
<asrwt>0</asrwt>
<pdfrwt beam="1">  1       21 0.72530415E-02 0.12580621E+03</pdfrwt>
<pdfrwt beam="2">  1       21 0.13137596E+00 0.12580621E+03</pdfrwt>
<totfact> 0.62090821E+04</totfact>
</mgrwt>
</event>
<event>
 4    1  0.5810391E+003  0.1236027E+03  0.7546771E-02  0.1237269E+00
         21   -1    0    0  502  501  0.00000000000E+00  0.00000000000E+00  0.82059589371E+02  0.82059589371E+02  0.00000000000E+00 0. -1.
         21   -1    0    0  503  502 -0.00000000000E+00 -0.00000000000E+00 -0.22569519524E+03  0.22569519524E+03  0.00000000000E+00 0. -1.
         21    1    1    2  503  504  0.23403884550E+02 -0.12136678175E+03 -0.13620659038E+03  0.18392898844E+03  0.00000000000E+00 0. -1.
         21    1    1    2  504  501 -0.23403884550E+02  0.12136678175E+03 -0.74290154820E+01  0.12382579617E+03  0.00000000000E+00 0. -1.
<mgrwt>
<rscale>  2 0.12360274E+03</rscale>
<asrwt>0</asrwt>
<pdfrwt beam="1">  1       21 0.12624553E-01 0.12360274E+03</pdfrwt>
<pdfrwt beam="2">  1       21 0.34722337E-01 0.12360274E+03</pdfrwt>
<totfact> 0.43275128E+05</totfact>
</mgrwt>
</event>
<event>
 4    1  0.5810391E+003  0.1006778E+03  0.7546771E-02  0.1278877E+00
         21   -1    0    0  504  501  0.00000000000E+00  0.00000000000E+00  0.15755219791E+03  0.15755219791E+03  0.00000000000E+00 0.  1.
         21   -1    0    0  503  502 -0.00000000000E+00 -0.00000000000E+00 -0.64771982945E+02  0.64771982945E+02  0.00000000000E+00 0.  1.
         21    1    1    2  503  501  0.91586627042E+02  0.41808028121E+02  0.37253016354E+02  0.10734900417E+03  0.00000000000E+00 0.  1.
         21    1    1    2  504  502 -0.91586627042E+02 -0.41808028121E+02  0.55527198608E+02  0.11497517668E+03  0.00000000000E+00 0.  1.
<mgrwt>
<rscale>  2 0.10067781E+03</rscale>
<asrwt>0</asrwt>
<pdfrwt beam="1">  1       21 0.24238800E-01 0.10067781E+03</pdfrwt>
<pdfrwt beam="2">  1       21 0.99649204E-02 0.10067781E+03</pdfrwt>
<totfact> 0.13034418E+06</totfact>
</mgrwt>
</event>
<event>
 4    1  0.5810391E+003  0.1407765E+03  0.7546771E-02  0.1212288E+00
         21   -1    0    0  503  501  0.00000000000E+00  0.00000000000E+00  0.53353988219E+03  0.53353988219E+03  0.00000000000E+00 0.  1.
         21   -1    0    0  504  502 -0.00000000000E+00 -0.00000000000E+00 -0.63792325006E+02  0.63792325006E+02  0.00000000000E+00 0. -1.
         21    1    1    2  503  502 -0.50671217310E+02  0.13134093831E+03  0.42790763522E+03  0.45046970888E+03  0.00000000000E+00 0.  1.
         21    1    1    2  504  501  0.50671217310E+02 -0.13134093831E+03  0.41839921962E+02  0.14686249831E+03  0.00000000000E+00 0. -1.
<mgrwt>
<rscale>  2 0.14077647E+03</rscale>
<asrwt>0</asrwt>
<pdfrwt beam="1">  1       21 0.82083056E-01 0.14077647E+03</pdfrwt>
<pdfrwt beam="2">  1       21 0.98142042E-02 0.14077647E+03</pdfrwt>
<totfact> 0.11105054E+05</totfact>
</mgrwt>
</event>
<event>
 4    1  0.5810391E+003  0.1584878E+03  0.7546771E-02  0.1190415E+00
         21   -1    0    0  503  501  0.00000000000E+00  0.00000000000E+00  0.20656427815E+04  0.20656427815E+04  0.00000000000E+00 0. -1.
         21   -1    0    0  504  502 -0.00000000000E+00 -0.00000000000E+00 -0.31790257975E+02  0.31790257975E+02  0.00000000000E+00 0. -1.
         21    1    1    2  503  502 -0.10619821887E+03 -0.11764487018E+03  0.19283895524E+03  0.24961017574E+03  0.00000000000E+00 0. -1.
         21    1    1    2  504  501  0.10619821887E+03  0.11764487018E+03  0.18410135683E+04  0.18478228638E+04  0.00000000000E+00 0. -1.
<mgrwt>
<rscale>  2 0.15848778E+03</rscale>
<asrwt>0</asrwt>
<pdfrwt beam="1">  1       21 0.31779109E+00 0.15848778E+03</pdfrwt>
<pdfrwt beam="2">  1       21 0.48908106E-02 0.15848778E+03</pdfrwt>
<totfact> 0.78540484E+03</totfact>
</mgrwt>
</event>
<event>
 4    1  0.5810391E+003  0.1082860E+03  0.7546771E-02  0.1263777E+00
         21   -1    0    0  503  501  0.00000000000E+00  0.00000000000E+00  0.42284790999E+02  0.42284790999E+02  0.00000000000E+00 0. -1.
         21   -1    0    0  501  502 -0.00000000000E+00 -0.00000000000E+00 -0.28796141325E+03  0.28796141325E+03  0.00000000000E+00 0. -1.
         21    1    1    2  503  504 -0.85718738048E+02  0.66167673333E+02 -0.91076291774E+02  0.14149471358E+03  0.00000000000E+00 0. -1.
         21    1    1    2  504  502  0.85718738048E+02 -0.66167673333E+02 -0.15460033047E+03  0.18875149067E+03  0.00000000000E+00 0. -1.
<mgrwt>
<rscale>  2 0.10828602E+03</rscale>
<asrwt>0</asrwt>
<pdfrwt beam="1">  1       21 0.65053525E-02 0.10828602E+03</pdfrwt>
<pdfrwt beam="2">  1       21 0.44301755E-01 0.10828602E+03</pdfrwt>
<totfact> 0.84212968E+05</totfact>
</mgrwt>
</event>
<event>
 4    1  0.5810391E+003  0.1047067E+03  0.7546771E-02  0.1270699E+00
         21   -1    0    0  503  501  0.00000000000E+00  0.00000000000E+00  0.12318069391E+03  0.12318069391E+03  0.00000000000E+00 0. -1.
         21   -1    0    0  501  502 -0.00000000000E+00 -0.00000000000E+00 -0.11293408099E+03  0.11293408099E+03  0.00000000000E+00 0. -1.
         21    1    1    2  503  504 -0.93465716367E+02  0.47198071350E+02  0.59468153404E+02  0.12041577697E+03  0.00000000000E+00 0. -1.
         21    1    1    2  504  502  0.93465716367E+02 -0.47198071350E+02 -0.49221540481E+02  0.11569899793E+03  0.00000000000E+00 0. -1.
<mgrwt>
<rscale>  2 0.10470672E+03</rscale>
<asrwt>0</asrwt>
<pdfrwt beam="1">  1       21 0.18950876E-01 0.10470672E+03</pdfrwt>
<pdfrwt beam="2">  1       21 0.17374474E-01 0.10470672E+03</pdfrwt>
<totfact> 0.76685496E+05</totfact>
</mgrwt>
</event>
<event>
 4    1  0.5810391E+003  0.1084952E+03  0.7546771E-02  0.1263382E+00
         21   -1    0    0  502  501  0.00000000000E+00  0.00000000000E+00  0.52945863166E+02  0.52945863166E+02  0.00000000000E+00 0. -1.
         21   -1    0    0  504  502 -0.00000000000E+00 -0.00000000000E+00 -0.46488479438E+03  0.46488479438E+03  0.00000000000E+00 0. -1.
         21    1    1    2  503  501 -0.64106286208E+02 -0.87530516001E+02 -0.18946821084E+02  0.11013713811E+03  0.00000000000E+00 0. -1.
         21    1    1    2  504  503  0.64106286208E+02  0.87530516001E+02 -0.39299211013E+03  0.40769351943E+03  0.00000000000E+00 0. -1.
<mgrwt>
<rscale>  2 0.10849519E+03</rscale>
<asrwt>0</asrwt>
<pdfrwt beam="1">  1       21 0.81455175E-02 0.10849519E+03</pdfrwt>
<pdfrwt beam="2">  1       21 0.71520737E-01 0.10849519E+03</pdfrwt>
<totfact> 0.21051371E+05</totfact>
</mgrwt>
</event>
<event>
 4    1  0.5810391E+003  0.1274567E+03  0.7546771E-02  0.1231279E+00
         21   -1    0    0  504  501  0.00000000000E+00  0.00000000000E+00  0.19310387295E+03  0.19310387295E+03  0.00000000000E+00 0.  1.
         21   -1    0    0  503  502 -0.00000000000E+00 -0.00000000000E+00 -0.44347964485E+03  0.44347964485E+03  0.00000000000E+00 0.  1.
         21    1    1    2  503  501 -0.23801877177E+02  0.12521450941E+03 -0.41170404328E+03  0.43098192767E+03  0.00000000000E+00 0.  1.
         21    1    1    2  504  502  0.23801877177E+02 -0.12521450941E+03  0.16132827137E+03  0.20560159014E+03  0.00000000000E+00 0.  1.
<mgrwt>
<rscale>  2 0.12745667E+03</rscale>
<asrwt>0</asrwt>
<pdfrwt beam="1">  1       21 0.29708288E-01 0.12745667E+03</pdfrwt>
<pdfrwt beam="2">  1       21 0.68227638E-01 0.12745667E+03</pdfrwt>
<totfact> 0.22201513E+04</totfact>
</mgrwt>
</event>
<event>
 4    1  0.5810391E+003  0.1139300E+03  0.7546771E-02  0.1253460E+00
         21   -1    0    0  504  501  0.00000000000E+00  0.00000000000E+00  0.29993972923E+03  0.29993972923E+03  0.00000000000E+00 0.  1.
         21   -1    0    0  503  502 -0.00000000000E+00 -0.00000000000E+00 -0.80938820611E+02  0.80938820611E+02  0.00000000000E+00 0.  1.
         21    1    1    2  503  501 -0.38587793433E+02 -0.10719620991E+03  0.23940888016E+03  0.26513516764E+03  0.00000000000E+00 0.  1.
         21    1    1    2  504  502  0.38587793433E+02  0.10719620991E+03 -0.20407971544E+02  0.11574338220E+03  0.00000000000E+00 0.  1.
<mgrwt>
<rscale>  2 0.11393000E+03</rscale>
<asrwt>0</asrwt>
<pdfrwt beam="1">  1       21 0.46144573E-01 0.11393000E+03</pdfrwt>
<pdfrwt beam="2">  1       21 0.12452126E-01 0.11393000E+03</pdfrwt>
<totfact> 0.25183812E+05</totfact>
</mgrwt>
</event>
<event>
 4    1  0.5810391E+003  0.1340885E+03  0.7546771E-02  0.1221512E+00
         21   -1    0    0  502  501  0.00000000000E+00  0.00000000000E+00  0.82362661111E+03  0.82362661111E+03  0.00000000000E+00 0.  1.
         21   -1    0    0  503  502 -0.00000000000E+00 -0.00000000000E+00 -0.20773979298E+03  0.20773979298E+03  0.00000000000E+00 0. -1.
         21    1    1    2  503  504  0.96569109785E+02  0.93027662237E+02 -0.17989311635E+03  0.22436860791E+03  0.00000000000E+00 0. -1.
         21    1    1    2  504  501 -0.96569109785E+02 -0.93027662237E+02  0.79577993448E+03  0.80699779618E+03  0.00000000000E+00 0.  1.
<mgrwt>
<rscale>  2 0.13408855E+03</rscale>
<asrwt>0</asrwt>
<pdfrwt beam="1">  1       21 0.12671178E+00 0.13408855E+03</pdfrwt>
<pdfrwt beam="2">  1       21 0.31959968E-01 0.13408855E+03</pdfrwt>
<totfact> 0.45838647E+03</totfact>
</mgrwt>
</event>
<event>
 4    1  0.5810391E+003  0.1062086E+03  0.7546771E-02  0.1267757E+00
         21   -1    0    0  503  501  0.00000000000E+00  0.00000000000E+00  0.49108925228E+02  0.49108925228E+02  0.00000000000E+00 0.  1.
         21   -1    0    0  504  502 -0.00000000000E+00 -0.00000000000E+00 -0.24864428928E+03  0.24864428928E+03  0.00000000000E+00 0.  1.
         21    1    1    2  503  502 -0.52429813929E+01 -0.10607907645E+03 -0.58672532002E+02  0.12133723800E+03  0.00000000000E+00 0.  1.
         21    1    1    2  504  501  0.52429813929E+01  0.10607907645E+03 -0.14086283205E+03  0.17641597651E+03  0.00000000000E+00 0.  1.
<mgrwt>
<rscale>  2 0.10620857E+03</rscale>
<asrwt>0</asrwt>
<pdfrwt beam="1">  1       21 0.75552193E-02 0.10620857E+03</pdfrwt>
<pdfrwt beam="2">  1       21 0.38252968E-01 0.10620857E+03</pdfrwt>
<totfact> 0.87490434E+05</totfact>
</mgrwt>
</event>
<event>
 4    1  0.5810391E+003  0.1010399E+03  0.7546771E-02  0.1278124E+00
         21   -1    0    0  504  501  0.00000000000E+00  0.00000000000E+00  0.65167560182E+02  0.65167560182E+02  0.00000000000E+00 0. -1.
         21   -1    0    0  503  502 -0.00000000000E+00 -0.00000000000E+00 -0.15690785205E+03  0.15690785205E+03  0.00000000000E+00 0. -1.
         21    1    1    2  503  501 -0.19128564458E+02  0.99212694126E+02 -0.41444853573E+02  0.10920959913E+03  0.00000000000E+00 0. -1.
         21    1    1    2  504  502  0.19128564458E+02 -0.99212694126E+02 -0.50295438290E+02  0.11286581310E+03  0.00000000000E+00 0. -1.
<mgrwt>
<rscale>  2 0.10103990E+03</rscale>
<asrwt>0</asrwt>
<pdfrwt beam="1">  1       21 0.10025779E-01 0.10103990E+03</pdfrwt>
<pdfrwt beam="2">  1       21 0.24139669E-01 0.10103990E+03</pdfrwt>
<totfact> 0.12997538E+06</totfact>
</mgrwt>
</event>
<event>
 4    1  0.5810391E+003  0.1204922E+03  0.7546771E-02  0.1242287E+00
         21   -1    0    0  503  501  0.00000000000E+00  0.00000000000E+00  0.15990917346E+03  0.15990917346E+03  0.00000000000E+00 0.  1.
         21   -1    0    0  504  502 -0.00000000000E+00 -0.00000000000E+00 -0.11542295476E+03  0.11542295476E+03  0.00000000000E+00 0.  1.
         21    1    1    2  503  502  0.64786222335E+02  0.10159293997E+03  0.85838638724E+02  0.14794138013E+03  0.00000000000E+00 0.  1.
         21    1    1    2  504  501 -0.64786222335E+02 -0.10159293997E+03 -0.41352420021E+02  0.12739074809E+03  0.00000000000E+00 0.  1.
<mgrwt>
<rscale>  2 0.12049224E+03</rscale>
<asrwt>0</asrwt>
<pdfrwt beam="1">  1       21 0.24601411E-01 0.12049224E+03</pdfrwt>
<pdfrwt beam="2">  1       21 0.17757378E-01 0.12049224E+03</pdfrwt>
<totfact> 0.45400733E+05</totfact>
</mgrwt>
</event>
<event>
 4    1  0.5810391E+003  0.1085668E+03  0.7546771E-02  0.1263247E+00
         21   -1    0    0  502  501  0.00000000000E+00  0.00000000000E+00  0.70809868479E+03  0.70809868479E+03  0.00000000000E+00 0. -1.
         21   -1    0    0  504  502 -0.00000000000E+00 -0.00000000000E+00 -0.39531434629E+02  0.39531434629E+02  0.00000000000E+00 0.  1.
         21    1    1    2  503  501 -0.73013703584E+01 -0.10832105348E+03  0.61870906541E+03  0.62816213533E+03  0.00000000000E+00 0. -1.
         21    1    1    2  504  503  0.73013703584E+01  0.10832105348E+03  0.49858184746E+02  0.11946798409E+03  0.00000000000E+00 0.  1.
<mgrwt>
<rscale>  2 0.10856685E+03</rscale>
<asrwt>0</asrwt>
<pdfrwt beam="1">  1       21 0.10893825E+00 0.10856685E+03</pdfrwt>
<pdfrwt beam="2">  1       21 0.60817597E-02 0.10856685E+03</pdfrwt>
<totfact> 0.13327847E+05</totfact>
</mgrwt>
</event>
<event>
 4    1  0.5810391E+003  0.1352805E+03  0.7546771E-02  0.1219824E+00
         21   -1    0    0  504  501  0.00000000000E+00  0.00000000000E+00  0.10176569753E+04  0.10176569753E+04  0.00000000000E+00 0. -1.
         21   -1    0    0  503  502 -0.00000000000E+00 -0.00000000000E+00 -0.21076388079E+02  0.21076388079E+02  0.00000000000E+00 0. -1.
         21    1    1    2  503  501  0.95571674844E+02 -0.95743720027E+02  0.29932656527E+03  0.32847708845E+03  0.00000000000E+00 0. -1.
         21    1    1    2  504  502 -0.95571674844E+02  0.95743720027E+02  0.69725402196E+03  0.71025627494E+03  0.00000000000E+00 0. -1.
<mgrwt>
<rscale>  2 0.13528047E+03</rscale>
<asrwt>0</asrwt>
<pdfrwt beam="1">  1       21 0.15656257E+00 0.13528047E+03</pdfrwt>
<pdfrwt beam="2">  1       21 0.32425220E-02 0.13528047E+03</pdfrwt>
<totfact> 0.15229574E+05</totfact>
</mgrwt>
</event>
<event>
 4    1  0.5810391E+003  0.1146703E+03  0.7546771E-02  0.1252158E+00
         21   -1    0    0  503  501  0.00000000000E+00  0.00000000000E+00  0.22818477538E+03  0.22818477538E+03  0.00000000000E+00 0. -1.
         21   -1    0    0  504  502 -0.00000000000E+00 -0.00000000000E+00 -0.22528254505E+03  0.22528254505E+03  0.00000000000E+00 0. -1.
         21    1    1    2  503  502  0.92023767949E+02  0.68417195160E+02 -0.19414624571E+03  0.22548182008E+03  0.00000000000E+00 0. -1.
         21    1    1    2  504  501 -0.92023767949E+02 -0.68417195160E+02  0.19704847604E+03  0.22798550036E+03  0.00000000000E+00 0. -1.
<mgrwt>
<rscale>  2 0.11467034E+03</rscale>
<asrwt>0</asrwt>
<pdfrwt beam="1">  1       21 0.35105350E-01 0.11467034E+03</pdfrwt>
<pdfrwt beam="2">  1       21 0.34658853E-01 0.11467034E+03</pdfrwt>
<totfact> 0.65103567E+04</totfact>
</mgrwt>
</event>
<event>
 4    1  0.5810391E+003  0.1681594E+03  0.7546771E-02  0.1179781E+00
         21   -1    0    0  504  501  0.00000000000E+00  0.00000000000E+00  0.14792423353E+04  0.14792423353E+04  0.00000000000E+00 0.  1.
         21   -1    0    0  501  502 -0.00000000000E+00 -0.00000000000E+00 -0.20519280567E+02  0.20519280567E+02  0.00000000000E+00 0.  1.
         21    1    1    2  503  502  0.14133087967E+03 -0.91121751849E+02  0.53327753833E+03  0.55916234145E+03  0.00000000000E+00 0.  1.
         21    1    1    2  504  503 -0.14133087967E+03  0.91121751849E+02  0.92544551643E+03  0.94059927445E+03  0.00000000000E+00 0.  1.
<mgrwt>
<rscale>  2 0.16815942E+03</rscale>
<asrwt>0</asrwt>
<pdfrwt beam="1">  1       21 0.22757566E+00 0.16815942E+03</pdfrwt>
<pdfrwt beam="2">  1       21 0.31568136E-02 0.16815942E+03</pdfrwt>
<totfact> 0.53557493E+04</totfact>
</mgrwt>
</event>
<event>
 4    1  0.5810391E+003  0.1121055E+03  0.7546771E-02  0.1256720E+00
         21   -1    0    0  502  501  0.00000000000E+00  0.00000000000E+00  0.21273234976E+03  0.21273234976E+03  0.00000000000E+00 0. -1.
         21   -1    0    0  504  502 -0.00000000000E+00 -0.00000000000E+00 -0.10814872021E+03  0.10814872021E+03  0.00000000000E+00 0.  1.
         21    1    1    2  503  501 -0.71761176438E+02  0.86127704839E+02  0.16036496826E+03  0.19566443476E+03  0.00000000000E+00 0. -1.
         21    1    1    2  504  503  0.71761176438E+02 -0.86127704839E+02 -0.55781338712E+02  0.12521663521E+03  0.00000000000E+00 0.  1.
<mgrwt>
<rscale>  2 0.11210552E+03</rscale>
<asrwt>0</asrwt>
<pdfrwt beam="1">  1       21 0.32728054E-01 0.11210552E+03</pdfrwt>
<pdfrwt beam="2">  1       21 0.16638265E-01 0.11210552E+03</pdfrwt>
<totfact> 0.29650969E+05</totfact>
</mgrwt>
</event>
<event>
 4    1  0.5810391E+003  0.1249544E+03  0.7546771E-02  0.1235141E+00
         21   -1    0    0  503  501  0.00000000000E+00  0.00000000000E+00  0.43579914992E+02  0.43579914992E+02  0.00000000000E+00 0. -1.
         21   -1    0    0  501  502 -0.00000000000E+00 -0.00000000000E+00 -0.38562599297E+03  0.38562599297E+03  0.00000000000E+00 0.  1.
         21    1    1    2  503  504 -0.12473667419E+03 -0.73733084385E+01 -0.11387025899E+03  0.16905632034E+03  0.00000000000E+00 0.  1.
         21    1    1    2  504  502  0.12473667419E+03  0.73733084385E+01 -0.22817581898E+03  0.26014958761E+03  0.00000000000E+00 0. -1.
<mgrwt>
<rscale>  2 0.12495441E+03</rscale>
<asrwt>0</asrwt>
<pdfrwt beam="1">  1       21 0.67046026E-02 0.12495441E+03</pdfrwt>
<pdfrwt beam="2">  1       21 0.59327074E-01 0.12495441E+03</pdfrwt>
<totfact> 0.43733811E+05</totfact>
</mgrwt>
</event>
<event>
 4    1  0.5810391E+003  0.1131027E+03  0.7546771E-02  0.1254930E+00
         21   -1    0    0  504  501  0.00000000000E+00  0.00000000000E+00  0.57718451366E+02  0.57718451366E+02  0.00000000000E+00 0.  1.
         21   -1    0    0  503  502 -0.00000000000E+00 -0.00000000000E+00 -0.32478982982E+03  0.32478982982E+03  0.00000000000E+00 0.  1.
         21    1    1    2  503  501 -0.10262590032E+03 -0.47540884754E+02 -0.24132169119E+03  0.26651148151E+03  0.00000000000E+00 0.  1.
         21    1    1    2  504  502  0.10262590032E+03  0.47540884754E+02 -0.25749687265E+02  0.11599679967E+03  0.00000000000E+00 0.  1.
<mgrwt>
<rscale>  2 0.11310266E+03</rscale>
<asrwt>0</asrwt>
<pdfrwt beam="1">  1       21 0.88797619E-02 0.11310266E+03</pdfrwt>
<pdfrwt beam="2">  1       21 0.49967665E-01 0.11310266E+03</pdfrwt>
<totfact> 0.38679375E+05</totfact>
</mgrwt>
</event>
<event>
 4    1  0.5810391E+003  0.1188928E+03  0.7546771E-02  0.1244935E+00
         21   -1    0    0  502  501  0.00000000000E+00  0.00000000000E+00  0.62146929975E+02  0.62146929975E+02  0.00000000000E+00 0.  1.
         21   -1    0    0  503  502 -0.00000000000E+00 -0.00000000000E+00 -0.22901886935E+03  0.22901886935E+03  0.00000000000E+00 0.  1.
         21    1    1    2  503  504  0.83335500965E+02  0.84798000532E+02 -0.71398079688E+02  0.13868378564E+03  0.00000000000E+00 0.  1.
         21    1    1    2  504  501 -0.83335500965E+02 -0.84798000532E+02 -0.95473859691E+02  0.15248201369E+03  0.00000000000E+00 0.  1.
<mgrwt>
<rscale>  2 0.11889284E+03</rscale>
<asrwt>0</asrwt>
<pdfrwt beam="1">  1       21 0.95610662E-02 0.11889284E+03</pdfrwt>
<pdfrwt beam="2">  1       21 0.35233672E-01 0.11889284E+03</pdfrwt>
<totfact> 0.68563414E+05</totfact>
</mgrwt>
</event>
<event>
 4    1  0.5810391E+003  0.1469592E+03  0.7546771E-02  0.1204260E+00
         21   -1    0    0  502  501  0.00000000000E+00  0.00000000000E+00  0.36981938350E+03  0.36981938350E+03  0.00000000000E+00 0. -1.
         21   -1    0    0  504  502 -0.00000000000E+00 -0.00000000000E+00 -0.13288529176E+03  0.13288529176E+03  0.00000000000E+00 0. -1.
         21    1    1    2  503  501  0.12428080135E+03 -0.78430133021E+02  0.30665129468E+03  0.34004708480E+03  0.00000000000E+00 0. -1.
         21    1    1    2  504  503 -0.12428080135E+03  0.78430133021E+02 -0.69717202939E+02  0.16265759047E+03  0.00000000000E+00 0. -1.
<mgrwt>
<rscale>  2 0.14695919E+03</rscale>
<asrwt>0</asrwt>
<pdfrwt beam="1">  1       21 0.56895289E-01 0.14695919E+03</pdfrwt>
<pdfrwt beam="2">  1       21 0.20443891E-01 0.14695919E+03</pdfrwt>
<totfact> 0.65653150E+04</totfact>
</mgrwt>
</event>
<event>
 4    1  0.5810391E+003  0.1108575E+03  0.7546771E-02  0.1258990E+00
         21   -1    0    0  504  501  0.00000000000E+00  0.00000000000E+00  0.28931218796E+02  0.28931218796E+02  0.00000000000E+00 0. -1.
         21   -1    0    0  503  502 -0.00000000000E+00 -0.00000000000E+00 -0.51224423960E+03  0.51224423960E+03  0.00000000000E+00 0. -1.
         21    1    1    2  503  501  0.83933214556E+01  0.11053931184E+03 -0.35346793371E+03  0.37044428389E+03  0.00000000000E+00 0. -1.
         21    1    1    2  504  502 -0.83933214556E+01 -0.11053931184E+03 -0.12984508710E+03  0.17073117451E+03  0.00000000000E+00 0. -1.
<mgrwt>
<rscale>  2 0.11085751E+03</rscale>
<asrwt>0</asrwt>
<pdfrwt beam="1">  1       21 0.44509572E-02 0.11085751E+03</pdfrwt>
<pdfrwt beam="2">  1       21 0.78806798E-01 0.11085751E+03</pdfrwt>
<totfact> 0.47206443E+05</totfact>
</mgrwt>
</event>
<event>
 4    1  0.5810391E+003  0.1616924E+03  0.7546771E-02  0.1186799E+00
         21   -1    0    0  502  501  0.00000000000E+00  0.00000000000E+00  0.29445060077E+02  0.29445060077E+02  0.00000000000E+00 0. -1.
         21   -1    0    0  503  502 -0.00000000000E+00 -0.00000000000E+00 -0.15776054215E+04  0.15776054215E+04  0.00000000000E+00 0.  1.
         21    1    1    2  503  504  0.15348938089E+03 -0.50847224976E+02 -0.13053686883E+04  0.13153447619E+04  0.00000000000E+00 0.  1.
         21    1    1    2  504  501 -0.15348938089E+03  0.50847224976E+02 -0.24279167308E+03  0.29170571961E+03  0.00000000000E+00 0. -1.
<mgrwt>
<rscale>  2 0.16169239E+03</rscale>
<asrwt>0</asrwt>
<pdfrwt beam="1">  1       21 0.45300084E-02 0.16169239E+03</pdfrwt>
<pdfrwt beam="2">  1       21 0.24270857E+00 0.16169239E+03</pdfrwt>
<totfact> 0.23988071E+04</totfact>
</mgrwt>
</event>
<event>
 4    1  0.5810391E+003  0.1385795E+03  0.7546771E-02  0.1215253E+00
         21   -1    0    0  504  501  0.00000000000E+00  0.00000000000E+00  0.18684283314E+02  0.18684283314E+02  0.00000000000E+00 0. -1.
         21   -1    0    0  503  502 -0.00000000000E+00 -0.00000000000E+00 -0.10385011988E+04  0.10385011988E+04  0.00000000000E+00 0. -1.
         21    1    1    2  503  501 -0.13082241683E+03 -0.45714143701E+02 -0.45632858380E+03  0.47690676664E+03  0.00000000000E+00 0. -1.
         21    1    1    2  504  502  0.13082241683E+03  0.45714143701E+02 -0.56348833168E+03  0.58027871546E+03  0.00000000000E+00 0. -1.
<mgrwt>
<rscale>  2 0.13857954E+03</rscale>
<asrwt>0</asrwt>
<pdfrwt beam="1">  1       21 0.28745047E-02 0.13857954E+03</pdfrwt>
<pdfrwt beam="2">  1       21 0.15976944E+00 0.13857954E+03</pdfrwt>
<totfact> 0.17567686E+05</totfact>
</mgrwt>
</event>
<event>
 4    1  0.5810391E+003  0.1115169E+03  0.7546771E-02  0.1257786E+00
         21   -1    0    0  504  501  0.00000000000E+00  0.00000000000E+00  0.29145491961E+03  0.29145491961E+03  0.00000000000E+00 0. -1.
         21   -1    0    0  503  502 -0.00000000000E+00 -0.00000000000E+00 -0.70858077116E+02  0.70858077116E+02  0.00000000000E+00 0. -1.
         21    1    1    2  503  501  0.72096067770E+02  0.85077422012E+02  0.22456040489E+03  0.25072571900E+03  0.00000000000E+00 0. -1.
         21    1    1    2  504  502 -0.72096067770E+02 -0.85077422012E+02 -0.39635623920E+01  0.11158727773E+03  0.00000000000E+00 0. -1.
<mgrwt>
<rscale>  2 0.11151686E+03</rscale>
<asrwt>0</asrwt>
<pdfrwt beam="1">  1       21 0.44839218E-01 0.11151686E+03</pdfrwt>
<pdfrwt beam="2">  1       21 0.10901243E-01 0.11151686E+03</pdfrwt>
<totfact> 0.33757418E+05</totfact>
</mgrwt>
</event>
<event>
 4    1  0.5810391E+003  0.1149125E+03  0.7546771E-02  0.1251734E+00
         21   -1    0    0  503  501  0.00000000000E+00  0.00000000000E+00  0.10048492104E+03  0.10048492104E+03  0.00000000000E+00 0.  1.
         21   -1    0    0  504  502 -0.00000000000E+00 -0.00000000000E+00 -0.17276529326E+03  0.17276529326E+03  0.00000000000E+00 0.  1.
         21    1    1    2  503  502 -0.27801074870E+00  0.11491215181E+03 -0.10298375690E+03  0.15430662367E+03  0.00000000000E+00 0.  1.
         21    1    1    2  504  501  0.27801074870E+00 -0.11491215181E+03  0.30703384683E+02  0.11894359064E+03  0.00000000000E+00 0.  1.
<mgrwt>
<rscale>  2 0.11491249E+03</rscale>
<asrwt>0</asrwt>
<pdfrwt beam="1">  1       21 0.15459219E-01 0.11491249E+03</pdfrwt>
<pdfrwt beam="2">  1       21 0.26579276E-01 0.11491249E+03</pdfrwt>
<totfact> 0.50458196E+05</totfact>
</mgrwt>
</event>
<event>
 4    1  0.5810391E+003  0.1095128E+03  0.7546771E-02  0.1261475E+00
         21   -1    0    0  504  501  0.00000000000E+00  0.00000000000E+00  0.51698565064E+02  0.51698565064E+02  0.00000000000E+00 0.  1.
         21   -1    0    0  501  502 -0.00000000000E+00 -0.00000000000E+00 -0.64220123813E+03  0.64220123813E+03  0.00000000000E+00 0.  1.
         21    1    1    2  503  502 -0.10587545653E+03  0.27990205759E+02 -0.57254500586E+03  0.58292439274E+03  0.00000000000E+00 0.  1.
         21    1    1    2  504  503  0.10587545653E+03 -0.27990205759E+02 -0.17957667205E+02  0.11097541046E+03  0.00000000000E+00 0.  1.
<mgrwt>
<rscale>  2 0.10951285E+03</rscale>
<asrwt>0</asrwt>
<pdfrwt beam="1">  1       21 0.79536258E-02 0.10951285E+03</pdfrwt>
<pdfrwt beam="2">  1       21 0.98800185E-01 0.10951285E+03</pdfrwt>
<totfact> 0.10612234E+05</totfact>
</mgrwt>
</event>
<event>
 4    1  0.5810391E+003  0.1532557E+03  0.7546771E-02  0.1196528E+00
         21   -1    0    0  504  501  0.00000000000E+00  0.00000000000E+00  0.15201315731E+03  0.15201315731E+03  0.00000000000E+00 0.  1.
         21   -1    0    0  503  502 -0.00000000000E+00 -0.00000000000E+00 -0.62480469867E+03  0.62480469867E+03  0.00000000000E+00 0. -1.
         21    1    1    2  503  501 -0.11028777356E+03 -0.10641395071E+03 -0.57337474495E+03  0.59350309186E+03  0.00000000000E+00 0. -1.
         21    1    1    2  504  502  0.11028777356E+03  0.10641395071E+03  0.10058320359E+03  0.18331476413E+03  0.00000000000E+00 0.  1.
<mgrwt>
<rscale>  2 0.15325574E+03</rscale>
<asrwt>0</asrwt>
<pdfrwt beam="1">  1       21 0.23386639E-01 0.15325574E+03</pdfrwt>
<pdfrwt beam="2">  1       21 0.96123801E-01 0.15325574E+03</pdfrwt>
<totfact> 0.15918228E+04</totfact>
</mgrwt>
</event>
<event>
 4    1  0.5810391E+003  0.1120274E+03  0.7546771E-02  0.1256861E+00
         21   -1    0    0  504  501  0.00000000000E+00  0.00000000000E+00  0.45387605328E+02  0.45387605328E+02  0.00000000000E+00 0.  1.
         21   -1    0    0  501  502 -0.00000000000E+00 -0.00000000000E+00 -0.59531772504E+03  0.59531772504E+03  0.00000000000E+00 0.  1.
         21    1    1    2  503  502  0.55242049198E+02 -0.97460047783E+02 -0.50939770094E+03  0.52157086061E+03  0.00000000000E+00 0.  1.
         21    1    1    2  504  503 -0.55242049198E+02  0.97460047783E+02 -0.40532418775E+02  0.11913446976E+03  0.00000000000E+00 0.  1.
<mgrwt>
<rscale>  2 0.11202743E+03</rscale>
<asrwt>0</asrwt>
<pdfrwt beam="1">  1       21 0.69827088E-02 0.11202743E+03</pdfrwt>
<pdfrwt beam="2">  1       21 0.91587339E-01 0.11202743E+03</pdfrwt>
<totfact> 0.15768592E+05</totfact>
</mgrwt>
</event>
<event>
 4    1  0.5810391E+003  0.1096439E+03  0.7546771E-02  0.1261231E+00
         21   -1    0    0  503  501  0.00000000000E+00  0.00000000000E+00  0.72162989866E+02  0.72162989866E+02  0.00000000000E+00 0. -1.
         21   -1    0    0  501  502 -0.00000000000E+00 -0.00000000000E+00 -0.49023219671E+03  0.49023219671E+03  0.00000000000E+00 0.  1.
         21    1    1    2  503  504 -0.35797402068E+02  0.10363553649E+03  0.19442085937E+02  0.11135426855E+03  0.00000000000E+00 0. -1.
         21    1    1    2  504  502  0.35797402068E+02 -0.10363553649E+03 -0.43751129279E+03  0.45104091803E+03  0.00000000000E+00 0.  1.
<mgrwt>
<rscale>  2 0.10964387E+03</rscale>
<asrwt>0</asrwt>
<pdfrwt beam="1">  1       21 0.11101998E-01 0.10964387E+03</pdfrwt>
<pdfrwt beam="2">  1       21 0.75420340E-01 0.10964387E+03</pdfrwt>
<totfact> 0.10944076E+05</totfact>
</mgrwt>
</event>
<event>
 4    1  0.5810391E+003  0.1451236E+03  0.7546771E-02  0.1206596E+00
         21   -1    0    0  503  501  0.00000000000E+00  0.00000000000E+00  0.48695197908E+03  0.48695197908E+03  0.00000000000E+00 0. -1.
         21   -1    0    0  501  502 -0.00000000000E+00 -0.00000000000E+00 -0.72612416839E+02  0.72612416839E+02  0.00000000000E+00 0. -1.
         21    1    1    2  503  504  0.86368945034E+02  0.11662441352E+03  0.38508285681E+03  0.41152114782E+03  0.00000000000E+00 0. -1.
         21    1    1    2  504  502 -0.86368945034E+02 -0.11662441352E+03  0.29256705434E+02  0.14804324810E+03  0.00000000000E+00 0. -1.
<mgrwt>
<rscale>  2 0.14512356E+03</rscale>
<asrwt>0</asrwt>
<pdfrwt beam="1">  1       21 0.74915687E-01 0.14512356E+03</pdfrwt>
<pdfrwt beam="2">  1       21 0.11171141E-01 0.14512356E+03</pdfrwt>
<totfact> 0.10825258E+05</totfact>
</mgrwt>
</event>
<event>
 4    1  0.5810391E+003  0.1093936E+03  0.7546771E-02  0.1261697E+00
         21   -1    0    0  503  501  0.00000000000E+00  0.00000000000E+00  0.31674286962E+02  0.31674286962E+02  0.00000000000E+00 0. -1.
         21   -1    0    0  504  502 -0.00000000000E+00 -0.00000000000E+00 -0.38781135480E+03  0.38781135480E+03  0.00000000000E+00 0. -1.
         21    1    1    2  503  502 -0.13436268358E+02 -0.10856531546E+03 -0.14439112928E+03  0.18115120547E+03  0.00000000000E+00 0. -1.
         21    1    1    2  504  501  0.13436268358E+02  0.10856531546E+03 -0.21174593855E+03  0.23833443629E+03  0.00000000000E+00 0. -1.
<mgrwt>
<rscale>  2 0.10939361E+03</rscale>
<asrwt>0</asrwt>
<pdfrwt beam="1">  1       21 0.48729670E-02 0.10939361E+03</pdfrwt>
<pdfrwt beam="2">  1       21 0.59663288E-01 0.10939361E+03</pdfrwt>
<totfact> 0.74111909E+05</totfact>
</mgrwt>
</event>
<event>
 4    1  0.5810391E+003  0.1460267E+03  0.7546771E-02  0.1205442E+00
         21   -1    0    0  502  501  0.00000000000E+00  0.00000000000E+00  0.13330643610E+03  0.13330643610E+03  0.00000000000E+00 0.  1.
         21   -1    0    0  504  502 -0.00000000000E+00 -0.00000000000E+00 -0.59426919361E+03  0.59426919361E+03  0.00000000000E+00 0. -1.
         21    1    1    2  503  501 -0.11481990258E+03  0.90222997487E+02  0.80515241314E+02  0.16675282123E+03  0.00000000000E+00 0.  1.
         21    1    1    2  504  503  0.11481990258E+03 -0.90222997487E+02 -0.54147799882E+03  0.56082280848E+03  0.00000000000E+00 0. -1.
<mgrwt>
<rscale>  2 0.14602671E+03</rscale>
<asrwt>0</asrwt>
<pdfrwt beam="1">  1       21 0.20508683E-01 0.14602671E+03</pdfrwt>
<pdfrwt beam="2">  1       21 0.91426029E-01 0.14602671E+03</pdfrwt>
<totfact> 0.22972202E+04</totfact>
</mgrwt>
</event>
<event>
 4    1  0.5810391E+003  0.1267809E+03  0.7546771E-02  0.1232312E+00
         21   -1    0    0  503  501  0.00000000000E+00  0.00000000000E+00  0.21982106478E+04  0.21982106478E+04  0.00000000000E+00 0.  1.
         21   -1    0    0  504  502 -0.00000000000E+00 -0.00000000000E+00 -0.24767903315E+02  0.24767903315E+02  0.00000000000E+00 0.  1.
         21    1    1    2  503  502  0.10070522995E+03  0.77018568590E+02  0.20198281123E+04  0.20238031047E+04  0.00000000000E+00 0.  1.
         21    1    1    2  504  501 -0.10070522995E+03 -0.77018568590E+02  0.15361463221E+03  0.19917544647E+03  0.00000000000E+00 0.  1.
<mgrwt>
<rscale>  2 0.12678093E+03</rscale>
<asrwt>0</asrwt>
<pdfrwt beam="1">  1       21 0.33818610E+00 0.12678093E+03</pdfrwt>
<pdfrwt beam="2">  1       21 0.38104484E-02 0.12678093E+03</pdfrwt>
<totfact> 0.95608487E+03</totfact>
</mgrwt>
</event>
<event>
 4    1  0.5810391E+003  0.1570706E+03  0.7546771E-02  0.1192044E+00
         21   -1    0    0  504  501  0.00000000000E+00  0.00000000000E+00  0.60246369232E+03  0.60246369232E+03  0.00000000000E+00 0. -1.
         21   -1    0    0  501  502 -0.00000000000E+00 -0.00000000000E+00 -0.41377936332E+02  0.41377936332E+02  0.00000000000E+00 0. -1.
         21    1    1    2  503  502 -0.72147848598E+02  0.13952015067E+03  0.24782353908E+03  0.29340703983E+03  0.00000000000E+00 0. -1.
         21    1    1    2  504  503  0.72147848598E+02 -0.13952015067E+03  0.31326221690E+03  0.35043458882E+03  0.00000000000E+00 0. -1.
<mgrwt>
<rscale>  2 0.15707064E+03</rscale>
<asrwt>0</asrwt>
<pdfrwt beam="1">  1       21 0.92686716E-01 0.15707064E+03</pdfrwt>
<pdfrwt beam="2">  1       21 0.63658368E-02 0.15707064E+03</pdfrwt>
<totfact> 0.17694917E+05</totfact>
</mgrwt>
</event>
<event>
 4    1  0.5810391E+003  0.1128445E+03  0.7546771E-02  0.1255391E+00
         21   -1    0    0  503  501  0.00000000000E+00  0.00000000000E+00  0.15538575239E+04  0.15538575239E+04  0.00000000000E+00 0.  1.
         21   -1    0    0  504  502 -0.00000000000E+00 -0.00000000000E+00 -0.10130443919E+04  0.10130443919E+04  0.00000000000E+00 0. -1.
         21    1    1    2  503  502  0.96664452550E+02 -0.58222482676E+02 -0.10078426220E+04  0.10141403377E+04  0.00000000000E+00 0. -1.
         21    1    1    2  504  501 -0.96664452550E+02  0.58222482676E+02  0.15486557540E+04  0.15527615781E+04  0.00000000000E+00 0.  1.
<mgrwt>
<rscale>  2 0.11284447E+03</rscale>
<asrwt>0</asrwt>
<pdfrwt beam="1">  1       21 0.23905500E+00 0.11284447E+03</pdfrwt>
<pdfrwt beam="2">  1       21 0.15585298E+00 0.11284447E+03</pdfrwt>
<totfact> 0.25018227E+01</totfact>
</mgrwt>
</event>
<event>
 4    1  0.5810391E+003  0.1068976E+03  0.7546771E-02  0.1266425E+00
         21   -1    0    0  502  501  0.00000000000E+00  0.00000000000E+00  0.17167914093E+03  0.17167914093E+03  0.00000000000E+00 0.  1.
         21   -1    0    0  503  502 -0.00000000000E+00 -0.00000000000E+00 -0.38999556812E+03  0.38999556812E+03  0.00000000000E+00 0. -1.
         21    1    1    2  503  504 -0.89923800608E+02 -0.57799682821E+02 -0.36490984885E+03  0.38024504078E+03  0.00000000000E+00 0. -1.
         21    1    1    2  504  501  0.89923800608E+02  0.57799682821E+02  0.14659342166E+03  0.18142966826E+03  0.00000000000E+00 0.  1.
<mgrwt>
<rscale>  2 0.10689758E+03</rscale>
<asrwt>0</asrwt>
<pdfrwt beam="1">  1       21 0.26412176E-01 0.10689758E+03</pdfrwt>
<pdfrwt beam="2">  1       21 0.59999318E-01 0.10689758E+03</pdfrwt>
<totfact> 0.37149119E+04</totfact>
</mgrwt>
</event>
<event>
 4    1  0.5810391E+003  0.1510993E+03  0.7546771E-02  0.1199129E+00
         21   -1    0    0  504  501  0.00000000000E+00  0.00000000000E+00  0.23712341836E+03  0.23712341836E+03  0.00000000000E+00 0. -1.
         21   -1    0    0  503  502 -0.00000000000E+00 -0.00000000000E+00 -0.11174087733E+03  0.11174087733E+03  0.00000000000E+00 0. -1.
         21    1    1    2  503  501  0.37794124257E+02  0.14629625776E+03 -0.21861000194E+01  0.15111508825E+03  0.00000000000E+00 0. -1.
         21    1    1    2  504  502 -0.37794124257E+02 -0.14629625776E+03  0.12756864105E+03  0.19774920744E+03  0.00000000000E+00 0. -1.
<mgrwt>
<rscale>  2 0.15109927E+03</rscale>
<asrwt>0</asrwt>
<pdfrwt beam="1">  1       21 0.36480526E-01 0.15109927E+03</pdfrwt>
<pdfrwt beam="2">  1       21 0.17190904E-01 0.15109927E+03</pdfrwt>
<totfact> 0.22394457E+05</totfact>
</mgrwt>
</event>
<event>
 4    1  0.5810391E+003  0.1239561E+03  0.7546771E-02  0.1236710E+00
         21   -1    0    0  504  501  0.00000000000E+00  0.00000000000E+00  0.10306095502E+03  0.10306095502E+03  0.00000000000E+00 0. -1.
         21   -1    0    0  503  502 -0.00000000000E+00 -0.00000000000E+00 -0.19332940119E+03  0.19332940119E+03  0.00000000000E+00 0.  1.
         21    1    1    2  503  501  0.50497432463E+02  0.11320387692E+03  0.25758492985E+02  0.12660414051E+03  0.00000000000E+00 0. -1.
         21    1    1    2  504  502 -0.50497432463E+02 -0.11320387692E+03 -0.11602693915E+03  0.16978621570E+03  0.00000000000E+00 0.  1.
<mgrwt>
<rscale>  2 0.12395607E+03</rscale>
<asrwt>0</asrwt>
<pdfrwt beam="1">  1       21 0.15855532E-01 0.12395607E+03</pdfrwt>
<pdfrwt beam="2">  1       21 0.29742985E-01 0.12395607E+03</pdfrwt>
<totfact> 0.38849915E+05</totfact>
</mgrwt>
</event>
<event>
 4    1  0.5810391E+003  0.1500981E+03  0.7546771E-02  0.1200352E+00
         21   -1    0    0  503  501  0.00000000000E+00  0.00000000000E+00  0.49368005456E+02  0.49368005456E+02  0.00000000000E+00 0. -1.
         21   -1    0    0  504  502 -0.00000000000E+00 -0.00000000000E+00 -0.65556490442E+03  0.65556490442E+03  0.00000000000E+00 0. -1.
         21    1    1    2  503  502  0.14802256447E+03 -0.24875055314E+02 -0.10880286243E+03  0.18538476432E+03  0.00000000000E+00 0. -1.
         21    1    1    2  504  501 -0.14802256447E+03  0.24875055314E+02 -0.49739403653E+03  0.51954814555E+03  0.00000000000E+00 0. -1.
<mgrwt>
<rscale>  2 0.15009813E+03</rscale>
<asrwt>0</asrwt>
<pdfrwt beam="1">  1       21 0.75950775E-02 0.15009813E+03</pdfrwt>
<pdfrwt beam="2">  1       21 0.10085614E+00 0.15009813E+03</pdfrwt>
<totfact> 0.10753265E+05</totfact>
</mgrwt>
</event>
<event>
 4    1  0.5810391E+003  0.1594259E+03  0.7546771E-02  0.1189346E+00
         21   -1    0    0  503  501  0.00000000000E+00  0.00000000000E+00  0.94930945686E+02  0.94930945686E+02  0.00000000000E+00 0.  1.
         21   -1    0    0  504  502 -0.00000000000E+00 -0.00000000000E+00 -0.46903116132E+03  0.46903116132E+03  0.00000000000E+00 0. -1.
         21    1    1    2  503  502 -0.44761647642E+02 -0.15301311996E+03 -0.37177848206E+03  0.40451929460E+03  0.00000000000E+00 0. -1.
         21    1    1    2  504  501  0.44761647642E+02  0.15301311996E+03 -0.23217335715E+01  0.15944281240E+03  0.00000000000E+00 0.  1.
<mgrwt>
<rscale>  2 0.15942591E+03</rscale>
<asrwt>0</asrwt>
<pdfrwt beam="1">  1       21 0.14604761E-01 0.15942591E+03</pdfrwt>
<pdfrwt beam="2">  1       21 0.72158639E-01 0.15942591E+03</pdfrwt>
<totfact> 0.72427916E+04</totfact>
</mgrwt>
</event>
<event>
 4    1  0.5810391E+003  0.1125439E+03  0.7546771E-02  0.1255930E+00
         21   -1    0    0  503  501  0.00000000000E+00  0.00000000000E+00  0.48246071028E+02  0.48246071028E+02  0.00000000000E+00 0. -1.
         21   -1    0    0  504  502 -0.00000000000E+00 -0.00000000000E+00 -0.26331666228E+03  0.26331666228E+03  0.00000000000E+00 0. -1.
         21    1    1    2  503  502  0.76546346339E+02 -0.82503295917E+02 -0.11603924854E+03  0.16165161359E+03  0.00000000000E+00 0. -1.
         21    1    1    2  504  501 -0.76546346339E+02  0.82503295917E+02 -0.99031342707E+02  0.14991111971E+03  0.00000000000E+00 0. -1.
<mgrwt>
<rscale>  2 0.11254393E+03</rscale>
<asrwt>0</asrwt>
<pdfrwt beam="1">  1       21 0.74224723E-02 0.11254393E+03</pdfrwt>
<pdfrwt beam="2">  1       21 0.40510256E-01 0.11254393E+03</pdfrwt>
<totfact> 0.80514526E+05</totfact>
</mgrwt>
</event>
<event>
 4    1  0.5810391E+003  0.1739359E+03  0.7546771E-02  0.1173804E+00
         21   -1    0    0  502  501  0.00000000000E+00  0.00000000000E+00  0.10482466570E+04  0.10482466570E+04  0.00000000000E+00 0.  1.
         21   -1    0    0  504  502 -0.00000000000E+00 -0.00000000000E+00 -0.36028446303E+02  0.36028446303E+02  0.00000000000E+00 0.  1.
         21    1    1    2  503  501 -0.14788122184E+03 -0.91568844312E+02  0.74791192858E+03  0.76787105815E+03  0.00000000000E+00 0.  1.
         21    1    1    2  504  503  0.14788122184E+03  0.91568844312E+02  0.26430628207E+03  0.31640404511E+03  0.00000000000E+00 0.  1.
<mgrwt>
<rscale>  2 0.17393593E+03</rscale>
<asrwt>0</asrwt>
<pdfrwt beam="1">  1       21 0.16126869E+00 0.17393593E+03</pdfrwt>
<pdfrwt beam="2">  1       21 0.55428387E-02 0.17393593E+03</pdfrwt>
<totfact> 0.56224072E+04</totfact>
</mgrwt>
</event>
<event>
 4    1  0.5810391E+003  0.1172939E+03  0.7546771E-02  0.1247629E+00
         21   -1    0    0  503  501  0.00000000000E+00  0.00000000000E+00  0.73655891969E+02  0.73655891969E+02  0.00000000000E+00 0.  1.
         21   -1    0    0  504  502 -0.00000000000E+00 -0.00000000000E+00 -0.24811774809E+03  0.24811774809E+03  0.00000000000E+00 0. -1.
         21    1    1    2  503  502 -0.98413663329E+02  0.63816975057E+02 -0.72408982906E+01  0.11751717340E+03  0.00000000000E+00 0.  1.
         21    1    1    2  504  501  0.98413663329E+02 -0.63816975057E+02 -0.16722095783E+03  0.20425646666E+03  0.00000000000E+00 0. -1.
<mgrwt>
<rscale>  2 0.11729388E+03</rscale>
<asrwt>0</asrwt>
<pdfrwt beam="1">  1       21 0.11331676E-01 0.11729388E+03</pdfrwt>
<pdfrwt beam="2">  1       21 0.38171962E-01 0.11729388E+03</pdfrwt>
<totfact> 0.43493844E+05</totfact>
</mgrwt>
</event>
<event>
 4    1  0.5810391E+003  0.1042891E+03  0.7546771E-02  0.1271527E+00
         21   -1    0    0  503  501  0.00000000000E+00  0.00000000000E+00  0.61765875503E+03  0.61765875503E+03  0.00000000000E+00 0.  1.
         21   -1    0    0  504  502 -0.00000000000E+00 -0.00000000000E+00 -0.18943565104E+02  0.18943565104E+02  0.00000000000E+00 0. -1.
         21    1    1    2  503  502  0.72660644238E+02 -0.74810720661E+02  0.21486588698E+03  0.23883794199E+03  0.00000000000E+00 0. -1.
         21    1    1    2  504  501 -0.72660644238E+02  0.74810720661E+02  0.38384930295E+03  0.39776437815E+03  0.00000000000E+00 0.  1.
<mgrwt>
<rscale>  2 0.10428908E+03</rscale>
<asrwt>0</asrwt>
<pdfrwt beam="1">  1       21 0.95024408E-01 0.10428908E+03</pdfrwt>
<pdfrwt beam="2">  1       21 0.29143951E-02 0.10428908E+03</pdfrwt>
<totfact> 0.62177233E+05</totfact>
</mgrwt>
</event>
<event>
 4    1  0.5810391E+003  0.1158887E+03  0.7546771E-02  0.1250038E+00
         21   -1    0    0  504  501  0.00000000000E+00  0.00000000000E+00  0.27627550209E+03  0.27627550209E+03  0.00000000000E+00 0.  1.
         21   -1    0    0  503  502 -0.00000000000E+00 -0.00000000000E+00 -0.50930867778E+02  0.50930867778E+02  0.00000000000E+00 0.  1.
         21    1    1    2  503  501  0.11502333641E+03  0.14135462483E+02  0.77759753616E+02  0.13955915771E+03  0.00000000000E+00 0.  1.
         21    1    1    2  504  502 -0.11502333641E+03 -0.14135462483E+02  0.14758488070E+03  0.18764721215E+03  0.00000000000E+00 0.  1.
<mgrwt>
<rscale>  2 0.11588865E+03</rscale>
<asrwt>0</asrwt>
<pdfrwt beam="1">  1       21 0.42503923E-01 0.11588865E+03</pdfrwt>
<pdfrwt beam="2">  1       21 0.78355183E-02 0.11588865E+03</pdfrwt>
<totfact> 0.66648970E+05</totfact>
</mgrwt>
</event>
<event>
 4    1  0.5810391E+003  0.1309249E+03  0.7546771E-02  0.1226090E+00
         21   -1    0    0  504  501  0.00000000000E+00  0.00000000000E+00  0.73058904859E+02  0.73058904859E+02  0.00000000000E+00 0.  1.
         21   -1    0    0  503  502 -0.00000000000E+00 -0.00000000000E+00 -0.24812408161E+03  0.24812408161E+03  0.00000000000E+00 0.  1.
         21    1    1    2  503  501  0.12966265642E+03  0.18135955659E+02 -0.50072533135E+02  0.14017337812E+03  0.00000000000E+00 0.  1.
         21    1    1    2  504  502 -0.12966265642E+03 -0.18135955659E+02 -0.12499264362E+03  0.18100960835E+03  0.00000000000E+00 0.  1.
<mgrwt>
<rscale>  2 0.13092485E+03</rscale>
<asrwt>0</asrwt>
<pdfrwt beam="1">  1       21 0.11239831E-01 0.13092485E+03</pdfrwt>
<pdfrwt beam="2">  1       21 0.38172936E-01 0.13092485E+03</pdfrwt>
<totfact> 0.44059488E+05</totfact>
</mgrwt>
</event>
<event>
 4    1  0.5810391E+003  0.1232487E+03  0.7546771E-02  0.1237832E+00
         21   -1    0    0  504  501  0.00000000000E+00  0.00000000000E+00  0.49510904430E+03  0.49510904430E+03  0.00000000000E+00 0.  1.
         21   -1    0    0  503  502 -0.00000000000E+00 -0.00000000000E+00 -0.41785321081E+02  0.41785321081E+02  0.00000000000E+00 0.  1.
         21    1    1    2  503  501 -0.44866597406E+02  0.11479210076E+03  0.88273047705E+02  0.15159936976E+03  0.00000000000E+00 0.  1.
         21    1    1    2  504  502  0.44866597406E+02 -0.11479210076E+03  0.36505067551E+03  0.38529499562E+03  0.00000000000E+00 0.  1.
<mgrwt>
<rscale>  2 0.12324868E+03</rscale>
<asrwt>0</asrwt>
<pdfrwt beam="1">  1       21 0.76170618E-01 0.12324868E+03</pdfrwt>
<pdfrwt beam="2">  1       21 0.64285113E-02 0.12324868E+03</pdfrwt>
<totfact> 0.27369766E+05</totfact>
</mgrwt>
</event>
<event>
 4    1  0.5810391E+003  0.1117787E+03  0.7546771E-02  0.1257311E+00
         21   -1    0    0  504  501  0.00000000000E+00  0.00000000000E+00  0.94246454084E+02  0.94246454084E+02  0.00000000000E+00 0.  1.
         21   -1    0    0  503  502 -0.00000000000E+00 -0.00000000000E+00 -0.77571406874E+03  0.77571406874E+03  0.00000000000E+00 0.  1.
         21    1    1    2  503  501 -0.90607541655E+02 -0.65457943895E+02  0.55336307523E+02  0.12472600352E+03  0.00000000000E+00 0.  1.
         21    1    1    2  504  502  0.90607541655E+02  0.65457943895E+02 -0.73680392218E+03  0.74523451931E+03  0.00000000000E+00 0.  1.
<mgrwt>
<rscale>  2 0.11177866E+03</rscale>
<asrwt>0</asrwt>
<pdfrwt beam="1">  1       21 0.14499454E-01 0.11177866E+03</pdfrwt>
<pdfrwt beam="2">  1       21 0.11934063E+00 0.11177866E+03</pdfrwt>
<totfact> 0.23650405E+04</totfact>
</mgrwt>
</event>
<event>
 4    1  0.5810391E+003  0.2537503E+03  0.7546771E-02  0.1110957E+00
         21   -1    0    0  503  501  0.00000000000E+00  0.00000000000E+00  0.74360585699E+03  0.74360585699E+03  0.00000000000E+00 0. -1.
         21   -1    0    0  504  502 -0.00000000000E+00 -0.00000000000E+00 -0.99473459756E+02  0.99473459756E+02  0.00000000000E+00 0. -1.
         21    1    1    2  503  502 -0.10738944226E+03  0.22990594583E+03  0.47376840538E+03  0.53744370698E+03  0.00000000000E+00 0. -1.
         21    1    1    2  504  501  0.10738944226E+03 -0.22990594583E+03  0.17036399185E+03  0.30563560976E+03  0.00000000000E+00 0. -1.
<mgrwt>
<rscale>  2 0.25375034E+03</rscale>
<asrwt>0</asrwt>
<pdfrwt beam="1">  1       21 0.11440090E+00 0.25375034E+03</pdfrwt>
<pdfrwt beam="2">  1       21 0.15303610E-01 0.25375034E+03</pdfrwt>
<totfact> 0.21700174E+04</totfact>
</mgrwt>
</event>
<event>
 4    1  0.5810391E+003  0.1427605E+03  0.7546771E-02  0.1209662E+00
         21   -1    0    0  503  501  0.00000000000E+00  0.00000000000E+00  0.26523551890E+03  0.26523551890E+03  0.00000000000E+00 0. -1.
         21   -1    0    0  504  502 -0.00000000000E+00 -0.00000000000E+00 -0.14059016165E+03  0.14059016165E+03  0.00000000000E+00 0. -1.
         21    1    1    2  503  502 -0.14016901816E+03  0.27078014866E+02  0.19896156436E+03  0.24488012707E+03  0.00000000000E+00 0. -1.
         21    1    1    2  504  501  0.14016901816E+03 -0.27078014866E+02 -0.74316207119E+02  0.16094555347E+03  0.00000000000E+00 0. -1.
<mgrwt>
<rscale>  2 0.14276054E+03</rscale>
<asrwt>0</asrwt>
<pdfrwt beam="1">  1       21 0.40805464E-01 0.14276054E+03</pdfrwt>
<pdfrwt beam="2">  1       21 0.21629256E-01 0.14276054E+03</pdfrwt>
<totfact> 0.11739200E+05</totfact>
</mgrwt>
</event>
<event>
 4    1  0.5810391E+003  0.1040976E+03  0.7546771E-02  0.1271908E+00
         21   -1    0    0  504  501  0.00000000000E+00  0.00000000000E+00  0.32766011237E+02  0.32766011237E+02  0.00000000000E+00 0. -1.
         21   -1    0    0  503  502 -0.00000000000E+00 -0.00000000000E+00 -0.33414016761E+03  0.33414016761E+03  0.00000000000E+00 0. -1.
         21    1    1    2  503  501 -0.10420040915E+02 -0.10357473463E+03 -0.16925334080E+03  0.19870328703E+03  0.00000000000E+00 0. -1.
         21    1    1    2  504  502  0.10420040915E+02  0.10357473463E+03 -0.13212081557E+03  0.16820289181E+03  0.00000000000E+00 0. -1.
<mgrwt>
<rscale>  2 0.10409756E+03</rscale>
<asrwt>0</asrwt>
<pdfrwt beam="1">  1       21 0.50409248E-02 0.10409756E+03</pdfrwt>
<pdfrwt beam="2">  1       21 0.51406180E-01 0.10409756E+03</pdfrwt>
<totfact> 0.95499458E+05</totfact>
</mgrwt>
</event>
<event>
 4    1  0.5810391E+003  0.1041964E+03  0.7546771E-02  0.1271711E+00
         21   -1    0    0  504  501  0.00000000000E+00  0.00000000000E+00  0.43344485733E+02  0.43344485733E+02  0.00000000000E+00 0. -1.
         21   -1    0    0  503  502 -0.00000000000E+00 -0.00000000000E+00 -0.26754859394E+03  0.26754859394E+03  0.00000000000E+00 0. -1.
         21    1    1    2  503  501  0.76551473938E+02  0.70687735343E+02 -0.72838362695E+02  0.12713107869E+03  0.00000000000E+00 0. -1.
         21    1    1    2  504  502 -0.76551473938E+02 -0.70687735343E+02 -0.15136574552E+03  0.18376200098E+03  0.00000000000E+00 0. -1.
<mgrwt>
<rscale>  2 0.10419637E+03</rscale>
<asrwt>0</asrwt>
<pdfrwt beam="1">  1       21 0.66683824E-02 0.10419637E+03</pdfrwt>
<pdfrwt beam="2">  1       21 0.41161322E-01 0.10419637E+03</pdfrwt>
<totfact> 0.93547935E+05</totfact>
</mgrwt>
</event>
<event>
 4    1  0.5810391E+003  0.1200960E+03  0.7546771E-02  0.1242939E+00
         21   -1    0    0  503  501  0.00000000000E+00  0.00000000000E+00  0.20738412845E+03  0.20738412845E+03  0.00000000000E+00 0. -1.
         21   -1    0    0  504  502 -0.00000000000E+00 -0.00000000000E+00 -0.10211973219E+03  0.10211973219E+03  0.00000000000E+00 0. -1.
         21    1    1    2  503  502 -0.37089061047E+02  0.11422546001E+03 -0.34766465822E+02  0.12502704231E+03  0.00000000000E+00 0. -1.
         21    1    1    2  504  501  0.37089061047E+02 -0.11422546001E+03  0.14003086209E+03  0.18447681833E+03  0.00000000000E+00 0. -1.
<mgrwt>
<rscale>  2 0.12009602E+03</rscale>
<asrwt>0</asrwt>
<pdfrwt beam="1">  1       21 0.31905250E-01 0.12009602E+03</pdfrwt>
<pdfrwt beam="2">  1       21 0.15710728E-01 0.12009602E+03</pdfrwt>
<totfact> 0.34509754E+05</totfact>
</mgrwt>
</event>
<event>
 4    1  0.5810391E+003  0.1154283E+03  0.7546771E-02  0.1250835E+00
         21   -1    0    0  504  501  0.00000000000E+00  0.00000000000E+00  0.28300748154E+03  0.28300748154E+03  0.00000000000E+00 0. -1.
         21   -1    0    0  503  502 -0.00000000000E+00 -0.00000000000E+00 -0.47099683370E+02  0.47099683370E+02  0.00000000000E+00 0. -1.
         21    1    1    2  503  501 -0.11466156649E+03 -0.13282422521E+02  0.11449165079E+03  0.16257932119E+03  0.00000000000E+00 0. -1.
         21    1    1    2  504  502  0.11466156649E+03  0.13282422521E+02  0.12141614739E+03  0.16752784373E+03  0.00000000000E+00 0. -1.
<mgrwt>
<rscale>  2 0.11542832E+03</rscale>
<asrwt>0</asrwt>
<pdfrwt beam="1">  1       21 0.43539611E-01 0.11542832E+03</pdfrwt>
<pdfrwt beam="2">  1       21 0.72461053E-02 0.11542832E+03</pdfrwt>
<totfact> 0.72599134E+05</totfact>
</mgrwt>
</event>
<event>
 4    1  0.5810391E+003  0.1025098E+03  0.7546771E-02  0.1275105E+00
         21   -1    0    0  502  501  0.00000000000E+00  0.00000000000E+00  0.37474173332E+02  0.37474173332E+02  0.00000000000E+00 0.  1.
         21   -1    0    0  503  502 -0.00000000000E+00 -0.00000000000E+00 -0.30053679003E+03  0.30053679003E+03  0.00000000000E+00 0.  1.
         21    1    1    2  503  504 -0.26695937051E+02  0.98972656401E+02 -0.17526364781E+03  0.20304089739E+03  0.00000000000E+00 0.  1.
         21    1    1    2  504  501  0.26695937051E+02 -0.98972656401E+02 -0.87798968886E+02  0.13497006597E+03  0.00000000000E+00 0.  1.
<mgrwt>
<rscale>  2 0.10250980E+03</rscale>
<asrwt>0</asrwt>
<pdfrwt beam="1">  1       21 0.57652576E-02 0.10250980E+03</pdfrwt>
<pdfrwt beam="2">  1       21 0.46236428E-01 0.10250980E+03</pdfrwt>
<totfact> 0.94664527E+05</totfact>
</mgrwt>
</event>
<event>
 4    1  0.5810391E+003  0.1082065E+03  0.7546771E-02  0.1263928E+00
         21   -1    0    0  502  501  0.00000000000E+00  0.00000000000E+00  0.64155183188E+03  0.64155183188E+03  0.00000000000E+00 0. -1.
         21   -1    0    0  504  502 -0.00000000000E+00 -0.00000000000E+00 -0.27059301579E+02  0.27059301579E+02  0.00000000000E+00 0.  1.
         21    1    1    2  503  501  0.49830262335E+02 -0.96049971833E+02  0.49798694666E+03  0.50960735001E+03  0.00000000000E+00 0. -1.
         21    1    1    2  504  503 -0.49830262335E+02  0.96049971833E+02  0.11650558363E+03  0.15900378345E+03  0.00000000000E+00 0.  1.
<mgrwt>
<rscale>  2 0.10820653E+03</rscale>
<asrwt>0</asrwt>
<pdfrwt beam="1">  1       21 0.98700270E-01 0.10820653E+03</pdfrwt>
<pdfrwt beam="2">  1       21 0.41629700E-02 0.10820653E+03</pdfrwt>
<totfact> 0.31689008E+05</totfact>
</mgrwt>
</event>
<event>
 4    1  0.5810391E+003  0.1298825E+03  0.7546771E-02  0.1227630E+00
         21   -1    0    0  504  501  0.00000000000E+00  0.00000000000E+00  0.37454614599E+03  0.37454614599E+03  0.00000000000E+00 0.  1.
         21   -1    0    0  503  502 -0.00000000000E+00 -0.00000000000E+00 -0.29902514732E+04  0.29902514732E+04  0.00000000000E+00 0. -1.
         21    1    1    2  503  501  0.33075757616E+02  0.12560035713E+03  0.36182777041E+03  0.38443307726E+03  0.00000000000E+00 0.  1.
         21    1    1    2  504  502 -0.33075757616E+02 -0.12560035713E+03 -0.29775330977E+04  0.29803645420E+04  0.00000000000E+00 0. -1.
<mgrwt>
<rscale>  2 0.12988247E+03</rscale>
<asrwt>0</asrwt>
<pdfrwt beam="1">  1       21 0.57622487E-01 0.12988247E+03</pdfrwt>
<pdfrwt beam="2">  1       21 0.46003866E+00 0.12988247E+03</pdfrwt>
<totfact> 0.11893564E+01</totfact>
</mgrwt>
</event>
<event>
 4    1  0.5810391E+003  0.1400182E+03  0.7546771E-02  0.1213305E+00
         21   -1    0    0  504  501  0.00000000000E+00  0.00000000000E+00  0.19908388057E+03  0.19908388057E+03  0.00000000000E+00 0. -1.
         21   -1    0    0  503  502 -0.00000000000E+00 -0.00000000000E+00 -0.49071144118E+03  0.49071144118E+03  0.00000000000E+00 0.  1.
         21    1    1    2  503  501 -0.12245328232E+03 -0.67899015973E+02  0.16254072587E+03  0.21453337802E+03  0.00000000000E+00 0. -1.
         21    1    1    2  504  502  0.12245328232E+03  0.67899015973E+02 -0.45416828647E+03  0.47526194373E+03  0.00000000000E+00 0.  1.
<mgrwt>
<rscale>  2 0.14001815E+03</rscale>
<asrwt>0</asrwt>
<pdfrwt beam="1">  1       21 0.30628290E-01 0.14001815E+03</pdfrwt>
<pdfrwt beam="2">  1       21 0.75494067E-01 0.14001815E+03</pdfrwt>
<totfact> 0.16611929E+04</totfact>
</mgrwt>
</event>
<event>
 4    1  0.5810391E+003  0.1195246E+03  0.7546771E-02  0.1243883E+00
         21   -1    0    0  504  501  0.00000000000E+00  0.00000000000E+00  0.26756577347E+03  0.26756577347E+03  0.00000000000E+00 0. -1.
         21   -1    0    0  501  502 -0.00000000000E+00 -0.00000000000E+00 -0.53600746229E+02  0.53600746229E+02  0.00000000000E+00 0. -1.
         21    1    1    2  503  502  0.11659839327E+03 -0.26285795228E+02  0.96984254446E+02  0.15392229843E+03  0.00000000000E+00 0. -1.
         21    1    1    2  504  503 -0.11659839327E+03  0.26285795228E+02  0.11698077280E+03  0.16724422127E+03  0.00000000000E+00 0. -1.
<mgrwt>
<rscale>  2 0.11952459E+03</rscale>
<asrwt>0</asrwt>
<pdfrwt beam="1">  1       21 0.41163964E-01 0.11952459E+03</pdfrwt>
<pdfrwt beam="2">  1       21 0.82462688E-02 0.11952459E+03</pdfrwt>
<totfact> 0.65087979E+05</totfact>
</mgrwt>
</event>
<event>
 4    1  0.5810391E+003  0.1424632E+03  0.7546771E-02  0.1210052E+00
         21   -1    0    0  504  501  0.00000000000E+00  0.00000000000E+00  0.40274500839E+03  0.40274500839E+03  0.00000000000E+00 0. -1.
         21   -1    0    0  501  502 -0.00000000000E+00 -0.00000000000E+00 -0.23796657814E+03  0.23796657814E+03  0.00000000000E+00 0. -1.
         21    1    1    2  503  502  0.79383777722E+02  0.11829616981E+03 -0.20203053107E+03  0.24720862332E+03  0.00000000000E+00 0. -1.
         21    1    1    2  504  503 -0.79383777722E+02 -0.11829616981E+03  0.36680896131E+03  0.39350296321E+03  0.00000000000E+00 0. -1.
<mgrwt>
<rscale>  2 0.14246322E+03</rscale>
<asrwt>0</asrwt>
<pdfrwt beam="1">  1       21 0.61960771E-01 0.14246322E+03</pdfrwt>
<pdfrwt beam="2">  1       21 0.36610243E-01 0.14246322E+03</pdfrwt>
<totfact> 0.17976843E+04</totfact>
</mgrwt>
</event>
<event>
 4    1  0.5810391E+003  0.1151933E+03  0.7546771E-02  0.1251244E+00
         21   -1    0    0  504  501  0.00000000000E+00  0.00000000000E+00  0.23270195660E+03  0.23270195660E+03  0.00000000000E+00 0.  1.
         21   -1    0    0  503  502 -0.00000000000E+00 -0.00000000000E+00 -0.61968864710E+02  0.61968864710E+02  0.00000000000E+00 0.  1.
         21    1    1    2  503  501  0.10971697017E+03  0.35095248540E+02  0.43745053845E+02  0.12321980259E+03  0.00000000000E+00 0.  1.
         21    1    1    2  504  502 -0.10971697017E+03 -0.35095248540E+02  0.12698803804E+03  0.17145101872E+03  0.00000000000E+00 0.  1.
<mgrwt>
<rscale>  2 0.11519327E+03</rscale>
<asrwt>0</asrwt>
<pdfrwt beam="1">  1       21 0.35800301E-01 0.11519327E+03</pdfrwt>
<pdfrwt beam="2">  1       21 0.95336716E-02 0.11519327E+03</pdfrwt>
<totfact> 0.66784024E+05</totfact>
</mgrwt>
</event>
<event>
 4    1  0.5810391E+003  0.1040445E+03  0.7546771E-02  0.1272014E+00
         21   -1    0    0  503  501  0.00000000000E+00  0.00000000000E+00  0.21183992098E+03  0.21183992098E+03  0.00000000000E+00 0. -1.
         21   -1    0    0  504  502 -0.00000000000E+00 -0.00000000000E+00 -0.69284347638E+02  0.69284347638E+02  0.00000000000E+00 0. -1.
         21    1    1    2  503  502  0.10252200127E+03  0.17734166104E+02 -0.73108894915E+00  0.10404708493E+03  0.00000000000E+00 0. -1.
         21    1    1    2  504  501 -0.10252200127E+03 -0.17734166104E+02  0.14328666229E+03  0.17707718369E+03  0.00000000000E+00 0. -1.
<mgrwt>
<rscale>  2 0.10404452E+03</rscale>
<asrwt>0</asrwt>
<pdfrwt beam="1">  1       21 0.32590757E-01 0.10404452E+03</pdfrwt>
<pdfrwt beam="2">  1       21 0.10659130E-01 0.10404452E+03</pdfrwt>
<totfact> 0.66020731E+05</totfact>
</mgrwt>
</event>
<event>
 4    1  0.5810391E+003  0.1071961E+03  0.7546771E-02  0.1265852E+00
         21   -1    0    0  502  501  0.00000000000E+00  0.00000000000E+00  0.22851280145E+03  0.22851280145E+03  0.00000000000E+00 0.  1.
         21   -1    0    0  504  502 -0.00000000000E+00 -0.00000000000E+00 -0.76876675635E+02  0.76876675635E+02  0.00000000000E+00 0.  1.
         21    1    1    2  503  501 -0.49245944250E+02 -0.95214695669E+02  0.16562114183E+03  0.19728498148E+03  0.00000000000E+00 0.  1.
         21    1    1    2  504  503  0.49245944250E+02  0.95214695669E+02 -0.13985016018E+02  0.10810449560E+03  0.00000000000E+00 0.  1.
<mgrwt>
<rscale>  2 0.10719609E+03</rscale>
<asrwt>0</asrwt>
<pdfrwt beam="1">  1       21 0.35155815E-01 0.10719609E+03</pdfrwt>
<pdfrwt beam="2">  1       21 0.11827181E-01 0.10719609E+03</pdfrwt>
<totfact> 0.47472828E+05</totfact>
</mgrwt>
</event>
<event>
 4    1  0.5810391E+003  0.1535340E+03  0.7546771E-02  0.1196197E+00
         21   -1    0    0  504  501  0.00000000000E+00  0.00000000000E+00  0.11872931341E+03  0.11872931341E+03  0.00000000000E+00 0. -1.
         21   -1    0    0  501  502 -0.00000000000E+00 -0.00000000000E+00 -0.51002200455E+03  0.51002200455E+03  0.00000000000E+00 0. -1.
         21    1    1    2  503  502  0.37145439712E+02 -0.14897278538E+03 -0.44132646630E+03  0.46727050445E+03  0.00000000000E+00 0. -1.
         21    1    1    2  504  503 -0.37145439712E+02  0.14897278538E+03  0.50033775157E+02  0.16148081351E+03  0.00000000000E+00 0. -1.
<mgrwt>
<rscale>  2 0.15353395E+03</rscale>
<asrwt>0</asrwt>
<pdfrwt beam="1">  1       21 0.18266048E-01 0.15353395E+03</pdfrwt>
<pdfrwt beam="2">  1       21 0.78464926E-01 0.15353395E+03</pdfrwt>
<totfact> 0.40088762E+04</totfact>
</mgrwt>
</event>
<event>
 4    1  0.5810391E+003  0.1098139E+03  0.7546771E-02  0.1260915E+00
         21   -1    0    0  503  501  0.00000000000E+00  0.00000000000E+00  0.50396905177E+02  0.50396905177E+02  0.00000000000E+00 0. -1.
         21   -1    0    0  504  502 -0.00000000000E+00 -0.00000000000E+00 -0.33387112285E+03  0.33387112285E+03  0.00000000000E+00 0. -1.
         21    1    1    2  503  502  0.21150470231E+02 -0.10775781959E+03 -0.39470321028E+02  0.11669188624E+03  0.00000000000E+00 0. -1.
         21    1    1    2  504  501 -0.21150470231E+02  0.10775781959E+03 -0.24400389665E+03  0.26757614178E+03  0.00000000000E+00 0. -1.
<mgrwt>
<rscale>  2 0.10981389E+03</rscale>
<asrwt>0</asrwt>
<pdfrwt beam="1">  1       21 0.77533700E-02 0.10981389E+03</pdfrwt>
<pdfrwt beam="2">  1       21 0.51364788E-01 0.10981389E+03</pdfrwt>
<totfact> 0.46176168E+05</totfact>
</mgrwt>
</event>
<event>
 4    1  0.5810391E+003  0.1284461E+03  0.7546771E-02  0.1229780E+00
         21   -1    0    0  503  501  0.00000000000E+00  0.00000000000E+00  0.18989184707E+03  0.18989184707E+03  0.00000000000E+00 0. -1.
         21   -1    0    0  504  502 -0.00000000000E+00 -0.00000000000E+00 -0.89578564883E+02  0.89578564883E+02  0.00000000000E+00 0. -1.
         21    1    1    2  503  502  0.80678709579E+02  0.99946746195E+02  0.74395642526E+02  0.14843556811E+03  0.00000000000E+00 0. -1.
         21    1    1    2  504  501 -0.80678709579E+02 -0.99946746195E+02  0.25917639660E+02  0.13103484384E+03  0.00000000000E+00 0. -1.
<mgrwt>
<rscale>  2 0.12844612E+03</rscale>
<asrwt>0</asrwt>
<pdfrwt beam="1">  1       21 0.29214130E-01 0.12844612E+03</pdfrwt>
<pdfrwt beam="2">  1       21 0.13781318E-01 0.12844612E+03</pdfrwt>
<totfact> 0.51735485E+05</totfact>
</mgrwt>
</event>
<event>
 4    1  0.5810391E+003  0.1767675E+03  0.7546771E-02  0.1170969E+00
         21   -1    0    0  504  501  0.00000000000E+00  0.00000000000E+00  0.12785521978E+03  0.12785521978E+03  0.00000000000E+00 0. -1.
         21   -1    0    0  503  502 -0.00000000000E+00 -0.00000000000E+00 -0.25906490872E+03  0.25906490872E+03  0.00000000000E+00 0. -1.
         21    1    1    2  503  501 -0.17537445779E+03 -0.22148616100E+02 -0.19563419584E+02  0.17784681337E+03  0.00000000000E+00 0. -1.
         21    1    1    2  504  502  0.17537445779E+03  0.22148616100E+02 -0.11164626935E+03  0.20907331513E+03  0.00000000000E+00 0. -1.
<mgrwt>
<rscale>  2 0.17676754E+03</rscale>
<asrwt>0</asrwt>
<pdfrwt beam="1">  1       21 0.19670034E-01 0.17676754E+03</pdfrwt>
<pdfrwt beam="2">  1       21 0.39856139E-01 0.17676754E+03</pdfrwt>
<totfact> 0.14522955E+05</totfact>
</mgrwt>
</event>
<event>
 4    1  0.5810391E+003  0.1067240E+03  0.7546771E-02  0.1266760E+00
         21   -1    0    0  502  501  0.00000000000E+00  0.00000000000E+00  0.94711741935E+02  0.94711741935E+02  0.00000000000E+00 0.  1.
         21   -1    0    0  503  502 -0.00000000000E+00 -0.00000000000E+00 -0.19573936453E+03  0.19573936453E+03  0.00000000000E+00 0. -1.
         21    1    1    2  503  504  0.87596906615E+02  0.60965459232E+02 -0.14069562086E+03  0.17659349647E+03  0.00000000000E+00 0. -1.
         21    1    1    2  504  501 -0.87596906615E+02 -0.60965459232E+02  0.39667998261E+02  0.11385761000E+03  0.00000000000E+00 0.  1.
<mgrwt>
<rscale>  2 0.10672397E+03</rscale>
<asrwt>0</asrwt>
<pdfrwt beam="1">  1       21 0.14571037E-01 0.10672397E+03</pdfrwt>
<pdfrwt beam="2">  1       21 0.30113748E-01 0.10672397E+03</pdfrwt>
<totfact> 0.44245214E+05</totfact>
</mgrwt>
</event>
<event>
 4    1  0.5810391E+003  0.1267420E+03  0.7546771E-02  0.1232372E+00
         21   -1    0    0  504  501  0.00000000000E+00  0.00000000000E+00  0.57005881522E+03  0.57005881522E+03  0.00000000000E+00 0.  1.
         21   -1    0    0  503  502 -0.00000000000E+00 -0.00000000000E+00 -0.10836037996E+03  0.10836037996E+03  0.00000000000E+00 0. -1.
         21    1    1    2  503  501  0.86020492315E+02  0.93080636424E+02 -0.60940768213E+02  0.14063181434E+03  0.00000000000E+00 0. -1.
         21    1    1    2  504  502 -0.86020492315E+02 -0.93080636424E+02  0.52263920347E+03  0.53778738083E+03  0.00000000000E+00 0.  1.
<mgrwt>
<rscale>  2 0.12674198E+03</rscale>
<asrwt>0</asrwt>
<pdfrwt beam="1">  1       21 0.87701354E-01 0.12674198E+03</pdfrwt>
<pdfrwt beam="2">  1       21 0.16670828E-01 0.12674198E+03</pdfrwt>
<totfact> 0.37444424E+04</totfact>
</mgrwt>
</event>
<event>
 4    1  0.5810391E+003  0.1581856E+03  0.7546771E-02  0.1190761E+00
         21   -1    0    0  504  501  0.00000000000E+00  0.00000000000E+00  0.38306663632E+03  0.38306663632E+03  0.00000000000E+00 0. -1.
         21   -1    0    0  503  502 -0.00000000000E+00 -0.00000000000E+00 -0.15986858086E+03  0.15986858086E+03  0.00000000000E+00 0.  1.
         21    1    1    2  503  501  0.12468108600E+03  0.97351489767E+02  0.32036481594E+03  0.35729021965E+03  0.00000000000E+00 0. -1.
         21    1    1    2  504  502 -0.12468108600E+03 -0.97351489767E+02 -0.97166760484E+02  0.18564499753E+03  0.00000000000E+00 0.  1.
<mgrwt>
<rscale>  2 0.15818561E+03</rscale>
<asrwt>0</asrwt>
<pdfrwt beam="1">  1       21 0.58933329E-01 0.15818561E+03</pdfrwt>
<pdfrwt beam="2">  1       21 0.24595166E-01 0.15818561E+03</pdfrwt>
<totfact> 0.42836177E+04</totfact>
</mgrwt>
</event>
<event>
 4    1  0.5810391E+003  0.1434045E+03  0.7546771E-02  0.1208820E+00
         21   -1    0    0  503  501  0.00000000000E+00  0.00000000000E+00  0.13035615895E+03  0.13035615895E+03  0.00000000000E+00 0. -1.
         21   -1    0    0  504  502 -0.00000000000E+00 -0.00000000000E+00 -0.28978809794E+03  0.28978809794E+03  0.00000000000E+00 0. -1.
         21    1    1    2  503  502  0.20838366029E+02  0.14188244117E+03  0.62079677674E+02  0.15626500245E+03  0.00000000000E+00 0. -1.
         21    1    1    2  504  501 -0.20838366029E+02 -0.14188244117E+03 -0.22151161667E+03  0.26387925445E+03  0.00000000000E+00 0. -1.
<mgrwt>
<rscale>  2 0.14340455E+03</rscale>
<asrwt>0</asrwt>
<pdfrwt beam="1">  1       21 0.20054794E-01 0.14340455E+03</pdfrwt>
<pdfrwt beam="2">  1       21 0.44582784E-01 0.14340455E+03</pdfrwt>
<totfact> 0.11294273E+05</totfact>
</mgrwt>
</event>
<event>
 4    1  0.5810391E+003  0.1525298E+03  0.7546771E-02  0.1197398E+00
         21   -1    0    0  504  501  0.00000000000E+00  0.00000000000E+00  0.10155266236E+03  0.10155266236E+03  0.00000000000E+00 0.  1.
         21   -1    0    0  501  502 -0.00000000000E+00 -0.00000000000E+00 -0.28466090008E+03  0.28466090008E+03  0.00000000000E+00 0.  1.
         21    1    1    2  503  502  0.84570016376E+02 -0.12693793539E+03 -0.17687064768E+03  0.23355631681E+03  0.00000000000E+00 0.  1.
         21    1    1    2  504  503 -0.84570016376E+02  0.12693793539E+03 -0.62375900396E+01  0.15265724562E+03  0.00000000000E+00 0.  1.
<mgrwt>
<rscale>  2 0.15252976E+03</rscale>
<asrwt>0</asrwt>
<pdfrwt beam="1">  1       21 0.15623487E-01 0.15252976E+03</pdfrwt>
<pdfrwt beam="2">  1       21 0.43793985E-01 0.15252976E+03</pdfrwt>
<totfact> 0.18466569E+05</totfact>
</mgrwt>
</event>
<event>
 4    1  0.5810391E+003  0.1541670E+03  0.7546771E-02  0.1195444E+00
         21   -1    0    0  502  501  0.00000000000E+00  0.00000000000E+00  0.31304474323E+03  0.31304474323E+03  0.00000000000E+00 0. -1.
         21   -1    0    0  503  502 -0.00000000000E+00 -0.00000000000E+00 -0.15186578856E+03  0.15186578856E+03  0.00000000000E+00 0.  1.
         21    1    1    2  503  504 -0.74905888979E+02 -0.13474634117E+03 -0.83791329338E+02  0.17546639432E+03  0.00000000000E+00 0.  1.
         21    1    1    2  504  501  0.74905888979E+02  0.13474634117E+03  0.24497028401E+03  0.28944413747E+03  0.00000000000E+00 0. -1.
<mgrwt>
<rscale>  2 0.15416702E+03</rscale>
<asrwt>0</asrwt>
<pdfrwt beam="1">  1       21 0.48160730E-01 0.15416702E+03</pdfrwt>
<pdfrwt beam="2">  1       21 0.23363967E-01 0.15416702E+03</pdfrwt>
<totfact> 0.72172179E+04</totfact>
</mgrwt>
</event>
<event>
 4    1  0.5810391E+003  0.1103065E+03  0.7546771E-02  0.1260003E+00
         21   -1    0    0  502  501  0.00000000000E+00  0.00000000000E+00  0.98130555974E+02  0.98130555974E+02  0.00000000000E+00 0.  1.
         21   -1    0    0  503  502 -0.00000000000E+00 -0.00000000000E+00 -0.20603515964E+03  0.20603515964E+03  0.00000000000E+00 0.  1.
         21    1    1    2  503  504 -0.31217407936E+02  0.10579696278E+03 -0.14992054573E+03  0.18612816532E+03  0.00000000000E+00 0.  1.
         21    1    1    2  504  501  0.31217407936E+02 -0.10579696278E+03  0.42015942063E+02  0.11803755030E+03  0.00000000000E+00 0.  1.
<mgrwt>
<rscale>  2 0.11030650E+03</rscale>
<asrwt>0</asrwt>
<pdfrwt beam="1">  1       21 0.15097009E-01 0.11030650E+03</pdfrwt>
<pdfrwt beam="2">  1       21 0.31697717E-01 0.11030650E+03</pdfrwt>
<totfact> 0.37603551E+05</totfact>
</mgrwt>
</event>
<event>
 4    1  0.5810391E+003  0.1005138E+03  0.7546771E-02  0.1279219E+00
         21   -1    0    0  503  501  0.00000000000E+00  0.00000000000E+00  0.11234532357E+04  0.11234532357E+04  0.00000000000E+00 0.  1.
         21   -1    0    0  504  502 -0.00000000000E+00 -0.00000000000E+00 -0.98397564760E+01  0.98397564760E+01  0.00000000000E+00 0.  1.
         21    1    1    2  503  502 -0.33888340607E+00  0.10051322655E+03  0.39056388781E+03  0.40329043382E+03  0.00000000000E+00 0.  1.
         21    1    1    2  504  501  0.33888340607E+00 -0.10051322655E+03  0.72304959143E+03  0.73000255837E+03  0.00000000000E+00 0.  1.
<mgrwt>
<rscale>  2 0.10051380E+03</rscale>
<asrwt>0</asrwt>
<pdfrwt beam="1">  1       21 0.17283886E+00 0.10051380E+03</pdfrwt>
<pdfrwt beam="2">  1       21 0.15138096E-02 0.10051380E+03</pdfrwt>
<totfact> 0.40730584E+05</totfact>
</mgrwt>
</event>
<event>
 4    1  0.5810391E+003  0.1351746E+03  0.7546771E-02  0.1219973E+00
         21   -1    0    0  504  501  0.00000000000E+00  0.00000000000E+00  0.17539134959E+03  0.17539134959E+03  0.00000000000E+00 0.  1.
         21   -1    0    0  503  502 -0.00000000000E+00 -0.00000000000E+00 -0.48443799529E+03  0.48443799529E+03  0.00000000000E+00 0.  1.
         21    1    1    2  503  501  0.47166650964E+02  0.12667860170E+03 -0.44681878010E+03  0.46681814804E+03  0.00000000000E+00 0.  1.
         21    1    1    2  504  502 -0.47166650964E+02 -0.12667860170E+03  0.13777213440E+03  0.19301119685E+03  0.00000000000E+00 0.  1.
<mgrwt>
<rscale>  2 0.13517456E+03</rscale>
<asrwt>0</asrwt>
<pdfrwt beam="1">  1       21 0.26983285E-01 0.13517456E+03</pdfrwt>
<pdfrwt beam="2">  1       21 0.74528921E-01 0.13517456E+03</pdfrwt>
<totfact> 0.21882968E+04</totfact>
</mgrwt>
</event>
<event>
 4    1  0.5810391E+003  0.1560455E+03  0.7546771E-02  0.1193235E+00
         21   -1    0    0  504  501  0.00000000000E+00  0.00000000000E+00  0.17763017989E+02  0.17763017989E+02  0.00000000000E+00 0. -1.
         21   -1    0    0  503  502 -0.00000000000E+00 -0.00000000000E+00 -0.14151931705E+04  0.14151931705E+04  0.00000000000E+00 0. -1.
         21    1    1    2  503  501  0.51819019321E+01  0.15595940252E+03 -0.57186924562E+03  0.59277704192E+03  0.00000000000E+00 0. -1.
         21    1    1    2  504  502 -0.51819019321E+01 -0.15595940252E+03 -0.82556090688E+03  0.84017914656E+03  0.00000000000E+00 0. -1.
<mgrwt>
<rscale>  2 0.15604547E+03</rscale>
<asrwt>0</asrwt>
<pdfrwt beam="1">  1       21 0.27327716E-02 0.15604547E+03</pdfrwt>
<pdfrwt beam="2">  1       21 0.21772206E+00 0.15604547E+03</pdfrwt>
<totfact> 0.78611004E+04</totfact>
</mgrwt>
</event>
<event>
 4    1  0.5810391E+003  0.1029806E+03  0.7546771E-02  0.1274150E+00
         21   -1    0    0  504  501  0.00000000000E+00  0.00000000000E+00  0.29147184795E+03  0.29147184795E+03  0.00000000000E+00 0.  1.
         21   -1    0    0  503  502 -0.00000000000E+00 -0.00000000000E+00 -0.40142396348E+02  0.40142396348E+02  0.00000000000E+00 0.  1.
         21    1    1    2  503  501 -0.66752226475E+02 -0.78416474810E+02  0.74932411347E+02  0.12735725159E+03  0.00000000000E+00 0.  1.
         21    1    1    2  504  502  0.66752226475E+02  0.78416474810E+02  0.17639704025E+03  0.20425699271E+03  0.00000000000E+00 0.  1.
<mgrwt>
<rscale>  2 0.10298060E+03</rscale>
<asrwt>0</asrwt>
<pdfrwt beam="1">  1       21 0.44841821E-01 0.10298060E+03</pdfrwt>
<pdfrwt beam="2">  1       21 0.61757535E-02 0.10298060E+03</pdfrwt>
<totfact> 0.89694995E+05</totfact>
</mgrwt>
</event>
<event>
 4    1  0.5810391E+003  0.1118677E+03  0.7546771E-02  0.1257150E+00
         21   -1    0    0  503  501  0.00000000000E+00  0.00000000000E+00  0.11070591281E+03  0.11070591281E+03  0.00000000000E+00 0.  1.
         21   -1    0    0  504  502 -0.00000000000E+00 -0.00000000000E+00 -0.11776174247E+03  0.11776174247E+03  0.00000000000E+00 0.  1.
         21    1    1    2  503  502 -0.85961156807E+02 -0.71589606572E+02 -0.26397715808E+02  0.11494012201E+03  0.00000000000E+00 0.  1.
         21    1    1    2  504  501  0.85961156807E+02  0.71589606572E+02  0.19341886146E+02  0.11352753326E+03  0.00000000000E+00 0.  1.
<mgrwt>
<rscale>  2 0.11186774E+03</rscale>
<asrwt>0</asrwt>
<pdfrwt beam="1">  1       21 0.17031679E-01 0.11186774E+03</pdfrwt>
<pdfrwt beam="2">  1       21 0.18117191E-01 0.11186774E+03</pdfrwt>
<totfact> 0.86370475E+05</totfact>
</mgrwt>
</event>
<event>
 4    1  0.5810391E+003  0.1217749E+03  0.7546771E-02  0.1240197E+00
         21   -1    0    0  502  501  0.00000000000E+00  0.00000000000E+00  0.10135317922E+03  0.10135317922E+03  0.00000000000E+00 0.  1.
         21   -1    0    0  503  502 -0.00000000000E+00 -0.00000000000E+00 -0.23932184932E+03  0.23932184932E+03  0.00000000000E+00 0.  1.
         21    1    1    2  503  504 -0.10676660465E+03 -0.58566257497E+02 -0.17517473550E+03  0.21334315631E+03  0.00000000000E+00 0.  1.
         21    1    1    2  504  501  0.10676660465E+03  0.58566257497E+02  0.37206065397E+02  0.12733187224E+03  0.00000000000E+00 0.  1.
<mgrwt>
<rscale>  2 0.12177485E+03</rscale>
<asrwt>0</asrwt>
<pdfrwt beam="1">  1       21 0.15592797E-01 0.12177485E+03</pdfrwt>
<pdfrwt beam="2">  1       21 0.36818745E-01 0.12177485E+03</pdfrwt>
<totfact> 0.26426670E+05</totfact>
</mgrwt>
</event>
<event>
 4    1  0.5810391E+003  0.1448626E+03  0.7546771E-02  0.1206932E+00
         21   -1    0    0  504  501  0.00000000000E+00  0.00000000000E+00  0.51505165225E+02  0.51505165225E+02  0.00000000000E+00 0.  1.
         21   -1    0    0  503  502 -0.00000000000E+00 -0.00000000000E+00 -0.40930256121E+03  0.40930256121E+03  0.00000000000E+00 0.  1.
         21    1    1    2  503  501  0.13602053507E+03 -0.49835728937E+02 -0.19444763934E+03  0.24247694794E+03  0.00000000000E+00 0.  1.
         21    1    1    2  504  502 -0.13602053507E+03  0.49835728937E+02 -0.16334975665E+03  0.21833077849E+03  0.00000000000E+00 0.  1.
<mgrwt>
<rscale>  2 0.14486264E+03</rscale>
<asrwt>0</asrwt>
<pdfrwt beam="1">  1       21 0.79238717E-02 0.14486264E+03</pdfrwt>
<pdfrwt beam="2">  1       21 0.62969623E-01 0.14486264E+03</pdfrwt>
<totfact> 0.28816123E+05</totfact>
</mgrwt>
</event>
<event>
 4    1  0.5810391E+003  0.1319193E+03  0.7546771E-02  0.1224635E+00
         21   -1    0    0  502  501  0.00000000000E+00  0.00000000000E+00  0.30818782492E+02  0.30818782492E+02  0.00000000000E+00 0.  1.
         21   -1    0    0  503  502 -0.00000000000E+00 -0.00000000000E+00 -0.11097248238E+04  0.11097248238E+04  0.00000000000E+00 0.  1.
         21    1    1    2  503  504  0.16302213168E+02  0.13090810615E+03 -0.93911338300E+03  0.94833361247E+03  0.00000000000E+00 0.  1.
         21    1    1    2  504  501 -0.16302213168E+02 -0.13090810615E+03 -0.13979265832E+03  0.19220999384E+03  0.00000000000E+00 0.  1.
<mgrwt>
<rscale>  2 0.13191927E+03</rscale>
<asrwt>0</asrwt>
<pdfrwt beam="1">  1       21 0.47413512E-02 0.13191927E+03</pdfrwt>
<pdfrwt beam="2">  1       21 0.17072689E+00 0.13191927E+03</pdfrwt>
<totfact> 0.64390713E+04</totfact>
</mgrwt>
</event>
<event>
 4    1  0.5810391E+003  0.1355721E+03  0.7546771E-02  0.1219414E+00
         21   -1    0    0  503  501  0.00000000000E+00  0.00000000000E+00  0.36675619481E+03  0.36675619481E+03  0.00000000000E+00 0.  1.
         21   -1    0    0  504  502 -0.00000000000E+00 -0.00000000000E+00 -0.73082238028E+02  0.73082238028E+02  0.00000000000E+00 0.  1.
         21    1    1    2  503  502 -0.94653607740E+02  0.97059142160E+02  0.23550085056E+02  0.13760228574E+03  0.00000000000E+00 0.  1.
         21    1    1    2  504  501  0.94653607740E+02 -0.97059142160E+02  0.27012387173E+03  0.30223614710E+03  0.00000000000E+00 0.  1.
<mgrwt>
<rscale>  2 0.13557206E+03</rscale>
<asrwt>0</asrwt>
<pdfrwt beam="1">  1       21 0.56424029E-01 0.13557206E+03</pdfrwt>
<pdfrwt beam="2">  1       21 0.11243421E-01 0.13557206E+03</pdfrwt>
<totfact> 0.19795729E+05</totfact>
</mgrwt>
</event>
<event>
 4    1  0.5810391E+003  0.1203570E+03  0.7546771E-02  0.1242509E+00
         21   -1    0    0  502  501  0.00000000000E+00  0.00000000000E+00  0.27664813338E+04  0.27664813338E+04  0.00000000000E+00 0. -1.
         21   -1    0    0  504  502 -0.00000000000E+00 -0.00000000000E+00 -0.75469112228E+02  0.75469112228E+02  0.00000000000E+00 0. -1.
         21    1    1    2  503  501  0.51278516479E+02 -0.10888672094E+03  0.27163003602E+04  0.27189655112E+04  0.00000000000E+00 0. -1.
         21    1    1    2  504  503 -0.51278516479E+02  0.10888672094E+03 -0.25288138596E+02  0.12298493486E+03  0.00000000000E+00 0. -1.
<mgrwt>
<rscale>  2 0.12035699E+03</rscale>
<asrwt>0</asrwt>
<pdfrwt beam="1">  1       21 0.42561243E+00 0.12035699E+03</pdfrwt>
<pdfrwt beam="2">  1       21 0.11610635E-01 0.12035699E+03</pdfrwt>
<totfact> 0.43546888E+02</totfact>
</mgrwt>
</event>
<event>
 4    1  0.5810391E+003  0.1063918E+03  0.7546771E-02  0.1267401E+00
         21   -1    0    0  503  501  0.00000000000E+00  0.00000000000E+00  0.73377581341E+01  0.73377581341E+01  0.00000000000E+00 0. -1.
         21   -1    0    0  504  502 -0.00000000000E+00 -0.00000000000E+00 -0.15626498787E+04  0.15626498787E+04  0.00000000000E+00 0. -1.
         21    1    1    2  503  502 -0.89597520099E+02 -0.57371622767E+02 -0.68873562330E+03  0.69690456844E+03  0.00000000000E+00 0. -1.
         21    1    1    2  504  501  0.89597520099E+02  0.57371622767E+02 -0.86657649728E+03  0.87308306841E+03  0.00000000000E+00 0. -1.
<mgrwt>
<rscale>  2 0.10639182E+03</rscale>
<asrwt>0</asrwt>
<pdfrwt beam="1">  1       21 0.11288865E-02 0.10639182E+03</pdfrwt>
<pdfrwt beam="2">  1       21 0.24040754E+00 0.10639182E+03</pdfrwt>
<totfact> 0.24790236E+05</totfact>
</mgrwt>
</event>
<event>
 4    1  0.5810391E+003  0.1187869E+03  0.7546771E-02  0.1245112E+00
         21   -1    0    0  503  501  0.00000000000E+00  0.00000000000E+00  0.26221556481E+03  0.26221556481E+03  0.00000000000E+00 0. -1.
         21   -1    0    0  504  502 -0.00000000000E+00 -0.00000000000E+00 -0.56604920126E+02  0.56604920126E+02  0.00000000000E+00 0. -1.
         21    1    1    2  503  502  0.53212515589E+02  0.10620143439E+03  0.67395272310E+02  0.13657393314E+03  0.00000000000E+00 0. -1.
         21    1    1    2  504  501 -0.53212515589E+02 -0.10620143439E+03  0.13821537237E+03  0.18224655180E+03  0.00000000000E+00 0. -1.
<mgrwt>
<rscale>  2 0.11878685E+03</rscale>
<asrwt>0</asrwt>
<pdfrwt beam="1">  1       21 0.40340856E-01 0.11878685E+03</pdfrwt>
<pdfrwt beam="2">  1       21 0.87084494E-02 0.11878685E+03</pdfrwt>
<totfact> 0.61682509E+05</totfact>
</mgrwt>
</event>
<event>
 4    1  0.5810391E+003  0.1008293E+03  0.7546771E-02  0.1278562E+00
         21   -1    0    0  503  501  0.00000000000E+00  0.00000000000E+00  0.13138294297E+03  0.13138294297E+03  0.00000000000E+00 0.  1.
         21   -1    0    0  504  502 -0.00000000000E+00 -0.00000000000E+00 -0.25499060704E+03  0.25499060704E+03  0.00000000000E+00 0. -1.
         21    1    1    2  503  502 -0.55447327275E+02  0.84214871073E+02  0.99427136102E+02  0.14160616514E+03  0.00000000000E+00 0.  1.
         21    1    1    2  504  501  0.55447327275E+02 -0.84214871073E+02 -0.22303480017E+03  0.24476738488E+03  0.00000000000E+00 0. -1.
<mgrwt>
<rscale>  2 0.10082931E+03</rscale>
<asrwt>0</asrwt>
<pdfrwt beam="1">  1       21 0.20212761E-01 0.10082931E+03</pdfrwt>
<pdfrwt beam="2">  1       21 0.39229324E-01 0.10082931E+03</pdfrwt>
<totfact> 0.14620495E+05</totfact>
</mgrwt>
</event>
<event>
 4    1  0.5810391E+003  0.1541949E+03  0.7546771E-02  0.1195411E+00
         21   -1    0    0  503  501  0.00000000000E+00  0.00000000000E+00  0.36630087724E+03  0.36630087724E+03  0.00000000000E+00 0.  1.
         21   -1    0    0  501  502 -0.00000000000E+00 -0.00000000000E+00 -0.47804272126E+03  0.47804272126E+03  0.00000000000E+00 0.  1.
         21    1    1    2  503  504  0.15235728436E+03 -0.23734388307E+02  0.33659451583E+03  0.37023226679E+03  0.00000000000E+00 0.  1.
         21    1    1    2  504  502 -0.15235728436E+03  0.23734388307E+02 -0.44833635985E+03  0.47411133170E+03  0.00000000000E+00 0.  1.
<mgrwt>
<rscale>  2 0.15419489E+03</rscale>
<asrwt>0</asrwt>
<pdfrwt beam="1">  1       21 0.56353981E-01 0.15419489E+03</pdfrwt>
<pdfrwt beam="2">  1       21 0.73545034E-01 0.15419489E+03</pdfrwt>
<totfact> 0.50814388E+03</totfact>
</mgrwt>
</event>
<event>
 4    1  0.5810391E+003  0.2004848E+03  0.7546771E-02  0.1149331E+00
         21   -1    0    0  503  501  0.00000000000E+00  0.00000000000E+00  0.95642840352E+02  0.95642840352E+02  0.00000000000E+00 0.  1.
         21   -1    0    0  504  502 -0.00000000000E+00 -0.00000000000E+00 -0.42025615798E+03  0.42025615798E+03  0.00000000000E+00 0.  1.
         21    1    1    2  503  502  0.97075817365E+01 -0.20024963528E+03 -0.16305583424E+03  0.25842089438E+03  0.00000000000E+00 0.  1.
         21    1    1    2  504  501 -0.97075817365E+01  0.20024963528E+03 -0.16155748339E+03  0.25747810395E+03  0.00000000000E+00 0.  1.
<mgrwt>
<rscale>  2 0.20048480E+03</rscale>
<asrwt>0</asrwt>
<pdfrwt beam="1">  1       21 0.14714283E-01 0.20048480E+03</pdfrwt>
<pdfrwt beam="2">  1       21 0.64654794E-01 0.20048480E+03</pdfrwt>
<totfact> 0.89277089E+04</totfact>
</mgrwt>
</event>
<event>
 4    1  0.5810391E+003  0.1141235E+03  0.7546771E-02  0.1253119E+00
         21   -1    0    0  504  501  0.00000000000E+00  0.00000000000E+00  0.38562541146E+02  0.38562541146E+02  0.00000000000E+00 0.  1.
         21   -1    0    0  503  502 -0.00000000000E+00 -0.00000000000E+00 -0.57887321423E+03  0.57887321423E+03  0.00000000000E+00 0.  1.
         21    1    1    2  503  501  0.99931041319E+02 -0.55117611321E+02 -0.70905777488E+02  0.13435696252E+03  0.00000000000E+00 0.  1.
         21    1    1    2  504  502 -0.99931041319E+02  0.55117611321E+02 -0.46940489560E+03  0.48307879286E+03  0.00000000000E+00 0.  1.
<mgrwt>
<rscale>  2 0.11412346E+03</rscale>
<asrwt>0</asrwt>
<pdfrwt beam="1">  1       21 0.59326989E-02 0.11412346E+03</pdfrwt>
<pdfrwt beam="2">  1       21 0.89057414E-01 0.11412346E+03</pdfrwt>
<totfact> 0.22145369E+05</totfact>
</mgrwt>
</event>
<event>
 4    1  0.5810391E+003  0.2482519E+03  0.7546771E-02  0.1114415E+00
         21   -1    0    0  504  501  0.00000000000E+00  0.00000000000E+00  0.21000401298E+03  0.21000401298E+03  0.00000000000E+00 0. -1.
         21   -1    0    0  503  502 -0.00000000000E+00 -0.00000000000E+00 -0.29997800289E+03  0.29997800289E+03  0.00000000000E+00 0. -1.
         21    1    1    2  503  501  0.24786007290E+03 -0.13942768084E+02 -0.82556961817E+02  0.26161931975E+03  0.00000000000E+00 0. -1.
         21    1    1    2  504  502 -0.24786007290E+03  0.13942768084E+02 -0.74170280959E+01  0.24836269612E+03  0.00000000000E+00 0. -1.
<mgrwt>
<rscale>  2 0.24825192E+03</rscale>
<asrwt>0</asrwt>
<pdfrwt beam="1">  1       21 0.32308310E-01 0.24825192E+03</pdfrwt>
<pdfrwt beam="2">  1       21 0.46150462E-01 0.24825192E+03</pdfrwt>
<totfact> 0.40397898E+04</totfact>
</mgrwt>
</event>
<event>
 4    1  0.5810391E+003  0.1504904E+03  0.7546771E-02  0.1199872E+00
         21   -1    0    0  504  501  0.00000000000E+00  0.00000000000E+00  0.49952636767E+03  0.49952636767E+03  0.00000000000E+00 0.  1.
         21   -1    0    0  503  502 -0.00000000000E+00 -0.00000000000E+00 -0.47645586867E+02  0.47645586867E+02  0.00000000000E+00 0.  1.
         21    1    1    2  503  501 -0.12955699240E+03 -0.76566050027E+02  0.28615337921E+03  0.32331274446E+03  0.00000000000E+00 0.  1.
         21    1    1    2  504  502  0.12955699240E+03  0.76566050027E+02  0.16572740159E+03  0.22385921007E+03  0.00000000000E+00 0.  1.
<mgrwt>
<rscale>  2 0.15049045E+03</rscale>
<asrwt>0</asrwt>
<pdfrwt beam="1">  1       21 0.76850207E-01 0.15049045E+03</pdfrwt>
<pdfrwt beam="2">  1       21 0.73300906E-02 0.15049045E+03</pdfrwt>
<totfact> 0.21293240E+05</totfact>
</mgrwt>
</event>
<event>
 4    1  0.5810391E+003  0.1166174E+03  0.7546771E-02  0.1248784E+00
         21   -1    0    0  504  501  0.00000000000E+00  0.00000000000E+00  0.10083847403E+04  0.10083847403E+04  0.00000000000E+00 0.  1.
         21   -1    0    0  501  502 -0.00000000000E+00 -0.00000000000E+00 -0.19988225526E+02  0.19988225526E+02  0.00000000000E+00 0.  1.
         21    1    1    2  503  502 -0.11408580009E+03 -0.24167035889E+02  0.20094239362E+03  0.23233049942E+03  0.00000000000E+00 0.  1.
         21    1    1    2  504  503  0.11408580009E+03  0.24167035889E+02  0.78745412118E+03  0.79604246644E+03  0.00000000000E+00 0.  1.
<mgrwt>
<rscale>  2 0.11661739E+03</rscale>
<asrwt>0</asrwt>
<pdfrwt beam="1">  1       21 0.15513607E+00 0.11661739E+03</pdfrwt>
<pdfrwt beam="2">  1       21 0.30751124E-02 0.11661739E+03</pdfrwt>
<totfact> 0.17174090E+05</totfact>
</mgrwt>
</event>
<event>
 4    1  0.5810391E+003  0.1046408E+03  0.7546771E-02  0.1270829E+00
         21   -1    0    0  502  501  0.00000000000E+00  0.00000000000E+00  0.10323895189E+03  0.10323895189E+03  0.00000000000E+00 0.  1.
         21   -1    0    0  504  502 -0.00000000000E+00 -0.00000000000E+00 -0.18594811405E+03  0.18594811405E+03  0.00000000000E+00 0.  1.
         21    1    1    2  503  501  0.61141772460E+02  0.84919873008E+02  0.53419455843E+02  0.11748761396E+03  0.00000000000E+00 0.  1.
         21    1    1    2  504  503 -0.61141772460E+02 -0.84919873008E+02 -0.13612861800E+03  0.17169945198E+03  0.00000000000E+00 0.  1.
<mgrwt>
<rscale>  2 0.10464082E+03</rscale>
<asrwt>0</asrwt>
<pdfrwt beam="1">  1       21 0.15882916E-01 0.10464082E+03</pdfrwt>
<pdfrwt beam="2">  1       21 0.28607402E-01 0.10464082E+03</pdfrwt>
<totfact> 0.41818437E+05</totfact>
</mgrwt>
</event>
<event>
 4    1  0.5810391E+003  0.1245242E+03  0.7546771E-02  0.1235815E+00
         21   -1    0    0  504  501  0.00000000000E+00  0.00000000000E+00  0.31621178508E+03  0.31621178508E+03  0.00000000000E+00 0. -1.
         21   -1    0    0  503  502 -0.00000000000E+00 -0.00000000000E+00 -0.69998468347E+02  0.69998468347E+02  0.00000000000E+00 0.  1.
         21    1    1    2  503  501  0.11687276212E+03  0.42977048180E+02  0.22877724040E+03  0.26047129385E+03  0.00000000000E+00 0. -1.
         21    1    1    2  504  502 -0.11687276212E+03 -0.42977048180E+02  0.17436076326E+02  0.12573895957E+03  0.00000000000E+00 0.  1.
<mgrwt>
<rscale>  2 0.12452417E+03</rscale>
<asrwt>0</asrwt>
<pdfrwt beam="1">  1       21 0.48647966E-01 0.12452417E+03</pdfrwt>
<pdfrwt beam="2">  1       21 0.10768995E-01 0.12452417E+03</pdfrwt>
<totfact> 0.29139693E+05</totfact>
</mgrwt>
</event>
<event>
 4    1  0.5810391E+003  0.1233571E+03  0.7546771E-02  0.1237659E+00
         21   -1    0    0  503  501  0.00000000000E+00  0.00000000000E+00  0.82741911394E+03  0.82741911394E+03  0.00000000000E+00 0. -1.
         21   -1    0    0  501  502 -0.00000000000E+00 -0.00000000000E+00 -0.67797584075E+02  0.67797584075E+02  0.00000000000E+00 0. -1.
         21    1    1    2  503  504  0.12121196137E+03  0.22905138765E+02  0.76191680986E+03  0.77183820203E+03  0.00000000000E+00 0. -1.
         21    1    1    2  504  502 -0.12121196137E+03 -0.22905138765E+02 -0.22952800000E+01  0.12337849598E+03  0.00000000000E+00 0. -1.
<mgrwt>
<rscale>  2 0.12335714E+03</rscale>
<asrwt>0</asrwt>
<pdfrwt beam="1">  1       21 0.12729524E+00 0.12335714E+03</pdfrwt>
<pdfrwt beam="2">  1       21 0.10430398E-01 0.12335714E+03</pdfrwt>
<totfact> 0.35847115E+04</totfact>
</mgrwt>
</event>
<event>
 4    1  0.5810391E+003  0.1389410E+03  0.7546771E-02  0.1214761E+00
         21   -1    0    0  504  501  0.00000000000E+00  0.00000000000E+00  0.14673967822E+03  0.14673967822E+03  0.00000000000E+00 0. -1.
         21   -1    0    0  503  502 -0.00000000000E+00 -0.00000000000E+00 -0.13405202256E+03  0.13405202256E+03  0.00000000000E+00 0. -1.
         21    1    1    2  503  501  0.13876877082E+03 -0.69164103689E+01  0.25498233402E+02  0.14126134784E+03  0.00000000000E+00 0. -1.
         21    1    1    2  504  502 -0.13876877082E+03  0.69164103689E+01 -0.12810577739E+02  0.13953035293E+03  0.00000000000E+00 0. -1.
<mgrwt>
<rscale>  2 0.13894103E+03</rscale>
<asrwt>0</asrwt>
<pdfrwt beam="1">  1       21 0.22575335E-01 0.13894103E+03</pdfrwt>
<pdfrwt beam="2">  1       21 0.20623388E-01 0.13894103E+03</pdfrwt>
<totfact> 0.40429216E+05</totfact>
</mgrwt>
</event>
<event>
 4    1  0.5810391E+003  0.1437064E+03  0.7546771E-02  0.1208427E+00
         21   -1    0    0  504  501  0.00000000000E+00  0.00000000000E+00  0.85882582172E+03  0.85882582172E+03  0.00000000000E+00 0.  1.
         21   -1    0    0  503  502 -0.00000000000E+00 -0.00000000000E+00 -0.34467414723E+02  0.34467414723E+02  0.00000000000E+00 0.  1.
         21    1    1    2  503  501  0.11035942253E+03 -0.92045229259E+02  0.65777343748E+03  0.67328851277E+03  0.00000000000E+00 0.  1.
         21    1    1    2  504  502 -0.11035942253E+03  0.92045229259E+02  0.16658496952E+03  0.22000472368E+03  0.00000000000E+00 0.  1.
<mgrwt>
<rscale>  2 0.14370639E+03</rscale>
<asrwt>0</asrwt>
<pdfrwt beam="1">  1       21 0.13212703E+00 0.14370639E+03</pdfrwt>
<pdfrwt beam="2">  1       21 0.53026798E-02 0.14370639E+03</pdfrwt>
<totfact> 0.10328846E+05</totfact>
</mgrwt>
</event>
<event>
 4    1  0.5810391E+003  0.1405364E+03  0.7546771E-02  0.1212609E+00
         21   -1    0    0  503  501  0.00000000000E+00  0.00000000000E+00  0.69728778075E+03  0.69728778075E+03  0.00000000000E+00 0.  1.
         21   -1    0    0  504  502 -0.00000000000E+00 -0.00000000000E+00 -0.28591869205E+02  0.28591869205E+02  0.00000000000E+00 0. -1.
         21    1    1    2  503  502  0.74966941817E+02  0.11887152404E+03  0.29926551688E+03  0.33062112937E+03  0.00000000000E+00 0. -1.
         21    1    1    2  504  501 -0.74966941817E+02 -0.11887152404E+03  0.36943039467E+03  0.39525852059E+03  0.00000000000E+00 0.  1.
<mgrwt>
<rscale>  2 0.14053641E+03</rscale>
<asrwt>0</asrwt>
<pdfrwt beam="1">  1       21 0.10727503E+00 0.14053641E+03</pdfrwt>
<pdfrwt beam="2">  1       21 0.43987496E-02 0.14053641E+03</pdfrwt>
<totfact> 0.23552071E+05</totfact>
</mgrwt>
</event>
<event>
 4    1  0.5810391E+003  0.1131418E+03  0.7546771E-02  0.1254860E+00
         21   -1    0    0  504  501  0.00000000000E+00  0.00000000000E+00  0.53032102992E+03  0.53032102992E+03  0.00000000000E+00 0. -1.
         21   -1    0    0  503  502 -0.00000000000E+00 -0.00000000000E+00 -0.50091512608E+02  0.50091512608E+02  0.00000000000E+00 0. -1.
         21    1    1    2  503  501  0.53318969085E+02  0.99790596782E+02  0.44900581571E+03  0.46304135691E+03  0.00000000000E+00 0. -1.
         21    1    1    2  504  502 -0.53318969085E+02 -0.99790596782E+02  0.31223701598E+02  0.11737118561E+03  0.00000000000E+00 0. -1.
<mgrwt>
<rscale>  2 0.11314184E+03</rscale>
<asrwt>0</asrwt>
<pdfrwt beam="1">  1       21 0.81587847E-01 0.11314184E+03</pdfrwt>
<pdfrwt beam="2">  1       21 0.77063869E-02 0.11314184E+03</pdfrwt>
<totfact> 0.17290592E+05</totfact>
</mgrwt>
</event>
<event>
 4    1  0.5810391E+003  0.1059601E+03  0.7546771E-02  0.1268239E+00
         21   -1    0    0  502  501  0.00000000000E+00  0.00000000000E+00  0.62953346145E+02  0.62953346145E+02  0.00000000000E+00 0.  1.
         21   -1    0    0  503  502 -0.00000000000E+00 -0.00000000000E+00 -0.27423517082E+03  0.27423517082E+03  0.00000000000E+00 0. -1.
         21    1    1    2  503  504  0.95530371750E+02  0.45842090601E+02 -0.20533362323E+03  0.23106156328E+03  0.00000000000E+00 0. -1.
         21    1    1    2  504  501 -0.95530371750E+02 -0.45842090601E+02 -0.59482014433E+01  0.10612695368E+03  0.00000000000E+00 0.  1.
<mgrwt>
<rscale>  2 0.10596013E+03</rscale>
<asrwt>0</asrwt>
<pdfrwt beam="1">  1       21 0.96851301E-02 0.10596013E+03</pdfrwt>
<pdfrwt beam="2">  1       21 0.42190027E-01 0.10596013E+03</pdfrwt>
<totfact> 0.46935758E+05</totfact>
</mgrwt>
</event>
<event>
 4    1  0.5810391E+003  0.1061208E+03  0.7546771E-02  0.1267927E+00
         21   -1    0    0  504  501  0.00000000000E+00  0.00000000000E+00  0.19064494270E+03  0.19064494270E+03  0.00000000000E+00 0. -1.
         21   -1    0    0  501  502 -0.00000000000E+00 -0.00000000000E+00 -0.95778018247E+02  0.95778018247E+02  0.00000000000E+00 0. -1.
         21    1    1    2  503  502  0.56691359505E+02 -0.89709046071E+02 -0.41224624451E+02  0.11384679552E+03  0.00000000000E+00 0. -1.
         21    1    1    2  504  503 -0.56691359505E+02  0.89709046071E+02  0.13609154890E+03  0.17257616542E+03  0.00000000000E+00 0. -1.
<mgrwt>
<rscale>  2 0.10612080E+03</rscale>
<asrwt>0</asrwt>
<pdfrwt beam="1">  1       21 0.29329991E-01 0.10612080E+03</pdfrwt>
<pdfrwt beam="2">  1       21 0.14735080E-01 0.10612080E+03</pdfrwt>
<totfact> 0.45617353E+05</totfact>
</mgrwt>
</event>
<event>
 4    1  0.5810391E+003  0.1004727E+03  0.7546771E-02  0.1279305E+00
         21   -1    0    0  504  501  0.00000000000E+00  0.00000000000E+00  0.35551620414E+03  0.35551620414E+03  0.00000000000E+00 0. -1.
         21   -1    0    0  503  502 -0.00000000000E+00 -0.00000000000E+00 -0.28490967411E+02  0.28490967411E+02  0.00000000000E+00 0. -1.
         21    1    1    2  503  501 -0.55571777818E+02  0.83705026223E+02  0.15234822096E+03  0.18249584744E+03  0.00000000000E+00 0. -1.
         21    1    1    2  504  502  0.55571777818E+02 -0.83705026223E+02  0.17467701577E+03  0.20151132410E+03  0.00000000000E+00 0. -1.
<mgrwt>
<rscale>  2 0.10047265E+03</rscale>
<asrwt>0</asrwt>
<pdfrwt beam="1">  1       21 0.54694798E-01 0.10047265E+03</pdfrwt>
<pdfrwt beam="2">  1       21 0.43832260E-02 0.10047265E+03</pdfrwt>
<totfact> 0.10597543E+06</totfact>
</mgrwt>
</event>
<event>
 4    1  0.5810391E+003  0.1263812E+03  0.7546771E-02  0.1232926E+00
         21   -1    0    0  504  501  0.00000000000E+00  0.00000000000E+00  0.80477007327E+02  0.80477007327E+02  0.00000000000E+00 0.  1.
         21   -1    0    0  503  502 -0.00000000000E+00 -0.00000000000E+00 -0.31595630340E+03  0.31595630340E+03  0.00000000000E+00 0.  1.
         21    1    1    2  503  501 -0.45075072550E+02 -0.11806962940E+03  0.31312940422E+01  0.12641995315E+03  0.00000000000E+00 0.  1.
         21    1    1    2  504  502  0.45075072550E+02  0.11806962940E+03 -0.23861059012E+03  0.27001335758E+03  0.00000000000E+00 0.  1.
<mgrwt>
<rscale>  2 0.12638117E+03</rscale>
<asrwt>0</asrwt>
<pdfrwt beam="1">  1       21 0.12381078E-01 0.12638117E+03</pdfrwt>
<pdfrwt beam="2">  1       21 0.48608663E-01 0.12638117E+03</pdfrwt>
<totfact> 0.22807432E+05</totfact>
</mgrwt>
</event>
<event>
 4    1  0.5810391E+003  0.1088941E+03  0.7546771E-02  0.1262632E+00
         21   -1    0    0  503  501  0.00000000000E+00  0.00000000000E+00  0.72447879411E+02  0.72447879411E+02  0.00000000000E+00 0.  1.
         21   -1    0    0  504  502 -0.00000000000E+00 -0.00000000000E+00 -0.16374505138E+03  0.16374505138E+03  0.00000000000E+00 0.  1.
         21    1    1    2  503  502 -0.82334059227E+02 -0.71267247161E+02 -0.48088547296E+02  0.11903959933E+03  0.00000000000E+00 0.  1.
         21    1    1    2  504  501  0.82334059227E+02  0.71267247161E+02 -0.43208624669E+02  0.11715333146E+03  0.00000000000E+00 0.  1.
<mgrwt>
<rscale>  2 0.10889407E+03</rscale>
<asrwt>0</asrwt>
<pdfrwt beam="1">  1       21 0.11145828E-01 0.10889407E+03</pdfrwt>
<pdfrwt beam="2">  1       21 0.25191546E-01 0.10889407E+03</pdfrwt>
<totfact> 0.99863035E+05</totfact>
</mgrwt>
</event>
<event>
 4    1  0.5810391E+003  0.1032012E+03  0.7546771E-02  0.1273705E+00
         21   -1    0    0  503  501  0.00000000000E+00  0.00000000000E+00  0.55836379690E+02  0.55836379690E+02  0.00000000000E+00 0. -1.
         21   -1    0    0  504  502 -0.00000000000E+00 -0.00000000000E+00 -0.32661836042E+03  0.32661836042E+03  0.00000000000E+00 0. -1.
         21    1    1    2  503  502  0.29037664286E+02 -0.99031779291E+02 -0.25872924551E+03  0.27855215264E+03  0.00000000000E+00 0. -1.
         21    1    1    2  504  501 -0.29037664286E+02  0.99031779291E+02 -0.12052735216E+02  0.10390258747E+03  0.00000000000E+00 0. -1.
<mgrwt>
<rscale>  2 0.10320116E+03</rscale>
<asrwt>0</asrwt>
<pdfrwt beam="1">  1       21 0.85902123E-02 0.10320116E+03</pdfrwt>
<pdfrwt beam="2">  1       21 0.50248978E-01 0.10320116E+03</pdfrwt>
<totfact> 0.40535595E+05</totfact>
</mgrwt>
</event>
<event>
 4    1  0.5810391E+003  0.1152423E+03  0.7546771E-02  0.1251159E+00
         21   -1    0    0  504  501  0.00000000000E+00  0.00000000000E+00  0.68890524429E+03  0.68890524429E+03  0.00000000000E+00 0. -1.
         21   -1    0    0  501  502 -0.00000000000E+00 -0.00000000000E+00 -0.26328721062E+03  0.26328721062E+03  0.00000000000E+00 0.  1.
         21    1    1    2  503  502 -0.20579320692E+02 -0.11338993364E+03 -0.24552583022E+03  0.27122632394E+03  0.00000000000E+00 0.  1.
         21    1    1    2  504  503  0.20579320692E+02  0.11338993364E+03  0.67114386389E+03  0.68096613097E+03  0.00000000000E+00 0. -1.
<mgrwt>
<rscale>  2 0.11524229E+03</rscale>
<asrwt>0</asrwt>
<pdfrwt beam="1">  1       21 0.10598542E+00 0.11524229E+03</pdfrwt>
<pdfrwt beam="2">  1       21 0.40505725E-01 0.11524229E+03</pdfrwt>
<totfact> 0.45220542E+03</totfact>
</mgrwt>
</event>
<event>
 4    1  0.5810391E+003  0.1263986E+03  0.7546771E-02  0.1232899E+00
         21   -1    0    0  504  501  0.00000000000E+00  0.00000000000E+00  0.19954307086E+03  0.19954307086E+03  0.00000000000E+00 0. -1.
         21   -1    0    0  503  502 -0.00000000000E+00 -0.00000000000E+00 -0.80636743996E+02  0.80636743996E+02  0.00000000000E+00 0. -1.
         21    1    1    2  503  501  0.31803676945E+02  0.12233209822E+03  0.47667341725E+02  0.13508808826E+03  0.00000000000E+00 0. -1.
         21    1    1    2  504  502 -0.31803676945E+02 -0.12233209822E+03  0.71238985143E+02  0.14509172660E+03  0.00000000000E+00 0. -1.
<mgrwt>
<rscale>  2 0.12639864E+03</rscale>
<asrwt>0</asrwt>
<pdfrwt beam="1">  1       21 0.30698934E-01 0.12639864E+03</pdfrwt>
<pdfrwt beam="2">  1       21 0.12405653E-01 0.12639864E+03</pdfrwt>
<totfact> 0.56720864E+05</totfact>
</mgrwt>
</event>
<event>
 4    1  0.5810391E+003  0.1146554E+03  0.7546771E-02  0.1252184E+00
         21   -1    0    0  503  501  0.00000000000E+00  0.00000000000E+00  0.63433065063E+03  0.63433065063E+03  0.00000000000E+00 0. -1.
         21   -1    0    0  504  502 -0.00000000000E+00 -0.00000000000E+00 -0.33162183191E+02  0.33162183191E+02  0.00000000000E+00 0.  1.
         21    1    1    2  503  502 -0.11321960054E+03  0.18087936020E+02  0.50498098929E+03  0.51783361316E+03  0.00000000000E+00 0. -1.
         21    1    1    2  504  501  0.11321960054E+03 -0.18087936020E+02  0.96187478147E+02  0.14965922066E+03  0.00000000000E+00 0.  1.
<mgrwt>
<rscale>  2 0.11465536E+03</rscale>
<asrwt>0</asrwt>
<pdfrwt beam="1">  1       21 0.97589322E-01 0.11465536E+03</pdfrwt>
<pdfrwt beam="2">  1       21 0.51018748E-02 0.11465536E+03</pdfrwt>
<totfact> 0.23136759E+05</totfact>
</mgrwt>
</event>
<event>
 4    1  0.5810391E+003  0.1299668E+03  0.7546771E-02  0.1227505E+00
         21   -1    0    0  502  501  0.00000000000E+00  0.00000000000E+00  0.14812910056E+03  0.14812910056E+03  0.00000000000E+00 0. -1.
         21   -1    0    0  504  502 -0.00000000000E+00 -0.00000000000E+00 -0.22978345143E+03  0.22978345143E+03  0.00000000000E+00 0.  1.
         21    1    1    2  503  501  0.52973053710E+02  0.11868123748E+03  0.93284363285E+02  0.15997922672E+03  0.00000000000E+00 0. -1.
         21    1    1    2  504  503 -0.52973053710E+02 -0.11868123748E+03 -0.17493871416E+03  0.21793332527E+03  0.00000000000E+00 0.  1.
<mgrwt>
<rscale>  2 0.12996684E+03</rscale>
<asrwt>0</asrwt>
<pdfrwt beam="1">  1       21 0.22789093E-01 0.12996684E+03</pdfrwt>
<pdfrwt beam="2">  1       21 0.35351300E-01 0.12996684E+03</pdfrwt>
<totfact> 0.14223378E+05</totfact>
</mgrwt>
</event>
<event>
 4    1  0.5810391E+003  0.1012868E+03  0.7546771E-02  0.1277613E+00
         21   -1    0    0  504  501  0.00000000000E+00  0.00000000000E+00  0.14380634790E+03  0.14380634790E+03  0.00000000000E+00 0. -1.
         21   -1    0    0  503  502 -0.00000000000E+00 -0.00000000000E+00 -0.12597082563E+03  0.12597082563E+03  0.00000000000E+00 0.  1.
         21    1    1    2  503  501  0.41848626656E+02 -0.92237272053E+02  0.97748340978E+02  0.14076135859E+03  0.00000000000E+00 0. -1.
         21    1    1    2  504  502 -0.41848626656E+02  0.92237272053E+02 -0.79912818718E+02  0.12901581494E+03  0.00000000000E+00 0.  1.
<mgrwt>
<rscale>  2 0.10128683E+03</rscale>
<asrwt>0</asrwt>
<pdfrwt beam="1">  1       21 0.22124054E-01 0.10128683E+03</pdfrwt>
<pdfrwt beam="2">  1       21 0.19380127E-01 0.10128683E+03</pdfrwt>
<totfact> 0.47246567E+05</totfact>
</mgrwt>
</event>
<event>
 4    1  0.5810391E+003  0.1444683E+03  0.7546771E-02  0.1207440E+00
         21   -1    0    0  504  501  0.00000000000E+00  0.00000000000E+00  0.10520113068E+04  0.10520113068E+04  0.00000000000E+00 0.  1.
         21   -1    0    0  503  502 -0.00000000000E+00 -0.00000000000E+00 -0.22032730080E+02  0.22032730080E+02  0.00000000000E+00 0.  1.
         21    1    1    2  503  501 -0.30573991026E+02  0.14119603924E+03  0.34554492533E+03  0.37452955270E+03  0.00000000000E+00 0.  1.
         21    1    1    2  504  502  0.30573991026E+02 -0.14119603924E+03  0.68443365135E+03  0.69951448414E+03  0.00000000000E+00 0.  1.
<mgrwt>
<rscale>  2 0.14446830E+03</rscale>
<asrwt>0</asrwt>
<pdfrwt beam="1">  1       21 0.16184785E+00 0.14446830E+03</pdfrwt>
<pdfrwt beam="2">  1       21 0.33896516E-02 0.14446830E+03</pdfrwt>
<totfact> 0.12902911E+05</totfact>
</mgrwt>
</event>
<event>
 4    1  0.5810391E+003  0.1183626E+03  0.7546771E-02  0.1245823E+00
         21   -1    0    0  502  501  0.00000000000E+00  0.00000000000E+00  0.39889881300E+03  0.39889881300E+03  0.00000000000E+00 0. -1.
         21   -1    0    0  504  502 -0.00000000000E+00 -0.00000000000E+00 -0.11771374077E+03  0.11771374077E+03  0.00000000000E+00 0.  1.
         21    1    1    2  503  501 -0.33938252006E+02 -0.11339272508E+03  0.35696021450E+03  0.37607221353E+03  0.00000000000E+00 0. -1.
         21    1    1    2  504  503  0.33938252006E+02  0.11339272508E+03 -0.75775142264E+02  0.14054034024E+03  0.00000000000E+00 0.  1.
<mgrwt>
<rscale>  2 0.11836264E+03</rscale>
<asrwt>0</asrwt>
<pdfrwt beam="1">  1       21 0.61369047E-01 0.11836264E+03</pdfrwt>
<pdfrwt beam="2">  1       21 0.18109807E-01 0.11836264E+03</pdfrwt>
<totfact> 0.70896047E+04</totfact>
</mgrwt>
</event>
<event>
 4    1  0.5810391E+003  0.1080325E+03  0.7546771E-02  0.1264257E+00
         21   -1    0    0  504  501  0.00000000000E+00  0.00000000000E+00  0.60560473493E+03  0.60560473493E+03  0.00000000000E+00 0. -1.
         21   -1    0    0  503  502 -0.00000000000E+00 -0.00000000000E+00 -0.46926691606E+02  0.46926691606E+02  0.00000000000E+00 0.  1.
         21    1    1    2  503  501  0.10197055557E+03  0.35679398344E+02  0.28873193812E+02  0.11182430411E+03  0.00000000000E+00 0.  1.
         21    1    1    2  504  502 -0.10197055557E+03 -0.35679398344E+02  0.52980484951E+03  0.54070712242E+03  0.00000000000E+00 0. -1.
<mgrwt>
<rscale>  2 0.10803247E+03</rscale>
<asrwt>0</asrwt>
<pdfrwt beam="1">  1       21 0.93169954E-01 0.10803247E+03</pdfrwt>
<pdfrwt beam="2">  1       21 0.72194915E-02 0.10803247E+03</pdfrwt>
<totfact> 0.14347775E+05</totfact>
</mgrwt>
</event>
<event>
 4    1  0.5810391E+003  0.1012822E+03  0.7546771E-02  0.1277622E+00
         21   -1    0    0  504  501  0.00000000000E+00  0.00000000000E+00  0.26534555634E+03  0.26534555634E+03  0.00000000000E+00 0.  1.
         21   -1    0    0  503  502 -0.00000000000E+00 -0.00000000000E+00 -0.65580838878E+02  0.65580838878E+02  0.00000000000E+00 0.  1.
         21    1    1    2  503  501  0.71544174195E+02 -0.71690455755E+02  0.20589614797E+03  0.22945874151E+03  0.00000000000E+00 0.  1.
         21    1    1    2  504  502 -0.71544174195E+02  0.71690455755E+02 -0.61314305122E+01  0.10146765370E+03  0.00000000000E+00 0.  1.
<mgrwt>
<rscale>  2 0.10128223E+03</rscale>
<asrwt>0</asrwt>
<pdfrwt beam="1">  1       21 0.40822393E-01 0.10128223E+03</pdfrwt>
<pdfrwt beam="2">  1       21 0.10089360E-01 0.10128223E+03</pdfrwt>
<totfact> 0.46703065E+05</totfact>
</mgrwt>
</event>
<event>
 4    1  0.5810391E+003  0.1089660E+03  0.7546771E-02  0.1262497E+00
         21   -1    0    0  503  501  0.00000000000E+00  0.00000000000E+00  0.21911550625E+03  0.21911550625E+03  0.00000000000E+00 0. -1.
         21   -1    0    0  501  502 -0.00000000000E+00 -0.00000000000E+00 -0.79876126086E+02  0.79876126086E+02  0.00000000000E+00 0.  1.
         21    1    1    2  503  504  0.27451600615E+01 -0.10893143246E+03  0.15439717152E+03  0.18897639920E+03  0.00000000000E+00 0. -1.
         21    1    1    2  504  502 -0.27451600615E+01  0.10893143246E+03 -0.15157791354E+02  0.11001523313E+03  0.00000000000E+00 0.  1.
<mgrwt>
<rscale>  2 0.10896602E+03</rscale>
<asrwt>0</asrwt>
<pdfrwt beam="1">  1       21 0.33710078E-01 0.10896602E+03</pdfrwt>
<pdfrwt beam="2">  1       21 0.12288635E-01 0.10896602E+03</pdfrwt>
<totfact> 0.48157849E+05</totfact>
</mgrwt>
</event>
<event>
 4    1  0.5810391E+003  0.1194038E+03  0.7546771E-02  0.1244084E+00
         21   -1    0    0  503  501  0.00000000000E+00  0.00000000000E+00  0.19323696666E+03  0.19323696666E+03  0.00000000000E+00 0.  1.
         21   -1    0    0  504  502 -0.00000000000E+00 -0.00000000000E+00 -0.20818003396E+03  0.20818003396E+03  0.00000000000E+00 0.  1.
         21    1    1    2  503  502  0.11233325934E+03  0.40478560143E+02  0.15379483771E+03  0.19470523130E+03  0.00000000000E+00 0.  1.
         21    1    1    2  504  501 -0.11233325934E+03 -0.40478560143E+02 -0.16873790502E+03  0.20671176932E+03  0.00000000000E+00 0.  1.
<mgrwt>
<rscale>  2 0.11940383E+03</rscale>
<asrwt>0</asrwt>
<pdfrwt beam="1">  1       21 0.29728764E-01 0.11940383E+03</pdfrwt>
<pdfrwt beam="2">  1       21 0.32027697E-01 0.11940383E+03</pdfrwt>
<totfact> 0.10458738E+05</totfact>
</mgrwt>
</event>
<event>
 4    1  0.5810391E+003  0.1645205E+03  0.7546771E-02  0.1183686E+00
         21   -1    0    0  503  501  0.00000000000E+00  0.00000000000E+00  0.17426305756E+03  0.17426305756E+03  0.00000000000E+00 0.  1.
         21   -1    0    0  504  502 -0.00000000000E+00 -0.00000000000E+00 -0.19020073455E+03  0.19020073455E+03  0.00000000000E+00 0. -1.
         21    1    1    2  503  502 -0.12363444203E+03 -0.10854275795E+03 -0.86004732423E+02  0.18564433619E+03  0.00000000000E+00 0. -1.
         21    1    1    2  504  501  0.12363444203E+03  0.10854275795E+03  0.70067055433E+02  0.17881945592E+03  0.00000000000E+00 0.  1.
<mgrwt>
<rscale>  2 0.16452053E+03</rscale>
<asrwt>0</asrwt>
<pdfrwt beam="1">  1       21 0.26809701E-01 0.16452053E+03</pdfrwt>
<pdfrwt beam="2">  1       21 0.29261651E-01 0.16452053E+03</pdfrwt>
<totfact> 0.14958541E+05</totfact>
</mgrwt>
</event>
<event>
 4    1  0.5810391E+003  0.1465195E+03  0.7546771E-02  0.1204816E+00
         21   -1    0    0  503  501  0.00000000000E+00  0.00000000000E+00  0.78023641116E+02  0.78023641116E+02  0.00000000000E+00 0. -1.
         21   -1    0    0  504  502 -0.00000000000E+00 -0.00000000000E+00 -0.42483863637E+03  0.42483863637E+03  0.00000000000E+00 0. -1.
         21    1    1    2  503  502 -0.10041427411E+02 -0.14617500523E+03 -0.24160369599E+02  0.14849810058E+03  0.00000000000E+00 0. -1.
         21    1    1    2  504  501  0.10041427411E+02  0.14617500523E+03 -0.32265462565E+03  0.35436417690E+03  0.00000000000E+00 0. -1.
<mgrwt>
<rscale>  2 0.14651950E+03</rscale>
<asrwt>0</asrwt>
<pdfrwt beam="1">  1       21 0.12003637E-01 0.14651950E+03</pdfrwt>
<pdfrwt beam="2">  1       21 0.65359790E-01 0.14651950E+03</pdfrwt>
<totfact> 0.12839817E+05</totfact>
</mgrwt>
</event>
<event>
 4    1  0.5810391E+003  0.1306526E+03  0.7546771E-02  0.1226491E+00
         21   -1    0    0  504  501  0.00000000000E+00  0.00000000000E+00  0.32699386896E+03  0.32699386896E+03  0.00000000000E+00 0. -1.
         21   -1    0    0  503  502 -0.00000000000E+00 -0.00000000000E+00 -0.32277185267E+03  0.32277185267E+03  0.00000000000E+00 0. -1.
         21    1    1    2  503  501 -0.38676047918E+02  0.12479692790E+03  0.29956359699E+03  0.32681563387E+03  0.00000000000E+00 0. -1.
         21    1    1    2  504  502  0.38676047918E+02 -0.12479692790E+03 -0.29534158070E+03  0.32295008776E+03  0.00000000000E+00 0. -1.
<mgrwt>
<rscale>  2 0.13065263E+03</rscale>
<asrwt>0</asrwt>
<pdfrwt beam="1">  1       21 0.50306749E-01 0.13065263E+03</pdfrwt>
<pdfrwt beam="2">  1       21 0.49657208E-01 0.13065263E+03</pdfrwt>
<totfact> 0.15182257E+04</totfact>
</mgrwt>
</event>
<event>
 4    1  0.5810391E+003  0.1773875E+03  0.7546771E-02  0.1170356E+00
         21   -1    0    0  503  501  0.00000000000E+00  0.00000000000E+00  0.42784591380E+03  0.42784591380E+03  0.00000000000E+00 0.  1.
         21   -1    0    0  504  502 -0.00000000000E+00 -0.00000000000E+00 -0.10814083349E+03  0.10814083349E+03  0.00000000000E+00 0.  1.
         21    1    1    2  503  502  0.15513842050E+03  0.86013915406E+02  0.82748455328E+01  0.17758039370E+03  0.00000000000E+00 0.  1.
         21    1    1    2  504  501 -0.15513842050E+03 -0.86013915406E+02  0.31143023478E+03  0.35840635359E+03  0.00000000000E+00 0.  1.
<mgrwt>
<rscale>  2 0.17738749E+03</rscale>
<asrwt>0</asrwt>
<pdfrwt beam="1">  1       21 0.65822447E-01 0.17738749E+03</pdfrwt>
<pdfrwt beam="2">  1       21 0.16637052E-01 0.17738749E+03</pdfrwt>
<totfact> 0.69292736E+04</totfact>
</mgrwt>
</event>
<event>
 4    1  0.5810391E+003  0.2094519E+03  0.7546771E-02  0.1142001E+00
         21   -1    0    0  503  501  0.00000000000E+00  0.00000000000E+00  0.13506727945E+03  0.13506727945E+03  0.00000000000E+00 0.  1.
         21   -1    0    0  501  502 -0.00000000000E+00 -0.00000000000E+00 -0.38840754055E+03  0.38840754055E+03  0.00000000000E+00 0.  1.
         21    1    1    2  503  504 -0.13369180614E+03  0.16123462613E+03 -0.20752093523E+02  0.21047744078E+03  0.00000000000E+00 0.  1.
         21    1    1    2  504  502  0.13369180614E+03 -0.16123462613E+03 -0.23258816758E+03  0.31299737921E+03  0.00000000000E+00 0.  1.
<mgrwt>
<rscale>  2 0.20945191E+03</rscale>
<asrwt>0</asrwt>
<pdfrwt beam="1">  1       21 0.20779582E-01 0.20945191E+03</pdfrwt>
<pdfrwt beam="2">  1       21 0.59755006E-01 0.20945191E+03</pdfrwt>
<totfact> 0.55728215E+04</totfact>
</mgrwt>
</event>
<event>
 4    1  0.5810391E+003  0.1128723E+03  0.7546771E-02  0.1255341E+00
         21   -1    0    0  504  501  0.00000000000E+00  0.00000000000E+00  0.17057493989E+02  0.17057493989E+02  0.00000000000E+00 0. -1.
         21   -1    0    0  501  502 -0.00000000000E+00 -0.00000000000E+00 -0.12892223711E+04  0.12892223711E+04  0.00000000000E+00 0. -1.
         21    1    1    2  503  502  0.71573826864E+02  0.87277441987E+02 -0.10596989741E+04  0.10656932393E+04  0.00000000000E+00 0. -1.
         21    1    1    2  504  503 -0.71573826864E+02 -0.87277441987E+02 -0.21246590307E+03  0.24058662586E+03  0.00000000000E+00 0. -1.
<mgrwt>
<rscale>  2 0.11287234E+03</rscale>
<asrwt>0</asrwt>
<pdfrwt beam="1">  1       21 0.26242299E-02 0.11287234E+03</pdfrwt>
<pdfrwt beam="2">  1       21 0.19834190E+00 0.11287234E+03</pdfrwt>
<totfact> 0.11408586E+05</totfact>
</mgrwt>
</event>
<event>
 4    1  0.5810391E+003  0.1152848E+03  0.7546771E-02  0.1251085E+00
         21   -1    0    0  502  501  0.00000000000E+00  0.00000000000E+00  0.29127579575E+03  0.29127579575E+03  0.00000000000E+00 0.  1.
         21   -1    0    0  503  502 -0.00000000000E+00 -0.00000000000E+00 -0.88333372915E+03  0.88333372915E+03  0.00000000000E+00 0. -1.
         21    1    1    2  503  504  0.10073923895E+03  0.56055336825E+02 -0.86796390088E+03  0.87558661952E+03  0.00000000000E+00 0. -1.
         21    1    1    2  504  501 -0.10073923895E+03 -0.56055336825E+02  0.27590596748E+03  0.29902290538E+03  0.00000000000E+00 0.  1.
<mgrwt>
<rscale>  2 0.11528484E+03</rscale>
<asrwt>0</asrwt>
<pdfrwt beam="1">  1       21 0.44811661E-01 0.11528484E+03</pdfrwt>
<pdfrwt beam="2">  1       21 0.13589750E+00 0.11528484E+03</pdfrwt>
<totfact> 0.20175848E+03</totfact>
</mgrwt>
</event>
<event>
 4    1  0.5810391E+003  0.1424491E+03  0.7546771E-02  0.1210071E+00
         21   -1    0    0  504  501  0.00000000000E+00  0.00000000000E+00  0.31637180340E+03  0.31637180340E+03  0.00000000000E+00 0. -1.
         21   -1    0    0  503  502 -0.00000000000E+00 -0.00000000000E+00 -0.18435249386E+03  0.18435249386E+03  0.00000000000E+00 0.  1.
         21    1    1    2  503  501 -0.11469807115E+03  0.84475511979E+02  0.26818157532E+03  0.30366612750E+03  0.00000000000E+00 0. -1.
         21    1    1    2  504  502  0.11469807115E+03 -0.84475511979E+02 -0.13616226577E+03  0.19705816976E+03  0.00000000000E+00 0.  1.
<mgrwt>
<rscale>  2 0.14244915E+03</rscale>
<asrwt>0</asrwt>
<pdfrwt beam="1">  1       21 0.48672585E-01 0.14244915E+03</pdfrwt>
<pdfrwt beam="2">  1       21 0.28361922E-01 0.14244915E+03</pdfrwt>
<totfact> 0.49095079E+04</totfact>
</mgrwt>
</event>
<event>
 4    1  0.5810391E+003  0.1067847E+03  0.7546771E-02  0.1266643E+00
         21   -1    0    0  504  501  0.00000000000E+00  0.00000000000E+00  0.60876333398E+03  0.60876333398E+03  0.00000000000E+00 0.  1.
         21   -1    0    0  503  502 -0.00000000000E+00 -0.00000000000E+00 -0.36065764755E+02  0.36065764755E+02  0.00000000000E+00 0.  1.
         21    1    1    2  503  501 -0.64198190041E+02 -0.85332067979E+02  0.50987138313E+03  0.52093358191E+03  0.00000000000E+00 0.  1.
         21    1    1    2  504  502  0.64198190041E+02  0.85332067979E+02  0.62826186099E+02  0.12389551683E+03  0.00000000000E+00 0.  1.
<mgrwt>
<rscale>  2 0.10678469E+03</rscale>
<asrwt>0</asrwt>
<pdfrwt beam="1">  1       21 0.93655890E-01 0.10678469E+03</pdfrwt>
<pdfrwt beam="2">  1       21 0.55485796E-02 0.10678469E+03</pdfrwt>
<totfact> 0.22149388E+05</totfact>
</mgrwt>
</event>
<event>
 4    1  0.5810391E+003  0.1029270E+03  0.7546771E-02  0.1274259E+00
         21   -1    0    0  502  501  0.00000000000E+00  0.00000000000E+00  0.24052154891E+03  0.24052154891E+03  0.00000000000E+00 0. -1.
         21   -1    0    0  503  502 -0.00000000000E+00 -0.00000000000E+00 -0.29025006572E+03  0.29025006572E+03  0.00000000000E+00 0.  1.
         21    1    1    2  503  504 -0.97198092237E+02 -0.33859923323E+02 -0.26928570965E+03  0.28828589449E+03  0.00000000000E+00 0.  1.
         21    1    1    2  504  501  0.97198092237E+02  0.33859923323E+02  0.21955719285E+03  0.24248572014E+03  0.00000000000E+00 0. -1.
<mgrwt>
<rscale>  2 0.10292698E+03</rscale>
<asrwt>0</asrwt>
<pdfrwt beam="1">  1       21 0.37003315E-01 0.10292698E+03</pdfrwt>
<pdfrwt beam="2">  1       21 0.44653856E-01 0.10292698E+03</pdfrwt>
<totfact> 0.35774068E+04</totfact>
</mgrwt>
</event>
<event>
 4    1  0.5810391E+003  0.1271505E+03  0.7546771E-02  0.1231746E+00
         21   -1    0    0  504  501  0.00000000000E+00  0.00000000000E+00  0.23879030002E+02  0.23879030002E+02  0.00000000000E+00 0. -1.
         21   -1    0    0  501  502 -0.00000000000E+00 -0.00000000000E+00 -0.80689871804E+03  0.80689871804E+03  0.00000000000E+00 0. -1.
         21    1    1    2  503  502  0.12624990420E+03  0.15106801094E+02 -0.55814522844E+03  0.57244506267E+03  0.00000000000E+00 0. -1.
         21    1    1    2  504  503 -0.12624990420E+03 -0.15106801094E+02 -0.22487445960E+03  0.25833268537E+03  0.00000000000E+00 0. -1.
<mgrwt>
<rscale>  2 0.12715052E+03</rscale>
<asrwt>0</asrwt>
<pdfrwt beam="1">  1       21 0.36736973E-02 0.12715052E+03</pdfrwt>
<pdfrwt beam="2">  1       21 0.12413825E+00 0.12715052E+03</pdfrwt>
<totfact> 0.22418791E+05</totfact>
</mgrwt>
</event>
<event>
 4    1  0.5810391E+003  0.1211638E+03  0.7546771E-02  0.1241189E+00
         21   -1    0    0  503  501  0.00000000000E+00  0.00000000000E+00  0.20227879182E+03  0.20227879182E+03  0.00000000000E+00 0. -1.
         21   -1    0    0  501  502 -0.00000000000E+00 -0.00000000000E+00 -0.96475377351E+02  0.96475377351E+02  0.00000000000E+00 0. -1.
         21    1    1    2  503  504  0.12030786523E+03  0.14376627956E+02  0.12724901453E+03  0.17570709025E+03  0.00000000000E+00 0. -1.
         21    1    1    2  504  502 -0.12030786523E+03 -0.14376627956E+02 -0.21445600056E+02  0.12304707892E+03  0.00000000000E+00 0. -1.
<mgrwt>
<rscale>  2 0.12116381E+03</rscale>
<asrwt>0</asrwt>
<pdfrwt beam="1">  1       21 0.31119814E-01 0.12116381E+03</pdfrwt>
<pdfrwt beam="2">  1       21 0.14842366E-01 0.12116381E+03</pdfrwt>
<totfact> 0.40118148E+05</totfact>
</mgrwt>
</event>
<event>
 4    1  0.5810391E+003  0.1218930E+03  0.7546771E-02  0.1240006E+00
         21   -1    0    0  503  501  0.00000000000E+00  0.00000000000E+00  0.22329581454E+04  0.22329581454E+04  0.00000000000E+00 0.  1.
         21   -1    0    0  504  502 -0.00000000000E+00 -0.00000000000E+00 -0.45501877805E+02  0.45501877805E+02  0.00000000000E+00 0. -1.
         21    1    1    2  503  502 -0.67351305632E+02  0.10159581161E+03  0.21463706280E+04  0.21498290119E+04  0.00000000000E+00 0.  1.
         21    1    1    2  504  501  0.67351305632E+02 -0.10159581161E+03  0.41085639573E+02  0.12863101137E+03  0.00000000000E+00 0. -1.
<mgrwt>
<rscale>  2 0.12189302E+03</rscale>
<asrwt>0</asrwt>
<pdfrwt beam="1">  1       21 0.34353194E+00 0.12189302E+03</pdfrwt>
<pdfrwt beam="2">  1       21 0.70002906E-02 0.12189302E+03</pdfrwt>
<totfact> 0.32349307E+03</totfact>
</mgrwt>
</event>
<event>
 4    1  0.5810391E+003  0.1363826E+03  0.7546771E-02  0.1218281E+00
         21   -1    0    0  503  501  0.00000000000E+00  0.00000000000E+00  0.13974827476E+04  0.13974827476E+04  0.00000000000E+00 0.  1.
         21   -1    0    0  504  502 -0.00000000000E+00 -0.00000000000E+00 -0.22543535527E+02  0.22543535527E+02  0.00000000000E+00 0.  1.
         21    1    1    2  503  502  0.13256257317E+03  0.32052934742E+02  0.11418754533E+04  0.11499912075E+04  0.00000000000E+00 0.  1.
         21    1    1    2  504  501 -0.13256257317E+03 -0.32052934742E+02  0.23306375882E+03  0.27003507569E+03  0.00000000000E+00 0.  1.
<mgrwt>
<rscale>  2 0.13638265E+03</rscale>
<asrwt>0</asrwt>
<pdfrwt beam="1">  1       21 0.21499728E+00 0.13638265E+03</pdfrwt>
<pdfrwt beam="2">  1       21 0.34682373E-02 0.13638265E+03</pdfrwt>
<totfact> 0.55970043E+04</totfact>
</mgrwt>
</event>
<event>
 4    1  0.5810391E+003  0.1066123E+03  0.7546771E-02  0.1266975E+00
         21   -1    0    0  503  501  0.00000000000E+00  0.00000000000E+00  0.12989720596E+03  0.12989720596E+03  0.00000000000E+00 0.  1.
         21   -1    0    0  504  502 -0.00000000000E+00 -0.00000000000E+00 -0.57260157419E+03  0.57260157419E+03  0.00000000000E+00 0.  1.
         21    1    1    2  503  502  0.10528771895E+03 -0.16753383418E+02 -0.54465169829E+03  0.55498797470E+03  0.00000000000E+00 0.  1.
         21    1    1    2  504  501 -0.10528771895E+03  0.16753383418E+02  0.10194733006E+03  0.14751080545E+03  0.00000000000E+00 0.  1.
<mgrwt>
<rscale>  2 0.10661229E+03</rscale>
<asrwt>0</asrwt>
<pdfrwt beam="1">  1       21 0.19984185E-01 0.10661229E+03</pdfrwt>
<pdfrwt beam="2">  1       21 0.88092550E-01 0.10661229E+03</pdfrwt>
<totfact> 0.27010139E+04</totfact>
</mgrwt>
</event>
<event>
 4    1  0.5810391E+003  0.1016222E+03  0.7546771E-02  0.1276921E+00
         21   -1    0    0  503  501  0.00000000000E+00  0.00000000000E+00  0.16574702978E+03  0.16574702978E+03  0.00000000000E+00 0. -1.
         21   -1    0    0  504  502 -0.00000000000E+00 -0.00000000000E+00 -0.16159139855E+03  0.16159139855E+03  0.00000000000E+00 0.  1.
         21    1    1    2  503  502 -0.58703806684E+02  0.82951424488E+02 -0.12621431685E+03  0.16204051815E+03  0.00000000000E+00 0.  1.
         21    1    1    2  504  501  0.58703806684E+02 -0.82951424488E+02  0.13036994809E+03  0.16529791018E+03  0.00000000000E+00 0. -1.
<mgrwt>
<rscale>  2 0.10162222E+03</rscale>
<asrwt>0</asrwt>
<pdfrwt beam="1">  1       21 0.25499543E-01 0.10162222E+03</pdfrwt>
<pdfrwt beam="2">  1       21 0.24860215E-01 0.10162222E+03</pdfrwt>
<totfact> 0.22841969E+05</totfact>
</mgrwt>
</event>
<event>
 4    1  0.5810391E+003  0.1404834E+03  0.7546771E-02  0.1212680E+00
         21   -1    0    0  503  501  0.00000000000E+00  0.00000000000E+00  0.13109514325E+03  0.13109514325E+03  0.00000000000E+00 0.  1.
         21   -1    0    0  501  502 -0.00000000000E+00 -0.00000000000E+00 -0.73155060086E+03  0.73155060086E+03  0.00000000000E+00 0. -1.
         21    1    1    2  503  504  0.51423655361E+02  0.13073331295E+03  0.84161158725E+02  0.16376413552E+03  0.00000000000E+00 0.  1.
         21    1    1    2  504  502 -0.51423655361E+02 -0.13073331295E+03 -0.68461661634E+03  0.69888160858E+03  0.00000000000E+00 0. -1.
<mgrwt>
<rscale>  2 0.14048342E+03</rscale>
<asrwt>0</asrwt>
<pdfrwt beam="1">  1       21 0.20168483E-01 0.14048342E+03</pdfrwt>
<pdfrwt beam="2">  1       21 0.11254625E+00 0.14048342E+03</pdfrwt>
<totfact> 0.14578518E+04</totfact>
</mgrwt>
</event>
<event>
 4    1  0.5810391E+003  0.1046810E+03  0.7546771E-02  0.1270749E+00
         21   -1    0    0  504  501  0.00000000000E+00  0.00000000000E+00  0.16535569761E+03  0.16535569761E+03  0.00000000000E+00 0.  1.
         21   -1    0    0  503  502 -0.00000000000E+00 -0.00000000000E+00 -0.99084348173E+02  0.99084348173E+02  0.00000000000E+00 0.  1.
         21    1    1    2  503  501 -0.74279822660E+02  0.73760549895E+02  0.10922557991E+03  0.15128892254E+03  0.00000000000E+00 0.  1.
         21    1    1    2  504  502  0.74279822660E+02 -0.73760549895E+02 -0.42954230477E+02  0.11315112324E+03  0.00000000000E+00 0.  1.
<mgrwt>
<rscale>  2 0.10468100E+03</rscale>
<asrwt>0</asrwt>
<pdfrwt beam="1">  1       21 0.25439338E-01 0.10468100E+03</pdfrwt>
<pdfrwt beam="2">  1       21 0.15243746E-01 0.10468100E+03</pdfrwt>
<totfact> 0.56236415E+05</totfact>
</mgrwt>
</event>
<event>
 4    1  0.5810391E+003  0.1460691E+03  0.7546771E-02  0.1205388E+00
         21   -1    0    0  503  501  0.00000000000E+00  0.00000000000E+00  0.14311211447E+04  0.14311211447E+04  0.00000000000E+00 0.  1.
         21   -1    0    0  501  502 -0.00000000000E+00 -0.00000000000E+00 -0.20798205351E+03  0.20798205351E+03  0.00000000000E+00 0.  1.
         21    1    1    2  503  504 -0.10050858473E+03  0.10599152391E+03  0.14012011513E+04  0.14087941102E+04  0.00000000000E+00 0.  1.
         21    1    1    2  504  502  0.10050858473E+03 -0.10599152391E+03 -0.17806206010E+03  0.23030908795E+03  0.00000000000E+00 0.  1.
<mgrwt>
<rscale>  2 0.14606909E+03</rscale>
<asrwt>0</asrwt>
<pdfrwt beam="1">  1       21 0.22017248E+00 0.14606909E+03</pdfrwt>
<pdfrwt beam="2">  1       21 0.31997240E-01 0.14606909E+03</pdfrwt>
<totfact> 0.10021458E+03</totfact>
</mgrwt>
</event>
<event>
 4    1  0.5810391E+003  0.1002899E+03  0.7546771E-02  0.1279688E+00
         21   -1    0    0  504  501  0.00000000000E+00  0.00000000000E+00  0.59206486040E+03  0.59206486040E+03  0.00000000000E+00 0.  1.
         21   -1    0    0  503  502 -0.00000000000E+00 -0.00000000000E+00 -0.21800765762E+03  0.21800765762E+03  0.00000000000E+00 0.  1.
         21    1    1    2  503  501  0.95457430159E+02 -0.30756088005E+02 -0.20190653916E+03  0.22544247266E+03  0.00000000000E+00 0.  1.
         21    1    1    2  504  502 -0.95457430159E+02  0.30756088005E+02  0.57596374194E+03  0.58463004537E+03  0.00000000000E+00 0.  1.
<mgrwt>
<rscale>  2 0.10028987E+03</rscale>
<asrwt>0</asrwt>
<pdfrwt beam="1">  1       21 0.91086901E-01 0.10028987E+03</pdfrwt>
<pdfrwt beam="2">  1       21 0.33539640E-01 0.10028987E+03</pdfrwt>
<totfact> 0.94845075E+03</totfact>
</mgrwt>
</event>
<event>
 4    1  0.5810391E+003  0.1019268E+03  0.7546771E-02  0.1276296E+00
         21   -1    0    0  502  501  0.00000000000E+00  0.00000000000E+00  0.79730278057E+03  0.79730278057E+03  0.00000000000E+00 0. -1.
         21   -1    0    0  504  502 -0.00000000000E+00 -0.00000000000E+00 -0.13094788147E+02  0.13094788147E+02  0.00000000000E+00 0. -1.
         21    1    1    2  503  501  0.10143336743E+03  0.10016900588E+02  0.36366086102E+03  0.37767484449E+03  0.00000000000E+00 0. -1.
         21    1    1    2  504  503 -0.10143336743E+03 -0.10016900588E+02  0.42054713141E+03  0.43272272423E+03  0.00000000000E+00 0. -1.
<mgrwt>
<rscale>  2 0.10192677E+03</rscale>
<asrwt>0</asrwt>
<pdfrwt beam="1">  1       21 0.12266193E+00 0.10192677E+03</pdfrwt>
<pdfrwt beam="2">  1       21 0.20145834E-02 0.10192677E+03</pdfrwt>
<totfact> 0.61814642E+05</totfact>
</mgrwt>
</event>
<event>
 4    1  0.5810391E+003  0.1604070E+03  0.7546771E-02  0.1188238E+00
         21   -1    0    0  504  501  0.00000000000E+00  0.00000000000E+00  0.87806899688E+03  0.87806899688E+03  0.00000000000E+00 0.  1.
         21   -1    0    0  503  502 -0.00000000000E+00 -0.00000000000E+00 -0.26873061989E+03  0.26873061989E+03  0.00000000000E+00 0. -1.
         21    1    1    2  503  501  0.14597307220E+03 -0.66500029429E+02 -0.23656564998E+03  0.28582109522E+03  0.00000000000E+00 0. -1.
         21    1    1    2  504  502 -0.14597307220E+03  0.66500029429E+02  0.84590402697E+03  0.86097852155E+03  0.00000000000E+00 0.  1.
<mgrwt>
<rscale>  2 0.16040696E+03</rscale>
<asrwt>0</asrwt>
<pdfrwt beam="1">  1       21 0.13508754E+00 0.16040696E+03</pdfrwt>
<pdfrwt beam="2">  1       21 0.41343173E-01 0.16040696E+03</pdfrwt>
<totfact> 0.22815870E+03</totfact>
</mgrwt>
</event>
<event>
 4    1  0.5810391E+003  0.2880694E+03  0.7546771E-02  0.1091361E+00
         21   -1    0    0  504  501  0.00000000000E+00  0.00000000000E+00  0.11341438864E+04  0.11341438864E+04  0.00000000000E+00 0. -1.
         21   -1    0    0  503  502 -0.00000000000E+00 -0.00000000000E+00 -0.12149833203E+03  0.12149833203E+03  0.00000000000E+00 0. -1.
         21    1    1    2  503  501  0.20159613100E+01  0.28806234551E+03  0.90228789148E+03  0.94715754662E+03  0.00000000000E+00 0. -1.
         21    1    1    2  504  502 -0.20159613100E+01 -0.28806234551E+03  0.11035766291E+03  0.30848467185E+03  0.00000000000E+00 0. -1.
<mgrwt>
<rscale>  2 0.28806940E+03</rscale>
<asrwt>0</asrwt>
<pdfrwt beam="1">  1       21 0.17448367E+00 0.28806940E+03</pdfrwt>
<pdfrwt beam="2">  1       21 0.18692052E-01 0.28806940E+03</pdfrwt>
<totfact> 0.48476580E+03</totfact>
</mgrwt>
</event>
<event>
 4    1  0.5810391E+003  0.2242596E+03  0.7546771E-02  0.1130747E+00
         21   -1    0    0  502  501  0.00000000000E+00  0.00000000000E+00  0.96304116642E+03  0.96304116642E+03  0.00000000000E+00 0.  1.
         21   -1    0    0  503  502 -0.00000000000E+00 -0.00000000000E+00 -0.48307639677E+03  0.48307639677E+03  0.00000000000E+00 0. -1.
         21    1    1    2  503  504  0.36985406578E+02  0.22118869685E+03 -0.44287614471E+03  0.49641881457E+03  0.00000000000E+00 0. -1.
         21    1    1    2  504  501 -0.36985406578E+02 -0.22118869685E+03  0.92284091435E+03  0.94969874861E+03  0.00000000000E+00 0.  1.
<mgrwt>
<rscale>  2 0.22425958E+03</rscale>
<asrwt>0</asrwt>
<pdfrwt beam="1">  1       21 0.14816018E+00 0.22425958E+03</pdfrwt>
<pdfrwt beam="2">  1       21 0.74319446E-01 0.22425958E+03</pdfrwt>
<totfact> 0.48417040E+02</totfact>
</mgrwt>
</event>
<event>
 4    1  0.5810391E+003  0.1151188E+03  0.7546771E-02  0.1251374E+00
         21   -1    0    0  504  501  0.00000000000E+00  0.00000000000E+00  0.69281527338E+03  0.69281527338E+03  0.00000000000E+00 0. -1.
         21   -1    0    0  503  502 -0.00000000000E+00 -0.00000000000E+00 -0.45336508830E+02  0.45336508830E+02  0.00000000000E+00 0. -1.
         21    1    1    2  503  501  0.66501073707E+01 -0.11492658619E+03  0.60435427751E+03  0.61522064082E+03  0.00000000000E+00 0. -1.
         21    1    1    2  504  502 -0.66501073707E+01  0.11492658619E+03  0.43124487041E+02  0.12293114139E+03  0.00000000000E+00 0. -1.
<mgrwt>
<rscale>  2 0.11511883E+03</rscale>
<asrwt>0</asrwt>
<pdfrwt beam="1">  1       21 0.10658696E+00 0.11511883E+03</pdfrwt>
<pdfrwt beam="2">  1       21 0.69748480E-02 0.11511883E+03</pdfrwt>
<totfact> 0.11087581E+05</totfact>
</mgrwt>
</event>
<event>
 4    1  0.5810391E+003  0.1930096E+03  0.7546771E-02  0.1155775E+00
         21   -1    0    0  503  501  0.00000000000E+00  0.00000000000E+00  0.46888316827E+02  0.46888316827E+02  0.00000000000E+00 0.  1.
         21   -1    0    0  501  502 -0.00000000000E+00 -0.00000000000E+00 -0.81658580590E+03  0.81658580590E+03  0.00000000000E+00 0.  1.
         21    1    1    2  503  504 -0.18558805541E+03  0.53007467015E+02 -0.31384430632E+03  0.36844398011E+03  0.00000000000E+00 0.  1.
         21    1    1    2  504  502  0.18558805541E+03 -0.53007467015E+02 -0.45585318275E+03  0.49503014261E+03  0.00000000000E+00 0.  1.
<mgrwt>
<rscale>  2 0.19300963E+03</rscale>
<asrwt>0</asrwt>
<pdfrwt beam="1">  1       21 0.72135873E-02 0.19300963E+03</pdfrwt>
<pdfrwt beam="2">  1       21 0.12562858E+00 0.19300963E+03</pdfrwt>
<totfact> 0.67641208E+04</totfact>
</mgrwt>
</event>
<event>
 4    1  0.5810391E+003  0.1076550E+03  0.7546771E-02  0.1264975E+00
         21   -1    0    0  503  501  0.00000000000E+00  0.00000000000E+00  0.55710695195E+03  0.55710695195E+03  0.00000000000E+00 0. -1.
         21   -1    0    0  501  502 -0.00000000000E+00 -0.00000000000E+00 -0.65109557318E+03  0.65109557318E+03  0.00000000000E+00 0.  1.
         21    1    1    2  503  504 -0.10521494969E+03  0.22790718593E+02  0.54737776994E+03  0.55786380553E+03  0.00000000000E+00 0. -1.
         21    1    1    2  504  502  0.10521494969E+03 -0.22790718593E+02 -0.64136639117E+03  0.65033871960E+03  0.00000000000E+00 0.  1.
<mgrwt>
<rscale>  2 0.10765502E+03</rscale>
<asrwt>0</asrwt>
<pdfrwt beam="1">  1       21 0.85708762E-01 0.10765502E+03</pdfrwt>
<pdfrwt beam="2">  1       21 0.10016855E+00 0.10765502E+03</pdfrwt>
<totfact> 0.10710097E+03</totfact>
</mgrwt>
</event>
<event>
 4    1  0.5810391E+003  0.1126407E+03  0.7546771E-02  0.1255756E+00
         21   -1    0    0  503  501  0.00000000000E+00  0.00000000000E+00  0.52762733818E+03  0.52762733818E+03  0.00000000000E+00 0. -1.
         21   -1    0    0  504  502 -0.00000000000E+00 -0.00000000000E+00 -0.24998976200E+02  0.24998976200E+02  0.00000000000E+00 0. -1.
         21    1    1    2  503  502  0.67850154926E+02  0.89912610180E+02  0.30523106623E+03  0.32535200135E+03  0.00000000000E+00 0. -1.
         21    1    1    2  504  501 -0.67850154926E+02 -0.89912610180E+02  0.19739729575E+03  0.22727431303E+03  0.00000000000E+00 0. -1.
<mgrwt>
<rscale>  2 0.11264067E+03</rscale>
<asrwt>0</asrwt>
<pdfrwt beam="1">  1       21 0.81173428E-01 0.11264067E+03</pdfrwt>
<pdfrwt beam="2">  1       21 0.38459968E-02 0.11264067E+03</pdfrwt>
<totfact> 0.56301746E+05</totfact>
</mgrwt>
</event>
<event>
 4    1  0.5810391E+003  0.1095169E+03  0.7546771E-02  0.1261467E+00
         21   -1    0    0  502  501  0.00000000000E+00  0.00000000000E+00  0.73065131796E+03  0.73065131796E+03  0.00000000000E+00 0.  1.
         21   -1    0    0  503  502 -0.00000000000E+00 -0.00000000000E+00 -0.21722591270E+02  0.21722591270E+02  0.00000000000E+00 0.  1.
         21    1    1    2  503  504  0.53033959927E+02  0.95819407246E+02  0.16852179476E+03  0.20098147930E+03  0.00000000000E+00 0.  1.
         21    1    1    2  504  501 -0.53033959927E+02 -0.95819407246E+02  0.54040693193E+03  0.55139242993E+03  0.00000000000E+00 0.  1.
<mgrwt>
<rscale>  2 0.10951694E+03</rscale>
<asrwt>0</asrwt>
<pdfrwt beam="1">  1       21 0.11240788E+00 0.10951694E+03</pdfrwt>
<pdfrwt beam="2">  1       21 0.33419377E-02 0.10951694E+03</pdfrwt>
<totfact> 0.33498586E+05</totfact>
</mgrwt>
</event>
<event>
 4    1  0.5810391E+003  0.1088759E+03  0.7546771E-02  0.1262666E+00
         21   -1    0    0  504  501  0.00000000000E+00  0.00000000000E+00  0.36164908446E+02  0.36164908446E+02  0.00000000000E+00 0. -1.
         21   -1    0    0  503  502 -0.00000000000E+00 -0.00000000000E+00 -0.53969689497E+03  0.53969689497E+03  0.00000000000E+00 0. -1.
         21    1    1    2  503  501 -0.23532258619E+02 -0.10630234122E+03 -0.71339140749E+02  0.13016615515E+03  0.00000000000E+00 0. -1.
         21    1    1    2  504  502  0.23532258619E+02  0.10630234122E+03 -0.43219284577E+03  0.44569564826E+03  0.00000000000E+00 0. -1.
<mgrwt>
<rscale>  2 0.10887587E+03</rscale>
<asrwt>0</asrwt>
<pdfrwt beam="1">  1       21 0.55638319E-02 0.10887587E+03</pdfrwt>
<pdfrwt beam="2">  1       21 0.83030294E-01 0.10887587E+03</pdfrwt>
<totfact> 0.28942694E+05</totfact>
</mgrwt>
</event>
<event>
 4    1  0.5810391E+003  0.1399807E+03  0.7546771E-02  0.1213355E+00
         21   -1    0    0  504  501  0.00000000000E+00  0.00000000000E+00  0.48151511083E+03  0.48151511083E+03  0.00000000000E+00 0.  1.
         21   -1    0    0  503  502 -0.00000000000E+00 -0.00000000000E+00 -0.41359312908E+02  0.41359312908E+02  0.00000000000E+00 0.  1.
         21    1    1    2  503  501  0.61926524343E+02  0.12553763098E+03  0.25324586846E+03  0.28935801545E+03  0.00000000000E+00 0.  1.
         21    1    1    2  504  502 -0.61926524343E+02 -0.12553763098E+03  0.18690992946E+03  0.23351640829E+03  0.00000000000E+00 0.  1.
<mgrwt>
<rscale>  2 0.13998068E+03</rscale>
<asrwt>0</asrwt>
<pdfrwt beam="1">  1       21 0.74079244E-01 0.13998068E+03</pdfrwt>
<pdfrwt beam="2">  1       21 0.63629716E-02 0.13998068E+03</pdfrwt>
<totfact> 0.29509195E+05</totfact>
</mgrwt>
</event>
<event>
 4    1  0.5810391E+003  0.1083697E+03  0.7546771E-02  0.1263619E+00
         21   -1    0    0  503  501  0.00000000000E+00  0.00000000000E+00  0.62465855732E+02  0.62465855732E+02  0.00000000000E+00 0. -1.
         21   -1    0    0  504  502 -0.00000000000E+00 -0.00000000000E+00 -0.11050134644E+04  0.11050134644E+04  0.00000000000E+00 0. -1.
         21    1    1    2  503  502 -0.33088368326E+02 -0.10319477663E+03 -0.10530411630E+04  0.10586027078E+04  0.00000000000E+00 0. -1.
         21    1    1    2  504  501  0.33088368326E+02  0.10319477663E+03  0.10493554257E+02  0.10887661238E+03  0.00000000000E+00 0. -1.
<mgrwt>
<rscale>  2 0.10836975E+03</rscale>
<asrwt>0</asrwt>
<pdfrwt beam="1">  1       21 0.96101319E-02 0.10836975E+03</pdfrwt>
<pdfrwt beam="2">  1       21 0.17000207E+00 0.10836975E+03</pdfrwt>
<totfact> 0.19932906E+04</totfact>
</mgrwt>
</event>
<event>
 4    1  0.5810391E+003  0.1019300E+03  0.7546771E-02  0.1276289E+00
         21   -1    0    0  503  501  0.00000000000E+00  0.00000000000E+00  0.16077678886E+03  0.16077678886E+03  0.00000000000E+00 0. -1.
         21   -1    0    0  501  502 -0.00000000000E+00 -0.00000000000E+00 -0.14583576014E+03  0.14583576014E+03  0.00000000000E+00 0. -1.
         21    1    1    2  503  504  0.96596829571E+02 -0.32538932969E+02  0.12187486093E+03  0.15888112338E+03  0.00000000000E+00 0. -1.
         21    1    1    2  504  502 -0.96596829571E+02  0.32538932969E+02 -0.10693383221E+03  0.14773142561E+03  0.00000000000E+00 0. -1.
<mgrwt>
<rscale>  2 0.10193002E+03</rscale>
<asrwt>0</asrwt>
<pdfrwt beam="1">  1       21 0.24734891E-01 0.10193002E+03</pdfrwt>
<pdfrwt beam="2">  1       21 0.22436271E-01 0.10193002E+03</pdfrwt>
<totfact> 0.29289422E+05</totfact>
</mgrwt>
</event>
<event>
 4    1  0.5810391E+003  0.1271547E+03  0.7546771E-02  0.1231740E+00
         21   -1    0    0  504  501  0.00000000000E+00  0.00000000000E+00  0.12298386382E+02  0.12298386382E+02  0.00000000000E+00 0. -1.
         21   -1    0    0  503  502 -0.00000000000E+00 -0.00000000000E+00 -0.15242337782E+04  0.15242337782E+04  0.00000000000E+00 0. -1.
         21    1    1    2  503  501 -0.91298047575E+02 -0.88504187408E+02 -0.47109977012E+03  0.48795831593E+03  0.00000000000E+00 0. -1.
         21    1    1    2  504  502  0.91298047575E+02  0.88504187408E+02 -0.10408356217E+04  0.10485738486E+04  0.00000000000E+00 0. -1.
<mgrwt>
<rscale>  2 0.12715473E+03</rscale>
<asrwt>0</asrwt>
<pdfrwt beam="1">  1       21 0.18920594E-02 0.12715473E+03</pdfrwt>
<pdfrwt beam="2">  1       21 0.23449751E+00 0.12715473E+03</pdfrwt>
<totfact> 0.11590960E+05</totfact>
</mgrwt>
</event>
<event>
 4    1  0.5810391E+003  0.1219697E+03  0.7546771E-02  0.1239883E+00
         21   -1    0    0  504  501  0.00000000000E+00  0.00000000000E+00  0.15108481473E+04  0.15108481473E+04  0.00000000000E+00 0. -1.
         21   -1    0    0  503  502 -0.00000000000E+00 -0.00000000000E+00 -0.36608629843E+02  0.36608629843E+02  0.00000000000E+00 0. -1.
         21    1    1    2  503  501  0.29169770201E+02 -0.11843030988E+03  0.75578590476E+02  0.14348775952E+03  0.00000000000E+00 0. -1.
         21    1    1    2  504  502 -0.29169770201E+02  0.11843030988E+03  0.13986609269E+04  0.14039690176E+04  0.00000000000E+00 0. -1.
<mgrwt>
<rscale>  2 0.12196972E+03</rscale>
<asrwt>0</asrwt>
<pdfrwt beam="1">  1       21 0.23243813E+00 0.12196972E+03</pdfrwt>
<pdfrwt beam="2">  1       21 0.56320981E-02 0.12196972E+03</pdfrwt>
<totfact> 0.19892217E+04</totfact>
</mgrwt>
</event>
<event>
 4    1  0.5810391E+003  0.1473474E+03  0.7546771E-02  0.1203771E+00
         21   -1    0    0  504  501  0.00000000000E+00  0.00000000000E+00  0.57490994372E+02  0.57490994372E+02  0.00000000000E+00 0. -1.
         21   -1    0    0  501  502 -0.00000000000E+00 -0.00000000000E+00 -0.22967826823E+04  0.22967826823E+04  0.00000000000E+00 0. -1.
         21    1    1    2  503  502  0.12582888635E+03  0.76670436312E+02 -0.21956647740E+04  0.22006033410E+04  0.00000000000E+00 0. -1.
         21    1    1    2  504  503 -0.12582888635E+03 -0.76670436312E+02 -0.43626913857E+02  0.15367033564E+03  0.00000000000E+00 0. -1.
<mgrwt>
<rscale>  2 0.14734743E+03</rscale>
<asrwt>0</asrwt>
<pdfrwt beam="1">  1       21 0.88447680E-02 0.14734743E+03</pdfrwt>
<pdfrwt beam="2">  1       21 0.35335120E+00 0.14734743E+03</pdfrwt>
<totfact> 0.18075684E+03</totfact>
</mgrwt>
</event>
<event>
 4    1  0.5810391E+003  0.1170520E+03  0.7546771E-02  0.1248041E+00
         21   -1    0    0  504  501  0.00000000000E+00  0.00000000000E+00  0.40767535495E+02  0.40767535495E+02  0.00000000000E+00 0. -1.
         21   -1    0    0  503  502 -0.00000000000E+00 -0.00000000000E+00 -0.34933066353E+03  0.34933066353E+03  0.00000000000E+00 0. -1.
         21    1    1    2  503  501  0.10018561871E+03  0.60531019183E+02 -0.11629406250E+03  0.16500142863E+03  0.00000000000E+00 0. -1.
         21    1    1    2  504  502 -0.10018561871E+03 -0.60531019183E+02 -0.19226906554E+03  0.22509677040E+03  0.00000000000E+00 0. -1.
<mgrwt>
<rscale>  2 0.11705196E+03</rscale>
<asrwt>0</asrwt>
<pdfrwt beam="1">  1       21 0.62719286E-02 0.11705196E+03</pdfrwt>
<pdfrwt beam="2">  1       21 0.53743178E-01 0.11705196E+03</pdfrwt>
<totfact> 0.60319898E+05</totfact>
</mgrwt>
</event>
<event>
 4    1  0.5810391E+003  0.1082284E+03  0.7546771E-02  0.1263886E+00
         21   -1    0    0  504  501  0.00000000000E+00  0.00000000000E+00  0.19379117747E+02  0.19379117747E+02  0.00000000000E+00 0.  1.
         21   -1    0    0  503  502 -0.00000000000E+00 -0.00000000000E+00 -0.61415496462E+03  0.61415496462E+03  0.00000000000E+00 0. -1.
         21    1    1    2  503  501  0.19811672298E+02  0.10639964959E+03 -0.33724147747E+03  0.35418244157E+03  0.00000000000E+00 0.  1.
         21    1    1    2  504  502 -0.19811672298E+02 -0.10639964959E+03 -0.25753436940E+03  0.27935164079E+03  0.00000000000E+00 0. -1.
<mgrwt>
<rscale>  2 0.10822841E+03</rscale>
<asrwt>0</asrwt>
<pdfrwt beam="1">  1       21 0.29814030E-02 0.10822841E+03</pdfrwt>
<pdfrwt beam="2">  1       21 0.94485371E-01 0.10822841E+03</pdfrwt>
<totfact> 0.60684088E+05</totfact>
</mgrwt>
</event>
<event>
 4    1  0.5810391E+003  0.1547239E+03  0.7546771E-02  0.1194786E+00
         21   -1    0    0  502  501  0.00000000000E+00  0.00000000000E+00  0.10123550816E+04  0.10123550816E+04  0.00000000000E+00 0. -1.
         21   -1    0    0  503  502 -0.00000000000E+00 -0.00000000000E+00 -0.39969804060E+02  0.39969804060E+02  0.00000000000E+00 0.  1.
         21    1    1    2  503  504 -0.14162116333E+03  0.62313066600E+02  0.14995438230E+03  0.21546644505E+03  0.00000000000E+00 0.  1.
         21    1    1    2  504  501  0.14162116333E+03 -0.62313066600E+02  0.82243089521E+03  0.83685844058E+03  0.00000000000E+00 0. -1.
<mgrwt>
<rscale>  2 0.15472386E+03</rscale>
<asrwt>0</asrwt>
<pdfrwt beam="1">  1       21 0.15574692E+00 0.15472386E+03</pdfrwt>
<pdfrwt beam="2">  1       21 0.61492014E-02 0.15472386E+03</pdfrwt>
<totfact> 0.52313494E+04</totfact>
</mgrwt>
</event>
<event>
 4    1  0.5810391E+003  0.1012240E+03  0.7546771E-02  0.1277743E+00
         21   -1    0    0  503  501  0.00000000000E+00  0.00000000000E+00  0.17391679485E+03  0.17391679485E+03  0.00000000000E+00 0. -1.
         21   -1    0    0  504  502 -0.00000000000E+00 -0.00000000000E+00 -0.18263487493E+03  0.18263487493E+03  0.00000000000E+00 0. -1.
         21    1    1    2  503  502 -0.87010478817E+02 -0.51724921576E+02  0.14237150517E+03  0.17468811184E+03  0.00000000000E+00 0. -1.
         21    1    1    2  504  501  0.87010478817E+02  0.51724921576E+02 -0.15108958525E+03  0.18186355794E+03  0.00000000000E+00 0. -1.
<mgrwt>
<rscale>  2 0.10122396E+03</rscale>
<asrwt>0</asrwt>
<pdfrwt beam="1">  1       21 0.26756430E-01 0.10122396E+03</pdfrwt>
<pdfrwt beam="2">  1       21 0.28097673E-01 0.10122396E+03</pdfrwt>
<totfact> 0.16556433E+05</totfact>
</mgrwt>
</event>
<event>
 4    1  0.5810391E+003  0.1069269E+03  0.7546771E-02  0.1266369E+00
         21   -1    0    0  504  501  0.00000000000E+00  0.00000000000E+00  0.46042241544E+03  0.46042241544E+03  0.00000000000E+00 0.  1.
         21   -1    0    0  503  502 -0.00000000000E+00 -0.00000000000E+00 -0.83307036689E+02  0.83307036689E+02  0.00000000000E+00 0. -1.
         21    1    1    2  503  501  0.95219789412E+02  0.48647323918E+02  0.41632740106E+03  0.42983935987E+03  0.00000000000E+00 0.  1.
         21    1    1    2  504  502 -0.95219789412E+02 -0.48647323918E+02 -0.39212022312E+02  0.11389009226E+03  0.00000000000E+00 0. -1.
<mgrwt>
<rscale>  2 0.10692694E+03</rscale>
<asrwt>0</asrwt>
<pdfrwt beam="1">  1       21 0.70834216E-01 0.10692694E+03</pdfrwt>
<pdfrwt beam="2">  1       21 0.12816467E-01 0.10692694E+03</pdfrwt>
<totfact> 0.97578160E+04</totfact>
</mgrwt>
</event>
<event>
 4    1  0.5810391E+003  0.1233197E+03  0.7546771E-02  0.1237719E+00
         21   -1    0    0  504  501  0.00000000000E+00  0.00000000000E+00  0.72737431202E+02  0.72737431202E+02  0.00000000000E+00 0.  1.
         21   -1    0    0  503  502 -0.00000000000E+00 -0.00000000000E+00 -0.22622685136E+03  0.22622685136E+03  0.00000000000E+00 0.  1.
         21    1    1    2  503  501  0.94338508879E+02 -0.79422826717E+02 -0.11790180117E+03  0.17061235119E+03  0.00000000000E+00 0.  1.
         21    1    1    2  504  502 -0.94338508879E+02  0.79422826717E+02 -0.35587618993E+02  0.12835193137E+03  0.00000000000E+00 0.  1.
<mgrwt>
<rscale>  2 0.12331966E+03</rscale>
<asrwt>0</asrwt>
<pdfrwt beam="1">  1       21 0.11190374E-01 0.12331966E+03</pdfrwt>
<pdfrwt beam="2">  1       21 0.34804130E-01 0.12331966E+03</pdfrwt>
<totfact> 0.53315412E+05</totfact>
</mgrwt>
</event>
<event>
 4    1  0.5810391E+003  0.1037451E+03  0.7546771E-02  0.1272612E+00
         21   -1    0    0  504  501  0.00000000000E+00  0.00000000000E+00  0.17990148490E+03  0.17990148490E+03  0.00000000000E+00 0. -1.
         21   -1    0    0  503  502 -0.00000000000E+00 -0.00000000000E+00 -0.69139591501E+02  0.69139591501E+02  0.00000000000E+00 0. -1.
         21    1    1    2  503  501 -0.51916326117E+02 -0.89820553912E+02  0.10107963125E+03  0.14484518866E+03  0.00000000000E+00 0. -1.
         21    1    1    2  504  502  0.51916326117E+02  0.89820553912E+02  0.96822621443E+01  0.10419588774E+03  0.00000000000E+00 0. -1.
<mgrwt>
<rscale>  2 0.10374506E+03</rscale>
<asrwt>0</asrwt>
<pdfrwt beam="1">  1       21 0.27677151E-01 0.10374506E+03</pdfrwt>
<pdfrwt beam="2">  1       21 0.10636860E-01 0.10374506E+03</pdfrwt>
<totfact> 0.90649972E+05</totfact>
</mgrwt>
</event>
<event>
 4    1  0.5810391E+003  0.1036287E+03  0.7546771E-02  0.1272845E+00
         21   -1    0    0  503  501  0.00000000000E+00  0.00000000000E+00  0.51619458239E+02  0.51619458239E+02  0.00000000000E+00 0.  1.
         21   -1    0    0  501  502 -0.00000000000E+00 -0.00000000000E+00 -0.12403421200E+04  0.12403421200E+04  0.00000000000E+00 0. -1.
         21    1    1    2  503  504  0.33897273109E+02 -0.97927965847E+02 -0.50398543863E+01  0.10375120120E+03  0.00000000000E+00 0.  1.
         21    1    1    2  504  502 -0.33897273109E+02  0.97927965847E+02 -0.11836828074E+04  0.11882103771E+04  0.00000000000E+00 0. -1.
<mgrwt>
<rscale>  2 0.10362872E+03</rscale>
<asrwt>0</asrwt>
<pdfrwt beam="1">  1       21 0.79414556E-02 0.10362872E+03</pdfrwt>
<pdfrwt beam="2">  1       21 0.19082185E+00 0.10362872E+03</pdfrwt>
<totfact> 0.20293769E+04</totfact>
</mgrwt>
</event>
<event>
 4    1  0.5810391E+003  0.1140047E+03  0.7546771E-02  0.1253328E+00
         21   -1    0    0  503  501  0.00000000000E+00  0.00000000000E+00  0.63593737989E+03  0.63593737989E+03  0.00000000000E+00 0. -1.
         21   -1    0    0  504  502 -0.00000000000E+00 -0.00000000000E+00 -0.44964617453E+02  0.44964617453E+02  0.00000000000E+00 0. -1.
         21    1    1    2  503  502  0.10349119074E+03 -0.47818938302E+02  0.44042585683E+02  0.12221631141E+03  0.00000000000E+00 0. -1.
         21    1    1    2  504  501 -0.10349119074E+03  0.47818938302E+02  0.54693017675E+03  0.55868568593E+03  0.00000000000E+00 0. -1.
<mgrwt>
<rscale>  2 0.11400473E+03</rscale>
<asrwt>0</asrwt>
<pdfrwt beam="1">  1       21 0.97836513E-01 0.11400473E+03</pdfrwt>
<pdfrwt beam="2">  1       21 0.69176339E-02 0.11400473E+03</pdfrwt>
<totfact> 0.13753620E+05</totfact>
</mgrwt>
</event>
<event>
 4    1  0.5810391E+003  0.1372464E+03  0.7546771E-02  0.1217083E+00
         21   -1    0    0  502  501  0.00000000000E+00  0.00000000000E+00  0.30547749024E+03  0.30547749024E+03  0.00000000000E+00 0. -1.
         21   -1    0    0  504  502 -0.00000000000E+00 -0.00000000000E+00 -0.12695467156E+03  0.12695467156E+03  0.00000000000E+00 0. -1.
         21    1    1    2  503  501 -0.85152145756E+02  0.10763680358E+03  0.24431917134E+03  0.28022923990E+03  0.00000000000E+00 0. -1.
         21    1    1    2  504  503  0.85152145756E+02 -0.10763680358E+03 -0.65796352654E+02  0.15220292190E+03  0.00000000000E+00 0. -1.
<mgrwt>
<rscale>  2 0.13724638E+03</rscale>
<asrwt>0</asrwt>
<pdfrwt beam="1">  1       21 0.46996537E-01 0.13724638E+03</pdfrwt>
<pdfrwt beam="2">  1       21 0.19531488E-01 0.13724638E+03</pdfrwt>
<totfact> 0.10674737E+05</totfact>
</mgrwt>
</event>
<event>
 4    1  0.5810391E+003  0.1142190E+03  0.7546771E-02  0.1252951E+00
         21   -1    0    0  503  501  0.00000000000E+00  0.00000000000E+00  0.38992239105E+03  0.38992239105E+03  0.00000000000E+00 0. -1.
         21   -1    0    0  504  502 -0.00000000000E+00 -0.00000000000E+00 -0.36439334995E+03  0.36439334995E+03  0.00000000000E+00 0.  1.
         21    1    1    2  503  502 -0.24080906944E+02  0.11165159560E+03  0.37219063287E+03  0.38932227791E+03  0.00000000000E+00 0. -1.
         21    1    1    2  504  501  0.24080906944E+02 -0.11165159560E+03 -0.34666159178E+03  0.36499346308E+03  0.00000000000E+00 0.  1.
<mgrwt>
<rscale>  2 0.11421895E+03</rscale>
<asrwt>0</asrwt>
<pdfrwt beam="1">  1       21 0.59988060E-01 0.11421895E+03</pdfrwt>
<pdfrwt beam="2">  1       21 0.56060516E-01 0.11421895E+03</pdfrwt>
<totfact> 0.82937083E+03</totfact>
</mgrwt>
</event>
<event>
 4    1  0.5810391E+003  0.1351625E+03  0.7546771E-02  0.1219990E+00
         21   -1    0    0  504  501  0.00000000000E+00  0.00000000000E+00  0.27001527906E+03  0.27001527906E+03  0.00000000000E+00 0.  1.
         21   -1    0    0  501  502 -0.00000000000E+00 -0.00000000000E+00 -0.81039941202E+02  0.81039941202E+02  0.00000000000E+00 0. -1.
         21    1    1    2  503  502 -0.95252257598E+02 -0.95895291642E+02  0.23162456709E+02  0.13713277849E+03  0.00000000000E+00 0. -1.
         21    1    1    2  504  503  0.95252257598E+02  0.95895291642E+02  0.16581288115E+03  0.21392244177E+03  0.00000000000E+00 0.  1.
<mgrwt>
<rscale>  2 0.13516249E+03</rscale>
<asrwt>0</asrwt>
<pdfrwt beam="1">  1       21 0.41540812E-01 0.13516249E+03</pdfrwt>
<pdfrwt beam="2">  1       21 0.12467683E-01 0.13516249E+03</pdfrwt>
<totfact> 0.30945844E+05</totfact>
</mgrwt>
</event>
<event>
 4    1  0.5810391E+003  0.1114548E+03  0.7546771E-02  0.1257899E+00
         21   -1    0    0  504  501  0.00000000000E+00  0.00000000000E+00  0.54571926638E+02  0.54571926638E+02  0.00000000000E+00 0.  1.
         21   -1    0    0  501  502 -0.00000000000E+00 -0.00000000000E+00 -0.31821216638E+03  0.31821216638E+03  0.00000000000E+00 0.  1.
         21    1    1    2  503  502 -0.41861043854E+02  0.10329483020E+03 -0.23126720066E+03  0.25672297724E+03  0.00000000000E+00 0.  1.
         21    1    1    2  504  503  0.41861043854E+02 -0.10329483020E+03 -0.32373039082E+02  0.11606111579E+03  0.00000000000E+00 0.  1.
<mgrwt>
<rscale>  2 0.11145478E+03</rscale>
<asrwt>0</asrwt>
<pdfrwt beam="1">  1       21 0.83956808E-02 0.11145478E+03</pdfrwt>
<pdfrwt beam="2">  1       21 0.48955719E-01 0.11145478E+03</pdfrwt>
<totfact> 0.44444913E+05</totfact>
</mgrwt>
</event>
<event>
 4    1  0.5810391E+003  0.1046197E+03  0.7546771E-02  0.1270871E+00
         21   -1    0    0  503  501  0.00000000000E+00  0.00000000000E+00  0.53882297527E+03  0.53882297527E+03  0.00000000000E+00 0.  1.
         21   -1    0    0  501  502 -0.00000000000E+00 -0.00000000000E+00 -0.27167310424E+02  0.27167310424E+02  0.00000000000E+00 0.  1.
         21    1    1    2  503  504 -0.43077188999E+02 -0.95339558533E+02  0.39797161538E+03  0.41149323479E+03  0.00000000000E+00 0.  1.
         21    1    1    2  504  502  0.43077188999E+02  0.95339558533E+02  0.11368404946E+03  0.15449705090E+03  0.00000000000E+00 0.  1.
<mgrwt>
<rscale>  2 0.10461967E+03</rscale>
<asrwt>0</asrwt>
<pdfrwt beam="1">  1       21 0.82895835E-01 0.10461967E+03</pdfrwt>
<pdfrwt beam="2">  1       21 0.41795866E-02 0.10461967E+03</pdfrwt>
<totfact> 0.46854663E+05</totfact>
</mgrwt>
</event>
<event>
 4    1  0.5810391E+003  0.1272487E+03  0.7546771E-02  0.1231596E+00
         21   -1    0    0  502  501  0.00000000000E+00  0.00000000000E+00  0.18755222962E+03  0.18755222962E+03  0.00000000000E+00 0. -1.
         21   -1    0    0  504  502 -0.00000000000E+00 -0.00000000000E+00 -0.11736816194E+03  0.11736816194E+03  0.00000000000E+00 0. -1.
         21    1    1    2  503  501  0.72254914380E+02  0.10474477591E+03  0.11348865725E+03  0.17050488572E+03  0.00000000000E+00 0. -1.
         21    1    1    2  504  503 -0.72254914380E+02 -0.10474477591E+03 -0.43304589558E+02  0.13441550584E+03  0.00000000000E+00 0. -1.
<mgrwt>
<rscale>  2 0.12724874E+03</rscale>
<asrwt>0</asrwt>
<pdfrwt beam="1">  1       21 0.28854189E-01 0.12724874E+03</pdfrwt>
<pdfrwt beam="2">  1       21 0.18056640E-01 0.12724874E+03</pdfrwt>
<totfact> 0.32493911E+05</totfact>
</mgrwt>
</event>
<event>
 4    1  0.5810391E+003  0.1090520E+03  0.7546771E-02  0.1262336E+00
         21   -1    0    0  502  501  0.00000000000E+00  0.00000000000E+00  0.10260006576E+04  0.10260006576E+04  0.00000000000E+00 0. -1.
         21   -1    0    0  503  502 -0.00000000000E+00 -0.00000000000E+00 -0.47543698758E+02  0.47543698758E+02  0.00000000000E+00 0. -1.
         21    1    1    2  503  504 -0.68161032725E+02 -0.85125901003E+02  0.22451500524E+02  0.11133919022E+03  0.00000000000E+00 0. -1.
         21    1    1    2  504  501  0.68161032725E+02  0.85125901003E+02  0.95600545836E+03  0.96220516618E+03  0.00000000000E+00 0. -1.
<mgrwt>
<rscale>  2 0.10905203E+03</rscale>
<asrwt>0</asrwt>
<pdfrwt beam="1">  1       21 0.15784624E+00 0.10905203E+03</pdfrwt>
<pdfrwt beam="2">  1       21 0.73144160E-02 0.10905203E+03</pdfrwt>
<totfact> 0.38792655E+04</totfact>
</mgrwt>
</event>
<event>
 4    1  0.5810391E+003  0.1174262E+03  0.7546771E-02  0.1247404E+00
         21   -1    0    0  503  501  0.00000000000E+00  0.00000000000E+00  0.11792670859E+03  0.11792670859E+03  0.00000000000E+00 0.  1.
         21   -1    0    0  504  502 -0.00000000000E+00 -0.00000000000E+00 -0.14612479066E+03  0.14612479066E+03  0.00000000000E+00 0.  1.
         21    1    1    2  503  502  0.30997651252E+02  0.11326102417E+03  0.44916381808E+02  0.12572348760E+03  0.00000000000E+00 0.  1.
         21    1    1    2  504  501 -0.30997651252E+02 -0.11326102417E+03 -0.73114463883E+02  0.13832801165E+03  0.00000000000E+00 0.  1.
<mgrwt>
<rscale>  2 0.11742621E+03</rscale>
<asrwt>0</asrwt>
<pdfrwt beam="1">  1       21 0.18142571E-01 0.11742621E+03</pdfrwt>
<pdfrwt beam="2">  1       21 0.22480737E-01 0.11742621E+03</pdfrwt>
<totfact> 0.51702165E+05</totfact>
</mgrwt>
</event>
<event>
 4    1  0.5810391E+003  0.1340373E+03  0.7546771E-02  0.1221585E+00
         21   -1    0    0  504  501  0.00000000000E+00  0.00000000000E+00  0.86767888353E+02  0.86767888353E+02  0.00000000000E+00 0. -1.
         21   -1    0    0  501  502 -0.00000000000E+00 -0.00000000000E+00 -0.27726047982E+03  0.27726047982E+03  0.00000000000E+00 0. -1.
         21    1    1    2  503  502  0.12543726853E+03  0.47238726299E+02 -0.18683391194E+03  0.22994111474E+03  0.00000000000E+00 0. -1.
         21    1    1    2  504  503 -0.12543726853E+03 -0.47238726299E+02 -0.36586795327E+01  0.13408725344E+03  0.00000000000E+00 0. -1.
<mgrwt>
<rscale>  2 0.13403733E+03</rscale>
<asrwt>0</asrwt>
<pdfrwt beam="1">  1       21 0.13348906E-01 0.13403733E+03</pdfrwt>
<pdfrwt beam="2">  1       21 0.42655458E-01 0.13403733E+03</pdfrwt>
<totfact> 0.25979445E+05</totfact>
</mgrwt>
</event>
<event>
 4    1  0.5810391E+003  0.1135493E+03  0.7546771E-02  0.1254135E+00
         21   -1    0    0  503  501  0.00000000000E+00  0.00000000000E+00  0.10173484804E+03  0.10173484804E+03  0.00000000000E+00 0. -1.
         21   -1    0    0  501  502 -0.00000000000E+00 -0.00000000000E+00 -0.21562569708E+03  0.21562569708E+03  0.00000000000E+00 0. -1.
         21    1    1    2  503  504  0.88183849595E+02  0.71533643309E+02  0.44936874107E+02  0.12211787792E+03  0.00000000000E+00 0. -1.
         21    1    1    2  504  502 -0.88183849595E+02 -0.71533643309E+02 -0.15882772314E+03  0.19524266719E+03  0.00000000000E+00 0. -1.
<mgrwt>
<rscale>  2 0.11354934E+03</rscale>
<asrwt>0</asrwt>
<pdfrwt beam="1">  1       21 0.15651515E-01 0.11354934E+03</pdfrwt>
<pdfrwt beam="2">  1       21 0.33173184E-01 0.11354934E+03</pdfrwt>
<totfact> 0.32247935E+05</totfact>
</mgrwt>
</event>
<event>
 4    1  0.5810391E+003  0.1479822E+03  0.7546771E-02  0.1202975E+00
         21   -1    0    0  503  501  0.00000000000E+00  0.00000000000E+00  0.73740059047E+02  0.73740059047E+02  0.00000000000E+00 0.  1.
         21   -1    0    0  504  502 -0.00000000000E+00 -0.00000000000E+00 -0.39366372974E+03  0.39366372974E+03  0.00000000000E+00 0.  1.
         21    1    1    2  503  502 -0.13686425008E+03 -0.56275225970E+02 -0.44138927430E+02  0.15442463832E+03  0.00000000000E+00 0.  1.
         21    1    1    2  504  501  0.13686425008E+03  0.56275225970E+02 -0.27578474326E+03  0.31297915046E+03  0.00000000000E+00 0.  1.
<mgrwt>
<rscale>  2 0.14798217E+03</rscale>
<asrwt>0</asrwt>
<pdfrwt beam="1">  1       21 0.11344625E-01 0.14798217E+03</pdfrwt>
<pdfrwt beam="2">  1       21 0.60563649E-01 0.14798217E+03</pdfrwt>
<totfact> 0.16710126E+05</totfact>
</mgrwt>
</event>
<event>
 4    1  0.5810391E+003  0.1805906E+03  0.7546771E-02  0.1167233E+00
         21   -1    0    0  504  501  0.00000000000E+00  0.00000000000E+00  0.38462360366E+03  0.38462360366E+03  0.00000000000E+00 0.  1.
         21   -1    0    0  503  502 -0.00000000000E+00 -0.00000000000E+00 -0.13049789728E+03  0.13049789728E+03  0.00000000000E+00 0.  1.
         21    1    1    2  503  501 -0.36415368941E+02 -0.17688101186E+03  0.27949074883E+03  0.33275824578E+03  0.00000000000E+00 0.  1.
         21    1    1    2  504  502  0.36415368941E+02  0.17688101186E+03 -0.25365042450E+02  0.18236325516E+03  0.00000000000E+00 0.  1.
<mgrwt>
<rscale>  2 0.18059062E+03</rscale>
<asrwt>0</asrwt>
<pdfrwt beam="1">  1       21 0.59172862E-01 0.18059062E+03</pdfrwt>
<pdfrwt beam="2">  1       21 0.20076600E-01 0.18059062E+03</pdfrwt>
<totfact> 0.61511955E+04</totfact>
</mgrwt>
</event>
<event>
 4    1  0.5810391E+003  0.1043249E+03  0.7546771E-02  0.1271456E+00
         21   -1    0    0  503  501  0.00000000000E+00  0.00000000000E+00  0.12146282905E+04  0.12146282905E+04  0.00000000000E+00 0. -1.
         21   -1    0    0  504  502 -0.00000000000E+00 -0.00000000000E+00 -0.16799239748E+02  0.16799239748E+02  0.00000000000E+00 0. -1.
         21    1    1    2  503  502  0.96640767080E+02  0.39296853352E+02  0.10195027276E+04  0.10248265669E+04  0.00000000000E+00 0. -1.
         21    1    1    2  504  501 -0.96640767080E+02 -0.39296853352E+02  0.17832632312E+03  0.20660096337E+03  0.00000000000E+00 0. -1.
<mgrwt>
<rscale>  2 0.10432488E+03</rscale>
<asrwt>0</asrwt>
<pdfrwt beam="1">  1       21 0.18686582E+00 0.10432488E+03</pdfrwt>
<pdfrwt beam="2">  1       21 0.25844994E-02 0.10432488E+03</pdfrwt>
<totfact> 0.13921156E+05</totfact>
</mgrwt>
</event>
<event>
 4    1  0.5810391E+003  0.1264368E+03  0.7546771E-02  0.1232841E+00
         21   -1    0    0  503  501  0.00000000000E+00  0.00000000000E+00  0.10134766546E+03  0.10134766546E+03  0.00000000000E+00 0. -1.
         21   -1    0    0  501  502 -0.00000000000E+00 -0.00000000000E+00 -0.21214569016E+03  0.21214569016E+03  0.00000000000E+00 0. -1.
         21    1    1    2  503  504 -0.21869180441E+02 -0.12453112495E+03  0.23981874657E+02  0.12869107369E+03  0.00000000000E+00 0. -1.
         21    1    1    2  504  502  0.21869180441E+02  0.12453112495E+03 -0.13477989936E+03  0.18480228193E+03  0.00000000000E+00 0. -1.
<mgrwt>
<rscale>  2 0.12643679E+03</rscale>
<asrwt>0</asrwt>
<pdfrwt beam="1">  1       21 0.15591949E-01 0.12643679E+03</pdfrwt>
<pdfrwt beam="2">  1       21 0.32637798E-01 0.12643679E+03</pdfrwt>
<totfact> 0.33444526E+05</totfact>
</mgrwt>
</event>
<event>
 4    1  0.5810391E+003  0.1036072E+03  0.7546771E-02  0.1272888E+00
         21   -1    0    0  503  501  0.00000000000E+00  0.00000000000E+00  0.12220459775E+04  0.12220459775E+04  0.00000000000E+00 0. -1.
         21   -1    0    0  504  502 -0.00000000000E+00 -0.00000000000E+00 -0.87994439920E+01  0.87994439920E+01  0.00000000000E+00 0. -1.
         21    1    1    2  503  502 -0.75085591981E+02  0.71390570770E+02  0.63240044247E+03  0.64083131896E+03  0.00000000000E+00 0. -1.
         21    1    1    2  504  501  0.75085591981E+02 -0.71390570770E+02  0.58084609104E+03  0.59001410254E+03  0.00000000000E+00 0. -1.
<mgrwt>
<rscale>  2 0.10360724E+03</rscale>
<asrwt>0</asrwt>
<pdfrwt beam="1">  1       21 0.18800694E+00 0.10360724E+03</pdfrwt>
<pdfrwt beam="2">  1       21 0.13537616E-02 0.10360724E+03</pdfrwt>
<totfact> 0.38577593E+05</totfact>
</mgrwt>
</event>
<event>
 4    1  0.5810391E+003  0.1194496E+03  0.7546771E-02  0.1244008E+00
         21   -1    0    0  503  501  0.00000000000E+00  0.00000000000E+00  0.13896147374E+03  0.13896147374E+03  0.00000000000E+00 0.  1.
         21   -1    0    0  504  502 -0.00000000000E+00 -0.00000000000E+00 -0.13487211856E+03  0.13487211856E+03  0.00000000000E+00 0.  1.
         21    1    1    2  503  502 -0.11283408858E+03 -0.39200563028E+02 -0.64849347761E+02  0.13591781926E+03  0.00000000000E+00 0.  1.
         21    1    1    2  504  501  0.11283408858E+03  0.39200563028E+02  0.68938702945E+02  0.13791577303E+03  0.00000000000E+00 0.  1.
<mgrwt>
<rscale>  2 0.11944964E+03</rscale>
<asrwt>0</asrwt>
<pdfrwt beam="1">  1       21 0.21378688E-01 0.11944964E+03</pdfrwt>
<pdfrwt beam="2">  1       21 0.20749557E-01 0.11944964E+03</pdfrwt>
<totfact> 0.44340979E+05</totfact>
</mgrwt>
</event>
<event>
 4    1  0.5810391E+003  0.1072250E+03  0.7546771E-02  0.1265797E+00
         21   -1    0    0  504  501  0.00000000000E+00  0.00000000000E+00  0.96913157490E+02  0.96913157490E+02  0.00000000000E+00 0.  1.
         21   -1    0    0  501  502 -0.00000000000E+00 -0.00000000000E+00 -0.16478910463E+03  0.16478910463E+03  0.00000000000E+00 0.  1.
         21    1    1    2  503  502  0.10694884264E+03  0.76903634157E+01 -0.10318849537E+03  0.14881217091E+03  0.00000000000E+00 0.  1.
         21    1    1    2  504  503 -0.10694884264E+03 -0.76903634157E+01  0.35312548233E+02  0.11289009122E+03  0.00000000000E+00 0.  1.
<mgrwt>
<rscale>  2 0.10722498E+03</rscale>
<asrwt>0</asrwt>
<pdfrwt beam="1">  1       21 0.14909717E-01 0.10722498E+03</pdfrwt>
<pdfrwt beam="2">  1       21 0.25352170E-01 0.10722498E+03</pdfrwt>
<totfact> 0.58896852E+05</totfact>
</mgrwt>
</event>
<event>
 4    1  0.5810391E+003  0.1631587E+03  0.7546771E-02  0.1185176E+00
         21   -1    0    0  503  501  0.00000000000E+00  0.00000000000E+00  0.10862858848E+04  0.10862858848E+04  0.00000000000E+00 0. -1.
         21   -1    0    0  504  502 -0.00000000000E+00 -0.00000000000E+00 -0.55139829440E+02  0.55139829440E+02  0.00000000000E+00 0. -1.
         21    1    1    2  503  502  0.13133391222E+02 -0.16262924698E+03  0.90186185901E+02  0.18642506823E+03  0.00000000000E+00 0. -1.
         21    1    1    2  504  501 -0.13133391222E+02  0.16262924698E+03  0.94095986942E+03  0.95500064596E+03  0.00000000000E+00 0. -1.
<mgrwt>
<rscale>  2 0.16315869E+03</rscale>
<asrwt>0</asrwt>
<pdfrwt beam="1">  1       21 0.16712089E+00 0.16315869E+03</pdfrwt>
<pdfrwt beam="2">  1       21 0.84830515E-02 0.16315869E+03</pdfrwt>
<totfact> 0.24736941E+04</totfact>
</mgrwt>
</event>
<event>
 4    1  0.5810391E+003  0.1028558E+03  0.7546771E-02  0.1274403E+00
         21   -1    0    0  502  501  0.00000000000E+00  0.00000000000E+00  0.14100349130E+02  0.14100349130E+02  0.00000000000E+00 0.  1.
         21   -1    0    0  504  502 -0.00000000000E+00 -0.00000000000E+00 -0.84355337472E+03  0.84355337472E+03  0.00000000000E+00 0.  1.
         21    1    1    2  503  501  0.95252361059E+02 -0.38811073990E+02 -0.27213695115E+03  0.29092581860E+03  0.00000000000E+00 0.  1.
         21    1    1    2  504  503 -0.95252361059E+02  0.38811073990E+02 -0.55731607445E+03  0.56672790525E+03  0.00000000000E+00 0.  1.
<mgrwt>
<rscale>  2 0.10285578E+03</rscale>
<asrwt>0</asrwt>
<pdfrwt beam="1">  1       21 0.21692846E-02 0.10285578E+03</pdfrwt>
<pdfrwt beam="2">  1       21 0.12977743E+00 0.10285578E+03</pdfrwt>
<totfact> 0.47793807E+05</totfact>
</mgrwt>
</event>
<event>
 4    1  0.5810391E+003  0.1086083E+03  0.7546771E-02  0.1263169E+00
         21   -1    0    0  504  501  0.00000000000E+00  0.00000000000E+00  0.61427269158E+03  0.61427269158E+03  0.00000000000E+00 0. -1.
         21   -1    0    0  501  502 -0.00000000000E+00 -0.00000000000E+00 -0.20334362017E+02  0.20334362017E+02  0.00000000000E+00 0. -1.
         21    1    1    2  503  502 -0.45376341938E+02  0.98674940975E+02  0.22211799838E+03  0.24724918926E+03  0.00000000000E+00 0. -1.
         21    1    1    2  504  503  0.45376341938E+02 -0.98674940975E+02  0.37182033118E+03  0.38735786433E+03  0.00000000000E+00 0. -1.
<mgrwt>
<rscale>  2 0.10860827E+03</rscale>
<asrwt>0</asrwt>
<pdfrwt beam="1">  1       21 0.94503477E-01 0.10860827E+03</pdfrwt>
<pdfrwt beam="2">  1       21 0.31283639E-02 0.10860827E+03</pdfrwt>
<totfact> 0.56067801E+05</totfact>
</mgrwt>
</event>
<event>
 4    1  0.5810391E+003  0.1107102E+03  0.7546771E-02  0.1259260E+00
         21   -1    0    0  503  501  0.00000000000E+00  0.00000000000E+00  0.18083169114E+02  0.18083169114E+02  0.00000000000E+00 0.  1.
         21   -1    0    0  504  502 -0.00000000000E+00 -0.00000000000E+00 -0.98334049647E+03  0.98334049647E+03  0.00000000000E+00 0.  1.
         21    1    1    2  503  502 -0.10691608480E+03 -0.28734914357E+02 -0.20352125513E+03  0.23168436672E+03  0.00000000000E+00 0.  1.
         21    1    1    2  504  501  0.10691608480E+03  0.28734914357E+02 -0.76173607223E+03  0.76973929887E+03  0.00000000000E+00 0.  1.
<mgrwt>
<rscale>  2 0.11071018E+03</rscale>
<asrwt>0</asrwt>
<pdfrwt beam="1">  1       21 0.27820258E-02 0.11071018E+03</pdfrwt>
<pdfrwt beam="2">  1       21 0.15128317E+00 0.11071018E+03</pdfrwt>
<totfact> 0.21647843E+05</totfact>
</mgrwt>
</event>
<event>
 4    1  0.5810391E+003  0.1248766E+03  0.7546771E-02  0.1235262E+00
         21   -1    0    0  502  501  0.00000000000E+00  0.00000000000E+00  0.30270884346E+03  0.30270884346E+03  0.00000000000E+00 0. -1.
         21   -1    0    0  504  502 -0.00000000000E+00 -0.00000000000E+00 -0.75188185339E+02  0.75188185339E+02  0.00000000000E+00 0. -1.
         21    1    1    2  503  501 -0.11707847017E+03  0.43437288040E+02  0.21978169369E+03  0.25278085183E+03  0.00000000000E+00 0. -1.
         21    1    1    2  504  503  0.11707847017E+03 -0.43437288040E+02  0.77389644322E+01  0.12511617697E+03  0.00000000000E+00 0. -1.
<mgrwt>
<rscale>  2 0.12487660E+03</rscale>
<asrwt>0</asrwt>
<pdfrwt beam="1">  1       21 0.46570591E-01 0.12487660E+03</pdfrwt>
<pdfrwt beam="2">  1       21 0.11567413E-01 0.12487660E+03</pdfrwt>
<totfact> 0.28089439E+05</totfact>
</mgrwt>
</event>
<event>
 4    1  0.5810391E+003  0.1022026E+03  0.7546771E-02  0.1275731E+00
         21   -1    0    0  504  501  0.00000000000E+00  0.00000000000E+00  0.22173715658E+03  0.22173715658E+03  0.00000000000E+00 0. -1.
         21   -1    0    0  503  502 -0.00000000000E+00 -0.00000000000E+00 -0.10147673698E+03  0.10147673698E+03  0.00000000000E+00 0. -1.
         21    1    1    2  503  501 -0.25875489246E+02  0.98872843111E+02 -0.58161757239E+02  0.11759323983E+03  0.00000000000E+00 0. -1.
         21    1    1    2  504  502  0.25875489246E+02 -0.98872843111E+02  0.17842217685E+03  0.20562065373E+03  0.00000000000E+00 0. -1.
<mgrwt>
<rscale>  2 0.10220264E+03</rscale>
<asrwt>0</asrwt>
<pdfrwt beam="1">  1       21 0.34113409E-01 0.10220264E+03</pdfrwt>
<pdfrwt beam="2">  1       21 0.15611806E-01 0.10220264E+03</pdfrwt>
<totfact> 0.30739491E+05</totfact>
</mgrwt>
</event>
<event>
 4    1  0.5810391E+003  0.1049794E+03  0.7546771E-02  0.1270160E+00
         21   -1    0    0  503  501  0.00000000000E+00  0.00000000000E+00  0.13477455546E+03  0.13477455546E+03  0.00000000000E+00 0. -1.
         21   -1    0    0  504  502 -0.00000000000E+00 -0.00000000000E+00 -0.81893892670E+02  0.81893892670E+02  0.00000000000E+00 0. -1.
         21    1    1    2  503  502 -0.28571448167E+02  0.10101651844E+03  0.30635148939E+02  0.10935802210E+03  0.00000000000E+00 0. -1.
         21    1    1    2  504  501  0.28571448167E+02 -0.10101651844E+03  0.22245513852E+02  0.10731042603E+03  0.00000000000E+00 0. -1.
<mgrwt>
<rscale>  2 0.10497935E+03</rscale>
<asrwt>0</asrwt>
<pdfrwt beam="1">  1       21 0.20734547E-01 0.10497935E+03</pdfrwt>
<pdfrwt beam="2">  1       21 0.12599060E-01 0.10497935E+03</pdfrwt>
<totfact> 0.11559675E+06</totfact>
</mgrwt>
</event>
<event>
 4    1  0.5810391E+003  0.1269933E+03  0.7546771E-02  0.1231987E+00
         21   -1    0    0  504  501  0.00000000000E+00  0.00000000000E+00  0.94382885352E+03  0.94382885352E+03  0.00000000000E+00 0. -1.
         21   -1    0    0  503  502 -0.00000000000E+00 -0.00000000000E+00 -0.98617212198E+02  0.98617212198E+02  0.00000000000E+00 0. -1.
         21    1    1    2  503  501 -0.10304066649E+03  0.74228820365E+02 -0.51315516155E+02  0.13696926269E+03  0.00000000000E+00 0. -1.
         21    1    1    2  504  502  0.10304066649E+03 -0.74228820365E+02  0.89652715747E+03  0.90547680302E+03  0.00000000000E+00 0. -1.
<mgrwt>
<rscale>  2 0.12699329E+03</rscale>
<asrwt>0</asrwt>
<pdfrwt beam="1">  1       21 0.14520443E+00 0.12699329E+03</pdfrwt>
<pdfrwt beam="2">  1       21 0.15171879E-01 0.12699329E+03</pdfrwt>
<totfact> 0.13185638E+04</totfact>
</mgrwt>
</event>
<event>
 4    1  0.5810391E+003  0.1306528E+03  0.7546771E-02  0.1226490E+00
         21   -1    0    0  503  501  0.00000000000E+00  0.00000000000E+00  0.34651146222E+03  0.34651146222E+03  0.00000000000E+00 0. -1.
         21   -1    0    0  504  502 -0.00000000000E+00 -0.00000000000E+00 -0.90867543233E+03  0.90867543233E+03  0.00000000000E+00 0. -1.
         21    1    1    2  503  502 -0.50439971972E+01  0.13055538582E+03 -0.89142623157E+03  0.90094998585E+03  0.00000000000E+00 0. -1.
         21    1    1    2  504  501  0.50439971972E+01 -0.13055538582E+03  0.32926226145E+03  0.35423690871E+03  0.00000000000E+00 0. -1.
<mgrwt>
<rscale>  2 0.13065279E+03</rscale>
<asrwt>0</asrwt>
<pdfrwt beam="1">  1       21 0.53309457E-01 0.13065279E+03</pdfrwt>
<pdfrwt beam="2">  1       21 0.13979622E+00 0.13065279E+03</pdfrwt>
<totfact> 0.12863768E+03</totfact>
</mgrwt>
</event>
<event>
 4    1  0.5810391E+003  0.1309530E+03  0.7546771E-02  0.1226049E+00
         21   -1    0    0  502  501  0.00000000000E+00  0.00000000000E+00  0.11427068660E+02  0.11427068660E+02  0.00000000000E+00 0.  1.
         21   -1    0    0  503  502 -0.00000000000E+00 -0.00000000000E+00 -0.17057096572E+04  0.17057096572E+04  0.00000000000E+00 0. -1.
         21    1    1    2  503  504  0.90004992417E+02  0.95119811132E+02 -0.11447889847E+04  0.11522545277E+04  0.00000000000E+00 0. -1.
         21    1    1    2  504  501 -0.90004992417E+02 -0.95119811132E+02 -0.54949360383E+03  0.56488219815E+03  0.00000000000E+00 0.  1.
<mgrwt>
<rscale>  2 0.13095296E+03</rscale>
<asrwt>0</asrwt>
<pdfrwt beam="1">  1       21 0.17580113E-02 0.13095296E+03</pdfrwt>
<pdfrwt beam="2">  1       21 0.26241677E+00 0.13095296E+03</pdfrwt>
<totfact> 0.89803239E+04</totfact>
</mgrwt>
</event>
<event>
 4    1  0.5810391E+003  0.1027118E+03  0.7546771E-02  0.1274695E+00
         21   -1    0    0  504  501  0.00000000000E+00  0.00000000000E+00  0.13939689169E+04  0.13939689169E+04  0.00000000000E+00 0.  1.
         21   -1    0    0  501  502 -0.00000000000E+00 -0.00000000000E+00 -0.21612277198E+02  0.21612277198E+02  0.00000000000E+00 0. -1.
         21    1    1    2  503  502 -0.93540250305E+02  0.42425724066E+02  0.11561689699E+03  0.15465117963E+03  0.00000000000E+00 0. -1.
         21    1    1    2  504  503  0.93540250305E+02 -0.42425724066E+02  0.12567397427E+04  0.12609300144E+04  0.00000000000E+00 0.  1.
<mgrwt>
<rscale>  2 0.10271183E+03</rscale>
<asrwt>0</asrwt>
<pdfrwt beam="1">  1       21 0.21445669E+00 0.10271183E+03</pdfrwt>
<pdfrwt beam="2">  1       21 0.33249668E-02 0.10271183E+03</pdfrwt>
<totfact> 0.62340561E+04</totfact>
</mgrwt>
</event>
<event>
 4    1  0.5810391E+003  0.1354272E+03  0.7546771E-02  0.1219618E+00
         21   -1    0    0  503  501  0.00000000000E+00  0.00000000000E+00  0.42129853519E+03  0.42129853519E+03  0.00000000000E+00 0. -1.
         21   -1    0    0  504  502 -0.00000000000E+00 -0.00000000000E+00 -0.15120274022E+03  0.15120274022E+03  0.00000000000E+00 0. -1.
         21    1    1    2  503  502  0.17746159624E+01 -0.13541555098E+03 -0.10650532445E+03  0.17229017629E+03  0.00000000000E+00 0. -1.
         21    1    1    2  504  501 -0.17746159624E+01  0.13541555098E+03  0.37660111943E+03  0.40021109912E+03  0.00000000000E+00 0. -1.
<mgrwt>
<rscale>  2 0.13542718E+03</rscale>
<asrwt>0</asrwt>
<pdfrwt beam="1">  1       21 0.64815159E-01 0.13542718E+03</pdfrwt>
<pdfrwt beam="2">  1       21 0.23261960E-01 0.13542718E+03</pdfrwt>
<totfact> 0.39289321E+04</totfact>
</mgrwt>
</event>
<event>
 4    1  0.5810391E+003  0.1303723E+03  0.7546771E-02  0.1226904E+00
         21   -1    0    0  502  501  0.00000000000E+00  0.00000000000E+00  0.18702206618E+03  0.18702206618E+03  0.00000000000E+00 0. -1.
         21   -1    0    0  503  502 -0.00000000000E+00 -0.00000000000E+00 -0.46705676610E+03  0.46705676610E+03  0.00000000000E+00 0.  1.
         21    1    1    2  503  504  0.90825661569E+02  0.93528813471E+02 -0.43351869347E+03  0.45269790958E+03  0.00000000000E+00 0.  1.
         21    1    1    2  504  501 -0.90825661569E+02 -0.93528813471E+02  0.15348399355E+03  0.20138092270E+03  0.00000000000E+00 0. -1.
<mgrwt>
<rscale>  2 0.13037231E+03</rscale>
<asrwt>0</asrwt>
<pdfrwt beam="1">  1       21 0.28772625E-01 0.13037231E+03</pdfrwt>
<pdfrwt beam="2">  1       21 0.71854888E-01 0.13037231E+03</pdfrwt>
<totfact> 0.21044045E+04</totfact>
</mgrwt>
</event>
<event>
 4    1  0.5810391E+003  0.1033323E+03  0.7546771E-02  0.1273441E+00
         21   -1    0    0  503  501  0.00000000000E+00  0.00000000000E+00  0.49429622783E+03  0.49429622783E+03  0.00000000000E+00 0.  1.
         21   -1    0    0  501  502 -0.00000000000E+00 -0.00000000000E+00 -0.65341106731E+02  0.65341106731E+02  0.00000000000E+00 0. -1.
         21    1    1    2  503  504  0.32735890675E+02  0.98009792852E+02  0.44341704274E+03  0.45529795939E+03  0.00000000000E+00 0.  1.
         21    1    1    2  504  502 -0.32735890675E+02 -0.98009792852E+02 -0.14461921642E+02  0.10433937517E+03  0.00000000000E+00 0. -1.
<mgrwt>
<rscale>  2 0.10333227E+03</rscale>
<asrwt>0</asrwt>
<pdfrwt beam="1">  1       21 0.76045571E-01 0.10333227E+03</pdfrwt>
<pdfrwt beam="2">  1       21 0.10052478E-01 0.10333227E+03</pdfrwt>
<totfact> 0.12819161E+05</totfact>
</mgrwt>
</event>
<event>
 4    1  0.5810391E+003  0.1150880E+03  0.7546771E-02  0.1251428E+00
         21   -1    0    0  503  501  0.00000000000E+00  0.00000000000E+00  0.13405362589E+03  0.13405362589E+03  0.00000000000E+00 0. -1.
         21   -1    0    0  504  502 -0.00000000000E+00 -0.00000000000E+00 -0.16848750594E+03  0.16848750594E+03  0.00000000000E+00 0.  1.
         21    1    1    2  503  502  0.22675646055E+02 -0.11283198487E+03 -0.11449855210E+03  0.16234272441E+03  0.00000000000E+00 0.  1.
         21    1    1    2  504  501 -0.22675646055E+02  0.11283198487E+03  0.80064672051E+02  0.14019840743E+03  0.00000000000E+00 0. -1.
<mgrwt>
<rscale>  2 0.11508797E+03</rscale>
<asrwt>0</asrwt>
<pdfrwt beam="1">  1       21 0.20623635E-01 0.11508797E+03</pdfrwt>
<pdfrwt beam="2">  1       21 0.25921155E-01 0.11508797E+03</pdfrwt>
<totfact> 0.31274285E+05</totfact>
</mgrwt>
</event>
<event>
 4    1  0.5810391E+003  0.1087006E+03  0.7546771E-02  0.1262995E+00
         21   -1    0    0  503  501  0.00000000000E+00  0.00000000000E+00  0.13812660726E+02  0.13812660726E+02  0.00000000000E+00 0.  1.
         21   -1    0    0  501  502 -0.00000000000E+00 -0.00000000000E+00 -0.11283160757E+04  0.11283160757E+04  0.00000000000E+00 0.  1.
         21    1    1    2  503  504 -0.74189120284E+02  0.79446830518E+02 -0.27641304134E+03  0.29701850763E+03  0.00000000000E+00 0.  1.
         21    1    1    2  504  502  0.74189120284E+02 -0.79446830518E+02 -0.83809037363E+03  0.84511022880E+03  0.00000000000E+00 0.  1.
<mgrwt>
<rscale>  2 0.10870062E+03</rscale>
<asrwt>0</asrwt>
<pdfrwt beam="1">  1       21 0.21250243E-02 0.10870062E+03</pdfrwt>
<pdfrwt beam="2">  1       21 0.17358712E+00 0.10870062E+03</pdfrwt>
<totfact> 0.23315550E+05</totfact>
</mgrwt>
</event>
<event>
 4    1  0.5810391E+003  0.1016572E+03  0.7546771E-02  0.1276849E+00
         21   -1    0    0  504  501  0.00000000000E+00  0.00000000000E+00  0.85311824320E+02  0.85311824320E+02  0.00000000000E+00 0. -1.
         21   -1    0    0  501  502 -0.00000000000E+00 -0.00000000000E+00 -0.15752495371E+03  0.15752495371E+03  0.00000000000E+00 0. -1.
         21    1    1    2  503  502 -0.87585586786E+02 -0.51603817636E+02 -0.94465136178E+02  0.13877265927E+03  0.00000000000E+00 0. -1.
         21    1    1    2  504  503  0.87585586786E+02  0.51603817636E+02  0.22252006790E+02  0.10406411876E+03  0.00000000000E+00 0. -1.
<mgrwt>
<rscale>  2 0.10165721E+03</rscale>
<asrwt>0</asrwt>
<pdfrwt beam="1">  1       21 0.13124896E-01 0.10165721E+03</pdfrwt>
<pdfrwt beam="2">  1       21 0.24234608E-01 0.10165721E+03</pdfrwt>
<totfact> 0.80433770E+05</totfact>
</mgrwt>
</event>
<event>
 4    1  0.5810391E+003  0.1541089E+03  0.7546771E-02  0.1195513E+00
         21   -1    0    0  503  501  0.00000000000E+00  0.00000000000E+00  0.66396319414E+03  0.66396319414E+03  0.00000000000E+00 0. -1.
         21   -1    0    0  504  502 -0.00000000000E+00 -0.00000000000E+00 -0.46020036070E+03  0.46020036070E+03  0.00000000000E+00 0.  1.
         21    1    1    2  503  502 -0.10780848418E+03 -0.11012209388E+03  0.64167730523E+03  0.65992371443E+03  0.00000000000E+00 0. -1.
         21    1    1    2  504  501  0.10780848418E+03  0.11012209388E+03 -0.43791447179E+03  0.46423984041E+03  0.00000000000E+00 0.  1.
<mgrwt>
<rscale>  2 0.15410887E+03</rscale>
<asrwt>0</asrwt>
<pdfrwt beam="1">  1       21 0.10214818E+00 0.15410887E+03</pdfrwt>
<pdfrwt beam="2">  1       21 0.70800055E-01 0.15410887E+03</pdfrwt>
<totfact> 0.14681073E+03</totfact>
</mgrwt>
</event>
<event>
 4    1  0.5810391E+003  0.1080386E+03  0.7546771E-02  0.1264246E+00
         21   -1    0    0  504  501  0.00000000000E+00  0.00000000000E+00  0.93781785409E+01  0.93781785409E+01  0.00000000000E+00 0. -1.
         21   -1    0    0  503  502 -0.00000000000E+00 -0.00000000000E+00 -0.16347560748E+04  0.16347560748E+04  0.00000000000E+00 0. -1.
         21    1    1    2  503  501 -0.10548201619E+03 -0.23364135890E+02 -0.12142806236E+04  0.12190774264E+04  0.00000000000E+00 0. -1.
         21    1    1    2  504  502  0.10548201619E+03  0.23364135890E+02 -0.41109727267E+03  0.42505682700E+03  0.00000000000E+00 0. -1.
<mgrwt>
<rscale>  2 0.10803860E+03</rscale>
<asrwt>0</asrwt>
<pdfrwt beam="1">  1       21 0.14427975E-02 0.10803860E+03</pdfrwt>
<pdfrwt beam="2">  1       21 0.25150080E+00 0.10803860E+03</pdfrwt>
<totfact> 0.14518220E+05</totfact>
</mgrwt>
</event>
<event>
 4    1  0.5810391E+003  0.1067526E+03  0.7546771E-02  0.1266705E+00
         21   -1    0    0  504  501  0.00000000000E+00  0.00000000000E+00  0.10021845372E+04  0.10021845372E+04  0.00000000000E+00 0. -1.
         21   -1    0    0  503  502 -0.00000000000E+00 -0.00000000000E+00 -0.13513088466E+02  0.13513088466E+02  0.00000000000E+00 0. -1.
         21    1    1    2  503  501 -0.10286553280E+03 -0.28544620186E+02  0.69652040046E+03  0.70465366063E+03  0.00000000000E+00 0. -1.
         21    1    1    2  504  502  0.10286553280E+03  0.28544620186E+02  0.29215104830E+03  0.31104396506E+03  0.00000000000E+00 0. -1.
<mgrwt>
<rscale>  2 0.10675258E+03</rscale>
<asrwt>0</asrwt>
<pdfrwt beam="1">  1       21 0.15418218E+00 0.10675258E+03</pdfrwt>
<pdfrwt beam="2">  1       21 0.20789375E-02 0.10675258E+03</pdfrwt>
<totfact> 0.33084453E+05</totfact>
</mgrwt>
</event>
<event>
 4    1  0.5810391E+003  0.1366643E+03  0.7546771E-02  0.1217889E+00
         21   -1    0    0  504  501  0.00000000000E+00  0.00000000000E+00  0.97271938338E+03  0.97271938338E+03  0.00000000000E+00 0. -1.
         21   -1    0    0  503  502 -0.00000000000E+00 -0.00000000000E+00 -0.26403096262E+02  0.26403096262E+02  0.00000000000E+00 0. -1.
         21    1    1    2  503  501 -0.12915109640E+03 -0.44689335892E+02  0.73406895862E+03  0.74668224732E+03  0.00000000000E+00 0. -1.
         21    1    1    2  504  502  0.12915109640E+03  0.44689335892E+02  0.21224732849E+03  0.25244023232E+03  0.00000000000E+00 0. -1.
<mgrwt>
<rscale>  2 0.13666434E+03</rscale>
<asrwt>0</asrwt>
<pdfrwt beam="1">  1       21 0.14964911E+00 0.13666434E+03</pdfrwt>
<pdfrwt beam="2">  1       21 0.40620156E-02 0.13666434E+03</pdfrwt>
<totfact> 0.11792127E+05</totfact>
</mgrwt>
</event>
<event>
 4    1  0.5810391E+003  0.1019714E+03  0.7546771E-02  0.1276204E+00
         21   -1    0    0  502  501  0.00000000000E+00  0.00000000000E+00  0.11750156108E+03  0.11750156108E+03  0.00000000000E+00 0. -1.
         21   -1    0    0  504  502 -0.00000000000E+00 -0.00000000000E+00 -0.61926081118E+03  0.61926081118E+03  0.00000000000E+00 0. -1.
         21    1    1    2  503  501  0.10179360698E+02  0.10146206727E+03  0.90166065900E+02  0.13611792652E+03  0.00000000000E+00 0. -1.
         21    1    1    2  504  503 -0.10179360698E+02 -0.10146206727E+03 -0.59192531600E+03  0.60064444574E+03  0.00000000000E+00 0. -1.
<mgrwt>
<rscale>  2 0.10197142E+03</rscale>
<asrwt>0</asrwt>
<pdfrwt beam="1">  1       21 0.18077163E-01 0.10197142E+03</pdfrwt>
<pdfrwt beam="2">  1       21 0.95270895E-01 0.10197142E+03</pdfrwt>
<totfact> 0.27252402E+04</totfact>
</mgrwt>
</event>
<event>
 4    1  0.5810391E+003  0.1117180E+03  0.7546771E-02  0.1257421E+00
         21   -1    0    0  502  501  0.00000000000E+00  0.00000000000E+00  0.29195233144E+02  0.29195233144E+02  0.00000000000E+00 0.  1.
         21   -1    0    0  503  502 -0.00000000000E+00 -0.00000000000E+00 -0.82641818042E+03  0.82641818042E+03  0.00000000000E+00 0. -1.
         21    1    1    2  503  504  0.63562923032E+02  0.91873106691E+02 -0.69584000147E+03  0.70475117635E+03  0.00000000000E+00 0. -1.
         21    1    1    2  504  501 -0.63562923032E+02 -0.91873106691E+02 -0.10138294580E+03  0.15086223721E+03  0.00000000000E+00 0.  1.
<mgrwt>
<rscale>  2 0.11171801E+03</rscale>
<asrwt>0</asrwt>
<pdfrwt beam="1">  1       21 0.44915745E-02 0.11171801E+03</pdfrwt>
<pdfrwt beam="2">  1       21 0.12714125E+00 0.11171801E+03</pdfrwt>
<totfact> 0.15236778E+05</totfact>
</mgrwt>
</event>
<event>
 4    1  0.5810391E+003  0.1049128E+03  0.7546771E-02  0.1270292E+00
         21   -1    0    0  504  501  0.00000000000E+00  0.00000000000E+00  0.16724107117E+03  0.16724107117E+03  0.00000000000E+00 0. -1.
         21   -1    0    0  503  502 -0.00000000000E+00 -0.00000000000E+00 -0.92448813195E+02  0.92448813195E+02  0.00000000000E+00 0.  1.
         21    1    1    2  503  501  0.78488617334E+02  0.69614847215E+02  0.10709163008E+03  0.14991766819E+03  0.00000000000E+00 0. -1.
         21    1    1    2  504  502 -0.78488617334E+02 -0.69614847215E+02 -0.32299372107E+02  0.10977221617E+03  0.00000000000E+00 0.  1.
<mgrwt>
<rscale>  2 0.10491277E+03</rscale>
<asrwt>0</asrwt>
<pdfrwt beam="1">  1       21 0.25729396E-01 0.10491277E+03</pdfrwt>
<pdfrwt beam="2">  1       21 0.14222894E-01 0.10491277E+03</pdfrwt>
<totfact> 0.62321001E+05</totfact>
</mgrwt>
</event>
<event>
 4    1  0.5810391E+003  0.1425299E+03  0.7546771E-02  0.1209965E+00
         21   -1    0    0  502  501  0.00000000000E+00  0.00000000000E+00  0.75541543295E+03  0.75541543295E+03  0.00000000000E+00 0.  1.
         21   -1    0    0  504  502 -0.00000000000E+00 -0.00000000000E+00 -0.34127281876E+02  0.34127281876E+02  0.00000000000E+00 0.  1.
         21    1    1    2  503  501  0.83970959691E+02 -0.11516794771E+03  0.54241176854E+03  0.56082555657E+03  0.00000000000E+00 0.  1.
         21    1    1    2  504  503 -0.83970959691E+02  0.11516794771E+03  0.17887638253E+03  0.22871715825E+03  0.00000000000E+00 0.  1.
<mgrwt>
<rscale>  2 0.14252992E+03</rscale>
<asrwt>0</asrwt>
<pdfrwt beam="1">  1       21 0.11621775E+00 0.14252992E+03</pdfrwt>
<pdfrwt beam="2">  1       21 0.52503516E-02 0.14252992E+03</pdfrwt>
<totfact> 0.14424277E+05</totfact>
</mgrwt>
</event>
<event>
 4    1  0.5810391E+003  0.1057831E+03  0.7546771E-02  0.1268584E+00
         21   -1    0    0  502  501  0.00000000000E+00  0.00000000000E+00  0.52298666980E+03  0.52298666980E+03  0.00000000000E+00 0.  1.
         21   -1    0    0  504  502 -0.00000000000E+00 -0.00000000000E+00 -0.31249723525E+02  0.31249723525E+02  0.00000000000E+00 0.  1.
         21    1    1    2  503  501  0.61843881270E+02  0.85821871181E+02  0.40147656524E+03  0.41517886707E+03  0.00000000000E+00 0.  1.
         21    1    1    2  504  503 -0.61843881270E+02 -0.85821871181E+02  0.90260381034E+02  0.13905752625E+03  0.00000000000E+00 0.  1.
<mgrwt>
<rscale>  2 0.10578308E+03</rscale>
<asrwt>0</asrwt>
<pdfrwt beam="1">  1       21 0.80459481E-01 0.10578308E+03</pdfrwt>
<pdfrwt beam="2">  1       21 0.48076502E-02 0.10578308E+03</pdfrwt>
<totfact> 0.39674284E+05</totfact>
</mgrwt>
</event>
<event>
 4    1  0.5810391E+003  0.2035615E+03  0.7546771E-02  0.1146769E+00
         21   -1    0    0  503  501  0.00000000000E+00  0.00000000000E+00  0.28532788929E+03  0.28532788929E+03  0.00000000000E+00 0.  1.
         21   -1    0    0  504  502 -0.00000000000E+00 -0.00000000000E+00 -0.26552978582E+03  0.26552978582E+03  0.00000000000E+00 0.  1.
         21    1    1    2  503  502  0.19431674731E+03 -0.60648778311E+02 -0.17549290436E+03  0.26876575688E+03  0.00000000000E+00 0.  1.
         21    1    1    2  504  501 -0.19431674731E+03  0.60648778311E+02  0.19529100782E+03  0.28209191823E+03  0.00000000000E+00 0.  1.
<mgrwt>
<rscale>  2 0.20356147E+03</rscale>
<asrwt>0</asrwt>
<pdfrwt beam="1">  1       21 0.43896598E-01 0.20356147E+03</pdfrwt>
<pdfrwt beam="2">  1       21 0.40850736E-01 0.20356147E+03</pdfrwt>
<totfact> 0.28607455E+04</totfact>
</mgrwt>
</event>
<event>
 4    1  0.5810391E+003  0.1057620E+03  0.7546771E-02  0.1268625E+00
         21   -1    0    0  503  501  0.00000000000E+00  0.00000000000E+00  0.16709010084E+04  0.16709010084E+04  0.00000000000E+00 0. -1.
         21   -1    0    0  501  502 -0.00000000000E+00 -0.00000000000E+00 -0.51592141582E+02  0.51592141582E+02  0.00000000000E+00 0.  1.
         21    1    1    2  503  504  0.10425308501E+03  0.17801638329E+02  0.16130847159E+04  0.16165481448E+04  0.00000000000E+00 0. -1.
         21    1    1    2  504  502 -0.10425308501E+03 -0.17801638329E+02  0.62241509740E+01  0.10594500515E+03  0.00000000000E+00 0.  1.
<mgrwt>
<rscale>  2 0.10576202E+03</rscale>
<asrwt>0</asrwt>
<pdfrwt beam="1">  1       21 0.25706165E+00 0.10576202E+03</pdfrwt>
<pdfrwt beam="2">  1       21 0.79372538E-02 0.10576202E+03</pdfrwt>
<totfact> 0.82071687E+03</totfact>
</mgrwt>
</event>
<event>
 4    1  0.5810391E+003  0.1023488E+03  0.7546771E-02  0.1275433E+00
         21   -1    0    0  503  501  0.00000000000E+00  0.00000000000E+00  0.28029163618E+03  0.28029163618E+03  0.00000000000E+00 0.  1.
         21   -1    0    0  504  502 -0.00000000000E+00 -0.00000000000E+00 -0.38165493239E+02  0.38165493239E+02  0.00000000000E+00 0. -1.
         21    1    1    2  503  502 -0.30130645181E+02 -0.97813220708E+02  0.14401078521E+03  0.17667594115E+03  0.00000000000E+00 0.  1.
         21    1    1    2  504  501  0.30130645181E+02  0.97813220708E+02  0.98115357731E+02  0.14178118827E+03  0.00000000000E+00 0. -1.
<mgrwt>
<rscale>  2 0.10234882E+03</rscale>
<asrwt>0</asrwt>
<pdfrwt beam="1">  1       21 0.43121789E-01 0.10234882E+03</pdfrwt>
<pdfrwt beam="2">  1       21 0.58716145E-02 0.10234882E+03</pdfrwt>
<totfact> 0.10565653E+06</totfact>
</mgrwt>
</event>
<event>
 4    1  0.5810391E+003  0.1147518E+03  0.7546771E-02  0.1252015E+00
         21   -1    0    0  504  501  0.00000000000E+00  0.00000000000E+00  0.42605776635E+03  0.42605776635E+03  0.00000000000E+00 0.  1.
         21   -1    0    0  503  502 -0.00000000000E+00 -0.00000000000E+00 -0.97856130345E+02  0.97856130345E+02  0.00000000000E+00 0.  1.
         21    1    1    2  503  501  0.11331501306E+02  0.11419091575E+03 -0.52574723290E+02  0.12622230267E+03  0.00000000000E+00 0.  1.
         21    1    1    2  504  502 -0.11331501306E+02 -0.11419091575E+03  0.38077635930E+03  0.39769159403E+03  0.00000000000E+00 0.  1.
<mgrwt>
<rscale>  2 0.11475177E+03</rscale>
<asrwt>0</asrwt>
<pdfrwt beam="1">  1       21 0.65547347E-01 0.11475177E+03</pdfrwt>
<pdfrwt beam="2">  1       21 0.15054790E-01 0.11475177E+03</pdfrwt>
<totfact> 0.86236405E+04</totfact>
</mgrwt>
</event>
<event>
 4    1  0.5810391E+003  0.1268228E+03  0.7546771E-02  0.1232248E+00
         21   -1    0    0  502  501  0.00000000000E+00  0.00000000000E+00  0.14165480457E+03  0.14165480457E+03  0.00000000000E+00 0. -1.
         21   -1    0    0  503  502 -0.00000000000E+00 -0.00000000000E+00 -0.25425937335E+03  0.25425937335E+03  0.00000000000E+00 0.  1.
         21    1    1    2  503  504 -0.12561309818E+03 -0.17474631591E+02 -0.20356872202E+03  0.23984211008E+03  0.00000000000E+00 0.  1.
         21    1    1    2  504  501  0.12561309818E+03  0.17474631591E+02  0.90964153246E+02  0.15607206784E+03  0.00000000000E+00 0. -1.
<mgrwt>
<rscale>  2 0.12682276E+03</rscale>
<asrwt>0</asrwt>
<pdfrwt beam="1">  1       21 0.21793047E-01 0.12682276E+03</pdfrwt>
<pdfrwt beam="2">  1       21 0.39116826E-01 0.12682276E+03</pdfrwt>
<totfact> 0.12668512E+05</totfact>
</mgrwt>
</event>
<event>
 4    1  0.5810391E+003  0.1113008E+03  0.7546771E-02  0.1258180E+00
         21   -1    0    0  503  501  0.00000000000E+00  0.00000000000E+00  0.84455683650E+03  0.84455683650E+03  0.00000000000E+00 0. -1.
         21   -1    0    0  501  502 -0.00000000000E+00 -0.00000000000E+00 -0.16315754528E+02  0.16315754528E+02  0.00000000000E+00 0.  1.
         21    1    1    2  503  504 -0.93068794026E+02  0.61041545223E+02  0.55091403721E+03  0.56204461306E+03  0.00000000000E+00 0.  1.
         21    1    1    2  504  502  0.93068794026E+02 -0.61041545223E+02  0.27732704476E+03  0.29882797797E+03  0.00000000000E+00 0. -1.
<mgrwt>
<rscale>  2 0.11130081E+03</rscale>
<asrwt>0</asrwt>
<pdfrwt beam="1">  1       21 0.12993179E+00 0.11130081E+03</pdfrwt>
<pdfrwt beam="2">  1       21 0.25101167E-02 0.11130081E+03</pdfrwt>
<totfact> 0.37564868E+05</totfact>
</mgrwt>
</event>
<event>
 4    1  0.5810391E+003  0.1060077E+03  0.7546771E-02  0.1268147E+00
         21   -1    0    0  504  501  0.00000000000E+00  0.00000000000E+00  0.19400432764E+02  0.19400432764E+02  0.00000000000E+00 0. -1.
         21   -1    0    0  503  502 -0.00000000000E+00 -0.00000000000E+00 -0.88711419819E+03  0.88711419819E+03  0.00000000000E+00 0. -1.
         21    1    1    2  503  501 -0.91334105591E+02 -0.53811838800E+02 -0.16684098631E+03  0.19767030012E+03  0.00000000000E+00 0. -1.
         21    1    1    2  504  502  0.91334105591E+02  0.53811838800E+02 -0.70087277912E+03  0.70884433083E+03  0.00000000000E+00 0. -1.
<mgrwt>
<rscale>  2 0.10600770E+03</rscale>
<asrwt>0</asrwt>
<pdfrwt beam="1">  1       21 0.29846814E-02 0.10600770E+03</pdfrwt>
<pdfrwt beam="2">  1       21 0.13647913E+00 0.10600770E+03</pdfrwt>
<totfact> 0.25129770E+05</totfact>
</mgrwt>
</event>
<event>
 4    1  0.5810391E+003  0.1946374E+03  0.7546771E-02  0.1154344E+00
         21   -1    0    0  503  501  0.00000000000E+00  0.00000000000E+00  0.18158733176E+04  0.18158733176E+04  0.00000000000E+00 0.  1.
         21   -1    0    0  504  502 -0.00000000000E+00 -0.00000000000E+00 -0.64395390682E+02  0.64395390682E+02  0.00000000000E+00 0.  1.
         21    1    1    2  503  502  0.18832222959E+03 -0.49177628166E+02  0.16487241362E+04  0.16601731773E+04  0.00000000000E+00 0.  1.
         21    1    1    2  504  501 -0.18832222959E+03  0.49177628166E+02  0.10275379076E+03  0.22009553104E+03  0.00000000000E+00 0.  1.
<mgrwt>
<rscale>  2 0.19463736E+03</rscale>
<asrwt>0</asrwt>
<pdfrwt beam="1">  1       21 0.27936509E+00 0.19463736E+03</pdfrwt>
<pdfrwt beam="2">  1       21 0.99069846E-02 0.19463736E+03</pdfrwt>
<totfact> 0.36938134E+03</totfact>
</mgrwt>
</event>
<event>
 4    1  0.5810391E+003  0.1443166E+03  0.7546771E-02  0.1207636E+00
         21   -1    0    0  503  501  0.00000000000E+00  0.00000000000E+00  0.10070408924E+04  0.10070408924E+04  0.00000000000E+00 0. -1.
         21   -1    0    0  501  502 -0.00000000000E+00 -0.00000000000E+00 -0.20688184511E+02  0.20688184511E+02  0.00000000000E+00 0. -1.
         21    1    1    2  503  504  0.12160694916E+03  0.77711211529E+02  0.50229838471E+03  0.52261931630E+03  0.00000000000E+00 0. -1.
         21    1    1    2  504  502 -0.12160694916E+03 -0.77711211529E+02  0.48405432313E+03  0.50510976057E+03  0.00000000000E+00 0. -1.
<mgrwt>
<rscale>  2 0.14431661E+03</rscale>
<asrwt>0</asrwt>
<pdfrwt beam="1">  1       21 0.15492933E+00 0.14431661E+03</pdfrwt>
<pdfrwt beam="2">  1       21 0.31827984E-02 0.14431661E+03</pdfrwt>
<totfact> 0.16078277E+05</totfact>
</mgrwt>
</event>
<event>
 4    1  0.5810391E+003  0.1588618E+03  0.7546771E-02  0.1189988E+00
         21   -1    0    0  503  501  0.00000000000E+00  0.00000000000E+00  0.37112016437E+02  0.37112016437E+02  0.00000000000E+00 0.  1.
         21   -1    0    0  504  502 -0.00000000000E+00 -0.00000000000E+00 -0.90995990405E+03  0.90995990405E+03  0.00000000000E+00 0. -1.
         21    1    1    2  503  502 -0.12816673227E+03 -0.93863448258E+02 -0.19838647368E+03  0.25415399096E+03  0.00000000000E+00 0.  1.
         21    1    1    2  504  501  0.12816673227E+03  0.93863448258E+02 -0.67446141394E+03  0.69291792953E+03  0.00000000000E+00 0. -1.
<mgrwt>
<rscale>  2 0.15886176E+03</rscale>
<asrwt>0</asrwt>
<pdfrwt beam="1">  1       21 0.57095408E-02 0.15886176E+03</pdfrwt>
<pdfrwt beam="2">  1       21 0.13999383E+00 0.15886176E+03</pdfrwt>
<totfact> 0.78151162E+04</totfact>
</mgrwt>
</event>
<event>
 4    1  0.5810391E+003  0.1140760E+03  0.7546771E-02  0.1253203E+00
         21   -1    0    0  504  501  0.00000000000E+00  0.00000000000E+00  0.12569020751E+03  0.12569020751E+03  0.00000000000E+00 0. -1.
         21   -1    0    0  503  502 -0.00000000000E+00 -0.00000000000E+00 -0.12714534027E+03  0.12714534027E+03  0.00000000000E+00 0. -1.
         21    1    1    2  503  501  0.11059952748E+03  0.27947777924E+02  0.53748930677E+02  0.12610424782E+03  0.00000000000E+00 0. -1.
         21    1    1    2  504  502 -0.11059952748E+03 -0.27947777924E+02 -0.55204063437E+02  0.12673129996E+03  0.00000000000E+00 0. -1.
<mgrwt>
<rscale>  2 0.11407600E+03</rscale>
<asrwt>0</asrwt>
<pdfrwt beam="1">  1       21 0.19336955E-01 0.11407600E+03</pdfrwt>
<pdfrwt beam="2">  1       21 0.19560822E-01 0.11407600E+03</pdfrwt>
<totfact> 0.59530998E+05</totfact>
</mgrwt>
</event>
<event>
 4    1  0.5810391E+003  0.1183606E+03  0.7546771E-02  0.1245826E+00
         21   -1    0    0  503  501  0.00000000000E+00  0.00000000000E+00  0.32457830693E+03  0.32457830693E+03  0.00000000000E+00 0. -1.
         21   -1    0    0  504  502 -0.00000000000E+00 -0.00000000000E+00 -0.52352981021E+02  0.52352981021E+02  0.00000000000E+00 0. -1.
         21    1    1    2  503  502  0.36706606239E+01 -0.11830363591E+03  0.57143272298E+02  0.13143278734E+03  0.00000000000E+00 0. -1.
         21    1    1    2  504  501 -0.36706606239E+01  0.11830363591E+03  0.21508205361E+03  0.24549850061E+03  0.00000000000E+00 0. -1.
<mgrwt>
<rscale>  2 0.11836057E+03</rscale>
<asrwt>0</asrwt>
<pdfrwt beam="1">  1       21 0.49935123E-01 0.11836057E+03</pdfrwt>
<pdfrwt beam="2">  1       21 0.80543050E-02 0.11836057E+03</pdfrwt>
<totfact> 0.45801133E+05</totfact>
</mgrwt>
</event>
<event>
 4    1  0.5810391E+003  0.1363122E+03  0.7546771E-02  0.1218379E+00
         21   -1    0    0  504  501  0.00000000000E+00  0.00000000000E+00  0.15529697995E+03  0.15529697995E+03  0.00000000000E+00 0.  1.
         21   -1    0    0  503  502 -0.00000000000E+00 -0.00000000000E+00 -0.16454314224E+03  0.16454314224E+03  0.00000000000E+00 0.  1.
         21    1    1    2  503  501  0.85889529668E+02 -0.10584894930E+03 -0.88156746128E+02  0.16233491080E+03  0.00000000000E+00 0.  1.
         21    1    1    2  504  502 -0.85889529668E+02  0.10584894930E+03  0.78910583840E+02  0.15750521140E+03  0.00000000000E+00 0.  1.
<mgrwt>
<rscale>  2 0.13631218E+03</rscale>
<asrwt>0</asrwt>
<pdfrwt beam="1">  1       21 0.23891843E-01 0.13631218E+03</pdfrwt>
<pdfrwt beam="2">  1       21 0.25314329E-01 0.13631218E+03</pdfrwt>
<totfact> 0.24755052E+05</totfact>
</mgrwt>
</event>
<event>
 4    1  0.5810391E+003  0.1876225E+03  0.7546771E-02  0.1160623E+00
         21   -1    0    0  504  501  0.00000000000E+00  0.00000000000E+00  0.50245629926E+03  0.50245629926E+03  0.00000000000E+00 0. -1.
         21   -1    0    0  503  502 -0.00000000000E+00 -0.00000000000E+00 -0.94581707158E+02  0.94581707158E+02  0.00000000000E+00 0.  1.
         21    1    1    2  503  501 -0.13369210991E+03 -0.13163822021E+03  0.35593665936E+03  0.40235942483E+03  0.00000000000E+00 0.  1.
         21    1    1    2  504  502  0.13369210991E+03  0.13163822021E+03  0.51937932742E+02  0.19467858159E+03  0.00000000000E+00 0. -1.
<mgrwt>
<rscale>  2 0.18762250E+03</rscale>
<asrwt>0</asrwt>
<pdfrwt beam="1">  1       21 0.77300968E-01 0.18762250E+03</pdfrwt>
<pdfrwt beam="2">  1       21 0.14551032E-01 0.18762250E+03</pdfrwt>
<totfact> 0.61742391E+04</totfact>
</mgrwt>
</event>
<event>
 4    1  0.5810391E+003  0.1445578E+03  0.7546771E-02  0.1207324E+00
         21   -1    0    0  503  501  0.00000000000E+00  0.00000000000E+00  0.44256670855E+03  0.44256670855E+03  0.00000000000E+00 0. -1.
         21   -1    0    0  504  502 -0.00000000000E+00 -0.00000000000E+00 -0.52147843522E+02  0.52147843522E+02  0.00000000000E+00 0.  1.
         21    1    1    2  503  502  0.14455104400E+03  0.13978168177E+01  0.27126634103E+03  0.30737987245E+03  0.00000000000E+00 0. -1.
         21    1    1    2  504  501 -0.14455104400E+03 -0.13978168177E+01  0.11915252399E+03  0.18733467962E+03  0.00000000000E+00 0.  1.
<mgrwt>
<rscale>  2 0.14455780E+03</rscale>
<asrwt>0</asrwt>
<pdfrwt beam="1">  1       21 0.68087183E-01 0.14455780E+03</pdfrwt>
<pdfrwt beam="2">  1       21 0.80227455E-02 0.14455780E+03</pdfrwt>
<totfact> 0.23822136E+05</totfact>
</mgrwt>
</event>
<event>
 4    1  0.5810391E+003  0.1907594E+03  0.7546771E-02  0.1157778E+00
         21   -1    0    0  504  501  0.00000000000E+00  0.00000000000E+00  0.16464894638E+03  0.16464894638E+03  0.00000000000E+00 0.  1.
         21   -1    0    0  503  502 -0.00000000000E+00 -0.00000000000E+00 -0.35787222860E+03  0.35787222860E+03  0.00000000000E+00 0.  1.
         21    1    1    2  503  501 -0.13412950734E+02 -0.19028726912E+03  0.64954685957E+02  0.20151492070E+03  0.00000000000E+00 0.  1.
         21    1    1    2  504  502  0.13412950734E+02  0.19028726912E+03 -0.25817796818E+03  0.32100625428E+03  0.00000000000E+00 0.  1.
<mgrwt>
<rscale>  2 0.19075941E+03</rscale>
<asrwt>0</asrwt>
<pdfrwt beam="1">  1       21 0.25330607E-01 0.19075941E+03</pdfrwt>
<pdfrwt beam="2">  1       21 0.55057266E-01 0.19075941E+03</pdfrwt>
<totfact> 0.46016567E+04</totfact>
</mgrwt>
</event>
<event>
 4    1  0.5810391E+003  0.1348844E+03  0.7546771E-02  0.1220383E+00
         21   -1    0    0  503  501  0.00000000000E+00  0.00000000000E+00  0.93414486439E+02  0.93414486439E+02  0.00000000000E+00 0. -1.
         21   -1    0    0  504  502 -0.00000000000E+00 -0.00000000000E+00 -0.23045590065E+03  0.23045590065E+03  0.00000000000E+00 0.  1.
         21    1    1    2  503  502 -0.10628780732E+03 -0.83046432720E+02 -0.47927081819E+01  0.13496954480E+03  0.00000000000E+00 0. -1.
         21    1    1    2  504  501  0.10628780732E+03  0.83046432720E+02 -0.13224870603E+03  0.18890084229E+03  0.00000000000E+00 0.  1.
<mgrwt>
<rscale>  2 0.13488442E+03</rscale>
<asrwt>0</asrwt>
<pdfrwt beam="1">  1       21 0.14371460E-01 0.13488442E+03</pdfrwt>
<pdfrwt beam="2">  1       21 0.35454754E-01 0.13488442E+03</pdfrwt>
<totfact> 0.32898203E+05</totfact>
</mgrwt>
</event>
<event>
 4    1  0.5810391E+003  0.1447237E+03  0.7546771E-02  0.1207111E+00
         21   -1    0    0  504  501  0.00000000000E+00  0.00000000000E+00  0.30923482914E+02  0.30923482914E+02  0.00000000000E+00 0.  1.
         21   -1    0    0  503  502 -0.00000000000E+00 -0.00000000000E+00 -0.81997832426E+03  0.81997832426E+03  0.00000000000E+00 0. -1.
         21    1    1    2  503  501 -0.96918170085E+02  0.10747938505E+03 -0.57198881481E+03  0.59001368981E+03  0.00000000000E+00 0. -1.
         21    1    1    2  504  502  0.96918170085E+02 -0.10747938505E+03 -0.21706602654E+03  0.26088811736E+03  0.00000000000E+00 0.  1.
<mgrwt>
<rscale>  2 0.14472370E+03</rscale>
<asrwt>0</asrwt>
<pdfrwt beam="1">  1       21 0.47574595E-02 0.14472370E+03</pdfrwt>
<pdfrwt beam="2">  1       21 0.12615050E+00 0.14472370E+03</pdfrwt>
<totfact> 0.13910991E+05</totfact>
</mgrwt>
</event>
<event>
 4    1  0.5810391E+003  0.1289809E+03  0.7546771E-02  0.1228976E+00
         21   -1    0    0  504  501  0.00000000000E+00  0.00000000000E+00  0.40390217713E+02  0.40390217713E+02  0.00000000000E+00 0.  1.
         21   -1    0    0  501  502 -0.00000000000E+00 -0.00000000000E+00 -0.64342908390E+03  0.64342908390E+03  0.00000000000E+00 0.  1.
         21    1    1    2  503  502 -0.77179059183E+02  0.10334146087E+03 -0.50662585377E+03  0.52278659166E+03  0.00000000000E+00 0.  1.
         21    1    1    2  504  503  0.77179059183E+02 -0.10334146087E+03 -0.96413012418E+02  0.16103270995E+03  0.00000000000E+00 0.  1.
<mgrwt>
<rscale>  2 0.12898087E+03</rscale>
<asrwt>0</asrwt>
<pdfrwt beam="1">  1       21 0.62138801E-02 0.12898087E+03</pdfrwt>
<pdfrwt beam="2">  1       21 0.98989082E-01 0.12898087E+03</pdfrwt>
<totfact> 0.15970910E+05</totfact>
</mgrwt>
</event>
<event>
 4    1  0.5810391E+003  0.1310992E+03  0.7546771E-02  0.1225834E+00
         21   -1    0    0  504  501  0.00000000000E+00  0.00000000000E+00  0.50340205543E+03  0.50340205543E+03  0.00000000000E+00 0.  1.
         21   -1    0    0  503  502 -0.00000000000E+00 -0.00000000000E+00 -0.34153516534E+02  0.34153516534E+02  0.00000000000E+00 0.  1.
         21    1    1    2  503  501  0.10617836602E+03 -0.76897047012E+02  0.22962454000E+03  0.26441337073E+03  0.00000000000E+00 0.  1.
         21    1    1    2  504  502 -0.10617836602E+03  0.76897047012E+02  0.23962399890E+03  0.27314220124E+03  0.00000000000E+00 0.  1.
<mgrwt>
<rscale>  2 0.13109920E+03</rscale>
<asrwt>0</asrwt>
<pdfrwt beam="1">  1       21 0.77446465E-01 0.13109920E+03</pdfrwt>
<pdfrwt beam="2">  1       21 0.52543875E-02 0.13109920E+03</pdfrwt>
<totfact> 0.37052688E+05</totfact>
</mgrwt>
</event>
<event>
 4    1  0.5810391E+003  0.1065429E+03  0.7546771E-02  0.1267109E+00
         21   -1    0    0  504  501  0.00000000000E+00  0.00000000000E+00  0.15249129473E+03  0.15249129473E+03  0.00000000000E+00 0. -1.
         21   -1    0    0  503  502 -0.00000000000E+00 -0.00000000000E+00 -0.95092068339E+02  0.95092068339E+02  0.00000000000E+00 0. -1.
         21    1    1    2  503  501 -0.10649588015E+03 -0.31650469911E+01 -0.28991027875E+02  0.11041679993E+03  0.00000000000E+00 0. -1.
         21    1    1    2  504  502  0.10649588015E+03  0.31650469911E+01  0.86390254270E+02  0.13716656314E+03  0.00000000000E+00 0. -1.
<mgrwt>
<rscale>  2 0.10654290E+03</rscale>
<asrwt>0</asrwt>
<pdfrwt beam="1">  1       21 0.23460199E-01 0.10654290E+03</pdfrwt>
<pdfrwt beam="2">  1       21 0.14629549E-01 0.10654290E+03</pdfrwt>
<totfact> 0.70470724E+05</totfact>
</mgrwt>
</event>
<event>
 4    1  0.5810391E+003  0.1155295E+03  0.7546771E-02  0.1250660E+00
         21   -1    0    0  504  501  0.00000000000E+00  0.00000000000E+00  0.96956120045E+02  0.96956120045E+02  0.00000000000E+00 0. -1.
         21   -1    0    0  503  502 -0.00000000000E+00 -0.00000000000E+00 -0.28224086778E+03  0.28224086778E+03  0.00000000000E+00 0. -1.
         21    1    1    2  503  501  0.66102053040E+02 -0.94750087686E+02  0.43057389977E+02  0.12329233295E+03  0.00000000000E+00 0. -1.
         21    1    1    2  504  502 -0.66102053040E+02  0.94750087686E+02 -0.22834213772E+03  0.25590465488E+03  0.00000000000E+00 0. -1.
<mgrwt>
<rscale>  2 0.11552948E+03</rscale>
<asrwt>0</asrwt>
<pdfrwt beam="1">  1       21 0.14916326E-01 0.11552948E+03</pdfrwt>
<pdfrwt beam="2">  1       21 0.43421672E-01 0.11552948E+03</pdfrwt>
<totfact> 0.20631376E+05</totfact>
</mgrwt>
</event>
<event>
 4    1  0.5810391E+003  0.1362406E+03  0.7546771E-02  0.1218479E+00
         21   -1    0    0  504  501  0.00000000000E+00  0.00000000000E+00  0.25651720735E+02  0.25651720735E+02  0.00000000000E+00 0.  1.
         21   -1    0    0  503  502 -0.00000000000E+00 -0.00000000000E+00 -0.78207816718E+03  0.78207816718E+03  0.00000000000E+00 0.  1.
         21    1    1    2  503  501  0.10330017683E+03 -0.88828902332E+02 -0.48865165055E+03  0.50728880927E+03  0.00000000000E+00 0.  1.
         21    1    1    2  504  502 -0.10330017683E+03  0.88828902332E+02 -0.26777479590E+03  0.30044107865E+03  0.00000000000E+00 0.  1.
<mgrwt>
<rscale>  2 0.13624060E+03</rscale>
<asrwt>0</asrwt>
<pdfrwt beam="1">  1       21 0.39464186E-02 0.13624060E+03</pdfrwt>
<pdfrwt beam="2">  1       21 0.12031972E+00 0.13624060E+03</pdfrwt>
<totfact> 0.21431764E+05</totfact>
</mgrwt>
</event>
<event>
 4    1  0.5810391E+003  0.1019956E+03  0.7546771E-02  0.1276155E+00
         21   -1    0    0  503  501  0.00000000000E+00  0.00000000000E+00  0.14067950355E+03  0.14067950355E+03  0.00000000000E+00 0.  1.
         21   -1    0    0  501  502 -0.00000000000E+00 -0.00000000000E+00 -0.86172124951E+02  0.86172124951E+02  0.00000000000E+00 0.  1.
         21    1    1    2  503  504 -0.78776648325E+02 -0.64786949367E+02  0.69972540418E+02  0.12369019986E+03  0.00000000000E+00 0.  1.
         21    1    1    2  504  502  0.78776648325E+02  0.64786949367E+02 -0.15465161814E+02  0.10316142864E+03  0.00000000000E+00 0.  1.
<mgrwt>
<rscale>  2 0.10199563E+03</rscale>
<asrwt>0</asrwt>
<pdfrwt beam="1">  1       21 0.21643001E-01 0.10199563E+03</pdfrwt>
<pdfrwt beam="2">  1       21 0.13257250E-01 0.10199563E+03</pdfrwt>
<totfact> 0.97530619E+05</totfact>
</mgrwt>
</event>
<event>
 4    1  0.5810391E+003  0.1079659E+03  0.7546771E-02  0.1264384E+00
         21   -1    0    0  504  501  0.00000000000E+00  0.00000000000E+00  0.52546391999E+02  0.52546391999E+02  0.00000000000E+00 0.  1.
         21   -1    0    0  503  502 -0.00000000000E+00 -0.00000000000E+00 -0.59608978487E+03  0.59608978487E+03  0.00000000000E+00 0. -1.
         21    1    1    2  503  501  0.71064407907E+02  0.81280314631E+02 -0.52875144150E+03  0.53966167781E+03  0.00000000000E+00 0. -1.
         21    1    1    2  504  502 -0.71064407907E+02 -0.81280314631E+02 -0.14791951371E+02  0.10897449905E+03  0.00000000000E+00 0.  1.
<mgrwt>
<rscale>  2 0.10796592E+03</rscale>
<asrwt>0</asrwt>
<pdfrwt beam="1">  1       21 0.80840600E-02 0.10796592E+03</pdfrwt>
<pdfrwt beam="2">  1       21 0.91706124E-01 0.10796592E+03</pdfrwt>
<totfact> 0.12258650E+05</totfact>
</mgrwt>
</event>
<event>
 4    1  0.5810391E+003  0.1349049E+03  0.7546771E-02  0.1220354E+00
         21   -1    0    0  504  501  0.00000000000E+00  0.00000000000E+00  0.25841422803E+03  0.25841422803E+03  0.00000000000E+00 0. -1.
         21   -1    0    0  503  502 -0.00000000000E+00 -0.00000000000E+00 -0.81957903424E+02  0.81957903424E+02  0.00000000000E+00 0.  1.
         21    1    1    2  503  501 -0.11694724557E+03  0.67250863872E+02  0.24392938646E+02  0.13709249576E+03  0.00000000000E+00 0.  1.
         21    1    1    2  504  502  0.11694724557E+03 -0.67250863872E+02  0.15206338596E+03  0.20327963569E+03  0.00000000000E+00 0. -1.
<mgrwt>
<rscale>  2 0.13490492E+03</rscale>
<asrwt>0</asrwt>
<pdfrwt beam="1">  1       21 0.39756035E-01 0.13490492E+03</pdfrwt>
<pdfrwt beam="2">  1       21 0.12608908E-01 0.13490492E+03</pdfrwt>
<totfact> 0.33127035E+05</totfact>
</mgrwt>
</event>
<event>
 4    1  0.5810391E+003  0.1184344E+03  0.7546771E-02  0.1245702E+00
         21   -1    0    0  503  501  0.00000000000E+00  0.00000000000E+00  0.46134272173E+02  0.46134272173E+02  0.00000000000E+00 0.  1.
         21   -1    0    0  504  502 -0.00000000000E+00 -0.00000000000E+00 -0.60820483740E+03  0.60820483740E+03  0.00000000000E+00 0.  1.
         21    1    1    2  503  502  0.95969380496E+02  0.69401661294E+02 -0.51240243488E+03  0.52591155897E+03  0.00000000000E+00 0.  1.
         21    1    1    2  504  501 -0.95969380496E+02 -0.69401661294E+02 -0.49668130349E+02  0.12842755061E+03  0.00000000000E+00 0.  1.
<mgrwt>
<rscale>  2 0.11843442E+03</rscale>
<asrwt>0</asrwt>
<pdfrwt beam="1">  1       21 0.70975804E-02 0.11843442E+03</pdfrwt>
<pdfrwt beam="2">  1       21 0.93569974E-01 0.11843442E+03</pdfrwt>
<totfact> 0.14564229E+05</totfact>
</mgrwt>
</event>
<event>
 4    1  0.5810391E+003  0.1100354E+03  0.7546771E-02  0.1260504E+00
         21   -1    0    0  503  501  0.00000000000E+00  0.00000000000E+00  0.12652227031E+03  0.12652227031E+03  0.00000000000E+00 0. -1.
         21   -1    0    0  504  502 -0.00000000000E+00 -0.00000000000E+00 -0.17598901058E+03  0.17598901058E+03  0.00000000000E+00 0.  1.
         21    1    1    2  503  502  0.87221553808E+02 -0.67083493325E+02 -0.12689907225E+03  0.16796180835E+03  0.00000000000E+00 0.  1.
         21    1    1    2  504  501 -0.87221553808E+02  0.67083493325E+02  0.77432331985E+02  0.13454947254E+03  0.00000000000E+00 0. -1.
<mgrwt>
<rscale>  2 0.11003542E+03</rscale>
<asrwt>0</asrwt>
<pdfrwt beam="1">  1       21 0.19464965E-01 0.11003542E+03</pdfrwt>
<pdfrwt beam="2">  1       21 0.27075232E-01 0.11003542E+03</pdfrwt>
<totfact> 0.32064085E+05</totfact>
</mgrwt>
</event>
<event>
 4    1  0.5810391E+003  0.1334544E+03  0.7546771E-02  0.1222418E+00
         21   -1    0    0  504  501  0.00000000000E+00  0.00000000000E+00  0.60615238138E+03  0.60615238138E+03  0.00000000000E+00 0.  1.
         21   -1    0    0  503  502 -0.00000000000E+00 -0.00000000000E+00 -0.40316835032E+02  0.40316835032E+02  0.00000000000E+00 0.  1.
         21    1    1    2  503  501  0.50715815876E+02  0.12344219905E+03  0.11458160399E+03  0.17589489605E+03  0.00000000000E+00 0.  1.
         21    1    1    2  504  502 -0.50715815876E+02 -0.12344219905E+03  0.45125394237E+03  0.47057432036E+03  0.00000000000E+00 0.  1.
<mgrwt>
<rscale>  2 0.13345438E+03</rscale>
<asrwt>0</asrwt>
<pdfrwt beam="1">  1       21 0.93254206E-01 0.13345438E+03</pdfrwt>
<pdfrwt beam="2">  1       21 0.62025904E-02 0.13345438E+03</pdfrwt>
<totfact> 0.18370589E+05</totfact>
</mgrwt>
</event>
<event>
 4    1  0.5810391E+003  0.1228453E+03  0.7546771E-02  0.1238476E+00
         21   -1    0    0  504  501  0.00000000000E+00  0.00000000000E+00  0.83461813949E+02  0.83461813949E+02  0.00000000000E+00 0. -1.
         21   -1    0    0  503  502 -0.00000000000E+00 -0.00000000000E+00 -0.24726152390E+03  0.24726152390E+03  0.00000000000E+00 0.  1.
         21    1    1    2  503  501  0.73163950335E+02  0.98681276632E+02  0.38236944095E+01  0.12290475428E+03  0.00000000000E+00 0. -1.
         21    1    1    2  504  502 -0.73163950335E+02 -0.98681276632E+02 -0.16762340436E+03  0.20781858356E+03  0.00000000000E+00 0.  1.
<mgrwt>
<rscale>  2 0.12284526E+03</rscale>
<asrwt>0</asrwt>
<pdfrwt beam="1">  1       21 0.12840279E-01 0.12284526E+03</pdfrwt>
<pdfrwt beam="2">  1       21 0.38040234E-01 0.12284526E+03</pdfrwt>
<totfact> 0.35081615E+05</totfact>
</mgrwt>
</event>
<event>
 4    1  0.5810391E+003  0.1160350E+03  0.7546771E-02  0.1249785E+00
         21   -1    0    0  504  501  0.00000000000E+00  0.00000000000E+00  0.77188613894E+02  0.77188613894E+02  0.00000000000E+00 0. -1.
         21   -1    0    0  501  502 -0.00000000000E+00 -0.00000000000E+00 -0.18780894499E+03  0.18780894499E+03  0.00000000000E+00 0. -1.
         21    1    1    2  503  502 -0.45654483798E+02 -0.10667607720E+03 -0.90672594484E+02  0.14726043843E+03  0.00000000000E+00 0. -1.
         21    1    1    2  504  503  0.45654483798E+02  0.10667607720E+03 -0.19947736613E+02  0.11773712045E+03  0.00000000000E+00 0. -1.
<mgrwt>
<rscale>  2 0.11603498E+03</rscale>
<asrwt>0</asrwt>
<pdfrwt beam="1">  1       21 0.11875172E-01 0.11603498E+03</pdfrwt>
<pdfrwt beam="2">  1       21 0.28893683E-01 0.11603498E+03</pdfrwt>
<totfact> 0.68876270E+05</totfact>
</mgrwt>
</event>
<event>
 4    1  0.5810391E+003  0.1234869E+03  0.7546771E-02  0.1237453E+00
         21   -1    0    0  503  501  0.00000000000E+00  0.00000000000E+00  0.62390323079E+03  0.62390323079E+03  0.00000000000E+00 0.  1.
         21   -1    0    0  504  502 -0.00000000000E+00 -0.00000000000E+00 -0.34816033315E+02  0.34816033315E+02  0.00000000000E+00 0.  1.
         21    1    1    2  503  502  0.10233095996E+03  0.69118714481E+02  0.11475230496E+03  0.16857376294E+03  0.00000000000E+00 0.  1.
         21    1    1    2  504  501 -0.10233095996E+03 -0.69118714481E+02  0.47433489251E+03  0.49014550116E+03  0.00000000000E+00 0.  1.
<mgrwt>
<rscale>  2 0.12348693E+03</rscale>
<asrwt>0</asrwt>
<pdfrwt beam="1">  1       21 0.95985104E-01 0.12348693E+03</pdfrwt>
<pdfrwt beam="2">  1       21 0.53563133E-02 0.12348693E+03</pdfrwt>
<totfact> 0.22094574E+05</totfact>
</mgrwt>
</event>
<event>
 4    1  0.5810391E+003  0.1214860E+03  0.7546771E-02  0.1240666E+00
         21   -1    0    0  502  501  0.00000000000E+00  0.00000000000E+00  0.47801922549E+02  0.47801922549E+02  0.00000000000E+00 0. -1.
         21   -1    0    0  504  502 -0.00000000000E+00 -0.00000000000E+00 -0.33670549143E+03  0.33670549143E+03  0.00000000000E+00 0. -1.
         21    1    1    2  503  501  0.11844150922E+03  0.27027004119E+02 -0.89055308628E+02  0.15063099964E+03  0.00000000000E+00 0. -1.
         21    1    1    2  504  503 -0.11844150922E+03 -0.27027004119E+02 -0.19984826025E+03  0.23387641434E+03  0.00000000000E+00 0. -1.
<mgrwt>
<rscale>  2 0.12148601E+03</rscale>
<asrwt>0</asrwt>
<pdfrwt beam="1">  1       21 0.73541420E-02 0.12148601E+03</pdfrwt>
<pdfrwt beam="2">  1       21 0.51800845E-01 0.12148601E+03</pdfrwt>
<totfact> 0.49622422E+05</totfact>
</mgrwt>
</event>
<event>
 4    1  0.5810391E+003  0.1047111E+03  0.7546771E-02  0.1270690E+00
         21   -1    0    0  502  501  0.00000000000E+00  0.00000000000E+00  0.48642685956E+03  0.48642685956E+03  0.00000000000E+00 0.  1.
         21   -1    0    0  504  502 -0.00000000000E+00 -0.00000000000E+00 -0.54656561928E+02  0.54656561928E+02  0.00000000000E+00 0. -1.
         21    1    1    2  503  501  0.20871234189E+02 -0.10260997991E+03  0.42326791682E+03  0.43602768927E+03  0.00000000000E+00 0.  1.
         21    1    1    2  504  503 -0.20871234189E+02  0.10260997991E+03  0.85023808100E+01  0.10505573222E+03  0.00000000000E+00 0. -1.
<mgrwt>
<rscale>  2 0.10471111E+03</rscale>
<asrwt>0</asrwt>
<pdfrwt beam="1">  1       21 0.74834899E-01 0.10471111E+03</pdfrwt>
<pdfrwt beam="2">  1       21 0.84087021E-02 0.10471111E+03</pdfrwt>
<totfact> 0.18074715E+05</totfact>
</mgrwt>
</event>
<event>
 4    1  0.5810391E+003  0.1405186E+03  0.7546771E-02  0.1212633E+00
         21   -1    0    0  504  501  0.00000000000E+00  0.00000000000E+00  0.90818114719E+03  0.90818114719E+03  0.00000000000E+00 0. -1.
         21   -1    0    0  503  502 -0.00000000000E+00 -0.00000000000E+00 -0.49037853450E+02  0.49037853450E+02  0.00000000000E+00 0.  1.
         21    1    1    2  503  501 -0.83236557056E+02 -0.11321287590E+03  0.72491557647E+02  0.15811548194E+03  0.00000000000E+00 0.  1.
         21    1    1    2  504  502  0.83236557056E+02  0.11321287590E+03  0.78665173609E+03  0.79910351870E+03  0.00000000000E+00 0. -1.
<mgrwt>
<rscale>  2 0.14051861E+03</rscale>
<asrwt>0</asrwt>
<pdfrwt beam="1">  1       21 0.13972016E+00 0.14051861E+03</pdfrwt>
<pdfrwt beam="2">  1       21 0.75442859E-02 0.14051861E+03</pdfrwt>
<totfact> 0.49252588E+04</totfact>
</mgrwt>
</event>
<event>
 4    1  0.5810391E+003  0.1231711E+03  0.7546771E-02  0.1237956E+00
         21   -1    0    0  504  501  0.00000000000E+00  0.00000000000E+00  0.57647229735E+03  0.57647229735E+03  0.00000000000E+00 0. -1.
         21   -1    0    0  503  502 -0.00000000000E+00 -0.00000000000E+00 -0.80353704701E+02  0.80353704701E+02  0.00000000000E+00 0.  1.
         21    1    1    2  503  501 -0.12306645700E+03  0.50766139848E+01 -0.21256047052E+02  0.12499177727E+03  0.00000000000E+00 0.  1.
         21    1    1    2  504  502  0.12306645700E+03 -0.50766139848E+01  0.51737463970E+03  0.53183422479E+03  0.00000000000E+00 0. -1.
<mgrwt>
<rscale>  2 0.12317112E+03</rscale>
<asrwt>0</asrwt>
<pdfrwt beam="1">  1       21 0.88688043E-01 0.12317112E+03</pdfrwt>
<pdfrwt beam="2">  1       21 0.12362109E-01 0.12317112E+03</pdfrwt>
<totfact> 0.62573102E+04</totfact>
</mgrwt>
</event>
<event>
 4    1  0.5810391E+003  0.1049467E+03  0.7546771E-02  0.1270225E+00
         21   -1    0    0  502  501  0.00000000000E+00  0.00000000000E+00  0.27578434471E+02  0.27578434471E+02  0.00000000000E+00 0.  1.
         21   -1    0    0  503  502 -0.00000000000E+00 -0.00000000000E+00 -0.94596598983E+03  0.94596598983E+03  0.00000000000E+00 0.  1.
         21    1    1    2  503  504  0.33577671487E+02 -0.99430145425E+02 -0.82921267966E+03  0.83582742354E+03  0.00000000000E+00 0.  1.
         21    1    1    2  504  501 -0.33577671487E+02  0.99430145425E+02 -0.89174875701E+02  0.13771700076E+03  0.00000000000E+00 0.  1.
<mgrwt>
<rscale>  2 0.10494672E+03</rscale>
<asrwt>0</asrwt>
<pdfrwt beam="1">  1       21 0.42428365E-02 0.10494672E+03</pdfrwt>
<pdfrwt beam="2">  1       21 0.14553321E+00 0.10494672E+03</pdfrwt>
<totfact> 0.11987983E+05</totfact>
</mgrwt>
</event>
<event>
 4    1  0.5810391E+003  0.1072046E+03  0.7546771E-02  0.1265836E+00
         21   -1    0    0  503  501  0.00000000000E+00  0.00000000000E+00  0.31255487412E+03  0.31255487412E+03  0.00000000000E+00 0. -1.
         21   -1    0    0  504  502 -0.00000000000E+00 -0.00000000000E+00 -0.46837030886E+02  0.46837030886E+02  0.00000000000E+00 0. -1.
         21    1    1    2  503  502  0.81183508384E+02 -0.70014789518E+02  0.49551978172E+02  0.11810263048E+03  0.00000000000E+00 0. -1.
         21    1    1    2  504  501 -0.81183508384E+02  0.70014789518E+02  0.21616586506E+03  0.24128927453E+03  0.00000000000E+00 0. -1.
<mgrwt>
<rscale>  2 0.10720463E+03</rscale>
<asrwt>0</asrwt>
<pdfrwt beam="1">  1       21 0.48085364E-01 0.10720463E+03</pdfrwt>
<pdfrwt beam="2">  1       21 0.72056973E-02 0.10720463E+03</pdfrwt>
<totfact> 0.59927259E+05</totfact>
</mgrwt>
</event>
<event>
 4    1  0.5810391E+003  0.1379410E+03  0.7546771E-02  0.1216127E+00
         21   -1    0    0  503  501  0.00000000000E+00  0.00000000000E+00  0.33292077050E+03  0.33292077050E+03  0.00000000000E+00 0. -1.
         21   -1    0    0  504  502 -0.00000000000E+00 -0.00000000000E+00 -0.93363929645E+02  0.93363929645E+02  0.00000000000E+00 0.  1.
         21    1    1    2  503  502 -0.13676051539E+03 -0.18007556410E+02 -0.12959437446E+02  0.13854839471E+03  0.00000000000E+00 0.  1.
         21    1    1    2  504  501  0.13676051539E+03  0.18007556410E+02  0.25251627830E+03  0.28773630543E+03  0.00000000000E+00 0. -1.
<mgrwt>
<rscale>  2 0.13794097E+03</rscale>
<asrwt>0</asrwt>
<pdfrwt beam="1">  1       21 0.51218579E-01 0.13794097E+03</pdfrwt>
<pdfrwt beam="2">  1       21 0.14363682E-01 0.13794097E+03</pdfrwt>
<totfact> 0.15650256E+05</totfact>
</mgrwt>
</event>
<event>
 4    1  0.5810391E+003  0.1039402E+03  0.7546771E-02  0.1272222E+00
         21   -1    0    0  504  501  0.00000000000E+00  0.00000000000E+00  0.20560141392E+03  0.20560141392E+03  0.00000000000E+00 0. -1.
         21   -1    0    0  503  502 -0.00000000000E+00 -0.00000000000E+00 -0.10148174319E+03  0.10148174319E+03  0.00000000000E+00 0.  1.
         21    1    1    2  503  501  0.70972474262E+02 -0.75937270063E+02 -0.54561595409E+02  0.11739049698E+03  0.00000000000E+00 0.  1.
         21    1    1    2  504  502 -0.70972474262E+02  0.75937270063E+02  0.15868126613E+03  0.18969266013E+03  0.00000000000E+00 0. -1.
<mgrwt>
<rscale>  2 0.10394018E+03</rscale>
<asrwt>0</asrwt>
<pdfrwt beam="1">  1       21 0.31630987E-01 0.10394018E+03</pdfrwt>
<pdfrwt beam="2">  1       21 0.15612576E-01 0.10394018E+03</pdfrwt>
<totfact> 0.35572491E+05</totfact>
</mgrwt>
</event>
<event>
 4    1  0.5810391E+003  0.1202733E+03  0.7546771E-02  0.1242647E+00
         21   -1    0    0  503  501  0.00000000000E+00  0.00000000000E+00  0.12356901410E+03  0.12356901410E+03  0.00000000000E+00 0. -1.
         21   -1    0    0  504  502 -0.00000000000E+00 -0.00000000000E+00 -0.12270860206E+03  0.12270860206E+03  0.00000000000E+00 0. -1.
         21    1    1    2  503  502 -0.26798120291E+02 -0.11724982413E+03  0.26837193356E+02  0.12323106531E+03  0.00000000000E+00 0. -1.
         21    1    1    2  504  501  0.26798120291E+02  0.11724982413E+03 -0.25976781316E+02  0.12304655085E+03  0.00000000000E+00 0. -1.
<mgrwt>
<rscale>  2 0.12027327E+03</rscale>
<asrwt>0</asrwt>
<pdfrwt beam="1">  1       21 0.19010618E-01 0.12027327E+03</pdfrwt>
<pdfrwt beam="2">  1       21 0.18878246E-01 0.12027327E+03</pdfrwt>
<totfact> 0.65557142E+05</totfact>
</mgrwt>
</event>
<event>
 4    1  0.5810391E+003  0.1167144E+03  0.7546771E-02  0.1248618E+00
         21   -1    0    0  503  501  0.00000000000E+00  0.00000000000E+00  0.50701582625E+01  0.50701582625E+01  0.00000000000E+00 0. -1.
         21   -1    0    0  501  502 -0.00000000000E+00 -0.00000000000E+00 -0.29058083798E+04  0.29058083798E+04  0.00000000000E+00 0. -1.
         21    1    1    2  503  504  0.69857477697E+02 -0.93499617267E+02 -0.10507548786E+04  0.10572171302E+04  0.00000000000E+00 0. -1.
         21    1    1    2  504  502 -0.69857477697E+02  0.93499617267E+02 -0.18499833429E+04  0.18536614078E+04  0.00000000000E+00 0. -1.
<mgrwt>
<rscale>  2 0.11671438E+03</rscale>
<asrwt>0</asrwt>
<pdfrwt beam="1">  1       21 0.78002314E-03 0.11671438E+03</pdfrwt>
<pdfrwt beam="2">  1       21 0.44704814E+00 0.11671438E+03</pdfrwt>
<totfact> 0.27217940E+04</totfact>
</mgrwt>
</event>
<event>
 4    1  0.5810391E+003  0.1074205E+03  0.7546771E-02  0.1265423E+00
         21   -1    0    0  504  501  0.00000000000E+00  0.00000000000E+00  0.95378947441E+02  0.95378947441E+02  0.00000000000E+00 0.  1.
         21   -1    0    0  503  502 -0.00000000000E+00 -0.00000000000E+00 -0.94388044511E+03  0.94388044511E+03  0.00000000000E+00 0.  1.
         21    1    1    2  503  501 -0.10741414133E+03  0.11662592621E+01  0.60935549575E+02  0.12350019887E+03  0.00000000000E+00 0.  1.
         21    1    1    2  504  502  0.10741414133E+03 -0.11662592621E+01 -0.90943704724E+03  0.91575919369E+03  0.00000000000E+00 0.  1.
<mgrwt>
<rscale>  2 0.10742047E+03</rscale>
<asrwt>0</asrwt>
<pdfrwt beam="1">  1       21 0.14673684E-01 0.10742047E+03</pdfrwt>
<pdfrwt beam="2">  1       21 0.14521238E+00 0.10742047E+03</pdfrwt>
<totfact> 0.14281591E+04</totfact>
</mgrwt>
</event>
<event>
 4    1  0.5810391E+003  0.1004307E+03  0.7546771E-02  0.1279393E+00
         21   -1    0    0  503  501  0.00000000000E+00  0.00000000000E+00  0.24705335490E+02  0.24705335490E+02  0.00000000000E+00 0.  1.
         21   -1    0    0  504  502 -0.00000000000E+00 -0.00000000000E+00 -0.10198066620E+04  0.10198066620E+04  0.00000000000E+00 0.  1.
         21    1    1    2  503  502  0.10614131341E+02 -0.99868255492E+02 -0.93126146310E+02  0.13696279555E+03  0.00000000000E+00 0.  1.
         21    1    1    2  504  501 -0.10614131341E+02  0.99868255492E+02 -0.90197518018E+03  0.90754920192E+03  0.00000000000E+00 0.  1.
<mgrwt>
<rscale>  2 0.10043071E+03</rscale>
<asrwt>0</asrwt>
<pdfrwt beam="1">  1       21 0.38008216E-02 0.10043071E+03</pdfrwt>
<pdfrwt beam="2">  1       21 0.15689330E+00 0.10043071E+03</pdfrwt>
<totfact> 0.11884604E+05</totfact>
</mgrwt>
</event>
<event>
 4    1  0.5810391E+003  0.1332253E+03  0.7546771E-02  0.1222747E+00
         21   -1    0    0  502  501  0.00000000000E+00  0.00000000000E+00  0.26521437507E+02  0.26521437507E+02  0.00000000000E+00 0.  1.
         21   -1    0    0  504  502 -0.00000000000E+00 -0.00000000000E+00 -0.83713765723E+03  0.83713765723E+03  0.00000000000E+00 0.  1.
         21    1    1    2  503  501 -0.28974818233E+02 -0.13003633661E+03 -0.21191238923E+03  0.25031150521E+03  0.00000000000E+00 0.  1.
         21    1    1    2  504  503  0.28974818233E+02  0.13003633661E+03 -0.59870383049E+03  0.61334758953E+03  0.00000000000E+00 0.  1.
<mgrwt>
<rscale>  2 0.13322533E+03</rscale>
<asrwt>0</asrwt>
<pdfrwt beam="1">  1       21 0.40802216E-02 0.13322533E+03</pdfrwt>
<pdfrwt beam="2">  1       21 0.12879039E+00 0.13322533E+03</pdfrwt>
<totfact> 0.17159494E+05</totfact>
</mgrwt>
</event>
<event>
 4    1  0.5810391E+003  0.1064064E+03  0.7546771E-02  0.1267373E+00
         21   -1    0    0  504  501  0.00000000000E+00  0.00000000000E+00  0.86888279621E+02  0.86888279621E+02  0.00000000000E+00 0. -1.
         21   -1    0    0  503  502 -0.00000000000E+00 -0.00000000000E+00 -0.18440273065E+03  0.18440273065E+03  0.00000000000E+00 0. -1.
         21    1    1    2  503  501 -0.69815184962E+02 -0.80300494157E+02 -0.12222467932E+03  0.16205308281E+03  0.00000000000E+00 0. -1.
         21    1    1    2  504  502  0.69815184962E+02  0.80300494157E+02  0.24710228294E+02  0.10923792746E+03  0.00000000000E+00 0. -1.
<mgrwt>
<rscale>  2 0.10640644E+03</rscale>
<asrwt>0</asrwt>
<pdfrwt beam="1">  1       21 0.13367428E-01 0.10640644E+03</pdfrwt>
<pdfrwt beam="2">  1       21 0.28369651E-01 0.10640644E+03</pdfrwt>
<totfact> 0.57838920E+05</totfact>
</mgrwt>
</event>
<event>
 4    1  0.5810391E+003  0.1050257E+03  0.7546771E-02  0.1270069E+00
         21   -1    0    0  504  501  0.00000000000E+00  0.00000000000E+00  0.42194993422E+03  0.42194993422E+03  0.00000000000E+00 0.  1.
         21   -1    0    0  503  502 -0.00000000000E+00 -0.00000000000E+00 -0.33214766094E+02  0.33214766094E+02  0.00000000000E+00 0.  1.
         21    1    1    2  503  501 -0.37276243415E+02  0.98188016993E+02  0.89344947049E+02  0.13788736188E+03  0.00000000000E+00 0.  1.
         21    1    1    2  504  502  0.37276243415E+02 -0.98188016993E+02  0.29939022108E+03  0.31727733843E+03  0.00000000000E+00 0.  1.
<mgrwt>
<rscale>  2 0.10502573E+03</rscale>
<asrwt>0</asrwt>
<pdfrwt beam="1">  1       21 0.64915370E-01 0.10502573E+03</pdfrwt>
<pdfrwt beam="2">  1       21 0.51099643E-02 0.10502573E+03</pdfrwt>
<totfact> 0.57219642E+05</totfact>
</mgrwt>
</event>
<event>
 4    1  0.5810391E+003  0.1077055E+03  0.7546771E-02  0.1264879E+00
         21   -1    0    0  502  501  0.00000000000E+00  0.00000000000E+00  0.61484664625E+03  0.61484664625E+03  0.00000000000E+00 0.  1.
         21   -1    0    0  504  502 -0.00000000000E+00 -0.00000000000E+00 -0.20480045654E+02  0.20480045654E+02  0.00000000000E+00 0.  1.
         21    1    1    2  503  501 -0.10758243704E+03  0.51465001912E+01  0.38632705358E+03  0.40105992015E+03  0.00000000000E+00 0.  1.
         21    1    1    2  504  503  0.10758243704E+03 -0.51465001912E+01  0.20803954702E+03  0.23426677176E+03  0.00000000000E+00 0.  1.
<mgrwt>
<rscale>  2 0.10770547E+03</rscale>
<asrwt>0</asrwt>
<pdfrwt beam="1">  1       21 0.94591777E-01 0.10770547E+03</pdfrwt>
<pdfrwt beam="2">  1       21 0.31507767E-02 0.10770547E+03</pdfrwt>
<totfact> 0.55302761E+05</totfact>
</mgrwt>
</event>
<event>
 4    1  0.5810391E+003  0.1184883E+03  0.7546771E-02  0.1245612E+00
         21   -1    0    0  504  501  0.00000000000E+00  0.00000000000E+00  0.14653179434E+03  0.14653179434E+03  0.00000000000E+00 0. -1.
         21   -1    0    0  501  502 -0.00000000000E+00 -0.00000000000E+00 -0.10567130862E+03  0.10567130862E+03  0.00000000000E+00 0.  1.
         21    1    1    2  503  502  0.11118555222E+03  0.40954351265E+02 -0.18088125195E+02  0.11986102863E+03  0.00000000000E+00 0.  1.
         21    1    1    2  504  503 -0.11118555222E+03 -0.40954351265E+02  0.58948610911E+02  0.13234207433E+03  0.00000000000E+00 0. -1.
<mgrwt>
<rscale>  2 0.11848834E+03</rscale>
<asrwt>0</asrwt>
<pdfrwt beam="1">  1       21 0.22543353E-01 0.11848834E+03</pdfrwt>
<pdfrwt beam="2">  1       21 0.16257124E-01 0.11848834E+03</pdfrwt>
<totfact> 0.62792406E+05</totfact>
</mgrwt>
</event>
<event>
 4    1  0.5810391E+003  0.3204840E+03  0.7546771E-02  0.1075427E+00
         21   -1    0    0  503  501  0.00000000000E+00  0.00000000000E+00  0.18312264348E+04  0.18312264348E+04  0.00000000000E+00 0. -1.
         21   -1    0    0  504  502 -0.00000000000E+00 -0.00000000000E+00 -0.87371179206E+02  0.87371179206E+02  0.00000000000E+00 0. -1.
         21    1    1    2  503  502  0.49431622968E+02  0.31664883800E+03  0.29791069677E+03  0.43756228723E+03  0.00000000000E+00 0. -1.
         21    1    1    2  504  501 -0.49431622968E+02 -0.31664883800E+03  0.14459445589E+04  0.14810353268E+04  0.00000000000E+00 0. -1.
<mgrwt>
<rscale>  2 0.32048397E+03</rscale>
<asrwt>0</asrwt>
<pdfrwt beam="1">  1       21 0.28172711E+00 0.32048397E+03</pdfrwt>
<pdfrwt beam="2">  1       21 0.13441721E-01 0.32048397E+03</pdfrwt>
<totfact> 0.18457367E+03</totfact>
</mgrwt>
</event>
<event>
 4    1  0.5810391E+003  0.1122611E+03  0.7546771E-02  0.1256439E+00
         21   -1    0    0  503  501  0.00000000000E+00  0.00000000000E+00  0.10780565883E+02  0.10780565883E+02  0.00000000000E+00 0.  1.
         21   -1    0    0  504  502 -0.00000000000E+00 -0.00000000000E+00 -0.15976148203E+04  0.15976148203E+04  0.00000000000E+00 0. -1.
         21    1    1    2  503  502 -0.10963802718E+03  0.24125722458E+02 -0.37687658868E+03  0.39324103370E+03  0.00000000000E+00 0.  1.
         21    1    1    2  504  501  0.10963802718E+03 -0.24125722458E+02 -0.12099576657E+04  0.12151543525E+04  0.00000000000E+00 0. -1.
<mgrwt>
<rscale>  2 0.11226107E+03</rscale>
<asrwt>0</asrwt>
<pdfrwt beam="1">  1       21 0.16585483E-02 0.11226107E+03</pdfrwt>
<pdfrwt beam="2">  1       21 0.24578694E+00 0.11226107E+03</pdfrwt>
<totfact> 0.12481422E+05</totfact>
</mgrwt>
</event>
<event>
 4    1  0.5810391E+003  0.2419709E+03  0.7546771E-02  0.1118487E+00
         21   -1    0    0  504  501  0.00000000000E+00  0.00000000000E+00  0.66536010242E+03  0.66536010242E+03  0.00000000000E+00 0. -1.
         21   -1    0    0  503  502 -0.00000000000E+00 -0.00000000000E+00 -0.98639385911E+02  0.98639385911E+02  0.00000000000E+00 0. -1.
         21    1    1    2  503  501  0.12414716088E+03  0.20769542387E+03  0.15788719710E+03  0.28892606954E+03  0.00000000000E+00 0. -1.
         21    1    1    2  504  502 -0.12414716088E+03 -0.20769542387E+03  0.40883351941E+03  0.47507341880E+03  0.00000000000E+00 0. -1.
<mgrwt>
<rscale>  2 0.24197088E+03</rscale>
<asrwt>0</asrwt>
<pdfrwt beam="1">  1       21 0.10236309E+00 0.24197088E+03</pdfrwt>
<pdfrwt beam="2">  1       21 0.15175291E-01 0.24197088E+03</pdfrwt>
<totfact> 0.29045755E+04</totfact>
</mgrwt>
</event>
<event>
 4    1  0.5810391E+003  0.1264039E+03  0.7546771E-02  0.1232891E+00
         21   -1    0    0  503  501  0.00000000000E+00  0.00000000000E+00  0.98064529825E+02  0.98064529825E+02  0.00000000000E+00 0.  1.
         21   -1    0    0  504  502 -0.00000000000E+00 -0.00000000000E+00 -0.44611053264E+03  0.44611053264E+03  0.00000000000E+00 0. -1.
         21    1    1    2  503  502 -0.12597173705E+03 -0.10443391441E+02  0.42755813627E+02  0.13343913429E+03  0.00000000000E+00 0.  1.
         21    1    1    2  504  501  0.12597173705E+03  0.10443391441E+02 -0.39080181645E+03  0.41073592818E+03  0.00000000000E+00 0. -1.
<mgrwt>
<rscale>  2 0.12640389E+03</rscale>
<asrwt>0</asrwt>
<pdfrwt beam="1">  1       21 0.15086851E-01 0.12640389E+03</pdfrwt>
<pdfrwt beam="2">  1       21 0.68632390E-01 0.12640389E+03</pdfrwt>
<totfact> 0.77342344E+04</totfact>
</mgrwt>
</event>
<event>
 4    1  0.5810391E+003  0.1400670E+03  0.7546771E-02  0.1213239E+00
         21   -1    0    0  504  501  0.00000000000E+00  0.00000000000E+00  0.24653350576E+03  0.24653350576E+03  0.00000000000E+00 0.  1.
         21   -1    0    0  503  502 -0.00000000000E+00 -0.00000000000E+00 -0.89856348331E+02  0.89856348331E+02  0.00000000000E+00 0.  1.
         21    1    1    2  503  501  0.25474163569E+02  0.13773098037E+03  0.21454526940E+02  0.14170057406E+03  0.00000000000E+00 0.  1.
         21    1    1    2  504  502 -0.25474163569E+02 -0.13773098037E+03  0.13522263049E+03  0.19468928003E+03  0.00000000000E+00 0.  1.
<mgrwt>
<rscale>  2 0.14006697E+03</rscale>
<asrwt>0</asrwt>
<pdfrwt beam="1">  1       21 0.37928231E-01 0.14006697E+03</pdfrwt>
<pdfrwt beam="2">  1       21 0.13824054E-01 0.14006697E+03</pdfrwt>
<totfact> 0.30839970E+05</totfact>
</mgrwt>
</event>
<event>
 4    1  0.5810391E+003  0.1016920E+03  0.7546771E-02  0.1276778E+00
         21   -1    0    0  503  501  0.00000000000E+00  0.00000000000E+00  0.35440964879E+03  0.35440964879E+03  0.00000000000E+00 0. -1.
         21   -1    0    0  504  502 -0.00000000000E+00 -0.00000000000E+00 -0.82101389098E+03  0.82101389098E+03  0.00000000000E+00 0.  1.
         21    1    1    2  503  502  0.40709497870E+01 -0.10161043586E+03 -0.81047578172E+03  0.81683061038E+03  0.00000000000E+00 0.  1.
         21    1    1    2  504  501 -0.40709497870E+01  0.10161043586E+03  0.34387153953E+03  0.35859292939E+03  0.00000000000E+00 0. -1.
<mgrwt>
<rscale>  2 0.10169195E+03</rscale>
<asrwt>0</asrwt>
<pdfrwt beam="1">  1       21 0.54524562E-01 0.10169195E+03</pdfrwt>
<pdfrwt beam="2">  1       21 0.12630983E+00 0.10169195E+03</pdfrwt>
<totfact> 0.16527153E+03</totfact>
</mgrwt>
</event>
<event>
 4    1  0.5810391E+003  0.1463682E+03  0.7546771E-02  0.1205008E+00
         21   -1    0    0  504  501  0.00000000000E+00  0.00000000000E+00  0.19727787767E+02  0.19727787767E+02  0.00000000000E+00 0.  1.
         21   -1    0    0  501  502 -0.00000000000E+00 -0.00000000000E+00 -0.12042723335E+04  0.12042723335E+04  0.00000000000E+00 0.  1.
         21    1    1    2  503  502  0.49506965301E+02 -0.13774141539E+03 -0.78409479090E+03  0.79763919051E+03  0.00000000000E+00 0.  1.
         21    1    1    2  504  503 -0.49506965301E+02  0.13774141539E+03 -0.40044975484E+03  0.42636093076E+03  0.00000000000E+00 0.  1.
<mgrwt>
<rscale>  2 0.14636816E+03</rscale>
<asrwt>0</asrwt>
<pdfrwt beam="1">  1       21 0.30350451E-02 0.14636816E+03</pdfrwt>
<pdfrwt beam="2">  1       21 0.18527262E+00 0.14636816E+03</pdfrwt>
<totfact> 0.10678404E+05</totfact>
</mgrwt>
</event>
<event>
 4    1  0.5810391E+003  0.1142969E+03  0.7546771E-02  0.1252813E+00
         21   -1    0    0  503  501  0.00000000000E+00  0.00000000000E+00  0.42315897511E+02  0.42315897511E+02  0.00000000000E+00 0. -1.
         21   -1    0    0  504  502 -0.00000000000E+00 -0.00000000000E+00 -0.56905538014E+03  0.56905538014E+03  0.00000000000E+00 0. -1.
         21    1    1    2  503  502  0.97350431273E+01 -0.11388152404E+03 -0.47012863246E+03  0.48382300859E+03  0.00000000000E+00 0. -1.
         21    1    1    2  504  501 -0.97350431273E+01  0.11388152404E+03 -0.56610850164E+02  0.12754826906E+03  0.00000000000E+00 0. -1.
<mgrwt>
<rscale>  2 0.11429686E+03</rscale>
<asrwt>0</asrwt>
<pdfrwt beam="1">  1       21 0.65101381E-02 0.11429686E+03</pdfrwt>
<pdfrwt beam="2">  1       21 0.87546982E-01 0.11429686E+03</pdfrwt>
<totfact> 0.19669183E+05</totfact>
</mgrwt>
</event>
<event>
 4    1  0.5810391E+003  0.1325758E+03  0.7546771E-02  0.1223683E+00
         21   -1    0    0  503  501  0.00000000000E+00  0.00000000000E+00  0.72464188477E+02  0.72464188477E+02  0.00000000000E+00 0. -1.
         21   -1    0    0  501  502 -0.00000000000E+00 -0.00000000000E+00 -0.82530831770E+03  0.82530831770E+03  0.00000000000E+00 0.  1.
         21    1    1    2  503  504  0.12950531426E+03  0.28367711587E+02  0.77785260332E+00  0.13257812239E+03  0.00000000000E+00 0. -1.
         21    1    1    2  504  502 -0.12950531426E+03 -0.28367711587E+02 -0.75362198183E+03  0.76519438379E+03  0.00000000000E+00 0.  1.
<mgrwt>
<rscale>  2 0.13257584E+03</rscale>
<asrwt>0</asrwt>
<pdfrwt beam="1">  1       21 0.11148337E-01 0.13257584E+03</pdfrwt>
<pdfrwt beam="2">  1       21 0.12697051E+00 0.13257584E+03</pdfrwt>
<totfact> 0.31878750E+04</totfact>
</mgrwt>
</event>
<event>
 4    1  0.5810391E+003  0.1657386E+03  0.7546771E-02  0.1182366E+00
         21   -1    0    0  503  501  0.00000000000E+00  0.00000000000E+00  0.16658840928E+03  0.16658840928E+03  0.00000000000E+00 0. -1.
         21   -1    0    0  504  502 -0.00000000000E+00 -0.00000000000E+00 -0.18026957417E+03  0.18026957417E+03  0.00000000000E+00 0. -1.
         21    1    1    2  503  502 -0.13000175093E+03 -0.10280478147E+03 -0.57491689270E+02  0.17542682997E+03  0.00000000000E+00 0. -1.
         21    1    1    2  504  501  0.13000175093E+03  0.10280478147E+03  0.43810524379E+02  0.17143115348E+03  0.00000000000E+00 0. -1.
<mgrwt>
<rscale>  2 0.16573858E+03</rscale>
<asrwt>0</asrwt>
<pdfrwt beam="1">  1       21 0.25628986E-01 0.16573858E+03</pdfrwt>
<pdfrwt beam="2">  1       21 0.27733781E-01 0.16573858E+03</pdfrwt>
<totfact> 0.18073695E+05</totfact>
</mgrwt>
</event>
<event>
 4    1  0.5810391E+003  0.1035549E+03  0.7546771E-02  0.1272993E+00
         21   -1    0    0  503  501  0.00000000000E+00  0.00000000000E+00  0.26441413208E+03  0.26441413208E+03  0.00000000000E+00 0.  1.
         21   -1    0    0  504  502 -0.00000000000E+00 -0.00000000000E+00 -0.14129889955E+03  0.14129889955E+03  0.00000000000E+00 0.  1.
         21    1    1    2  503  502  0.21410533899E+02  0.10131732109E+03  0.23284546024E+03  0.25483449310E+03  0.00000000000E+00 0.  1.
         21    1    1    2  504  501 -0.21410533899E+02 -0.10131732109E+03 -0.10973022772E+03  0.15087853853E+03  0.00000000000E+00 0.  1.
<mgrwt>
<rscale>  2 0.10355487E+03</rscale>
<asrwt>0</asrwt>
<pdfrwt beam="1">  1       21 0.40679097E-01 0.10355487E+03</pdfrwt>
<pdfrwt beam="2">  1       21 0.21738292E-01 0.10355487E+03</pdfrwt>
<totfact> 0.11881505E+05</totfact>
</mgrwt>
</event>
<event>
 4    1  0.5810391E+003  0.1331448E+03  0.7546771E-02  0.1222863E+00
         21   -1    0    0  503  501  0.00000000000E+00  0.00000000000E+00  0.37634231538E+03  0.37634231538E+03  0.00000000000E+00 0. -1.
         21   -1    0    0  504  502 -0.00000000000E+00 -0.00000000000E+00 -0.48165397406E+02  0.48165397406E+02  0.00000000000E+00 0. -1.
         21    1    1    2  503  502  0.25867856895E+02  0.13060781985E+03  0.19558427672E+03  0.23660253153E+03  0.00000000000E+00 0. -1.
         21    1    1    2  504  501 -0.25867856895E+02 -0.13060781985E+03  0.13259264126E+03  0.18790518126E+03  0.00000000000E+00 0. -1.
<mgrwt>
<rscale>  2 0.13314484E+03</rscale>
<asrwt>0</asrwt>
<pdfrwt beam="1">  1       21 0.57898816E-01 0.13314484E+03</pdfrwt>
<pdfrwt beam="2">  1       21 0.74100614E-02 0.13314484E+03</pdfrwt>
<totfact> 0.38761172E+05</totfact>
</mgrwt>
</event>
<event>
 4    1  0.5810391E+003  0.1245689E+03  0.7546771E-02  0.1235744E+00
         21   -1    0    0  503  501  0.00000000000E+00  0.00000000000E+00  0.81609734089E+03  0.81609734089E+03  0.00000000000E+00 0. -1.
         21   -1    0    0  504  502 -0.00000000000E+00 -0.00000000000E+00 -0.35834999168E+02  0.35834999168E+02  0.00000000000E+00 0. -1.
         21    1    1    2  503  502  0.99633163052E+02 -0.74770688453E+02  0.98291074380E+02  0.15867752939E+03  0.00000000000E+00 0. -1.
         21    1    1    2  504  501 -0.99633163052E+02  0.74770688453E+02  0.68197126734E+03  0.69325481067E+03  0.00000000000E+00 0. -1.
<mgrwt>
<rscale>  2 0.12456895E+03</rscale>
<asrwt>0</asrwt>
<pdfrwt beam="1">  1       21 0.12555342E+00 0.12456895E+03</pdfrwt>
<pdfrwt beam="2">  1       21 0.55130774E-02 0.12456895E+03</pdfrwt>
<totfact> 0.11080560E+05</totfact>
</mgrwt>
</event>
<event>
 4    1  0.5810391E+003  0.1156804E+03  0.7546771E-02  0.1250398E+00
         21   -1    0    0  504  501  0.00000000000E+00  0.00000000000E+00  0.11945193863E+04  0.11945193863E+04  0.00000000000E+00 0. -1.
         21   -1    0    0  501  502 -0.00000000000E+00 -0.00000000000E+00 -0.57347979679E+02  0.57347979679E+02  0.00000000000E+00 0. -1.
         21    1    1    2  503  502 -0.10845088968E+03  0.40253574892E+02  0.71080255158E+01  0.11589853230E+03  0.00000000000E+00 0. -1.
         21    1    1    2  504  503  0.10845088968E+03 -0.40253574892E+02  0.11300633811E+04  0.11359688336E+04  0.00000000000E+00 0. -1.
<mgrwt>
<rscale>  2 0.11568036E+03</rscale>
<asrwt>0</asrwt>
<pdfrwt beam="1">  1       21 0.18377219E+00 0.11568036E+03</pdfrwt>
<pdfrwt beam="2">  1       21 0.88227670E-02 0.11568036E+03</pdfrwt>
<totfact> 0.18546516E+04</totfact>
</mgrwt>
</event>
<event>
 4    1  0.5810391E+003  0.1187477E+03  0.7546771E-02  0.1245177E+00
         21   -1    0    0  503  501  0.00000000000E+00  0.00000000000E+00  0.25310464062E+03  0.25310464062E+03  0.00000000000E+00 0. -1.
         21   -1    0    0  504  502 -0.00000000000E+00 -0.00000000000E+00 -0.58182482143E+02  0.58182482143E+02  0.00000000000E+00 0. -1.
         21    1    1    2  503  502 -0.11315253480E+03 -0.36020974185E+02  0.65390140873E+02  0.13556134123E+03  0.00000000000E+00 0. -1.
         21    1    1    2  504  501  0.11315253480E+03  0.36020974185E+02  0.12953201760E+03  0.17572578153E+03  0.00000000000E+00 0. -1.
<mgrwt>
<rscale>  2 0.11874766E+03</rscale>
<asrwt>0</asrwt>
<pdfrwt beam="1">  1       21 0.38939175E-01 0.11874766E+03</pdfrwt>
<pdfrwt beam="2">  1       21 0.89511513E-02 0.11874766E+03</pdfrwt>
<totfact> 0.63108995E+05</totfact>
</mgrwt>
</event>
<event>
 4    1  0.5810391E+003  0.1705002E+03  0.7546771E-02  0.1177327E+00
         21   -1    0    0  503  501  0.00000000000E+00  0.00000000000E+00  0.48941377244E+03  0.48941377244E+03  0.00000000000E+00 0. -1.
         21   -1    0    0  504  502 -0.00000000000E+00 -0.00000000000E+00 -0.65926632664E+02  0.65926632664E+02  0.00000000000E+00 0. -1.
         21    1    1    2  503  502  0.15708592917E+03  0.66289718454E+02  0.12436558624E+03  0.21103818365E+03  0.00000000000E+00 0. -1.
         21    1    1    2  504  501 -0.15708592917E+03 -0.66289718454E+02  0.29912155354E+03  0.34430222146E+03  0.00000000000E+00 0. -1.
<mgrwt>
<rscale>  2 0.17050019E+03</rscale>
<asrwt>0</asrwt>
<pdfrwt beam="1">  1       21 0.75294424E-01 0.17050019E+03</pdfrwt>
<pdfrwt beam="2">  1       21 0.10142559E-01 0.17050019E+03</pdfrwt>
<totfact> 0.12575367E+05</totfact>
</mgrwt>
</event>
<event>
 4    1  0.5810391E+003  0.1227106E+03  0.7546771E-02  0.1238691E+00
         21   -1    0    0  503  501  0.00000000000E+00  0.00000000000E+00  0.30029245353E+03  0.30029245353E+03  0.00000000000E+00 0. -1.
         21   -1    0    0  501  502 -0.00000000000E+00 -0.00000000000E+00 -0.74687701170E+02  0.74687701170E+02  0.00000000000E+00 0.  1.
         21    1    1    2  503  504  0.92726321064E+02 -0.80372369124E+02  0.22028124219E+03  0.25215414729E+03  0.00000000000E+00 0. -1.
         21    1    1    2  504  502 -0.92726321064E+02  0.80372369124E+02  0.53235101774E+01  0.12282600741E+03  0.00000000000E+00 0.  1.
<mgrwt>
<rscale>  2 0.12271059E+03</rscale>
<asrwt>0</asrwt>
<pdfrwt beam="1">  1       21 0.46198838E-01 0.12271059E+03</pdfrwt>
<pdfrwt beam="2">  1       21 0.11490416E-01 0.12271059E+03</pdfrwt>
<totfact> 0.28902862E+05</totfact>
</mgrwt>
</event>
<event>
 4    1  0.5810391E+003  0.1654743E+03  0.7546771E-02  0.1182651E+00
         21   -1    0    0  503  501  0.00000000000E+00  0.00000000000E+00  0.24516647871E+03  0.24516647871E+03  0.00000000000E+00 0. -1.
         21   -1    0    0  501  502 -0.00000000000E+00 -0.00000000000E+00 -0.18407717601E+03  0.18407717601E+03  0.00000000000E+00 0. -1.
         21    1    1    2  503  504  0.12632595571E+03  0.10688074184E+03  0.16513558133E+03  0.23377660337E+03  0.00000000000E+00 0. -1.
         21    1    1    2  504  502 -0.12632595571E+03 -0.10688074184E+03 -0.10404627864E+03  0.19546705135E+03  0.00000000000E+00 0. -1.
<mgrwt>
<rscale>  2 0.16547429E+03</rscale>
<asrwt>0</asrwt>
<pdfrwt beam="1">  1       21 0.37717920E-01 0.16547429E+03</pdfrwt>
<pdfrwt beam="2">  1       21 0.28319565E-01 0.16547429E+03</pdfrwt>
<totfact> 0.81720354E+04</totfact>
</mgrwt>
</event>
<event>
 4    1  0.5810391E+003  0.1945479E+03  0.7546771E-02  0.1154422E+00
         21   -1    0    0  504  501  0.00000000000E+00  0.00000000000E+00  0.28705098778E+03  0.28705098778E+03  0.00000000000E+00 0.  1.
         21   -1    0    0  503  502 -0.00000000000E+00 -0.00000000000E+00 -0.18422137542E+03  0.18422137542E+03  0.00000000000E+00 0.  1.
         21    1    1    2  503  501  0.18762947258E+03 -0.51420412823E+02  0.17704717499E+03  0.26304862670E+03  0.00000000000E+00 0.  1.
         21    1    1    2  504  502 -0.18762947258E+03  0.51420412823E+02 -0.74217562632E+02  0.20822373649E+03  0.00000000000E+00 0.  1.
<mgrwt>
<rscale>  2 0.19454788E+03</rscale>
<asrwt>0</asrwt>
<pdfrwt beam="1">  1       21 0.44161690E-01 0.19454788E+03</pdfrwt>
<pdfrwt beam="2">  1       21 0.28341750E-01 0.19454788E+03</pdfrwt>
<totfact> 0.58562434E+04</totfact>
</mgrwt>
</event>
<event>
 4    1  0.5810391E+003  0.1197846E+03  0.7546771E-02  0.1243453E+00
         21   -1    0    0  502  501  0.00000000000E+00  0.00000000000E+00  0.30807257473E+03  0.30807257473E+03  0.00000000000E+00 0. -1.
         21   -1    0    0  504  502 -0.00000000000E+00 -0.00000000000E+00 -0.55053203326E+02  0.55053203326E+02  0.00000000000E+00 0.  1.
         21    1    1    2  503  501 -0.94618758913E+02  0.73455050155E+02  0.19776187225E+03  0.23121010369E+03  0.00000000000E+00 0. -1.
         21    1    1    2  504  503  0.94618758913E+02 -0.73455050155E+02  0.55257499155E+02  0.13191567437E+03  0.00000000000E+00 0.  1.
<mgrwt>
<rscale>  2 0.11978461E+03</rscale>
<asrwt>0</asrwt>
<pdfrwt beam="1">  1       21 0.47395780E-01 0.11978461E+03</pdfrwt>
<pdfrwt beam="2">  1       21 0.84697237E-02 0.11978461E+03</pdfrwt>
<totfact> 0.46733996E+05</totfact>
</mgrwt>
</event>
<event>
 4    1  0.5810391E+003  0.1348524E+03  0.7546771E-02  0.1220428E+00
         21   -1    0    0  502  501  0.00000000000E+00  0.00000000000E+00  0.72420430170E+02  0.72420430170E+02  0.00000000000E+00 0.  1.
         21   -1    0    0  503  502 -0.00000000000E+00 -0.00000000000E+00 -0.25425660455E+03  0.25425660455E+03  0.00000000000E+00 0.  1.
         21    1    1    2  503  504  0.46263032666E+02  0.12666845514E+03 -0.10910195967E+03  0.17346009144E+03  0.00000000000E+00 0.  1.
         21    1    1    2  504  501 -0.46263032666E+02 -0.12666845514E+03 -0.72734214708E+02  0.15321694328E+03  0.00000000000E+00 0.  1.
<mgrwt>
<rscale>  2 0.13485238E+03</rscale>
<asrwt>0</asrwt>
<pdfrwt beam="1">  1       21 0.11141605E-01 0.13485238E+03</pdfrwt>
<pdfrwt beam="2">  1       21 0.39116400E-01 0.13485238E+03</pdfrwt>
<totfact> 0.42605387E+05</totfact>
</mgrwt>
</event>
<event>
 4    1  0.5810391E+003  0.1202257E+03  0.7546771E-02  0.1242725E+00
         21   -1    0    0  502  501  0.00000000000E+00  0.00000000000E+00  0.13473527436E+03  0.13473527436E+03  0.00000000000E+00 0.  1.
         21   -1    0    0  503  502 -0.00000000000E+00 -0.00000000000E+00 -0.12176435113E+03  0.12176435113E+03  0.00000000000E+00 0.  1.
         21    1    1    2  503  504  0.10642663022E+03  0.55924923591E+02 -0.37749505946E+02  0.12601289576E+03  0.00000000000E+00 0.  1.
         21    1    1    2  504  501 -0.10642663022E+03 -0.55924923591E+02  0.50720429180E+02  0.13048672973E+03  0.00000000000E+00 0.  1.
<mgrwt>
<rscale>  2 0.12022572E+03</rscale>
<asrwt>0</asrwt>
<pdfrwt beam="1">  1       21 0.20728504E-01 0.12022572E+03</pdfrwt>
<pdfrwt beam="2">  1       21 0.18732977E-01 0.12022572E+03</pdfrwt>
<totfact> 0.56687127E+05</totfact>
</mgrwt>
</event>
<event>
 4    1  0.5810391E+003  0.2289079E+03  0.7546771E-02  0.1127411E+00
         21   -1    0    0  504  501  0.00000000000E+00  0.00000000000E+00  0.21212858748E+03  0.21212858748E+03  0.00000000000E+00 0.  1.
         21   -1    0    0  503  502 -0.00000000000E+00 -0.00000000000E+00 -0.63556760180E+03  0.63556760180E+03  0.00000000000E+00 0.  1.
         21    1    1    2  503  501  0.65237460623E+02 -0.21941491762E+03  0.11968206325E+03  0.25830723685E+03  0.00000000000E+00 0.  1.
         21    1    1    2  504  502 -0.65237460623E+02  0.21941491762E+03 -0.54312107757E+03  0.58938895243E+03  0.00000000000E+00 0.  1.
<mgrwt>
<rscale>  2 0.22890791E+03</rscale>
<asrwt>0</asrwt>
<pdfrwt beam="1">  1       21 0.32635167E-01 0.22890791E+03</pdfrwt>
<pdfrwt beam="2">  1       21 0.97779631E-01 0.22890791E+03</pdfrwt>
<totfact> 0.76266766E+03</totfact>
</mgrwt>
</event>
<event>
 4    1  0.5810391E+003  0.1988949E+03  0.7546771E-02  0.1150675E+00
         21   -1    0    0  503  501  0.00000000000E+00  0.00000000000E+00  0.20896111044E+03  0.20896111044E+03  0.00000000000E+00 0. -1.
         21   -1    0    0  504  502 -0.00000000000E+00 -0.00000000000E+00 -0.19566892505E+03  0.19566892505E+03  0.00000000000E+00 0. -1.
         21    1    1    2  503  502 -0.10525661941E+03  0.16876090706E+03 -0.29815267836E+02  0.20111725405E+03  0.00000000000E+00 0. -1.
         21    1    1    2  504  501  0.10525661941E+03 -0.16876090706E+03  0.43107453229E+02  0.20351278143E+03  0.00000000000E+00 0. -1.
<mgrwt>
<rscale>  2 0.19889495E+03</rscale>
<asrwt>0</asrwt>
<pdfrwt beam="1">  1       21 0.32147863E-01 0.19889495E+03</pdfrwt>
<pdfrwt beam="2">  1       21 0.30102912E-01 0.19889495E+03</pdfrwt>
<totfact> 0.98276326E+04</totfact>
</mgrwt>
</event>
<event>
 4    1  0.5810391E+003  0.1276745E+03  0.7546771E-02  0.1230948E+00
         21   -1    0    0  504  501  0.00000000000E+00  0.00000000000E+00  0.31526529363E+02  0.31526529363E+02  0.00000000000E+00 0.  1.
         21   -1    0    0  503  502 -0.00000000000E+00 -0.00000000000E+00 -0.51706589500E+03  0.51706589500E+03  0.00000000000E+00 0. -1.
         21    1    1    2  503  501 -0.12766307665E+03 -0.17077257879E+01 -0.24431240658E+03  0.27566162133E+03  0.00000000000E+00 0. -1.
         21    1    1    2  504  502  0.12766307665E+03  0.17077257879E+01 -0.24122695906E+03  0.27293080303E+03  0.00000000000E+00 0.  1.
<mgrwt>
<rscale>  2 0.12767450E+03</rscale>
<asrwt>0</asrwt>
<pdfrwt beam="1">  1       21 0.48502356E-02 0.12767450E+03</pdfrwt>
<pdfrwt beam="2">  1       21 0.79548594E-01 0.12767450E+03</pdfrwt>
<totfact> 0.39955715E+05</totfact>
</mgrwt>
</event>
<event>
 4    1  0.5810391E+003  0.1216462E+03  0.7546771E-02  0.1240406E+00
         21   -1    0    0  503  501  0.00000000000E+00  0.00000000000E+00  0.27263153666E+03  0.27263153666E+03  0.00000000000E+00 0. -1.
         21   -1    0    0  504  502 -0.00000000000E+00 -0.00000000000E+00 -0.56661933257E+02  0.56661933257E+02  0.00000000000E+00 0. -1.
         21    1    1    2  503  502  0.83927619777E+02  0.88056513027E+02  0.74210390829E+02  0.14249553310E+03  0.00000000000E+00 0. -1.
         21    1    1    2  504  501 -0.83927619777E+02 -0.88056513027E+02  0.14175921258E+03  0.18679793682E+03  0.00000000000E+00 0. -1.
<mgrwt>
<rscale>  2 0.12164619E+03</rscale>
<asrwt>0</asrwt>
<pdfrwt beam="1">  1       21 0.41943312E-01 0.12164619E+03</pdfrwt>
<pdfrwt beam="2">  1       21 0.87172207E-02 0.12164619E+03</pdfrwt>
<totfact> 0.56946704E+05</totfact>
</mgrwt>
</event>
<event>
 4    1  0.5810391E+003  0.1078000E+03  0.7546771E-02  0.1264699E+00
         21   -1    0    0  503  501  0.00000000000E+00  0.00000000000E+00  0.16330329730E+04  0.16330329730E+04  0.00000000000E+00 0. -1.
         21   -1    0    0  504  502 -0.00000000000E+00 -0.00000000000E+00 -0.28914868660E+02  0.28914868660E+02  0.00000000000E+00 0.  1.
         21    1    1    2  503  502 -0.40639021897E+02 -0.99846460113E+02  0.15235695309E+04  0.15273784603E+04  0.00000000000E+00 0. -1.
         21    1    1    2  504  501  0.40639021897E+02  0.99846460113E+02  0.80548573429E+02  0.13456938128E+03  0.00000000000E+00 0.  1.
<mgrwt>
<rscale>  2 0.10780003E+03</rscale>
<asrwt>0</asrwt>
<pdfrwt beam="1">  1       21 0.25123577E+00 0.10780003E+03</pdfrwt>
<pdfrwt beam="2">  1       21 0.44484426E-02 0.10780003E+03</pdfrwt>
<totfact> 0.23442138E+04</totfact>
</mgrwt>
</event>
<event>
 4    1  0.5810391E+003  0.1007705E+03  0.7546771E-02  0.1278684E+00
         21   -1    0    0  503  501  0.00000000000E+00  0.00000000000E+00  0.84769271671E+03  0.84769271671E+03  0.00000000000E+00 0. -1.
         21   -1    0    0  504  502 -0.00000000000E+00 -0.00000000000E+00 -0.12000691113E+02  0.12000691113E+02  0.00000000000E+00 0. -1.
         21    1    1    2  503  502  0.54088712161E+02 -0.85024090744E+02  0.39965780615E+03  0.41216628538E+03  0.00000000000E+00 0. -1.
         21    1    1    2  504  501 -0.54088712161E+02  0.85024090744E+02  0.43603421945E+03  0.44752712244E+03  0.00000000000E+00 0. -1.
<mgrwt>
<rscale>  2 0.10077046E+03</rscale>
<asrwt>0</asrwt>
<pdfrwt beam="1">  1       21 0.13041422E+00 0.10077046E+03</pdfrwt>
<pdfrwt beam="2">  1       21 0.18462608E-02 0.10077046E+03</pdfrwt>
<totfact> 0.61187091E+05</totfact>
</mgrwt>
</event>
<event>
 4    1  0.5810391E+003  0.1426533E+03  0.7546771E-02  0.1209803E+00
         21   -1    0    0  503  501  0.00000000000E+00  0.00000000000E+00  0.12305898607E+03  0.12305898607E+03  0.00000000000E+00 0. -1.
         21   -1    0    0  504  502 -0.00000000000E+00 -0.00000000000E+00 -0.23505707082E+03  0.23505707082E+03  0.00000000000E+00 0. -1.
         21    1    1    2  503  502  0.54394359833E+02 -0.13187579802E+03  0.41497819693E+02  0.14856662318E+03  0.00000000000E+00 0. -1.
         21    1    1    2  504  501 -0.54394359833E+02  0.13187579802E+03 -0.15349590444E+03  0.20954943370E+03  0.00000000000E+00 0. -1.
<mgrwt>
<rscale>  2 0.14265333E+03</rscale>
<asrwt>0</asrwt>
<pdfrwt beam="1">  1       21 0.18932152E-01 0.14265333E+03</pdfrwt>
<pdfrwt beam="2">  1       21 0.36162626E-01 0.14265333E+03</pdfrwt>
<totfact> 0.19123847E+05</totfact>
</mgrwt>
</event>
<event>
 4    1  0.5810391E+003  0.1320589E+03  0.7546771E-02  0.1224432E+00
         21   -1    0    0  503  501  0.00000000000E+00  0.00000000000E+00  0.69529724704E+02  0.69529724704E+02  0.00000000000E+00 0. -1.
         21   -1    0    0  504  502 -0.00000000000E+00 -0.00000000000E+00 -0.25179735146E+03  0.25179735146E+03  0.00000000000E+00 0. -1.
         21    1    1    2  503  502  0.10638014400E+03  0.78248424726E+02 -0.81131973887E+02  0.15499015516E+03  0.00000000000E+00 0. -1.
         21    1    1    2  504  501 -0.10638014400E+03 -0.78248424726E+02 -0.10113565287E+03  0.16633692101E+03  0.00000000000E+00 0. -1.
<mgrwt>
<rscale>  2 0.13205889E+03</rscale>
<asrwt>0</asrwt>
<pdfrwt beam="1">  1       21 0.10696881E-01 0.13205889E+03</pdfrwt>
<pdfrwt beam="2">  1       21 0.38738054E-01 0.13205889E+03</pdfrwt>
<totfact> 0.46684492E+05</totfact>
</mgrwt>
</event>
<event>
 4    1  0.5810391E+003  0.1459099E+03  0.7546771E-02  0.1205591E+00
         21   -1    0    0  504  501  0.00000000000E+00  0.00000000000E+00  0.64870591797E+03  0.64870591797E+03  0.00000000000E+00 0. -1.
         21   -1    0    0  503  502 -0.00000000000E+00 -0.00000000000E+00 -0.12610344217E+03  0.12610344217E+03  0.00000000000E+00 0.  1.
         21    1    1    2  503  501 -0.13654162408E+03 -0.51440173429E+02  0.59450248818E+03  0.61214615494E+03  0.00000000000E+00 0. -1.
         21    1    1    2  504  502  0.13654162408E+03  0.51440173429E+02 -0.71900012384E+02  0.16266320521E+03  0.00000000000E+00 0.  1.
<mgrwt>
<rscale>  2 0.14590993E+03</rscale>
<asrwt>0</asrwt>
<pdfrwt beam="1">  1       21 0.99800909E-01 0.14590993E+03</pdfrwt>
<pdfrwt beam="2">  1       21 0.19400530E-01 0.14590993E+03</pdfrwt>
<totfact> 0.20773338E+04</totfact>
</mgrwt>
</event>
<event>
 4    1  0.5810391E+003  0.1233786E+03  0.7546771E-02  0.1237625E+00
         21   -1    0    0  504  501  0.00000000000E+00  0.00000000000E+00  0.77477234335E+03  0.77477234335E+03  0.00000000000E+00 0.  1.
         21   -1    0    0  503  502 -0.00000000000E+00 -0.00000000000E+00 -0.44700627904E+02  0.44700627904E+02  0.00000000000E+00 0. -1.
         21    1    1    2  503  501  0.12337233393E+03 -0.12385115838E+01  0.67178236041E+03  0.68301815968E+03  0.00000000000E+00 0.  1.
         21    1    1    2  504  502 -0.12337233393E+03  0.12385115838E+01  0.58289355035E+02  0.13645481157E+03  0.00000000000E+00 0. -1.
<mgrwt>
<rscale>  2 0.12337855E+03</rscale>
<asrwt>0</asrwt>
<pdfrwt beam="1">  1       21 0.11919574E+00 0.12337855E+03</pdfrwt>
<pdfrwt beam="2">  1       21 0.68770202E-02 0.12337855E+03</pdfrwt>
<totfact> 0.86554435E+04</totfact>
</mgrwt>
</event>
<event>
 4    1  0.5810391E+003  0.1107430E+03  0.7546771E-02  0.1259200E+00
         21   -1    0    0  504  501  0.00000000000E+00  0.00000000000E+00  0.35224944478E+02  0.35224944478E+02  0.00000000000E+00 0.  1.
         21   -1    0    0  503  502 -0.00000000000E+00 -0.00000000000E+00 -0.61326073959E+03  0.61326073959E+03  0.00000000000E+00 0.  1.
         21    1    1    2  503  501 -0.11065625691E+03 -0.43821657967E+01 -0.50220017735E+03  0.51426552354E+03  0.00000000000E+00 0.  1.
         21    1    1    2  504  502  0.11065625691E+03  0.43821657967E+01 -0.75835617760E+02  0.13422016053E+03  0.00000000000E+00 0.  1.
<mgrwt>
<rscale>  2 0.11074299E+03</rscale>
<asrwt>0</asrwt>
<pdfrwt beam="1">  1       21 0.54192226E-02 0.11074299E+03</pdfrwt>
<pdfrwt beam="2">  1       21 0.94347799E-01 0.11074299E+03</pdfrwt>
<totfact> 0.22630993E+05</totfact>
</mgrwt>
</event>
<event>
 4    1  0.5810391E+003  0.1164883E+03  0.7546771E-02  0.1249005E+00
         21   -1    0    0  503  501  0.00000000000E+00  0.00000000000E+00  0.19066720247E+02  0.19066720247E+02  0.00000000000E+00 0. -1.
         21   -1    0    0  504  502 -0.00000000000E+00 -0.00000000000E+00 -0.17229694745E+04  0.17229694745E+04  0.00000000000E+00 0. -1.
         21    1    1    2  503  502  0.56557878979E+02  0.10183683488E+03 -0.18464595517E+03  0.21832009383E+03  0.00000000000E+00 0. -1.
         21    1    1    2  504  501 -0.56557878979E+02 -0.10183683488E+03 -0.15192567991E+04  0.15237161009E+04  0.00000000000E+00 0. -1.
<mgrwt>
<rscale>  2 0.11648835E+03</rscale>
<asrwt>0</asrwt>
<pdfrwt beam="1">  1       21 0.29333399E-02 0.11648835E+03</pdfrwt>
<pdfrwt beam="2">  1       21 0.26507238E+00 0.11648835E+03</pdfrwt>
<totfact> 0.38459281E+04</totfact>
</mgrwt>
</event>
<event>
 4    1  0.5810391E+003  0.1048134E+03  0.7546771E-02  0.1270488E+00
         21   -1    0    0  503  501  0.00000000000E+00  0.00000000000E+00  0.14094075076E+03  0.14094075076E+03  0.00000000000E+00 0.  1.
         21   -1    0    0  504  502 -0.00000000000E+00 -0.00000000000E+00 -0.79427328214E+02  0.79427328214E+02  0.00000000000E+00 0.  1.
         21    1    1    2  503  502  0.43781169277E+02  0.95231630010E+02  0.15712497333E+02  0.10598460601E+03  0.00000000000E+00 0.  1.
         21    1    1    2  504  501 -0.43781169277E+02 -0.95231630010E+02  0.45800925210E+02  0.11438347297E+03  0.00000000000E+00 0.  1.
<mgrwt>
<rscale>  2 0.10481343E+03</rscale>
<asrwt>0</asrwt>
<pdfrwt beam="1">  1       21 0.21683192E-01 0.10481343E+03</pdfrwt>
<pdfrwt beam="2">  1       21 0.12219589E-01 0.10481343E+03</pdfrwt>
<totfact> 0.11232328E+06</totfact>
</mgrwt>
</event>
<event>
 4    1  0.5810391E+003  0.1185058E+03  0.7546771E-02  0.1245583E+00
         21   -1    0    0  504  501  0.00000000000E+00  0.00000000000E+00  0.10537012874E+04  0.10537012874E+04  0.00000000000E+00 0.  1.
         21   -1    0    0  503  502 -0.00000000000E+00 -0.00000000000E+00 -0.14563553861E+02  0.14563553861E+02  0.00000000000E+00 0. -1.
         21    1    1    2  503  501  0.94102468306E+02  0.72030174783E+02  0.36398503372E+03  0.38279070704E+03  0.00000000000E+00 0. -1.
         21    1    1    2  504  502 -0.94102468306E+02 -0.72030174783E+02  0.67515269986E+03  0.68547413426E+03  0.00000000000E+00 0.  1.
<mgrwt>
<rscale>  2 0.11850578E+03</rscale>
<asrwt>0</asrwt>
<pdfrwt beam="1">  1       21 0.16210783E+00 0.11850578E+03</pdfrwt>
<pdfrwt beam="2">  1       21 0.22405476E-02 0.11850578E+03</pdfrwt>
<totfact> 0.25586254E+05</totfact>
</mgrwt>
</event>
<event>
 4    1  0.5810391E+003  0.1431854E+03  0.7546771E-02  0.1209106E+00
         21   -1    0    0  504  501  0.00000000000E+00  0.00000000000E+00  0.53719715211E+02  0.53719715211E+02  0.00000000000E+00 0. -1.
         21   -1    0    0  503  502 -0.00000000000E+00 -0.00000000000E+00 -0.38665446147E+03  0.38665446147E+03  0.00000000000E+00 0.  1.
         21    1    1    2  503  501  0.41852528670E+02 -0.13693215935E+03 -0.19152112211E+03  0.23912839781E+03  0.00000000000E+00 0.  1.
         21    1    1    2  504  502 -0.41852528670E+02  0.13693215935E+03 -0.14141362415E+03  0.20124577888E+03  0.00000000000E+00 0. -1.
<mgrwt>
<rscale>  2 0.14318537E+03</rscale>
<asrwt>0</asrwt>
<pdfrwt beam="1">  1       21 0.82645714E-02 0.14318537E+03</pdfrwt>
<pdfrwt beam="2">  1       21 0.59485303E-01 0.14318537E+03</pdfrwt>
<totfact> 0.30268516E+05</totfact>
</mgrwt>
</event>
<event>
 4    1  0.5810391E+003  0.1091087E+03  0.7546771E-02  0.1262229E+00
         21   -1    0    0  502  501  0.00000000000E+00  0.00000000000E+00  0.17374506952E+02  0.17374506952E+02  0.00000000000E+00 0. -1.
         21   -1    0    0  504  502 -0.00000000000E+00 -0.00000000000E+00 -0.12525304879E+04  0.12525304879E+04  0.00000000000E+00 0.  1.
         21    1    1    2  503  501 -0.65189496328E+02  0.87493104474E+02 -0.19023978911E+03  0.21930775436E+03  0.00000000000E+00 0. -1.
         21    1    1    2  504  503  0.65189496328E+02 -0.87493104474E+02 -0.10449161918E+04  0.10505972405E+04  0.00000000000E+00 0.  1.
<mgrwt>
<rscale>  2 0.10910872E+03</rscale>
<asrwt>0</asrwt>
<pdfrwt beam="1">  1       21 0.26730010E-02 0.10910872E+03</pdfrwt>
<pdfrwt beam="2">  1       21 0.19269700E+00 0.10910872E+03</pdfrwt>
<totfact> 0.12052842E+05</totfact>
</mgrwt>
</event>
<event>
 4    1  0.5810391E+003  0.1040883E+03  0.7546771E-02  0.1271926E+00
         21   -1    0    0  503  501  0.00000000000E+00  0.00000000000E+00  0.12920106511E+03  0.12920106511E+03  0.00000000000E+00 0. -1.
         21   -1    0    0  504  502 -0.00000000000E+00 -0.00000000000E+00 -0.85641633018E+02  0.85641633018E+02  0.00000000000E+00 0. -1.
         21    1    1    2  503  502 -0.84314432598E+02  0.61036535993E+02  0.37287588022E+02  0.11056557552E+03  0.00000000000E+00 0. -1.
         21    1    1    2  504  501  0.84314432598E+02 -0.61036535993E+02  0.62718440685E+01  0.10427712260E+03  0.00000000000E+00 0. -1.
<mgrwt>
<rscale>  2 0.10408834E+03</rscale>
<asrwt>0</asrwt>
<pdfrwt beam="1">  1       21 0.19877087E-01 0.10408834E+03</pdfrwt>
<pdfrwt beam="2">  1       21 0.13175636E-01 0.10408834E+03</pdfrwt>
<totfact> 0.11540339E+06</totfact>
</mgrwt>
</event>
<event>
 4    1  0.5810391E+003  0.1132479E+03  0.7546771E-02  0.1254671E+00
         21   -1    0    0  503  501  0.00000000000E+00  0.00000000000E+00  0.51176013633E+03  0.51176013633E+03  0.00000000000E+00 0.  1.
         21   -1    0    0  504  502 -0.00000000000E+00 -0.00000000000E+00 -0.43147779903E+02  0.43147779903E+02  0.00000000000E+00 0.  1.
         21    1    1    2  503  502 -0.86076831656E+02  0.73592542259E+02  0.54669278464E+02  0.12575298498E+03  0.00000000000E+00 0.  1.
         21    1    1    2  504  501  0.86076831656E+02 -0.73592542259E+02  0.41394307797E+03  0.42915493125E+03  0.00000000000E+00 0.  1.
<mgrwt>
<rscale>  2 0.11324788E+03</rscale>
<asrwt>0</asrwt>
<pdfrwt beam="1">  1       21 0.78732324E-01 0.11324788E+03</pdfrwt>
<pdfrwt beam="2">  1       21 0.66381203E-02 0.11324788E+03</pdfrwt>
<totfact> 0.24147393E+05</totfact>
</mgrwt>
</event>
<event>
 4    1  0.5810391E+003  0.1235049E+03  0.7546771E-02  0.1237425E+00
         21   -1    0    0  503  501  0.00000000000E+00  0.00000000000E+00  0.13313186883E+04  0.13313186883E+04  0.00000000000E+00 0. -1.
         21   -1    0    0  504  502 -0.00000000000E+00 -0.00000000000E+00 -0.25970923315E+03  0.25970923315E+03  0.00000000000E+00 0.  1.
         21    1    1    2  503  502  0.10141048227E+03 -0.70493770507E+02 -0.24196375128E+03  0.27166139683E+03  0.00000000000E+00 0.  1.
         21    1    1    2  504  501 -0.10141048227E+03  0.70493770507E+02  0.13135732065E+04  0.13193665246E+04  0.00000000000E+00 0. -1.
<mgrwt>
<rscale>  2 0.12350489E+03</rscale>
<asrwt>0</asrwt>
<pdfrwt beam="1">  1       21 0.20481826E+00 0.12350489E+03</pdfrwt>
<pdfrwt beam="2">  1       21 0.39955267E-01 0.12350489E+03</pdfrwt>
<totfact> 0.83209466E+02</totfact>
</mgrwt>
</event>
<event>
 4    1  0.5810391E+003  0.1312683E+03  0.7546771E-02  0.1225586E+00
         21   -1    0    0  504  501  0.00000000000E+00  0.00000000000E+00  0.19602996965E+03  0.19602996965E+03  0.00000000000E+00 0.  1.
         21   -1    0    0  503  502 -0.00000000000E+00 -0.00000000000E+00 -0.10125030809E+03  0.10125030809E+03  0.00000000000E+00 0. -1.
         21    1    1    2  503  501  0.12705943593E+03 -0.32973681595E+02  0.10136030321E+03  0.16584714349E+03  0.00000000000E+00 0.  1.
         21    1    1    2  504  502 -0.12705943593E+03  0.32973681595E+02 -0.65806416557E+01  0.13143313426E+03  0.00000000000E+00 0. -1.
<mgrwt>
<rscale>  2 0.13126829E+03</rscale>
<asrwt>0</asrwt>
<pdfrwt beam="1">  1       21 0.30158457E-01 0.13126829E+03</pdfrwt>
<pdfrwt beam="2">  1       21 0.15576971E-01 0.13126829E+03</pdfrwt>
<totfact> 0.39023644E+05</totfact>
</mgrwt>
</event>
<event>
 4    1  0.5810391E+003  0.1071916E+03  0.7546771E-02  0.1265861E+00
         21   -1    0    0  503  501  0.00000000000E+00  0.00000000000E+00  0.20424837858E+03  0.20424837858E+03  0.00000000000E+00 0. -1.
         21   -1    0    0  504  502 -0.00000000000E+00 -0.00000000000E+00 -0.26074688978E+03  0.26074688978E+03  0.00000000000E+00 0.  1.
         21    1    1    2  503  502 -0.79096081634E+02 -0.72345383107E+02  0.17764619145E+03  0.20748063506E+03  0.00000000000E+00 0. -1.
         21    1    1    2  504  501  0.79096081634E+02  0.72345383107E+02 -0.23414470265E+03  0.25751463330E+03  0.00000000000E+00 0.  1.
<mgrwt>
<rscale>  2 0.10719163E+03</rscale>
<asrwt>0</asrwt>
<pdfrwt beam="1">  1       21 0.31422828E-01 0.10719163E+03</pdfrwt>
<pdfrwt beam="2">  1       21 0.40114906E-01 0.10719163E+03</pdfrwt>
<totfact> 0.60787994E+04</totfact>
</mgrwt>
</event>
<event>
 4    1  0.5810391E+003  0.1280660E+03  0.7546771E-02  0.1230354E+00
         21   -1    0    0  502  501  0.00000000000E+00  0.00000000000E+00  0.36538471698E+03  0.36538471698E+03  0.00000000000E+00 0. -1.
         21   -1    0    0  503  502 -0.00000000000E+00 -0.00000000000E+00 -0.97293946158E+02  0.97293946158E+02  0.00000000000E+00 0. -1.
         21    1    1    2  503  504 -0.12667014590E+03 -0.18856978408E+02 -0.35740767233E+02  0.13295982077E+03  0.00000000000E+00 0. -1.
         21    1    1    2  504  501  0.12667014590E+03  0.18856978408E+02  0.30383153805E+03  0.32971884236E+03  0.00000000000E+00 0. -1.
<mgrwt>
<rscale>  2 0.12806604E+03</rscale>
<asrwt>0</asrwt>
<pdfrwt beam="1">  1       21 0.56213032E-01 0.12806604E+03</pdfrwt>
<pdfrwt beam="2">  1       21 0.14968300E-01 0.12806604E+03</pdfrwt>
<totfact> 0.12006430E+05</totfact>
</mgrwt>
</event>
<event>
 4    1  0.5810391E+003  0.1120114E+03  0.7546771E-02  0.1256890E+00
         21   -1    0    0  504  501  0.00000000000E+00  0.00000000000E+00  0.23402611846E+03  0.23402611846E+03  0.00000000000E+00 0. -1.
         21   -1    0    0  503  502 -0.00000000000E+00 -0.00000000000E+00 -0.20244843893E+03  0.20244843893E+03  0.00000000000E+00 0. -1.
         21    1    1    2  503  501 -0.10877941851E+03  0.26712996071E+02  0.20291165577E+03  0.23177507652E+03  0.00000000000E+00 0. -1.
         21    1    1    2  504  502  0.10877941851E+03 -0.26712996071E+02 -0.17133397624E+03  0.20469948086E+03  0.00000000000E+00 0. -1.
<mgrwt>
<rscale>  2 0.11201137E+03</rscale>
<asrwt>0</asrwt>
<pdfrwt beam="1">  1       21 0.36004018E-01 0.11201137E+03</pdfrwt>
<pdfrwt beam="2">  1       21 0.31145913E-01 0.11201137E+03</pdfrwt>
<totfact> 0.76359120E+04</totfact>
</mgrwt>
</event>
<event>
 4    1  0.5810391E+003  0.1336767E+03  0.7546771E-02  0.1222100E+00
         21   -1    0    0  504  501  0.00000000000E+00  0.00000000000E+00  0.31980682378E+03  0.31980682378E+03  0.00000000000E+00 0.  1.
         21   -1    0    0  503  502 -0.00000000000E+00 -0.00000000000E+00 -0.22024457508E+03  0.22024457508E+03  0.00000000000E+00 0.  1.
         21    1    1    2  503  501  0.39424971447E+01 -0.13361853069E+03 -0.18349064225E+03  0.22702041940E+03  0.00000000000E+00 0.  1.
         21    1    1    2  504  502 -0.39424971447E+01  0.13361853069E+03  0.28305289095E+03  0.31303097946E+03  0.00000000000E+00 0.  1.
<mgrwt>
<rscale>  2 0.13367668E+03</rscale>
<asrwt>0</asrwt>
<pdfrwt beam="1">  1       21 0.49201050E-01 0.13367668E+03</pdfrwt>
<pdfrwt beam="2">  1       21 0.33883781E-01 0.13367668E+03</pdfrwt>
<totfact> 0.34170515E+04</totfact>
</mgrwt>
</event>
<event>
 4    1  0.5810391E+003  0.1492514E+03  0.7546771E-02  0.1201396E+00
         21   -1    0    0  503  501  0.00000000000E+00  0.00000000000E+00  0.35897465441E+02  0.35897465441E+02  0.00000000000E+00 0. -1.
         21   -1    0    0  504  502 -0.00000000000E+00 -0.00000000000E+00 -0.63996276413E+03  0.63996276413E+03  0.00000000000E+00 0. -1.
         21    1    1    2  503  502 -0.67767163540E+02  0.13297970189E+03 -0.36089669761E+03  0.39054118337E+03  0.00000000000E+00 0. -1.
         21    1    1    2  504  501  0.67767163540E+02 -0.13297970189E+03 -0.24316860109E+03  0.28531904620E+03  0.00000000000E+00 0. -1.
<mgrwt>
<rscale>  2 0.14925143E+03</rscale>
<asrwt>0</asrwt>
<pdfrwt beam="1">  1       21 0.55226870E-02 0.14925143E+03</pdfrwt>
<pdfrwt beam="2">  1       21 0.98455810E-01 0.14925143E+03</pdfrwt>
<totfact> 0.19624681E+05</totfact>
</mgrwt>
</event>
<event>
 4    1  0.5810391E+003  0.1015101E+03  0.7546771E-02  0.1277152E+00
         21   -1    0    0  502  501  0.00000000000E+00  0.00000000000E+00  0.20675539572E+02  0.20675539572E+02  0.00000000000E+00 0.  1.
         21   -1    0    0  504  502 -0.00000000000E+00 -0.00000000000E+00 -0.54919159527E+03  0.54919159527E+03  0.00000000000E+00 0.  1.
         21    1    1    2  503  501 -0.75426720326E+02 -0.67934609032E+02 -0.17759023230E+03  0.20455461826E+03  0.00000000000E+00 0.  1.
         21    1    1    2  504  503  0.75426720326E+02  0.67934609032E+02 -0.35092582340E+03  0.36531251658E+03  0.00000000000E+00 0.  1.
<mgrwt>
<rscale>  2 0.10151010E+03</rscale>
<asrwt>0</asrwt>
<pdfrwt beam="1">  1       21 0.31808518E-02 0.10151010E+03</pdfrwt>
<pdfrwt beam="2">  1       21 0.84491026E-01 0.10151010E+03</pdfrwt>
<totfact> 0.70372192E+05</totfact>
</mgrwt>
</event>
<event>
 4    1  0.5810391E+003  0.1009182E+03  0.7546771E-02  0.1278377E+00
         21   -1    0    0  503  501  0.00000000000E+00  0.00000000000E+00  0.34271637828E+02  0.34271637828E+02  0.00000000000E+00 0.  1.
         21   -1    0    0  504  502 -0.00000000000E+00 -0.00000000000E+00 -0.40559234663E+03  0.40559234663E+03  0.00000000000E+00 0. -1.
         21    1    1    2  503  502  0.21665977116E+02  0.98565062540E+02 -0.71948982864E+02  0.12394007525E+03  0.00000000000E+00 0.  1.
         21    1    1    2  504  501 -0.21665977116E+02 -0.98565062540E+02 -0.29937172594E+03  0.31592390921E+03  0.00000000000E+00 0. -1.
<mgrwt>
<rscale>  2 0.10091821E+03</rscale>
<asrwt>0</asrwt>
<pdfrwt beam="1">  1       21 0.52725595E-02 0.10091821E+03</pdfrwt>
<pdfrwt beam="2">  1       21 0.62398824E-01 0.10091821E+03</pdfrwt>
<totfact> 0.59078248E+05</totfact>
</mgrwt>
</event>
<event>
 4    1  0.5810391E+003  0.1255462E+03  0.7546771E-02  0.1234218E+00
         21   -1    0    0  504  501  0.00000000000E+00  0.00000000000E+00  0.55861510611E+03  0.55861510611E+03  0.00000000000E+00 0. -1.
         21   -1    0    0  503  502 -0.00000000000E+00 -0.00000000000E+00 -0.34451323031E+02  0.34451323031E+02  0.00000000000E+00 0. -1.
         21    1    1    2  503  501 -0.12542116679E+03  0.56007284144E+01  0.38823640032E+03  0.40803105246E+03  0.00000000000E+00 0. -1.
         21    1    1    2  504  502  0.12542116679E+03 -0.56007284144E+01  0.13592738275E+03  0.18503537667E+03  0.00000000000E+00 0. -1.
<mgrwt>
<rscale>  2 0.12554616E+03</rscale>
<asrwt>0</asrwt>
<pdfrwt beam="1">  1       21 0.85940779E-01 0.12554616E+03</pdfrwt>
<pdfrwt beam="2">  1       21 0.53002040E-02 0.12554616E+03</pdfrwt>
<totfact> 0.28946794E+05</totfact>
</mgrwt>
</event>
<event>
 4    1  0.5810391E+003  0.1390255E+03  0.7546771E-02  0.1214646E+00
         21   -1    0    0  503  501  0.00000000000E+00  0.00000000000E+00  0.14806556245E+04  0.14806556245E+04  0.00000000000E+00 0. -1.
         21   -1    0    0  501  502 -0.00000000000E+00 -0.00000000000E+00 -0.33777559414E+02  0.33777559414E+02  0.00000000000E+00 0. -1.
         21    1    1    2  503  504 -0.66822550747E+01 -0.13886479740E+03  0.13165568247E+04  0.13238768663E+04  0.00000000000E+00 0. -1.
         21    1    1    2  504  502  0.66822550747E+01  0.13886479740E+03  0.13032124046E+03  0.19055631767E+03  0.00000000000E+00 0. -1.
<mgrwt>
<rscale>  2 0.13902548E+03</rscale>
<asrwt>0</asrwt>
<pdfrwt beam="1">  1       21 0.22779312E+00 0.13902548E+03</pdfrwt>
<pdfrwt beam="2">  1       21 0.51965488E-02 0.13902548E+03</pdfrwt>
<totfact> 0.23823935E+04</totfact>
</mgrwt>
</event>
<event>
 4    1  0.5810391E+003  0.2074791E+03  0.7546771E-02  0.1143578E+00
         21   -1    0    0  503  501  0.00000000000E+00  0.00000000000E+00  0.85127415367E+03  0.85127415367E+03  0.00000000000E+00 0.  1.
         21   -1    0    0  504  502 -0.00000000000E+00 -0.00000000000E+00 -0.51221631778E+02  0.51221631778E+02  0.00000000000E+00 0.  1.
         21    1    1    2  503  502 -0.18163636596E+03 -0.10027856277E+03  0.34906655121E+03  0.40607267424E+03  0.00000000000E+00 0.  1.
         21    1    1    2  504  501  0.18163636596E+03  0.10027856277E+03  0.45098597068E+03  0.49642311121E+03  0.00000000000E+00 0.  1.
<mgrwt>
<rscale>  2 0.20747906E+03</rscale>
<asrwt>0</asrwt>
<pdfrwt beam="1">  1       21 0.13096524E+00 0.20747906E+03</pdfrwt>
<pdfrwt beam="2">  1       21 0.78802517E-02 0.20747906E+03</pdfrwt>
<totfact> 0.51851170E+04</totfact>
</mgrwt>
</event>
<event>
 4    1  0.5810391E+003  0.1050526E+03  0.7546771E-02  0.1270016E+00
         21   -1    0    0  504  501  0.00000000000E+00  0.00000000000E+00  0.76913526692E+02  0.76913526692E+02  0.00000000000E+00 0.  1.
         21   -1    0    0  501  502 -0.00000000000E+00 -0.00000000000E+00 -0.32998504143E+03  0.32998504143E+03  0.00000000000E+00 0. -1.
         21    1    1    2  503  502 -0.76668174982E+02 -0.71819433530E+02 -0.27948486614E+03  0.29857633947E+03  0.00000000000E+00 0. -1.
         21    1    1    2  504  503  0.76668174982E+02  0.71819433530E+02  0.26413351406E+02  0.10832222865E+03  0.00000000000E+00 0.  1.
<mgrwt>
<rscale>  2 0.10505256E+03</rscale>
<asrwt>0</asrwt>
<pdfrwt beam="1">  1       21 0.11832850E-01 0.10505256E+03</pdfrwt>
<pdfrwt beam="2">  1       21 0.50766931E-01 0.10505256E+03</pdfrwt>
<totfact> 0.22721835E+05</totfact>
</mgrwt>
</event>
<event>
 4    1  0.5810391E+003  0.1407370E+03  0.7546771E-02  0.1212341E+00
         21   -1    0    0  503  501  0.00000000000E+00  0.00000000000E+00  0.75867105280E+03  0.75867105280E+03  0.00000000000E+00 0. -1.
         21   -1    0    0  504  502 -0.00000000000E+00 -0.00000000000E+00 -0.30319741118E+02  0.30319741118E+02  0.00000000000E+00 0. -1.
         21    1    1    2  503  502  0.12468433450E+03  0.65274197134E+02  0.21713323931E+03  0.25875422256E+03  0.00000000000E+00 0. -1.
         21    1    1    2  504  501 -0.12468433450E+03 -0.65274197134E+02  0.51121807237E+03  0.53023657135E+03  0.00000000000E+00 0. -1.
<mgrwt>
<rscale>  2 0.14073700E+03</rscale>
<asrwt>0</asrwt>
<pdfrwt beam="1">  1       21 0.11671861E+00 0.14073700E+03</pdfrwt>
<pdfrwt beam="2">  1       21 0.46645761E-02 0.14073700E+03</pdfrwt>
<totfact> 0.17430238E+05</totfact>
</mgrwt>
</event>
<event>
 4    1  0.5810391E+003  0.1029356E+03  0.7546771E-02  0.1274241E+00
         21   -1    0    0  503  501  0.00000000000E+00  0.00000000000E+00  0.10522101178E+03  0.10522101178E+03  0.00000000000E+00 0.  1.
         21   -1    0    0  504  502 -0.00000000000E+00 -0.00000000000E+00 -0.11552883058E+03  0.11552883058E+03  0.00000000000E+00 0.  1.
         21    1    1    2  503  502 -0.44184193547E+01 -0.10284075985E+03 -0.44697880472E+02  0.11222140987E+03  0.00000000000E+00 0.  1.
         21    1    1    2  504  501  0.44184193547E+01  0.10284075985E+03  0.34390061670E+02  0.10852843248E+03  0.00000000000E+00 0.  1.
<mgrwt>
<rscale>  2 0.10293563E+03</rscale>
<asrwt>0</asrwt>
<pdfrwt beam="1">  1       21 0.16187848E-01 0.10293563E+03</pdfrwt>
<pdfrwt beam="2">  1       21 0.17773666E-01 0.10293563E+03</pdfrwt>
<totfact> 0.97941429E+05</totfact>
</mgrwt>
</event>
<event>
 4    1  0.5810391E+003  0.1024706E+03  0.7546771E-02  0.1275185E+00
         21   -1    0    0  503  501  0.00000000000E+00  0.00000000000E+00  0.21124548296E+02  0.21124548296E+02  0.00000000000E+00 0. -1.
         21   -1    0    0  504  502 -0.00000000000E+00 -0.00000000000E+00 -0.12485738970E+04  0.12485738970E+04  0.00000000000E+00 0. -1.
         21    1    1    2  503  502  0.73638222311E+02  0.71257602923E+02 -0.11062528442E+04  0.11109885638E+04  0.00000000000E+00 0. -1.
         21    1    1    2  504  501 -0.73638222311E+02 -0.71257602923E+02 -0.12119650454E+03  0.15870988146E+03  0.00000000000E+00 0. -1.
<mgrwt>
<rscale>  2 0.10247065E+03</rscale>
<asrwt>0</asrwt>
<pdfrwt beam="1">  1       21 0.32499311E-02 0.10247065E+03</pdfrwt>
<pdfrwt beam="2">  1       21 0.19208826E+00 0.10247065E+03</pdfrwt>
<totfact> 0.88888987E+04</totfact>
</mgrwt>
</event>
<event>
 4    1  0.5810391E+003  0.1093646E+03  0.7546771E-02  0.1261751E+00
         21   -1    0    0  503  501  0.00000000000E+00  0.00000000000E+00  0.15554502603E+03  0.15554502603E+03  0.00000000000E+00 0.  1.
         21   -1    0    0  504  502 -0.00000000000E+00 -0.00000000000E+00 -0.77478500901E+02  0.77478500901E+02  0.00000000000E+00 0. -1.
         21    1    1    2  503  502 -0.81012828619E+02 -0.73467896253E+02  0.49145768155E+02  0.11989961096E+03  0.00000000000E+00 0.  1.
         21    1    1    2  504  501  0.81012828619E+02  0.73467896253E+02  0.28920756974E+02  0.11312391597E+03  0.00000000000E+00 0. -1.
<mgrwt>
<rscale>  2 0.10936457E+03</rscale>
<asrwt>0</asrwt>
<pdfrwt beam="1">  1       21 0.23930004E-01 0.10936457E+03</pdfrwt>
<pdfrwt beam="2">  1       21 0.11919769E-01 0.10936457E+03</pdfrwt>
<totfact> 0.97735546E+05</totfact>
</mgrwt>
</event>
<event>
 4    1  0.5810391E+003  0.1327071E+03  0.7546771E-02  0.1223493E+00
         21   -1    0    0  504  501  0.00000000000E+00  0.00000000000E+00  0.15350476662E+04  0.15350476662E+04  0.00000000000E+00 0. -1.
         21   -1    0    0  503  502 -0.00000000000E+00 -0.00000000000E+00 -0.26855880843E+02  0.26855880843E+02  0.00000000000E+00 0. -1.
         21    1    1    2  503  501  0.11706803515E+03 -0.62499920511E+02  0.16304160659E+03  0.21022304916E+03  0.00000000000E+00 0. -1.
         21    1    1    2  504  502 -0.11706803515E+03  0.62499920511E+02  0.13451501788E+04  0.13516804979E+04  0.00000000000E+00 0. -1.
<mgrwt>
<rscale>  2 0.13270706E+03</rscale>
<asrwt>0</asrwt>
<pdfrwt beam="1">  1       21 0.23616111E+00 0.13270706E+03</pdfrwt>
<pdfrwt beam="2">  1       21 0.41316752E-02 0.13270706E+03</pdfrwt>
<totfact> 0.31420452E+04</totfact>
</mgrwt>
</event>
<event>
 4    1  0.5810391E+003  0.1277516E+03  0.7546771E-02  0.1230831E+00
         21   -1    0    0  502  501  0.00000000000E+00  0.00000000000E+00  0.32242905481E+03  0.32242905481E+03  0.00000000000E+00 0.  1.
         21   -1    0    0  503  502 -0.00000000000E+00 -0.00000000000E+00 -0.77101104674E+02  0.77101104674E+02  0.00000000000E+00 0.  1.
         21    1    1    2  503  504 -0.12762256968E+03 -0.57410813323E+01  0.55847979359E+01  0.12787364965E+03  0.00000000000E+00 0.  1.
         21    1    1    2  504  501  0.12762256968E+03  0.57410813323E+01  0.23974315220E+03  0.27165650983E+03  0.00000000000E+00 0.  1.
<mgrwt>
<rscale>  2 0.12775164E+03</rscale>
<asrwt>0</asrwt>
<pdfrwt beam="1">  1       21 0.49604469E-01 0.12775164E+03</pdfrwt>
<pdfrwt beam="2">  1       21 0.11861709E-01 0.12775164E+03</pdfrwt>
<totfact> 0.23594049E+05</totfact>
</mgrwt>
</event>
<event>
 4    1  0.5810391E+003  0.1649973E+03  0.7546771E-02  0.1183168E+00
         21   -1    0    0  503  501  0.00000000000E+00  0.00000000000E+00  0.13687784238E+03  0.13687784238E+03  0.00000000000E+00 0. -1.
         21   -1    0    0  501  502 -0.00000000000E+00 -0.00000000000E+00 -0.33511090196E+03  0.33511090196E+03  0.00000000000E+00 0.  1.
         21    1    1    2  503  504  0.32469854995E+02 -0.16177086707E+03  0.51344406578E+02  0.17280148437E+03  0.00000000000E+00 0. -1.
         21    1    1    2  504  502 -0.32469854995E+02  0.16177086707E+03 -0.24957746616E+03  0.29918725997E+03  0.00000000000E+00 0.  1.
<mgrwt>
<rscale>  2 0.16499729E+03</rscale>
<asrwt>0</asrwt>
<pdfrwt beam="1">  1       21 0.21058130E-01 0.16499729E+03</pdfrwt>
<pdfrwt beam="2">  1       21 0.51555523E-01 0.16499729E+03</pdfrwt>
<totfact> 0.75808357E+04</totfact>
</mgrwt>
</event>
<event>
 4    1  0.5810391E+003  0.1159363E+03  0.7546771E-02  0.1249955E+00
         21   -1    0    0  504  501  0.00000000000E+00  0.00000000000E+00  0.37247923066E+03  0.37247923066E+03  0.00000000000E+00 0. -1.
         21   -1    0    0  501  502 -0.00000000000E+00 -0.00000000000E+00 -0.30683246612E+03  0.30683246612E+03  0.00000000000E+00 0. -1.
         21    1    1    2  503  502  0.47197327320E+02  0.10589451400E+03 -0.28623484438E+03  0.30882296213E+03  0.00000000000E+00 0. -1.
         21    1    1    2  504  503 -0.47197327320E+02 -0.10589451400E+03  0.35188160892E+03  0.37048873465E+03  0.00000000000E+00 0. -1.
<mgrwt>
<rscale>  2 0.11593634E+03</rscale>
<asrwt>0</asrwt>
<pdfrwt beam="1">  1       21 0.57304497E-01 0.11593634E+03</pdfrwt>
<pdfrwt beam="2">  1       21 0.47204995E-01 0.11593634E+03</pdfrwt>
<totfact> 0.13006033E+04</totfact>
</mgrwt>
</event>
<event>
 4    1  0.5810391E+003  0.1127842E+03  0.7546771E-02  0.1255499E+00
         21   -1    0    0  502  501  0.00000000000E+00  0.00000000000E+00  0.48058711048E+02  0.48058711048E+02  0.00000000000E+00 0.  1.
         21   -1    0    0  504  502 -0.00000000000E+00 -0.00000000000E+00 -0.34746227225E+03  0.34746227225E+03  0.00000000000E+00 0.  1.
         21    1    1    2  503  501  0.75277699483E+02 -0.83985414464E+02 -0.53174783382E+02  0.12469097590E+03  0.00000000000E+00 0.  1.
         21    1    1    2  504  503 -0.75277699483E+02  0.83985414464E+02 -0.24622877782E+03  0.27083000740E+03  0.00000000000E+00 0.  1.
<mgrwt>
<rscale>  2 0.11278423E+03</rscale>
<asrwt>0</asrwt>
<pdfrwt beam="1">  1       21 0.73936475E-02 0.11278423E+03</pdfrwt>
<pdfrwt beam="2">  1       21 0.53455736E-01 0.11278423E+03</pdfrwt>
<totfact> 0.46105034E+05</totfact>
</mgrwt>
</event>
<event>
 4    1  0.5810391E+003  0.1108709E+03  0.7546771E-02  0.1258966E+00
         21   -1    0    0  503  501  0.00000000000E+00  0.00000000000E+00  0.19125334276E+03  0.19125334276E+03  0.00000000000E+00 0.  1.
         21   -1    0    0  501  502 -0.00000000000E+00 -0.00000000000E+00 -0.99395607946E+02  0.99395607946E+02  0.00000000000E+00 0. -1.
         21    1    1    2  503  504  0.12384525612E+02 -0.11017704002E+03  0.13231634443E+03  0.17262668283E+03  0.00000000000E+00 0.  1.
         21    1    1    2  504  502 -0.12384525612E+02  0.11017704002E+03 -0.40458609621E+02  0.11802226787E+03  0.00000000000E+00 0. -1.
<mgrwt>
<rscale>  2 0.11087090E+03</rscale>
<asrwt>0</asrwt>
<pdfrwt beam="1">  1       21 0.29423591E-01 0.11087090E+03</pdfrwt>
<pdfrwt beam="2">  1       21 0.15291632E-01 0.11087090E+03</pdfrwt>
<totfact> 0.42406393E+05</totfact>
</mgrwt>
</event>
<event>
 4    1  0.5810391E+003  0.1029484E+03  0.7546771E-02  0.1274215E+00
         21   -1    0    0  504  501  0.00000000000E+00  0.00000000000E+00  0.37980462402E+02  0.37980462402E+02  0.00000000000E+00 0. -1.
         21   -1    0    0  503  502 -0.00000000000E+00 -0.00000000000E+00 -0.57899779518E+03  0.57899779518E+03  0.00000000000E+00 0. -1.
         21    1    1    2  503  501 -0.99097000649E+02  0.27895343404E+02 -0.49254590368E+03  0.50318965903E+03  0.00000000000E+00 0. -1.
         21    1    1    2  504  502  0.99097000649E+02 -0.27895343404E+02 -0.48471429092E+02  0.11378859855E+03  0.00000000000E+00 0. -1.
<mgrwt>
<rscale>  2 0.10294836E+03</rscale>
<asrwt>0</asrwt>
<pdfrwt beam="1">  1       21 0.58431484E-02 0.10294836E+03</pdfrwt>
<pdfrwt beam="2">  1       21 0.89076579E-01 0.10294836E+03</pdfrwt>
<totfact> 0.22787459E+05</totfact>
</mgrwt>
</event>
<event>
 4    1  0.5810391E+003  0.1141349E+03  0.7546771E-02  0.1253099E+00
         21   -1    0    0  503  501  0.00000000000E+00  0.00000000000E+00  0.16164055095E+03  0.16164055095E+03  0.00000000000E+00 0. -1.
         21   -1    0    0  504  502 -0.00000000000E+00 -0.00000000000E+00 -0.82986713311E+02  0.82986713311E+02  0.00000000000E+00 0. -1.
         21    1    1    2  503  502  0.11216037250E+03 -0.21138516068E+02  0.60108618358E+02  0.12899547287E+03  0.00000000000E+00 0. -1.
         21    1    1    2  504  501 -0.11216037250E+03  0.21138516068E+02  0.18545219281E+02  0.11563179139E+03  0.00000000000E+00 0. -1.
<mgrwt>
<rscale>  2 0.11413495E+03</rscale>
<asrwt>0</asrwt>
<pdfrwt beam="1">  1       21 0.24867777E-01 0.11413495E+03</pdfrwt>
<pdfrwt beam="2">  1       21 0.12767187E-01 0.11413495E+03</pdfrwt>
<totfact> 0.80557059E+05</totfact>
</mgrwt>
</event>
<event>
 4    1  0.5810391E+003  0.1025441E+03  0.7546771E-02  0.1275035E+00
         21   -1    0    0  504  501  0.00000000000E+00  0.00000000000E+00  0.31053475031E+03  0.31053475031E+03  0.00000000000E+00 0. -1.
         21   -1    0    0  501  502 -0.00000000000E+00 -0.00000000000E+00 -0.13036920769E+03  0.13036920769E+03  0.00000000000E+00 0.  1.
         21    1    1    2  503  502 -0.26053781024E+02 -0.99179082687E+02 -0.99590719626E+02  0.14294614855E+03  0.00000000000E+00 0.  1.
         21    1    1    2  504  503  0.26053781024E+02  0.99179082687E+02  0.27975626225E+03  0.29795780945E+03  0.00000000000E+00 0. -1.
<mgrwt>
<rscale>  2 0.10254409E+03</rscale>
<asrwt>0</asrwt>
<pdfrwt beam="1">  1       21 0.47774577E-01 0.10254409E+03</pdfrwt>
<pdfrwt beam="2">  1       21 0.20056801E-01 0.10254409E+03</pdfrwt>
<totfact> 0.99767977E+04</totfact>
</mgrwt>
</event>
<event>
 4    1  0.5810391E+003  0.1159070E+03  0.7546771E-02  0.1250006E+00
         21   -1    0    0  503  501  0.00000000000E+00  0.00000000000E+00  0.15821435139E+03  0.15821435139E+03  0.00000000000E+00 0.  1.
         21   -1    0    0  501  502 -0.00000000000E+00 -0.00000000000E+00 -0.20669009890E+03  0.20669009890E+03  0.00000000000E+00 0.  1.
         21    1    1    2  503  504  0.35734435982E+02  0.11026099454E+03  0.11580865439E+03  0.16384773805E+03  0.00000000000E+00 0.  1.
         21    1    1    2  504  502 -0.35734435982E+02 -0.11026099454E+03 -0.16428440190E+03  0.20105671225E+03  0.00000000000E+00 0.  1.
<mgrwt>
<rscale>  2 0.11590702E+03</rscale>
<asrwt>0</asrwt>
<pdfrwt beam="1">  1       21 0.24340670E-01 0.11590702E+03</pdfrwt>
<pdfrwt beam="2">  1       21 0.31798476E-01 0.11590702E+03</pdfrwt>
<totfact> 0.15529117E+05</totfact>
</mgrwt>
</event>
<event>
 4    1  0.5810391E+003  0.1073712E+03  0.7546771E-02  0.1265517E+00
         21   -1    0    0  504  501  0.00000000000E+00  0.00000000000E+00  0.48059752276E+03  0.48059752276E+03  0.00000000000E+00 0.  1.
         21   -1    0    0  501  502 -0.00000000000E+00 -0.00000000000E+00 -0.35609773156E+02  0.35609773156E+02  0.00000000000E+00 0.  1.
         21    1    1    2  503  502  0.53365978462E+02  0.93169993662E+02  0.75043575453E+02  0.13099661672E+03  0.00000000000E+00 0.  1.
         21    1    1    2  504  503 -0.53365978462E+02 -0.93169993662E+02  0.36994417415E+03  0.38521067919E+03  0.00000000000E+00 0.  1.
<mgrwt>
<rscale>  2 0.10737120E+03</rscale>
<asrwt>0</asrwt>
<pdfrwt beam="1">  1       21 0.73938076E-01 0.10737120E+03</pdfrwt>
<pdfrwt beam="2">  1       21 0.54784270E-02 0.10737120E+03</pdfrwt>
<totfact> 0.38410874E+05</totfact>
</mgrwt>
</event>
<event>
 4    1  0.5810391E+003  0.1029257E+03  0.7546771E-02  0.1274261E+00
         21   -1    0    0  504  501  0.00000000000E+00  0.00000000000E+00  0.18157720316E+03  0.18157720316E+03  0.00000000000E+00 0. -1.
         21   -1    0    0  503  502 -0.00000000000E+00 -0.00000000000E+00 -0.93813649610E+02  0.93813649610E+02  0.00000000000E+00 0. -1.
         21    1    1    2  503  501 -0.85819573391E+02  0.56821702317E+02 -0.40786921366E+02  0.11071259181E+03  0.00000000000E+00 0. -1.
         21    1    1    2  504  502  0.85819573391E+02 -0.56821702317E+02  0.12855047492E+03  0.16467826096E+03  0.00000000000E+00 0. -1.
<mgrwt>
<rscale>  2 0.10292573E+03</rscale>
<asrwt>0</asrwt>
<pdfrwt beam="1">  1       21 0.27934954E-01 0.10292573E+03</pdfrwt>
<pdfrwt beam="2">  1       21 0.14432869E-01 0.10292573E+03</pdfrwt>
<totfact> 0.51958536E+05</totfact>
</mgrwt>
</event>
<event>
 4    1  0.5810391E+003  0.1043546E+03  0.7546771E-02  0.1271396E+00
         21   -1    0    0  504  501  0.00000000000E+00  0.00000000000E+00  0.44225852839E+02  0.44225852839E+02  0.00000000000E+00 0. -1.
         21   -1    0    0  501  502 -0.00000000000E+00 -0.00000000000E+00 -0.28716879357E+03  0.28716879357E+03  0.00000000000E+00 0. -1.
         21    1    1    2  503  502 -0.10423521709E+03 -0.49901328360E+01 -0.18403141857E+03  0.21155955409E+03  0.00000000000E+00 0. -1.
         21    1    1    2  504  503  0.10423521709E+03  0.49901328360E+01 -0.58911522162E+02  0.11983509232E+03  0.00000000000E+00 0. -1.
<mgrwt>
<rscale>  2 0.10435460E+03</rscale>
<asrwt>0</asrwt>
<pdfrwt beam="1">  1       21 0.68039774E-02 0.10435460E+03</pdfrwt>
<pdfrwt beam="2">  1       21 0.44179814E-01 0.10435460E+03</pdfrwt>
<totfact> 0.78447706E+05</totfact>
</mgrwt>
</event>
<event>
 4    1  0.5810391E+003  0.1177037E+03  0.7546771E-02  0.1246934E+00
         21   -1    0    0  503  501  0.00000000000E+00  0.00000000000E+00  0.71595894054E+02  0.71595894054E+02  0.00000000000E+00 0.  1.
         21   -1    0    0  501  502 -0.00000000000E+00 -0.00000000000E+00 -0.47087681690E+03  0.47087681690E+03  0.00000000000E+00 0.  1.
         21    1    1    2  503  504  0.11509093550E+03  0.24662671024E+02  0.85329847204E+01  0.11801263747E+03  0.00000000000E+00 0.  1.
         21    1    1    2  504  502 -0.11509093550E+03 -0.24662671024E+02 -0.40781390756E+03  0.42446007348E+03  0.00000000000E+00 0.  1.
<mgrwt>
<rscale>  2 0.11770374E+03</rscale>
<asrwt>0</asrwt>
<pdfrwt beam="1">  1       21 0.11014753E-01 0.11770374E+03</pdfrwt>
<pdfrwt beam="2">  1       21 0.72442587E-01 0.11770374E+03</pdfrwt>
<totfact> 0.12078709E+05</totfact>
</mgrwt>
</event>
<event>
 4    1  0.5810391E+003  0.1758533E+03  0.7546771E-02  0.1171878E+00
         21   -1    0    0  503  501  0.00000000000E+00  0.00000000000E+00  0.17358561062E+04  0.17358561062E+04  0.00000000000E+00 0.  1.
         21   -1    0    0  504  502 -0.00000000000E+00 -0.00000000000E+00 -0.20866379182E+02  0.20866379182E+02  0.00000000000E+00 0. -1.
         21    1    1    2  503  502 -0.15285142922E+03  0.86952966983E+02  0.52160758825E+03  0.55045331682E+03  0.00000000000E+00 0. -1.
         21    1    1    2  504  501  0.15285142922E+03 -0.86952966983E+02  0.11933821387E+04  0.12062691685E+04  0.00000000000E+00 0.  1.
<mgrwt>
<rscale>  2 0.17585329E+03</rscale>
<asrwt>0</asrwt>
<pdfrwt beam="1">  1       21 0.26705467E+00 0.17585329E+03</pdfrwt>
<pdfrwt beam="2">  1       21 0.32102136E-02 0.17585329E+03</pdfrwt>
<totfact> 0.30357083E+04</totfact>
</mgrwt>
</event>
<event>
 4    1  0.5810391E+003  0.1058215E+03  0.7546771E-02  0.1268509E+00
         21   -1    0    0  503  501  0.00000000000E+00  0.00000000000E+00  0.52991434194E+02  0.52991434194E+02  0.00000000000E+00 0.  1.
         21   -1    0    0  504  502 -0.00000000000E+00 -0.00000000000E+00 -0.22995676178E+03  0.22995676178E+03  0.00000000000E+00 0.  1.
         21    1    1    2  503  502  0.97096554950E+02 -0.42076710807E+02 -0.12875716022E+03  0.16666312395E+03  0.00000000000E+00 0.  1.
         21    1    1    2  504  501 -0.97096554950E+02  0.42076710807E+02 -0.48208167363E+02  0.11628507203E+03  0.00000000000E+00 0.  1.
<mgrwt>
<rscale>  2 0.10582150E+03</rscale>
<asrwt>0</asrwt>
<pdfrwt beam="1">  1       21 0.81525284E-02 0.10582150E+03</pdfrwt>
<pdfrwt beam="2">  1       21 0.35377963E-01 0.10582150E+03</pdfrwt>
<totfact> 0.89542495E+05</totfact>
</mgrwt>
</event>
<event>
 4    1  0.5810391E+003  0.1055721E+03  0.7546771E-02  0.1268997E+00
         21   -1    0    0  503  501  0.00000000000E+00  0.00000000000E+00  0.40262920188E+03  0.40262920188E+03  0.00000000000E+00 0. -1.
         21   -1    0    0  504  502 -0.00000000000E+00 -0.00000000000E+00 -0.10888566415E+03  0.10888566415E+03  0.00000000000E+00 0. -1.
         21    1    1    2  503  502 -0.10179442849E+03  0.27988593189E+02 -0.73995563643E+02  0.12892172222E+03  0.00000000000E+00 0. -1.
         21    1    1    2  504  501  0.10179442849E+03 -0.27988593189E+02  0.36773910137E+03  0.38259314382E+03  0.00000000000E+00 0. -1.
<mgrwt>
<rscale>  2 0.10557209E+03</rscale>
<asrwt>0</asrwt>
<pdfrwt beam="1">  1       21 0.61942953E-01 0.10557209E+03</pdfrwt>
<pdfrwt beam="2">  1       21 0.16751641E-01 0.10557209E+03</pdfrwt>
<totfact> 0.80639706E+04</totfact>
</mgrwt>
</event>
<event>
 4    1  0.5810391E+003  0.1169996E+03  0.7546771E-02  0.1248130E+00
         21   -1    0    0  504  501  0.00000000000E+00  0.00000000000E+00  0.29527180146E+03  0.29527180146E+03  0.00000000000E+00 0. -1.
         21   -1    0    0  501  502 -0.00000000000E+00 -0.00000000000E+00 -0.97334351686E+02  0.97334351686E+02  0.00000000000E+00 0.  1.
         21    1    1    2  503  502  0.10278646575E+03  0.55891485153E+02 -0.43090105001E+02  0.12468228744E+03  0.00000000000E+00 0.  1.
         21    1    1    2  504  503 -0.10278646575E+03 -0.55891485153E+02  0.24102755478E+03  0.26792386571E+03  0.00000000000E+00 0. -1.
<mgrwt>
<rscale>  2 0.11699964E+03</rscale>
<asrwt>0</asrwt>
<pdfrwt beam="1">  1       21 0.45426430E-01 0.11699964E+03</pdfrwt>
<pdfrwt beam="2">  1       21 0.14974516E-01 0.11699964E+03</pdfrwt>
<totfact> 0.18692196E+05</totfact>
</mgrwt>
</event>
<event>
 4    1  0.5810391E+003  0.1316753E+03  0.7546771E-02  0.1224991E+00
         21   -1    0    0  504  501  0.00000000000E+00  0.00000000000E+00  0.33876139718E+03  0.33876139718E+03  0.00000000000E+00 0.  1.
         21   -1    0    0  501  502 -0.00000000000E+00 -0.00000000000E+00 -0.53586198007E+02  0.53586198007E+02  0.00000000000E+00 0.  1.
         21    1    1    2  503  502  0.40429473741E+02  0.12531500644E+03  0.10103249852E+03  0.16596975310E+03  0.00000000000E+00 0.  1.
         21    1    1    2  504  503 -0.40429473741E+02 -0.12531500644E+03  0.18414270065E+03  0.22637784209E+03  0.00000000000E+00 0.  1.
<mgrwt>
<rscale>  2 0.13167533E+03</rscale>
<asrwt>0</asrwt>
<pdfrwt beam="1">  1       21 0.52117136E-01 0.13167533E+03</pdfrwt>
<pdfrwt beam="2">  1       21 0.82440307E-02 0.13167533E+03</pdfrwt>
<totfact> 0.40214342E+05</totfact>
</mgrwt>
</event>
<event>
 4    1  0.5810391E+003  0.1267982E+03  0.7546771E-02  0.1232285E+00
         21   -1    0    0  503  501  0.00000000000E+00  0.00000000000E+00  0.28019691620E+03  0.28019691620E+03  0.00000000000E+00 0.  1.
         21   -1    0    0  504  502 -0.00000000000E+00 -0.00000000000E+00 -0.63842657773E+02  0.63842657773E+02  0.00000000000E+00 0.  1.
         21    1    1    2  503  502  0.12098159163E+03 -0.37963748431E+02  0.16290611429E+03  0.20643690024E+03  0.00000000000E+00 0.  1.
         21    1    1    2  504  501 -0.12098159163E+03  0.37963748431E+02  0.53448144137E+02  0.13760267373E+03  0.00000000000E+00 0.  1.
<mgrwt>
<rscale>  2 0.12679823E+03</rscale>
<asrwt>0</asrwt>
<pdfrwt beam="1">  1       21 0.43107217E-01 0.12679823E+03</pdfrwt>
<pdfrwt beam="2">  1       21 0.98219475E-02 0.12679823E+03</pdfrwt>
<totfact> 0.43778305E+05</totfact>
</mgrwt>
</event>
<event>
 4    1  0.5810391E+003  0.1248983E+03  0.7546771E-02  0.1235228E+00
         21   -1    0    0  504  501  0.00000000000E+00  0.00000000000E+00  0.71695204037E+02  0.71695204037E+02  0.00000000000E+00 0. -1.
         21   -1    0    0  503  502 -0.00000000000E+00 -0.00000000000E+00 -0.26069756582E+03  0.26069756582E+03  0.00000000000E+00 0. -1.
         21    1    1    2  503  501 -0.12487740386E+03  0.22869134073E+01 -0.26913207967E+02  0.12776508416E+03  0.00000000000E+00 0. -1.
         21    1    1    2  504  502  0.12487740386E+03 -0.22869134073E+01 -0.16208915381E+03  0.20462768569E+03  0.00000000000E+00 0. -1.
<mgrwt>
<rscale>  2 0.12489834E+03</rscale>
<asrwt>0</asrwt>
<pdfrwt beam="1">  1       21 0.11030031E-01 0.12489834E+03</pdfrwt>
<pdfrwt beam="2">  1       21 0.40107318E-01 0.12489834E+03</pdfrwt>
<totfact> 0.41300617E+05</totfact>
</mgrwt>
</event>
<event>
 4    1  0.5810391E+003  0.1111647E+03  0.7546771E-02  0.1258428E+00
         21   -1    0    0  502  501  0.00000000000E+00  0.00000000000E+00  0.69748116660E+03  0.69748116660E+03  0.00000000000E+00 0.  1.
         21   -1    0    0  503  502 -0.00000000000E+00 -0.00000000000E+00 -0.27589080713E+02  0.27589080713E+02  0.00000000000E+00 0.  1.
         21    1    1    2  503  504 -0.22061371609E+00  0.11116445719E+03  0.11808776610E+03  0.16217985607E+03  0.00000000000E+00 0.  1.
         21    1    1    2  504  501  0.22061371609E+00 -0.11116445719E+03  0.55180431979E+03  0.56289039124E+03  0.00000000000E+00 0.  1.
<mgrwt>
<rscale>  2 0.11116468E+03</rscale>
<asrwt>0</asrwt>
<pdfrwt beam="1">  1       21 0.10730478E+00 0.11116468E+03</pdfrwt>
<pdfrwt beam="2">  1       21 0.42444745E-02 0.11116468E+03</pdfrwt>
<totfact> 0.25200438E+05</totfact>
</mgrwt>
</event>
<event>
 4    1  0.5810391E+003  0.1102004E+03  0.7546771E-02  0.1260199E+00
         21   -1    0    0  503  501  0.00000000000E+00  0.00000000000E+00  0.18945209534E+03  0.18945209534E+03  0.00000000000E+00 0.  1.
         21   -1    0    0  504  502 -0.00000000000E+00 -0.00000000000E+00 -0.10117396853E+03  0.10117396853E+03  0.00000000000E+00 0.  1.
         21    1    1    2  503  502 -0.53369397800E+02 -0.96414898575E+02  0.13210147049E+03  0.17203175228E+03  0.00000000000E+00 0.  1.
         21    1    1    2  504  501  0.53369397800E+02  0.96414898575E+02 -0.43823343681E+02  0.11859431158E+03  0.00000000000E+00 0.  1.
<mgrwt>
<rscale>  2 0.11020039E+03</rscale>
<asrwt>0</asrwt>
<pdfrwt beam="1">  1       21 0.29146476E-01 0.11020039E+03</pdfrwt>
<pdfrwt beam="2">  1       21 0.15565226E-01 0.11020039E+03</pdfrwt>
<totfact> 0.41829121E+05</totfact>
</mgrwt>
</event>
<event>
 4    1  0.5810391E+003  0.1585730E+03  0.7546771E-02  0.1190317E+00
         21   -1    0    0  502  501  0.00000000000E+00  0.00000000000E+00  0.32602408343E+03  0.32602408343E+03  0.00000000000E+00 0. -1.
         21   -1    0    0  504  502 -0.00000000000E+00 -0.00000000000E+00 -0.15294550871E+03  0.15294550871E+03  0.00000000000E+00 0. -1.
         21    1    1    2  503  501 -0.78691664793E+02 -0.13766995278E+03  0.25515421484E+03  0.30041482546E+03  0.00000000000E+00 0. -1.
         21    1    1    2  504  503  0.78691664793E+02  0.13766995278E+03 -0.82075640115E+02  0.17855476669E+03  0.00000000000E+00 0. -1.
<mgrwt>
<rscale>  2 0.15857299E+03</rscale>
<asrwt>0</asrwt>
<pdfrwt beam="1">  1       21 0.50157551E-01 0.15857299E+03</pdfrwt>
<pdfrwt beam="2">  1       21 0.23530078E-01 0.15857299E+03</pdfrwt>
<totfact> 0.65355301E+04</totfact>
</mgrwt>
</event>
<event>
 4    1  0.5810391E+003  0.1133136E+03  0.7546771E-02  0.1254554E+00
         21   -1    0    0  504  501  0.00000000000E+00  0.00000000000E+00  0.75629729531E+02  0.75629729531E+02  0.00000000000E+00 0.  1.
         21   -1    0    0  503  502 -0.00000000000E+00 -0.00000000000E+00 -0.28953817787E+03  0.28953817787E+03  0.00000000000E+00 0.  1.
         21    1    1    2  503  501  0.23695617092E+02 -0.11080830376E+03  0.10474174737E+02  0.11379662028E+03  0.00000000000E+00 0.  1.
         21    1    1    2  504  502 -0.23695617092E+02  0.11080830376E+03 -0.22438262307E+03  0.25137128712E+03  0.00000000000E+00 0.  1.
<mgrwt>
<rscale>  2 0.11331356E+03</rscale>
<asrwt>0</asrwt>
<pdfrwt beam="1">  1       21 0.11635343E-01 0.11331356E+03</pdfrwt>
<pdfrwt beam="2">  1       21 0.44544334E-01 0.11331356E+03</pdfrwt>
<totfact> 0.30498841E+05</totfact>
</mgrwt>
</event>
<event>
 4    1  0.5810391E+003  0.1049568E+03  0.7546771E-02  0.1270205E+00
         21   -1    0    0  503  501  0.00000000000E+00  0.00000000000E+00  0.42835313513E+03  0.42835313513E+03  0.00000000000E+00 0. -1.
         21   -1    0    0  504  502 -0.00000000000E+00 -0.00000000000E+00 -0.80348015435E+02  0.80348015435E+02  0.00000000000E+00 0. -1.
         21    1    1    2  503  502 -0.10495661716E+03 -0.17834897659E+00 -0.35729634937E+02  0.11087168307E+03  0.00000000000E+00 0. -1.
         21    1    1    2  504  501  0.10495661716E+03  0.17834897659E+00  0.38373475463E+03  0.39782946749E+03  0.00000000000E+00 0. -1.
<mgrwt>
<rscale>  2 0.10495677E+03</rscale>
<asrwt>0</asrwt>
<pdfrwt beam="1">  1       21 0.65900481E-01 0.10495677E+03</pdfrwt>
<pdfrwt beam="2">  1       21 0.12361233E-01 0.10495677E+03</pdfrwt>
<totfact> 0.12167494E+05</totfact>
</mgrwt>
</event>
<event>
 4    1  0.5810391E+003  0.1107537E+03  0.7546771E-02  0.1259180E+00
         21   -1    0    0  502  501  0.00000000000E+00  0.00000000000E+00  0.61102964410E+03  0.61102964410E+03  0.00000000000E+00 0. -1.
         21   -1    0    0  503  502 -0.00000000000E+00 -0.00000000000E+00 -0.59613089004E+02  0.59613089004E+02  0.00000000000E+00 0. -1.
         21    1    1    2  503  504  0.49021593460E+02  0.99314019082E+02  0.26228580611E+01  0.11078479316E+03  0.00000000000E+00 0. -1.
         21    1    1    2  504  501 -0.49021593460E+02 -0.99314019082E+02  0.54879369703E+03  0.55985793994E+03  0.00000000000E+00 0. -1.
<mgrwt>
<rscale>  2 0.11075374E+03</rscale>
<asrwt>0</asrwt>
<pdfrwt beam="1">  1       21 0.94004556E-01 0.11075374E+03</pdfrwt>
<pdfrwt beam="2">  1       21 0.91712449E-02 0.11075374E+03</pdfrwt>
<totfact> 0.93053735E+04</totfact>
</mgrwt>
</event>
<event>
 4    1  0.5810391E+003  0.1015418E+03  0.7546771E-02  0.1277087E+00
         21   -1    0    0  503  501  0.00000000000E+00  0.00000000000E+00  0.63070018335E+02  0.63070018335E+02  0.00000000000E+00 0. -1.
         21   -1    0    0  504  502 -0.00000000000E+00 -0.00000000000E+00 -0.42071180232E+03  0.42071180232E+03  0.00000000000E+00 0. -1.
         21    1    1    2  503  502  0.96068322235E+02  0.32887927369E+02 -0.36796326761E+03  0.38171678586E+03  0.00000000000E+00 0. -1.
         21    1    1    2  504  501 -0.96068322235E+02 -0.32887927369E+02  0.10321483615E+02  0.10206503480E+03  0.00000000000E+00 0. -1.
<mgrwt>
<rscale>  2 0.10154181E+03</rscale>
<asrwt>0</asrwt>
<pdfrwt beam="1">  1       21 0.97030792E-02 0.10154181E+03</pdfrwt>
<pdfrwt beam="2">  1       21 0.64724896E-01 0.10154181E+03</pdfrwt>
<totfact> 0.19342210E+05</totfact>
</mgrwt>
</event>
<event>
 4    1  0.5810391E+003  0.1034801E+03  0.7546771E-02  0.1273143E+00
         21   -1    0    0  502  501  0.00000000000E+00  0.00000000000E+00  0.37787987028E+02  0.37787987028E+02  0.00000000000E+00 0.  1.
         21   -1    0    0  504  502 -0.00000000000E+00 -0.00000000000E+00 -0.38315220082E+03  0.38315220082E+03  0.00000000000E+00 0.  1.
         21    1    1    2  503  501  0.10082249052E+03  0.23301595472E+02 -0.65277668994E+02  0.12234914391E+03  0.00000000000E+00 0.  1.
         21    1    1    2  504  503 -0.10082249052E+03 -0.23301595472E+02 -0.28008654479E+03  0.29859104394E+03  0.00000000000E+00 0.  1.
<mgrwt>
<rscale>  2 0.10348014E+03</rscale>
<asrwt>0</asrwt>
<pdfrwt beam="1">  1       21 0.58135367E-02 0.10348014E+03</pdfrwt>
<pdfrwt beam="2">  1       21 0.58946490E-01 0.10348014E+03</pdfrwt>
<totfact> 0.56550816E+05</totfact>
</mgrwt>
</event>
<event>
 4    1  0.5810391E+003  0.1866814E+03  0.7546771E-02  0.1161489E+00
         21   -1    0    0  503  501  0.00000000000E+00  0.00000000000E+00  0.68517168700E+03  0.68517168700E+03  0.00000000000E+00 0. -1.
         21   -1    0    0  504  502 -0.00000000000E+00 -0.00000000000E+00 -0.52489465626E+02  0.52489465626E+02  0.00000000000E+00 0. -1.
         21    1    1    2  503  502  0.52608680547E+02 -0.17911529449E+03  0.38126413973E+03  0.42451420027E+03  0.00000000000E+00 0. -1.
         21    1    1    2  504  501 -0.52608680547E+02  0.17911529449E+03  0.25141808165E+03  0.31314695236E+03  0.00000000000E+00 0. -1.
<mgrwt>
<rscale>  2 0.18668145E+03</rscale>
<asrwt>0</asrwt>
<pdfrwt beam="1">  1       21 0.10541102E+00 0.18668145E+03</pdfrwt>
<pdfrwt beam="2">  1       21 0.80753029E-02 0.18668145E+03</pdfrwt>
<totfact> 0.85672523E+04</totfact>
</mgrwt>
</event>
<event>
 4    1  0.5810391E+003  0.1021750E+03  0.7546771E-02  0.1275788E+00
         21   -1    0    0  503  501  0.00000000000E+00  0.00000000000E+00  0.13199942417E+02  0.13199942417E+02  0.00000000000E+00 0. -1.
         21   -1    0    0  504  502 -0.00000000000E+00 -0.00000000000E+00 -0.85704579769E+03  0.85704579769E+03  0.00000000000E+00 0. -1.
         21    1    1    2  503  502 -0.74990576216E+02  0.69398455227E+02 -0.54281184203E+03  0.55234448305E+03  0.00000000000E+00 0. -1.
         21    1    1    2  504  501  0.74990576216E+02 -0.69398455227E+02 -0.30103401325E+03  0.31790125706E+03  0.00000000000E+00 0. -1.
<mgrwt>
<rscale>  2 0.10217501E+03</rscale>
<asrwt>0</asrwt>
<pdfrwt beam="1">  1       21 0.20307603E-02 0.10217501E+03</pdfrwt>
<pdfrwt beam="2">  1       21 0.13185320E+00 0.10217501E+03</pdfrwt>
<totfact> 0.51110258E+05</totfact>
</mgrwt>
</event>
<event>
 4    1  0.5810391E+003  0.1445211E+03  0.7546771E-02  0.1207372E+00
         21   -1    0    0  503  501  0.00000000000E+00  0.00000000000E+00  0.42074986562E+03  0.42074986562E+03  0.00000000000E+00 0.  1.
         21   -1    0    0  504  502 -0.00000000000E+00 -0.00000000000E+00 -0.57368016335E+02  0.57368016335E+02  0.00000000000E+00 0.  1.
         21    1    1    2  503  502 -0.24588498492E+02 -0.14241405338E+03  0.26942772966E+03  0.30574116237E+03  0.00000000000E+00 0.  1.
         21    1    1    2  504  501  0.24588498492E+02  0.14241405338E+03  0.93954119619E+02  0.17237671958E+03  0.00000000000E+00 0.  1.
<mgrwt>
<rscale>  2 0.14452113E+03</rscale>
<asrwt>0</asrwt>
<pdfrwt beam="1">  1       21 0.64730747E-01 0.14452113E+03</pdfrwt>
<pdfrwt beam="2">  1       21 0.88258489E-02 0.14452113E+03</pdfrwt>
<totfact> 0.22527347E+05</totfact>
</mgrwt>
</event>
<event>
 4    1  0.5810391E+003  0.1554493E+03  0.7546771E-02  0.1193932E+00
         21   -1    0    0  504  501  0.00000000000E+00  0.00000000000E+00  0.14523788024E+04  0.14523788024E+04  0.00000000000E+00 0. -1.
         21   -1    0    0  503  502 -0.00000000000E+00 -0.00000000000E+00 -0.29000208952E+02  0.29000208952E+02  0.00000000000E+00 0.  1.
         21    1    1    2  503  501 -0.30285629607E+02 -0.15247052981E+03  0.11952890234E+04  0.12053548570E+04  0.00000000000E+00 0. -1.
         21    1    1    2  504  502  0.30285629607E+02  0.15247052981E+03  0.22808957002E+03  0.27602415433E+03  0.00000000000E+00 0.  1.
<mgrwt>
<rscale>  2 0.15544929E+03</rscale>
<asrwt>0</asrwt>
<pdfrwt beam="1">  1       21 0.22344284E+00 0.15544929E+03</pdfrwt>
<pdfrwt beam="2">  1       21 0.44615717E-02 0.15544929E+03</pdfrwt>
<totfact> 0.32207189E+04</totfact>
</mgrwt>
</event>
<event>
 4    1  0.5810391E+003  0.1280527E+03  0.7546771E-02  0.1230374E+00
         21   -1    0    0  503  501  0.00000000000E+00  0.00000000000E+00  0.70149550640E+02  0.70149550640E+02  0.00000000000E+00 0.  1.
         21   -1    0    0  504  502 -0.00000000000E+00 -0.00000000000E+00 -0.25308268765E+03  0.25308268765E+03  0.00000000000E+00 0.  1.
         21    1    1    2  503  502  0.35476500521E+02  0.12304032393E+03 -0.46799009863E+02  0.13633653482E+03  0.00000000000E+00 0.  1.
         21    1    1    2  504  501 -0.35476500521E+02 -0.12304032393E+03 -0.13613412715E+03  0.18689570347E+03  0.00000000000E+00 0.  1.
<mgrwt>
<rscale>  2 0.12805274E+03</rscale>
<asrwt>0</asrwt>
<pdfrwt beam="1">  1       21 0.10792239E-01 0.12805274E+03</pdfrwt>
<pdfrwt beam="2">  1       21 0.38935798E-01 0.12805274E+03</pdfrwt>
<totfact> 0.45513895E+05</totfact>
</mgrwt>
</event>
<event>
 4    1  0.5810391E+003  0.1040681E+03  0.7546771E-02  0.1271967E+00
         21   -1    0    0  503  501  0.00000000000E+00  0.00000000000E+00  0.19225834096E+02  0.19225834096E+02  0.00000000000E+00 0.  1.
         21   -1    0    0  504  502 -0.00000000000E+00 -0.00000000000E+00 -0.57511059117E+03  0.57511059117E+03  0.00000000000E+00 0.  1.
         21    1    1    2  503  502  0.97530234513E+02 -0.36304464165E+02 -0.32050464981E+03  0.33697684092E+03  0.00000000000E+00 0.  1.
         21    1    1    2  504  501 -0.97530234513E+02  0.36304464165E+02 -0.23538010726E+03  0.25735958434E+03  0.00000000000E+00 0.  1.
<mgrwt>
<rscale>  2 0.10406806E+03</rscale>
<asrwt>0</asrwt>
<pdfrwt beam="1">  1       21 0.29578211E-02 0.10406806E+03</pdfrwt>
<pdfrwt beam="2">  1       21 0.88478540E-01 0.10406806E+03</pdfrwt>
<totfact> 0.71420791E+05</totfact>
</mgrwt>
</event>
<event>
 4    1  0.5810391E+003  0.1942565E+03  0.7546771E-02  0.1154677E+00
         21   -1    0    0  503  501  0.00000000000E+00  0.00000000000E+00  0.11963662567E+04  0.11963662567E+04  0.00000000000E+00 0. -1.
         21   -1    0    0  504  502 -0.00000000000E+00 -0.00000000000E+00 -0.37356999284E+02  0.37356999284E+02  0.00000000000E+00 0.  1.
         21    1    1    2  503  502  0.18926342657E+03 -0.43760150628E+02  0.82288328966E+03  0.84550133283E+03  0.00000000000E+00 0. -1.
         21    1    1    2  504  501 -0.18926342657E+03  0.43760150628E+02  0.33612596779E+03  0.38822192319E+03  0.00000000000E+00 0.  1.
<mgrwt>
<rscale>  2 0.19425652E+03</rscale>
<asrwt>0</asrwt>
<pdfrwt beam="1">  1       21 0.18405632E+00 0.19425652E+03</pdfrwt>
<pdfrwt beam="2">  1       21 0.57472316E-02 0.19425652E+03</pdfrwt>
<totfact> 0.36218160E+04</totfact>
</mgrwt>
</event>
<event>
 4    1  0.5810391E+003  0.1075128E+03  0.7546771E-02  0.1265246E+00
         21   -1    0    0  504  501  0.00000000000E+00  0.00000000000E+00  0.22270160858E+03  0.22270160858E+03  0.00000000000E+00 0.  1.
         21   -1    0    0  503  502 -0.00000000000E+00 -0.00000000000E+00 -0.81814043538E+02  0.81814043538E+02  0.00000000000E+00 0.  1.
         21    1    1    2  503  501  0.49389919771E+02  0.95496752320E+02  0.16250523400E+03  0.19485108405E+03  0.00000000000E+00 0.  1.
         21    1    1    2  504  502 -0.49389919771E+02 -0.95496752320E+02 -0.21617668955E+02  0.10966456807E+03  0.00000000000E+00 0.  1.
<mgrwt>
<rscale>  2 0.10751276E+03</rscale>
<asrwt>0</asrwt>
<pdfrwt beam="1">  1       21 0.34261786E-01 0.10751276E+03</pdfrwt>
<pdfrwt beam="2">  1       21 0.12586776E-01 0.10751276E+03</pdfrwt>
<totfact> 0.44726350E+05</totfact>
</mgrwt>
</event>
<event>
 4    1  0.5810391E+003  0.1119255E+03  0.7546771E-02  0.1257045E+00
         21   -1    0    0  503  501  0.00000000000E+00  0.00000000000E+00  0.85818896300E+03  0.85818896300E+03  0.00000000000E+00 0. -1.
         21   -1    0    0  501  502 -0.00000000000E+00 -0.00000000000E+00 -0.48629598750E+02  0.48629598750E+02  0.00000000000E+00 0. -1.
         21    1    1    2  503  504  0.79982202506E+02  0.78295423044E+02  0.78408163491E+03  0.79202988339E+03  0.00000000000E+00 0. -1.
         21    1    1    2  504  502 -0.79982202506E+02 -0.78295423044E+02  0.25477729346E+02  0.11478867836E+03  0.00000000000E+00 0. -1.
<mgrwt>
<rscale>  2 0.11192554E+03</rscale>
<asrwt>0</asrwt>
<pdfrwt beam="1">  1       21 0.13202906E+00 0.11192554E+03</pdfrwt>
<pdfrwt beam="2">  1       21 0.74814774E-02 0.11192554E+03</pdfrwt>
<totfact> 0.58686516E+04</totfact>
</mgrwt>
</event>
<event>
 4    1  0.5810391E+003  0.1288516E+03  0.7546771E-02  0.1229170E+00
         21   -1    0    0  504  501  0.00000000000E+00  0.00000000000E+00  0.94145779648E+02  0.94145779648E+02  0.00000000000E+00 0.  1.
         21   -1    0    0  503  502 -0.00000000000E+00 -0.00000000000E+00 -0.17694834166E+03  0.17694834166E+03  0.00000000000E+00 0.  1.
         21    1    1    2  503  501  0.12649073114E+03 -0.24552598324E+02 -0.49274488861E+02  0.13795184088E+03  0.00000000000E+00 0.  1.
         21    1    1    2  504  502 -0.12649073114E+03  0.24552598324E+02 -0.33528073148E+02  0.13314228043E+03  0.00000000000E+00 0.  1.
<mgrwt>
<rscale>  2 0.12885160E+03</rscale>
<asrwt>0</asrwt>
<pdfrwt beam="1">  1       21 0.14483966E-01 0.12885160E+03</pdfrwt>
<pdfrwt beam="2">  1       21 0.27222822E-01 0.12885160E+03</pdfrwt>
<totfact> 0.54169973E+05</totfact>
</mgrwt>
</event>
<event>
 4    1  0.5810391E+003  0.1258854E+03  0.7546771E-02  0.1233692E+00
         21   -1    0    0  503  501  0.00000000000E+00  0.00000000000E+00  0.20843396150E+03  0.20843396150E+03  0.00000000000E+00 0.  1.
         21   -1    0    0  504  502 -0.00000000000E+00 -0.00000000000E+00 -0.12126020615E+03  0.12126020615E+03  0.00000000000E+00 0.  1.
         21    1    1    2  503  502  0.82083079205E+02  0.95443701677E+02 -0.57092089334E+02  0.13822676566E+03  0.00000000000E+00 0.  1.
         21    1    1    2  504  501 -0.82083079205E+02 -0.95443701677E+02  0.14426584469E+03  0.19146740199E+03  0.00000000000E+00 0.  1.
<mgrwt>
<rscale>  2 0.12588539E+03</rscale>
<asrwt>0</asrwt>
<pdfrwt beam="1">  1       21 0.32066763E-01 0.12588539E+03</pdfrwt>
<pdfrwt beam="2">  1       21 0.18655416E-01 0.12588539E+03</pdfrwt>
<totfact> 0.24969878E+05</totfact>
</mgrwt>
</event>
<event>
 4    1  0.5810391E+003  0.1616009E+03  0.7546771E-02  0.1186901E+00
         21   -1    0    0  503  501  0.00000000000E+00  0.00000000000E+00  0.64651242903E+03  0.64651242903E+03  0.00000000000E+00 0.  1.
         21   -1    0    0  504  502 -0.00000000000E+00 -0.00000000000E+00 -0.80099229259E+02  0.80099229259E+02  0.00000000000E+00 0.  1.
         21    1    1    2  503  502  0.63841776687E+02 -0.14845563697E+03  0.53899757591E+03  0.56270172866E+03  0.00000000000E+00 0.  1.
         21    1    1    2  504  501 -0.63841776687E+02  0.14845563697E+03  0.27415623861E+02  0.16390992963E+03  0.00000000000E+00 0.  1.
<mgrwt>
<rscale>  2 0.16160089E+03</rscale>
<asrwt>0</asrwt>
<pdfrwt beam="1">  1       21 0.99463447E-01 0.16160089E+03</pdfrwt>
<pdfrwt beam="2">  1       21 0.12322959E-01 0.16160089E+03</pdfrwt>
<totfact> 0.47297807E+04</totfact>
</mgrwt>
</event>
<event>
 4    1  0.5810391E+003  0.1071508E+03  0.7546771E-02  0.1265939E+00
         21   -1    0    0  502  501  0.00000000000E+00  0.00000000000E+00  0.36693542466E+02  0.36693542466E+02  0.00000000000E+00 0. -1.
         21   -1    0    0  504  502 -0.00000000000E+00 -0.00000000000E+00 -0.74249489840E+03  0.74249489840E+03  0.00000000000E+00 0. -1.
         21    1    1    2  503  501 -0.10627440413E+03 -0.13676767607E+02 -0.56556231322E+02  0.12116067946E+03  0.00000000000E+00 0. -1.
         21    1    1    2  504  503  0.10627440413E+03  0.13676767607E+02 -0.64924512461E+03  0.65802776140E+03  0.00000000000E+00 0. -1.
<mgrwt>
<rscale>  2 0.10715084E+03</rscale>
<asrwt>0</asrwt>
<pdfrwt beam="1">  1       21 0.56451612E-02 0.10715084E+03</pdfrwt>
<pdfrwt beam="2">  1       21 0.11422997E+00 0.10715084E+03</pdfrwt>
<totfact> 0.13507596E+05</totfact>
</mgrwt>
</event>
<event>
 4    1  0.5810391E+003  0.1664009E+03  0.7546771E-02  0.1181654E+00
         21   -1    0    0  503  501  0.00000000000E+00  0.00000000000E+00  0.30326328426E+03  0.30326328426E+03  0.00000000000E+00 0.  1.
         21   -1    0    0  504  502 -0.00000000000E+00 -0.00000000000E+00 -0.16373325458E+03  0.16373325458E+03  0.00000000000E+00 0.  1.
         21    1    1    2  503  502  0.44621913309E+01 -0.16634104998E+03  0.22506491879E+03  0.27989904203E+03  0.00000000000E+00 0.  1.
         21    1    1    2  504  501 -0.44621913309E+01  0.16634104998E+03 -0.85534889115E+02  0.18709749682E+03  0.00000000000E+00 0.  1.
<mgrwt>
<rscale>  2 0.16640089E+03</rscale>
<asrwt>0</asrwt>
<pdfrwt beam="1">  1       21 0.46655890E-01 0.16640089E+03</pdfrwt>
<pdfrwt beam="2">  1       21 0.25189731E-01 0.16640089E+03</pdfrwt>
<totfact> 0.66448109E+04</totfact>
</mgrwt>
</event>
<event>
 4    1  0.5810391E+003  0.1034809E+03  0.7546771E-02  0.1273142E+00
         21   -1    0    0  504  501  0.00000000000E+00  0.00000000000E+00  0.31831953054E+02  0.31831953054E+02  0.00000000000E+00 0.  1.
         21   -1    0    0  503  502 -0.00000000000E+00 -0.00000000000E+00 -0.36561706848E+03  0.36561706848E+03  0.00000000000E+00 0.  1.
         21    1    1    2  503  501 -0.53899479196E+02  0.88335420874E+02 -0.11071676807E+03  0.15154703287E+03  0.00000000000E+00 0.  1.
         21    1    1    2  504  502  0.53899479196E+02 -0.88335420874E+02 -0.22306834736E+03  0.24590198867E+03  0.00000000000E+00 0.  1.
<mgrwt>
<rscale>  2 0.10348092E+03</rscale>
<asrwt>0</asrwt>
<pdfrwt beam="1">  1       21 0.48972234E-02 0.10348092E+03</pdfrwt>
<pdfrwt beam="2">  1       21 0.56248782E-01 0.10348092E+03</pdfrwt>
<totfact> 0.83158472E+05</totfact>
</mgrwt>
</event>
<event>
 4    1  0.5810391E+003  0.1177721E+03  0.7546771E-02  0.1246818E+00
         21   -1    0    0  504  501  0.00000000000E+00  0.00000000000E+00  0.54859220420E+03  0.54859220420E+03  0.00000000000E+00 0. -1.
         21   -1    0    0  503  502 -0.00000000000E+00 -0.00000000000E+00 -0.26446671274E+02  0.26446671274E+02  0.00000000000E+00 0. -1.
         21    1    1    2  503  501 -0.53968822689E+02  0.10467874027E+03  0.32137361803E+03  0.34227368414E+03  0.00000000000E+00 0. -1.
         21    1    1    2  504  502  0.53968822689E+02 -0.10467874027E+03  0.20077191490E+03  0.23276519134E+03  0.00000000000E+00 0. -1.
<mgrwt>
<rscale>  2 0.11777212E+03</rscale>
<asrwt>0</asrwt>
<pdfrwt beam="1">  1       21 0.84398792E-01 0.11777212E+03</pdfrwt>
<pdfrwt beam="2">  1       21 0.40687191E-02 0.11777212E+03</pdfrwt>
<totfact> 0.46974772E+05</totfact>
</mgrwt>
</event>
<event>
 4    1  0.5810391E+003  0.1276593E+03  0.7546771E-02  0.1230971E+00
         21   -1    0    0  504  501  0.00000000000E+00  0.00000000000E+00  0.30315456899E+02  0.30315456899E+02  0.00000000000E+00 0. -1.
         21   -1    0    0  503  502 -0.00000000000E+00 -0.00000000000E+00 -0.55263564420E+03  0.55263564420E+03  0.00000000000E+00 0. -1.
         21    1    1    2  503  501  0.12723217199E+03 -0.10434522380E+02 -0.30927389683E+03  0.33458518812E+03  0.00000000000E+00 0. -1.
         21    1    1    2  504  502 -0.12723217199E+03  0.10434522380E+02 -0.21304629047E+03  0.24836591298E+03  0.00000000000E+00 0. -1.
<mgrwt>
<rscale>  2 0.12765933E+03</rscale>
<asrwt>0</asrwt>
<pdfrwt beam="1">  1       21 0.46639163E-02 0.12765933E+03</pdfrwt>
<pdfrwt beam="2">  1       21 0.85020870E-01 0.12765933E+03</pdfrwt>
<totfact> 0.36745123E+05</totfact>
</mgrwt>
</event>
<event>
 4    1  0.5810391E+003  0.1111898E+03  0.7546771E-02  0.1258382E+00
         21   -1    0    0  503  501  0.00000000000E+00  0.00000000000E+00  0.13116901405E+03  0.13116901405E+03  0.00000000000E+00 0. -1.
         21   -1    0    0  504  502 -0.00000000000E+00 -0.00000000000E+00 -0.10039179798E+03  0.10039179798E+03  0.00000000000E+00 0. -1.
         21    1    1    2  503  502  0.20143805521E+02 -0.10934988183E+03  0.44017306472E+02  0.11958550425E+03  0.00000000000E+00 0. -1.
         21    1    1    2  504  501 -0.20143805521E+02  0.10934988183E+03 -0.13240090402E+02  0.11197530777E+03  0.00000000000E+00 0. -1.
<mgrwt>
<rscale>  2 0.11118979E+03</rscale>
<asrwt>0</asrwt>
<pdfrwt beam="1">  1       21 0.20179848E-01 0.11118979E+03</pdfrwt>
<pdfrwt beam="2">  1       21 0.15444892E-01 0.11118979E+03</pdfrwt>
<totfact> 0.84572828E+05</totfact>
</mgrwt>
</event>
<event>
 4    1  0.5810391E+003  0.2114632E+03  0.7546771E-02  0.1140412E+00
         21   -1    0    0  503  501  0.00000000000E+00  0.00000000000E+00  0.11332007739E+04  0.11332007739E+04  0.00000000000E+00 0. -1.
         21   -1    0    0  501  502 -0.00000000000E+00 -0.00000000000E+00 -0.43705279969E+02  0.43705279969E+02  0.00000000000E+00 0. -1.
         21    1    1    2  503  504  0.82200622240E+02 -0.19483265207E+03  0.72813571489E+03  0.75822049821E+03  0.00000000000E+00 0. -1.
         21    1    1    2  504  502 -0.82200622240E+02  0.19483265207E+03  0.36135977903E+03  0.41868555565E+03  0.00000000000E+00 0. -1.
<mgrwt>
<rscale>  2 0.21146325E+03</rscale>
<asrwt>0</asrwt>
<pdfrwt beam="1">  1       21 0.17433856E+00 0.21146325E+03</pdfrwt>
<pdfrwt beam="2">  1       21 0.67238901E-02 0.21146325E+03</pdfrwt>
<totfact> 0.31877397E+04</totfact>
</mgrwt>
</event>
<event>
 4    1  0.5810391E+003  0.1421095E+03  0.7546771E-02  0.1210518E+00
         21   -1    0    0  502  501  0.00000000000E+00  0.00000000000E+00  0.13550406024E+03  0.13550406024E+03  0.00000000000E+00 0. -1.
         21   -1    0    0  504  502 -0.00000000000E+00 -0.00000000000E+00 -0.34412341836E+03  0.34412341836E+03  0.00000000000E+00 0. -1.
         21    1    1    2  503  501 -0.11917071766E+03  0.77417337850E+02  0.76254078284E+02  0.16127550528E+03  0.00000000000E+00 0. -1.
         21    1    1    2  504  503  0.11917071766E+03 -0.77417337850E+02 -0.28487343641E+03  0.31835197333E+03  0.00000000000E+00 0. -1.
<mgrwt>
<rscale>  2 0.14210948E+03</rscale>
<asrwt>0</asrwt>
<pdfrwt beam="1">  1       21 0.20846779E-01 0.14210948E+03</pdfrwt>
<pdfrwt beam="2">  1       21 0.52942064E-01 0.14210948E+03</pdfrwt>
<totfact> 0.73802280E+04</totfact>
</mgrwt>
</event>
<event>
 4    1  0.5810391E+003  0.1059115E+03  0.7546771E-02  0.1268334E+00
         21   -1    0    0  504  501  0.00000000000E+00  0.00000000000E+00  0.25206760640E+03  0.25206760640E+03  0.00000000000E+00 0.  1.
         21   -1    0    0  501  502 -0.00000000000E+00 -0.00000000000E+00 -0.72121569210E+02  0.72121569210E+02  0.00000000000E+00 0.  1.
         21    1    1    2  503  502  0.10578087468E+03  0.52585990363E+01 -0.10338934654E+02  0.10641494201E+03  0.00000000000E+00 0.  1.
         21    1    1    2  504  503 -0.10578087468E+03 -0.52585990363E+01  0.19028497185E+03  0.21777423361E+03  0.00000000000E+00 0.  1.
<mgrwt>
<rscale>  2 0.10591150E+03</rscale>
<asrwt>0</asrwt>
<pdfrwt beam="1">  1       21 0.38779631E-01 0.10591150E+03</pdfrwt>
<pdfrwt beam="2">  1       21 0.11095626E-01 0.10591150E+03</pdfrwt>
<totfact> 0.43790983E+05</totfact>
</mgrwt>
</event>
<event>
 4    1  0.5810391E+003  0.1419720E+03  0.7546771E-02  0.1210700E+00
         21   -1    0    0  504  501  0.00000000000E+00  0.00000000000E+00  0.78598176147E+02  0.78598176147E+02  0.00000000000E+00 0.  1.
         21   -1    0    0  503  502 -0.00000000000E+00 -0.00000000000E+00 -0.50984935892E+03  0.50984935892E+03  0.00000000000E+00 0.  1.
         21    1    1    2  503  501  0.14288213469E+02  0.14125120490E+03 -0.81989975869E+01  0.14220857742E+03  0.00000000000E+00 0.  1.
         21    1    1    2  504  502 -0.14288213469E+02 -0.14125120490E+03 -0.42305218518E+03  0.44623895764E+03  0.00000000000E+00 0.  1.
<mgrwt>
<rscale>  2 0.14197203E+03</rscale>
<asrwt>0</asrwt>
<pdfrwt beam="1">  1       21 0.12092027E-01 0.14197203E+03</pdfrwt>
<pdfrwt beam="2">  1       21 0.78438364E-01 0.14197203E+03</pdfrwt>
<totfact> 0.85045986E+04</totfact>
</mgrwt>
</event>
<event>
 4    1  0.5810391E+003  0.1073414E+03  0.7546771E-02  0.1265574E+00
         21   -1    0    0  503  501  0.00000000000E+00  0.00000000000E+00  0.34496821112E+02  0.34496821112E+02  0.00000000000E+00 0. -1.
         21   -1    0    0  504  502 -0.00000000000E+00 -0.00000000000E+00 -0.33610743292E+03  0.33610743292E+03  0.00000000000E+00 0. -1.
         21    1    1    2  503  502  0.56498355546E+02 -0.91269399484E+02 -0.16545513354E+03  0.19722466549E+03  0.00000000000E+00 0. -1.
         21    1    1    2  504  501 -0.56498355546E+02  0.91269399484E+02 -0.13615547827E+03  0.17337958855E+03  0.00000000000E+00 0. -1.
<mgrwt>
<rscale>  2 0.10734136E+03</rscale>
<asrwt>0</asrwt>
<pdfrwt beam="1">  1       21 0.53072032E-02 0.10734136E+03</pdfrwt>
<pdfrwt beam="2">  1       21 0.51708837E-01 0.10734136E+03</pdfrwt>
<totfact> 0.86587424E+05</totfact>
</mgrwt>
</event>
<event>
 4    1  0.5810391E+003  0.1162726E+03  0.7546771E-02  0.1249376E+00
         21   -1    0    0  502  501  0.00000000000E+00  0.00000000000E+00  0.22043005523E+03  0.22043005523E+03  0.00000000000E+00 0.  1.
         21   -1    0    0  503  502 -0.00000000000E+00 -0.00000000000E+00 -0.10777779959E+04  0.10777779959E+04  0.00000000000E+00 0. -1.
         21    1    1    2  503  504  0.76468284847E+02 -0.87589426135E+02 -0.10590387030E+04  0.10654024031E+04  0.00000000000E+00 0. -1.
         21    1    1    2  504  501 -0.76468284847E+02  0.87589426135E+02  0.20169076230E+03  0.23280564803E+03  0.00000000000E+00 0.  1.
<mgrwt>
<rscale>  2 0.11627255E+03</rscale>
<asrwt>0</asrwt>
<pdfrwt beam="1">  1       21 0.33912316E-01 0.11627255E+03</pdfrwt>
<pdfrwt beam="2">  1       21 0.16581200E+00 0.11627255E+03</pdfrwt>
<totfact> 0.20959841E+03</totfact>
</mgrwt>
</event>
<event>
 4    1  0.5810391E+003  0.1430775E+03  0.7546771E-02  0.1209247E+00
         21   -1    0    0  503  501  0.00000000000E+00  0.00000000000E+00  0.10576985080E+03  0.10576985080E+03  0.00000000000E+00 0. -1.
         21   -1    0    0  504  502 -0.00000000000E+00 -0.00000000000E+00 -0.19560314467E+03  0.19560314467E+03  0.00000000000E+00 0. -1.
         21    1    1    2  503  502 -0.22753908510E+02 -0.14125662142E+03 -0.29457819061E+02  0.14607852871E+03  0.00000000000E+00 0. -1.
         21    1    1    2  504  501  0.22753908510E+02  0.14125662142E+03 -0.60375474800E+02  0.15529446676E+03  0.00000000000E+00 0. -1.
<mgrwt>
<rscale>  2 0.14307751E+03</rscale>
<asrwt>0</asrwt>
<pdfrwt beam="1">  1       21 0.16272285E-01 0.14307751E+03</pdfrwt>
<pdfrwt beam="2">  1       21 0.30092791E-01 0.14307751E+03</pdfrwt>
<totfact> 0.36143083E+05</totfact>
</mgrwt>
</event>
<event>
 4    1  0.5810391E+003  0.1142448E+03  0.7546771E-02  0.1252905E+00
         21   -1    0    0  504  501  0.00000000000E+00  0.00000000000E+00  0.18644430268E+03  0.18644430268E+03  0.00000000000E+00 0. -1.
         21   -1    0    0  503  502 -0.00000000000E+00 -0.00000000000E+00 -0.88300307206E+02  0.88300307206E+02  0.00000000000E+00 0. -1.
         21    1    1    2  503  501  0.79019280545E+02 -0.82509508200E+02  0.11160346381E+03  0.15970973287E+03  0.00000000000E+00 0. -1.
         21    1    1    2  504  502 -0.79019280545E+02  0.82509508200E+02 -0.13459468334E+02  0.11503487701E+03  0.00000000000E+00 0. -1.
<mgrwt>
<rscale>  2 0.11424476E+03</rscale>
<asrwt>0</asrwt>
<pdfrwt beam="1">  1       21 0.28683739E-01 0.11424476E+03</pdfrwt>
<pdfrwt beam="2">  1       21 0.13584663E-01 0.11424476E+03</pdfrwt>
<totfact> 0.55021954E+05</totfact>
</mgrwt>
</event>
<event>
 4    1  0.5810391E+003  0.1970210E+03  0.7546771E-02  0.1152277E+00
         21   -1    0    0  504  501  0.00000000000E+00  0.00000000000E+00  0.75672592235E+02  0.75672592235E+02  0.00000000000E+00 0. -1.
         21   -1    0    0  503  502 -0.00000000000E+00 -0.00000000000E+00 -0.78286730664E+03  0.78286730664E+03  0.00000000000E+00 0. -1.
         21    1    1    2  503  501  0.14237846068E+03  0.13618246888E+03 -0.60564972067E+03  0.63689000231E+03  0.00000000000E+00 0. -1.
         21    1    1    2  504  502 -0.14237846068E+03 -0.13618246888E+03 -0.10154499374E+03  0.22164989657E+03  0.00000000000E+00 0. -1.
<mgrwt>
<rscale>  2 0.19702104E+03</rscale>
<asrwt>0</asrwt>
<pdfrwt beam="1">  1       21 0.11641937E-01 0.19702104E+03</pdfrwt>
<pdfrwt beam="2">  1       21 0.12044112E+00 0.19702104E+03</pdfrwt>
<totfact> 0.32335167E+04</totfact>
</mgrwt>
</event>
<event>
 4    1  0.5810391E+003  0.1284681E+03  0.7546771E-02  0.1229747E+00
         21   -1    0    0  503  501  0.00000000000E+00  0.00000000000E+00  0.31789850965E+03  0.31789850965E+03  0.00000000000E+00 0. -1.
         21   -1    0    0  504  502 -0.00000000000E+00 -0.00000000000E+00 -0.99808567720E+02  0.99808567720E+02  0.00000000000E+00 0. -1.
         21    1    1    2  503  502  0.12829098856E+03  0.67430919097E+01 -0.35629395062E+02  0.13331729380E+03  0.00000000000E+00 0. -1.
         21    1    1    2  504  501 -0.12829098856E+03 -0.67430919097E+01  0.25371933699E+03  0.28438978357E+03  0.00000000000E+00 0. -1.
<mgrwt>
<rscale>  2 0.12846808E+03</rscale>
<asrwt>0</asrwt>
<pdfrwt beam="1">  1       21 0.48907463E-01 0.12846808E+03</pdfrwt>
<pdfrwt beam="2">  1       21 0.15355164E-01 0.12846808E+03</pdfrwt>
<totfact> 0.15309979E+05</totfact>
</mgrwt>
</event>
<event>
 4    1  0.5810391E+003  0.1285991E+03  0.7546771E-02  0.1229549E+00
         21   -1    0    0  504  501  0.00000000000E+00  0.00000000000E+00  0.12313259024E+04  0.12313259024E+04  0.00000000000E+00 0. -1.
         21   -1    0    0  501  502 -0.00000000000E+00 -0.00000000000E+00 -0.18584812401E+02  0.18584812401E+02  0.00000000000E+00 0. -1.
         21    1    1    2  503  502 -0.12327711261E+03  0.36612682447E+02  0.27726048313E+03  0.30563231262E+03  0.00000000000E+00 0. -1.
         21    1    1    2  504  503  0.12327711261E+03 -0.36612682447E+02  0.93548060692E+03  0.94427840223E+03  0.00000000000E+00 0. -1.
<mgrwt>
<rscale>  2 0.12859913E+03</rscale>
<asrwt>0</asrwt>
<pdfrwt beam="1">  1       21 0.18943469E+00 0.12859913E+03</pdfrwt>
<pdfrwt beam="2">  1       21 0.28592029E-02 0.12859913E+03</pdfrwt>
<totfact> 0.11181698E+05</totfact>
</mgrwt>
</event>
<event>
 4    1  0.5810391E+003  0.1146650E+03  0.7546771E-02  0.1252167E+00
         21   -1    0    0  504  501  0.00000000000E+00  0.00000000000E+00  0.11633793366E+03  0.11633793366E+03  0.00000000000E+00 0. -1.
         21   -1    0    0  503  502 -0.00000000000E+00 -0.00000000000E+00 -0.12859018148E+03  0.12859018148E+03  0.00000000000E+00 0. -1.
         21    1    1    2  503  501 -0.50281750682E+01 -0.11455465540E+03  0.36493234853E+02  0.12033207307E+03  0.00000000000E+00 0. -1.
         21    1    1    2  504  502  0.50281750682E+01  0.11455465540E+03 -0.48745482678E+02  0.12459604207E+03  0.00000000000E+00 0. -1.
<mgrwt>
<rscale>  2 0.11466495E+03</rscale>
<asrwt>0</asrwt>
<pdfrwt beam="1">  1       21 0.17898144E-01 0.11466495E+03</pdfrwt>
<pdfrwt beam="2">  1       21 0.19783105E-01 0.11466495E+03</pdfrwt>
<totfact> 0.67169249E+05</totfact>
</mgrwt>
</event>
<event>
 4    1  0.5810391E+003  0.1681379E+03  0.7546771E-02  0.1179804E+00
         21   -1    0    0  503  501  0.00000000000E+00  0.00000000000E+00  0.55457273628E+02  0.55457273628E+02  0.00000000000E+00 0.  1.
         21   -1    0    0  504  502 -0.00000000000E+00 -0.00000000000E+00 -0.64078706466E+03  0.64078706466E+03  0.00000000000E+00 0. -1.
         21    1    1    2  503  502  0.16813142993E+03 -0.14720113617E+01 -0.45007841453E+03  0.48045907607E+03  0.00000000000E+00 0. -1.
         21    1    1    2  504  501 -0.16813142993E+03  0.14720113617E+01 -0.13525137650E+03  0.21578526223E+03  0.00000000000E+00 0.  1.
<mgrwt>
<rscale>  2 0.16813787E+03</rscale>
<asrwt>0</asrwt>
<pdfrwt beam="1">  1       21 0.85318880E-02 0.16813787E+03</pdfrwt>
<pdfrwt beam="2">  1       21 0.98582628E-01 0.16813787E+03</pdfrwt>
<totfact> 0.92045630E+04</totfact>
</mgrwt>
</event>
<event>
 4    1  0.5810391E+003  0.1165822E+03  0.7546771E-02  0.1248844E+00
         21   -1    0    0  503  501  0.00000000000E+00  0.00000000000E+00  0.51745586490E+03  0.51745586490E+03  0.00000000000E+00 0. -1.
         21   -1    0    0  504  502 -0.00000000000E+00 -0.00000000000E+00 -0.29938535700E+02  0.29938535700E+02  0.00000000000E+00 0.  1.
         21    1    1    2  503  502 -0.19775546217E+02  0.11489275186E+03  0.33962080631E+03  0.35907340299E+03  0.00000000000E+00 0. -1.
         21    1    1    2  504  501  0.19775546217E+02 -0.11489275186E+03  0.14789652289E+03  0.18832099761E+03  0.00000000000E+00 0.  1.
<mgrwt>
<rscale>  2 0.11658223E+03</rscale>
<asrwt>0</asrwt>
<pdfrwt beam="1">  1       21 0.79608588E-01 0.11658223E+03</pdfrwt>
<pdfrwt beam="2">  1       21 0.46059289E-02 0.11658223E+03</pdfrwt>
<totfact> 0.43563747E+05</totfact>
</mgrwt>
</event>
<event>
 4    1  0.5810391E+003  0.1211532E+03  0.7546771E-02  0.1241207E+00
         21   -1    0    0  502  501  0.00000000000E+00  0.00000000000E+00  0.42364796630E+03  0.42364796630E+03  0.00000000000E+00 0. -1.
         21   -1    0    0  503  502 -0.00000000000E+00 -0.00000000000E+00 -0.43953265847E+02  0.43953265847E+02  0.00000000000E+00 0. -1.
         21    1    1    2  503  504 -0.11867559453E+03 -0.24376099473E+02  0.82265251191E+02  0.14644337649E+03  0.00000000000E+00 0. -1.
         21    1    1    2  504  501  0.11867559453E+03  0.24376099473E+02  0.29742944926E+03  0.32115785566E+03  0.00000000000E+00 0. -1.
<mgrwt>
<rscale>  2 0.12115317E+03</rscale>
<asrwt>0</asrwt>
<pdfrwt beam="1">  1       21 0.65176608E-01 0.12115317E+03</pdfrwt>
<pdfrwt beam="2">  1       21 0.67620412E-02 0.12115317E+03</pdfrwt>
<totfact> 0.35286041E+05</totfact>
</mgrwt>
</event>
<event>
 4    1  0.5810391E+003  0.1091332E+03  0.7546771E-02  0.1262184E+00
         21   -1    0    0  503  501  0.00000000000E+00  0.00000000000E+00  0.33941854130E+02  0.33941854130E+02  0.00000000000E+00 0. -1.
         21   -1    0    0  501  502 -0.00000000000E+00 -0.00000000000E+00 -0.11119350787E+04  0.11119350787E+04  0.00000000000E+00 0. -1.
         21    1    1    2  503  504 -0.89419025060E+02  0.62564257087E+02 -0.65003697417E+02  0.12702570207E+03  0.00000000000E+00 0. -1.
         21    1    1    2  504  502  0.89419025060E+02 -0.62564257087E+02 -0.10129895271E+04  0.10188512307E+04  0.00000000000E+00 0. -1.
<mgrwt>
<rscale>  2 0.10913317E+03</rscale>
<asrwt>0</asrwt>
<pdfrwt beam="1">  1       21 0.52218240E-02 0.10913317E+03</pdfrwt>
<pdfrwt beam="2">  1       21 0.17106692E+00 0.10913317E+03</pdfrwt>
<totfact> 0.55416393E+04</totfact>
</mgrwt>
</event>
<event>
 4    1  0.5810391E+003  0.1219323E+03  0.7546771E-02  0.1239943E+00
         21   -1    0    0  504  501  0.00000000000E+00  0.00000000000E+00  0.86051841879E+02  0.86051841879E+02  0.00000000000E+00 0.  1.
         21   -1    0    0  503  502 -0.00000000000E+00 -0.00000000000E+00 -0.17289606772E+03  0.17289606772E+03  0.00000000000E+00 0. -1.
         21    1    1    2  503  501 -0.10378718760E+03  0.63997642099E+02 -0.39974920560E+02  0.12831785838E+03  0.00000000000E+00 0.  1.
         21    1    1    2  504  502  0.10378718760E+03 -0.63997642099E+02 -0.46869305285E+02  0.13063005123E+03  0.00000000000E+00 0. -1.
<mgrwt>
<rscale>  2 0.12193227E+03</rscale>
<asrwt>0</asrwt>
<pdfrwt beam="1">  1       21 0.13238745E-01 0.12193227E+03</pdfrwt>
<pdfrwt beam="2">  1       21 0.26599395E-01 0.12193227E+03</pdfrwt>
<totfact> 0.66507894E+05</totfact>
</mgrwt>
</event>
<event>
 4    1  0.5810391E+003  0.2039619E+03  0.7546771E-02  0.1146439E+00
         21   -1    0    0  504  501  0.00000000000E+00  0.00000000000E+00  0.38536120938E+03  0.38536120938E+03  0.00000000000E+00 0. -1.
         21   -1    0    0  503  502 -0.00000000000E+00 -0.00000000000E+00 -0.11545251097E+03  0.11545251097E+03  0.00000000000E+00 0. -1.
         21    1    1    2  503  501 -0.15778701085E+03 -0.12924288114E+03  0.19877977557E+03  0.28480495483E+03  0.00000000000E+00 0. -1.
         21    1    1    2  504  502  0.15778701085E+03  0.12924288114E+03  0.71128922835E+02  0.21600876552E+03  0.00000000000E+00 0. -1.
<mgrwt>
<rscale>  2 0.20396192E+03</rscale>
<asrwt>0</asrwt>
<pdfrwt beam="1">  1       21 0.59286339E-01 0.20396192E+03</pdfrwt>
<pdfrwt beam="2">  1       21 0.17761925E-01 0.20396192E+03</pdfrwt>
<totfact> 0.76120246E+04</totfact>
</mgrwt>
</event>
<event>
 4    1  0.5810391E+003  0.1154563E+03  0.7546771E-02  0.1250787E+00
         21   -1    0    0  504  501  0.00000000000E+00  0.00000000000E+00  0.22333989666E+03  0.22333989666E+03  0.00000000000E+00 0. -1.
         21   -1    0    0  503  502 -0.00000000000E+00 -0.00000000000E+00 -0.79493501761E+02  0.79493501761E+02  0.00000000000E+00 0. -1.
         21    1    1    2  503  501 -0.10957585757E+03 -0.36376911413E+02 -0.36605719154E+01  0.11551427632E+03  0.00000000000E+00 0. -1.
         21    1    1    2  504  502  0.10957585757E+03  0.36376911413E+02  0.14750696682E+03  0.18731912211E+03  0.00000000000E+00 0. -1.
<mgrwt>
<rscale>  2 0.11545626E+03</rscale>
<asrwt>0</asrwt>
<pdfrwt beam="1">  1       21 0.34359984E-01 0.11545626E+03</pdfrwt>
<pdfrwt beam="2">  1       21 0.12229770E-01 0.11545626E+03</pdfrwt>
<totfact> 0.46767846E+05</totfact>
</mgrwt>
</event>
<event>
 4    1  0.5810391E+003  0.1108441E+03  0.7546771E-02  0.1259015E+00
         21   -1    0    0  503  501  0.00000000000E+00  0.00000000000E+00  0.95237751054E+02  0.95237751054E+02  0.00000000000E+00 0.  1.
         21   -1    0    0  504  502 -0.00000000000E+00 -0.00000000000E+00 -0.14056351962E+03  0.14056351962E+03  0.00000000000E+00 0.  1.
         21    1    1    2  503  502 -0.17398018238E+01 -0.11083042359E+03 -0.56467727888E+02  0.12439860930E+03  0.00000000000E+00 0.  1.
         21    1    1    2  504  501  0.17398018238E+01  0.11083042359E+03  0.11141959323E+02  0.11140266137E+03  0.00000000000E+00 0.  1.
<mgrwt>
<rscale>  2 0.11084408E+03</rscale>
<asrwt>0</asrwt>
<pdfrwt beam="1">  1       21 0.14651962E-01 0.11084408E+03</pdfrwt>
<pdfrwt beam="2">  1       21 0.21625157E-01 0.11084408E+03</pdfrwt>
<totfact> 0.81805605E+05</totfact>
</mgrwt>
</event>
<event>
 4    1  0.5810391E+003  0.1253379E+03  0.7546771E-02  0.1234542E+00
         21   -1    0    0  504  501  0.00000000000E+00  0.00000000000E+00  0.78883767048E+03  0.78883767048E+03  0.00000000000E+00 0. -1.
         21   -1    0    0  501  502 -0.00000000000E+00 -0.00000000000E+00 -0.20039372744E+02  0.20039372744E+02  0.00000000000E+00 0. -1.
         21    1    1    2  503  502 -0.12287866449E+03 -0.24706904460E+02  0.35252011907E+03  0.37413905391E+03  0.00000000000E+00 0. -1.
         21    1    1    2  504  503  0.12287866449E+03  0.24706904460E+02  0.41627817867E+03  0.43473798931E+03  0.00000000000E+00 0. -1.
<mgrwt>
<rscale>  2 0.12533793E+03</rscale>
<asrwt>0</asrwt>
<pdfrwt beam="1">  1       21 0.12135962E+00 0.12533793E+03</pdfrwt>
<pdfrwt beam="2">  1       21 0.30829810E-02 0.12533793E+03</pdfrwt>
<totfact> 0.31653628E+05</totfact>
</mgrwt>
</event>
<event>
 4    1  0.5810391E+003  0.1119559E+03  0.7546771E-02  0.1256990E+00
         21   -1    0    0  503  501  0.00000000000E+00  0.00000000000E+00  0.27737206128E+02  0.27737206128E+02  0.00000000000E+00 0.  1.
         21   -1    0    0  504  502 -0.00000000000E+00 -0.00000000000E+00 -0.51002399515E+03  0.51002399515E+03  0.00000000000E+00 0.  1.
         21    1    1    2  503  502  0.14584540150E+02  0.11100182972E+03 -0.33192254760E+03  0.35029515072E+03  0.00000000000E+00 0.  1.
         21    1    1    2  504  501 -0.14584540150E+02 -0.11100182972E+03 -0.15036424142E+03  0.18746605056E+03  0.00000000000E+00 0.  1.
<mgrwt>
<rscale>  2 0.11195586E+03</rscale>
<asrwt>0</asrwt>
<pdfrwt beam="1">  1       21 0.42672629E-02 0.11195586E+03</pdfrwt>
<pdfrwt beam="2">  1       21 0.78465222E-01 0.11195586E+03</pdfrwt>
<totfact> 0.51115484E+05</totfact>
</mgrwt>
</event>
<event>
 4    1  0.5810391E+003  0.1060847E+03  0.7546771E-02  0.1267997E+00
         21   -1    0    0  503  501  0.00000000000E+00  0.00000000000E+00  0.17761715962E+03  0.17761715962E+03  0.00000000000E+00 0. -1.
         21   -1    0    0  504  502 -0.00000000000E+00 -0.00000000000E+00 -0.70419175705E+02  0.70419175705E+02  0.00000000000E+00 0. -1.
         21    1    1    2  503  502 -0.10094154833E+03  0.32630918714E+02  0.14335321823E+02  0.10704893501E+03  0.00000000000E+00 0. -1.
         21    1    1    2  504  501  0.10094154833E+03 -0.32630918714E+02  0.92862662096E+02  0.14098740031E+03  0.00000000000E+00 0. -1.
<mgrwt>
<rscale>  2 0.10608474E+03</rscale>
<asrwt>0</asrwt>
<pdfrwt beam="1">  1       21 0.27325717E-01 0.10608474E+03</pdfrwt>
<pdfrwt beam="2">  1       21 0.10833719E-01 0.10608474E+03</pdfrwt>
<totfact> 0.89972371E+05</totfact>
</mgrwt>
</event>
<event>
 4    1  0.5810391E+003  0.1248447E+03  0.7546771E-02  0.1235312E+00
         21   -1    0    0  502  501  0.00000000000E+00  0.00000000000E+00  0.11824108130E+04  0.11824108130E+04  0.00000000000E+00 0. -1.
         21   -1    0    0  504  502 -0.00000000000E+00 -0.00000000000E+00 -0.34789684434E+03  0.34789684434E+03  0.00000000000E+00 0.  1.
         21    1    1    2  503  501 -0.36700999531E+02 -0.11932829905E+03  0.11677751016E+04  0.11744296037E+04  0.00000000000E+00 0. -1.
         21    1    1    2  504  503  0.36700999531E+02  0.11932829905E+03 -0.33326113290E+03  0.35587805359E+03  0.00000000000E+00 0.  1.
<mgrwt>
<rscale>  2 0.12484473E+03</rscale>
<asrwt>0</asrwt>
<pdfrwt beam="1">  1       21 0.18190935E+00 0.12484473E+03</pdfrwt>
<pdfrwt beam="2">  1       21 0.53522592E-01 0.12484473E+03</pdfrwt>
<totfact> 0.64100548E+02</totfact>
</mgrwt>
</event>
<event>
 4    1  0.5810391E+003  0.1009978E+03  0.7546771E-02  0.1278212E+00
         21   -1    0    0  504  501  0.00000000000E+00  0.00000000000E+00  0.40808835992E+02  0.40808835992E+02  0.00000000000E+00 0. -1.
         21   -1    0    0  503  502 -0.00000000000E+00 -0.00000000000E+00 -0.32997849812E+03  0.32997849812E+03  0.00000000000E+00 0. -1.
         21    1    1    2  503  501 -0.74291651738E+02 -0.68420108153E+02 -0.23588011235E+03  0.25659303989E+03  0.00000000000E+00 0. -1.
         21    1    1    2  504  502  0.74291651738E+02  0.68420108153E+02 -0.53289549781E+02  0.11419429423E+03  0.00000000000E+00 0. -1.
<mgrwt>
<rscale>  2 0.10099783E+03</rscale>
<asrwt>0</asrwt>
<pdfrwt beam="1">  1       21 0.62782825E-02 0.10099783E+03</pdfrwt>
<pdfrwt beam="2">  1       21 0.50765922E-01 0.10099783E+03</pdfrwt>
<totfact> 0.67755544E+05</totfact>
</mgrwt>
</event>
<event>
 4    1  0.5810391E+003  0.1331494E+03  0.7546771E-02  0.1222856E+00
         21   -1    0    0  502  501  0.00000000000E+00  0.00000000000E+00  0.11238069279E+04  0.11238069279E+04  0.00000000000E+00 0. -1.
         21   -1    0    0  503  502 -0.00000000000E+00 -0.00000000000E+00 -0.78427824969E+02  0.78427824969E+02  0.00000000000E+00 0.  1.
         21    1    1    2  503  504  0.10390184661E+03  0.83265609375E+02 -0.14580166624E+02  0.13394527499E+03  0.00000000000E+00 0.  1.
         21    1    1    2  504  501 -0.10390184661E+03 -0.83265609375E+02  0.10599592696E+04  0.10682894779E+04  0.00000000000E+00 0. -1.
<mgrwt>
<rscale>  2 0.13314937E+03</rscale>
<asrwt>0</asrwt>
<pdfrwt beam="1">  1       21 0.17289336E+00 0.13314937E+03</pdfrwt>
<pdfrwt beam="2">  1       21 0.12065820E-01 0.13314937E+03</pdfrwt>
<totfact> 0.12452220E+04</totfact>
</mgrwt>
</event>
<event>
 4    1  0.5810391E+003  0.1245883E+03  0.7546771E-02  0.1235714E+00
         21   -1    0    0  503  501  0.00000000000E+00  0.00000000000E+00  0.11851796590E+03  0.11851796590E+03  0.00000000000E+00 0.  1.
         21   -1    0    0  504  502 -0.00000000000E+00 -0.00000000000E+00 -0.17036443054E+03  0.17036443054E+03  0.00000000000E+00 0. -1.
         21    1    1    2  503  502  0.12268116712E+03  0.21715862119E+02  0.43534625421E+02  0.13197541834E+03  0.00000000000E+00 0.  1.
         21    1    1    2  504  501 -0.12268116712E+03 -0.21715862119E+02 -0.95381090059E+02  0.15690697810E+03  0.00000000000E+00 0. -1.
<mgrwt>
<rscale>  2 0.12458831E+03</rscale>
<asrwt>0</asrwt>
<pdfrwt beam="1">  1       21 0.18233533E-01 0.12458831E+03</pdfrwt>
<pdfrwt beam="2">  1       21 0.26209912E-01 0.12458831E+03</pdfrwt>
<totfact> 0.38360174E+05</totfact>
</mgrwt>
</event>
<event>
 4    1  0.5810391E+003  0.1037045E+03  0.7546771E-02  0.1272693E+00
         21   -1    0    0  504  501  0.00000000000E+00  0.00000000000E+00  0.34055908603E+03  0.34055908603E+03  0.00000000000E+00 0. -1.
         21   -1    0    0  503  502 -0.00000000000E+00 -0.00000000000E+00 -0.33602356692E+02  0.33602356692E+02  0.00000000000E+00 0. -1.
         21    1    1    2  503  501  0.81296547405E+02 -0.64385554076E+02  0.19938176289E+03  0.22473921679E+03  0.00000000000E+00 0. -1.
         21    1    1    2  504  502 -0.81296547405E+02  0.64385554076E+02  0.10757496645E+03  0.14942222592E+03  0.00000000000E+00 0. -1.
<mgrwt>
<rscale>  2 0.10370452E+03</rscale>
<asrwt>0</asrwt>
<pdfrwt beam="1">  1       21 0.52393703E-01 0.10370452E+03</pdfrwt>
<pdfrwt beam="2">  1       21 0.51695936E-02 0.10370452E+03</pdfrwt>
<totfact> 0.88032415E+05</totfact>
</mgrwt>
</event>
<event>
 4    1  0.5810391E+003  0.1117050E+03  0.7546771E-02  0.1257445E+00
         21   -1    0    0  504  501  0.00000000000E+00  0.00000000000E+00  0.24793003874E+02  0.24793003874E+02  0.00000000000E+00 0.  1.
         21   -1    0    0  503  502 -0.00000000000E+00 -0.00000000000E+00 -0.86058026633E+03  0.86058026633E+03  0.00000000000E+00 0.  1.
         21    1    1    2  503  501 -0.11066296049E+03 -0.15222211338E+02 -0.13265201435E+03  0.17342019332E+03  0.00000000000E+00 0.  1.
         21    1    1    2  504  502  0.11066296049E+03  0.15222211338E+02 -0.70313524811E+03  0.71195307688E+03  0.00000000000E+00 0.  1.
<mgrwt>
<rscale>  2 0.11170500E+03</rscale>
<asrwt>0</asrwt>
<pdfrwt beam="1">  1       21 0.38143080E-02 0.11170500E+03</pdfrwt>
<pdfrwt beam="2">  1       21 0.13239697E+00 0.11170500E+03</pdfrwt>
<totfact> 0.18076069E+05</totfact>
</mgrwt>
</event>
<event>
 4    1  0.5810391E+003  0.1206656E+03  0.7546771E-02  0.1242003E+00
         21   -1    0    0  504  501  0.00000000000E+00  0.00000000000E+00  0.22669378751E+03  0.22669378751E+03  0.00000000000E+00 0. -1.
         21   -1    0    0  501  502 -0.00000000000E+00 -0.00000000000E+00 -0.75740130821E+02  0.75740130821E+02  0.00000000000E+00 0.  1.
         21    1    1    2  503  502  0.86120714853E+02  0.84518711065E+02  0.16523695283E+02  0.12179171792E+03  0.00000000000E+00 0.  1.
         21    1    1    2  504  503 -0.86120714853E+02 -0.84518711065E+02  0.13442996140E+03  0.18064220041E+03  0.00000000000E+00 0. -1.
<mgrwt>
<rscale>  2 0.12066561E+03</rscale>
<asrwt>0</asrwt>
<pdfrwt beam="1">  1       21 0.34875967E-01 0.12066561E+03</pdfrwt>
<pdfrwt beam="2">  1       21 0.11652328E-01 0.12066561E+03</pdfrwt>
<totfact> 0.49454491E+05</totfact>
</mgrwt>
</event>
<event>
 4    1  0.5810391E+003  0.1072630E+03  0.7546771E-02  0.1265724E+00
         21   -1    0    0  504  501  0.00000000000E+00  0.00000000000E+00  0.91958661238E+02  0.91958661238E+02  0.00000000000E+00 0.  1.
         21   -1    0    0  503  502 -0.00000000000E+00 -0.00000000000E+00 -0.26917559089E+03  0.26917559089E+03  0.00000000000E+00 0.  1.
         21    1    1    2  503  501  0.10661991445E+03 -0.11728105871E+02  0.43488949684E+02  0.11574386968E+03  0.00000000000E+00 0.  1.
         21    1    1    2  504  502 -0.10661991445E+03  0.11728105871E+02 -0.22070587934E+03  0.24539038245E+03  0.00000000000E+00 0.  1.
<mgrwt>
<rscale>  2 0.10726302E+03</rscale>
<asrwt>0</asrwt>
<pdfrwt beam="1">  1       21 0.14147486E-01 0.10726302E+03</pdfrwt>
<pdfrwt beam="2">  1       21 0.41411629E-01 0.10726302E+03</pdfrwt>
<totfact> 0.24999578E+05</totfact>
</mgrwt>
</event>
<event>
 4    1  0.5810391E+003  0.1168996E+03  0.7546771E-02  0.1248301E+00
         21   -1    0    0  502  501  0.00000000000E+00  0.00000000000E+00  0.13942738495E+04  0.13942738495E+04  0.00000000000E+00 0.  1.
         21   -1    0    0  503  502 -0.00000000000E+00 -0.00000000000E+00 -0.14268676379E+02  0.14268676379E+02  0.00000000000E+00 0.  1.
         21    1    1    2  503  504 -0.10929074278E+03 -0.41485488383E+02  0.29592583660E+03  0.31817858661E+03  0.00000000000E+00 0.  1.
         21    1    1    2  504  501  0.10929074278E+03  0.41485488383E+02  0.10840793365E+04  0.10903639393E+04  0.00000000000E+00 0.  1.
<mgrwt>
<rscale>  2 0.11689958E+03</rscale>
<asrwt>0</asrwt>
<pdfrwt beam="1">  1       21 0.21450356E+00 0.11689958E+03</pdfrwt>
<pdfrwt beam="2">  1       21 0.21951821E-02 0.11689958E+03</pdfrwt>
<totfact> 0.12084762E+05</totfact>
</mgrwt>
</event>
<event>
 4    1  0.5810391E+003  0.1166947E+03  0.7546771E-02  0.1248652E+00
         21   -1    0    0  504  501  0.00000000000E+00  0.00000000000E+00  0.77718996009E+03  0.77718996009E+03  0.00000000000E+00 0. -1.
         21   -1    0    0  503  502 -0.00000000000E+00 -0.00000000000E+00 -0.20640859490E+02  0.20640859490E+02  0.00000000000E+00 0. -1.
         21    1    1    2  503  501 -0.93497225845E+02 -0.69827785354E+02  0.53334861188E+03  0.54596555994E+03  0.00000000000E+00 0. -1.
         21    1    1    2  504  502  0.93497225845E+02  0.69827785354E+02  0.22320048872E+03  0.25186525964E+03  0.00000000000E+00 0. -1.
<mgrwt>
<rscale>  2 0.11669469E+03</rscale>
<asrwt>0</asrwt>
<pdfrwt beam="1">  1       21 0.11956766E+00 0.11669469E+03</pdfrwt>
<pdfrwt beam="2">  1       21 0.31755174E-02 0.11669469E+03</pdfrwt>
<totfact> 0.31345410E+05</totfact>
</mgrwt>
</event>
<event>
 4    1  0.5810391E+003  0.1010366E+03  0.7546771E-02  0.1278131E+00
         21   -1    0    0  502  501  0.00000000000E+00  0.00000000000E+00  0.12863387609E+03  0.12863387609E+03  0.00000000000E+00 0. -1.
         21   -1    0    0  503  502 -0.00000000000E+00 -0.00000000000E+00 -0.17682308005E+03  0.17682308005E+03  0.00000000000E+00 0.  1.
         21    1    1    2  503  504  0.10021675158E+03  0.12844747274E+02 -0.13748351893E+03  0.17061683038E+03  0.00000000000E+00 0.  1.
         21    1    1    2  504  501 -0.10021675158E+03 -0.12844747274E+02  0.89294314974E+02  0.13484012577E+03  0.00000000000E+00 0. -1.
<mgrwt>
<rscale>  2 0.10103655E+03</rscale>
<asrwt>0</asrwt>
<pdfrwt beam="1">  1       21 0.19789827E-01 0.10103655E+03</pdfrwt>
<pdfrwt beam="2">  1       21 0.27203551E-01 0.10103655E+03</pdfrwt>
<totfact> 0.30870121E+05</totfact>
</mgrwt>
</event>
<event>
 4    1  0.5810391E+003  0.1574972E+03  0.7546771E-02  0.1191552E+00
         21   -1    0    0  504  501  0.00000000000E+00  0.00000000000E+00  0.89636072264E+03  0.89636072264E+03  0.00000000000E+00 0. -1.
         21   -1    0    0  503  502 -0.00000000000E+00 -0.00000000000E+00 -0.28080642149E+02  0.28080642149E+02  0.00000000000E+00 0.  1.
         21    1    1    2  503  501  0.14519616587E+03  0.61019968024E+02  0.37847740874E+03  0.40993964435E+03  0.00000000000E+00 0.  1.
         21    1    1    2  504  502 -0.14519616587E+03 -0.61019968024E+02  0.48980267176E+03  0.51450172045E+03  0.00000000000E+00 0. -1.
<mgrwt>
<rscale>  2 0.15749718E+03</rscale>
<asrwt>0</asrwt>
<pdfrwt beam="1">  1       21 0.13790163E+00 0.15749718E+03</pdfrwt>
<pdfrwt beam="2">  1       21 0.43200995E-02 0.15749718E+03</pdfrwt>
<totfact> 0.13010228E+05</totfact>
</mgrwt>
</event>
<event>
 4    1  0.5810391E+003  0.1122544E+03  0.7546771E-02  0.1256451E+00
         21   -1    0    0  502  501  0.00000000000E+00  0.00000000000E+00  0.14182245849E+04  0.14182245849E+04  0.00000000000E+00 0. -1.
         21   -1    0    0  504  502 -0.00000000000E+00 -0.00000000000E+00 -0.25399687895E+02  0.25399687895E+02  0.00000000000E+00 0. -1.
         21    1    1    2  503  501 -0.62430653080E+02  0.93292397226E+02  0.12784405419E+04  0.12833593717E+04  0.00000000000E+00 0. -1.
         21    1    1    2  504  503  0.62430653080E+02 -0.93292397226E+02  0.11438435513E+03  0.16026490109E+03  0.00000000000E+00 0. -1.
<mgrwt>
<rscale>  2 0.11225443E+03</rscale>
<asrwt>0</asrwt>
<pdfrwt beam="1">  1       21 0.21818834E+00 0.11225443E+03</pdfrwt>
<pdfrwt beam="2">  1       21 0.39076454E-02 0.11225443E+03</pdfrwt>
<totfact> 0.44945832E+04</totfact>
</mgrwt>
</event>
<event>
 4    1  0.5810391E+003  0.1282274E+03  0.7546771E-02  0.1230110E+00
         21   -1    0    0  502  501  0.00000000000E+00  0.00000000000E+00  0.18176191661E+03  0.18176191661E+03  0.00000000000E+00 0.  1.
         21   -1    0    0  503  502 -0.00000000000E+00 -0.00000000000E+00 -0.15711960754E+03  0.15711960754E+03  0.00000000000E+00 0.  1.
         21    1    1    2  503  504 -0.12758831270E+03 -0.12785793668E+02 -0.98044210865E+02  0.16141536898E+03  0.00000000000E+00 0.  1.
         21    1    1    2  504  501  0.12758831270E+03  0.12785793668E+02  0.12268651994E+03  0.17746615518E+03  0.00000000000E+00 0.  1.
<mgrwt>
<rscale>  2 0.12822735E+03</rscale>
<asrwt>0</asrwt>
<pdfrwt beam="1">  1       21 0.27963372E-01 0.12822735E+03</pdfrwt>
<pdfrwt beam="2">  1       21 0.24172247E-01 0.12822735E+03</pdfrwt>
<totfact> 0.20075385E+05</totfact>
</mgrwt>
</event>
<event>
 4    1  0.5810391E+003  0.1218770E+03  0.7546771E-02  0.1240032E+00
         21   -1    0    0  502  501  0.00000000000E+00  0.00000000000E+00  0.12913149707E+03  0.12913149707E+03  0.00000000000E+00 0.  1.
         21   -1    0    0  503  502 -0.00000000000E+00 -0.00000000000E+00 -0.26168484577E+03  0.26168484577E+03  0.00000000000E+00 0. -1.
         21    1    1    2  503  504  0.12001824199E+03  0.21204486085E+02 -0.21256224802E+03  0.24502391296E+03  0.00000000000E+00 0. -1.
         21    1    1    2  504  501 -0.12001824199E+03 -0.21204486085E+02  0.80008899316E+02  0.14579242988E+03  0.00000000000E+00 0.  1.
<mgrwt>
<rscale>  2 0.12187702E+03</rscale>
<asrwt>0</asrwt>
<pdfrwt beam="1">  1       21 0.19866384E-01 0.12187702E+03</pdfrwt>
<pdfrwt beam="2">  1       21 0.40259206E-01 0.12187702E+03</pdfrwt>
<totfact> 0.14225715E+05</totfact>
</mgrwt>
</event>
<event>
 4    1  0.5810391E+003  0.1021799E+03  0.7546771E-02  0.1275778E+00
         21   -1    0    0  504  501  0.00000000000E+00  0.00000000000E+00  0.17029429643E+02  0.17029429643E+02  0.00000000000E+00 0.  1.
         21   -1    0    0  503  502 -0.00000000000E+00 -0.00000000000E+00 -0.62345969939E+03  0.62345969939E+03  0.00000000000E+00 0.  1.
         21    1    1    2  503  501 -0.46854324517E+02  0.90804167326E+02 -0.26193184766E+03  0.28115657088E+03  0.00000000000E+00 0.  1.
         21    1    1    2  504  502  0.46854324517E+02 -0.90804167326E+02 -0.34449842209E+03  0.35933255816E+03  0.00000000000E+00 0.  1.
<mgrwt>
<rscale>  2 0.10217986E+03</rscale>
<asrwt>0</asrwt>
<pdfrwt beam="1">  1       21 0.26199120E-02 0.10217986E+03</pdfrwt>
<pdfrwt beam="2">  1       21 0.95916885E-01 0.10217986E+03</pdfrwt>
<totfact> 0.72366775E+05</totfact>
</mgrwt>
</event>
<event>
 4    1  0.5810391E+003  0.1035874E+03  0.7546771E-02  0.1272928E+00
         21   -1    0    0  504  501  0.00000000000E+00  0.00000000000E+00  0.38273324694E+03  0.38273324694E+03  0.00000000000E+00 0.  1.
         21   -1    0    0  503  502 -0.00000000000E+00 -0.00000000000E+00 -0.28042536792E+02  0.28042536792E+02  0.00000000000E+00 0.  1.
         21    1    1    2  503  501  0.31439431238E+02  0.98701119885E+02  0.18045624509E+03  0.20807403802E+03  0.00000000000E+00 0.  1.
         21    1    1    2  504  502 -0.31439431238E+02 -0.98701119885E+02  0.17423446506E+03  0.20270174572E+03  0.00000000000E+00 0.  1.
<mgrwt>
<rscale>  2 0.10358740E+03</rscale>
<asrwt>0</asrwt>
<pdfrwt beam="1">  1       21 0.58882034E-01 0.10358740E+03</pdfrwt>
<pdfrwt beam="2">  1       21 0.43142367E-02 0.10358740E+03</pdfrwt>
<totfact> 0.93290125E+05</totfact>
</mgrwt>
</event>
<event>
 4    1  0.5810391E+003  0.2229514E+03  0.7546771E-02  0.1131702E+00
         21   -1    0    0  504  501  0.00000000000E+00  0.00000000000E+00  0.17403784422E+03  0.17403784422E+03  0.00000000000E+00 0.  1.
         21   -1    0    0  503  502 -0.00000000000E+00 -0.00000000000E+00 -0.63759461062E+03  0.63759461062E+03  0.00000000000E+00 0.  1.
         21    1    1    2  503  501 -0.20990937985E+03  0.75135780598E+02 -0.53329938343E+03  0.57802730527E+03  0.00000000000E+00 0.  1.
         21    1    1    2  504  502  0.20990937985E+03 -0.75135780598E+02  0.69742617025E+02  0.23360514957E+03  0.00000000000E+00 0.  1.
<mgrwt>
<rscale>  2 0.22295141E+03</rscale>
<asrwt>0</asrwt>
<pdfrwt beam="1">  1       21 0.26775053E-01 0.22295141E+03</pdfrwt>
<pdfrwt beam="2">  1       21 0.98091478E-01 0.22295141E+03</pdfrwt>
<totfact> 0.11184198E+04</totfact>
</mgrwt>
</event>
<event>
 4    1  0.5810391E+003  0.1621524E+03  0.7546771E-02  0.1186288E+00
         21   -1    0    0  502  501  0.00000000000E+00  0.00000000000E+00  0.55375529584E+03  0.55375529584E+03  0.00000000000E+00 0.  1.
         21   -1    0    0  503  502 -0.00000000000E+00 -0.00000000000E+00 -0.16411088045E+03  0.16411088045E+03  0.00000000000E+00 0.  1.
         21    1    1    2  503  504 -0.14987994274E+03 -0.61882261018E+02 -0.10776311119E+03  0.19469540210E+03  0.00000000000E+00 0.  1.
         21    1    1    2  504  501  0.14987994274E+03  0.61882261018E+02  0.49740752658E+03  0.52317077418E+03  0.00000000000E+00 0.  1.
<mgrwt>
<rscale>  2 0.16215243E+03</rscale>
<asrwt>0</asrwt>
<pdfrwt beam="1">  1       21 0.85193121E-01 0.16215243E+03</pdfrwt>
<pdfrwt beam="2">  1       21 0.25247828E-01 0.16215243E+03</pdfrwt>
<totfact> 0.18073807E+04</totfact>
</mgrwt>
</event>
<event>
 4    1  0.5810391E+003  0.1222177E+03  0.7546771E-02  0.1239483E+00
         21   -1    0    0  503  501  0.00000000000E+00  0.00000000000E+00  0.22914954691E+03  0.22914954691E+03  0.00000000000E+00 0. -1.
         21   -1    0    0  504  502 -0.00000000000E+00 -0.00000000000E+00 -0.80986161048E+02  0.80986161048E+02  0.00000000000E+00 0. -1.
         21    1    1    2  503  502  0.73573334584E+02 -0.97591697900E+02  0.55869624718E+01  0.12234536857E+03  0.00000000000E+00 0. -1.
         21    1    1    2  504  501 -0.73573334584E+02  0.97591697900E+02  0.14257642339E+03  0.18779033939E+03  0.00000000000E+00 0. -1.
<mgrwt>
<rscale>  2 0.12221774E+03</rscale>
<asrwt>0</asrwt>
<pdfrwt beam="1">  1       21 0.35253776E-01 0.12221774E+03</pdfrwt>
<pdfrwt beam="2">  1       21 0.12459409E-01 0.12221774E+03</pdfrwt>
<totfact> 0.43004051E+05</totfact>
</mgrwt>
</event>
<event>
 4    1  0.5810391E+003  0.1082024E+03  0.7546771E-02  0.1263935E+00
         21   -1    0    0  504  501  0.00000000000E+00  0.00000000000E+00  0.22728942564E+02  0.22728942564E+02  0.00000000000E+00 0. -1.
         21   -1    0    0  503  502 -0.00000000000E+00 -0.00000000000E+00 -0.15329785761E+04  0.15329785761E+04  0.00000000000E+00 0.  1.
         21    1    1    2  503  501 -0.50392619349E+02  0.95751475461E+02 -0.13889611371E+04  0.13931693369E+04  0.00000000000E+00 0.  1.
         21    1    1    2  504  502  0.50392619349E+02 -0.95751475461E+02 -0.12128849645E+03  0.16253818170E+03  0.00000000000E+00 0. -1.
<mgrwt>
<rscale>  2 0.10820241E+03</rscale>
<asrwt>0</asrwt>
<pdfrwt beam="1">  1       21 0.34967604E-02 0.10820241E+03</pdfrwt>
<pdfrwt beam="2">  1       21 0.23584286E+00 0.10820241E+03</pdfrwt>
<totfact> 0.42713375E+04</totfact>
</mgrwt>
</event>
<event>
 4    1  0.5810391E+003  0.1015397E+03  0.7546771E-02  0.1277091E+00
         21   -1    0    0  504  501  0.00000000000E+00  0.00000000000E+00  0.71242647987E+03  0.71242647987E+03  0.00000000000E+00 0.  1.
         21   -1    0    0  503  502 -0.00000000000E+00 -0.00000000000E+00 -0.15682123069E+02  0.15682123069E+02  0.00000000000E+00 0.  1.
         21    1    1    2  503  501  0.54238921876E+02 -0.85839648022E+02  0.24724662161E+03  0.26728486249E+03  0.00000000000E+00 0.  1.
         21    1    1    2  504  502 -0.54238921876E+02  0.85839648022E+02  0.44949773520E+03  0.46082374046E+03  0.00000000000E+00 0.  1.
<mgrwt>
<rscale>  2 0.10153968E+03</rscale>
<asrwt>0</asrwt>
<pdfrwt beam="1">  1       21 0.10960405E+00 0.10153968E+03</pdfrwt>
<pdfrwt beam="2">  1       21 0.24126349E-02 0.10153968E+03</pdfrwt>
<totfact> 0.60552035E+05</totfact>
</mgrwt>
</event>
<event>
 4    1  0.5810391E+003  0.1002201E+03  0.7546771E-02  0.1279834E+00
         21   -1    0    0  503  501  0.00000000000E+00  0.00000000000E+00  0.58762113678E+02  0.58762113678E+02  0.00000000000E+00 0. -1.
         21   -1    0    0  504  502 -0.00000000000E+00 -0.00000000000E+00 -0.43522494351E+03  0.43522494351E+03  0.00000000000E+00 0.  1.
         21    1    1    2  503  502  0.92498139767E+02  0.38576581866E+02  0.42439732285E+01  0.10030986909E+03  0.00000000000E+00 0. -1.
         21    1    1    2  504  501 -0.92498139767E+02 -0.38576581866E+02 -0.38070680307E+03  0.39367718810E+03  0.00000000000E+00 0.  1.
<mgrwt>
<rscale>  2 0.10022005E+03</rscale>
<asrwt>0</asrwt>
<pdfrwt beam="1">  1       21 0.90403251E-02 0.10022005E+03</pdfrwt>
<pdfrwt beam="2">  1       21 0.66957684E-01 0.10022005E+03</pdfrwt>
<totfact> 0.20338573E+05</totfact>
</mgrwt>
</event>
<event>
 4    1  0.5810391E+003  0.1036207E+03  0.7546771E-02  0.1272861E+00
         21   -1    0    0  503  501  0.00000000000E+00  0.00000000000E+00  0.15890206163E+03  0.15890206163E+03  0.00000000000E+00 0.  1.
         21   -1    0    0  504  502 -0.00000000000E+00 -0.00000000000E+00 -0.34503365465E+03  0.34503365465E+03  0.00000000000E+00 0. -1.
         21    1    1    2  503  502  0.56738417293E+02 -0.86706426781E+02  0.13288625227E+03  0.16851115240E+03  0.00000000000E+00 0.  1.
         21    1    1    2  504  501 -0.56738417293E+02  0.86706426781E+02 -0.31901784529E+03  0.33542456388E+03  0.00000000000E+00 0. -1.
<mgrwt>
<rscale>  2 0.10362071E+03</rscale>
<asrwt>0</asrwt>
<pdfrwt beam="1">  1       21 0.24446471E-01 0.10362071E+03</pdfrwt>
<pdfrwt beam="2">  1       21 0.53082100E-01 0.10362071E+03</pdfrwt>
<totfact> 0.55633328E+04</totfact>
</mgrwt>
</event>
<event>
 4    1  0.5810391E+003  0.1486869E+03  0.7546771E-02  0.1202096E+00
         21   -1    0    0  503  501  0.00000000000E+00  0.00000000000E+00  0.24882367059E+03  0.24882367059E+03  0.00000000000E+00 0.  1.
         21   -1    0    0  504  502 -0.00000000000E+00 -0.00000000000E+00 -0.30368444425E+03  0.30368444425E+03  0.00000000000E+00 0.  1.
         21    1    1    2  503  502  0.11455735731E+03  0.94786068813E+02 -0.25978438259E+03  0.29932542891E+03  0.00000000000E+00 0.  1.
         21    1    1    2  504  501 -0.11455735731E+03 -0.94786068813E+02  0.20492360893E+03  0.25318268592E+03  0.00000000000E+00 0.  1.
<mgrwt>
<rscale>  2 0.14868688E+03</rscale>
<asrwt>0</asrwt>
<pdfrwt beam="1">  1       21 0.38280565E-01 0.14868688E+03</pdfrwt>
<pdfrwt beam="2">  1       21 0.46720684E-01 0.14868688E+03</pdfrwt>
<totfact> 0.29595628E+04</totfact>
</mgrwt>
</event>
<event>
 4    1  0.5810391E+003  0.1152763E+03  0.7546771E-02  0.1251100E+00
         21   -1    0    0  504  501  0.00000000000E+00  0.00000000000E+00  0.35663154358E+03  0.35663154358E+03  0.00000000000E+00 0.  1.
         21   -1    0    0  503  502 -0.00000000000E+00 -0.00000000000E+00 -0.10438640112E+03  0.10438640112E+03  0.00000000000E+00 0. -1.
         21    1    1    2  503  501 -0.11341081585E+03  0.20654358805E+02 -0.58722467065E+02  0.12937134083E+03  0.00000000000E+00 0. -1.
         21    1    1    2  504  502  0.11341081585E+03 -0.20654358805E+02  0.31096760952E+03  0.33164660387E+03  0.00000000000E+00 0.  1.
<mgrwt>
<rscale>  2 0.11527626E+03</rscale>
<asrwt>0</asrwt>
<pdfrwt beam="1">  1       21 0.54866391E-01 0.11527626E+03</pdfrwt>
<pdfrwt beam="2">  1       21 0.16059446E-01 0.11527626E+03</pdfrwt>
<totfact> 0.11182155E+05</totfact>
</mgrwt>
</event>
<event>
 4    1  0.5810391E+003  0.1004687E+03  0.7546771E-02  0.1279313E+00
         21   -1    0    0  504  501  0.00000000000E+00  0.00000000000E+00  0.85949257683E+02  0.85949257683E+02  0.00000000000E+00 0. -1.
         21   -1    0    0  501  502 -0.00000000000E+00 -0.00000000000E+00 -0.24728913232E+03  0.24728913232E+03  0.00000000000E+00 0. -1.
         21    1    1    2  503  502 -0.22486864119E+02  0.97919869154E+02 -0.20140697196E+03  0.22507493905E+03  0.00000000000E+00 0. -1.
         21    1    1    2  504  503  0.22486864119E+02 -0.97919869154E+02  0.40067097329E+02  0.10816345095E+03  0.00000000000E+00 0. -1.
<mgrwt>
<rscale>  2 0.10046870E+03</rscale>
<asrwt>0</asrwt>
<pdfrwt beam="1">  1       21 0.13222963E-01 0.10046870E+03</pdfrwt>
<pdfrwt beam="2">  1       21 0.38044481E-01 0.10046870E+03</pdfrwt>
<totfact> 0.33404975E+05</totfact>
</mgrwt>
</event>
<event>
 4    1  0.5810391E+003  0.1153111E+03  0.7546771E-02  0.1251039E+00
         21   -1    0    0  504  501  0.00000000000E+00  0.00000000000E+00  0.56885014858E+03  0.56885014858E+03  0.00000000000E+00 0.  1.
         21   -1    0    0  503  502 -0.00000000000E+00 -0.00000000000E+00 -0.23387529143E+02  0.23387529143E+02  0.00000000000E+00 0.  1.
         21    1    1    2  503  501  0.10302756204E+03 -0.51787671126E+02  0.26576736892E+03  0.28970491160E+03  0.00000000000E+00 0.  1.
         21    1    1    2  504  502 -0.10302756204E+03  0.51787671126E+02  0.27969525051E+03  0.30253276612E+03  0.00000000000E+00 0.  1.
<mgrwt>
<rscale>  2 0.11531106E+03</rscale>
<asrwt>0</asrwt>
<pdfrwt beam="1">  1       21 0.87515397E-01 0.11531106E+03</pdfrwt>
<pdfrwt beam="2">  1       21 0.35980818E-02 0.11531106E+03</pdfrwt>
<totfact> 0.53053481E+05</totfact>
</mgrwt>
</event>
<event>
 4    1  0.5810391E+003  0.1477611E+03  0.7546771E-02  0.1203251E+00
         21   -1    0    0  503  501  0.00000000000E+00  0.00000000000E+00  0.65510658829E+03  0.65510658829E+03  0.00000000000E+00 0.  1.
         21   -1    0    0  501  502 -0.00000000000E+00 -0.00000000000E+00 -0.20742751464E+03  0.20742751464E+03  0.00000000000E+00 0.  1.
         21    1    1    2  503  504  0.80154303119E+02 -0.12413148725E+03  0.61894404096E+03  0.63633722528E+03  0.00000000000E+00 0.  1.
         21    1    1    2  504  502 -0.80154303119E+02  0.12413148725E+03 -0.17126496730E+03  0.22619687765E+03  0.00000000000E+00 0.  1.
<mgrwt>
<rscale>  2 0.14776109E+03</rscale>
<asrwt>0</asrwt>
<pdfrwt beam="1">  1       21 0.10078563E+00 0.14776109E+03</pdfrwt>
<pdfrwt beam="2">  1       21 0.31911925E-01 0.14776109E+03</pdfrwt>
<totfact> 0.78855928E+03</totfact>
</mgrwt>
</event>
<event>
 4    1  0.5810391E+003  0.1419196E+03  0.7546771E-02  0.1210769E+00
         21   -1    0    0  503  501  0.00000000000E+00  0.00000000000E+00  0.23154397811E+02  0.23154397811E+02  0.00000000000E+00 0.  1.
         21   -1    0    0  504  502 -0.00000000000E+00 -0.00000000000E+00 -0.90256304040E+03  0.90256304040E+03  0.00000000000E+00 0. -1.
         21    1    1    2  503  502 -0.69314469990E+01 -0.14175026882E+03 -0.52780419705E+03  0.54655141944E+03  0.00000000000E+00 0.  1.
         21    1    1    2  504  501  0.69314469990E+01  0.14175026882E+03 -0.35160444554E+03  0.37916601877E+03  0.00000000000E+00 0. -1.
<mgrwt>
<rscale>  2 0.14191964E+03</rscale>
<asrwt>0</asrwt>
<pdfrwt beam="1">  1       21 0.35622147E-02 0.14191964E+03</pdfrwt>
<pdfrwt beam="2">  1       21 0.13885587E+00 0.14191964E+03</pdfrwt>
<totfact> 0.17735854E+05</totfact>
</mgrwt>
</event>
<event>
 4    1  0.5810391E+003  0.1052453E+03  0.7546771E-02  0.1269637E+00
         21   -1    0    0  502  501  0.00000000000E+00  0.00000000000E+00  0.12406900635E+04  0.12406900635E+04  0.00000000000E+00 0.  1.
         21   -1    0    0  503  502 -0.00000000000E+00 -0.00000000000E+00 -0.38777924807E+03  0.38777924807E+03  0.00000000000E+00 0. -1.
         21    1    1    2  503  504  0.73006897820E+02  0.75806160702E+02 -0.37835169512E+03  0.39271692901E+03  0.00000000000E+00 0. -1.
         21    1    1    2  504  501 -0.73006897820E+02 -0.75806160702E+02  0.12312625105E+04  0.12357523826E+04  0.00000000000E+00 0.  1.
<mgrwt>
<rscale>  2 0.10524534E+03</rscale>
<asrwt>0</asrwt>
<pdfrwt beam="1">  1       21 0.19087539E+00 0.10524534E+03</pdfrwt>
<pdfrwt beam="2">  1       21 0.59658346E-01 0.10524534E+03</pdfrwt>
<totfact> 0.46377049E+02</totfact>
</mgrwt>
</event>
<event>
 4    1  0.5810391E+003  0.1232620E+03  0.7546771E-02  0.1237811E+00
         21   -1    0    0  503  501  0.00000000000E+00  0.00000000000E+00  0.46645129992E+03  0.46645129992E+03  0.00000000000E+00 0.  1.
         21   -1    0    0  504  502 -0.00000000000E+00 -0.00000000000E+00 -0.44160994849E+02  0.44160994849E+02  0.00000000000E+00 0.  1.
         21    1    1    2  503  502  0.12322916541E+03  0.28455830204E+01  0.80361406188E+02  0.14714441938E+03  0.00000000000E+00 0.  1.
         21    1    1    2  504  501 -0.12322916541E+03 -0.28455830204E+01  0.34192889888E+03  0.36346787539E+03  0.00000000000E+00 0.  1.
<mgrwt>
<rscale>  2 0.12326202E+03</rscale>
<asrwt>0</asrwt>
<pdfrwt beam="1">  1       21 0.71761735E-01 0.12326202E+03</pdfrwt>
<pdfrwt beam="2">  1       21 0.67939995E-02 0.12326202E+03</pdfrwt>
<totfact> 0.28399060E+05</totfact>
</mgrwt>
</event>
<event>
 4    1  0.5810391E+003  0.1210553E+03  0.7546771E-02  0.1241366E+00
         21   -1    0    0  504  501  0.00000000000E+00  0.00000000000E+00  0.50481341648E+02  0.50481341648E+02  0.00000000000E+00 0. -1.
         21   -1    0    0  501  502 -0.00000000000E+00 -0.00000000000E+00 -0.31929257221E+03  0.31929257221E+03  0.00000000000E+00 0. -1.
         21    1    1    2  503  502 -0.10343762456E+03  0.62889061042E+02 -0.19012524817E+03  0.22539295944E+03  0.00000000000E+00 0. -1.
         21    1    1    2  504  503  0.10343762456E+03 -0.62889061042E+02 -0.78685982392E+02  0.14438095442E+03  0.00000000000E+00 0. -1.
<mgrwt>
<rscale>  2 0.12105526E+03</rscale>
<asrwt>0</asrwt>
<pdfrwt beam="1">  1       21 0.77663602E-02 0.12105526E+03</pdfrwt>
<pdfrwt beam="2">  1       21 0.49121934E-01 0.12105526E+03</pdfrwt>
<totfact> 0.50421458E+05</totfact>
</mgrwt>
</event>
<event>
 4    1  0.5810391E+003  0.1120523E+03  0.7546771E-02  0.1256816E+00
         21   -1    0    0  504  501  0.00000000000E+00  0.00000000000E+00  0.26396165335E+02  0.26396165335E+02  0.00000000000E+00 0. -1.
         21   -1    0    0  503  502 -0.00000000000E+00 -0.00000000000E+00 -0.48012850709E+03  0.48012850709E+03  0.00000000000E+00 0. -1.
         21    1    1    2  503  501 -0.11205161632E+03  0.37879915284E+00 -0.25128775271E+03  0.27513858848E+03  0.00000000000E+00 0. -1.
         21    1    1    2  504  502  0.11205161632E+03 -0.37879915284E+00 -0.20244458905E+03  0.23138608395E+03  0.00000000000E+00 0. -1.
<mgrwt>
<rscale>  2 0.11205226E+03</rscale>
<asrwt>0</asrwt>
<pdfrwt beam="1">  1       21 0.40609488E-02 0.11205226E+03</pdfrwt>
<pdfrwt beam="2">  1       21 0.73865919E-01 0.11205226E+03</pdfrwt>
<totfact> 0.63396606E+05</totfact>
</mgrwt>
</event>
<event>
 4    1  0.5810391E+003  0.1253190E+03  0.7546771E-02  0.1234572E+00
         21   -1    0    0  503  501  0.00000000000E+00  0.00000000000E+00  0.72468658611E+02  0.72468658611E+02  0.00000000000E+00 0. -1.
         21   -1    0    0  501  502 -0.00000000000E+00 -0.00000000000E+00 -0.29767878988E+03  0.29767878988E+03  0.00000000000E+00 0. -1.
         21    1    1    2  503  504  0.17731041849E+02 -0.12405828245E+03 -0.16083676604E+02  0.12634687152E+03  0.00000000000E+00 0. -1.
         21    1    1    2  504  502 -0.17731041849E+02  0.12405828245E+03 -0.20912645466E+03  0.24380057697E+03  0.00000000000E+00 0. -1.
<mgrwt>
<rscale>  2 0.12531898E+03</rscale>
<asrwt>0</asrwt>
<pdfrwt beam="1">  1       21 0.11149025E-01 0.12531898E+03</pdfrwt>
<pdfrwt beam="2">  1       21 0.45796736E-01 0.12531898E+03</pdfrwt>
<totfact> 0.31013116E+05</totfact>
</mgrwt>
</event>
<event>
 4    1  0.5810391E+003  0.1042332E+03  0.7546771E-02  0.1271638E+00
         21   -1    0    0  502  501  0.00000000000E+00  0.00000000000E+00  0.21806121441E+03  0.21806121441E+03  0.00000000000E+00 0. -1.
         21   -1    0    0  503  502 -0.00000000000E+00 -0.00000000000E+00 -0.93906267792E+02  0.93906267792E+02  0.00000000000E+00 0.  1.
         21    1    1    2  503  504 -0.59238953226E+02 -0.85763055401E+02 -0.44795248077E+02  0.11345117673E+03  0.00000000000E+00 0.  1.
         21    1    1    2  504  501  0.59238953226E+02  0.85763055401E+02  0.16895019470E+03  0.19851630547E+03  0.00000000000E+00 0. -1.
<mgrwt>
<rscale>  2 0.10423318E+03</rscale>
<asrwt>0</asrwt>
<pdfrwt beam="1">  1       21 0.33547879E-01 0.10423318E+03</pdfrwt>
<pdfrwt beam="2">  1       21 0.14447118E-01 0.10423318E+03</pdfrwt>
<totfact> 0.36477933E+05</totfact>
</mgrwt>
</event>
<event>
 4    1  0.5810391E+003  0.1008751E+03  0.7546771E-02  0.1278466E+00
         21   -1    0    0  504  501  0.00000000000E+00  0.00000000000E+00  0.19294916507E+02  0.19294916507E+02  0.00000000000E+00 0.  1.
         21   -1    0    0  503  502 -0.00000000000E+00 -0.00000000000E+00 -0.66038878870E+03  0.66038878870E+03  0.00000000000E+00 0.  1.
         21    1    1    2  503  501 -0.93489088764E+02  0.37889129567E+02 -0.16803158272E+03  0.19598573583E+03  0.00000000000E+00 0.  1.
         21    1    1    2  504  502  0.93489088764E+02 -0.37889129567E+02 -0.47306228948E+03  0.48369796938E+03  0.00000000000E+00 0.  1.
<mgrwt>
<rscale>  2 0.10087515E+03</rscale>
<asrwt>0</asrwt>
<pdfrwt beam="1">  1       21 0.29684486E-02 0.10087515E+03</pdfrwt>
<pdfrwt beam="2">  1       21 0.10159828E+00 0.10087515E+03</pdfrwt>
<totfact> 0.51707526E+05</totfact>
</mgrwt>
</event>
<event>
 4    1  0.5810391E+003  0.1153393E+03  0.7546771E-02  0.1250990E+00
         21   -1    0    0  504  501  0.00000000000E+00  0.00000000000E+00  0.16008973534E+02  0.16008973534E+02  0.00000000000E+00 0. -1.
         21   -1    0    0  503  502 -0.00000000000E+00 -0.00000000000E+00 -0.85090839161E+03  0.85090839161E+03  0.00000000000E+00 0. -1.
         21    1    1    2  503  501  0.87446173212E+02  0.75208475644E+02 -0.48378349892E+03  0.49734255986E+03  0.00000000000E+00 0. -1.
         21    1    1    2  504  502 -0.87446173212E+02 -0.75208475644E+02 -0.35111591916E+03  0.36957480529E+03  0.00000000000E+00 0. -1.
<mgrwt>
<rscale>  2 0.11533927E+03</rscale>
<asrwt>0</asrwt>
<pdfrwt beam="1">  1       21 0.24629195E-02 0.11533927E+03</pdfrwt>
<pdfrwt beam="2">  1       21 0.13090896E+00 0.11533927E+03</pdfrwt>
<totfact> 0.37986216E+05</totfact>
</mgrwt>
</event>
<event>
 4    1  0.5810391E+003  0.1424082E+03  0.7546771E-02  0.1210125E+00
         21   -1    0    0  504  501  0.00000000000E+00  0.00000000000E+00  0.44710408409E+02  0.44710408409E+02  0.00000000000E+00 0.  1.
         21   -1    0    0  503  502 -0.00000000000E+00 -0.00000000000E+00 -0.46372166932E+03  0.46372166932E+03  0.00000000000E+00 0.  1.
         21    1    1    2  503  501  0.61408252040E+02  0.12848778174E+03 -0.17192467624E+03  0.22324465901E+03  0.00000000000E+00 0.  1.
         21    1    1    2  504  502 -0.61408252040E+02 -0.12848778174E+03 -0.24708658467E+03  0.28518741873E+03  0.00000000000E+00 0.  1.
<mgrwt>
<rscale>  2 0.14240816E+03</rscale>
<asrwt>0</asrwt>
<pdfrwt beam="1">  1       21 0.68785241E-02 0.14240816E+03</pdfrwt>
<pdfrwt beam="2">  1       21 0.71341798E-01 0.14240816E+03</pdfrwt>
<totfact> 0.28047518E+05</totfact>
</mgrwt>
</event>
<event>
 4    1  0.5810391E+003  0.1025285E+03  0.7546771E-02  0.1275067E+00
         21   -1    0    0  504  501  0.00000000000E+00  0.00000000000E+00  0.72356137099E+02  0.72356137099E+02  0.00000000000E+00 0. -1.
         21   -1    0    0  503  502 -0.00000000000E+00 -0.00000000000E+00 -0.26408999574E+03  0.26408999574E+03  0.00000000000E+00 0. -1.
         21    1    1    2  503  501  0.97991588563E+02 -0.30162071766E+02 -0.20869858157E+03  0.23252354710E+03  0.00000000000E+00 0. -1.
         21    1    1    2  504  502 -0.97991588563E+02  0.30162071766E+02  0.16964722939E+02  0.10392258574E+03  0.00000000000E+00 0. -1.
<mgrwt>
<rscale>  2 0.10252854E+03</rscale>
<asrwt>0</asrwt>
<pdfrwt beam="1">  1       21 0.11131714E-01 0.10252854E+03</pdfrwt>
<pdfrwt beam="2">  1       21 0.40629229E-01 0.10252854E+03</pdfrwt>
<totfact> 0.39708014E+05</totfact>
</mgrwt>
</event>
<event>
 4    1  0.5810391E+003  0.1239929E+03  0.7546771E-02  0.1236652E+00
         21   -1    0    0  504  501  0.00000000000E+00  0.00000000000E+00  0.27820340809E+02  0.27820340809E+02  0.00000000000E+00 0. -1.
         21   -1    0    0  503  502 -0.00000000000E+00 -0.00000000000E+00 -0.19259542016E+04  0.19259542016E+04  0.00000000000E+00 0.  1.
         21    1    1    2  503  501  0.55125021970E+02  0.11106514224E+03 -0.17739809753E+04  0.17783089537E+04  0.00000000000E+00 0.  1.
         21    1    1    2  504  502 -0.55125021970E+02 -0.11106514224E+03 -0.12415288550E+03  0.17546558877E+03  0.00000000000E+00 0. -1.
<mgrwt>
<rscale>  2 0.12399288E+03</rscale>
<asrwt>0</asrwt>
<pdfrwt beam="1">  1       21 0.42800510E-02 0.12399288E+03</pdfrwt>
<pdfrwt beam="2">  1       21 0.29630075E+00 0.12399288E+03</pdfrwt>
<totfact> 0.13640965E+04</totfact>
</mgrwt>
</event>
<event>
 4    1  0.5810391E+003  0.1311411E+03  0.7546771E-02  0.1225772E+00
         21   -1    0    0  504  501  0.00000000000E+00  0.00000000000E+00  0.97156468523E+01  0.97156468523E+01  0.00000000000E+00 0.  1.
         21   -1    0    0  503  502 -0.00000000000E+00 -0.00000000000E+00 -0.18887589331E+04  0.18887589331E+04  0.00000000000E+00 0.  1.
         21    1    1    2  503  501 -0.13113836563E+03  0.84051227284E+00 -0.11774127326E+04  0.11846935132E+04  0.00000000000E+00 0.  1.
         21    1    1    2  504  502  0.13113836563E+03 -0.84051227284E+00 -0.70163055371E+03  0.71378106678E+03  0.00000000000E+00 0.  1.
<mgrwt>
<rscale>  2 0.13114106E+03</rscale>
<asrwt>0</asrwt>
<pdfrwt beam="1">  1       21 0.14947158E-02 0.13114106E+03</pdfrwt>
<pdfrwt beam="2">  1       21 0.29057812E+00 0.13114106E+03</pdfrwt>
<totfact> 0.80748297E+04</totfact>
</mgrwt>
</event>
<event>
 4    1  0.5810391E+003  0.1561723E+03  0.7546771E-02  0.1193087E+00
         21   -1    0    0  503  501  0.00000000000E+00  0.00000000000E+00  0.36533457280E+02  0.36533457280E+02  0.00000000000E+00 0.  1.
         21   -1    0    0  504  502 -0.00000000000E+00 -0.00000000000E+00 -0.66803590311E+03  0.66803590311E+03  0.00000000000E+00 0.  1.
         21    1    1    2  503  502  0.14446599090E+03 -0.59324142780E+02 -0.30676374667E+03  0.34422924442E+03  0.00000000000E+00 0.  1.
         21    1    1    2  504  501 -0.14446599090E+03  0.59324142780E+02 -0.32473869916E+03  0.36034011597E+03  0.00000000000E+00 0.  1.
<mgrwt>
<rscale>  2 0.15617227E+03</rscale>
<asrwt>0</asrwt>
<pdfrwt beam="1">  1       21 0.56205322E-02 0.15617227E+03</pdfrwt>
<pdfrwt beam="2">  1       21 0.10277475E+00 0.15617227E+03</pdfrwt>
<totfact> 0.17177462E+05</totfact>
</mgrwt>
</event>
<event>
 4    1  0.5810391E+003  0.1292379E+03  0.7546771E-02  0.1228591E+00
         21   -1    0    0  502  501  0.00000000000E+00  0.00000000000E+00  0.45360633251E+03  0.45360633251E+03  0.00000000000E+00 0.  1.
         21   -1    0    0  504  502 -0.00000000000E+00 -0.00000000000E+00 -0.14515502320E+03  0.14515502320E+03  0.00000000000E+00 0.  1.
         21    1    1    2  503  501 -0.98508756115E+02 -0.83656854906E+02  0.41286182432E+03  0.43261684016E+03  0.00000000000E+00 0.  1.
         21    1    1    2  504  503  0.98508756115E+02  0.83656854906E+02 -0.10441051501E+03  0.16614451555E+03  0.00000000000E+00 0.  1.
<mgrwt>
<rscale>  2 0.12923794E+03</rscale>
<asrwt>0</asrwt>
<pdfrwt beam="1">  1       21 0.69785589E-01 0.12923794E+03</pdfrwt>
<pdfrwt beam="2">  1       21 0.22331542E-01 0.12923794E+03</pdfrwt>
<totfact> 0.36273066E+04</totfact>
</mgrwt>
</event>
<event>
 4    1  0.5810391E+003  0.1027885E+03  0.7546771E-02  0.1274539E+00
         21   -1    0    0  504  501  0.00000000000E+00  0.00000000000E+00  0.95281609131E+02  0.95281609131E+02  0.00000000000E+00 0. -1.
         21   -1    0    0  503  502 -0.00000000000E+00 -0.00000000000E+00 -0.12592841454E+03  0.12592841454E+03  0.00000000000E+00 0. -1.
         21    1    1    2  503  501  0.10245372007E+03 -0.82897572829E+01  0.22902551361E+02  0.10530912444E+03  0.00000000000E+00 0. -1.
         21    1    1    2  504  502 -0.10245372007E+03  0.82897572829E+01 -0.53549356766E+02  0.11590089923E+03  0.00000000000E+00 0. -1.
<mgrwt>
<rscale>  2 0.10278854E+03</rscale>
<asrwt>0</asrwt>
<pdfrwt beam="1">  1       21 0.14658709E-01 0.10278854E+03</pdfrwt>
<pdfrwt beam="2">  1       21 0.19373602E-01 0.10278854E+03</pdfrwt>
<totfact> 0.10000912E+06</totfact>
</mgrwt>
</event>
<event>
 4    1  0.5810391E+003  0.1574119E+03  0.7546771E-02  0.1191650E+00
         21   -1    0    0  503  501  0.00000000000E+00  0.00000000000E+00  0.43043675041E+04  0.43043675041E+04  0.00000000000E+00 0. -1.
         21   -1    0    0  501  502 -0.00000000000E+00 -0.00000000000E+00 -0.70979649597E+02  0.70979649597E+02  0.00000000000E+00 0.  1.
         21    1    1    2  503  504  0.65958275533E+02 -0.14292656021E+03  0.42137795684E+04  0.42167187180E+04  0.00000000000E+00 0. -1.
         21    1    1    2  504  502 -0.65958275533E+02  0.14292656021E+03  0.19608286104E+02  0.15862843569E+03  0.00000000000E+00 0.  1.
<mgrwt>
<rscale>  2 0.15741187E+03</rscale>
<asrwt>0</asrwt>
<pdfrwt beam="1">  1       21 0.66221018E+00 0.15741187E+03</pdfrwt>
<pdfrwt beam="2">  1       21 0.10919949E-01 0.15741187E+03</pdfrwt>
<totfact> 0.79783976E+00</totfact>
</mgrwt>
</event>
<event>
 4    1  0.5810391E+003  0.1235407E+03  0.7546771E-02  0.1237368E+00
         21   -1    0    0  504  501  0.00000000000E+00  0.00000000000E+00  0.27551635607E+03  0.27551635607E+03  0.00000000000E+00 0.  1.
         21   -1    0    0  503  502 -0.00000000000E+00 -0.00000000000E+00 -0.84114718872E+02  0.84114718872E+02  0.00000000000E+00 0.  1.
         21    1    1    2  503  501 -0.11017467555E+03 -0.55891340269E+02 -0.93693233707E+01  0.12389546105E+03  0.00000000000E+00 0.  1.
         21    1    1    2  504  502  0.11017467555E+03  0.55891340269E+02  0.20077096057E+03  0.23573561389E+03  0.00000000000E+00 0.  1.
<mgrwt>
<rscale>  2 0.12354069E+03</rscale>
<asrwt>0</asrwt>
<pdfrwt beam="1">  1       21 0.42387131E-01 0.12354069E+03</pdfrwt>
<pdfrwt beam="2">  1       21 0.12940726E-01 0.12354069E+03</pdfrwt>
<totfact> 0.27870091E+05</totfact>
</mgrwt>
</event>
<event>
 4    1  0.5810391E+003  0.1165239E+03  0.7546771E-02  0.1248944E+00
         21   -1    0    0  502  501  0.00000000000E+00  0.00000000000E+00  0.99767256850E+02  0.99767256850E+02  0.00000000000E+00 0.  1.
         21   -1    0    0  504  502 -0.00000000000E+00 -0.00000000000E+00 -0.25256722570E+03  0.25256722570E+03  0.00000000000E+00 0.  1.
         21    1    1    2  503  501  0.42227397317E+02 -0.10860326959E+03  0.43232156045E+02  0.12428532723E+03  0.00000000000E+00 0.  1.
         21    1    1    2  504  503 -0.42227397317E+02  0.10860326959E+03 -0.19603212489E+03  0.22804915531E+03  0.00000000000E+00 0.  1.
<mgrwt>
<rscale>  2 0.11652392E+03</rscale>
<asrwt>0</asrwt>
<pdfrwt beam="1">  1       21 0.15348809E-01 0.11652392E+03</pdfrwt>
<pdfrwt beam="2">  1       21 0.38856496E-01 0.11652392E+03</pdfrwt>
<totfact> 0.24468198E+05</totfact>
</mgrwt>
</event>
<event>
 4    1  0.5810391E+003  0.1082207E+03  0.7546771E-02  0.1263901E+00
         21   -1    0    0  502  501  0.00000000000E+00  0.00000000000E+00  0.69164813887E+03  0.69164813887E+03  0.00000000000E+00 0. -1.
         21   -1    0    0  504  502 -0.00000000000E+00 -0.00000000000E+00 -0.37862290716E+02  0.37862290716E+02  0.00000000000E+00 0. -1.
         21    1    1    2  503  501 -0.49470561326E+01 -0.10810755753E+03  0.59808358566E+03  0.60779576569E+03  0.00000000000E+00 0. -1.
         21    1    1    2  504  503  0.49470561326E+01  0.10810755753E+03  0.55702262499E+02  0.12171466390E+03  0.00000000000E+00 0. -1.
<mgrwt>
<rscale>  2 0.10822069E+03</rscale>
<asrwt>0</asrwt>
<pdfrwt beam="1">  1       21 0.10640740E+00 0.10822069E+03</pdfrwt>
<pdfrwt beam="2">  1       21 0.58249683E-02 0.10822069E+03</pdfrwt>
<totfact> 0.15156279E+05</totfact>
</mgrwt>
</event>
<event>
 4    1  0.5810391E+003  0.1112158E+03  0.7546771E-02  0.1258335E+00
         21   -1    0    0  504  501  0.00000000000E+00  0.00000000000E+00  0.84565498646E+02  0.84565498646E+02  0.00000000000E+00 0.  1.
         21   -1    0    0  501  502 -0.00000000000E+00 -0.00000000000E+00 -0.61799147121E+03  0.61799147121E+03  0.00000000000E+00 0.  1.
         21    1    1    2  503  502  0.78758869221E+02  0.78523857310E+02 -0.57361909064E+03  0.58430113537E+03  0.00000000000E+00 0.  1.
         21    1    1    2  504  503 -0.78758869221E+02 -0.78523857310E+02  0.40193118081E+02  0.11825583448E+03  0.00000000000E+00 0.  1.
<mgrwt>
<rscale>  2 0.11121581E+03</rscale>
<asrwt>0</asrwt>
<pdfrwt beam="1">  1       21 0.13010076E-01 0.11121581E+03</pdfrwt>
<pdfrwt beam="2">  1       21 0.95075615E-01 0.11121581E+03</pdfrwt>
<totfact> 0.49098174E+04</totfact>
</mgrwt>
</event>
<event>
 4    1  0.5810391E+003  0.1316455E+03  0.7546771E-02  0.1225034E+00
         21   -1    0    0  503  501  0.00000000000E+00  0.00000000000E+00  0.10205297097E+03  0.10205297097E+03  0.00000000000E+00 0. -1.
         21   -1    0    0  504  502 -0.00000000000E+00 -0.00000000000E+00 -0.27703799768E+03  0.27703799768E+03  0.00000000000E+00 0. -1.
         21    1    1    2  503  502  0.12138579999E+03 -0.50951180436E+02  0.30425352184E+02  0.13511564411E+03  0.00000000000E+00 0. -1.
         21    1    1    2  504  501 -0.12138579999E+03  0.50951180436E+02 -0.20541037889E+03  0.24397532454E+03  0.00000000000E+00 0. -1.
<mgrwt>
<rscale>  2 0.13164549E+03</rscale>
<asrwt>0</asrwt>
<pdfrwt beam="1">  1       21 0.15700457E-01 0.13164549E+03</pdfrwt>
<pdfrwt beam="2">  1       21 0.42621230E-01 0.13164549E+03</pdfrwt>
<totfact> 0.19444924E+05</totfact>
</mgrwt>
</event>
<event>
 4    1  0.5810391E+003  0.1130831E+03  0.7546771E-02  0.1254965E+00
         21   -1    0    0  503  501  0.00000000000E+00  0.00000000000E+00  0.67702076603E+02  0.67702076603E+02  0.00000000000E+00 0.  1.
         21   -1    0    0  504  502 -0.00000000000E+00 -0.00000000000E+00 -0.47111667540E+03  0.47111667540E+03  0.00000000000E+00 0.  1.
         21    1    1    2  503  502 -0.88686613056E+02  0.70160349319E+02  0.68150799691E+01  0.11328828389E+03  0.00000000000E+00 0.  1.
         21    1    1    2  504  501  0.88686613056E+02 -0.70160349319E+02 -0.41022967877E+03  0.42553046812E+03  0.00000000000E+00 0.  1.
<mgrwt>
<rscale>  2 0.11308311E+03</rscale>
<asrwt>0</asrwt>
<pdfrwt beam="1">  1       21 0.10415704E-01 0.11308311E+03</pdfrwt>
<pdfrwt beam="2">  1       21 0.72479486E-01 0.11308311E+03</pdfrwt>
<totfact> 0.13332843E+05</totfact>
</mgrwt>
</event>
<event>
 4    1  0.5810391E+003  0.1312962E+03  0.7546771E-02  0.1225545E+00
         21   -1    0    0  504  501  0.00000000000E+00  0.00000000000E+00  0.19129454313E+02  0.19129454313E+02  0.00000000000E+00 0.  1.
         21   -1    0    0  503  502 -0.00000000000E+00 -0.00000000000E+00 -0.18069981193E+04  0.18069981193E+04  0.00000000000E+00 0. -1.
         21    1    1    2  503  501 -0.10406892900E+03  0.80052201650E+02 -0.15404031635E+04  0.15459885521E+04  0.00000000000E+00 0. -1.
         21    1    1    2  504  502  0.10406892900E+03 -0.80052201650E+02 -0.24746550151E+03  0.28013902158E+03  0.00000000000E+00 0.  1.
<mgrwt>
<rscale>  2 0.13129622E+03</rscale>
<asrwt>0</asrwt>
<pdfrwt beam="1">  1       21 0.29429930E-02 0.13129622E+03</pdfrwt>
<pdfrwt beam="2">  1       21 0.27799971E+00 0.13129622E+03</pdfrwt>
<totfact> 0.31763839E+04</totfact>
</mgrwt>
</event>
<event>
 4    1  0.5810391E+003  0.1112618E+03  0.7546771E-02  0.1258251E+00
         21   -1    0    0  503  501  0.00000000000E+00  0.00000000000E+00  0.19091036091E+03  0.19091036091E+03  0.00000000000E+00 0. -1.
         21   -1    0    0  504  502 -0.00000000000E+00 -0.00000000000E+00 -0.71912972416E+02  0.71912972416E+02  0.00000000000E+00 0. -1.
         21    1    1    2  503  502 -0.10635126720E+03  0.32689326342E+02  0.18294463736E+02  0.11275580470E+03  0.00000000000E+00 0. -1.
         21    1    1    2  504  501  0.10635126720E+03 -0.32689326342E+02  0.10070292475E+03  0.15006752862E+03  0.00000000000E+00 0. -1.
<mgrwt>
<rscale>  2 0.11126178E+03</rscale>
<asrwt>0</asrwt>
<pdfrwt beam="1">  1       21 0.29370825E-01 0.11126178E+03</pdfrwt>
<pdfrwt beam="2">  1       21 0.11063534E-01 0.11126178E+03</pdfrwt>
<totfact> 0.75600703E+05</totfact>
</mgrwt>
</event>
<event>
 4    1  0.5810391E+003  0.1115876E+03  0.7546771E-02  0.1257658E+00
         21   -1    0    0  504  501  0.00000000000E+00  0.00000000000E+00  0.14863382626E+04  0.14863382626E+04  0.00000000000E+00 0.  1.
         21   -1    0    0  503  502 -0.00000000000E+00 -0.00000000000E+00 -0.84188725120E+01  0.84188725120E+01  0.00000000000E+00 0.  1.
         21    1    1    2  503  501 -0.80302409174E+02  0.77481084299E+02  0.79135372522E+03  0.79918240331E+03  0.00000000000E+00 0.  1.
         21    1    1    2  504  502  0.80302409174E+02 -0.77481084299E+02  0.68656566485E+03  0.69557473178E+03  0.00000000000E+00 0.  1.
<mgrwt>
<rscale>  2 0.11158761E+03</rscale>
<asrwt>0</asrwt>
<pdfrwt beam="1">  1       21 0.22866722E+00 0.11158761E+03</pdfrwt>
<pdfrwt beam="2">  1       21 0.12952123E-02 0.11158761E+03</pdfrwt>
<totfact> 0.23240990E+05</totfact>
</mgrwt>
</event>
<event>
 4    1  0.5810391E+003  0.1106985E+03  0.7546771E-02  0.1259282E+00
         21   -1    0    0  503  501  0.00000000000E+00  0.00000000000E+00  0.21833249625E+04  0.21833249625E+04  0.00000000000E+00 0.  1.
         21   -1    0    0  501  502 -0.00000000000E+00 -0.00000000000E+00 -0.77549478159E+01  0.77549478159E+01  0.00000000000E+00 0.  1.
         21    1    1    2  503  504  0.80481016617E+02 -0.76006364328E+02  0.16635991096E+04  0.16672780689E+04  0.00000000000E+00 0.  1.
         21    1    1    2  504  502 -0.80481016617E+02  0.76006364328E+02  0.51197090502E+03  0.52380184138E+03  0.00000000000E+00 0.  1.
<mgrwt>
<rscale>  2 0.11069852E+03</rscale>
<asrwt>0</asrwt>
<pdfrwt beam="1">  1       21 0.33589566E+00 0.11069852E+03</pdfrwt>
<pdfrwt beam="2">  1       21 0.11930706E-02 0.11069852E+03</pdfrwt>
<totfact> 0.66000349E+04</totfact>
</mgrwt>
</event>
<event>
 4    1  0.5810391E+003  0.1071508E+03  0.7546771E-02  0.1265939E+00
         21   -1    0    0  502  501  0.00000000000E+00  0.00000000000E+00  0.16328794768E+02  0.16328794768E+02  0.00000000000E+00 0.  1.
         21   -1    0    0  504  502 -0.00000000000E+00 -0.00000000000E+00 -0.14838358822E+04  0.14838358822E+04  0.00000000000E+00 0.  1.
         21    1    1    2  503  501 -0.64791977030E+02 -0.85342224698E+02 -0.18967798396E+03  0.21785094263E+03  0.00000000000E+00 0.  1.
         21    1    1    2  504  503  0.64791977030E+02  0.85342224698E+02 -0.12778291034E+04  0.12823137343E+04  0.00000000000E+00 0.  1.
<mgrwt>
<rscale>  2 0.10715081E+03</rscale>
<asrwt>0</asrwt>
<pdfrwt beam="1">  1       21 0.25121233E-02 0.10715081E+03</pdfrwt>
<pdfrwt beam="2">  1       21 0.22828235E+00 0.10715081E+03</pdfrwt>
<totfact> 0.81174405E+04</totfact>
</mgrwt>
</event>
<event>
 4    1  0.5810391E+003  0.1041426E+03  0.7546771E-02  0.1271818E+00
         21   -1    0    0  503  501  0.00000000000E+00  0.00000000000E+00  0.96232358702E+02  0.96232358702E+02  0.00000000000E+00 0.  1.
         21   -1    0    0  504  502 -0.00000000000E+00 -0.00000000000E+00 -0.13931572747E+03  0.13931572747E+03  0.00000000000E+00 0.  1.
         21    1    1    2  503  502 -0.10305863763E+03 -0.14986371264E+02 -0.73016443552E+02  0.12718913139E+03  0.00000000000E+00 0.  1.
         21    1    1    2  504  501  0.10305863763E+03  0.14986371264E+02  0.29933074787E+02  0.10835895478E+03  0.00000000000E+00 0.  1.
<mgrwt>
<rscale>  2 0.10414257E+03</rscale>
<asrwt>0</asrwt>
<pdfrwt beam="1">  1       21 0.14804978E-01 0.10414257E+03</pdfrwt>
<pdfrwt beam="2">  1       21 0.21433189E-01 0.10414257E+03</pdfrwt>
<totfact> 0.81585698E+05</totfact>
</mgrwt>
</event>
<event>
 4    1  0.5810391E+003  0.1352753E+03  0.7546771E-02  0.1219832E+00
         21   -1    0    0  502  501  0.00000000000E+00  0.00000000000E+00  0.21562440875E+03  0.21562440875E+03  0.00000000000E+00 0. -1.
         21   -1    0    0  504  502 -0.00000000000E+00 -0.00000000000E+00 -0.37788683521E+03  0.37788683521E+03  0.00000000000E+00 0. -1.
         21    1    1    2  503  501  0.10434354287E+01 -0.13527122828E+03  0.18018514282E+03  0.22531329222E+03  0.00000000000E+00 0. -1.
         21    1    1    2  504  503 -0.10434354287E+01  0.13527122828E+03 -0.34244756928E+03  0.36819795173E+03  0.00000000000E+00 0. -1.
<mgrwt>
<rscale>  2 0.13527525E+03</rscale>
<asrwt>0</asrwt>
<pdfrwt beam="1">  1       21 0.33172986E-01 0.13527525E+03</pdfrwt>
<pdfrwt beam="2">  1       21 0.58136436E-01 0.13527525E+03</pdfrwt>
<totfact> 0.25117526E+04</totfact>
</mgrwt>
</event>
<event>
 4    1  0.5810391E+003  0.1124542E+03  0.7546771E-02  0.1256091E+00
         21   -1    0    0  503  501  0.00000000000E+00  0.00000000000E+00  0.11543112306E+03  0.11543112306E+03  0.00000000000E+00 0. -1.
         21   -1    0    0  504  502 -0.00000000000E+00 -0.00000000000E+00 -0.15742335898E+03  0.15742335898E+03  0.00000000000E+00 0. -1.
         21    1    1    2  503  502  0.39381894692E+02  0.10533282510E+03  0.54234643191E+02  0.12484924587E+03  0.00000000000E+00 0. -1.
         21    1    1    2  504  501 -0.39381894692E+02 -0.10533282510E+03 -0.96226879109E+02  0.14800523617E+03  0.00000000000E+00 0. -1.
<mgrwt>
<rscale>  2 0.11245416E+03</rscale>
<asrwt>0</asrwt>
<pdfrwt beam="1">  1       21 0.17758634E-01 0.11245416E+03</pdfrwt>
<pdfrwt beam="2">  1       21 0.24218978E-01 0.11245416E+03</pdfrwt>
<totfact> 0.46784803E+05</totfact>
</mgrwt>
</event>
<event>
 4    1  0.5810391E+003  0.1712462E+03  0.7546771E-02  0.1176554E+00
         21   -1    0    0  503  501  0.00000000000E+00  0.00000000000E+00  0.15471911401E+03  0.15471911401E+03  0.00000000000E+00 0. -1.
         21   -1    0    0  504  502 -0.00000000000E+00 -0.00000000000E+00 -0.20020050641E+03  0.20020050641E+03  0.00000000000E+00 0. -1.
         21    1    1    2  503  502 -0.17110551402E+03 -0.69408144928E+01 -0.63693272717E+02  0.18270770324E+03  0.00000000000E+00 0. -1.
         21    1    1    2  504  501  0.17110551402E+03  0.69408144928E+01  0.18211880313E+02  0.17221191718E+03  0.00000000000E+00 0. -1.
<mgrwt>
<rscale>  2 0.17124623E+03</rscale>
<asrwt>0</asrwt>
<pdfrwt beam="1">  1       21 0.23802941E-01 0.17124623E+03</pdfrwt>
<pdfrwt beam="2">  1       21 0.30800078E-01 0.17124623E+03</pdfrwt>
<totfact> 0.16946131E+05</totfact>
</mgrwt>
</event>
<event>
 4    1  0.5810391E+003  0.1084951E+03  0.7546771E-02  0.1263382E+00
         21   -1    0    0  503  501  0.00000000000E+00  0.00000000000E+00  0.36476214080E+02  0.36476214080E+02  0.00000000000E+00 0. -1.
         21   -1    0    0  501  502 -0.00000000000E+00 -0.00000000000E+00 -0.59255766984E+03  0.59255766984E+03  0.00000000000E+00 0.  1.
         21    1    1    2  503  504  0.10759737444E+03 -0.13927754626E+02 -0.65794769074E+02  0.12688628363E+03  0.00000000000E+00 0. -1.
         21    1    1    2  504  502 -0.10759737444E+03  0.13927754626E+02 -0.49028668669E+03  0.50214760029E+03  0.00000000000E+00 0.  1.
<mgrwt>
<rscale>  2 0.10849506E+03</rscale>
<asrwt>0</asrwt>
<pdfrwt beam="1">  1       21 0.56117255E-02 0.10849506E+03</pdfrwt>
<pdfrwt beam="2">  1       21 0.91162714E-01 0.10849506E+03</pdfrwt>
<totfact> 0.23102236E+05</totfact>
</mgrwt>
</event>
<event>
 4    1  0.5810391E+003  0.1673365E+03  0.7546771E-02  0.1180654E+00
         21   -1    0    0  503  501  0.00000000000E+00  0.00000000000E+00  0.10748527830E+03  0.10748527830E+03  0.00000000000E+00 0. -1.
         21   -1    0    0  504  502 -0.00000000000E+00 -0.00000000000E+00 -0.26236810294E+03  0.26236810294E+03  0.00000000000E+00 0. -1.
         21    1    1    2  503  502  0.83185140330E+02 -0.14519546616E+03 -0.61898462778E+02  0.17841779804E+03  0.00000000000E+00 0. -1.
         21    1    1    2  504  501 -0.83185140330E+02  0.14519546616E+03 -0.92984361860E+02  0.19143558320E+03  0.00000000000E+00 0. -1.
<mgrwt>
<rscale>  2 0.16733646E+03</rscale>
<asrwt>0</asrwt>
<pdfrwt beam="1">  1       21 0.16536197E-01 0.16733646E+03</pdfrwt>
<pdfrwt beam="2">  1       21 0.40364323E-01 0.16733646E+03</pdfrwt>
<totfact> 0.19557954E+05</totfact>
</mgrwt>
</event>
<event>
 4    1  0.5810391E+003  0.1322211E+03  0.7546771E-02  0.1224197E+00
         21   -1    0    0  502  501  0.00000000000E+00  0.00000000000E+00  0.12525720160E+04  0.12525720160E+04  0.00000000000E+00 0.  1.
         21   -1    0    0  503  502 -0.00000000000E+00 -0.00000000000E+00 -0.14974307345E+02  0.14974307345E+02  0.00000000000E+00 0.  1.
         21    1    1    2  503  504  0.11998891494E+03  0.55543609448E+02  0.45362623614E+03  0.47250311573E+03  0.00000000000E+00 0.  1.
         21    1    1    2  504  501 -0.11998891494E+03 -0.55543609448E+02  0.78397147253E+03  0.79504320763E+03  0.00000000000E+00 0.  1.
<mgrwt>
<rscale>  2 0.13222115E+03</rscale>
<asrwt>0</asrwt>
<pdfrwt beam="1">  1       21 0.19270331E+00 0.13222115E+03</pdfrwt>
<pdfrwt beam="2">  1       21 0.23037406E-02 0.13222115E+03</pdfrwt>
<totfact> 0.15112750E+05</totfact>
</mgrwt>
</event>
<event>
 4    1  0.5810391E+003  0.1082731E+03  0.7546771E-02  0.1263802E+00
         21   -1    0    0  504  501  0.00000000000E+00  0.00000000000E+00  0.10740072631E+03  0.10740072631E+03  0.00000000000E+00 0.  1.
         21   -1    0    0  501  502 -0.00000000000E+00 -0.00000000000E+00 -0.20244563987E+03  0.20244563987E+03  0.00000000000E+00 0.  1.
         21    1    1    2  503  502  0.31721031233E+02  0.10352215567E+03 -0.15269127478E+03  0.18718356213E+03  0.00000000000E+00 0.  1.
         21    1    1    2  504  503 -0.31721031233E+02 -0.10352215567E+03  0.57646361213E+02  0.12266280405E+03  0.00000000000E+00 0.  1.
<mgrwt>
<rscale>  2 0.10827308E+03</rscale>
<asrwt>0</asrwt>
<pdfrwt beam="1">  1       21 0.16523189E-01 0.10827308E+03</pdfrwt>
<pdfrwt beam="2">  1       21 0.31145483E-01 0.10827308E+03</pdfrwt>
<totfact> 0.33069113E+05</totfact>
</mgrwt>
</event>
<event>
 4    1  0.5810391E+003  0.1259778E+03  0.7546771E-02  0.1233549E+00
         21   -1    0    0  503  501  0.00000000000E+00  0.00000000000E+00  0.99023657302E+02  0.99023657302E+02  0.00000000000E+00 0. -1.
         21   -1    0    0  501  502 -0.00000000000E+00 -0.00000000000E+00 -0.61003219245E+03  0.61003219245E+03  0.00000000000E+00 0.  1.
         21    1    1    2  503  504  0.26365839800E+02 -0.12318783560E+03  0.48910793289E+02  0.13513943188E+03  0.00000000000E+00 0. -1.
         21    1    1    2  504  502 -0.26365839800E+02  0.12318783560E+03 -0.55991932844E+03  0.57391641788E+03  0.00000000000E+00 0.  1.
<mgrwt>
<rscale>  2 0.12597778E+03</rscale>
<asrwt>0</asrwt>
<pdfrwt beam="1">  1       21 0.15234409E-01 0.12597778E+03</pdfrwt>
<pdfrwt beam="2">  1       21 0.93851106E-01 0.12597778E+03</pdfrwt>
<totfact> 0.37764929E+04</totfact>
</mgrwt>
</event>
<event>
 4    1  0.5810391E+003  0.1030591E+03  0.7546771E-02  0.1273992E+00
         21   -1    0    0  504  501  0.00000000000E+00  0.00000000000E+00  0.34877682511E+03  0.34877682511E+03  0.00000000000E+00 0.  1.
         21   -1    0    0  503  502 -0.00000000000E+00 -0.00000000000E+00 -0.65481480431E+02  0.65481480431E+02  0.00000000000E+00 0.  1.
         21    1    1    2  503  501  0.33597725786E+02 -0.97428772518E+02 -0.98461431049E+01  0.10352835083E+03  0.00000000000E+00 0.  1.
         21    1    1    2  504  502 -0.33597725786E+02  0.97428772518E+02  0.29314148779E+03  0.31072995471E+03  0.00000000000E+00 0.  1.
<mgrwt>
<rscale>  2 0.10305907E+03</rscale>
<asrwt>0</asrwt>
<pdfrwt beam="1">  1       21 0.53657972E-01 0.10305907E+03</pdfrwt>
<pdfrwt beam="2">  1       21 0.10074074E-01 0.10305907E+03</pdfrwt>
<totfact> 0.26872211E+05</totfact>
</mgrwt>
</event>
<event>
 4    1  0.5810391E+003  0.1080800E+03  0.7546771E-02  0.1264167E+00
         21   -1    0    0  504  501  0.00000000000E+00  0.00000000000E+00  0.97207193558E+03  0.97207193558E+03  0.00000000000E+00 0. -1.
         21   -1    0    0  503  502 -0.00000000000E+00 -0.00000000000E+00 -0.16505523280E+03  0.16505523280E+03  0.00000000000E+00 0.  1.
         21    1    1    2  503  501  0.24300505268E+02 -0.10531277096E+03  0.95098361322E+03  0.95710559861E+03  0.00000000000E+00 0. -1.
         21    1    1    2  504  502 -0.24300505268E+02  0.10531277096E+03 -0.14396691043E+03  0.18002156977E+03  0.00000000000E+00 0.  1.
<mgrwt>
<rscale>  2 0.10808004E+03</rscale>
<asrwt>0</asrwt>
<pdfrwt beam="1">  1       21 0.14954953E+00 0.10808004E+03</pdfrwt>
<pdfrwt beam="2">  1       21 0.25393113E-01 0.10808004E+03</pdfrwt>
<totfact> 0.48385374E+03</totfact>
</mgrwt>
</event>
<event>
 4    1  0.5810391E+003  0.1166711E+03  0.7546771E-02  0.1248692E+00
         21   -1    0    0  503  501  0.00000000000E+00  0.00000000000E+00  0.84433297195E+02  0.84433297195E+02  0.00000000000E+00 0. -1.
         21   -1    0    0  504  502 -0.00000000000E+00 -0.00000000000E+00 -0.21790013115E+03  0.21790013115E+03  0.00000000000E+00 0. -1.
         21    1    1    2  503  502  0.99631602084E+02 -0.60709858055E+02 -0.14383292656E+03  0.18520273692E+03  0.00000000000E+00 0. -1.
         21    1    1    2  504  501 -0.99631602084E+02  0.60709858055E+02  0.10366092601E+02  0.11713069143E+03  0.00000000000E+00 0. -1.
<mgrwt>
<rscale>  2 0.11667109E+03</rscale>
<asrwt>0</asrwt>
<pdfrwt beam="1">  1       21 0.12989738E-01 0.11667109E+03</pdfrwt>
<pdfrwt beam="2">  1       21 0.33523097E-01 0.11667109E+03</pdfrwt>
<totfact> 0.44093289E+05</totfact>
</mgrwt>
</event>
<event>
 4    1  0.5810391E+003  0.1174649E+03  0.7546771E-02  0.1247339E+00
         21   -1    0    0  504  501  0.00000000000E+00  0.00000000000E+00  0.18495966668E+04  0.18495966668E+04  0.00000000000E+00 0.  1.
         21   -1    0    0  503  502 -0.00000000000E+00 -0.00000000000E+00 -0.27085127085E+02  0.27085127085E+02  0.00000000000E+00 0.  1.
         21    1    1    2  503  501  0.75664059051E+02  0.89849598020E+02  0.11252320439E+03  0.16266367641E+03  0.00000000000E+00 0.  1.
         21    1    1    2  504  502 -0.75664059051E+02 -0.89849598020E+02  0.17099883353E+04  0.17140181174E+04  0.00000000000E+00 0.  1.
<mgrwt>
<rscale>  2 0.11746489E+03</rscale>
<asrwt>0</asrwt>
<pdfrwt beam="1">  1       21 0.28455323E+00 0.11746489E+03</pdfrwt>
<pdfrwt beam="2">  1       21 0.41669441E-02 0.11746489E+03</pdfrwt>
<totfact> 0.16755175E+04</totfact>
</mgrwt>
</event>
<event>
 4    1  0.5810391E+003  0.1495957E+03  0.7546771E-02  0.1200971E+00
         21   -1    0    0  503  501  0.00000000000E+00  0.00000000000E+00  0.12933700079E+02  0.12933700079E+02  0.00000000000E+00 0.  1.
         21   -1    0    0  504  502 -0.00000000000E+00 -0.00000000000E+00 -0.20866893054E+04  0.20866893054E+04  0.00000000000E+00 0.  1.
         21    1    1    2  503  502  0.20067291448E+02  0.14824360234E+03 -0.14707479916E+04  0.14783364017E+04  0.00000000000E+00 0.  1.
         21    1    1    2  504  501 -0.20067291448E+02 -0.14824360234E+03 -0.60300761373E+03  0.62128660378E+03  0.00000000000E+00 0.  1.
<mgrwt>
<rscale>  2 0.14959566E+03</rscale>
<asrwt>0</asrwt>
<pdfrwt beam="1">  1       21 0.19898017E-02 0.14959566E+03</pdfrwt>
<pdfrwt beam="2">  1       21 0.32102885E+00 0.14959566E+03</pdfrwt>
<totfact> 0.33585991E+04</totfact>
</mgrwt>
</event>
<event>
 4    1  0.5810391E+003  0.1127871E+03  0.7546771E-02  0.1255494E+00
         21   -1    0    0  504  501  0.00000000000E+00  0.00000000000E+00  0.68035593069E+02  0.68035593069E+02  0.00000000000E+00 0.  1.
         21   -1    0    0  501  502 -0.00000000000E+00 -0.00000000000E+00 -0.21328357168E+03  0.21328357168E+03  0.00000000000E+00 0.  1.
         21    1    1    2  503  502 -0.31052508103E+02 -0.10842823397E+03 -0.12202559398E+03  0.16616613905E+03  0.00000000000E+00 0.  1.
         21    1    1    2  504  503  0.31052508103E+02  0.10842823397E+03 -0.23222384634E+02  0.11515302570E+03  0.00000000000E+00 0.  1.
<mgrwt>
<rscale>  2 0.11278715E+03</rscale>
<asrwt>0</asrwt>
<pdfrwt beam="1">  1       21 0.10467014E-01 0.11278715E+03</pdfrwt>
<pdfrwt beam="2">  1       21 0.32812857E-01 0.11278715E+03</pdfrwt>
<totfact> 0.67274430E+05</totfact>
</mgrwt>
</event>
<event>
 4    1  0.5810391E+003  0.1091038E+03  0.7546771E-02  0.1262239E+00
         21   -1    0    0  503  501  0.00000000000E+00  0.00000000000E+00  0.11930089875E+04  0.11930089875E+04  0.00000000000E+00 0.  1.
         21   -1    0    0  501  502 -0.00000000000E+00 -0.00000000000E+00 -0.99877607281E+01  0.99877607281E+01  0.00000000000E+00 0. -1.
         21    1    1    2  503  504 -0.58875198366E+02 -0.91855069108E+02  0.61047580568E+03  0.62014865317E+03  0.00000000000E+00 0. -1.
         21    1    1    2  504  502  0.58875198366E+02  0.91855069108E+02  0.57254542107E+03  0.58284809504E+03  0.00000000000E+00 0.  1.
<mgrwt>
<rscale>  2 0.10910382E+03</rscale>
<asrwt>0</asrwt>
<pdfrwt beam="1">  1       21 0.18353973E+00 0.10910382E+03</pdfrwt>
<pdfrwt beam="2">  1       21 0.15365795E-02 0.10910382E+03</pdfrwt>
<totfact> 0.33634503E+05</totfact>
</mgrwt>
</event>
<event>
 4    1  0.5810391E+003  0.1317224E+03  0.7546771E-02  0.1224922E+00
         21   -1    0    0  503  501  0.00000000000E+00  0.00000000000E+00  0.83918335093E+03  0.83918335093E+03  0.00000000000E+00 0.  1.
         21   -1    0    0  504  502 -0.00000000000E+00 -0.00000000000E+00 -0.56960930738E+02  0.56960930738E+02  0.00000000000E+00 0.  1.
         21    1    1    2  503  502 -0.15682631676E+01 -0.13171307345E+03  0.74873278116E+03  0.76023126136E+03  0.00000000000E+00 0.  1.
         21    1    1    2  504  501  0.15682631676E+01  0.13171307345E+03  0.33489639031E+02  0.13591302031E+03  0.00000000000E+00 0.  1.
<mgrwt>
<rscale>  2 0.13172241E+03</rscale>
<asrwt>0</asrwt>
<pdfrwt beam="1">  1       21 0.12910512E+00 0.13172241E+03</pdfrwt>
<pdfrwt beam="2">  1       21 0.87632207E-02 0.13172241E+03</pdfrwt>
<totfact> 0.46629097E+04</totfact>
</mgrwt>
</event>
<event>
 4    1  0.5810391E+003  0.1091636E+03  0.7546771E-02  0.1262127E+00
         21   -1    0    0  503  501  0.00000000000E+00  0.00000000000E+00  0.82076229630E+01  0.82076229630E+01  0.00000000000E+00 0.  1.
         21   -1    0    0  504  502 -0.00000000000E+00 -0.00000000000E+00 -0.21811360609E+04  0.21811360609E+04  0.00000000000E+00 0.  1.
         21    1    1    2  503  502 -0.10027631291E+03  0.43143480372E+02 -0.45350637823E+03  0.46645978812E+03  0.00000000000E+00 0.  1.
         21    1    1    2  504  501  0.10027631291E+03 -0.43143480372E+02 -0.17194220597E+04  0.17228838958E+04  0.00000000000E+00 0.  1.
<mgrwt>
<rscale>  2 0.10916363E+03</rscale>
<asrwt>0</asrwt>
<pdfrwt beam="1">  1       21 0.12627102E-02 0.10916363E+03</pdfrwt>
<pdfrwt beam="2">  1       21 0.33555967E+00 0.10916363E+03</pdfrwt>
<totfact> 0.60751309E+04</totfact>
</mgrwt>
</event>
<event>
 4    1  0.5810391E+003  0.1062004E+03  0.7546771E-02  0.1267772E+00
         21   -1    0    0  503  501  0.00000000000E+00  0.00000000000E+00  0.21543074050E+02  0.21543074050E+02  0.00000000000E+00 0.  1.
         21   -1    0    0  501  502 -0.00000000000E+00 -0.00000000000E+00 -0.90159787616E+03  0.90159787616E+03  0.00000000000E+00 0. -1.
         21    1    1    2  503  504 -0.70597222779E+02  0.79338240147E+02 -0.14113534494E+03  0.17662873437E+03  0.00000000000E+00 0.  1.
         21    1    1    2  504  502  0.70597222779E+02 -0.79338240147E+02 -0.73891945717E+03  0.74651221584E+03  0.00000000000E+00 0. -1.
<mgrwt>
<rscale>  2 0.10620040E+03</rscale>
<asrwt>0</asrwt>
<pdfrwt beam="1">  1       21 0.33143188E-02 0.10620040E+03</pdfrwt>
<pdfrwt beam="2">  1       21 0.13870738E+00 0.10620040E+03</pdfrwt>
<totfact> 0.20327065E+05</totfact>
</mgrwt>
</event>
<event>
 4    1  0.5810391E+003  0.1015877E+03  0.7546771E-02  0.1276992E+00
         21   -1    0    0  503  501  0.00000000000E+00  0.00000000000E+00  0.22012487866E+03  0.22012487866E+03  0.00000000000E+00 0. -1.
         21   -1    0    0  504  502 -0.00000000000E+00 -0.00000000000E+00 -0.10423280491E+03  0.10423280491E+03  0.00000000000E+00 0.  1.
         21    1    1    2  503  502 -0.10111495206E+03 -0.97892584581E+01 -0.62352083508E+02  0.11919666702E+03  0.00000000000E+00 0.  1.
         21    1    1    2  504  501  0.10111495206E+03  0.97892584581E+01  0.17824415727E+03  0.20516101655E+03  0.00000000000E+00 0. -1.
<mgrwt>
<rscale>  2 0.10158771E+03</rscale>
<asrwt>0</asrwt>
<pdfrwt beam="1">  1       21 0.33865366E-01 0.10158771E+03</pdfrwt>
<pdfrwt beam="2">  1       21 0.16035816E-01 0.10158771E+03</pdfrwt>
<totfact> 0.29714514E+05</totfact>
</mgrwt>
</event>
<event>
 4    1  0.5810391E+003  0.1134012E+03  0.7546771E-02  0.1254398E+00
         21   -1    0    0  502  501  0.00000000000E+00  0.00000000000E+00  0.98818421596E+02  0.98818421596E+02  0.00000000000E+00 0.  1.
         21   -1    0    0  503  502 -0.00000000000E+00 -0.00000000000E+00 -0.31825803753E+03  0.31825803753E+03  0.00000000000E+00 0.  1.
         21    1    1    2  503  504  0.92864236929E+02  0.65084992278E+02 -0.27005023968E+03  0.29289410146E+03  0.00000000000E+00 0.  1.
         21    1    1    2  504  501 -0.92864236929E+02 -0.65084992278E+02  0.50610623742E+02  0.12418235767E+03  0.00000000000E+00 0.  1.
<mgrwt>
<rscale>  2 0.11340116E+03</rscale>
<asrwt>0</asrwt>
<pdfrwt beam="1">  1       21 0.15202834E-01 0.11340116E+03</pdfrwt>
<pdfrwt beam="2">  1       21 0.48962774E-01 0.11340116E+03</pdfrwt>
<totfact> 0.15630275E+05</totfact>
</mgrwt>
</event>
<event>
 4    1  0.5810391E+003  0.1150116E+03  0.7546771E-02  0.1251561E+00
         21   -1    0    0  503  501  0.00000000000E+00  0.00000000000E+00  0.38837229143E+03  0.38837229143E+03  0.00000000000E+00 0. -1.
         21   -1    0    0  504  502 -0.00000000000E+00 -0.00000000000E+00 -0.65423523525E+02  0.65423523525E+02  0.00000000000E+00 0.  1.
         21    1    1    2  503  502  0.96249461021E+02  0.62958034173E+02  0.31857615222E+03  0.33870110360E+03  0.00000000000E+00 0. -1.
         21    1    1    2  504  501 -0.96249461021E+02 -0.62958034173E+02  0.43726156804E+01  0.11509471135E+03  0.00000000000E+00 0.  1.
<mgrwt>
<rscale>  2 0.11501162E+03</rscale>
<asrwt>0</asrwt>
<pdfrwt beam="1">  1       21 0.59749582E-01 0.11501162E+03</pdfrwt>
<pdfrwt beam="2">  1       21 0.10065158E-01 0.11501162E+03</pdfrwt>
<totfact> 0.21424770E+05</totfact>
</mgrwt>
</event>
<event>
 4    1  0.5810391E+003  0.1084206E+03  0.7546771E-02  0.1263523E+00
         21   -1    0    0  502  501  0.00000000000E+00  0.00000000000E+00  0.53085204946E+02  0.53085204946E+02  0.00000000000E+00 0. -1.
         21   -1    0    0  503  502 -0.00000000000E+00 -0.00000000000E+00 -0.27509810226E+03  0.27509810226E+03  0.00000000000E+00 0. -1.
         21    1    1    2  503  504  0.71940497045E+02 -0.81114696953E+02 -0.18347881458E+03  0.21311852237E+03  0.00000000000E+00 0. -1.
         21    1    1    2  504  501 -0.71940497045E+02  0.81114696953E+02 -0.38534082728E+02  0.11506478483E+03  0.00000000000E+00 0. -1.
<mgrwt>
<rscale>  2 0.10842061E+03</rscale>
<asrwt>0</asrwt>
<pdfrwt beam="1">  1       21 0.81669547E-02 0.10842061E+03</pdfrwt>
<pdfrwt beam="2">  1       21 0.42322785E-01 0.10842061E+03</pdfrwt>
<totfact> 0.62611695E+05</totfact>
</mgrwt>
</event>
<event>
 4    1  0.5810391E+003  0.1039082E+03  0.7546771E-02  0.1272286E+00
         21   -1    0    0  504  501  0.00000000000E+00  0.00000000000E+00  0.25138145738E+02  0.25138145738E+02  0.00000000000E+00 0.  1.
         21   -1    0    0  501  502 -0.00000000000E+00 -0.00000000000E+00 -0.58605187179E+03  0.58605187179E+03  0.00000000000E+00 0.  1.
         21    1    1    2  503  502  0.63738390113E+02 -0.82063010372E+02 -0.43840066575E+03  0.45054640580E+03  0.00000000000E+00 0.  1.
         21    1    1    2  504  503 -0.63738390113E+02  0.82063010372E+02 -0.12251306030E+03  0.16064361173E+03  0.00000000000E+00 0.  1.
<mgrwt>
<rscale>  2 0.10390823E+03</rscale>
<asrwt>0</asrwt>
<pdfrwt beam="1">  1       21 0.38674073E-02 0.10390823E+03</pdfrwt>
<pdfrwt beam="2">  1       21 0.90161819E-01 0.10390823E+03</pdfrwt>
<totfact> 0.44085817E+05</totfact>
</mgrwt>
</event>
<event>
 4    1  0.5810391E+003  0.1010826E+03  0.7546771E-02  0.1278036E+00
         21   -1    0    0  504  501  0.00000000000E+00  0.00000000000E+00  0.79553654912E+02  0.79553654912E+02  0.00000000000E+00 0.  1.
         21   -1    0    0  503  502 -0.00000000000E+00 -0.00000000000E+00 -0.78196220202E+03  0.78196220202E+03  0.00000000000E+00 0. -1.
         21    1    1    2  503  501 -0.43344809992E+02 -0.91317654831E+02  0.42591766236E+02  0.10968931210E+03  0.00000000000E+00 0.  1.
         21    1    1    2  504  502  0.43344809992E+02  0.91317654831E+02 -0.74500031334E+03  0.75182654483E+03  0.00000000000E+00 0. -1.
<mgrwt>
<rscale>  2 0.10108257E+03</rscale>
<asrwt>0</asrwt>
<pdfrwt beam="1">  1       21 0.12239024E-01 0.10108257E+03</pdfrwt>
<pdfrwt beam="2">  1       21 0.12030187E+00 0.10108257E+03</pdfrwt>
<totfact> 0.31643595E+04</totfact>
</mgrwt>
</event>
<event>
 4    1  0.5810391E+003  0.1056242E+03  0.7546771E-02  0.1268895E+00
         21   -1    0    0  504  501  0.00000000000E+00  0.00000000000E+00  0.10910964260E+03  0.10910964260E+03  0.00000000000E+00 0.  1.
         21   -1    0    0  503  502 -0.00000000000E+00 -0.00000000000E+00 -0.10832089803E+03  0.10832089803E+03  0.00000000000E+00 0.  1.
         21    1    1    2  503  501  0.62140928897E+02  0.85410677159E+02  0.26131201335E+02  0.10880863247E+03  0.00000000000E+00 0.  1.
         21    1    1    2  504  502 -0.62140928897E+02 -0.85410677159E+02 -0.25342456764E+02  0.10862190816E+03  0.00000000000E+00 0.  1.
<mgrwt>
<rscale>  2 0.10562423E+03</rscale>
<asrwt>0</asrwt>
<pdfrwt beam="1">  1       21 0.16786099E-01 0.10562423E+03</pdfrwt>
<pdfrwt beam="2">  1       21 0.16664754E-01 0.10562423E+03</pdfrwt>
<totfact> 0.10313387E+06</totfact>
</mgrwt>
</event>
<event>
 4    1  0.5810391E+003  0.1172952E+03  0.7546771E-02  0.1247627E+00
         21   -1    0    0  502  501  0.00000000000E+00  0.00000000000E+00  0.12271022979E+03  0.12271022979E+03  0.00000000000E+00 0. -1.
         21   -1    0    0  504  502 -0.00000000000E+00 -0.00000000000E+00 -0.35417925340E+03  0.35417925340E+03  0.00000000000E+00 0.  1.
         21    1    1    2  503  501 -0.58612431638E+02 -0.10160088475E+03  0.81388746333E+02  0.14276654003E+03  0.00000000000E+00 0. -1.
         21    1    1    2  504  503  0.58612431638E+02  0.10160088475E+03 -0.31285776995E+03  0.33412294315E+03  0.00000000000E+00 0.  1.
<mgrwt>
<rscale>  2 0.11729517E+03</rscale>
<asrwt>0</asrwt>
<pdfrwt beam="1">  1       21 0.18878497E-01 0.11729517E+03</pdfrwt>
<pdfrwt beam="2">  1       21 0.54489116E-01 0.11729517E+03</pdfrwt>
<totfact> 0.84435369E+04</totfact>
</mgrwt>
</event>
<event>
 4    1  0.5810391E+003  0.1163186E+03  0.7546771E-02  0.1249297E+00
         21   -1    0    0  504  501  0.00000000000E+00  0.00000000000E+00  0.10694640054E+04  0.10694640054E+04  0.00000000000E+00 0. -1.
         21   -1    0    0  503  502 -0.00000000000E+00 -0.00000000000E+00 -0.36229379313E+02  0.36229379313E+02  0.00000000000E+00 0. -1.
         21    1    1    2  503  501  0.11115700975E+03 -0.34265828940E+02  0.96261148961E+03  0.96961379310E+03  0.00000000000E+00 0. -1.
         21    1    1    2  504  502 -0.11115700975E+03  0.34265828940E+02  0.70623136502E+02  0.13607959163E+03  0.00000000000E+00 0. -1.
<mgrwt>
<rscale>  2 0.11631865E+03</rscale>
<asrwt>0</asrwt>
<pdfrwt beam="1">  1       21 0.16453290E+00 0.11631865E+03</pdfrwt>
<pdfrwt beam="2">  1       21 0.55737515E-02 0.11631865E+03</pdfrwt>
<totfact> 0.54799321E+04</totfact>
</mgrwt>
</event>
<event>
 4    1  0.5810391E+003  0.1804851E+03  0.7546771E-02  0.1167334E+00
         21   -1    0    0  504  501  0.00000000000E+00  0.00000000000E+00  0.66949168288E+03  0.66949168288E+03  0.00000000000E+00 0.  1.
         21   -1    0    0  503  502 -0.00000000000E+00 -0.00000000000E+00 -0.74527689463E+02  0.74527689463E+02  0.00000000000E+00 0.  1.
         21    1    1    2  503  501 -0.17184754067E+03  0.55166186840E+02  0.78299139215E+02  0.19673749162E+03  0.00000000000E+00 0.  1.
         21    1    1    2  504  502  0.17184754067E+03 -0.55166186840E+02  0.51666485420E+03  0.54728188073E+03  0.00000000000E+00 0.  1.
<mgrwt>
<rscale>  2 0.18048514E+03</rscale>
<asrwt>0</asrwt>
<pdfrwt beam="1">  1       21 0.10299872E+00 0.18048514E+03</pdfrwt>
<pdfrwt beam="2">  1       21 0.11465799E-01 0.18048514E+03</pdfrwt>
<totfact> 0.49001951E+04</totfact>
</mgrwt>
</event>
<event>
 4    1  0.5810391E+003  0.1796193E+03  0.7546771E-02  0.1168172E+00
         21   -1    0    0  502  501  0.00000000000E+00  0.00000000000E+00  0.10344248617E+03  0.10344248617E+03  0.00000000000E+00 0.  1.
         21   -1    0    0  503  502 -0.00000000000E+00 -0.00000000000E+00 -0.12016376316E+04  0.12016376316E+04  0.00000000000E+00 0.  1.
         21    1    1    2  503  504  0.16880709229E+03  0.61377903723E+02 -0.11106016104E+04  0.11250328966E+04  0.00000000000E+00 0.  1.
         21    1    1    2  504  501 -0.16880709229E+03 -0.61377903723E+02  0.12406464961E+02  0.18004722116E+03  0.00000000000E+00 0.  1.
<mgrwt>
<rscale>  2 0.17961927E+03</rscale>
<asrwt>0</asrwt>
<pdfrwt beam="1">  1       21 0.15914229E-01 0.17961927E+03</pdfrwt>
<pdfrwt beam="2">  1       21 0.18486732E+00 0.17961927E+03</pdfrwt>
<totfact> 0.60102960E+03</totfact>
</mgrwt>
</event>
<event>
 4    1  0.5810391E+003  0.1198247E+03  0.7546771E-02  0.1243387E+00
         21   -1    0    0  504  501  0.00000000000E+00  0.00000000000E+00  0.52713316455E+02  0.52713316455E+02  0.00000000000E+00 0. -1.
         21   -1    0    0  503  502 -0.00000000000E+00 -0.00000000000E+00 -0.41428588465E+03  0.41428588465E+03  0.00000000000E+00 0.  1.
         21    1    1    2  503  501  0.71981731893E+02 -0.95794505922E+02 -0.31744554403E+03  0.33930757510E+03  0.00000000000E+00 0.  1.
         21    1    1    2  504  502 -0.71981731893E+02  0.95794505922E+02 -0.44127024160E+02  0.12769162601E+03  0.00000000000E+00 0. -1.
<mgrwt>
<rscale>  2 0.11982469E+03</rscale>
<asrwt>0</asrwt>
<pdfrwt beam="1">  1       21 0.81097414E-02 0.11982469E+03</pdfrwt>
<pdfrwt beam="2">  1       21 0.63736287E-01 0.11982469E+03</pdfrwt>
<totfact> 0.27121042E+05</totfact>
</mgrwt>
</event>
<event>
 4    1  0.5810391E+003  0.1249842E+03  0.7546771E-02  0.1235094E+00
         21   -1    0    0  504  501  0.00000000000E+00  0.00000000000E+00  0.73408345022E+02  0.73408345022E+02  0.00000000000E+00 0. -1.
         21   -1    0    0  503  502 -0.00000000000E+00 -0.00000000000E+00 -0.21297123615E+03  0.21297123615E+03  0.00000000000E+00 0.  1.
         21    1    1    2  503  501  0.83548821277E+01 -0.12470459799E+03 -0.73882640168E+02  0.14518844766E+03  0.00000000000E+00 0.  1.
         21    1    1    2  504  502 -0.83548821277E+01  0.12470459799E+03 -0.65680250956E+02  0.14119113351E+03  0.00000000000E+00 0. -1.
<mgrwt>
<rscale>  2 0.12498416E+03</rscale>
<asrwt>0</asrwt>
<pdfrwt beam="1">  1       21 0.11293592E-01 0.12498416E+03</pdfrwt>
<pdfrwt beam="2">  1       21 0.32764806E-01 0.12498416E+03</pdfrwt>
<totfact> 0.59024262E+05</totfact>
</mgrwt>
</event>
<event>
 4    1  0.5810391E+003  0.1219371E+03  0.7546771E-02  0.1239935E+00
         21   -1    0    0  502  501  0.00000000000E+00  0.00000000000E+00  0.49211807590E+02  0.49211807590E+02  0.00000000000E+00 0.  1.
         21   -1    0    0  504  502 -0.00000000000E+00 -0.00000000000E+00 -0.36355097222E+03  0.36355097222E+03  0.00000000000E+00 0. -1.
         21    1    1    2  503  501 -0.11875934844E+03 -0.27656195320E+02 -0.72344209412E+02  0.14178269506E+03  0.00000000000E+00 0.  1.
         21    1    1    2  504  503  0.11875934844E+03  0.27656195320E+02 -0.24199495522E+03  0.27098008475E+03  0.00000000000E+00 0. -1.
<mgrwt>
<rscale>  2 0.12193707E+03</rscale>
<asrwt>0</asrwt>
<pdfrwt beam="1">  1       21 0.75710476E-02 0.12193707E+03</pdfrwt>
<pdfrwt beam="2">  1       21 0.55930917E-01 0.12193707E+03</pdfrwt>
<totfact> 0.40237327E+05</totfact>
</mgrwt>
</event>
<event>
 4    1  0.5810391E+003  0.1217215E+03  0.7546771E-02  0.1240284E+00
         21   -1    0    0  503  501  0.00000000000E+00  0.00000000000E+00  0.17805459317E+03  0.17805459317E+03  0.00000000000E+00 0. -1.
         21   -1    0    0  501  502 -0.00000000000E+00 -0.00000000000E+00 -0.12701738723E+03  0.12701738723E+03  0.00000000000E+00 0.  1.
         21    1    1    2  503  504 -0.39251132048E+02 -0.11521923202E+03  0.11509814616E+03  0.16752225537E+03  0.00000000000E+00 0. -1.
         21    1    1    2  504  502  0.39251132048E+02  0.11521923202E+03 -0.64060940219E+02  0.13754972503E+03  0.00000000000E+00 0.  1.
<mgrwt>
<rscale>  2 0.12172150E+03</rscale>
<asrwt>0</asrwt>
<pdfrwt beam="1">  1       21 0.27393014E-01 0.12172150E+03</pdfrwt>
<pdfrwt beam="2">  1       21 0.19541137E-01 0.12172150E+03</pdfrwt>
<totfact> 0.31071633E+05</totfact>
</mgrwt>
</event>
<event>
 4    1  0.5810391E+003  0.1134931E+03  0.7546771E-02  0.1254235E+00
         21   -1    0    0  503  501  0.00000000000E+00  0.00000000000E+00  0.12976016420E+04  0.12976016420E+04  0.00000000000E+00 0.  1.
         21   -1    0    0  504  502 -0.00000000000E+00 -0.00000000000E+00 -0.34587656235E+02  0.34587656235E+02  0.00000000000E+00 0. -1.
         21    1    1    2  503  502 -0.22060709600E+02 -0.11132834530E+03  0.69059644723E+02  0.13285296348E+03  0.00000000000E+00 0. -1.
         21    1    1    2  504  501  0.22060709600E+02  0.11132834530E+03  0.11939543411E+04  0.11993363348E+04  0.00000000000E+00 0.  1.
<mgrwt>
<rscale>  2 0.11349306E+03</rscale>
<asrwt>0</asrwt>
<pdfrwt beam="1">  1       21 0.19963099E+00 0.11349306E+03</pdfrwt>
<pdfrwt beam="2">  1       21 0.53211789E-02 0.11349306E+03</pdfrwt>
<totfact> 0.34830366E+04</totfact>
</mgrwt>
</event>
<event>
 4    1  0.5810391E+003  0.1302267E+03  0.7546771E-02  0.1227120E+00
         21   -1    0    0  503  501  0.00000000000E+00  0.00000000000E+00  0.85042611888E+03  0.85042611888E+03  0.00000000000E+00 0.  1.
         21   -1    0    0  504  502 -0.00000000000E+00 -0.00000000000E+00 -0.23690466561E+03  0.23690466561E+03  0.00000000000E+00 0. -1.
         21    1    1    2  503  502 -0.13022660944E+03 -0.18162422804E+00 -0.21351985214E+03  0.25009944033E+03  0.00000000000E+00 0. -1.
         21    1    1    2  504  501  0.13022660944E+03  0.18162422804E+00  0.82704130541E+03  0.83723134417E+03  0.00000000000E+00 0.  1.
<mgrwt>
<rscale>  2 0.13022674E+03</rscale>
<asrwt>0</asrwt>
<pdfrwt beam="1">  1       21 0.13083479E+00 0.13022674E+03</pdfrwt>
<pdfrwt beam="2">  1       21 0.36446872E-01 0.13022674E+03</pdfrwt>
<totfact> 0.32868021E+03</totfact>
</mgrwt>
</event>
<event>
 4    1  0.5810391E+003  0.1359874E+03  0.7546771E-02  0.1218833E+00
         21   -1    0    0  502  501  0.00000000000E+00  0.00000000000E+00  0.17195852549E+03  0.17195852549E+03  0.00000000000E+00 0. -1.
         21   -1    0    0  503  502 -0.00000000000E+00 -0.00000000000E+00 -0.62230055688E+03  0.62230055688E+03  0.00000000000E+00 0. -1.
         21    1    1    2  503  504  0.86831728611E+02  0.10465572910E+03 -0.58635988650E+03  0.60192232657E+03  0.00000000000E+00 0. -1.
         21    1    1    2  504  501 -0.86831728611E+02 -0.10465572910E+03  0.13601785510E+03  0.19233675581E+03  0.00000000000E+00 0. -1.
<mgrwt>
<rscale>  2 0.13598739E+03</rscale>
<asrwt>0</asrwt>
<pdfrwt beam="1">  1       21 0.26455158E-01 0.13598739E+03</pdfrwt>
<pdfrwt beam="2">  1       21 0.95738546E-01 0.13598739E+03</pdfrwt>
<totfact> 0.12887332E+04</totfact>
</mgrwt>
</event>
<event>
 4    1  0.5810391E+003  0.1407741E+03  0.7546771E-02  0.1212291E+00
         21   -1    0    0  504  501  0.00000000000E+00  0.00000000000E+00  0.81108958999E+02  0.81108958999E+02  0.00000000000E+00 0. -1.
         21   -1    0    0  503  502 -0.00000000000E+00 -0.00000000000E+00 -0.13369236905E+04  0.13369236905E+04  0.00000000000E+00 0.  1.
         21    1    1    2  503  501 -0.14013412270E+03  0.13408012462E+02 -0.12688693632E+04  0.12766545375E+04  0.00000000000E+00 0.  1.
         21    1    1    2  504  502  0.14013412270E+03 -0.13408012462E+02  0.13054631744E+02  0.14137811200E+03  0.00000000000E+00 0. -1.
<mgrwt>
<rscale>  2 0.14077410E+03</rscale>
<asrwt>0</asrwt>
<pdfrwt beam="1">  1       21 0.12478301E-01 0.14077410E+03</pdfrwt>
<pdfrwt beam="2">  1       21 0.20568057E+00 0.14077410E+03</pdfrwt>
<totfact> 0.71175767E+03</totfact>
</mgrwt>
</event>
<event>
 4    1  0.5810391E+003  0.1676216E+03  0.7546771E-02  0.1180351E+00
         21   -1    0    0  502  501  0.00000000000E+00  0.00000000000E+00  0.39757861261E+03  0.39757861261E+03  0.00000000000E+00 0. -1.
         21   -1    0    0  504  502 -0.00000000000E+00 -0.00000000000E+00 -0.15639106375E+03  0.15639106375E+03  0.00000000000E+00 0. -1.
         21    1    1    2  503  501 -0.91395341036E+02  0.14051293689E+03  0.32565950258E+03  0.36626644047E+03  0.00000000000E+00 0. -1.
         21    1    1    2  504  503  0.91395341036E+02 -0.14051293689E+03 -0.84471953716E+02  0.18770323588E+03  0.00000000000E+00 0. -1.
<mgrwt>
<rscale>  2 0.16762158E+03</rscale>
<asrwt>0</asrwt>
<pdfrwt beam="1">  1       21 0.61165940E-01 0.16762158E+03</pdfrwt>
<pdfrwt beam="2">  1       21 0.24060164E-01 0.16762158E+03</pdfrwt>
<totfact> 0.41035831E+04</totfact>
</mgrwt>
</event>
<event>
 4    1  0.5810391E+003  0.1068184E+03  0.7546771E-02  0.1266578E+00
         21   -1    0    0  503  501  0.00000000000E+00  0.00000000000E+00  0.25185361466E+02  0.25185361466E+02  0.00000000000E+00 0. -1.
         21   -1    0    0  504  502 -0.00000000000E+00 -0.00000000000E+00 -0.46051169787E+03  0.46051169787E+03  0.00000000000E+00 0.  1.
         21    1    1    2  503  502  0.10606530576E+03 -0.12661623583E+02 -0.18674556264E+03  0.21513733047E+03  0.00000000000E+00 0. -1.
         21    1    1    2  504  501 -0.10606530576E+03  0.12661623583E+02 -0.24858077376E+03  0.27055972886E+03  0.00000000000E+00 0.  1.
<mgrwt>
<rscale>  2 0.10681838E+03</rscale>
<asrwt>0</asrwt>
<pdfrwt beam="1">  1       21 0.38746710E-02 0.10681838E+03</pdfrwt>
<pdfrwt beam="2">  1       21 0.70847954E-01 0.10681838E+03</pdfrwt>
<totfact> 0.75053639E+05</totfact>
</mgrwt>
</event>
<event>
 4    1  0.5810391E+003  0.1423075E+03  0.7546771E-02  0.1210257E+00
         21   -1    0    0  503  501  0.00000000000E+00  0.00000000000E+00  0.74983083010E+03  0.74983083010E+03  0.00000000000E+00 0.  1.
         21   -1    0    0  504  502 -0.00000000000E+00 -0.00000000000E+00 -0.10211947687E+03  0.10211947687E+03  0.00000000000E+00 0. -1.
         21    1    1    2  503  502 -0.11615788980E+03 -0.82211797153E+02 -0.41472452697E+02  0.14822752541E+03  0.00000000000E+00 0. -1.
         21    1    1    2  504  501  0.11615788980E+03  0.82211797153E+02  0.68918380592E+03  0.70372278157E+03  0.00000000000E+00 0.  1.
<mgrwt>
<rscale>  2 0.14230754E+03</rscale>
<asrwt>0</asrwt>
<pdfrwt beam="1">  1       21 0.11535859E+00 0.14230754E+03</pdfrwt>
<pdfrwt beam="2">  1       21 0.15710689E-01 0.14230754E+03</pdfrwt>
<totfact> 0.21686683E+04</totfact>
</mgrwt>
</event>
<event>
 4    1  0.5810391E+003  0.1231003E+03  0.7546771E-02  0.1238068E+00
         21   -1    0    0  502  501  0.00000000000E+00  0.00000000000E+00  0.29232586423E+03  0.29232586423E+03  0.00000000000E+00 0. -1.
         21   -1    0    0  503  502 -0.00000000000E+00 -0.00000000000E+00 -0.64773527604E+02  0.64773527604E+02  0.00000000000E+00 0.  1.
         21    1    1    2  503  504 -0.12309767867E+03  0.80299497998E+00  0.33986446701E+02  0.12770576281E+03  0.00000000000E+00 0.  1.
         21    1    1    2  504  501  0.12309767867E+03 -0.80299497998E+00  0.19356588992E+03  0.22939362902E+03  0.00000000000E+00 0. -1.
<mgrwt>
<rscale>  2 0.12310030E+03</rscale>
<asrwt>0</asrwt>
<pdfrwt beam="1">  1       21 0.44973209E-01 0.12310030E+03</pdfrwt>
<pdfrwt beam="2">  1       21 0.99651583E-02 0.12310030E+03</pdfrwt>
<totfact> 0.39193491E+05</totfact>
</mgrwt>
</event>
<event>
 4    1  0.5810391E+003  0.2080367E+03  0.7546771E-02  0.1143130E+00
         21   -1    0    0  503  501  0.00000000000E+00  0.00000000000E+00  0.15522921669E+03  0.15522921669E+03  0.00000000000E+00 0.  1.
         21   -1    0    0  504  502 -0.00000000000E+00 -0.00000000000E+00 -0.35681866257E+03  0.35681866257E+03  0.00000000000E+00 0.  1.
         21    1    1    2  503  502  0.17076655085E+03 -0.11881940005E+03 -0.22050506616E+03  0.30315301238E+03  0.00000000000E+00 0.  1.
         21    1    1    2  504  501 -0.17076655085E+03  0.11881940005E+03  0.18915620276E+02  0.20889486687E+03  0.00000000000E+00 0.  1.
<mgrwt>
<rscale>  2 0.20803669E+03</rscale>
<asrwt>0</asrwt>
<pdfrwt beam="1">  1       21 0.23881418E-01 0.20803669E+03</pdfrwt>
<pdfrwt beam="2">  1       21 0.54895178E-01 0.20803669E+03</pdfrwt>
<totfact> 0.51374396E+04</totfact>
</mgrwt>
</event>
<event>
 4    1  0.5810391E+003  0.1222941E+03  0.7546771E-02  0.1239360E+00
         21   -1    0    0  502  501  0.00000000000E+00  0.00000000000E+00  0.51599728877E+03  0.51599728877E+03  0.00000000000E+00 0.  1.
         21   -1    0    0  503  502 -0.00000000000E+00 -0.00000000000E+00 -0.22909025958E+03  0.22909025958E+03  0.00000000000E+00 0. -1.
         21    1    1    2  503  504  0.31915484838E+02  0.11805613923E+03 -0.20472658595E+03  0.23847185405E+03  0.00000000000E+00 0. -1.
         21    1    1    2  504  501 -0.31915484838E+02 -0.11805613923E+03  0.49163361513E+03  0.50661569430E+03  0.00000000000E+00 0.  1.
<mgrwt>
<rscale>  2 0.12229411E+03</rscale>
<asrwt>0</asrwt>
<pdfrwt beam="1">  1       21 0.79384198E-01 0.12229411E+03</pdfrwt>
<pdfrwt beam="2">  1       21 0.35244656E-01 0.12229411E+03</pdfrwt>
<totfact> 0.11464882E+04</totfact>
</mgrwt>
</event>
<event>
 4    1  0.5810391E+003  0.1043219E+03  0.7546771E-02  0.1271461E+00
         21   -1    0    0  502  501  0.00000000000E+00  0.00000000000E+00  0.21364511600E+03  0.21364511600E+03  0.00000000000E+00 0.  1.
         21   -1    0    0  504  502 -0.00000000000E+00 -0.00000000000E+00 -0.33891503913E+03  0.33891503913E+03  0.00000000000E+00 0. -1.
         21    1    1    2  503  501 -0.99262462680E+02 -0.32094099800E+02  0.19203728706E+03  0.21854378820E+03  0.00000000000E+00 0.  1.
         21    1    1    2  504  503  0.99262462680E+02  0.32094099800E+02 -0.31730721019E+03  0.33401636693E+03  0.00000000000E+00 0. -1.
<mgrwt>
<rscale>  2 0.10432194E+03</rscale>
<asrwt>0</asrwt>
<pdfrwt beam="1">  1       21 0.32868480E-01 0.10432194E+03</pdfrwt>
<pdfrwt beam="2">  1       21 0.52140775E-01 0.10432194E+03</pdfrwt>
<totfact> 0.32826324E+04</totfact>
</mgrwt>
</event>
<event>
 4    1  0.5810391E+003  0.1154971E+03  0.7546771E-02  0.1250716E+00
         21   -1    0    0  503  501  0.00000000000E+00  0.00000000000E+00  0.39718369356E+03  0.39718369356E+03  0.00000000000E+00 0. -1.
         21   -1    0    0  501  502 -0.00000000000E+00 -0.00000000000E+00 -0.38980643824E+03  0.38980643824E+03  0.00000000000E+00 0.  1.
         21    1    1    2  503  504 -0.88453412232E+02  0.74266877191E+02  0.37985032085E+03  0.39702121031E+03  0.00000000000E+00 0. -1.
         21    1    1    2  504  502  0.88453412232E+02 -0.74266877191E+02 -0.37247306553E+03  0.38996892149E+03  0.00000000000E+00 0.  1.
<mgrwt>
<rscale>  2 0.11549708E+03</rscale>
<asrwt>0</asrwt>
<pdfrwt beam="1">  1       21 0.61105183E-01 0.11549708E+03</pdfrwt>
<pdfrwt beam="2">  1       21 0.59970222E-01 0.11549708E+03</pdfrwt>
<totfact> 0.69110201E+03</totfact>
</mgrwt>
</event>
<event>
 4    1  0.5810391E+003  0.1033807E+03  0.7546771E-02  0.1273343E+00
         21   -1    0    0  503  501  0.00000000000E+00  0.00000000000E+00  0.32844252881E+04  0.32844252881E+04  0.00000000000E+00 0. -1.
         21   -1    0    0  504  502 -0.00000000000E+00 -0.00000000000E+00 -0.11627178861E+02  0.11627178861E+02  0.00000000000E+00 0. -1.
         21    1    1    2  503  502  0.78959091918E+02 -0.66730980461E+02  0.30349290838E+04  0.30366893331E+04  0.00000000000E+00 0. -1.
         21    1    1    2  504  501 -0.78959091918E+02  0.66730980461E+02  0.23786902537E+03  0.25936313381E+03  0.00000000000E+00 0. -1.
<mgrwt>
<rscale>  2 0.10338067E+03</rscale>
<asrwt>0</asrwt>
<pdfrwt beam="1">  1       21 0.50529546E+00 0.10338067E+03</pdfrwt>
<pdfrwt beam="2">  1       21 0.17887994E-02 0.10338067E+03</pdfrwt>
<totfact> 0.30673446E+03</totfact>
</mgrwt>
</event>
<event>
 4    1  0.5810391E+003  0.1040623E+03  0.7546771E-02  0.1271978E+00
         21   -1    0    0  504  501  0.00000000000E+00  0.00000000000E+00  0.84361662776E+02  0.84361662776E+02  0.00000000000E+00 0. -1.
         21   -1    0    0  501  502 -0.00000000000E+00 -0.00000000000E+00 -0.23674194264E+03  0.23674194264E+03  0.00000000000E+00 0. -1.
         21    1    1    2  503  502  0.47615121385E+02  0.92529815564E+02 -0.18481990488E+03  0.21210224844E+03  0.00000000000E+00 0. -1.
         21    1    1    2  504  503 -0.47615121385E+02 -0.92529815564E+02  0.32439625012E+02  0.10900135698E+03  0.00000000000E+00 0. -1.
<mgrwt>
<rscale>  2 0.10406232E+03</rscale>
<asrwt>0</asrwt>
<pdfrwt beam="1">  1       21 0.12978717E-01 0.10406232E+03</pdfrwt>
<pdfrwt beam="2">  1       21 0.36421838E-01 0.10406232E+03</pdfrwt>
<totfact> 0.37600054E+05</totfact>
</mgrwt>
</event>
<event>
 4    1  0.5810391E+003  0.1110353E+03  0.7546771E-02  0.1258665E+00
         21   -1    0    0  504  501  0.00000000000E+00  0.00000000000E+00  0.32885740481E+02  0.32885740481E+02  0.00000000000E+00 0. -1.
         21   -1    0    0  503  502 -0.00000000000E+00 -0.00000000000E+00 -0.42188721750E+03  0.42188721750E+03  0.00000000000E+00 0. -1.
         21    1    1    2  503  501  0.10152683054E+03 -0.44957212348E+02 -0.11861528327E+03  0.16247594803E+03  0.00000000000E+00 0. -1.
         21    1    1    2  504  502 -0.10152683054E+03  0.44957212348E+02 -0.27038619374E+03  0.29229700995E+03  0.00000000000E+00 0. -1.
<mgrwt>
<rscale>  2 0.11103535E+03</rscale>
<asrwt>0</asrwt>
<pdfrwt beam="1">  1       21 0.50593451E-02 0.11103535E+03</pdfrwt>
<pdfrwt beam="2">  1       21 0.64905720E-01 0.11103535E+03</pdfrwt>
<totfact> 0.58184176E+05</totfact>
</mgrwt>
</event>
<event>
 4    1  0.5810391E+003  0.1082842E+03  0.7546771E-02  0.1263781E+00
         21   -1    0    0  504  501  0.00000000000E+00  0.00000000000E+00  0.23138576941E+02  0.23138576941E+02  0.00000000000E+00 0.  1.
         21   -1    0    0  503  502 -0.00000000000E+00 -0.00000000000E+00 -0.80186731884E+03  0.80186731884E+03  0.00000000000E+00 0.  1.
         21    1    1    2  503  501  0.45751098926E+02  0.98144353735E+02 -0.63961376886E+03  0.64871507655E+03  0.00000000000E+00 0.  1.
         21    1    1    2  504  502 -0.45751098926E+02 -0.98144353735E+02 -0.13911497304E+03  0.17629081924E+03  0.00000000000E+00 0.  1.
<mgrwt>
<rscale>  2 0.10828424E+03</rscale>
<asrwt>0</asrwt>
<pdfrwt beam="1">  1       21 0.35597808E-02 0.10828424E+03</pdfrwt>
<pdfrwt beam="2">  1       21 0.12336421E+00 0.10828424E+03</pdfrwt>
<totfact> 0.24139170E+05</totfact>
</mgrwt>
</event>
<event>
 4    1  0.5810391E+003  0.1016506E+03  0.7546771E-02  0.1276863E+00
         21   -1    0    0  504  501  0.00000000000E+00  0.00000000000E+00  0.51216452231E+03  0.51216452231E+03  0.00000000000E+00 0. -1.
         21   -1    0    0  503  502 -0.00000000000E+00 -0.00000000000E+00 -0.24364802169E+02  0.24364802169E+02  0.00000000000E+00 0. -1.
         21    1    1    2  503  501  0.90980803779E+01  0.10124260354E+03  0.13265324218E+03  0.16712187917E+03  0.00000000000E+00 0. -1.
         21    1    1    2  504  502 -0.90980803779E+01 -0.10124260354E+03  0.35514647796E+03  0.36940744530E+03  0.00000000000E+00 0. -1.
<mgrwt>
<rscale>  2 0.10165058E+03</rscale>
<asrwt>0</asrwt>
<pdfrwt beam="1">  1       21 0.78794534E-01 0.10165058E+03</pdfrwt>
<pdfrwt beam="2">  1       21 0.37484315E-02 0.10165058E+03</pdfrwt>
<totfact> 0.62792547E+05</totfact>
</mgrwt>
</event>
<event>
 4    1  0.5810391E+003  0.1019638E+03  0.7546771E-02  0.1276220E+00
         21   -1    0    0  503  501  0.00000000000E+00  0.00000000000E+00  0.60232435948E+03  0.60232435948E+03  0.00000000000E+00 0. -1.
         21   -1    0    0  504  502 -0.00000000000E+00 -0.00000000000E+00 -0.11184483043E+03  0.11184483043E+03  0.00000000000E+00 0.  1.
         21    1    1    2  503  502 -0.98055418127E+02 -0.27959679661E+02 -0.83136707811E+02  0.13156109188E+03  0.00000000000E+00 0.  1.
         21    1    1    2  504  501  0.98055418127E+02  0.27959679661E+02  0.57361623685E+03  0.58260809803E+03  0.00000000000E+00 0. -1.
<mgrwt>
<rscale>  2 0.10196376E+03</rscale>
<asrwt>0</asrwt>
<pdfrwt beam="1">  1       21 0.92665284E-01 0.10196376E+03</pdfrwt>
<pdfrwt beam="2">  1       21 0.17206897E-01 0.10196376E+03</pdfrwt>
<totfact> 0.31760087E+04</totfact>
</mgrwt>
</event>
<event>
 4    1  0.5810391E+003  0.1114391E+03  0.7546771E-02  0.1257928E+00
         21   -1    0    0  502  501  0.00000000000E+00  0.00000000000E+00  0.10618431721E+03  0.10618431721E+03  0.00000000000E+00 0. -1.
         21   -1    0    0  503  502 -0.00000000000E+00 -0.00000000000E+00 -0.14553355304E+03  0.14553355304E+03  0.00000000000E+00 0. -1.
         21    1    1    2  503  504 -0.10640918003E+03 -0.33102101824E+02 -0.75448578242E+02  0.13457767534E+03  0.00000000000E+00 0. -1.
         21    1    1    2  504  501  0.10640918003E+03  0.33102101824E+02  0.36099342417E+02  0.11714019491E+03  0.00000000000E+00 0. -1.
<mgrwt>
<rscale>  2 0.11143905E+03</rscale>
<asrwt>0</asrwt>
<pdfrwt beam="1">  1       21 0.16336049E-01 0.11143905E+03</pdfrwt>
<pdfrwt beam="2">  1       21 0.22389777E-01 0.11143905E+03</pdfrwt>
<totfact> 0.63049947E+05</totfact>
</mgrwt>
</event>
<event>
 4    1  0.5810391E+003  0.1240301E+03  0.7546771E-02  0.1236593E+00
         21   -1    0    0  503  501  0.00000000000E+00  0.00000000000E+00  0.40067295533E+03  0.40067295533E+03  0.00000000000E+00 0. -1.
         21   -1    0    0  501  502 -0.00000000000E+00 -0.00000000000E+00 -0.98309644804E+02  0.98309644804E+02  0.00000000000E+00 0. -1.
         21    1    1    2  503  504 -0.51756904062E+02  0.11271502454E+03  0.34595400908E+03  0.36751548304E+03  0.00000000000E+00 0. -1.
         21    1    1    2  504  502  0.51756904062E+02 -0.11271502454E+03 -0.43590698558E+02  0.13146711709E+03  0.00000000000E+00 0. -1.
<mgrwt>
<rscale>  2 0.12403005E+03</rscale>
<asrwt>0</asrwt>
<pdfrwt beam="1">  1       21 0.61641992E-01 0.12403005E+03</pdfrwt>
<pdfrwt beam="2">  1       21 0.15124561E-01 0.12403005E+03</pdfrwt>
<totfact> 0.97114257E+04</totfact>
</mgrwt>
</event>
<event>
 4    1  0.5810391E+003  0.1092598E+03  0.7546771E-02  0.1261947E+00
         21   -1    0    0  503  501  0.00000000000E+00  0.00000000000E+00  0.94916505844E+02  0.94916505844E+02  0.00000000000E+00 0.  1.
         21   -1    0    0  504  502 -0.00000000000E+00 -0.00000000000E+00 -0.21620741662E+03  0.21620741662E+03  0.00000000000E+00 0. -1.
         21    1    1    2  503  502 -0.72959859650E+02 -0.81329972014E+02  0.39964454516E+02  0.11633943052E+03  0.00000000000E+00 0.  1.
         21    1    1    2  504  501  0.72959859650E+02  0.81329972014E+02 -0.16125536529E+03  0.19478449194E+03  0.00000000000E+00 0. -1.
<mgrwt>
<rscale>  2 0.10925981E+03</rscale>
<asrwt>0</asrwt>
<pdfrwt beam="1">  1       21 0.14602540E-01 0.10925981E+03</pdfrwt>
<pdfrwt beam="2">  1       21 0.33262679E-01 0.10925981E+03</pdfrwt>
<totfact> 0.36363272E+05</totfact>
</mgrwt>
</event>
<event>
 4    1  0.5810391E+003  0.1186260E+03  0.7546771E-02  0.1245381E+00
         21   -1    0    0  503  501  0.00000000000E+00  0.00000000000E+00  0.95389440247E+02  0.95389440247E+02  0.00000000000E+00 0. -1.
         21   -1    0    0  504  502 -0.00000000000E+00 -0.00000000000E+00 -0.22469413751E+03  0.22469413751E+03  0.00000000000E+00 0. -1.
         21    1    1    2  503  502  0.39431391579E+02  0.11188071684E+03 -0.15844421595E+03  0.19793104610E+03  0.00000000000E+00 0. -1.
         21    1    1    2  504  501 -0.39431391579E+02 -0.11188071684E+03  0.29139518686E+02  0.12215253166E+03  0.00000000000E+00 0. -1.
<mgrwt>
<rscale>  2 0.11862601E+03</rscale>
<asrwt>0</asrwt>
<pdfrwt beam="1">  1       21 0.14675299E-01 0.11862601E+03</pdfrwt>
<pdfrwt beam="2">  1       21 0.34568328E-01 0.11862601E+03</pdfrwt>
<totfact> 0.33384748E+05</totfact>
</mgrwt>
</event>
<event>
 4    1  0.5810391E+003  0.1109791E+03  0.7546771E-02  0.1258767E+00
         21   -1    0    0  504  501  0.00000000000E+00  0.00000000000E+00  0.53006455623E+02  0.53006455623E+02  0.00000000000E+00 0.  1.
         21   -1    0    0  501  502 -0.00000000000E+00 -0.00000000000E+00 -0.55112313077E+03  0.55112313077E+03  0.00000000000E+00 0.  1.
         21    1    1    2  503  502 -0.83605098282E+02  0.72983212514E+02 -0.47878565271E+03  0.49147946346E+03  0.00000000000E+00 0.  1.
         21    1    1    2  504  503  0.83605098282E+02 -0.72983212514E+02 -0.19331022440E+02  0.11265012293E+03  0.00000000000E+00 0.  1.
<mgrwt>
<rscale>  2 0.11097911E+03</rscale>
<asrwt>0</asrwt>
<pdfrwt beam="1">  1       21 0.81548393E-02 0.11097911E+03</pdfrwt>
<pdfrwt beam="2">  1       21 0.84788174E-01 0.11097911E+03</pdfrwt>
<totfact> 0.14406018E+05</totfact>
</mgrwt>
</event>
<event>
 4    1  0.5810391E+003  0.1340655E+03  0.7546771E-02  0.1221545E+00
         21   -1    0    0  503  501  0.00000000000E+00  0.00000000000E+00  0.82558474892E+03  0.82558474892E+03  0.00000000000E+00 0.  1.
         21   -1    0    0  504  502 -0.00000000000E+00 -0.00000000000E+00 -0.23858318202E+02  0.23858318202E+02  0.00000000000E+00 0.  1.
         21    1    1    2  503  502 -0.53766313325E+02  0.12281186111E+03  0.52649757192E+03  0.54329850259E+03  0.00000000000E+00 0.  1.
         21    1    1    2  504  501  0.53766313325E+02 -0.12281186111E+03  0.27522885879E+03  0.30614456453E+03  0.00000000000E+00 0.  1.
<mgrwt>
<rscale>  2 0.13406554E+03</rscale>
<asrwt>0</asrwt>
<pdfrwt beam="1">  1       21 0.12701302E+00 0.13406554E+03</pdfrwt>
<pdfrwt beam="2">  1       21 0.36705111E-02 0.13406554E+03</pdfrwt>
<totfact> 0.21165716E+05</totfact>
</mgrwt>
</event>
<event>
 4    1  0.5810391E+003  0.1105322E+03  0.7546771E-02  0.1259587E+00
         21   -1    0    0  504  501  0.00000000000E+00  0.00000000000E+00  0.40987893956E+03  0.40987893956E+03  0.00000000000E+00 0.  1.
         21   -1    0    0  501  502 -0.00000000000E+00 -0.00000000000E+00 -0.13638658228E+03  0.13638658228E+03  0.00000000000E+00 0. -1.
         21    1    1    2  503  502 -0.11047060672E+03  0.36906226553E+01 -0.10470226552E+03  0.15224959786E+03  0.00000000000E+00 0. -1.
         21    1    1    2  504  503  0.11047060672E+03 -0.36906226553E+01  0.37819462279E+03  0.39401592398E+03  0.00000000000E+00 0.  1.
<mgrwt>
<rscale>  2 0.11053224E+03</rscale>
<asrwt>0</asrwt>
<pdfrwt beam="1">  1       21 0.63058298E-01 0.11053224E+03</pdfrwt>
<pdfrwt beam="2">  1       21 0.20982551E-01 0.11053224E+03</pdfrwt>
<totfact> 0.51277023E+04</totfact>
</mgrwt>
</event>
<event>
 4    1  0.5810391E+003  0.1077837E+03  0.7546771E-02  0.1264730E+00
         21   -1    0    0  503  501  0.00000000000E+00  0.00000000000E+00  0.17682279053E+03  0.17682279053E+03  0.00000000000E+00 0. -1.
         21   -1    0    0  504  502 -0.00000000000E+00 -0.00000000000E+00 -0.65984715260E+02  0.65984715260E+02  0.00000000000E+00 0. -1.
         21    1    1    2  503  502  0.74399408171E+02 -0.77987569414E+02  0.63387775893E+02  0.12504136536E+03  0.00000000000E+00 0. -1.
         21    1    1    2  504  501 -0.74399408171E+02  0.77987569414E+02  0.47450299373E+02  0.11776614042E+03  0.00000000000E+00 0. -1.
<mgrwt>
<rscale>  2 0.10778373E+03</rscale>
<asrwt>0</asrwt>
<pdfrwt beam="1">  1       21 0.27203506E-01 0.10778373E+03</pdfrwt>
<pdfrwt beam="2">  1       21 0.10151495E-01 0.10778373E+03</pdfrwt>
<totfact> 0.10167974E+06</totfact>
</mgrwt>
</event>
<event>
 4    1  0.5810391E+003  0.1153069E+03  0.7546771E-02  0.1251046E+00
         21   -1    0    0  502  501  0.00000000000E+00  0.00000000000E+00  0.87829260424E+03  0.87829260424E+03  0.00000000000E+00 0.  1.
         21   -1    0    0  503  502 -0.00000000000E+00 -0.00000000000E+00 -0.19951481854E+02  0.19951481854E+02  0.00000000000E+00 0.  1.
         21    1    1    2  503  504 -0.10680073164E+03  0.43465792610E+02  0.20857211095E+03  0.23832330325E+03  0.00000000000E+00 0.  1.
         21    1    1    2  504  501  0.10680073164E+03 -0.43465792610E+02  0.64976901143E+03  0.65992078284E+03  0.00000000000E+00 0.  1.
<mgrwt>
<rscale>  2 0.11530686E+03</rscale>
<asrwt>0</asrwt>
<pdfrwt beam="1">  1       21 0.13512191E+00 0.11530686E+03</pdfrwt>
<pdfrwt beam="2">  1       21 0.30694594E-02 0.11530686E+03</pdfrwt>
<totfact> 0.24524911E+05</totfact>
</mgrwt>
</event>
<event>
 4    1  0.5810391E+003  0.1438525E+03  0.7546771E-02  0.1208237E+00
         21   -1    0    0  504  501  0.00000000000E+00  0.00000000000E+00  0.19287193610E+03  0.19287193610E+03  0.00000000000E+00 0. -1.
         21   -1    0    0  503  502 -0.00000000000E+00 -0.00000000000E+00 -0.11230232824E+03  0.11230232824E+03  0.00000000000E+00 0. -1.
         21    1    1    2  503  501  0.12006003495E+03 -0.79240873886E+02  0.80536153062E+01  0.14407771794E+03  0.00000000000E+00 0. -1.
         21    1    1    2  504  502 -0.12006003495E+03  0.79240873886E+02  0.72515992550E+02  0.16109654640E+03  0.00000000000E+00 0. -1.
<mgrwt>
<rscale>  2 0.14385245E+03</rscale>
<asrwt>0</asrwt>
<pdfrwt beam="1">  1       21 0.29672605E-01 0.14385245E+03</pdfrwt>
<pdfrwt beam="2">  1       21 0.17277281E-01 0.14385245E+03</pdfrwt>
<totfact> 0.33289056E+05</totfact>
</mgrwt>
</event>
<event>
 4    1  0.5810391E+003  0.1718696E+03  0.7546771E-02  0.1175912E+00
         21   -1    0    0  504  501  0.00000000000E+00  0.00000000000E+00  0.89813911980E+02  0.89813911980E+02  0.00000000000E+00 0.  1.
         21   -1    0    0  501  502 -0.00000000000E+00 -0.00000000000E+00 -0.17517172500E+04  0.17517172500E+04  0.00000000000E+00 0. -1.
         21    1    1    2  503  502 -0.16679196921E+03  0.41467992126E+02 -0.16607885302E+04  0.16696579582E+04  0.00000000000E+00 0. -1.
         21    1    1    2  504  503  0.16679196921E+03 -0.41467992126E+02 -0.11148077746E+01  0.17187320373E+03  0.00000000000E+00 0.  1.
<mgrwt>
<rscale>  2 0.17186959E+03</rscale>
<asrwt>0</asrwt>
<pdfrwt beam="1">  1       21 0.13817525E-01 0.17186959E+03</pdfrwt>
<pdfrwt beam="2">  1       21 0.26949496E+00 0.17186959E+03</pdfrwt>
<totfact> 0.23909112E+03</totfact>
</mgrwt>
</event>
<event>
 4    1  0.5810391E+003  0.1085732E+03  0.7546771E-02  0.1263235E+00
         21   -1    0    0  502  501  0.00000000000E+00  0.00000000000E+00  0.23873091017E+04  0.23873091017E+04  0.00000000000E+00 0.  1.
         21   -1    0    0  503  502 -0.00000000000E+00 -0.00000000000E+00 -0.38998273485E+02  0.38998273485E+02  0.00000000000E+00 0. -1.
         21    1    1    2  503  504  0.47032982827E+02  0.97857206437E+02  0.40402906313E+02  0.11584700757E+03  0.00000000000E+00 0. -1.
         21    1    1    2  504  501 -0.47032982827E+02 -0.97857206437E+02  0.23079079219E+04  0.23104603676E+04  0.00000000000E+00 0.  1.
<mgrwt>
<rscale>  2 0.10857317E+03</rscale>
<asrwt>0</asrwt>
<pdfrwt beam="1">  1       21 0.36727821E+00 0.10857317E+03</pdfrwt>
<pdfrwt beam="2">  1       21 0.59997363E-02 0.10857317E+03</pdfrwt>
<totfact> 0.31579851E+03</totfact>
</mgrwt>
</event>
<event>
 4    1  0.5810391E+003  0.1043384E+03  0.7546771E-02  0.1271429E+00
         21   -1    0    0  504  501  0.00000000000E+00  0.00000000000E+00  0.25607195563E+04  0.25607195563E+04  0.00000000000E+00 0.  1.
         21   -1    0    0  503  502 -0.00000000000E+00 -0.00000000000E+00 -0.73252877216E+01  0.73252877216E+01  0.00000000000E+00 0.  1.
         21    1    1    2  503  501  0.10384486147E+03 -0.10136494247E+02  0.44491783419E+03  0.45698838382E+03  0.00000000000E+00 0.  1.
         21    1    1    2  504  502 -0.10384486147E+03  0.10136494247E+02  0.21084764343E+04  0.21110564602E+04  0.00000000000E+00 0.  1.
<mgrwt>
<rscale>  2 0.10433841E+03</rscale>
<asrwt>0</asrwt>
<pdfrwt beam="1">  1       21 0.39395614E+00 0.10433841E+03</pdfrwt>
<pdfrwt beam="2">  1       21 0.11269694E-02 0.10433841E+03</pdfrwt>
<totfact> 0.33626809E+04</totfact>
</mgrwt>
</event>
<event>
 4    1  0.5810391E+003  0.1103051E+03  0.7546771E-02  0.1260006E+00
         21   -1    0    0  503  501  0.00000000000E+00  0.00000000000E+00  0.14997433343E+03  0.14997433343E+03  0.00000000000E+00 0.  1.
         21   -1    0    0  504  502 -0.00000000000E+00 -0.00000000000E+00 -0.82033549724E+02  0.82033549724E+02  0.00000000000E+00 0.  1.
         21    1    1    2  503  502  0.80716065193E+02 -0.75180630355E+02  0.46154253927E+02  0.11957184249E+03  0.00000000000E+00 0.  1.
         21    1    1    2  504  501 -0.80716065193E+02  0.75180630355E+02  0.21786529782E+02  0.11243604067E+03  0.00000000000E+00 0.  1.
<mgrwt>
<rscale>  2 0.11030508E+03</rscale>
<asrwt>0</asrwt>
<pdfrwt beam="1">  1       21 0.23072974E-01 0.11030508E+03</pdfrwt>
<pdfrwt beam="2">  1       21 0.12620546E-01 0.11030508E+03</pdfrwt>
<totfact> 0.94596950E+05</totfact>
</mgrwt>
</event>
<event>
 4    1  0.5810391E+003  0.2333558E+03  0.7546771E-02  0.1124300E+00
         21   -1    0    0  503  501  0.00000000000E+00  0.00000000000E+00  0.23635164182E+03  0.23635164182E+03  0.00000000000E+00 0.  1.
         21   -1    0    0  504  502 -0.00000000000E+00 -0.00000000000E+00 -0.39965206141E+03  0.39965206141E+03  0.00000000000E+00 0.  1.
         21    1    1    2  503  502  0.11903495528E+03 -0.20071278362E+03 -0.28859675868E+03  0.37113748289E+03  0.00000000000E+00 0.  1.
         21    1    1    2  504  501 -0.11903495528E+03  0.20071278362E+03  0.12529633908E+03  0.26486622034E+03  0.00000000000E+00 0.  1.
<mgrwt>
<rscale>  2 0.23335583E+03</rscale>
<asrwt>0</asrwt>
<pdfrwt beam="1">  1       21 0.36361792E-01 0.23335583E+03</pdfrwt>
<pdfrwt beam="2">  1       21 0.61484931E-01 0.23335583E+03</pdfrwt>
<totfact> 0.17510946E+04</totfact>
</mgrwt>
</event>
<event>
 4    1  0.5810391E+003  0.1240795E+03  0.7546771E-02  0.1236515E+00
         21   -1    0    0  503  501  0.00000000000E+00  0.00000000000E+00  0.68907765049E+02  0.68907765049E+02  0.00000000000E+00 0.  1.
         21   -1    0    0  504  502 -0.00000000000E+00 -0.00000000000E+00 -0.22439731968E+03  0.22439731968E+03  0.00000000000E+00 0.  1.
         21    1    1    2  503  502 -0.85965553704E+02  0.89474243151E+02 -0.68091208905E+02  0.14153490503E+03  0.00000000000E+00 0.  1.
         21    1    1    2  504  501  0.85965553704E+02 -0.89474243151E+02 -0.87398345728E+02  0.15177017970E+03  0.00000000000E+00 0.  1.
<mgrwt>
<rscale>  2 0.12407948E+03</rscale>
<asrwt>0</asrwt>
<pdfrwt beam="1">  1       21 0.10601195E-01 0.12407948E+03</pdfrwt>
<pdfrwt beam="2">  1       21 0.34522664E-01 0.12407948E+03</pdfrwt>
<totfact> 0.59570898E+05</totfact>
</mgrwt>
</event>
<event>
 4    1  0.5810391E+003  0.1525221E+03  0.7546771E-02  0.1197408E+00
         21   -1    0    0  503  501  0.00000000000E+00  0.00000000000E+00  0.89216861659E+02  0.89216861659E+02  0.00000000000E+00 0.  1.
         21   -1    0    0  504  502 -0.00000000000E+00 -0.00000000000E+00 -0.11005715174E+04  0.11005715174E+04  0.00000000000E+00 0.  1.
         21    1    1    2  503  502 -0.66595847442E+02  0.13721504617E+03 -0.10253441870E+04  0.10366261031E+04  0.00000000000E+00 0.  1.
         21    1    1    2  504  501  0.66595847442E+02 -0.13721504617E+03  0.13989531265E+02  0.15316227596E+03  0.00000000000E+00 0.  1.
<mgrwt>
<rscale>  2 0.15252205E+03</rscale>
<asrwt>0</asrwt>
<pdfrwt beam="1">  1       21 0.13725671E-01 0.15252205E+03</pdfrwt>
<pdfrwt beam="2">  1       21 0.16931869E+00 0.15252205E+03</pdfrwt>
<totfact> 0.10284838E+04</totfact>
</mgrwt>
</event>
<event>
 4    1  0.5810391E+003  0.1052926E+03  0.7546771E-02  0.1269544E+00
         21   -1    0    0  504  501  0.00000000000E+00  0.00000000000E+00  0.60731108454E+02  0.60731108454E+02  0.00000000000E+00 0. -1.
         21   -1    0    0  503  502 -0.00000000000E+00 -0.00000000000E+00 -0.25807426555E+03  0.25807426555E+03  0.00000000000E+00 0. -1.
         21    1    1    2  503  501 -0.99277382611E+02 -0.35078916259E+02 -0.18490258512E+03  0.21278039160E+03  0.00000000000E+00 0. -1.
         21    1    1    2  504  502  0.99277382611E+02  0.35078916259E+02 -0.12440571979E+02  0.10602498241E+03  0.00000000000E+00 0. -1.
<mgrwt>
<rscale>  2 0.10529259E+03</rscale>
<asrwt>0</asrwt>
<pdfrwt beam="1">  1       21 0.93432475E-02 0.10529259E+03</pdfrwt>
<pdfrwt beam="2">  1       21 0.39703733E-01 0.10529259E+03</pdfrwt>
<totfact> 0.56389457E+05</totfact>
</mgrwt>
</event>
<event>
 4    1  0.5810391E+003  0.1174770E+03  0.7546771E-02  0.1247318E+00
         21   -1    0    0  502  501  0.00000000000E+00  0.00000000000E+00  0.58519751628E+02  0.58519751628E+02  0.00000000000E+00 0. -1.
         21   -1    0    0  504  502 -0.00000000000E+00 -0.00000000000E+00 -0.41273584901E+03  0.41273584901E+03  0.00000000000E+00 0. -1.
         21    1    1    2  503  501 -0.10448408343E+03  0.53702231228E+02 -0.22846180685E+02  0.11967790649E+03  0.00000000000E+00 0. -1.
         21    1    1    2  504  503  0.10448408343E+03 -0.53702231228E+02 -0.33136991670E+03  0.35157769415E+03  0.00000000000E+00 0. -1.
<mgrwt>
<rscale>  2 0.11747703E+03</rscale>
<asrwt>0</asrwt>
<pdfrwt beam="1">  1       21 0.90030384E-02 0.11747703E+03</pdfrwt>
<pdfrwt beam="2">  1       21 0.63497825E-01 0.11747703E+03</pdfrwt>
<totfact> 0.22837493E+05</totfact>
</mgrwt>
</event>
<event>
 4    1  0.5810391E+003  0.1071381E+03  0.7546771E-02  0.1265963E+00
         21   -1    0    0  502  501  0.00000000000E+00  0.00000000000E+00  0.98495686362E+02  0.98495686362E+02  0.00000000000E+00 0. -1.
         21   -1    0    0  503  502 -0.00000000000E+00 -0.00000000000E+00 -0.35755364552E+03  0.35755364552E+03  0.00000000000E+00 0.  1.
         21    1    1    2  503  504 -0.69731270422E+02 -0.81339503518E+02 -0.31674075346E+03  0.33436995949E+03  0.00000000000E+00 0.  1.
         21    1    1    2  504  501  0.69731270422E+02  0.81339503518E+02  0.57682794301E+02  0.12167937239E+03  0.00000000000E+00 0. -1.
<mgrwt>
<rscale>  2 0.10713806E+03</rscale>
<asrwt>0</asrwt>
<pdfrwt beam="1">  1       21 0.15153182E-01 0.10713806E+03</pdfrwt>
<pdfrwt beam="2">  1       21 0.55008253E-01 0.10713806E+03</pdfrwt>
<totfact> 0.12391613E+05</totfact>
</mgrwt>
</event>
<event>
 4    1  0.5810391E+003  0.1392544E+03  0.7546771E-02  0.1214336E+00
         21   -1    0    0  504  501  0.00000000000E+00  0.00000000000E+00  0.14667953179E+03  0.14667953179E+03  0.00000000000E+00 0.  1.
         21   -1    0    0  503  502 -0.00000000000E+00 -0.00000000000E+00 -0.13250674883E+03  0.13250674883E+03  0.00000000000E+00 0.  1.
         21    1    1    2  503  501 -0.48844195279E+01  0.13916873661E+03  0.42701030792E+00  0.13925507941E+03  0.00000000000E+00 0.  1.
         21    1    1    2  504  502  0.48844195279E+01 -0.13916873661E+03  0.13745772647E+02  0.13993120120E+03  0.00000000000E+00 0.  1.
<mgrwt>
<rscale>  2 0.13925442E+03</rscale>
<asrwt>0</asrwt>
<pdfrwt beam="1">  1       21 0.22566082E-01 0.13925442E+03</pdfrwt>
<pdfrwt beam="2">  1       21 0.20385654E-01 0.13925442E+03</pdfrwt>
<totfact> 0.41339245E+05</totfact>
</mgrwt>
</event>
<event>
 4    1  0.5810391E+003  0.1500652E+03  0.7546771E-02  0.1200393E+00
         21   -1    0    0  504  501  0.00000000000E+00  0.00000000000E+00  0.62084644818E+02  0.62084644818E+02  0.00000000000E+00 0. -1.
         21   -1    0    0  501  502 -0.00000000000E+00 -0.00000000000E+00 -0.36328352692E+03  0.36328352692E+03  0.00000000000E+00 0. -1.
         21    1    1    2  503  502  0.11674158943E+03  0.94291926276E+02 -0.15894925183E+03  0.21859650208E+03  0.00000000000E+00 0. -1.
         21    1    1    2  504  503 -0.11674158943E+03 -0.94291926276E+02 -0.14224963027E+03  0.20677166966E+03  0.00000000000E+00 0. -1.
<mgrwt>
<rscale>  2 0.15006521E+03</rscale>
<asrwt>0</asrwt>
<pdfrwt beam="1">  1       21 0.95514839E-02 0.15006521E+03</pdfrwt>
<pdfrwt beam="2">  1       21 0.55889773E-01 0.15006521E+03</pdfrwt>
<totfact> 0.26809876E+05</totfact>
</mgrwt>
</event>
<event>
 4    1  0.5810391E+003  0.1067827E+03  0.7546771E-02  0.1266646E+00
         21   -1    0    0  503  501  0.00000000000E+00  0.00000000000E+00  0.53139428363E+02  0.53139428363E+02  0.00000000000E+00 0. -1.
         21   -1    0    0  504  502 -0.00000000000E+00 -0.00000000000E+00 -0.34616032837E+03  0.34616032837E+03  0.00000000000E+00 0. -1.
         21    1    1    2  503  502 -0.53210889221E+02 -0.92580534476E+02 -0.23418648066E+02  0.10932057068E+03  0.00000000000E+00 0. -1.
         21    1    1    2  504  501  0.53210889221E+02  0.92580534476E+02 -0.26960225194E+03  0.28997918606E+03  0.00000000000E+00 0. -1.
<mgrwt>
<rscale>  2 0.10678274E+03</rscale>
<asrwt>0</asrwt>
<pdfrwt beam="1">  1       21 0.81752969E-02 0.10678274E+03</pdfrwt>
<pdfrwt beam="2">  1       21 0.53255433E-01 0.10678274E+03</pdfrwt>
<totfact> 0.39139287E+05</totfact>
</mgrwt>
</event>
<event>
 4    1  0.5810391E+003  0.1246806E+03  0.7546771E-02  0.1235569E+00
         21   -1    0    0  503  501  0.00000000000E+00  0.00000000000E+00  0.12417398630E+03  0.12417398630E+03  0.00000000000E+00 0. -1.
         21   -1    0    0  504  502 -0.00000000000E+00 -0.00000000000E+00 -0.12999876065E+03  0.12999876065E+03  0.00000000000E+00 0. -1.
         21    1    1    2  503  502  0.11680050164E+03 -0.43622040770E+02 -0.27356988000E+02  0.12764656053E+03  0.00000000000E+00 0. -1.
         21    1    1    2  504  501 -0.11680050164E+03  0.43622040770E+02  0.21532213652E+02  0.12652618641E+03  0.00000000000E+00 0. -1.
<mgrwt>
<rscale>  2 0.12468055E+03</rscale>
<asrwt>0</asrwt>
<pdfrwt beam="1">  1       21 0.19103690E-01 0.12468055E+03</pdfrwt>
<pdfrwt beam="2">  1       21 0.19999809E-01 0.12468055E+03</pdfrwt>
<totfact> 0.58415666E+05</totfact>
</mgrwt>
</event>
<event>
 4    1  0.5810391E+003  0.1019703E+03  0.7546771E-02  0.1276206E+00
         21   -1    0    0  503  501  0.00000000000E+00  0.00000000000E+00  0.17152937481E+04  0.17152937481E+04  0.00000000000E+00 0.  1.
         21   -1    0    0  504  502 -0.00000000000E+00 -0.00000000000E+00 -0.69854719672E+01  0.69854719672E+01  0.00000000000E+00 0.  1.
         21    1    1    2  503  502 -0.10183451096E+03  0.52610127929E+01  0.54103461933E+03  0.55056008318E+03  0.00000000000E+00 0.  1.
         21    1    1    2  504  501  0.10183451096E+03 -0.52610127929E+01  0.11672736568E+04  0.11717191369E+04  0.00000000000E+00 0.  1.
<mgrwt>
<rscale>  2 0.10197032E+03</rscale>
<asrwt>0</asrwt>
<pdfrwt beam="1">  1       21 0.26389101E+00 0.10197032E+03</pdfrwt>
<pdfrwt beam="2">  1       21 0.10746894E-02 0.10197032E+03</pdfrwt>
<totfact> 0.19815997E+05</totfact>
</mgrwt>
</event>
<event>
 4    1  0.5810391E+003  0.1625502E+03  0.7546771E-02  0.1185847E+00
         21   -1    0    0  504  501  0.00000000000E+00  0.00000000000E+00  0.71995289368E+02  0.71995289368E+02  0.00000000000E+00 0. -1.
         21   -1    0    0  503  502 -0.00000000000E+00 -0.00000000000E+00 -0.40170929531E+03  0.40170929531E+03  0.00000000000E+00 0. -1.
         21    1    1    2  503  501  0.16191807349E+03  0.14321302938E+02 -0.23447463672E+03  0.28530846028E+03  0.00000000000E+00 0. -1.
         21    1    1    2  504  502 -0.16191807349E+03 -0.14321302938E+02 -0.95239369226E+02  0.18839612441E+03  0.00000000000E+00 0. -1.
<mgrwt>
<rscale>  2 0.16255018E+03</rscale>
<asrwt>0</asrwt>
<pdfrwt beam="1">  1       21 0.11076198E-01 0.16255018E+03</pdfrwt>
<pdfrwt beam="2">  1       21 0.61801430E-01 0.16255018E+03</pdfrwt>
<totfact> 0.16624055E+05</totfact>
</mgrwt>
</event>
<event>
 4    1  0.5810391E+003  0.2774277E+03  0.7546771E-02  0.1097102E+00
         21   -1    0    0  503  501  0.00000000000E+00  0.00000000000E+00  0.41379942193E+03  0.41379942193E+03  0.00000000000E+00 0.  1.
         21   -1    0    0  504  502 -0.00000000000E+00 -0.00000000000E+00 -0.19020720205E+03  0.19020720205E+03  0.00000000000E+00 0.  1.
         21    1    1    2  503  502 -0.27503863785E+03 -0.36329854855E+02  0.66873242521E+02  0.28537368700E+03  0.00000000000E+00 0.  1.
         21    1    1    2  504  501  0.27503863785E+03  0.36329854855E+02  0.15671897737E+03  0.31863293698E+03  0.00000000000E+00 0.  1.
<mgrwt>
<rscale>  2 0.27742767E+03</rscale>
<asrwt>0</asrwt>
<pdfrwt beam="1">  1       21 0.63661449E-01 0.27742767E+03</pdfrwt>
<pdfrwt beam="2">  1       21 0.29262647E-01 0.27742767E+03</pdfrwt>
<totfact> 0.24453407E+04</totfact>
</mgrwt>
</event>
<event>
 4    1  0.5810391E+003  0.1355087E+03  0.7546771E-02  0.1219503E+00
         21   -1    0    0  502  501  0.00000000000E+00  0.00000000000E+00  0.20332810474E+02  0.20332810474E+02  0.00000000000E+00 0.  1.
         21   -1    0    0  503  502 -0.00000000000E+00 -0.00000000000E+00 -0.92011541846E+03  0.92011541846E+03  0.00000000000E+00 0.  1.
         21    1    1    2  503  504 -0.48793861860E+02 -0.12641896067E+03 -0.38594961927E+03  0.40904731168E+03  0.00000000000E+00 0.  1.
         21    1    1    2  504  501  0.48793861860E+02  0.12641896067E+03 -0.51383298871E+03  0.53140091725E+03  0.00000000000E+00 0.  1.
<mgrwt>
<rscale>  2 0.13550865E+03</rscale>
<asrwt>0</asrwt>
<pdfrwt beam="1">  1       21 0.31281247E-02 0.13550865E+03</pdfrwt>
<pdfrwt beam="2">  1       21 0.14155622E+00 0.13550865E+03</pdfrwt>
<totfact> 0.20975503E+05</totfact>
</mgrwt>
</event>
<event>
 4    1  0.5810391E+003  0.1096730E+03  0.7546771E-02  0.1261177E+00
         21   -1    0    0  504  501  0.00000000000E+00  0.00000000000E+00  0.74713510056E+03  0.74713510056E+03  0.00000000000E+00 0.  1.
         21   -1    0    0  503  502 -0.00000000000E+00 -0.00000000000E+00 -0.69070920027E+02  0.69070920027E+02  0.00000000000E+00 0. -1.
         21    1    1    2  503  501 -0.32416658810E+02 -0.10477277775E+03 -0.18359870135E+02  0.11119918865E+03  0.00000000000E+00 0. -1.
         21    1    1    2  504  502  0.32416658810E+02  0.10477277775E+03  0.69642405067E+03  0.70500683194E+03  0.00000000000E+00 0.  1.
<mgrwt>
<rscale>  2 0.10967304E+03</rscale>
<asrwt>0</asrwt>
<pdfrwt beam="1">  1       21 0.11494386E+00 0.10967304E+03</pdfrwt>
<pdfrwt beam="2">  1       21 0.10626296E-01 0.10967304E+03</pdfrwt>
<totfact> 0.44936356E+04</totfact>
</mgrwt>
</event>
<event>
 4    1  0.5810391E+003  0.1488163E+03  0.7546771E-02  0.1201935E+00
         21   -1    0    0  504  501  0.00000000000E+00  0.00000000000E+00  0.36032938733E+02  0.36032938733E+02  0.00000000000E+00 0. -1.
         21   -1    0    0  501  502 -0.00000000000E+00 -0.00000000000E+00 -0.10739844043E+04  0.10739844043E+04  0.00000000000E+00 0.  1.
         21    1    1    2  503  502  0.83781830952E+02 -0.12299147440E+03 -0.88195594582E+03  0.89442304775E+03  0.00000000000E+00 0.  1.
         21    1    1    2  504  503 -0.83781830952E+02  0.12299147440E+03 -0.15599551970E+03  0.21559429524E+03  0.00000000000E+00 0. -1.
<mgrwt>
<rscale>  2 0.14881632E+03</rscale>
<asrwt>0</asrwt>
<pdfrwt beam="1">  1       21 0.55435293E-02 0.14881632E+03</pdfrwt>
<pdfrwt beam="2">  1       21 0.16522836E+00 0.14881632E+03</pdfrwt>
<totfact> 0.53471675E+04</totfact>
</mgrwt>
</event>
<event>
 4    1  0.5810391E+003  0.1211987E+03  0.7546771E-02  0.1241133E+00
         21   -1    0    0  504  501  0.00000000000E+00  0.00000000000E+00  0.38778132939E+02  0.38778132939E+02  0.00000000000E+00 0. -1.
         21   -1    0    0  503  502 -0.00000000000E+00 -0.00000000000E+00 -0.66692133063E+03  0.66692133063E+03  0.00000000000E+00 0.  1.
         21    1    1    2  503  501 -0.11787422723E+03  0.28192042064E+02 -0.54599299510E+03  0.55928300116E+03  0.00000000000E+00 0.  1.
         21    1    1    2  504  502  0.11787422723E+03 -0.28192042064E+02 -0.82150202590E+02  0.14641646242E+03  0.00000000000E+00 0. -1.
<mgrwt>
<rscale>  2 0.12119870E+03</rscale>
<asrwt>0</asrwt>
<pdfrwt beam="1">  1       21 0.59658672E-02 0.12119870E+03</pdfrwt>
<pdfrwt beam="2">  1       21 0.10260327E+00 0.12119870E+03</pdfrwt>
<totfact> 0.15777683E+05</totfact>
</mgrwt>
</event>
<event>
 4    1  0.5810391E+003  0.1490392E+03  0.7546771E-02  0.1201659E+00
         21   -1    0    0  503  501  0.00000000000E+00  0.00000000000E+00  0.36059500948E+03  0.36059500948E+03  0.00000000000E+00 0. -1.
         21   -1    0    0  504  502 -0.00000000000E+00 -0.00000000000E+00 -0.65679491715E+02  0.65679491715E+02  0.00000000000E+00 0.  1.
         21    1    1    2  503  502 -0.12276106167E+03  0.84512828187E+02  0.94339842749E+02  0.17638793133E+03  0.00000000000E+00 0.  1.
         21    1    1    2  504  501  0.12276106167E+03 -0.84512828187E+02  0.20057567502E+03  0.24988656986E+03  0.00000000000E+00 0. -1.
<mgrwt>
<rscale>  2 0.14903924E+03</rscale>
<asrwt>0</asrwt>
<pdfrwt beam="1">  1       21 0.55476154E-01 0.14903924E+03</pdfrwt>
<pdfrwt beam="2">  1       21 0.10104537E-01 0.14903924E+03</pdfrwt>
<totfact> 0.24677855E+05</totfact>
</mgrwt>
</event>
<event>
 4    1  0.5810391E+003  0.1398782E+03  0.7546771E-02  0.1213493E+00
         21   -1    0    0  502  501  0.00000000000E+00  0.00000000000E+00  0.10349276767E+04  0.10349276767E+04  0.00000000000E+00 0. -1.
         21   -1    0    0  504  502 -0.00000000000E+00 -0.00000000000E+00 -0.20473612302E+02  0.20473612302E+02  0.00000000000E+00 0. -1.
         21    1    1    2  503  501  0.18234996212E+02 -0.13868449532E+03  0.65326587359E+03  0.66807350338E+03  0.00000000000E+00 0. -1.
         21    1    1    2  504  503 -0.18234996212E+02  0.13868449532E+03  0.36118819077E+03  0.38732778558E+03  0.00000000000E+00 0. -1.
<mgrwt>
<rscale>  2 0.13987818E+03</rscale>
<asrwt>0</asrwt>
<pdfrwt beam="1">  1       21 0.15921960E+00 0.13987818E+03</pdfrwt>
<pdfrwt beam="2">  1       21 0.31497873E-02 0.13987818E+03</pdfrwt>
<totfact> 0.15246511E+05</totfact>
</mgrwt>
</event>
<event>
 4    1  0.5810391E+003  0.1458400E+03  0.7546771E-02  0.1205680E+00
         21   -1    0    0  502  501  0.00000000000E+00  0.00000000000E+00  0.28305785263E+02  0.28305785263E+02  0.00000000000E+00 0. -1.
         21   -1    0    0  503  502 -0.00000000000E+00 -0.00000000000E+00 -0.90541177910E+03  0.90541177910E+03  0.00000000000E+00 0. -1.
         21    1    1    2  503  504 -0.12917732974E+03  0.67694416913E+02 -0.63109346324E+03  0.64772546341E+03  0.00000000000E+00 0. -1.
         21    1    1    2  504  501  0.12917732974E+03 -0.67694416913E+02 -0.24601253060E+03  0.28599210096E+03  0.00000000000E+00 0. -1.
<mgrwt>
<rscale>  2 0.14584004E+03</rscale>
<asrwt>0</asrwt>
<pdfrwt beam="1">  1       21 0.43547364E-02 0.14584004E+03</pdfrwt>
<pdfrwt beam="2">  1       21 0.13929411E+00 0.14584004E+03</pdfrwt>
<totfact> 0.12573706E+05</totfact>
</mgrwt>
</event>
<event>
 4    1  0.5810391E+003  0.1001749E+03  0.7546771E-02  0.1279929E+00
         21   -1    0    0  503  501  0.00000000000E+00  0.00000000000E+00  0.11135684098E+03  0.11135684098E+03  0.00000000000E+00 0.  1.
         21   -1    0    0  504  502 -0.00000000000E+00 -0.00000000000E+00 -0.21294050067E+03  0.21294050067E+03  0.00000000000E+00 0.  1.
         21    1    1    2  503  502  0.88151555007E+02 -0.47584819871E+02  0.72356095619E+02  0.12357352591E+03  0.00000000000E+00 0.  1.
         21    1    1    2  504  501 -0.88151555007E+02  0.47584819871E+02 -0.17393975530E+03  0.20072381574E+03  0.00000000000E+00 0.  1.
<mgrwt>
<rscale>  2 0.10017491E+03</rscale>
<asrwt>0</asrwt>
<pdfrwt beam="1">  1       21 0.17131822E-01 0.10017491E+03</pdfrwt>
<pdfrwt beam="2">  1       21 0.32760077E-01 0.10017491E+03</pdfrwt>
<totfact> 0.28131339E+05</totfact>
</mgrwt>
</event>
<event>
 4    1  0.5810391E+003  0.1336029E+03  0.7546771E-02  0.1222205E+00
         21   -1    0    0  503  501  0.00000000000E+00  0.00000000000E+00  0.76021613019E+03  0.76021613019E+03  0.00000000000E+00 0.  1.
         21   -1    0    0  501  502 -0.00000000000E+00 -0.00000000000E+00 -0.23998941042E+02  0.23998941042E+02  0.00000000000E+00 0. -1.
         21    1    1    2  503  504  0.72631973265E+02 -0.11213536371E+03  0.42577733613E+03  0.44624666194E+03  0.00000000000E+00 0. -1.
         21    1    1    2  504  502 -0.72631973265E+02  0.11213536371E+03  0.31043985302E+03  0.33796840929E+03  0.00000000000E+00 0.  1.
<mgrwt>
<rscale>  2 0.13360293E+03</rscale>
<asrwt>0</asrwt>
<pdfrwt beam="1">  1       21 0.11695631E+00 0.13360293E+03</pdfrwt>
<pdfrwt beam="2">  1       21 0.36921453E-02 0.13360293E+03</pdfrwt>
<totfact> 0.25668346E+05</totfact>
</mgrwt>
</event>
<event>
 4    1  0.5810391E+003  0.1022566E+03  0.7546771E-02  0.1275621E+00
         21   -1    0    0  502  501  0.00000000000E+00  0.00000000000E+00  0.15339170938E+03  0.15339170938E+03  0.00000000000E+00 0.  1.
         21   -1    0    0  504  502 -0.00000000000E+00 -0.00000000000E+00 -0.10126616927E+03  0.10126616927E+03  0.00000000000E+00 0.  1.
         21    1    1    2  503  501 -0.90161835412E+02 -0.48241594956E+02  0.98856979037E+02  0.14222907703E+03  0.00000000000E+00 0.  1.
         21    1    1    2  504  503  0.90161835412E+02  0.48241594956E+02 -0.46731438932E+02  0.11242880162E+03  0.00000000000E+00 0.  1.
<mgrwt>
<rscale>  2 0.10225658E+03</rscale>
<asrwt>0</asrwt>
<pdfrwt beam="1">  1       21 0.23598725E-01 0.10225658E+03</pdfrwt>
<pdfrwt beam="2">  1       21 0.15579411E-01 0.10225658E+03</pdfrwt>
<totfact> 0.62252360E+05</totfact>
</mgrwt>
</event>
<event>
 4    1  0.5810391E+003  0.1011933E+03  0.7546771E-02  0.1277806E+00
         21   -1    0    0  504  501  0.00000000000E+00  0.00000000000E+00  0.43915207060E+02  0.43915207060E+02  0.00000000000E+00 0. -1.
         21   -1    0    0  503  502 -0.00000000000E+00 -0.00000000000E+00 -0.25499385918E+03  0.25499385918E+03  0.00000000000E+00 0. -1.
         21    1    1    2  503  501  0.40006202855E+02 -0.92949416520E+02 -0.61825022963E+02  0.11858509081E+03  0.00000000000E+00 0. -1.
         21    1    1    2  504  502 -0.40006202855E+02  0.92949416520E+02 -0.14925362916E+03  0.18032397543E+03  0.00000000000E+00 0. -1.
<mgrwt>
<rscale>  2 0.10119333E+03</rscale>
<asrwt>0</asrwt>
<pdfrwt beam="1">  1       21 0.67561857E-02 0.10119333E+03</pdfrwt>
<pdfrwt beam="2">  1       21 0.39229825E-01 0.10119333E+03</pdfrwt>
<totfact> 0.10062776E+06</totfact>
</mgrwt>
</event>
<event>
 4    1  0.5810391E+003  0.1016358E+03  0.7546771E-02  0.1276893E+00
         21   -1    0    0  504  501  0.00000000000E+00  0.00000000000E+00  0.12528329078E+04  0.12528329078E+04  0.00000000000E+00 0.  1.
         21   -1    0    0  503  502 -0.00000000000E+00 -0.00000000000E+00 -0.14960124722E+02  0.14960124722E+02  0.00000000000E+00 0. -1.
         21    1    1    2  503  501 -0.82537811176E+02 -0.59307282280E+02  0.19424672840E+03  0.21922964101E+03  0.00000000000E+00 0. -1.
         21    1    1    2  504  502  0.82537811176E+02  0.59307282280E+02  0.10436260547E+04  0.10485633915E+04  0.00000000000E+00 0.  1.
<mgrwt>
<rscale>  2 0.10163584E+03</rscale>
<asrwt>0</asrwt>
<pdfrwt beam="1">  1       21 0.19274344E+00 0.10163584E+03</pdfrwt>
<pdfrwt beam="2">  1       21 0.23015586E-02 0.10163584E+03</pdfrwt>
<totfact> 0.15431373E+05</totfact>
</mgrwt>
</event>
<event>
 4    1  0.5810391E+003  0.1005942E+03  0.7546771E-02  0.1279051E+00
         21   -1    0    0  504  501  0.00000000000E+00  0.00000000000E+00  0.19746460255E+03  0.19746460255E+03  0.00000000000E+00 0. -1.
         21   -1    0    0  503  502 -0.00000000000E+00 -0.00000000000E+00 -0.15193973810E+03  0.15193973810E+03  0.00000000000E+00 0.  1.
         21    1    1    2  503  501 -0.10665254812E+02  0.10002723956E+03 -0.11945887340E+03  0.15617176040E+03  0.00000000000E+00 0.  1.
         21    1    1    2  504  502  0.10665254812E+02 -0.10002723956E+03  0.16498373785E+03  0.19323258024E+03  0.00000000000E+00 0. -1.
<mgrwt>
<rscale>  2 0.10059422E+03</rscale>
<asrwt>0</asrwt>
<pdfrwt beam="1">  1       21 0.30379170E-01 0.10059422E+03</pdfrwt>
<pdfrwt beam="2">  1       21 0.23375344E-01 0.10059422E+03</pdfrwt>
<totfact> 0.18383438E+05</totfact>
</mgrwt>
</event>
<event>
 4    1  0.5810391E+003  0.1056233E+03  0.7546771E-02  0.1268896E+00
         21   -1    0    0  503  501  0.00000000000E+00  0.00000000000E+00  0.35701168644E+02  0.35701168644E+02  0.00000000000E+00 0.  1.
         21   -1    0    0  501  502 -0.00000000000E+00 -0.00000000000E+00 -0.93590695604E+03  0.93590695604E+03  0.00000000000E+00 0. -1.
         21    1    1    2  503  504 -0.76228927137E+02 -0.73112507438E+02 -0.53611451446E+02  0.11845030942E+03  0.00000000000E+00 0.  1.
         21    1    1    2  504  502  0.76228927137E+02  0.73112507438E+02 -0.84659433595E+03  0.85315781526E+03  0.00000000000E+00 0. -1.
<mgrwt>
<rscale>  2 0.10562333E+03</rscale>
<asrwt>0</asrwt>
<pdfrwt beam="1">  1       21 0.54924876E-02 0.10562333E+03</pdfrwt>
<pdfrwt beam="2">  1       21 0.14398568E+00 0.10562333E+03</pdfrwt>
<totfact> 0.80046434E+04</totfact>
</mgrwt>
</event>
<event>
 4    1  0.5810391E+003  0.1210467E+03  0.7546771E-02  0.1241380E+00
         21   -1    0    0  503  501  0.00000000000E+00  0.00000000000E+00  0.78213363011E+02  0.78213363011E+02  0.00000000000E+00 0. -1.
         21   -1    0    0  501  502 -0.00000000000E+00 -0.00000000000E+00 -0.24995030482E+03  0.24995030482E+03  0.00000000000E+00 0. -1.
         21    1    1    2  503  504  0.11161288167E+03 -0.46849455570E+02 -0.37454795973E+01  0.12110464673E+03  0.00000000000E+00 0. -1.
         21    1    1    2  504  502 -0.11161288167E+03  0.46849455570E+02 -0.16799146221E+03  0.20705902110E+03  0.00000000000E+00 0. -1.
<mgrwt>
<rscale>  2 0.12104671E+03</rscale>
<asrwt>0</asrwt>
<pdfrwt beam="1">  1       21 0.12032825E-01 0.12104671E+03</pdfrwt>
<pdfrwt beam="2">  1       21 0.38453894E-01 0.12104671E+03</pdfrwt>
<totfact> 0.38538514E+05</totfact>
</mgrwt>
</event>
<event>
 4    1  0.5810391E+003  0.1051983E+03  0.7546771E-02  0.1269729E+00
         21   -1    0    0  504  501  0.00000000000E+00  0.00000000000E+00  0.78517559972E+03  0.78517559972E+03  0.00000000000E+00 0.  1.
         21   -1    0    0  503  502 -0.00000000000E+00 -0.00000000000E+00 -0.23251664665E+02  0.23251664665E+02  0.00000000000E+00 0.  1.
         21    1    1    2  503  501  0.10396393361E+03 -0.16068073270E+02  0.63462880125E+03  0.64328873599E+03  0.00000000000E+00 0.  1.
         21    1    1    2  504  502 -0.10396393361E+03  0.16068073270E+02  0.12729513380E+03  0.16513852840E+03  0.00000000000E+00 0.  1.
<mgrwt>
<rscale>  2 0.10519830E+03</rscale>
<asrwt>0</asrwt>
<pdfrwt beam="1">  1       21 0.12079623E+00 0.10519830E+03</pdfrwt>
<pdfrwt beam="2">  1       21 0.35771798E-02 0.10519830E+03</pdfrwt>
<totfact> 0.25233529E+05</totfact>
</mgrwt>
</event>
<event>
 4    1  0.5810391E+003  0.1644092E+03  0.7546771E-02  0.1183807E+00
         21   -1    0    0  504  501  0.00000000000E+00  0.00000000000E+00  0.40797098411E+03  0.40797098411E+03  0.00000000000E+00 0. -1.
         21   -1    0    0  503  502 -0.00000000000E+00 -0.00000000000E+00 -0.99416613128E+02  0.99416613128E+02  0.00000000000E+00 0. -1.
         21    1    1    2  503  501  0.51071862700E+02  0.15627556080E+03  0.30079616455E+03  0.34279544727E+03  0.00000000000E+00 0. -1.
         21    1    1    2  504  502 -0.51071862700E+02 -0.15627556080E+03  0.77582064285E+01  0.16459214996E+03  0.00000000000E+00 0. -1.
<mgrwt>
<rscale>  2 0.16440920E+03</rscale>
<asrwt>0</asrwt>
<pdfrwt beam="1">  1       21 0.62764766E-01 0.16440920E+03</pdfrwt>
<pdfrwt beam="2">  1       21 0.15294864E-01 0.16440920E+03</pdfrwt>
<totfact> 0.90071253E+04</totfact>
</mgrwt>
</event>
<event>
 4    1  0.5810391E+003  0.1019068E+03  0.7546771E-02  0.1276337E+00
         21   -1    0    0  503  501  0.00000000000E+00  0.00000000000E+00  0.12266022992E+03  0.12266022992E+03  0.00000000000E+00 0. -1.
         21   -1    0    0  504  502 -0.00000000000E+00 -0.00000000000E+00 -0.33471324094E+03  0.33471324094E+03  0.00000000000E+00 0. -1.
         21    1    1    2  503  502 -0.38501980077E+02 -0.94353562468E+02 -0.30368553139E+03  0.32032779960E+03  0.00000000000E+00 0. -1.
         21    1    1    2  504  501  0.38501980077E+02  0.94353562468E+02  0.91632520380E+02  0.13704567126E+03  0.00000000000E+00 0. -1.
<mgrwt>
<rscale>  2 0.10190681E+03</rscale>
<asrwt>0</asrwt>
<pdfrwt beam="1">  1       21 0.18870805E-01 0.10190681E+03</pdfrwt>
<pdfrwt beam="2">  1       21 0.51494344E-01 0.10190681E+03</pdfrwt>
<totfact> 0.95715792E+04</totfact>
</mgrwt>
</event>
<event>
 4    1  0.5810391E+003  0.1091415E+03  0.7546771E-02  0.1262168E+00
         21   -1    0    0  503  501  0.00000000000E+00  0.00000000000E+00  0.16337170792E+03  0.16337170792E+03  0.00000000000E+00 0.  1.
         21   -1    0    0  501  502 -0.00000000000E+00 -0.00000000000E+00 -0.43583693837E+03  0.43583693837E+03  0.00000000000E+00 0.  1.
         21    1    1    2  503  504 -0.10757153323E+03 -0.18445416112E+02  0.13716458362E+03  0.17528830861E+03  0.00000000000E+00 0.  1.
         21    1    1    2  504  502  0.10757153323E+03  0.18445416112E+02 -0.40962981406E+03  0.42392033768E+03  0.00000000000E+00 0.  1.
<mgrwt>
<rscale>  2 0.10914151E+03</rscale>
<asrwt>0</asrwt>
<pdfrwt beam="1">  1       21 0.25134109E-01 0.10914151E+03</pdfrwt>
<pdfrwt beam="2">  1       21 0.67051835E-01 0.10914151E+03</pdfrwt>
<totfact> 0.32131267E+04</totfact>
</mgrwt>
</event>
<event>
 4    1  0.5810391E+003  0.1258511E+03  0.7546771E-02  0.1233745E+00
         21   -1    0    0  504  501  0.00000000000E+00  0.00000000000E+00  0.60323686528E+03  0.60323686528E+03  0.00000000000E+00 0. -1.
         21   -1    0    0  503  502 -0.00000000000E+00 -0.00000000000E+00 -0.84610529735E+02  0.84610529735E+02  0.00000000000E+00 0.  1.
         21    1    1    2  503  501  0.11862111654E+03  0.42042050470E+02  0.54493256487E+03  0.55927632129E+03  0.00000000000E+00 0. -1.
         21    1    1    2  504  502 -0.11862111654E+03 -0.42042050470E+02 -0.26306229327E+02  0.12857107372E+03  0.00000000000E+00 0.  1.
<mgrwt>
<rscale>  2 0.12585112E+03</rscale>
<asrwt>0</asrwt>
<pdfrwt beam="1">  1       21 0.92805669E-01 0.12585112E+03</pdfrwt>
<pdfrwt beam="2">  1       21 0.13017005E-01 0.12585112E+03</pdfrwt>
<totfact> 0.51379533E+04</totfact>
</mgrwt>
</event>
<event>
 4    1  0.5810391E+003  0.1920092E+03  0.7546771E-02  0.1156662E+00
         21   -1    0    0  502  501  0.00000000000E+00  0.00000000000E+00  0.40384490960E+03  0.40384490960E+03  0.00000000000E+00 0. -1.
         21   -1    0    0  504  502 -0.00000000000E+00 -0.00000000000E+00 -0.19057550492E+03  0.19057550492E+03  0.00000000000E+00 0.  1.
         21    1    1    2  503  501  0.19197688934E+03  0.35208269126E+01  0.32115593644E+03  0.37417730793E+03  0.00000000000E+00 0. -1.
         21    1    1    2  504  503 -0.19197688934E+03 -0.35208269126E+01 -0.10788653176E+03  0.22024310658E+03  0.00000000000E+00 0.  1.
<mgrwt>
<rscale>  2 0.19200917E+03</rscale>
<asrwt>0</asrwt>
<pdfrwt beam="1">  1       21 0.62129986E-01 0.19200917E+03</pdfrwt>
<pdfrwt beam="2">  1       21 0.29319308E-01 0.19200917E+03</pdfrwt>
<totfact> 0.26795215E+04</totfact>
</mgrwt>
</event>
<event>
 4    1  0.5810391E+003  0.1308289E+03  0.7546771E-02  0.1226231E+00
         21   -1    0    0  502  501  0.00000000000E+00  0.00000000000E+00  0.19004998860E+02  0.19004998860E+02  0.00000000000E+00 0.  1.
         21   -1    0    0  503  502 -0.00000000000E+00 -0.00000000000E+00 -0.12691287773E+04  0.12691287773E+04  0.00000000000E+00 0.  1.
         21    1    1    2  503  504  0.10830092658E+03 -0.73396882534E+02 -0.97212208270E+03  0.98088609774E+03  0.00000000000E+00 0.  1.
         21    1    1    2  504  501 -0.10830092658E+03  0.73396882534E+02 -0.27800169577E+03  0.30724767846E+03  0.00000000000E+00 0.  1.
<mgrwt>
<rscale>  2 0.13082887E+03</rscale>
<asrwt>0</asrwt>
<pdfrwt beam="1">  1       21 0.29238456E-02 0.13082887E+03</pdfrwt>
<pdfrwt beam="2">  1       21 0.19525061E+00 0.13082887E+03</pdfrwt>
<totfact> 0.98764619E+04</totfact>
</mgrwt>
</event>
<event>
 4    1  0.5810391E+003  0.1092129E+03  0.7546771E-02  0.1262034E+00
         21   -1    0    0  502  501  0.00000000000E+00  0.00000000000E+00  0.28066657715E+03  0.28066657715E+03  0.00000000000E+00 0.  1.
         21   -1    0    0  503  502 -0.00000000000E+00 -0.00000000000E+00 -0.17745364604E+03  0.17745364604E+03  0.00000000000E+00 0. -1.
         21    1    1    2  503  504 -0.89523309356E+02 -0.62554291633E+02 -0.14815158326E+03  0.18405530131E+03  0.00000000000E+00 0. -1.
         21    1    1    2  504  501  0.89523309356E+02  0.62554291633E+02  0.25136451437E+03  0.27406492188E+03  0.00000000000E+00 0.  1.
<mgrwt>
<rscale>  2 0.10921292E+03</rscale>
<asrwt>0</asrwt>
<pdfrwt beam="1">  1       21 0.43179473E-01 0.10921292E+03</pdfrwt>
<pdfrwt beam="2">  1       21 0.27300561E-01 0.10921292E+03</pdfrwt>
<totfact> 0.68594609E+04</totfact>
</mgrwt>
</event>
<event>
 4    1  0.5810391E+003  0.1620329E+03  0.7546771E-02  0.1186421E+00
         21   -1    0    0  504  501  0.00000000000E+00  0.00000000000E+00  0.49557635718E+02  0.49557635718E+02  0.00000000000E+00 0.  1.
         21   -1    0    0  503  502 -0.00000000000E+00 -0.00000000000E+00 -0.91996789580E+03  0.91996789580E+03  0.00000000000E+00 0.  1.
         21    1    1    2  503  501  0.14071826002E+03 -0.80330772552E+02 -0.11950146852E+03  0.20133370979E+03  0.00000000000E+00 0.  1.
         21    1    1    2  504  502 -0.14071826002E+03  0.80330772552E+02 -0.75090879156E+03  0.76819182172E+03  0.00000000000E+00 0.  1.
<mgrwt>
<rscale>  2 0.16203290E+03</rscale>
<asrwt>0</asrwt>
<pdfrwt beam="1">  1       21 0.76242519E-02 0.16203290E+03</pdfrwt>
<pdfrwt beam="2">  1       21 0.14153352E+00 0.16203290E+03</pdfrwt>
<totfact> 0.46203720E+04</totfact>
</mgrwt>
</event>
<event>
 4    1  0.5810391E+003  0.1136309E+03  0.7546771E-02  0.1253990E+00
         21   -1    0    0  504  501  0.00000000000E+00  0.00000000000E+00  0.65957972219E+02  0.65957972219E+02  0.00000000000E+00 0.  1.
         21   -1    0    0  503  502 -0.00000000000E+00 -0.00000000000E+00 -0.27628604869E+03  0.27628604869E+03  0.00000000000E+00 0.  1.
         21    1    1    2  503  501  0.15885542046E+02 -0.11251499184E+03 -0.12780858365E+02  0.11434738377E+03  0.00000000000E+00 0.  1.
         21    1    1    2  504  502 -0.15885542046E+02  0.11251499184E+03 -0.19754721810E+03  0.22789663713E+03  0.00000000000E+00 0.  1.
<mgrwt>
<rscale>  2 0.11363087E+03</rscale>
<asrwt>0</asrwt>
<pdfrwt beam="1">  1       21 0.10147380E-01 0.11363087E+03</pdfrwt>
<pdfrwt beam="2">  1       21 0.42505546E-01 0.11363087E+03</pdfrwt>
<totfact> 0.42605106E+05</totfact>
</mgrwt>
</event>
<event>
 4    1  0.5810391E+003  0.1039238E+03  0.7546771E-02  0.1272255E+00
         21   -1    0    0  504  501  0.00000000000E+00  0.00000000000E+00  0.16380043718E+03  0.16380043718E+03  0.00000000000E+00 0.  1.
         21   -1    0    0  503  502 -0.00000000000E+00 -0.00000000000E+00 -0.33046269658E+03  0.33046269658E+03  0.00000000000E+00 0.  1.
         21    1    1    2  503  501  0.58520340610E+02  0.85880848267E+02  0.13777599364E+03  0.17257570741E+03  0.00000000000E+00 0.  1.
         21    1    1    2  504  502 -0.58520340610E+02 -0.85880848267E+02 -0.30443825303E+03  0.32168742635E+03  0.00000000000E+00 0.  1.
<mgrwt>
<rscale>  2 0.10392377E+03</rscale>
<asrwt>0</asrwt>
<pdfrwt beam="1">  1       21 0.25200067E-01 0.10392377E+03</pdfrwt>
<pdfrwt beam="2">  1       21 0.50840415E-01 0.10392377E+03</pdfrwt>
<totfact> 0.57430276E+04</totfact>
</mgrwt>
</event>
<event>
 4    1  0.5810391E+003  0.1235908E+03  0.7546771E-02  0.1237288E+00
         21   -1    0    0  503  501  0.00000000000E+00  0.00000000000E+00  0.89247301081E+03  0.89247301081E+03  0.00000000000E+00 0. -1.
         21   -1    0    0  504  502 -0.00000000000E+00 -0.00000000000E+00 -0.18630483656E+02  0.18630483656E+02  0.00000000000E+00 0. -1.
         21    1    1    2  503  502  0.13238926753E+02 -0.12287968460E+03  0.30699420800E+03  0.33093825680E+03  0.00000000000E+00 0. -1.
         21    1    1    2  504  501 -0.13238926753E+02  0.12287968460E+03  0.56684831916E+03  0.58016523767E+03  0.00000000000E+00 0. -1.
<mgrwt>
<rscale>  2 0.12359080E+03</rscale>
<asrwt>0</asrwt>
<pdfrwt beam="1">  1       21 0.13730351E+00 0.12359080E+03</pdfrwt>
<pdfrwt beam="2">  1       21 0.28662290E-02 0.12359080E+03</pdfrwt>
<totfact> 0.26275629E+05</totfact>
</mgrwt>
</event>
<event>
 4    1  0.5810391E+003  0.1307330E+03  0.7546771E-02  0.1226372E+00
         21   -1    0    0  503  501  0.00000000000E+00  0.00000000000E+00  0.29579367278E+03  0.29579367278E+03  0.00000000000E+00 0.  1.
         21   -1    0    0  504  502 -0.00000000000E+00 -0.00000000000E+00 -0.61383673754E+02  0.61383673754E+02  0.00000000000E+00 0.  1.
         21    1    1    2  503  502  0.55824049592E+02 -0.11821506746E+03  0.73937088951E+02  0.15019260904E+03  0.00000000000E+00 0.  1.
         21    1    1    2  504  501 -0.55824049592E+02  0.11821506746E+03  0.16047291007E+03  0.20698473749E+03  0.00000000000E+00 0.  1.
<mgrwt>
<rscale>  2 0.13073304E+03</rscale>
<asrwt>0</asrwt>
<pdfrwt beam="1">  1       21 0.45506718E-01 0.13073304E+03</pdfrwt>
<pdfrwt beam="2">  1       21 0.94436423E-02 0.13073304E+03</pdfrwt>
<totfact> 0.41990248E+05</totfact>
</mgrwt>
</event>
<event>
 4    1  0.5810391E+003  0.1028724E+03  0.7546771E-02  0.1274369E+00
         21   -1    0    0  504  501  0.00000000000E+00  0.00000000000E+00  0.79275191728E+03  0.79275191728E+03  0.00000000000E+00 0. -1.
         21   -1    0    0  503  502 -0.00000000000E+00 -0.00000000000E+00 -0.26467017323E+02  0.26467017323E+02  0.00000000000E+00 0. -1.
         21    1    1    2  503  501  0.89130789808E+02 -0.51365595409E+02  0.67150961411E+03  0.67934371560E+03  0.00000000000E+00 0. -1.
         21    1    1    2  504  502 -0.89130789808E+02  0.51365595409E+02  0.94775285847E+02  0.13987521900E+03  0.00000000000E+00 0. -1.
<mgrwt>
<rscale>  2 0.10287236E+03</rscale>
<asrwt>0</asrwt>
<pdfrwt beam="1">  1       21 0.12196182E+00 0.10287236E+03</pdfrwt>
<pdfrwt beam="2">  1       21 0.40718494E-02 0.10287236E+03</pdfrwt>
<totfact> 0.19928376E+05</totfact>
</mgrwt>
</event>
<event>
 4    1  0.5810391E+003  0.1009564E+03  0.7546771E-02  0.1278297E+00
         21   -1    0    0  503  501  0.00000000000E+00  0.00000000000E+00  0.26135467515E+03  0.26135467515E+03  0.00000000000E+00 0. -1.
         21   -1    0    0  501  502 -0.00000000000E+00 -0.00000000000E+00 -0.11537362246E+03  0.11537362246E+03  0.00000000000E+00 0. -1.
         21    1    1    2  503  504 -0.39177142299E+02  0.93044892977E+02  0.22624866638E+03  0.24775120509E+03  0.00000000000E+00 0. -1.
         21    1    1    2  504  502  0.39177142299E+02 -0.93044892977E+02 -0.80267613689E+02  0.12897709252E+03  0.00000000000E+00 0. -1.
<mgrwt>
<rscale>  2 0.10095643E+03</rscale>
<asrwt>0</asrwt>
<pdfrwt beam="1">  1       21 0.40208411E-01 0.10095643E+03</pdfrwt>
<pdfrwt beam="2">  1       21 0.17749788E-01 0.10095643E+03</pdfrwt>
<totfact> 0.17652989E+05</totfact>
</mgrwt>
</event>
<event>
 4    1  0.5810391E+003  0.1043161E+03  0.7546771E-02  0.1271473E+00
         21   -1    0    0  504  501  0.00000000000E+00  0.00000000000E+00  0.96832645640E+02  0.96832645640E+02  0.00000000000E+00 0. -1.
         21   -1    0    0  503  502 -0.00000000000E+00 -0.00000000000E+00 -0.11386008036E+03  0.11386008036E+03  0.00000000000E+00 0. -1.
         21    1    1    2  503  501 -0.26215270460E+02  0.10096838749E+03 -0.20532895854E+02  0.10631771014E+03  0.00000000000E+00 0. -1.
         21    1    1    2  504  502  0.26215270460E+02 -0.10096838749E+03  0.35054611311E+01  0.10437501586E+03  0.00000000000E+00 0. -1.
<mgrwt>
<rscale>  2 0.10431613E+03</rscale>
<asrwt>0</asrwt>
<pdfrwt beam="1">  1       21 0.14897330E-01 0.10431613E+03</pdfrwt>
<pdfrwt beam="2">  1       21 0.17516935E-01 0.10431613E+03</pdfrwt>
<totfact> 0.11678659E+06</totfact>
</mgrwt>
</event>
<event>
 4    1  0.5810391E+003  0.1088178E+03  0.7546771E-02  0.1262775E+00
         21   -1    0    0  503  501  0.00000000000E+00  0.00000000000E+00  0.57304228939E+03  0.57304228939E+03  0.00000000000E+00 0. -1.
         21   -1    0    0  504  502 -0.00000000000E+00 -0.00000000000E+00 -0.20671210683E+02  0.20671210683E+02  0.00000000000E+00 0. -1.
         21    1    1    2  503  502  0.94711361683E+02 -0.53582305921E+02  0.28175689954E+03  0.30204015624E+03  0.00000000000E+00 0. -1.
         21    1    1    2  504  501 -0.94711361683E+02  0.53582305921E+02  0.27061417916E+03  0.29167334383E+03  0.00000000000E+00 0. -1.
<mgrwt>
<rscale>  2 0.10881776E+03</rscale>
<asrwt>0</asrwt>
<pdfrwt beam="1">  1       21 0.88160340E-01 0.10881776E+03</pdfrwt>
<pdfrwt beam="2">  1       21 0.31801867E-02 0.10881776E+03</pdfrwt>
<totfact> 0.63950852E+05</totfact>
</mgrwt>
</event>
<event>
 4    1  0.5810391E+003  0.1103767E+03  0.7546771E-02  0.1259874E+00
         21   -1    0    0  504  501  0.00000000000E+00  0.00000000000E+00  0.30083191042E+03  0.30083191042E+03  0.00000000000E+00 0.  1.
         21   -1    0    0  503  502 -0.00000000000E+00 -0.00000000000E+00 -0.42604490204E+02  0.42604490204E+02  0.00000000000E+00 0.  1.
         21    1    1    2  503  501 -0.44822427764E+02  0.10086603477E+03  0.90928336397E+02  0.14300688571E+03  0.00000000000E+00 0.  1.
         21    1    1    2  504  502  0.44822427764E+02 -0.10086603477E+03  0.16729908382E+03  0.20042951491E+03  0.00000000000E+00 0.  1.
<mgrwt>
<rscale>  2 0.11037666E+03</rscale>
<asrwt>0</asrwt>
<pdfrwt beam="1">  1       21 0.46281831E-01 0.11037666E+03</pdfrwt>
<pdfrwt beam="2">  1       21 0.65545371E-02 0.11037666E+03</pdfrwt>
<totfact> 0.76109222E+05</totfact>
</mgrwt>
</event>
<event>
 4    1  0.5810391E+003  0.1036162E+03  0.7546771E-02  0.1272870E+00
         21   -1    0    0  504  501  0.00000000000E+00  0.00000000000E+00  0.10423737875E+04  0.10423737875E+04  0.00000000000E+00 0. -1.
         21   -1    0    0  503  502 -0.00000000000E+00 -0.00000000000E+00 -0.38464693483E+02  0.38464693483E+02  0.00000000000E+00 0.  1.
         21    1    1    2  503  501  0.10029902081E+03 -0.26008007791E+02  0.96439222796E+03  0.96994261655E+03  0.00000000000E+00 0. -1.
         21    1    1    2  504  502 -0.10029902081E+03  0.26008007791E+02  0.39516866047E+02  0.11089586443E+03  0.00000000000E+00 0.  1.
<mgrwt>
<rscale>  2 0.10361617E+03</rscale>
<asrwt>0</asrwt>
<pdfrwt beam="1">  1       21 0.16036518E+00 0.10361617E+03</pdfrwt>
<pdfrwt beam="2">  1       21 0.59176460E-02 0.10361617E+03</pdfrwt>
<totfact> 0.53563846E+04</totfact>
</mgrwt>
</event>
<event>
 4    1  0.5810391E+003  0.1488830E+03  0.7546771E-02  0.1201852E+00
         21   -1    0    0  504  501  0.00000000000E+00  0.00000000000E+00  0.93058285272E+03  0.93058285272E+03  0.00000000000E+00 0. -1.
         21   -1    0    0  503  502 -0.00000000000E+00 -0.00000000000E+00 -0.66214248625E+02  0.66214248625E+02  0.00000000000E+00 0. -1.
         21    1    1    2  503  501  0.12931420751E+01 -0.14887735962E+03  0.33383151137E+02  0.15257973393E+03  0.00000000000E+00 0. -1.
         21    1    1    2  504  502 -0.12931420751E+01  0.14887735962E+03  0.83098545296E+03  0.84421736742E+03  0.00000000000E+00 0. -1.
<mgrwt>
<rscale>  2 0.14888298E+03</rscale>
<asrwt>0</asrwt>
<pdfrwt beam="1">  1       21 0.14316658E+00 0.14888298E+03</pdfrwt>
<pdfrwt beam="2">  1       21 0.10186808E-01 0.14888298E+03</pdfrwt>
<totfact> 0.27296922E+04</totfact>
</mgrwt>
</event>
<event>
 4    1  0.5810391E+003  0.1061460E+03  0.7546771E-02  0.1267878E+00
         21   -1    0    0  502  501  0.00000000000E+00  0.00000000000E+00  0.41208118896E+02  0.41208118896E+02  0.00000000000E+00 0.  1.
         21   -1    0    0  503  502 -0.00000000000E+00 -0.00000000000E+00 -0.14297798837E+04  0.14297798837E+04  0.00000000000E+00 0. -1.
         21    1    1    2  503  504 -0.86153712174E+01 -0.10579575137E+03 -0.13557278901E+04  0.13598768612E+04  0.00000000000E+00 0. -1.
         21    1    1    2  504  501  0.86153712174E+01  0.10579575137E+03 -0.32843874656E+02  0.11111114135E+03  0.00000000000E+00 0.  1.
<mgrwt>
<rscale>  2 0.10614596E+03</rscale>
<asrwt>0</asrwt>
<pdfrwt beam="1">  1       21 0.63397120E-02 0.10614596E+03</pdfrwt>
<pdfrwt beam="2">  1       21 0.21996609E+00 0.10614596E+03</pdfrwt>
<totfact> 0.19667574E+04</totfact>
</mgrwt>
</event>
<event>
 4    1  0.5810391E+003  0.1261445E+03  0.7546771E-02  0.1233291E+00
         21   -1    0    0  502  501  0.00000000000E+00  0.00000000000E+00  0.10980317677E+04  0.10980317677E+04  0.00000000000E+00 0. -1.
         21   -1    0    0  503  502 -0.00000000000E+00 -0.00000000000E+00 -0.34450860813E+02  0.34450860813E+02  0.00000000000E+00 0. -1.
         21    1    1    2  503  504 -0.12570029694E+03  0.10576833221E+02  0.10079589187E+03  0.16146902450E+03  0.00000000000E+00 0. -1.
         21    1    1    2  504  501  0.12570029694E+03 -0.10576833221E+02  0.96278501500E+03  0.97101360400E+03  0.00000000000E+00 0. -1.
<mgrwt>
<rscale>  2 0.12614450E+03</rscale>
<asrwt>0</asrwt>
<pdfrwt beam="1">  1       21 0.16892794E+00 0.12614450E+03</pdfrwt>
<pdfrwt beam="2">  1       21 0.53001333E-02 0.12614450E+03</pdfrwt>
<totfact> 0.55175702E+04</totfact>
</mgrwt>
</event>
<event>
 4    1  0.5810391E+003  0.1077738E+03  0.7546771E-02  0.1264749E+00
         21   -1    0    0  503  501  0.00000000000E+00  0.00000000000E+00  0.38531298418E+02  0.38531298418E+02  0.00000000000E+00 0.  1.
         21   -1    0    0  504  502 -0.00000000000E+00 -0.00000000000E+00 -0.49922003913E+03  0.49922003913E+03  0.00000000000E+00 0.  1.
         21    1    1    2  503  502  0.35387734007E+02  0.10179836755E+03 -0.61110427112E+02  0.12389384027E+03  0.00000000000E+00 0.  1.
         21    1    1    2  504  501 -0.35387734007E+02 -0.10179836755E+03 -0.39957831360E+03  0.41385749727E+03  0.00000000000E+00 0.  1.
<mgrwt>
<rscale>  2 0.10777383E+03</rscale>
<asrwt>0</asrwt>
<pdfrwt beam="1">  1       21 0.59278922E-02 0.10777383E+03</pdfrwt>
<pdfrwt beam="2">  1       21 0.76803081E-01 0.10777383E+03</pdfrwt>
<totfact> 0.30939001E+05</totfact>
</mgrwt>
</event>
<event>
 4    1  0.5810391E+003  0.1386092E+03  0.7546771E-02  0.1215213E+00
         21   -1    0    0  503  501  0.00000000000E+00  0.00000000000E+00  0.13679782720E+02  0.13679782720E+02  0.00000000000E+00 0.  1.
         21   -1    0    0  504  502 -0.00000000000E+00 -0.00000000000E+00 -0.19702608036E+04  0.19702608036E+04  0.00000000000E+00 0.  1.
         21    1    1    2  503  502  0.29889758122E+02  0.13534808024E+03 -0.15098775693E+04  0.15162264919E+04  0.00000000000E+00 0.  1.
         21    1    1    2  504  501 -0.29889758122E+02 -0.13534808024E+03 -0.44670345160E+03  0.46771409444E+03  0.00000000000E+00 0.  1.
<mgrwt>
<rscale>  2 0.13860916E+03</rscale>
<asrwt>0</asrwt>
<pdfrwt beam="1">  1       21 0.21045835E-02 0.13860916E+03</pdfrwt>
<pdfrwt beam="2">  1       21 0.30311682E+00 0.13860916E+03</pdfrwt>
<totfact> 0.39258054E+04</totfact>
</mgrwt>
</event>
<event>
 4    1  0.5810391E+003  0.1039371E+03  0.7546771E-02  0.1272228E+00
         21   -1    0    0  503  501  0.00000000000E+00  0.00000000000E+00  0.67367249268E+02  0.67367249268E+02  0.00000000000E+00 0. -1.
         21   -1    0    0  504  502 -0.00000000000E+00 -0.00000000000E+00 -0.16036153499E+03  0.16036153499E+03  0.00000000000E+00 0. -1.
         21    1    1    2  503  502  0.10374388973E+03 -0.63347086878E+01 -0.46977556117E+02  0.11406057149E+03  0.00000000000E+00 0. -1.
         21    1    1    2  504  501 -0.10374388973E+03  0.63347086878E+01 -0.46016729608E+02  0.11366821277E+03  0.00000000000E+00 0. -1.
<mgrwt>
<rscale>  2 0.10393711E+03</rscale>
<asrwt>0</asrwt>
<pdfrwt beam="1">  1       21 0.10364192E-01 0.10393711E+03</pdfrwt>
<pdfrwt beam="2">  1       21 0.24671005E-01 0.10393711E+03</pdfrwt>
<totfact> 0.11784545E+06</totfact>
</mgrwt>
</event>
<event>
 4    1  0.5810391E+003  0.1046609E+03  0.7546771E-02  0.1270789E+00
         21   -1    0    0  504  501  0.00000000000E+00  0.00000000000E+00  0.20854454743E+03  0.20854454743E+03  0.00000000000E+00 0. -1.
         21   -1    0    0  501  502 -0.00000000000E+00 -0.00000000000E+00 -0.11213372590E+03  0.11213372590E+03  0.00000000000E+00 0.  1.
         21    1    1    2  503  502 -0.98138807259E+02 -0.36368615533E+02 -0.68697304591E+02  0.12519273679E+03  0.00000000000E+00 0.  1.
         21    1    1    2  504  503  0.98138807259E+02  0.36368615533E+02  0.16510812612E+03  0.19548553654E+03  0.00000000000E+00 0. -1.
<mgrwt>
<rscale>  2 0.10466089E+03</rscale>
<asrwt>0</asrwt>
<pdfrwt beam="1">  1       21 0.32083777E-01 0.10466089E+03</pdfrwt>
<pdfrwt beam="2">  1       21 0.17251342E-01 0.10466089E+03</pdfrwt>
<totfact> 0.28898319E+05</totfact>
</mgrwt>
</event>
<event>
 4    1  0.5810391E+003  0.1346937E+03  0.7546771E-02  0.1220653E+00
         21   -1    0    0  504  501  0.00000000000E+00  0.00000000000E+00  0.40748485758E+02  0.40748485758E+02  0.00000000000E+00 0. -1.
         21   -1    0    0  503  502 -0.00000000000E+00 -0.00000000000E+00 -0.46775519501E+03  0.46775519501E+03  0.00000000000E+00 0.  1.
         21    1    1    2  503  501 -0.11682866621E+03 -0.67033270302E+02 -0.26929912970E+03  0.30110532681E+03  0.00000000000E+00 0. -1.
         21    1    1    2  504  502  0.11682866621E+03  0.67033270302E+02 -0.15770757956E+03  0.20739835396E+03  0.00000000000E+00 0.  1.
<mgrwt>
<rscale>  2 0.13469371E+03</rscale>
<asrwt>0</asrwt>
<pdfrwt beam="1">  1       21 0.62689977E-02 0.13469371E+03</pdfrwt>
<pdfrwt beam="2">  1       21 0.71962339E-01 0.13469371E+03</pdfrwt>
<totfact> 0.32295964E+05</totfact>
</mgrwt>
</event>
<event>
 4    1  0.5810391E+003  0.1020572E+03  0.7546771E-02  0.1276029E+00
         21   -1    0    0  503  501  0.00000000000E+00  0.00000000000E+00  0.32255003832E+03  0.32255003832E+03  0.00000000000E+00 0. -1.
         21   -1    0    0  504  502 -0.00000000000E+00 -0.00000000000E+00 -0.54914929919E+02  0.54914929919E+02  0.00000000000E+00 0. -1.
         21    1    1    2  503  502 -0.45788810516E+02 -0.91208825207E+02  0.25495529263E+03  0.27462313487E+03  0.00000000000E+00 0. -1.
         21    1    1    2  504  501  0.45788810516E+02  0.91208825207E+02  0.12679815774E+02  0.10284183338E+03  0.00000000000E+00 0. -1.
<mgrwt>
<rscale>  2 0.10205717E+03</rscale>
<asrwt>0</asrwt>
<pdfrwt beam="1">  1       21 0.49623082E-01 0.10205717E+03</pdfrwt>
<pdfrwt beam="2">  1       21 0.84484510E-02 0.10205717E+03</pdfrwt>
<totfact> 0.42803057E+05</totfact>
</mgrwt>
</event>
<event>
 4    1  0.5810391E+003  0.1326470E+03  0.7546771E-02  0.1223580E+00
         21   -1    0    0  504  501  0.00000000000E+00  0.00000000000E+00  0.74174268221E+02  0.74174268221E+02  0.00000000000E+00 0. -1.
         21   -1    0    0  501  502 -0.00000000000E+00 -0.00000000000E+00 -0.51506655819E+03  0.51506655819E+03  0.00000000000E+00 0. -1.
         21    1    1    2  503  502  0.11940149341E+03  0.57779820830E+02 -0.43683646857E+03  0.45653184401E+03  0.00000000000E+00 0. -1.
         21    1    1    2  504  503 -0.11940149341E+03 -0.57779820830E+02 -0.40558213986E+01  0.13270898240E+03  0.00000000000E+00 0. -1.
<mgrwt>
<rscale>  2 0.13264699E+03</rscale>
<asrwt>0</asrwt>
<pdfrwt beam="1">  1       21 0.11411426E-01 0.13264699E+03</pdfrwt>
<pdfrwt beam="2">  1       21 0.79241010E-01 0.13264699E+03</pdfrwt>
<totfact> 0.92495483E+04</totfact>
</mgrwt>
</event>
<event>
 4    1  0.5810391E+003  0.1109815E+03  0.7546771E-02  0.1258763E+00
         21   -1    0    0  503  501  0.00000000000E+00  0.00000000000E+00  0.17572675003E+03  0.17572675003E+03  0.00000000000E+00 0. -1.
         21   -1    0    0  504  502 -0.00000000000E+00 -0.00000000000E+00 -0.70202038399E+02  0.70202038399E+02  0.00000000000E+00 0. -1.
         21    1    1    2  503  502 -0.11823759382E+02 -0.11034981534E+03  0.47874423758E+02  0.12086704878E+03  0.00000000000E+00 0. -1.
         21    1    1    2  504  501  0.11823759382E+02  0.11034981534E+03  0.57650287870E+02  0.12506173964E+03  0.00000000000E+00 0. -1.
<mgrwt>
<rscale>  2 0.11098145E+03</rscale>
<asrwt>0</asrwt>
<pdfrwt beam="1">  1       21 0.27034884E-01 0.11098145E+03</pdfrwt>
<pdfrwt beam="2">  1       21 0.10800314E-01 0.11098145E+03</pdfrwt>
<totfact> 0.92365268E+05</totfact>
</mgrwt>
</event>
<event>
 4    1  0.5810391E+003  0.1016932E+03  0.7546771E-02  0.1276775E+00
         21   -1    0    0  502  501  0.00000000000E+00  0.00000000000E+00  0.20687316003E+03  0.20687316003E+03  0.00000000000E+00 0. -1.
         21   -1    0    0  504  502 -0.00000000000E+00 -0.00000000000E+00 -0.49999017831E+02  0.49999017831E+02  0.00000000000E+00 0. -1.
         21    1    1    2  503  501 -0.48990625537E+02  0.89114634566E+02  0.80202965013E+02  0.12951453618E+03  0.00000000000E+00 0. -1.
         21    1    1    2  504  503  0.48990625537E+02 -0.89114634566E+02  0.76671177184E+02  0.12735764168E+03  0.00000000000E+00 0. -1.
<mgrwt>
<rscale>  2 0.10169316E+03</rscale>
<asrwt>0</asrwt>
<pdfrwt beam="1">  1       21 0.31826640E-01 0.10169316E+03</pdfrwt>
<pdfrwt beam="2">  1       21 0.76921567E-02 0.10169316E+03</pdfrwt>
<totfact> 0.12140968E+06</totfact>
</mgrwt>
</event>
<event>
 4    1  0.5810391E+003  0.1231564E+03  0.7546771E-02  0.1237979E+00
         21   -1    0    0  503  501  0.00000000000E+00  0.00000000000E+00  0.31947154113E+03  0.31947154113E+03  0.00000000000E+00 0.  1.
         21   -1    0    0  504  502 -0.00000000000E+00 -0.00000000000E+00 -0.49506120036E+02  0.49506120036E+02  0.00000000000E+00 0.  1.
         21    1    1    2  503  502  0.12154338613E+03  0.19867157736E+02  0.97630886350E+02  0.15716007329E+03  0.00000000000E+00 0.  1.
         21    1    1    2  504  501 -0.12154338613E+03 -0.19867157736E+02  0.17233453475E+03  0.21181758788E+03  0.00000000000E+00 0.  1.
<mgrwt>
<rscale>  2 0.12315640E+03</rscale>
<asrwt>0</asrwt>
<pdfrwt beam="1">  1       21 0.49149467E-01 0.12315640E+03</pdfrwt>
<pdfrwt beam="2">  1       21 0.76163263E-02 0.12315640E+03</pdfrwt>
<totfact> 0.52071088E+05</totfact>
</mgrwt>
</event>
<event>
 4    1  0.5810391E+003  0.1351215E+03  0.7546771E-02  0.1220048E+00
         21   -1    0    0  504  501  0.00000000000E+00  0.00000000000E+00  0.12333652399E+04  0.12333652399E+04  0.00000000000E+00 0.  1.
         21   -1    0    0  503  502 -0.00000000000E+00 -0.00000000000E+00 -0.15097944703E+03  0.15097944703E+03  0.00000000000E+00 0. -1.
         21    1    1    2  503  501  0.42889256746E+02  0.12813400781E+03 -0.11617112431E+03  0.17819523682E+03  0.00000000000E+00 0. -1.
         21    1    1    2  504  502 -0.42889256746E+02 -0.12813400781E+03  0.11985569172E+04  0.12061494501E+04  0.00000000000E+00 0.  1.
<mgrwt>
<rscale>  2 0.13512147E+03</rscale>
<asrwt>0</asrwt>
<pdfrwt beam="1">  1       21 0.18974849E+00 0.13512147E+03</pdfrwt>
<pdfrwt beam="2">  1       21 0.23227608E-01 0.13512147E+03</pdfrwt>
<totfact> 0.29074643E+03</totfact>
</mgrwt>
</event>
<event>
 4    1  0.5810391E+003  0.1217022E+03  0.7546771E-02  0.1240315E+00
         21   -1    0    0  502  501  0.00000000000E+00  0.00000000000E+00  0.38002026476E+02  0.38002026476E+02  0.00000000000E+00 0.  1.
         21   -1    0    0  504  502 -0.00000000000E+00 -0.00000000000E+00 -0.16109779734E+04  0.16109779734E+04  0.00000000000E+00 0.  1.
         21    1    1    2  503  501  0.20062834687E+02 -0.12003715549E+03 -0.68630412497E+02  0.13971961048E+03  0.00000000000E+00 0.  1.
         21    1    1    2  504  503 -0.20062834687E+02  0.12003715549E+03 -0.15043455344E+04  0.15092603894E+04  0.00000000000E+00 0.  1.
<mgrwt>
<rscale>  2 0.12170224E+03</rscale>
<asrwt>0</asrwt>
<pdfrwt beam="1">  1       21 0.58464665E-02 0.12170224E+03</pdfrwt>
<pdfrwt beam="2">  1       21 0.24784273E+00 0.12170224E+03</pdfrwt>
<totfact> 0.15215864E+04</totfact>
</mgrwt>
</event>
<event>
 4    1  0.5810391E+003  0.1558466E+03  0.7546771E-02  0.1193467E+00
         21   -1    0    0  502  501  0.00000000000E+00  0.00000000000E+00  0.15777692599E+03  0.15777692599E+03  0.00000000000E+00 0.  1.
         21   -1    0    0  503  502 -0.00000000000E+00 -0.00000000000E+00 -0.23420446143E+03  0.23420446143E+03  0.00000000000E+00 0.  1.
         21    1    1    2  503  504  0.14170929989E+03  0.64858584620E+02 -0.15294980075E+03  0.21836163404E+03  0.00000000000E+00 0.  1.
         21    1    1    2  504  501 -0.14170929989E+03 -0.64858584620E+02  0.76522265304E+02  0.17361975337E+03  0.00000000000E+00 0.  1.
<mgrwt>
<rscale>  2 0.15584660E+03</rscale>
<asrwt>0</asrwt>
<pdfrwt beam="1">  1       21 0.24273373E-01 0.15584660E+03</pdfrwt>
<pdfrwt beam="2">  1       21 0.36031455E-01 0.15584660E+03</pdfrwt>
<totfact> 0.12060981E+05</totfact>
</mgrwt>
</event>
<event>
 4    1  0.5810391E+003  0.1003143E+03  0.7546771E-02  0.1279636E+00
         21   -1    0    0  503  501  0.00000000000E+00  0.00000000000E+00  0.84642030509E+02  0.84642030509E+02  0.00000000000E+00 0.  1.
         21   -1    0    0  504  502 -0.00000000000E+00 -0.00000000000E+00 -0.23405122136E+03  0.23405122136E+03  0.00000000000E+00 0.  1.
         21    1    1    2  503  502 -0.24764850307E+02 -0.97209339220E+02  0.37070130015E+02  0.10694460240E+03  0.00000000000E+00 0.  1.
         21    1    1    2  504  501  0.24764850307E+02  0.97209339220E+02 -0.18647932086E+03  0.21174864947E+03  0.00000000000E+00 0.  1.
<mgrwt>
<rscale>  2 0.10031427E+03</rscale>
<asrwt>0</asrwt>
<pdfrwt beam="1">  1       21 0.13021851E-01 0.10031427E+03</pdfrwt>
<pdfrwt beam="2">  1       21 0.36007880E-01 0.10031427E+03</pdfrwt>
<totfact> 0.38242851E+05</totfact>
</mgrwt>
</event>
<event>
 4    1  0.5810391E+003  0.1132277E+03  0.7546771E-02  0.1254707E+00
         21   -1    0    0  504  501  0.00000000000E+00  0.00000000000E+00  0.33083469102E+03  0.33083469102E+03  0.00000000000E+00 0. -1.
         21   -1    0    0  501  502 -0.00000000000E+00 -0.00000000000E+00 -0.62587557206E+03  0.62587557206E+03  0.00000000000E+00 0. -1.
         21    1    1    2  503  502 -0.10891148810E+03  0.30964665179E+02 -0.61082990946E+03  0.62123562440E+03  0.00000000000E+00 0. -1.
         21    1    1    2  504  503  0.10891148810E+03 -0.30964665179E+02  0.31578902842E+03  0.33547463869E+03  0.00000000000E+00 0. -1.
<mgrwt>
<rscale>  2 0.11322775E+03</rscale>
<asrwt>0</asrwt>
<pdfrwt beam="1">  1       21 0.50897645E-01 0.11322775E+03</pdfrwt>
<pdfrwt beam="2">  1       21 0.96288549E-01 0.11322775E+03</pdfrwt>
<totfact> 0.35707580E+03</totfact>
</mgrwt>
</event>
<event>
 4    1  0.5810391E+003  0.1144764E+03  0.7546771E-02  0.1252498E+00
         21   -1    0    0  503  501  0.00000000000E+00  0.00000000000E+00  0.64207787898E+02  0.64207787898E+02  0.00000000000E+00 0. -1.
         21   -1    0    0  504  502 -0.00000000000E+00 -0.00000000000E+00 -0.27940509086E+03  0.27940509086E+03  0.00000000000E+00 0. -1.
         21    1    1    2  503  502 -0.11010728304E+03  0.31324473557E+02 -0.18405144607E+02  0.11594647805E+03  0.00000000000E+00 0. -1.
         21    1    1    2  504  501  0.11010728304E+03 -0.31324473557E+02 -0.19679215835E+03  0.22766640071E+03  0.00000000000E+00 0. -1.
<mgrwt>
<rscale>  2 0.11447636E+03</rscale>
<asrwt>0</asrwt>
<pdfrwt beam="1">  1       21 0.98781211E-02 0.11447636E+03</pdfrwt>
<pdfrwt beam="2">  1       21 0.42985399E-01 0.11447636E+03</pdfrwt>
<totfact> 0.43650142E+05</totfact>
</mgrwt>
</event>
<event>
 4    1  0.5810391E+003  0.1521940E+03  0.7546771E-02  0.1197803E+00
         21   -1    0    0  504  501  0.00000000000E+00  0.00000000000E+00  0.22552117404E+03  0.22552117404E+03  0.00000000000E+00 0. -1.
         21   -1    0    0  503  502 -0.00000000000E+00 -0.00000000000E+00 -0.25279296682E+03  0.25279296682E+03  0.00000000000E+00 0. -1.
         21    1    1    2  503  501  0.69466659706E+02  0.13541566046E+03  0.17063982270E+03  0.22865031599E+03  0.00000000000E+00 0. -1.
         21    1    1    2  504  502 -0.69466659706E+02 -0.13541566046E+03 -0.19791161548E+03  0.24966382487E+03  0.00000000000E+00 0. -1.
<mgrwt>
<rscale>  2 0.15219401E+03</rscale>
<asrwt>0</asrwt>
<pdfrwt beam="1">  1       21 0.34695565E-01 0.15219401E+03</pdfrwt>
<pdfrwt beam="2">  1       21 0.38891226E-01 0.15219401E+03</pdfrwt>
<totfact> 0.52048997E+04</totfact>
</mgrwt>
</event>
<event>
 4    1  0.5810391E+003  0.1370620E+03  0.7546771E-02  0.1217338E+00
         21   -1    0    0  503  501  0.00000000000E+00  0.00000000000E+00  0.94925078169E+03  0.94925078169E+03  0.00000000000E+00 0.  1.
         21   -1    0    0  504  502 -0.00000000000E+00 -0.00000000000E+00 -0.20169977843E+02  0.20169977843E+02  0.00000000000E+00 0.  1.
         21    1    1    2  503  502 -0.42498253315E+02  0.13030690813E+03  0.53103964339E+03  0.54844242605E+03  0.00000000000E+00 0.  1.
         21    1    1    2  504  501  0.42498253315E+02 -0.13030690813E+03  0.39804116046E+03  0.42097833349E+03  0.00000000000E+00 0.  1.
<mgrwt>
<rscale>  2 0.13706200E+03</rscale>
<asrwt>0</asrwt>
<pdfrwt beam="1">  1       21 0.14603855E+00 0.13706200E+03</pdfrwt>
<pdfrwt beam="2">  1       21 0.31030742E-02 0.13706200E+03</pdfrwt>
<totfact> 0.19608280E+05</totfact>
</mgrwt>
</event>
<event>
 4    1  0.5810391E+003  0.1078752E+03  0.7546771E-02  0.1264556E+00
         21   -1    0    0  504  501  0.00000000000E+00  0.00000000000E+00  0.14971027130E+04  0.14971027130E+04  0.00000000000E+00 0. -1.
         21   -1    0    0  501  502 -0.00000000000E+00 -0.00000000000E+00 -0.24173559286E+02  0.24173559286E+02  0.00000000000E+00 0.  1.
         21    1    1    2  503  502  0.10140559109E+03 -0.36796153727E+02  0.10994233515E+03  0.15402716609E+03  0.00000000000E+00 0.  1.
         21    1    1    2  504  503 -0.10140559109E+03  0.36796153727E+02  0.13629868185E+04  0.13672491062E+04  0.00000000000E+00 0. -1.
<mgrwt>
<rscale>  2 0.10787516E+03</rscale>
<asrwt>0</asrwt>
<pdfrwt beam="1">  1       21 0.23032342E+00 0.10787516E+03</pdfrwt>
<pdfrwt beam="2">  1       21 0.37190103E-02 0.10787516E+03</pdfrwt>
<totfact> 0.41563495E+04</totfact>
</mgrwt>
</event>
<event>
 4    1  0.5810391E+003  0.1017325E+03  0.7546771E-02  0.1276694E+00
         21   -1    0    0  502  501  0.00000000000E+00  0.00000000000E+00  0.33547822249E+02  0.33547822249E+02  0.00000000000E+00 0. -1.
         21   -1    0    0  504  502 -0.00000000000E+00 -0.00000000000E+00 -0.10479833513E+04  0.10479833513E+04  0.00000000000E+00 0.  1.
         21    1    1    2  503  501 -0.94273276662E+02 -0.38236702651E+02 -0.52966529714E+02  0.11469502776E+03  0.00000000000E+00 0. -1.
         21    1    1    2  504  503  0.94273276662E+02  0.38236702651E+02 -0.96146899931E+03  0.96683614576E+03  0.00000000000E+00 0.  1.
<mgrwt>
<rscale>  2 0.10173247E+03</rscale>
<asrwt>0</asrwt>
<pdfrwt beam="1">  1       21 0.51612032E-02 0.10173247E+03</pdfrwt>
<pdfrwt beam="2">  1       21 0.16122821E+00 0.10173247E+03</pdfrwt>
<totfact> 0.66545743E+04</totfact>
</mgrwt>
</event>
<event>
 4    1  0.5810391E+003  0.1172923E+03  0.7546771E-02  0.1247632E+00
         21   -1    0    0  503  501  0.00000000000E+00  0.00000000000E+00  0.61656643739E+02  0.61656643739E+02  0.00000000000E+00 0.  1.
         21   -1    0    0  504  502 -0.00000000000E+00 -0.00000000000E+00 -0.27253530758E+03  0.27253530758E+03  0.00000000000E+00 0.  1.
         21    1    1    2  503  502 -0.35128554482E+02  0.11190831292E+03 -0.17658338977E+03  0.21198863031E+03  0.00000000000E+00 0.  1.
         21    1    1    2  504  501  0.35128554482E+02 -0.11190831292E+03 -0.34295274071E+02  0.12220332100E+03  0.00000000000E+00 0.  1.
<mgrwt>
<rscale>  2 0.11729231E+03</rscale>
<asrwt>0</asrwt>
<pdfrwt beam="1">  1       21 0.94856376E-02 0.11729231E+03</pdfrwt>
<pdfrwt beam="2">  1       21 0.41928508E-01 0.11729231E+03</pdfrwt>
<totfact> 0.49231906E+05</totfact>
</mgrwt>
</event>
<event>
 4    1  0.5810391E+003  0.1168477E+03  0.7546771E-02  0.1248390E+00
         21   -1    0    0  504  501  0.00000000000E+00  0.00000000000E+00  0.29984916608E+03  0.29984916608E+03  0.00000000000E+00 0. -1.
         21   -1    0    0  503  502 -0.00000000000E+00 -0.00000000000E+00 -0.17085910055E+03  0.17085910055E+03  0.00000000000E+00 0. -1.
         21    1    1    2  503  501 -0.40039868636E+01 -0.11677912072E+03 -0.13707289854E+03  0.18011766838E+03  0.00000000000E+00 0. -1.
         21    1    1    2  504  502  0.40039868636E+01  0.11677912072E+03  0.26606296407E+03  0.29059059826E+03  0.00000000000E+00 0. -1.
<mgrwt>
<rscale>  2 0.11684774E+03</rscale>
<asrwt>0</asrwt>
<pdfrwt beam="1">  1       21 0.46130641E-01 0.11684774E+03</pdfrwt>
<pdfrwt beam="2">  1       21 0.26286016E-01 0.11684774E+03</pdfrwt>
<totfact> 0.64207105E+04</totfact>
</mgrwt>
</event>
<event>
 4    1  0.5810391E+003  0.1517420E+03  0.7546771E-02  0.1198349E+00
         21   -1    0    0  503  501  0.00000000000E+00  0.00000000000E+00  0.42589116831E+03  0.42589116831E+03  0.00000000000E+00 0. -1.
         21   -1    0    0  501  502 -0.00000000000E+00 -0.00000000000E+00 -0.32551764064E+03  0.32551764064E+03  0.00000000000E+00 0. -1.
         21    1    1    2  503  504  0.32431297246E+02  0.14823582535E+03  0.39327541480E+03  0.42153434124E+03  0.00000000000E+00 0. -1.
         21    1    1    2  504  502 -0.32431297246E+02 -0.14823582535E+03 -0.29290188713E+03  0.32987446770E+03  0.00000000000E+00 0. -1.
<mgrwt>
<rscale>  2 0.15174205E+03</rscale>
<asrwt>0</asrwt>
<pdfrwt beam="1">  1       21 0.65521718E-01 0.15174205E+03</pdfrwt>
<pdfrwt beam="2">  1       21 0.50079637E-01 0.15174205E+03</pdfrwt>
<totfact> 0.83918887E+03</totfact>
</mgrwt>
</event>
<event>
 4    1  0.5810391E+003  0.1500990E+03  0.7546771E-02  0.1200351E+00
         21   -1    0    0  503  501  0.00000000000E+00  0.00000000000E+00  0.70927544416E+02  0.70927544416E+02  0.00000000000E+00 0. -1.
         21   -1    0    0  501  502 -0.00000000000E+00 -0.00000000000E+00 -0.93345415478E+03  0.93345415478E+03  0.00000000000E+00 0. -1.
         21    1    1    2  503  504 -0.11686910486E+03  0.94187675742E+02 -0.23370789543E+02  0.15190753680E+03  0.00000000000E+00 0. -1.
         21    1    1    2  504  502  0.11686910486E+03 -0.94187675742E+02 -0.83915582082E+03  0.85247416240E+03  0.00000000000E+00 0. -1.
<mgrwt>
<rscale>  2 0.15009899E+03</rscale>
<asrwt>0</asrwt>
<pdfrwt beam="1">  1       21 0.10911930E-01 0.15009899E+03</pdfrwt>
<pdfrwt beam="2">  1       21 0.14360832E+00 0.15009899E+03</pdfrwt>
<totfact> 0.23970601E+04</totfact>
</mgrwt>
</event>
<event>
 4    1  0.5810391E+003  0.1952922E+03  0.7546771E-02  0.1153773E+00
         21   -1    0    0  503  501  0.00000000000E+00  0.00000000000E+00  0.23820902817E+03  0.23820902817E+03  0.00000000000E+00 0.  1.
         21   -1    0    0  504  502 -0.00000000000E+00 -0.00000000000E+00 -0.27577738742E+03  0.27577738742E+03  0.00000000000E+00 0.  1.
         21    1    1    2  503  502 -0.78693375186E+02  0.17873554773E+03  0.14765384146E+03  0.24482789918E+03  0.00000000000E+00 0.  1.
         21    1    1    2  504  501  0.78693375186E+02 -0.17873554773E+03 -0.18522220071E+03  0.26915851641E+03  0.00000000000E+00 0.  1.
<mgrwt>
<rscale>  2 0.19529220E+03</rscale>
<asrwt>0</asrwt>
<pdfrwt beam="1">  1       21 0.36647543E-01 0.19529220E+03</pdfrwt>
<pdfrwt beam="2">  1       21 0.42427290E-01 0.19529220E+03</pdfrwt>
<totfact> 0.38330310E+04</totfact>
</mgrwt>
</event>
<event>
 4    1  0.5810391E+003  0.1283945E+03  0.7546771E-02  0.1229858E+00
         21   -1    0    0  503  501  0.00000000000E+00  0.00000000000E+00  0.33759983669E+03  0.33759983669E+03  0.00000000000E+00 0.  1.
         21   -1    0    0  504  502 -0.00000000000E+00 -0.00000000000E+00 -0.52286073392E+02  0.52286073392E+02  0.00000000000E+00 0.  1.
         21    1    1    2  503  502 -0.10257880550E+03 -0.77218820680E+02  0.19277291391E+03  0.23161725744E+03  0.00000000000E+00 0.  1.
         21    1    1    2  504  501  0.10257880550E+03  0.77218820680E+02  0.92540849392E+02  0.15826865265E+03  0.00000000000E+00 0.  1.
<mgrwt>
<rscale>  2 0.12839454E+03</rscale>
<asrwt>0</asrwt>
<pdfrwt beam="1">  1       21 0.51938435E-01 0.12839454E+03</pdfrwt>
<pdfrwt beam="2">  1       21 0.80440115E-02 0.12839454E+03</pdfrwt>
<totfact> 0.42272829E+05</totfact>
</mgrwt>
</event>
<event>
 4    1  0.5810391E+003  0.1033780E+03  0.7546771E-02  0.1273349E+00
         21   -1    0    0  503  501  0.00000000000E+00  0.00000000000E+00  0.34539098987E+03  0.34539098987E+03  0.00000000000E+00 0.  1.
         21   -1    0    0  504  502 -0.00000000000E+00 -0.00000000000E+00 -0.69599460058E+02  0.69599460058E+02  0.00000000000E+00 0. -1.
         21    1    1    2  503  502 -0.51803115017E+02  0.89461981881E+02 -0.16744688961E+02  0.10472532423E+03  0.00000000000E+00 0. -1.
         21    1    1    2  504  501  0.51803115017E+02 -0.89461981881E+02  0.29253621877E+03  0.31026512569E+03  0.00000000000E+00 0.  1.
<mgrwt>
<rscale>  2 0.10337799E+03</rscale>
<asrwt>0</asrwt>
<pdfrwt beam="1">  1       21 0.53137074E-01 0.10337799E+03</pdfrwt>
<pdfrwt beam="2">  1       21 0.10707609E-01 0.10337799E+03</pdfrwt>
<totfact> 0.24652444E+05</totfact>
</mgrwt>
</event>
<event>
 4    1  0.5810391E+003  0.1028229E+03  0.7546771E-02  0.1274469E+00
         21   -1    0    0  503  501  0.00000000000E+00  0.00000000000E+00  0.90141276380E+02  0.90141276380E+02  0.00000000000E+00 0. -1.
         21   -1    0    0  501  502 -0.00000000000E+00 -0.00000000000E+00 -0.18545709604E+03  0.18545709604E+03  0.00000000000E+00 0. -1.
         21    1    1    2  503  504 -0.10262378646E+03  0.63960404815E+01  0.35886335849E+02  0.10890537169E+03  0.00000000000E+00 0. -1.
         21    1    1    2  504  502  0.10262378646E+03 -0.63960404815E+01 -0.13120215551E+03  0.16669300073E+03  0.00000000000E+00 0. -1.
<mgrwt>
<rscale>  2 0.10282291E+03</rscale>
<asrwt>0</asrwt>
<pdfrwt beam="1">  1       21 0.13867889E-01 0.10282291E+03</pdfrwt>
<pdfrwt beam="2">  1       21 0.28531861E-01 0.10282291E+03</pdfrwt>
<totfact> 0.53593044E+05</totfact>
</mgrwt>
</event>
<event>
 4    1  0.5810391E+003  0.1012003E+03  0.7546771E-02  0.1277792E+00
         21   -1    0    0  503  501  0.00000000000E+00  0.00000000000E+00  0.68121877352E+03  0.68121877352E+03  0.00000000000E+00 0. -1.
         21   -1    0    0  504  502 -0.00000000000E+00 -0.00000000000E+00 -0.16869933648E+02  0.16869933648E+02  0.00000000000E+00 0.  1.
         21    1    1    2  503  502 -0.89022470544E+02  0.48130068440E+02  0.21703026954E+03  0.23946532452E+03  0.00000000000E+00 0.  1.
         21    1    1    2  504  501  0.89022470544E+02 -0.48130068440E+02  0.44731857033E+03  0.45862338265E+03  0.00000000000E+00 0. -1.
<mgrwt>
<rscale>  2 0.10120031E+03</rscale>
<asrwt>0</asrwt>
<pdfrwt beam="1">  1       21 0.10480287E+00 0.10120031E+03</pdfrwt>
<pdfrwt beam="2">  1       21 0.25953749E-02 0.10120031E+03</pdfrwt>
<totfact> 0.59801797E+05</totfact>
</mgrwt>
</event>
<event>
 4    1  0.5810391E+003  0.1125082E+03  0.7546771E-02  0.1255994E+00
         21   -1    0    0  503  501  0.00000000000E+00  0.00000000000E+00  0.12145953050E+03  0.12145953050E+03  0.00000000000E+00 0. -1.
         21   -1    0    0  504  502 -0.00000000000E+00 -0.00000000000E+00 -0.14209503559E+03  0.14209503559E+03  0.00000000000E+00 0.  1.
         21    1    1    2  503  502  0.11093400732E+03  0.18754799920E+02  0.57719574928E+02  0.12645017133E+03  0.00000000000E+00 0. -1.
         21    1    1    2  504  501 -0.11093400732E+03 -0.18754799920E+02 -0.78355080020E+02  0.13710439477E+03  0.00000000000E+00 0.  1.
<mgrwt>
<rscale>  2 0.11250821E+03</rscale>
<asrwt>0</asrwt>
<pdfrwt beam="1">  1       21 0.18686081E-01 0.11250821E+03</pdfrwt>
<pdfrwt beam="2">  1       21 0.21860775E-01 0.11250821E+03</pdfrwt>
<totfact> 0.51618860E+05</totfact>
</mgrwt>
</event>
<event>
 4    1  0.5810391E+003  0.2513916E+03  0.7546771E-02  0.1112429E+00
         21   -1    0    0  503  501  0.00000000000E+00  0.00000000000E+00  0.55091330614E+03  0.55091330614E+03  0.00000000000E+00 0.  1.
         21   -1    0    0  504  502 -0.00000000000E+00 -0.00000000000E+00 -0.14812102851E+03  0.14812102851E+03  0.00000000000E+00 0.  1.
         21    1    1    2  503  502  0.11555782288E+03  0.22325798145E+03  0.36738384281E+03  0.44516134678E+03  0.00000000000E+00 0.  1.
         21    1    1    2  504  501 -0.11555782288E+03 -0.22325798145E+03  0.35408434819E+02  0.25387298786E+03  0.00000000000E+00 0.  1.
<mgrwt>
<rscale>  2 0.25139160E+03</rscale>
<asrwt>0</asrwt>
<pdfrwt beam="1">  1       21 0.84755892E-01 0.25139160E+03</pdfrwt>
<pdfrwt beam="2">  1       21 0.22787851E-01 0.25139160E+03</pdfrwt>
<totfact> 0.21096801E+04</totfact>
</mgrwt>
</event>
<event>
 4    1  0.5810391E+003  0.1063894E+03  0.7546771E-02  0.1267406E+00
         21   -1    0    0  504  501  0.00000000000E+00  0.00000000000E+00  0.74579704394E+02  0.74579704394E+02  0.00000000000E+00 0.  1.
         21   -1    0    0  503  502 -0.00000000000E+00 -0.00000000000E+00 -0.46771044325E+03  0.46771044325E+03  0.00000000000E+00 0. -1.
         21    1    1    2  503  501 -0.10623135934E+03  0.57975340495E+01  0.26287426841E+02  0.10958896805E+03  0.00000000000E+00 0.  1.
         21    1    1    2  504  502  0.10623135934E+03 -0.57975340495E+01 -0.41941816569E+03  0.43270117959E+03  0.00000000000E+00 0. -1.
<mgrwt>
<rscale>  2 0.10638944E+03</rscale>
<asrwt>0</asrwt>
<pdfrwt beam="1">  1       21 0.11473801E-01 0.10638944E+03</pdfrwt>
<pdfrwt beam="2">  1       21 0.71955454E-01 0.10638944E+03</pdfrwt>
<totfact> 0.11465757E+05</totfact>
</mgrwt>
</event>
<event>
 4    1  0.5810391E+003  0.1141874E+03  0.7546771E-02  0.1253006E+00
         21   -1    0    0  502  501  0.00000000000E+00  0.00000000000E+00  0.23574986212E+02  0.23574986212E+02  0.00000000000E+00 0.  1.
         21   -1    0    0  504  502 -0.00000000000E+00 -0.00000000000E+00 -0.58636331114E+03  0.58636331114E+03  0.00000000000E+00 0.  1.
         21    1    1    2  503  501 -0.11403022388E+03  0.59882512713E+01 -0.20873103703E+03  0.23792309037E+03  0.00000000000E+00 0.  1.
         21    1    1    2  504  503  0.11403022388E+03 -0.59882512713E+01 -0.35405728790E+03  0.37201520698E+03  0.00000000000E+00 0.  1.
<mgrwt>
<rscale>  2 0.11418735E+03</rscale>
<asrwt>0</asrwt>
<pdfrwt beam="1">  1       21 0.36269213E-02 0.11418735E+03</pdfrwt>
<pdfrwt beam="2">  1       21 0.90209732E-01 0.11418735E+03</pdfrwt>
<totfact> 0.48880708E+05</totfact>
</mgrwt>
</event>
<event>
 4    1  0.5810391E+003  0.1112896E+03  0.7546771E-02  0.1258200E+00
         21   -1    0    0  503  501  0.00000000000E+00  0.00000000000E+00  0.36408360084E+02  0.36408360084E+02  0.00000000000E+00 0. -1.
         21   -1    0    0  504  502 -0.00000000000E+00 -0.00000000000E+00 -0.48269943765E+03  0.48269943765E+03  0.00000000000E+00 0.  1.
         21    1    1    2  503  502 -0.57366917807E+02  0.95364608172E+02 -0.82110434953E+02  0.13830218826E+03  0.00000000000E+00 0. -1.
         21    1    1    2  504  501  0.57366917807E+02 -0.95364608172E+02 -0.36418064261E+03  0.38080560947E+03  0.00000000000E+00 0.  1.
<mgrwt>
<rscale>  2 0.11128959E+03</rscale>
<asrwt>0</asrwt>
<pdfrwt beam="1">  1       21 0.56012865E-02 0.11128959E+03</pdfrwt>
<pdfrwt beam="2">  1       21 0.74261447E-01 0.11128959E+03</pdfrwt>
<totfact> 0.36629405E+05</totfact>
</mgrwt>
</event>
<event>
 4    1  0.5810391E+003  0.1078496E+03  0.7546771E-02  0.1264605E+00
         21   -1    0    0  504  501  0.00000000000E+00  0.00000000000E+00  0.14330336719E+03  0.14330336719E+03  0.00000000000E+00 0.  1.
         21   -1    0    0  501  502 -0.00000000000E+00 -0.00000000000E+00 -0.49041959279E+03  0.49041959279E+03  0.00000000000E+00 0.  1.
         21    1    1    2  503  502 -0.30961743122E+02  0.10330978995E+03 -0.46301315543E+03  0.47540795570E+03  0.00000000000E+00 0.  1.
         21    1    1    2  504  503  0.30961743122E+02 -0.10330978995E+03  0.11589692983E+03  0.15831500429E+03  0.00000000000E+00 0.  1.
<mgrwt>
<rscale>  2 0.10784963E+03</rscale>
<asrwt>0</asrwt>
<pdfrwt beam="1">  1       21 0.22046672E-01 0.10784963E+03</pdfrwt>
<pdfrwt beam="2">  1       21 0.75449168E-01 0.10784963E+03</pdfrwt>
<totfact> 0.31790101E+04</totfact>
</mgrwt>
</event>
<event>
 4    1  0.5810391E+003  0.1053355E+03  0.7546771E-02  0.1269460E+00
         21   -1    0    0  504  501  0.00000000000E+00  0.00000000000E+00  0.91627131150E+03  0.91627131150E+03  0.00000000000E+00 0.  1.
         21   -1    0    0  503  502 -0.00000000000E+00 -0.00000000000E+00 -0.14699377315E+03  0.14699377315E+03  0.00000000000E+00 0.  1.
         21    1    1    2  503  501 -0.11475725936E+02  0.10470849124E+03  0.89390255438E+03  0.90008740529E+03  0.00000000000E+00 0.  1.
         21    1    1    2  504  502  0.11475725936E+02 -0.10470849124E+03 -0.12462501603E+03  0.16317767937E+03  0.00000000000E+00 0.  1.
<mgrwt>
<rscale>  2 0.10533547E+03</rscale>
<asrwt>0</asrwt>
<pdfrwt beam="1">  1       21 0.14096481E+00 0.10533547E+03</pdfrwt>
<pdfrwt beam="2">  1       21 0.22614427E-01 0.10533547E+03</pdfrwt>
<totfact> 0.70135336E+03</totfact>
</mgrwt>
</event>
<event>
 4    1  0.5810391E+003  0.1241870E+03  0.7546771E-02  0.1236345E+00
         21   -1    0    0  503  501  0.00000000000E+00  0.00000000000E+00  0.22449963712E+03  0.22449963712E+03  0.00000000000E+00 0.  1.
         21   -1    0    0  504  502 -0.00000000000E+00 -0.00000000000E+00 -0.73824926459E+02  0.73824926459E+02  0.00000000000E+00 0.  1.
         21    1    1    2  503  502 -0.71823378815E+02  0.10131051672E+03  0.11465021451E+03  0.16901801747E+03  0.00000000000E+00 0.  1.
         21    1    1    2  504  501  0.71823378815E+02 -0.10131051672E+03  0.36024496149E+02  0.12930654611E+03  0.00000000000E+00 0.  1.
<mgrwt>
<rscale>  2 0.12418703E+03</rscale>
<asrwt>0</asrwt>
<pdfrwt beam="1">  1       21 0.34538405E-01 0.12418703E+03</pdfrwt>
<pdfrwt beam="2">  1       21 0.11357681E-01 0.12418703E+03</pdfrwt>
<totfact> 0.52722933E+05</totfact>
</mgrwt>
</event>
