<event>
 4    1  0.6158309E+003  0.1063981E+03  0.7546771E-02  0.1267389E+00
         21   -1    0    0  504  501  0.00000000000E+00  0.00000000000E+00  0.62769436642E+03  0.62769436642E+03  0.00000000000E+00 0. -1.
         21   -1    0    0  503  502 -0.00000000000E+00 -0.00000000000E+00 -0.19658278902E+02  0.19658278902E+02  0.00000000000E+00 0. -1.
         21    1    1    2  503  501 -0.84219602045E+02 -0.65020166757E+02  0.21101131019E+03  0.23631829485E+03  0.00000000000E+00 0. -1.
         21    1    1    2  504  502  0.84219602045E+02  0.65020166757E+02  0.39702477733E+03  0.41103435047E+03  0.00000000000E+00 0. -1.
<mgrwt>
<rscale>  2 0.10639814E+03</rscale>
<asrwt>0</asrwt>
<pdfrwt beam="1">  1       21 0.96568349E-01 0.10639814E+03</pdfrwt>
<pdfrwt beam="2">  1       21 0.30243511E-02 0.10639814E+03</pdfrwt>
<totfact> 0.56390884E+05</totfact>
</mgrwt>
</event>
<event>
 4    1  0.6158309E+003  0.1252132E+03  0.7546771E-02  0.1234736E+00
         21   -1    0    0  504  501  0.00000000000E+00  0.00000000000E+00  0.63273106820E+03  0.63273106820E+03  0.00000000000E+00 0.  1.
         21   -1    0    0  503  502 -0.00000000000E+00 -0.00000000000E+00 -0.52086282317E+02  0.52086282317E+02  0.00000000000E+00 0. -1.
         21    1    1    2  503  501  0.12510807795E+03  0.51303674689E+01  0.42395597648E+02  0.13219583404E+03  0.00000000000E+00 0. -1.
         21    1    1    2  504  502 -0.12510807795E+03 -0.51303674689E+01  0.53824918823E+03  0.55262151647E+03  0.00000000000E+00 0.  1.
<mgrwt>
<rscale>  2 0.12521323E+03</rscale>
<asrwt>0</asrwt>
<pdfrwt beam="1">  1       21 0.97343236E-01 0.12521323E+03</pdfrwt>
<pdfrwt beam="2">  1       21 0.80132747E-02 0.12521323E+03</pdfrwt>
<totfact> 0.10763905E+05</totfact>
</mgrwt>
</event>
<event>
 4    1  0.6158309E+003  0.1196000E+03  0.7546771E-02  0.1243758E+00
         21   -1    0    0  503  501  0.00000000000E+00  0.00000000000E+00  0.38127512059E+03  0.38127512059E+03  0.00000000000E+00 0.  1.
         21   -1    0    0  504  502 -0.00000000000E+00 -0.00000000000E+00 -0.67646822371E+02  0.67646822371E+02  0.00000000000E+00 0.  1.
         21    1    1    2  503  502 -0.29882159306E+02 -0.11580675710E+03  0.70119241644E+01  0.11980532340E+03  0.00000000000E+00 0.  1.
         21    1    1    2  504  501  0.29882159306E+02  0.11580675710E+03  0.30661637406E+03  0.32911661957E+03  0.00000000000E+00 0.  1.
<mgrwt>
<rscale>  2 0.11959995E+03</rscale>
<asrwt>0</asrwt>
<pdfrwt beam="1">  1       21 0.58657709E-01 0.11959995E+03</pdfrwt>
<pdfrwt beam="2">  1       21 0.10407204E-01 0.11959995E+03</pdfrwt>
<totfact> 0.20985447E+05</totfact>
</mgrwt>
</event>
<event>
 4    1  0.6158309E+003  0.1338981E+03  0.7546771E-02  0.1221784E+00
         21   -1    0    0  503  501  0.00000000000E+00  0.00000000000E+00  0.27854684897E+03  0.27854684897E+03  0.00000000000E+00 0.  1.
         21   -1    0    0  504  502 -0.00000000000E+00 -0.00000000000E+00 -0.52733782036E+03  0.52733782036E+03  0.00000000000E+00 0. -1.
         21    1    1    2  503  502  0.17170233701E+02  0.13279261267E+03  0.25315596296E+03  0.28638546836E+03  0.00000000000E+00 0.  1.
         21    1    1    2  504  501 -0.17170233701E+02 -0.13279261267E+03 -0.50194693435E+03  0.51949920097E+03  0.00000000000E+00 0. -1.
<mgrwt>
<rscale>  2 0.13389808E+03</rscale>
<asrwt>0</asrwt>
<pdfrwt beam="1">  1       21 0.42853362E-01 0.13389808E+03</pdfrwt>
<pdfrwt beam="2">  1       21 0.81128894E-01 0.13389808E+03</pdfrwt>
<totfact> 0.73207763E+03</totfact>
</mgrwt>
</event>
<event>
 4    1  0.6158309E+003  0.1006807E+03  0.7546771E-02  0.1278871E+00
         21   -1    0    0  503  501  0.00000000000E+00  0.00000000000E+00  0.71444276295E+02  0.71444276295E+02  0.00000000000E+00 0. -1.
         21   -1    0    0  504  502 -0.00000000000E+00 -0.00000000000E+00 -0.57010795710E+03  0.57010795710E+03  0.00000000000E+00 0. -1.
         21    1    1    2  503  502 -0.10085162932E+02 -0.10017431834E+03 -0.52734179026E+03  0.53686680687E+03  0.00000000000E+00 0. -1.
         21    1    1    2  504  501  0.10085162932E+02  0.10017431834E+03  0.28678109449E+02  0.10468542653E+03  0.00000000000E+00 0. -1.
<mgrwt>
<rscale>  2 0.10068071E+03</rscale>
<asrwt>0</asrwt>
<pdfrwt beam="1">  1       21 0.10991427E-01 0.10068071E+03</pdfrwt>
<pdfrwt beam="2">  1       21 0.87708919E-01 0.10068071E+03</pdfrwt>
<totfact> 0.79945132E+04</totfact>
</mgrwt>
</event>
<event>
 4    1  0.6158309E+003  0.1116277E+03  0.7546771E-02  0.1257585E+00
         21   -1    0    0  504  501  0.00000000000E+00  0.00000000000E+00  0.42803289911E+02  0.42803289911E+02  0.00000000000E+00 0.  1.
         21   -1    0    0  501  502 -0.00000000000E+00 -0.00000000000E+00 -0.10389210212E+04  0.10389210212E+04  0.00000000000E+00 0.  1.
         21    1    1    2  503  502  0.75417797679E+02 -0.82297594892E+02 -0.95692859498E+03  0.96341739356E+03  0.00000000000E+00 0.  1.
         21    1    1    2  504  503 -0.75417797679E+02  0.82297594892E+02 -0.39189136289E+02  0.11830691753E+03  0.00000000000E+00 0.  1.
<mgrwt>
<rscale>  2 0.11162768E+03</rscale>
<asrwt>0</asrwt>
<pdfrwt beam="1">  1       21 0.65851224E-02 0.11162768E+03</pdfrwt>
<pdfrwt beam="2">  1       21 0.15983398E+00 0.11162768E+03</pdfrwt>
<totfact> 0.44793313E+04</totfact>
</mgrwt>
</event>
<event>
 4    1  0.6158309E+003  0.1018587E+03  0.7546771E-02  0.1276435E+00
         21   -1    0    0  503  501  0.00000000000E+00  0.00000000000E+00  0.21777972200E+03  0.21777972200E+03  0.00000000000E+00 0.  1.
         21   -1    0    0  501  502 -0.00000000000E+00 -0.00000000000E+00 -0.57889661131E+02  0.57889661131E+02  0.00000000000E+00 0.  1.
         21    1    1    2  503  504  0.66446611615E+02  0.77201324560E+02  0.13794078150E+03  0.17147260979E+03  0.00000000000E+00 0.  1.
         21    1    1    2  504  502 -0.66446611615E+02 -0.77201324560E+02  0.21949279368E+02  0.10419677334E+03  0.00000000000E+00 0.  1.
<mgrwt>
<rscale>  2 0.10185871E+03</rscale>
<asrwt>0</asrwt>
<pdfrwt beam="1">  1       21 0.33504572E-01 0.10185871E+03</pdfrwt>
<pdfrwt beam="2">  1       21 0.89061018E-02 0.10185871E+03</pdfrwt>
<totfact> 0.85469254E+05</totfact>
</mgrwt>
</event>
<event>
 4    1  0.6158309E+003  0.1283094E+03  0.7546771E-02  0.1229986E+00
         21   -1    0    0  504  501  0.00000000000E+00  0.00000000000E+00  0.14029242818E+03  0.14029242818E+03  0.00000000000E+00 0. -1.
         21   -1    0    0  503  502 -0.00000000000E+00 -0.00000000000E+00 -0.12201094709E+03  0.12201094709E+03  0.00000000000E+00 0. -1.
         21    1    1    2  503  501 -0.26808747954E+02  0.12547750095E+03 -0.16493058596E+02  0.12936511583E+03  0.00000000000E+00 0. -1.
         21    1    1    2  504  502  0.26808747954E+02 -0.12547750095E+03  0.34774539687E+02  0.13293825944E+03  0.00000000000E+00 0. -1.
<mgrwt>
<rscale>  2 0.12830944E+03</rscale>
<asrwt>0</asrwt>
<pdfrwt beam="1">  1       21 0.21583450E-01 0.12830944E+03</pdfrwt>
<pdfrwt beam="2">  1       21 0.18770915E-01 0.12830944E+03</pdfrwt>
<totfact> 0.52374176E+05</totfact>
</mgrwt>
</event>
<event>
 4    1  0.6158309E+003  0.1281826E+03  0.7546771E-02  0.1230178E+00
         21   -1    0    0  503  501  0.00000000000E+00  0.00000000000E+00  0.24667171236E+03  0.24667171236E+03  0.00000000000E+00 0.  1.
         21   -1    0    0  504  502 -0.00000000000E+00 -0.00000000000E+00 -0.69741487572E+02  0.69741487572E+02  0.00000000000E+00 0.  1.
         21    1    1    2  503  502 -0.91964565371E+02 -0.89293369189E+02  0.54940886976E+02  0.13946070460E+03  0.00000000000E+00 0.  1.
         21    1    1    2  504  501  0.91964565371E+02  0.89293369189E+02  0.12198933781E+03  0.17695249533E+03  0.00000000000E+00 0.  1.
<mgrwt>
<rscale>  2 0.12818263E+03</rscale>
<asrwt>0</asrwt>
<pdfrwt beam="1">  1       21 0.37949494E-01 0.12818263E+03</pdfrwt>
<pdfrwt beam="2">  1       21 0.10729460E-01 0.12818263E+03</pdfrwt>
<totfact> 0.48387962E+05</totfact>
</mgrwt>
</event>
<event>
 4    1  0.6158309E+003  0.1476865E+03  0.7546771E-02  0.1203345E+00
         21   -1    0    0  502  501  0.00000000000E+00  0.00000000000E+00  0.38795761996E+03  0.38795761996E+03  0.00000000000E+00 0. -1.
         21   -1    0    0  504  502 -0.00000000000E+00 -0.00000000000E+00 -0.19637036509E+03  0.19637036509E+03  0.00000000000E+00 0.  1.
         21    1    1    2  503  501 -0.12513651793E+03 -0.78435722337E+02  0.34261598865E+03  0.37309117698E+03  0.00000000000E+00 0. -1.
         21    1    1    2  504  503  0.12513651793E+03  0.78435722337E+02 -0.15102873378E+03  0.21123680808E+03  0.00000000000E+00 0.  1.
<mgrwt>
<rscale>  2 0.14768653E+03</rscale>
<asrwt>0</asrwt>
<pdfrwt beam="1">  1       21 0.59685787E-01 0.14768653E+03</pdfrwt>
<pdfrwt beam="2">  1       21 0.30210826E-01 0.14768653E+03</pdfrwt>
<totfact> 0.28272464E+04</totfact>
</mgrwt>
</event>
<event>
 4    1  0.6158309E+003  0.1160956E+03  0.7546771E-02  0.1249681E+00
         21   -1    0    0  503  501  0.00000000000E+00  0.00000000000E+00  0.22549379140E+03  0.22549379140E+03  0.00000000000E+00 0.  1.
         21   -1    0    0  504  502 -0.00000000000E+00 -0.00000000000E+00 -0.70181660136E+02  0.70181660136E+02  0.00000000000E+00 0.  1.
         21    1    1    2  503  502 -0.73030687951E+02  0.90248008502E+02  0.20719069735E+02  0.11792991254E+03  0.00000000000E+00 0.  1.
         21    1    1    2  504  501  0.73030687951E+02 -0.90248008502E+02  0.13459306153E+03  0.17774553900E+03  0.00000000000E+00 0.  1.
<mgrwt>
<rscale>  2 0.11609558E+03</rscale>
<asrwt>0</asrwt>
<pdfrwt beam="1">  1       21 0.34691352E-01 0.11609558E+03</pdfrwt>
<pdfrwt beam="2">  1       21 0.10797179E-01 0.11609558E+03</pdfrwt>
<totfact> 0.57156931E+05</totfact>
</mgrwt>
</event>
<event>
 4    1  0.6158309E+003  0.1365158E+03  0.7546771E-02  0.1218096E+00
         21   -1    0    0  503  501  0.00000000000E+00  0.00000000000E+00  0.52714300592E+02  0.52714300592E+02  0.00000000000E+00 0.  1.
         21   -1    0    0  501  502 -0.00000000000E+00 -0.00000000000E+00 -0.47226686237E+03  0.47226686237E+03  0.00000000000E+00 0.  1.
         21    1    1    2  503  504 -0.13316846944E+02 -0.13586474004E+03 -0.78164082588E+02  0.15730921717E+03  0.00000000000E+00 0.  1.
         21    1    1    2  504  502  0.13316846944E+02  0.13586474004E+03 -0.34138847919E+03  0.36767194579E+03  0.00000000000E+00 0.  1.
<mgrwt>
<rscale>  2 0.13651581E+03</rscale>
<asrwt>0</asrwt>
<pdfrwt beam="1">  1       21 0.81098926E-02 0.13651581E+03</pdfrwt>
<pdfrwt beam="2">  1       21 0.72656439E-01 0.13651581E+03</pdfrwt>
<totfact> 0.20326751E+05</totfact>
</mgrwt>
</event>
<event>
 4    1  0.6158309E+003  0.1130276E+03  0.7546771E-02  0.1255064E+00
         21   -1    0    0  504  501  0.00000000000E+00  0.00000000000E+00  0.50387449705E+02  0.50387449705E+02  0.00000000000E+00 0.  1.
         21   -1    0    0  501  502 -0.00000000000E+00 -0.00000000000E+00 -0.49562305533E+03  0.49562305533E+03  0.00000000000E+00 0. -1.
         21    1    1    2  503  502 -0.11033563819E+03 -0.24520943763E+02 -0.41341743109E+03  0.42858978298E+03  0.00000000000E+00 0. -1.
         21    1    1    2  504  503  0.11033563819E+03  0.24520943763E+02 -0.31818174529E+02  0.11742072206E+03  0.00000000000E+00 0.  1.
<mgrwt>
<rscale>  2 0.11302756E+03</rscale>
<asrwt>0</asrwt>
<pdfrwt beam="1">  1       21 0.77519155E-02 0.11302756E+03</pdfrwt>
<pdfrwt beam="2">  1       21 0.76249699E-01 0.11302756E+03</pdfrwt>
<totfact> 0.19891245E+05</totfact>
</mgrwt>
</event>
<event>
 4    1  0.6158309E+003  0.1159388E+03  0.7546771E-02  0.1249951E+00
         21   -1    0    0  502  501  0.00000000000E+00  0.00000000000E+00  0.17462862369E+02  0.17462862369E+02  0.00000000000E+00 0.  1.
         21   -1    0    0  503  502 -0.00000000000E+00 -0.00000000000E+00 -0.80855361619E+03  0.80855361619E+03  0.00000000000E+00 0.  1.
         21    1    1    2  503  504  0.10379597321E+03 -0.51654671595E+02 -0.48603813507E+03  0.49967477212E+03  0.00000000000E+00 0.  1.
         21    1    1    2  504  501 -0.10379597321E+03  0.51654671595E+02 -0.30505261875E+03  0.32634170644E+03  0.00000000000E+00 0.  1.
<mgrwt>
<rscale>  2 0.11593882E+03</rscale>
<asrwt>0</asrwt>
<pdfrwt beam="1">  1       21 0.26865946E-02 0.11593882E+03</pdfrwt>
<pdfrwt beam="2">  1       21 0.12439285E+00 0.11593882E+03</pdfrwt>
<totfact> 0.37402990E+05</totfact>
</mgrwt>
</event>
<event>
 4    1  0.6158309E+003  0.1041650E+03  0.7546771E-02  0.1271773E+00
         21   -1    0    0  502  501  0.00000000000E+00  0.00000000000E+00  0.90606311570E+02  0.90606311570E+02  0.00000000000E+00 0. -1.
         21   -1    0    0  504  502 -0.00000000000E+00 -0.00000000000E+00 -0.31642620338E+03  0.31642620338E+03  0.00000000000E+00 0. -1.
         21    1    1    2  503  501  0.34870213272E+02 -0.98155097659E+02  0.47538590312E+02  0.11450009842E+03  0.00000000000E+00 0. -1.
         21    1    1    2  504  503 -0.34870213272E+02  0.98155097659E+02 -0.27335848212E+03  0.29253241652E+03  0.00000000000E+00 0. -1.
<mgrwt>
<rscale>  2 0.10416504E+03</rscale>
<asrwt>0</asrwt>
<pdfrwt beam="1">  1       21 0.13939432E-01 0.10416504E+03</pdfrwt>
<pdfrwt beam="2">  1       21 0.48680956E-01 0.10416504E+03</pdfrwt>
<totfact> 0.18530064E+05</totfact>
</mgrwt>
</event>
<event>
 4    1  0.6158309E+003  0.1955230E+03  0.7546771E-02  0.1153572E+00
         21   -1    0    0  502  501  0.00000000000E+00  0.00000000000E+00  0.44741799462E+03  0.44741799462E+03  0.00000000000E+00 0. -1.
         21   -1    0    0  504  502 -0.00000000000E+00 -0.00000000000E+00 -0.17857483919E+03  0.17857483919E+03  0.00000000000E+00 0.  1.
         21    1    1    2  503  501 -0.16865133020E+03 -0.98924044812E+02  0.36045658463E+03  0.41007095389E+03  0.00000000000E+00 0. -1.
         21    1    1    2  504  503  0.16865133020E+03  0.98924044812E+02 -0.91613429200E+02  0.21592187992E+03  0.00000000000E+00 0.  1.
<mgrwt>
<rscale>  2 0.19552299E+03</rscale>
<asrwt>0</asrwt>
<pdfrwt beam="1">  1       21 0.68833537E-01 0.19552299E+03</pdfrwt>
<pdfrwt beam="2">  1       21 0.27473052E-01 0.19552299E+03</pdfrwt>
<totfact> 0.24261775E+04</totfact>
</mgrwt>
</event>
<event>
 4    1  0.6158309E+003  0.1013669E+03  0.7546771E-02  0.1277447E+00
         21   -1    0    0  503  501  0.00000000000E+00  0.00000000000E+00  0.41465474847E+03  0.41465474847E+03  0.00000000000E+00 0. -1.
         21   -1    0    0  504  502 -0.00000000000E+00 -0.00000000000E+00 -0.32908216428E+02  0.32908216428E+02  0.00000000000E+00 0. -1.
         21    1    1    2  503  502  0.45568389395E+02  0.90547100672E+02  0.79658498238E+02  0.12892141751E+03  0.00000000000E+00 0. -1.
         21    1    1    2  504  501 -0.45568389395E+02 -0.90547100672E+02  0.30208803380E+03  0.31864154738E+03  0.00000000000E+00 0. -1.
<mgrwt>
<rscale>  2 0.10136694E+03</rscale>
<asrwt>0</asrwt>
<pdfrwt beam="1">  1       21 0.63793034E-01 0.10136694E+03</pdfrwt>
<pdfrwt beam="2">  1       21 0.50628028E-02 0.10136694E+03</pdfrwt>
<totfact> 0.60324542E+05</totfact>
</mgrwt>
</event>
<event>
 4    1  0.6158309E+003  0.1136839E+03  0.7546771E-02  0.1253896E+00
         21   -1    0    0  503  501  0.00000000000E+00  0.00000000000E+00  0.65376769457E+02  0.65376769457E+02  0.00000000000E+00 0.  1.
         21   -1    0    0  504  502 -0.00000000000E+00 -0.00000000000E+00 -0.25438231806E+03  0.25438231806E+03  0.00000000000E+00 0.  1.
         21    1    1    2  503  502  0.50489484556E+02  0.10185696504E+03 -0.16998233567E+03  0.20449455694E+03  0.00000000000E+00 0.  1.
         21    1    1    2  504  501 -0.50489484556E+02 -0.10185696504E+03 -0.19023212928E+02  0.11526453057E+03  0.00000000000E+00 0.  1.
<mgrwt>
<rscale>  2 0.11368390E+03</rscale>
<asrwt>0</asrwt>
<pdfrwt beam="1">  1       21 0.10057965E-01 0.11368390E+03</pdfrwt>
<pdfrwt beam="2">  1       21 0.39135741E-01 0.11368390E+03</pdfrwt>
<totfact> 0.51029827E+05</totfact>
</mgrwt>
</event>
<event>
 4    1  0.6158309E+003  0.1017184E+03  0.7546771E-02  0.1276723E+00
         21   -1    0    0  503  501  0.00000000000E+00  0.00000000000E+00  0.13341223456E+03  0.13341223456E+03  0.00000000000E+00 0.  1.
         21   -1    0    0  501  502 -0.00000000000E+00 -0.00000000000E+00 -0.10313772419E+04  0.10313772419E+04  0.00000000000E+00 0. -1.
         21    1    1    2  503  504  0.65400659198E+02 -0.77906240125E+02  0.11108794944E+03  0.15062257794E+03  0.00000000000E+00 0.  1.
         21    1    1    2  504  502 -0.65400659198E+02  0.77906240125E+02 -0.10090529568E+04  0.10141668986E+04  0.00000000000E+00 0. -1.
<mgrwt>
<rscale>  2 0.10171838E+03</rscale>
<asrwt>0</asrwt>
<pdfrwt beam="1">  1       21 0.20524959E-01 0.10171838E+03</pdfrwt>
<pdfrwt beam="2">  1       21 0.15867342E+00 0.10171838E+03</pdfrwt>
<totfact> 0.62252016E+03</totfact>
</mgrwt>
</event>
<event>
 4    1  0.6158309E+003  0.1112501E+03  0.7546771E-02  0.1258272E+00
         21   -1    0    0  502  501  0.00000000000E+00  0.00000000000E+00  0.27976406613E+03  0.27976406613E+03  0.00000000000E+00 0. -1.
         21   -1    0    0  503  502 -0.00000000000E+00 -0.00000000000E+00 -0.66587737421E+02  0.66587737421E+02  0.00000000000E+00 0. -1.
         21    1    1    2  503  504  0.11016132300E+03  0.15526322816E+02  0.62622080373E+01  0.11142620444E+03  0.00000000000E+00 0. -1.
         21    1    1    2  504  501 -0.11016132300E+03 -0.15526322816E+02  0.20691412067E+03  0.23492559911E+03  0.00000000000E+00 0. -1.
<mgrwt>
<rscale>  2 0.11125010E+03</rscale>
<asrwt>0</asrwt>
<pdfrwt beam="1">  1       21 0.43040625E-01 0.11125010E+03</pdfrwt>
<pdfrwt beam="2">  1       21 0.10244267E-01 0.11125010E+03</pdfrwt>
<totfact> 0.40875741E+05</totfact>
</mgrwt>
</event>
<event>
 4    1  0.6158309E+003  0.1310133E+03  0.7546771E-02  0.1225960E+00
         21   -1    0    0  503  501  0.00000000000E+00  0.00000000000E+00  0.53292152371E+02  0.53292152371E+02  0.00000000000E+00 0.  1.
         21   -1    0    0  504  502 -0.00000000000E+00 -0.00000000000E+00 -0.53650128420E+03  0.53650128420E+03  0.00000000000E+00 0. -1.
         21    1    1    2  503  502  0.97168266043E+02 -0.87879561104E+02 -0.42803448037E+03  0.44763601908E+03  0.00000000000E+00 0. -1.
         21    1    1    2  504  501 -0.97168266043E+02  0.87879561104E+02 -0.55174651457E+02  0.14215741750E+03  0.00000000000E+00 0.  1.
<mgrwt>
<rscale>  2 0.13101332E+03</rscale>
<asrwt>0</asrwt>
<pdfrwt beam="1">  1       21 0.81987928E-02 0.13101332E+03</pdfrwt>
<pdfrwt beam="2">  1       21 0.82538658E-01 0.13101332E+03</pdfrwt>
<totfact> 0.15049264E+05</totfact>
</mgrwt>
</event>
<event>
 4    1  0.6158309E+003  0.1752708E+03  0.7546771E-02  0.1172460E+00
         21   -1    0    0  503  501  0.00000000000E+00  0.00000000000E+00  0.53443079908E+03  0.53443079908E+03  0.00000000000E+00 0. -1.
         21   -1    0    0  501  502 -0.00000000000E+00 -0.00000000000E+00 -0.18886737825E+03  0.18886737825E+03  0.00000000000E+00 0.  1.
         21    1    1    2  503  504  0.41836542122E+02  0.17020450400E+03  0.47441779057E+03  0.50575894401E+03  0.00000000000E+00 0. -1.
         21    1    1    2  504  502 -0.41836542122E+02 -0.17020450400E+03 -0.12885436974E+03  0.21753923333E+03  0.00000000000E+00 0.  1.
<mgrwt>
<rscale>  2 0.17527085E+03</rscale>
<asrwt>0</asrwt>
<pdfrwt beam="1">  1       21 0.82220122E-01 0.17527085E+03</pdfrwt>
<pdfrwt beam="2">  1       21 0.29056520E-01 0.17527085E+03</pdfrwt>
<totfact> 0.14825555E+04</totfact>
</mgrwt>
</event>
<event>
 4    1  0.6158309E+003  0.1080725E+03  0.7546771E-02  0.1264181E+00
         21   -1    0    0  504  501  0.00000000000E+00  0.00000000000E+00  0.44344677348E+02  0.44344677348E+02  0.00000000000E+00 0. -1.
         21   -1    0    0  503  502 -0.00000000000E+00 -0.00000000000E+00 -0.31197116177E+03  0.31197116177E+03  0.00000000000E+00 0. -1.
         21    1    1    2  503  501  0.50986635557E+02 -0.95289190063E+02 -0.20412206994E+03  0.23096641787E+03  0.00000000000E+00 0. -1.
         21    1    1    2  504  502 -0.50986635557E+02  0.95289190063E+02 -0.63504414484E+02  0.12534942125E+03  0.00000000000E+00 0. -1.
<mgrwt>
<rscale>  2 0.10807251E+03</rscale>
<asrwt>0</asrwt>
<pdfrwt beam="1">  1       21 0.68222580E-02 0.10807251E+03</pdfrwt>
<pdfrwt beam="2">  1       21 0.47995564E-01 0.10807251E+03</pdfrwt>
<totfact> 0.66027420E+05</totfact>
</mgrwt>
</event>
<event>
 4    1  0.6158309E+003  0.1089311E+03  0.7546771E-02  0.1262562E+00
         21   -1    0    0  504  501  0.00000000000E+00  0.00000000000E+00  0.98078002177E+01  0.98078002177E+01  0.00000000000E+00 0. -1.
         21   -1    0    0  501  502 -0.00000000000E+00 -0.00000000000E+00 -0.12449492027E+04  0.12449492027E+04  0.00000000000E+00 0. -1.
         21    1    1    2  503  502 -0.16730399909E+02  0.10763867310E+03 -0.72290937559E+03  0.73107041764E+03  0.00000000000E+00 0. -1.
         21    1    1    2  504  503  0.16730399909E+02 -0.10763867310E+03 -0.51223202686E+03  0.52368658524E+03  0.00000000000E+00 0. -1.
<mgrwt>
<rscale>  2 0.10893113E+03</rscale>
<asrwt>0</asrwt>
<pdfrwt beam="1">  1       21 0.15088922E-02 0.10893113E+03</pdfrwt>
<pdfrwt beam="2">  1       21 0.19153066E+00 0.10893113E+03</pdfrwt>
<totfact> 0.30748670E+05</totfact>
</mgrwt>
</event>
<event>
 4    1  0.6158309E+003  0.1129487E+03  0.7546771E-02  0.1255205E+00
         21   -1    0    0  503  501  0.00000000000E+00  0.00000000000E+00  0.14671953587E+03  0.14671953587E+03  0.00000000000E+00 0. -1.
         21   -1    0    0  504  502 -0.00000000000E+00 -0.00000000000E+00 -0.88786251782E+02  0.88786251782E+02  0.00000000000E+00 0. -1.
         21    1    1    2  503  502 -0.53222089092E+02 -0.99623337009E+02  0.12036723189E+02  0.11358821571E+03  0.00000000000E+00 0. -1.
         21    1    1    2  504  501  0.53222089092E+02  0.99623337009E+02  0.45896560894E+02  0.12191757193E+03  0.00000000000E+00 0. -1.
<mgrwt>
<rscale>  2 0.11294866E+03</rscale>
<asrwt>0</asrwt>
<pdfrwt beam="1">  1       21 0.22572236E-01 0.11294866E+03</pdfrwt>
<pdfrwt beam="2">  1       21 0.13659423E-01 0.11294866E+03</pdfrwt>
<totfact> 0.85639926E+05</totfact>
</mgrwt>
</event>
<event>
 4    1  0.6158309E+003  0.1215221E+03  0.7546771E-02  0.1240607E+00
         21   -1    0    0  504  501  0.00000000000E+00  0.00000000000E+00  0.13043330559E+04  0.13043330559E+04  0.00000000000E+00 0.  1.
         21   -1    0    0  503  502 -0.00000000000E+00 -0.00000000000E+00 -0.33222578186E+02  0.33222578186E+02  0.00000000000E+00 0. -1.
         21    1    1    2  503  501  0.83885610830E+02 -0.87925058622E+02  0.92563349566E+02  0.15275989435E+03  0.00000000000E+00 0. -1.
         21    1    1    2  504  502 -0.83885610830E+02  0.87925058622E+02  0.11785471281E+04  0.11847957397E+04  0.00000000000E+00 0.  1.
<mgrwt>
<rscale>  2 0.12152206E+03</rscale>
<asrwt>0</asrwt>
<pdfrwt beam="1">  1       21 0.20066658E+00 0.12152206E+03</pdfrwt>
<pdfrwt beam="2">  1       21 0.51111669E-02 0.12152206E+03</pdfrwt>
<totfact> 0.36431036E+04</totfact>
</mgrwt>
</event>
<event>
 4    1  0.6158309E+003  0.1182956E+03  0.7546771E-02  0.1245936E+00
         21   -1    0    0  503  501  0.00000000000E+00  0.00000000000E+00  0.62111476932E+02  0.62111476932E+02  0.00000000000E+00 0. -1.
         21   -1    0    0  504  502 -0.00000000000E+00 -0.00000000000E+00 -0.64949923592E+03  0.64949923592E+03  0.00000000000E+00 0.  1.
         21    1    1    2  503  502  0.11038601834E+03 -0.42529643416E+02 -0.61480674222E+01  0.11845523352E+03  0.00000000000E+00 0. -1.
         21    1    1    2  504  501 -0.11038601834E+03  0.42529643416E+02 -0.58123969157E+03  0.59315547934E+03  0.00000000000E+00 0.  1.
<mgrwt>
<rscale>  2 0.11829558E+03</rscale>
<asrwt>0</asrwt>
<pdfrwt beam="1">  1       21 0.95556118E-02 0.11829558E+03</pdfrwt>
<pdfrwt beam="2">  1       21 0.99922959E-01 0.11829558E+03</pdfrwt>
<totfact> 0.74933259E+04</totfact>
</mgrwt>
</event>
<event>
 4    1  0.6158309E+003  0.1000779E+03  0.7546771E-02  0.1280132E+00
         21   -1    0    0  502  501  0.00000000000E+00  0.00000000000E+00  0.68708858037E+03  0.68708858037E+03  0.00000000000E+00 0.  1.
         21   -1    0    0  503  502 -0.00000000000E+00 -0.00000000000E+00 -0.62382083566E+03  0.62382083566E+03  0.00000000000E+00 0.  1.
         21    1    1    2  503  504 -0.83982250779E+02 -0.54429476717E+02 -0.61611754944E+03  0.62419261539E+03  0.00000000000E+00 0.  1.
         21    1    1    2  504  501  0.83982250779E+02  0.54429476717E+02  0.67938529415E+03  0.68671680064E+03  0.00000000000E+00 0.  1.
<mgrwt>
<rscale>  2 0.10007790E+03</rscale>
<asrwt>0</asrwt>
<pdfrwt beam="1">  1       21 0.10570594E+00 0.10007790E+03</pdfrwt>
<pdfrwt beam="2">  1       21 0.95972436E-01 0.10007790E+03</pdfrwt>
<totfact> 0.74026974E+02</totfact>
</mgrwt>
</event>
<event>
 4    1  0.6158309E+003  0.1289385E+03  0.7546771E-02  0.1229039E+00
         21   -1    0    0  503  501  0.00000000000E+00  0.00000000000E+00  0.62812185268E+02  0.62812185268E+02  0.00000000000E+00 0.  1.
         21   -1    0    0  504  502 -0.00000000000E+00 -0.00000000000E+00 -0.33156659232E+03  0.33156659232E+03  0.00000000000E+00 0.  1.
         21    1    1    2  503  502  0.24543569982E+02  0.12658095505E+03 -0.45811024281E+02  0.13683484555E+03  0.00000000000E+00 0.  1.
         21    1    1    2  504  501 -0.24543569982E+02 -0.12658095505E+03 -0.22294338277E+03  0.25754393204E+03  0.00000000000E+00 0.  1.
<mgrwt>
<rscale>  2 0.12893845E+03</rscale>
<asrwt>0</asrwt>
<pdfrwt beam="1">  1       21 0.96634130E-02 0.12893845E+03</pdfrwt>
<pdfrwt beam="2">  1       21 0.51010246E-01 0.12893845E+03</pdfrwt>
<totfact> 0.31920546E+05</totfact>
</mgrwt>
</event>
<event>
 4    1  0.6158309E+003  0.1546553E+03  0.7546771E-02  0.1194867E+00
         21   -1    0    0  503  501  0.00000000000E+00  0.00000000000E+00  0.50340994544E+02  0.50340994544E+02  0.00000000000E+00 0. -1.
         21   -1    0    0  504  502 -0.00000000000E+00 -0.00000000000E+00 -0.13518335688E+04  0.13518335688E+04  0.00000000000E+00 0. -1.
         21    1    1    2  503  502  0.83833112474E+02 -0.12996259469E+03 -0.86149902940E+02  0.17703127561E+03  0.00000000000E+00 0. -1.
         21    1    1    2  504  501 -0.83833112474E+02  0.12996259469E+03 -0.12153426713E+04  0.12251432878E+04  0.00000000000E+00 0. -1.
<mgrwt>
<rscale>  2 0.15465532E+03</rscale>
<asrwt>0</asrwt>
<pdfrwt beam="1">  1       21 0.77447674E-02 0.15465532E+03</pdfrwt>
<pdfrwt beam="2">  1       21 0.20797442E+00 0.15465532E+03</pdfrwt>
<totfact> 0.15677233E+04</totfact>
</mgrwt>
</event>
<event>
 4    1  0.6158309E+003  0.1086811E+03  0.7546771E-02  0.1263032E+00
         21   -1    0    0  504  501  0.00000000000E+00  0.00000000000E+00  0.25088261706E+03  0.25088261706E+03  0.00000000000E+00 0.  1.
         21   -1    0    0  501  502 -0.00000000000E+00 -0.00000000000E+00 -0.49632430461E+02  0.49632430461E+02  0.00000000000E+00 0.  1.
         21    1    1    2  503  502  0.67858639577E+02 -0.84892818197E+02  0.66551370507E+02  0.12743888913E+03  0.00000000000E+00 0.  1.
         21    1    1    2  504  503 -0.67858639577E+02  0.84892818197E+02  0.13469881610E+03  0.17307615839E+03  0.00000000000E+00 0.  1.
<mgrwt>
<rscale>  2 0.10868112E+03</rscale>
<asrwt>0</asrwt>
<pdfrwt beam="1">  1       21 0.38597325E-01 0.10868112E+03</pdfrwt>
<pdfrwt beam="2">  1       21 0.76357587E-02 0.10868112E+03</pdfrwt>
<totfact> 0.84428077E+05</totfact>
</mgrwt>
</event>
<event>
 4    1  0.6158309E+003  0.1097257E+03  0.7546771E-02  0.1261079E+00
         21   -1    0    0  503  501  0.00000000000E+00  0.00000000000E+00  0.30377327936E+03  0.30377327936E+03  0.00000000000E+00 0.  1.
         21   -1    0    0  504  502 -0.00000000000E+00 -0.00000000000E+00 -0.40168309044E+02  0.40168309044E+02  0.00000000000E+00 0.  1.
         21    1    1    2  503  502 -0.98727082095E+02  0.47882096135E+02  0.11196741932E+03  0.15676873049E+03  0.00000000000E+00 0.  1.
         21    1    1    2  504  501  0.98727082095E+02 -0.47882096135E+02  0.15163755100E+03  0.18717285792E+03  0.00000000000E+00 0.  1.
<mgrwt>
<rscale>  2 0.10972571E+03</rscale>
<asrwt>0</asrwt>
<pdfrwt beam="1">  1       21 0.46734349E-01 0.10972571E+03</pdfrwt>
<pdfrwt beam="2">  1       21 0.61797400E-02 0.10972571E+03</pdfrwt>
<totfact> 0.82447588E+05</totfact>
</mgrwt>
</event>
<event>
 4    1  0.6158309E+003  0.1173200E+03  0.7546771E-02  0.1247585E+00
         21   -1    0    0  502  501  0.00000000000E+00  0.00000000000E+00  0.24848317803E+04  0.24848317803E+04  0.00000000000E+00 0.  1.
         21   -1    0    0  503  502 -0.00000000000E+00 -0.00000000000E+00 -0.10957100980E+02  0.10957100980E+02  0.00000000000E+00 0.  1.
         21    1    1    2  503  504 -0.11661606504E+03 -0.12832610326E+02  0.35944059851E+03  0.37810253420E+03  0.00000000000E+00 0.  1.
         21    1    1    2  504  501  0.11661606504E+03  0.12832610326E+02  0.21144340809E+04  0.21176863471E+04  0.00000000000E+00 0.  1.
<mgrwt>
<rscale>  2 0.11732000E+03</rscale>
<asrwt>0</asrwt>
<pdfrwt beam="1">  1       21 0.38228136E+00 0.11732000E+03</pdfrwt>
<pdfrwt beam="2">  1       21 0.16857098E-02 0.11732000E+03</pdfrwt>
<totfact> 0.20311779E+04</totfact>
</mgrwt>
</event>
<event>
 4    1  0.6158309E+003  0.1085353E+03  0.7546771E-02  0.1263307E+00
         21   -1    0    0  503  501  0.00000000000E+00  0.00000000000E+00  0.46246788329E+02  0.46246788329E+02  0.00000000000E+00 0. -1.
         21   -1    0    0  504  502 -0.00000000000E+00 -0.00000000000E+00 -0.25958531207E+03  0.25958531207E+03  0.00000000000E+00 0. -1.
         21    1    1    2  503  502 -0.92290020401E+02 -0.57117929728E+02 -0.85730940845E+02  0.13831015863E+03  0.00000000000E+00 0. -1.
         21    1    1    2  504  501  0.92290020401E+02  0.57117929728E+02 -0.12760758290E+03  0.16752194177E+03  0.00000000000E+00 0. -1.
<mgrwt>
<rscale>  2 0.10853527E+03</rscale>
<asrwt>0</asrwt>
<pdfrwt beam="1">  1       21 0.71148904E-02 0.10853527E+03</pdfrwt>
<pdfrwt beam="2">  1       21 0.39936203E-01 0.10853527E+03</pdfrwt>
<totfact> 0.89024826E+05</totfact>
</mgrwt>
</event>
<event>
 4    1  0.6158309E+003  0.1113264E+03  0.7546771E-02  0.1258133E+00
         21   -1    0    0  503  501  0.00000000000E+00  0.00000000000E+00  0.64856486211E+02  0.64856486211E+02  0.00000000000E+00 0. -1.
         21   -1    0    0  504  502 -0.00000000000E+00 -0.00000000000E+00 -0.21200606592E+03  0.21200606592E+03  0.00000000000E+00 0.  1.
         21    1    1    2  503  502  0.46709962656E+02 -0.10105313792E+03 -0.30095839217E+02  0.11532266400E+03  0.00000000000E+00 0. -1.
         21    1    1    2  504  501 -0.46709962656E+02  0.10105313792E+03 -0.11705374049E+03  0.16153988813E+03  0.00000000000E+00 0.  1.
<mgrwt>
<rscale>  2 0.11132635E+03</rscale>
<asrwt>0</asrwt>
<pdfrwt beam="1">  1       21 0.99779212E-02 0.11132635E+03</pdfrwt>
<pdfrwt beam="2">  1       21 0.32616317E-01 0.11132635E+03</pdfrwt>
<totfact> 0.73992476E+05</totfact>
</mgrwt>
</event>
<event>
 4    1  0.6158309E+003  0.1342123E+03  0.7546771E-02  0.1221336E+00
         21   -1    0    0  503  501  0.00000000000E+00  0.00000000000E+00  0.46998866016E+02  0.46998866016E+02  0.00000000000E+00 0. -1.
         21   -1    0    0  504  502 -0.00000000000E+00 -0.00000000000E+00 -0.38693603235E+03  0.38693603235E+03  0.00000000000E+00 0.  1.
         21    1    1    2  503  502  0.12090545579E+03  0.58264906260E+02 -0.14882957239E+03  0.20040751024E+03  0.00000000000E+00 0. -1.
         21    1    1    2  504  501 -0.12090545579E+03 -0.58264906260E+02 -0.19110759394E+03  0.23352738813E+03  0.00000000000E+00 0.  1.
<mgrwt>
<rscale>  2 0.13421225E+03</rscale>
<asrwt>0</asrwt>
<pdfrwt beam="1">  1       21 0.72305949E-02 0.13421225E+03</pdfrwt>
<pdfrwt beam="2">  1       21 0.59528620E-01 0.13421225E+03</pdfrwt>
<totfact> 0.38111835E+05</totfact>
</mgrwt>
</event>
<event>
 4    1  0.6158309E+003  0.1021771E+03  0.7546771E-02  0.1275783E+00
         21   -1    0    0  503  501  0.00000000000E+00  0.00000000000E+00  0.53902414982E+03  0.53902414982E+03  0.00000000000E+00 0.  1.
         21   -1    0    0  504  502 -0.00000000000E+00 -0.00000000000E+00 -0.47150447583E+02  0.47150447583E+02  0.00000000000E+00 0.  1.
         21    1    1    2  503  502 -0.30659306078E+02 -0.97468806944E+02  0.47091191622E+03  0.48186947840E+03  0.00000000000E+00 0.  1.
         21    1    1    2  504  501  0.30659306078E+02  0.97468806944E+02  0.20961786011E+02  0.10430511900E+03  0.00000000000E+00 0.  1.
<mgrwt>
<rscale>  2 0.10217711E+03</rscale>
<asrwt>0</asrwt>
<pdfrwt beam="1">  1       21 0.82926788E-01 0.10217711E+03</pdfrwt>
<pdfrwt beam="2">  1       21 0.72539154E-02 0.10217711E+03</pdfrwt>
<totfact> 0.18561259E+05</totfact>
</mgrwt>
</event>
<event>
 4    1  0.6158309E+003  0.1025664E+03  0.7546771E-02  0.1274990E+00
         21   -1    0    0  504  501  0.00000000000E+00  0.00000000000E+00  0.66539704997E+02  0.66539704997E+02  0.00000000000E+00 0.  1.
         21   -1    0    0  501  502 -0.00000000000E+00 -0.00000000000E+00 -0.20170997125E+03  0.20170997125E+03  0.00000000000E+00 0.  1.
         21    1    1    2  503  502  0.32948065124E+02 -0.97130273651E+02 -0.12995044373E+03  0.16555054479E+03  0.00000000000E+00 0.  1.
         21    1    1    2  504  503 -0.32948065124E+02  0.97130273651E+02 -0.52198225221E+01  0.10269913146E+03  0.00000000000E+00 0.  1.
<mgrwt>
<rscale>  2 0.10256639E+03</rscale>
<asrwt>0</asrwt>
<pdfrwt beam="1">  1       21 0.10236878E-01 0.10256639E+03</pdfrwt>
<pdfrwt beam="2">  1       21 0.31032303E-01 0.10256639E+03</pdfrwt>
<totfact> 0.77863524E+05</totfact>
</mgrwt>
</event>
<event>
 4    1  0.6158309E+003  0.1405217E+03  0.7546771E-02  0.1212629E+00
         21   -1    0    0  503  501  0.00000000000E+00  0.00000000000E+00  0.59623842045E+02  0.59623842045E+02  0.00000000000E+00 0. -1.
         21   -1    0    0  504  502 -0.00000000000E+00 -0.00000000000E+00 -0.41192268048E+03  0.41192268048E+03  0.00000000000E+00 0. -1.
         21    1    1    2  503  502 -0.12152749545E+03  0.70550818751E+02 -0.71765742776E+02  0.15778679290E+03  0.00000000000E+00 0. -1.
         21    1    1    2  504  501  0.12152749545E+03 -0.70550818751E+02 -0.28053309566E+03  0.31375972963E+03  0.00000000000E+00 0. -1.
<mgrwt>
<rscale>  2 0.14052171E+03</rscale>
<asrwt>0</asrwt>
<pdfrwt beam="1">  1       21 0.91728985E-02 0.14052171E+03</pdfrwt>
<pdfrwt beam="2">  1       21 0.63372722E-01 0.14052171E+03</pdfrwt>
<totfact> 0.22069778E+05</totfact>
</mgrwt>
</event>
<event>
 4    1  0.6158309E+003  0.1117867E+03  0.7546771E-02  0.1257297E+00
         21   -1    0    0  503  501  0.00000000000E+00  0.00000000000E+00  0.46280466004E+02  0.46280466004E+02  0.00000000000E+00 0.  1.
         21   -1    0    0  504  502 -0.00000000000E+00 -0.00000000000E+00 -0.27212953361E+03  0.27212953361E+03  0.00000000000E+00 0.  1.
         21    1    1    2  503  502 -0.99609205952E+02 -0.50737235377E+02 -0.98879304797E+02  0.14924268116E+03  0.00000000000E+00 0.  1.
         21    1    1    2  504  501  0.99609205952E+02  0.50737235377E+02 -0.12696976281E+03  0.16916731845E+03  0.00000000000E+00 0.  1.
<mgrwt>
<rscale>  2 0.11178668E+03</rscale>
<asrwt>0</asrwt>
<pdfrwt beam="1">  1       21 0.71200716E-02 0.11178668E+03</pdfrwt>
<pdfrwt beam="2">  1       21 0.41866083E-01 0.11178668E+03</pdfrwt>
<totfact> 0.80934744E+05</totfact>
</mgrwt>
</event>
<event>
 4    1  0.6158309E+003  0.1195499E+03  0.7546771E-02  0.1243841E+00
         21   -1    0    0  502  501  0.00000000000E+00  0.00000000000E+00  0.57779378447E+03  0.57779378447E+03  0.00000000000E+00 0.  1.
         21   -1    0    0  503  502 -0.00000000000E+00 -0.00000000000E+00 -0.30848333231E+02  0.30848333231E+02  0.00000000000E+00 0. -1.
         21    1    1    2  503  504  0.16525142784E+02 -0.11840226905E+03  0.13800756334E+03  0.18258769181E+03  0.00000000000E+00 0. -1.
         21    1    1    2  504  501 -0.16525142784E+02  0.11840226905E+03  0.40893788790E+03  0.42605442590E+03  0.00000000000E+00 0.  1.
<mgrwt>
<rscale>  2 0.11954990E+03</rscale>
<asrwt>0</asrwt>
<pdfrwt beam="1">  1       21 0.88891343E-01 0.11954990E+03</pdfrwt>
<pdfrwt beam="2">  1       21 0.47458978E-02 0.11954990E+03</pdfrwt>
<totfact> 0.32314956E+05</totfact>
</mgrwt>
</event>
<event>
 4    1  0.6158309E+003  0.1076430E+03  0.7546771E-02  0.1264998E+00
         21   -1    0    0  502  501  0.00000000000E+00  0.00000000000E+00  0.32927364810E+03  0.32927364810E+03  0.00000000000E+00 0. -1.
         21   -1    0    0  504  502 -0.00000000000E+00 -0.00000000000E+00 -0.41579346622E+02  0.41579346622E+02  0.00000000000E+00 0. -1.
         21    1    1    2  503  501 -0.44019238103E+02  0.98230933318E+02  0.21653714191E+03  0.24181675585E+03  0.00000000000E+00 0. -1.
         21    1    1    2  504  503  0.44019238103E+02 -0.98230933318E+02  0.71157159567E+02  0.12903623887E+03  0.00000000000E+00 0. -1.
<mgrwt>
<rscale>  2 0.10764297E+03</rscale>
<asrwt>0</asrwt>
<pdfrwt beam="1">  1       21 0.50657483E-01 0.10764297E+03</pdfrwt>
<pdfrwt beam="2">  1       21 0.63968228E-02 0.10764297E+03</pdfrwt>
<totfact> 0.65942424E+05</totfact>
</mgrwt>
</event>
<event>
 4    1  0.6158309E+003  0.1068894E+03  0.7546771E-02  0.1266441E+00
         21   -1    0    0  503  501  0.00000000000E+00  0.00000000000E+00  0.13013628247E+02  0.13013628247E+02  0.00000000000E+00 0. -1.
         21   -1    0    0  504  502 -0.00000000000E+00 -0.00000000000E+00 -0.13265091608E+04  0.13265091608E+04  0.00000000000E+00 0.  1.
         21    1    1    2  503  502 -0.54986770530E+02  0.91661322072E+02 -0.26727794733E+03  0.28785906973E+03  0.00000000000E+00 0. -1.
         21    1    1    2  504  501  0.54986770530E+02 -0.91661322072E+02 -0.10462175852E+04  0.10516637193E+04  0.00000000000E+00 0.  1.
<mgrwt>
<rscale>  2 0.10688940E+03</rscale>
<asrwt>0</asrwt>
<pdfrwt beam="1">  1       21 0.20020966E-02 0.10688940E+03</pdfrwt>
<pdfrwt beam="2">  1       21 0.20407833E+00 0.10688940E+03</pdfrwt>
<totfact> 0.16346745E+05</totfact>
</mgrwt>
</event>
<event>
 4    1  0.6158309E+003  0.1096205E+03  0.7546771E-02  0.1261274E+00
         21   -1    0    0  502  501  0.00000000000E+00  0.00000000000E+00  0.27139920465E+03  0.27139920465E+03  0.00000000000E+00 0.  1.
         21   -1    0    0  503  502 -0.00000000000E+00 -0.00000000000E+00 -0.47912638506E+02  0.47912638506E+02  0.00000000000E+00 0. -1.
         21    1    1    2  503  504 -0.10672665189E+03  0.25021499565E+02  0.67761796722E+02  0.12887325075E+03  0.00000000000E+00 0. -1.
         21    1    1    2  504  501  0.10672665189E+03 -0.25021499565E+02  0.15572476943E+03  0.19043859241E+03  0.00000000000E+00 0.  1.
<mgrwt>
<rscale>  2 0.10962050E+03</rscale>
<asrwt>0</asrwt>
<pdfrwt beam="1">  1       21 0.41753723E-01 0.10962050E+03</pdfrwt>
<pdfrwt beam="2">  1       21 0.73711753E-02 0.10962050E+03</pdfrwt>
<totfact> 0.76691161E+05</totfact>
</mgrwt>
</event>
<event>
 4    1  0.6158309E+003  0.1456414E+03  0.7546771E-02  0.1205933E+00
         21   -1    0    0  504  501  0.00000000000E+00  0.00000000000E+00  0.34389120574E+02  0.34389120574E+02  0.00000000000E+00 0.  1.
         21   -1    0    0  503  502 -0.00000000000E+00 -0.00000000000E+00 -0.64206297440E+03  0.64206297440E+03  0.00000000000E+00 0.  1.
         21    1    1    2  503  501  0.14320985445E+03 -0.26502025857E+02 -0.37091922448E+03  0.39848775499E+03  0.00000000000E+00 0.  1.
         21    1    1    2  504  502 -0.14320985445E+03  0.26502025857E+02 -0.23675462935E+03  0.27796433999E+03  0.00000000000E+00 0.  1.
<mgrwt>
<rscale>  2 0.14564141E+03</rscale>
<asrwt>0</asrwt>
<pdfrwt beam="1">  1       21 0.52906340E-02 0.14564141E+03</pdfrwt>
<pdfrwt beam="2">  1       21 0.98778919E-01 0.14564141E+03</pdfrwt>
<totfact> 0.20963609E+05</totfact>
</mgrwt>
</event>
<event>
 4    1  0.6158309E+003  0.1010117E+03  0.7546771E-02  0.1278183E+00
         21   -1    0    0  504  501  0.00000000000E+00  0.00000000000E+00  0.14183685283E+04  0.14183685283E+04  0.00000000000E+00 0.  1.
         21   -1    0    0  503  502 -0.00000000000E+00 -0.00000000000E+00 -0.15792021713E+02  0.15792021713E+02  0.00000000000E+00 0.  1.
         21    1    1    2  503  501 -0.30592521528E+02  0.96267704057E+02  0.12304089709E+04  0.12345483421E+04  0.00000000000E+00 0.  1.
         21    1    1    2  504  502  0.30592521528E+02 -0.96267704057E+02  0.17216753567E+03  0.19961220794E+03  0.00000000000E+00 0.  1.
<mgrwt>
<rscale>  2 0.10101175E+03</rscale>
<asrwt>0</asrwt>
<pdfrwt beam="1">  1       21 0.21821044E+00 0.10101175E+03</pdfrwt>
<pdfrwt beam="2">  1       21 0.24295429E-02 0.10101175E+03</pdfrwt>
<totfact> 0.98813571E+04</totfact>
</mgrwt>
</event>
<event>
 4    1  0.6158309E+003  0.1281027E+03  0.7546771E-02  0.1230298E+00
         21   -1    0    0  503  501  0.00000000000E+00  0.00000000000E+00  0.51566641747E+02  0.51566641747E+02  0.00000000000E+00 0.  1.
         21   -1    0    0  504  502 -0.00000000000E+00 -0.00000000000E+00 -0.37350928302E+03  0.37350928302E+03  0.00000000000E+00 0. -1.
         21    1    1    2  503  502 -0.14716272021E+02 -0.12725457194E+03 -0.79209876826E+02  0.15061374216E+03  0.00000000000E+00 0.  1.
         21    1    1    2  504  501  0.14716272021E+02  0.12725457194E+03 -0.24273276444E+03  0.27446218260E+03  0.00000000000E+00 0. -1.
<mgrwt>
<rscale>  2 0.12810267E+03</rscale>
<asrwt>0</asrwt>
<pdfrwt beam="1">  1       21 0.79333293E-02 0.12810267E+03</pdfrwt>
<pdfrwt beam="2">  1       21 0.57462968E-01 0.12810267E+03</pdfrwt>
<totfact> 0.35048771E+05</totfact>
</mgrwt>
</event>
<event>
 4    1  0.6158309E+003  0.1063412E+03  0.7546771E-02  0.1267499E+00
         21   -1    0    0  504  501  0.00000000000E+00  0.00000000000E+00  0.29176536812E+02  0.29176536812E+02  0.00000000000E+00 0. -1.
         21   -1    0    0  503  502 -0.00000000000E+00 -0.00000000000E+00 -0.88768582213E+03  0.88768582213E+03  0.00000000000E+00 0. -1.
         21    1    1    2  503  501 -0.10306854684E+03  0.26178763091E+02 -0.85164426956E+02  0.13624034866E+03  0.00000000000E+00 0. -1.
         21    1    1    2  504  502  0.10306854684E+03 -0.26178763091E+02 -0.77334485836E+03  0.78062201029E+03  0.00000000000E+00 0. -1.
<mgrwt>
<rscale>  2 0.10634121E+03</rscale>
<asrwt>0</asrwt>
<pdfrwt beam="1">  1       21 0.44886988E-02 0.10634121E+03</pdfrwt>
<pdfrwt beam="2">  1       21 0.13656702E+00 0.10634121E+03</pdfrwt>
<totfact> 0.12811036E+05</totfact>
</mgrwt>
</event>
<event>
 4    1  0.6158309E+003  0.1061886E+03  0.7546771E-02  0.1267795E+00
         21   -1    0    0  503  501  0.00000000000E+00  0.00000000000E+00  0.53485434914E+02  0.53485434914E+02  0.00000000000E+00 0.  1.
         21   -1    0    0  504  502 -0.00000000000E+00 -0.00000000000E+00 -0.38970070479E+03  0.38970070479E+03  0.00000000000E+00 0.  1.
         21    1    1    2  503  502  0.64999222112E+02 -0.83970887099E+02 -0.31823766625E+03  0.33548654366E+03  0.00000000000E+00 0.  1.
         21    1    1    2  504  501 -0.64999222112E+02  0.83970887099E+02 -0.17977603621E+02  0.10769959604E+03  0.00000000000E+00 0.  1.
<mgrwt>
<rscale>  2 0.10618855E+03</rscale>
<asrwt>0</asrwt>
<pdfrwt beam="1">  1       21 0.82285285E-02 0.10618855E+03</pdfrwt>
<pdfrwt beam="2">  1       21 0.59953954E-01 0.10618855E+03</pdfrwt>
<totfact> 0.30214298E+05</totfact>
</mgrwt>
</event>
<event>
 4    1  0.6158309E+003  0.1042768E+03  0.7546771E-02  0.1271551E+00
         21   -1    0    0  503  501  0.00000000000E+00  0.00000000000E+00  0.45896533244E+03  0.45896533244E+03  0.00000000000E+00 0.  1.
         21   -1    0    0  504  502 -0.00000000000E+00 -0.00000000000E+00 -0.30772069967E+02  0.30772069967E+02  0.00000000000E+00 0.  1.
         21    1    1    2  503  502 -0.77623713105E+02  0.69629130423E+02  0.96638328392E+02  0.14217110520E+03  0.00000000000E+00 0.  1.
         21    1    1    2  504  501  0.77623713105E+02 -0.69629130423E+02  0.33155493409E+03  0.34756629721E+03  0.00000000000E+00 0.  1.
<mgrwt>
<rscale>  2 0.10427683E+03</rscale>
<asrwt>0</asrwt>
<pdfrwt beam="1">  1       21 0.70610046E-01 0.10427683E+03</pdfrwt>
<pdfrwt beam="2">  1       21 0.47341650E-02 0.10427683E+03</pdfrwt>
<totfact> 0.54233624E+05</totfact>
</mgrwt>
</event>
<event>
 4    1  0.6158309E+003  0.1031794E+03  0.7546771E-02  0.1273749E+00
         21   -1    0    0  503  501  0.00000000000E+00  0.00000000000E+00  0.18677105565E+04  0.18677105565E+04  0.00000000000E+00 0. -1.
         21   -1    0    0  504  502 -0.00000000000E+00 -0.00000000000E+00 -0.98876184096E+02  0.98876184096E+02  0.00000000000E+00 0. -1.
         21    1    1    2  503  502 -0.34137173498E+02 -0.97368548015E+02 -0.70113037914E+02  0.12474701937E+03  0.00000000000E+00 0. -1.
         21    1    1    2  504  501  0.34137173498E+02  0.97368548015E+02  0.18389474103E+04  0.18418397212E+04  0.00000000000E+00 0. -1.
<mgrwt>
<rscale>  2 0.10317936E+03</rscale>
<asrwt>0</asrwt>
<pdfrwt beam="1">  1       21 0.28734006E+00 0.10317936E+03</pdfrwt>
<pdfrwt beam="2">  1       21 0.15211722E-01 0.10317936E+03</pdfrwt>
<totfact> 0.17901476E+03</totfact>
</mgrwt>
</event>
<event>
 4    1  0.6158309E+003  0.1207525E+03  0.7546771E-02  0.1241861E+00
         21   -1    0    0  502  501  0.00000000000E+00  0.00000000000E+00  0.12581876677E+04  0.12581876677E+04  0.00000000000E+00 0.  1.
         21   -1    0    0  504  502 -0.00000000000E+00 -0.00000000000E+00 -0.31818617458E+02  0.31818617458E+02  0.00000000000E+00 0. -1.
         21    1    1    2  503  501 -0.88208495338E+02 -0.82464717254E+02  0.11274824187E+04  0.11339302328E+04  0.00000000000E+00 0.  1.
         21    1    1    2  504  503  0.88208495338E+02  0.82464717254E+02  0.98886631548E+02  0.15607605242E+03  0.00000000000E+00 0. -1.
<mgrwt>
<rscale>  2 0.12075251E+03</rscale>
<asrwt>0</asrwt>
<pdfrwt beam="1">  1       21 0.19356730E+00 0.12075251E+03</pdfrwt>
<pdfrwt beam="2">  1       21 0.48951729E-02 0.12075251E+03</pdfrwt>
<totfact> 0.43458077E+04</totfact>
</mgrwt>
</event>
<event>
 4    1  0.6158309E+003  0.1945050E+03  0.7546771E-02  0.1154460E+00
         21   -1    0    0  503  501  0.00000000000E+00  0.00000000000E+00  0.35152965244E+03  0.35152965244E+03  0.00000000000E+00 0. -1.
         21   -1    0    0  504  502 -0.00000000000E+00 -0.00000000000E+00 -0.21592677522E+03  0.21592677522E+03  0.00000000000E+00 0.  1.
         21    1    1    2  503  502  0.97013972905E+02 -0.16858380706E+03  0.26874482809E+03  0.33174688178E+03  0.00000000000E+00 0. -1.
         21    1    1    2  504  501 -0.97013972905E+02  0.16858380706E+03 -0.13314195086E+03  0.23570954589E+03  0.00000000000E+00 0.  1.
<mgrwt>
<rscale>  2 0.19450504E+03</rscale>
<asrwt>0</asrwt>
<pdfrwt beam="1">  1       21 0.54081485E-01 0.19450504E+03</pdfrwt>
<pdfrwt beam="2">  1       21 0.33219504E-01 0.19450504E+03</pdfrwt>
<totfact> 0.28175436E+04</totfact>
</mgrwt>
</event>
<event>
 4    1  0.6158309E+003  0.1059461E+03  0.7546771E-02  0.1268267E+00
         21   -1    0    0  504  501  0.00000000000E+00  0.00000000000E+00  0.78175743734E+02  0.78175743734E+02  0.00000000000E+00 0.  1.
         21   -1    0    0  503  502 -0.00000000000E+00 -0.00000000000E+00 -0.14364580237E+03  0.14364580237E+03  0.00000000000E+00 0.  1.
         21    1    1    2  503  501 -0.45848408766E+02 -0.95511782042E+02 -0.30385282211E+02  0.11021725124E+03  0.00000000000E+00 0.  1.
         21    1    1    2  504  502  0.45848408766E+02  0.95511782042E+02 -0.35084776422E+02  0.11160429486E+03  0.00000000000E+00 0.  1.
<mgrwt>
<rscale>  2 0.10594610E+03</rscale>
<asrwt>0</asrwt>
<pdfrwt beam="1">  1       21 0.12027038E-01 0.10594610E+03</pdfrwt>
<pdfrwt beam="2">  1       21 0.22099354E-01 0.10594610E+03</pdfrwt>
<totfact> 0.11153456E+06</totfact>
</mgrwt>
</event>
<event>
 4    1  0.6158309E+003  0.1078653E+03  0.7546771E-02  0.1264575E+00
         21   -1    0    0  504  501  0.00000000000E+00  0.00000000000E+00  0.45011541195E+02  0.45011541195E+02  0.00000000000E+00 0. -1.
         21   -1    0    0  501  502 -0.00000000000E+00 -0.00000000000E+00 -0.27420953311E+03  0.27420953311E+03  0.00000000000E+00 0.  1.
         21    1    1    2  503  502 -0.67753170311E+02  0.83931078888E+02 -0.15281765590E+03  0.18705120702E+03  0.00000000000E+00 0.  1.
         21    1    1    2  504  503  0.67753170311E+02 -0.83931078888E+02 -0.76380336014E+02  0.13216986729E+03  0.00000000000E+00 0. -1.
<mgrwt>
<rscale>  2 0.10786528E+03</rscale>
<asrwt>0</asrwt>
<pdfrwt beam="1">  1       21 0.69248524E-02 0.10786528E+03</pdfrwt>
<pdfrwt beam="2">  1       21 0.42186082E-01 0.10786528E+03</pdfrwt>
<totfact> 0.83557696E+05</totfact>
</mgrwt>
</event>
<event>
 4    1  0.6158309E+003  0.1001834E+03  0.7546771E-02  0.1279911E+00
         21   -1    0    0  504  501  0.00000000000E+00  0.00000000000E+00  0.44601156689E+03  0.44601156689E+03  0.00000000000E+00 0. -1.
         21   -1    0    0  503  502 -0.00000000000E+00 -0.00000000000E+00 -0.29107611621E+02  0.29107611621E+02  0.00000000000E+00 0.  1.
         21    1    1    2  503  501 -0.82017802070E+02 -0.57530786566E+02  0.95294151859E+02  0.13826672281E+03  0.00000000000E+00 0.  1.
         21    1    1    2  504  502  0.82017802070E+02  0.57530786566E+02  0.32160980341E+03  0.33685245569E+03  0.00000000000E+00 0. -1.
<mgrwt>
<rscale>  2 0.10018339E+03</rscale>
<asrwt>0</asrwt>
<pdfrwt beam="1">  1       21 0.68617159E-01 0.10018339E+03</pdfrwt>
<pdfrwt beam="2">  1       21 0.44780944E-02 0.10018339E+03</pdfrwt>
<totfact> 0.63298556E+05</totfact>
</mgrwt>
</event>
<event>
 4    1  0.6158309E+003  0.1178818E+03  0.7546771E-02  0.1246633E+00
         21   -1    0    0  503  501  0.00000000000E+00  0.00000000000E+00  0.24061081437E+03  0.24061081437E+03  0.00000000000E+00 0. -1.
         21   -1    0    0  501  502 -0.00000000000E+00 -0.00000000000E+00 -0.96433380570E+02  0.96433380570E+02  0.00000000000E+00 0. -1.
         21    1    1    2  503  504 -0.10446673370E+03  0.54615187897E+02  0.17881852040E+03  0.21417791772E+03  0.00000000000E+00 0. -1.
         21    1    1    2  504  502  0.10446673370E+03 -0.54615187897E+02 -0.34641086599E+02  0.12286627723E+03  0.00000000000E+00 0. -1.
<mgrwt>
<rscale>  2 0.11788179E+03</rscale>
<asrwt>0</asrwt>
<pdfrwt beam="1">  1       21 0.37017048E-01 0.11788179E+03</pdfrwt>
<pdfrwt beam="2">  1       21 0.14835905E-01 0.11788179E+03</pdfrwt>
<totfact> 0.28622641E+05</totfact>
</mgrwt>
</event>
<event>
 4    1  0.6158309E+003  0.1326649E+03  0.7546771E-02  0.1223554E+00
         21   -1    0    0  502  501  0.00000000000E+00  0.00000000000E+00  0.81351831093E+02  0.81351831093E+02  0.00000000000E+00 0.  1.
         21   -1    0    0  504  502 -0.00000000000E+00 -0.00000000000E+00 -0.43656362040E+03  0.43656362040E+03  0.00000000000E+00 0.  1.
         21    1    1    2  503  501  0.12997629452E+03 -0.26573103321E+02  0.63159316176E+01  0.13281512696E+03  0.00000000000E+00 0.  1.
         21    1    1    2  504  503 -0.12997629452E+03  0.26573103321E+02 -0.36152772093E+03  0.38510032453E+03  0.00000000000E+00 0.  1.
<mgrwt>
<rscale>  2 0.13266487E+03</rscale>
<asrwt>0</asrwt>
<pdfrwt beam="1">  1       21 0.12515667E-01 0.13266487E+03</pdfrwt>
<pdfrwt beam="2">  1       21 0.67163632E-01 0.13266487E+03</pdfrwt>
<totfact> 0.11295799E+05</totfact>
</mgrwt>
</event>
<event>
 4    1  0.6158309E+003  0.1246685E+03  0.7546771E-02  0.1235588E+00
         21   -1    0    0  504  501  0.00000000000E+00  0.00000000000E+00  0.11160127222E+03  0.11160127222E+03  0.00000000000E+00 0. -1.
         21   -1    0    0  503  502 -0.00000000000E+00 -0.00000000000E+00 -0.14704858057E+03  0.14704858057E+03  0.00000000000E+00 0. -1.
         21    1    1    2  503  501 -0.53073035839E+02  0.11280727403E+03 -0.47476072883E+02  0.13340242016E+03  0.00000000000E+00 0. -1.
         21    1    1    2  504  502  0.53073035839E+02 -0.11280727403E+03  0.12028764533E+02  0.12524743264E+03  0.00000000000E+00 0. -1.
<mgrwt>
<rscale>  2 0.12466847E+03</rscale>
<asrwt>0</asrwt>
<pdfrwt beam="1">  1       21 0.17169427E-01 0.12466847E+03</pdfrwt>
<pdfrwt beam="2">  1       21 0.22622859E-01 0.12466847E+03</pdfrwt>
<totfact> 0.56483280E+05</totfact>
</mgrwt>
</event>
<event>
 4    1  0.6158309E+003  0.1048476E+03  0.7546771E-02  0.1270420E+00
         21   -1    0    0  504  501  0.00000000000E+00  0.00000000000E+00  0.43367011552E+03  0.43367011552E+03  0.00000000000E+00 0.  1.
         21   -1    0    0  503  502 -0.00000000000E+00 -0.00000000000E+00 -0.35407281670E+03  0.35407281670E+03  0.00000000000E+00 0.  1.
         21    1    1    2  503  501  0.69289221068E+02  0.78689402327E+02  0.41930927723E+03  0.43221902800E+03  0.00000000000E+00 0.  1.
         21    1    1    2  504  502 -0.69289221068E+02 -0.78689402327E+02 -0.33971197841E+03  0.35552390422E+03  0.00000000000E+00 0.  1.
<mgrwt>
<rscale>  2 0.10484760E+03</rscale>
<asrwt>0</asrwt>
<pdfrwt beam="1">  1       21 0.66718479E-01 0.10484760E+03</pdfrwt>
<pdfrwt beam="2">  1       21 0.54472741E-01 0.10484760E+03</pdfrwt>
<totfact> 0.70936612E+03</totfact>
</mgrwt>
</event>
<event>
 4    1  0.6158309E+003  0.1245758E+03  0.7546771E-02  0.1235734E+00
         21   -1    0    0  503  501  0.00000000000E+00  0.00000000000E+00  0.43356793215E+03  0.43356793215E+03  0.00000000000E+00 0.  1.
         21   -1    0    0  501  502 -0.00000000000E+00 -0.00000000000E+00 -0.14555138703E+03  0.14555138703E+03  0.00000000000E+00 0.  1.
         21    1    1    2  503  504  0.10494817892E+03  0.67119378207E+02  0.39545544716E+03  0.41461324373E+03  0.00000000000E+00 0.  1.
         21    1    1    2  504  502 -0.10494817892E+03 -0.67119378207E+02 -0.10743890204E+03  0.16450607545E+03  0.00000000000E+00 0.  1.
<mgrwt>
<rscale>  2 0.12457580E+03</rscale>
<asrwt>0</asrwt>
<pdfrwt beam="1">  1       21 0.66702758E-01 0.12457580E+03</pdfrwt>
<pdfrwt beam="2">  1       21 0.22392521E-01 0.12457580E+03</pdfrwt>
<totfact> 0.39921798E+04</totfact>
</mgrwt>
</event>
<event>
 4    1  0.6158309E+003  0.1266536E+03  0.7546771E-02  0.1232507E+00
         21   -1    0    0  503  501  0.00000000000E+00  0.00000000000E+00  0.20970773198E+04  0.20970773198E+04  0.00000000000E+00 0.  1.
         21   -1    0    0  504  502 -0.00000000000E+00 -0.00000000000E+00 -0.28009416998E+02  0.28009416998E+02  0.00000000000E+00 0. -1.
         21    1    1    2  503  502 -0.12614822923E+03 -0.11303057343E+02  0.12862414283E+03  0.18051400212E+03  0.00000000000E+00 0. -1.
         21    1    1    2  504  501  0.12614822923E+03  0.11303057343E+02  0.19404437599E+04  0.19445727346E+04  0.00000000000E+00 0.  1.
<mgrwt>
<rscale>  2 0.12665360E+03</rscale>
<asrwt>0</asrwt>
<pdfrwt beam="1">  1       21 0.32262716E+00 0.12665360E+03</pdfrwt>
<pdfrwt beam="2">  1       21 0.43091427E-02 0.12665360E+03</pdfrwt>
<totfact> 0.95535448E+03</totfact>
</mgrwt>
</event>
<event>
 4    1  0.6158309E+003  0.1553680E+03  0.7546771E-02  0.1194028E+00
         21   -1    0    0  504  501  0.00000000000E+00  0.00000000000E+00  0.31258420013E+03  0.31258420013E+03  0.00000000000E+00 0.  1.
         21   -1    0    0  501  502 -0.00000000000E+00 -0.00000000000E+00 -0.77275988598E+02  0.77275988598E+02  0.00000000000E+00 0. -1.
         21    1    1    2  503  502  0.75174167834E+02 -0.13597078969E+03  0.11263066414E+03  0.19189809187E+03  0.00000000000E+00 0. -1.
         21    1    1    2  504  503 -0.75174167834E+02  0.13597078969E+03  0.12267754739E+03  0.19796209686E+03  0.00000000000E+00 0.  1.
<mgrwt>
<rscale>  2 0.15536799E+03</rscale>
<asrwt>0</asrwt>
<pdfrwt beam="1">  1       21 0.48089876E-01 0.15536799E+03</pdfrwt>
<pdfrwt beam="2">  1       21 0.11888614E-01 0.15536799E+03</pdfrwt>
<totfact> 0.24896501E+05</totfact>
</mgrwt>
</event>
<event>
 4    1  0.6158309E+003  0.1500530E+03  0.7546771E-02  0.1200408E+00
         21   -1    0    0  504  501  0.00000000000E+00  0.00000000000E+00  0.63841012426E+02  0.63841012426E+02  0.00000000000E+00 0.  1.
         21   -1    0    0  503  502 -0.00000000000E+00 -0.00000000000E+00 -0.36259058278E+03  0.36259058278E+03  0.00000000000E+00 0.  1.
         21    1    1    2  503  501 -0.14977390440E+03  0.91479365764E+01 -0.11413744219E+03  0.18852920966E+03  0.00000000000E+00 0.  1.
         21    1    1    2  504  502  0.14977390440E+03 -0.91479365764E+01 -0.18461212817E+03  0.23790238555E+03  0.00000000000E+00 0.  1.
<mgrwt>
<rscale>  2 0.15005301E+03</rscale>
<asrwt>0</asrwt>
<pdfrwt beam="1">  1       21 0.98216942E-02 0.15005301E+03</pdfrwt>
<pdfrwt beam="2">  1       21 0.55783167E-01 0.15005301E+03</pdfrwt>
<totfact> 0.25633764E+05</totfact>
</mgrwt>
</event>
<event>
 4    1  0.6158309E+003  0.1015784E+03  0.7546771E-02  0.1277011E+00
         21   -1    0    0  504  501  0.00000000000E+00  0.00000000000E+00  0.12082885269E+03  0.12082885269E+03  0.00000000000E+00 0.  1.
         21   -1    0    0  503  502 -0.00000000000E+00 -0.00000000000E+00 -0.11038238324E+03  0.11038238324E+03  0.00000000000E+00 0.  1.
         21    1    1    2  503  501  0.87871501969E+02  0.50958554002E+02 -0.49780197411E+02  0.11312048063E+03  0.00000000000E+00 0.  1.
         21    1    1    2  504  502 -0.87871501969E+02 -0.50958554002E+02  0.60226666868E+02  0.11809075530E+03  0.00000000000E+00 0.  1.
<mgrwt>
<rscale>  2 0.10157842E+03</rscale>
<asrwt>0</asrwt>
<pdfrwt beam="1">  1       21 0.18589054E-01 0.10157842E+03</pdfrwt>
<pdfrwt beam="2">  1       21 0.16981905E-01 0.10157842E+03</pdfrwt>
<totfact> 0.82767936E+05</totfact>
</mgrwt>
</event>
<event>
 4    1  0.6158309E+003  0.1203491E+03  0.7546771E-02  0.1242522E+00
         21   -1    0    0  504  501  0.00000000000E+00  0.00000000000E+00  0.22134102572E+03  0.22134102572E+03  0.00000000000E+00 0. -1.
         21   -1    0    0  501  502 -0.00000000000E+00 -0.00000000000E+00 -0.85455616675E+02  0.85455616675E+02  0.00000000000E+00 0. -1.
         21    1    1    2  503  502  0.11400318524E+03  0.38563921730E+02 -0.63022356376E+01  0.12051398458E+03  0.00000000000E+00 0. -1.
         21    1    1    2  504  503 -0.11400318524E+03 -0.38563921730E+02  0.14218764469E+03  0.18628265782E+03  0.00000000000E+00 0. -1.
<mgrwt>
<rscale>  2 0.12034909E+03</rscale>
<asrwt>0</asrwt>
<pdfrwt beam="1">  1       21 0.34052465E-01 0.12034909E+03</pdfrwt>
<pdfrwt beam="2">  1       21 0.13147018E-01 0.12034909E+03</pdfrwt>
<totfact> 0.41843079E+05</totfact>
</mgrwt>
</event>
<event>
 4    1  0.6158309E+003  0.1245490E+03  0.7546771E-02  0.1235776E+00
         21   -1    0    0  503  501  0.00000000000E+00  0.00000000000E+00  0.23681189414E+03  0.23681189414E+03  0.00000000000E+00 0. -1.
         21   -1    0    0  504  502 -0.00000000000E+00 -0.00000000000E+00 -0.13002317877E+03  0.13002317877E+03  0.00000000000E+00 0. -1.
         21    1    1    2  503  502  0.78098504322E+00 -0.12454652760E+03 -0.75807963863E+02  0.14580567499E+03  0.00000000000E+00 0. -1.
         21    1    1    2  504  501 -0.78098504322E+00  0.12454652760E+03  0.18259667924E+03  0.22102939792E+03  0.00000000000E+00 0. -1.
<mgrwt>
<rscale>  2 0.12454898E+03</rscale>
<asrwt>0</asrwt>
<pdfrwt beam="1">  1       21 0.36432599E-01 0.12454898E+03</pdfrwt>
<pdfrwt beam="2">  1       21 0.20003566E-01 0.12454898E+03</pdfrwt>
<totfact> 0.17110533E+05</totfact>
</mgrwt>
</event>
<event>
 4    1  0.6158309E+003  0.1096038E+03  0.7546771E-02  0.1261305E+00
         21   -1    0    0  504  501  0.00000000000E+00  0.00000000000E+00  0.20643245280E+03  0.20643245280E+03  0.00000000000E+00 0.  1.
         21   -1    0    0  503  502 -0.00000000000E+00 -0.00000000000E+00 -0.21624154377E+03  0.21624154377E+03  0.00000000000E+00 0. -1.
         21    1    1    2  503  501 -0.56273854557E+02 -0.94054431440E+02  0.17577160314E+03  0.20714400607E+03  0.00000000000E+00 0.  1.
         21    1    1    2  504  502  0.56273854557E+02  0.94054431440E+02 -0.18558069411E+03  0.21552999051E+03  0.00000000000E+00 0. -1.
<mgrwt>
<rscale>  2 0.10960375E+03</rscale>
<asrwt>0</asrwt>
<pdfrwt beam="1">  1       21 0.31758839E-01 0.10960375E+03</pdfrwt>
<pdfrwt beam="2">  1       21 0.33267930E-01 0.10960375E+03</pdfrwt>
<totfact> 0.85922917E+04</totfact>
</mgrwt>
</event>
<event>
 4    1  0.6158309E+003  0.1621954E+03  0.7546771E-02  0.1186240E+00
         21   -1    0    0  503  501  0.00000000000E+00  0.00000000000E+00  0.22354222074E+03  0.22354222074E+03  0.00000000000E+00 0.  1.
         21   -1    0    0  504  502 -0.00000000000E+00 -0.00000000000E+00 -0.13809291227E+03  0.13809291227E+03  0.00000000000E+00 0. -1.
         21    1    1    2  503  502  0.15109482966E+03  0.58971908952E+02  0.11223753528E+03  0.19724248508E+03  0.00000000000E+00 0.  1.
         21    1    1    2  504  501 -0.15109482966E+03 -0.58971908952E+02 -0.26788226808E+02  0.16439264792E+03  0.00000000000E+00 0. -1.
<mgrwt>
<rscale>  2 0.16219536E+03</rscale>
<asrwt>0</asrwt>
<pdfrwt beam="1">  1       21 0.34391111E-01 0.16219536E+03</pdfrwt>
<pdfrwt beam="2">  1       21 0.21245063E-01 0.16219536E+03</pdfrwt>
<totfact> 0.16959726E+05</totfact>
</mgrwt>
</event>
<event>
 4    1  0.6158309E+003  0.1450126E+03  0.7546771E-02  0.1206739E+00
         21   -1    0    0  504  501  0.00000000000E+00  0.00000000000E+00  0.30534602267E+02  0.30534602267E+02  0.00000000000E+00 0.  1.
         21   -1    0    0  503  502 -0.00000000000E+00 -0.00000000000E+00 -0.13552369973E+04  0.13552369973E+04  0.00000000000E+00 0.  1.
         21    1    1    2  503  501 -0.85081970651E+02 -0.11742966214E+03 -0.17642351242E+03  0.22837233417E+03  0.00000000000E+00 0.  1.
         21    1    1    2  504  502  0.85081970651E+02  0.11742966214E+03 -0.11482788826E+04  0.11573992654E+04  0.00000000000E+00 0.  1.
<mgrwt>
<rscale>  2 0.14501265E+03</rscale>
<asrwt>0</asrwt>
<pdfrwt beam="1">  1       21 0.46976310E-02 0.14501265E+03</pdfrwt>
<pdfrwt beam="2">  1       21 0.20849800E+00 0.14501265E+03</pdfrwt>
<totfact> 0.36759352E+04</totfact>
</mgrwt>
</event>
<event>
 4    1  0.6158309E+003  0.1237584E+03  0.7546771E-02  0.1237022E+00
         21   -1    0    0  504  501  0.00000000000E+00  0.00000000000E+00  0.17476853790E+04  0.17476853790E+04  0.00000000000E+00 0. -1.
         21   -1    0    0  501  502 -0.00000000000E+00 -0.00000000000E+00 -0.91211545042E+01  0.91211545042E+01  0.00000000000E+00 0. -1.
         21    1    1    2  503  502 -0.16138672592E+02 -0.12270165264E+03  0.69538488951E+03  0.70631175615E+03  0.00000000000E+00 0. -1.
         21    1    1    2  504  503  0.16138672592E+02  0.12270165264E+03  0.10431793350E+04  0.10504947774E+04  0.00000000000E+00 0. -1.
<mgrwt>
<rscale>  2 0.12375844E+03</rscale>
<asrwt>0</asrwt>
<pdfrwt beam="1">  1       21 0.26887441E+00 0.12375844E+03</pdfrwt>
<pdfrwt beam="2">  1       21 0.14032559E-02 0.12375844E+03</pdfrwt>
<totfact> 0.11921940E+05</totfact>
</mgrwt>
</event>
<event>
 4    1  0.6158309E+003  0.1095629E+03  0.7546771E-02  0.1261381E+00
         21   -1    0    0  504  501  0.00000000000E+00  0.00000000000E+00  0.16948733170E+02  0.16948733170E+02  0.00000000000E+00 0. -1.
         21   -1    0    0  501  502 -0.00000000000E+00 -0.00000000000E+00 -0.10135337890E+04  0.10135337890E+04  0.00000000000E+00 0. -1.
         21    1    1    2  503  502 -0.10258528177E+03 -0.38474658299E+02 -0.78106636908E+03  0.78871332706E+03  0.00000000000E+00 0. -1.
         21    1    1    2  504  503  0.10258528177E+03  0.38474658299E+02 -0.21551868674E+03  0.24176919510E+03  0.00000000000E+00 0. -1.
<mgrwt>
<rscale>  2 0.10956295E+03</rscale>
<asrwt>0</asrwt>
<pdfrwt beam="1">  1       21 0.26074980E-02 0.10956295E+03</pdfrwt>
<pdfrwt beam="2">  1       21 0.15592824E+00 0.10956295E+03</pdfrwt>
<totfact> 0.22252605E+05</totfact>
</mgrwt>
</event>
<event>
 4    1  0.6158309E+003  0.1140529E+03  0.7546771E-02  0.1253243E+00
         21   -1    0    0  503  501  0.00000000000E+00  0.00000000000E+00  0.87039161934E+03  0.87039161934E+03  0.00000000000E+00 0.  1.
         21   -1    0    0  504  502 -0.00000000000E+00 -0.00000000000E+00 -0.76840290406E+02  0.76840290406E+02  0.00000000000E+00 0.  1.
         21    1    1    2  503  502 -0.48314500956E+02  0.10331394491E+03  0.82184559908E+03  0.82972179129E+03  0.00000000000E+00 0.  1.
         21    1    1    2  504  501  0.48314500956E+02 -0.10331394491E+03 -0.28294270151E+02  0.11751011845E+03  0.00000000000E+00 0.  1.
<mgrwt>
<rscale>  2 0.11405289E+03</rscale>
<asrwt>0</asrwt>
<pdfrwt beam="1">  1       21 0.13390640E+00 0.11405289E+03</pdfrwt>
<pdfrwt beam="2">  1       21 0.11821584E-01 0.11405289E+03</pdfrwt>
<totfact> 0.25558852E+04</totfact>
</mgrwt>
</event>
<event>
 4    1  0.6158309E+003  0.1058048E+03  0.7546771E-02  0.1268542E+00
         21   -1    0    0  503  501  0.00000000000E+00  0.00000000000E+00  0.33287309824E+03  0.33287309824E+03  0.00000000000E+00 0. -1.
         21   -1    0    0  504  502 -0.00000000000E+00 -0.00000000000E+00 -0.36911566577E+02  0.36911566577E+02  0.00000000000E+00 0. -1.
         21    1    1    2  503  502 -0.94895887646E+02  0.46791375119E+02  0.92855532216E+02  0.14077219946E+03  0.00000000000E+00 0. -1.
         21    1    1    2  504  501  0.94895887646E+02 -0.46791375119E+02  0.20310599945E+03  0.22901246536E+03  0.00000000000E+00 0. -1.
<mgrwt>
<rscale>  2 0.10580483E+03</rscale>
<asrwt>0</asrwt>
<pdfrwt beam="1">  1       21 0.51211244E-01 0.10580483E+03</pdfrwt>
<pdfrwt beam="2">  1       21 0.56787028E-02 0.10580483E+03</pdfrwt>
<totfact> 0.78834268E+05</totfact>
</mgrwt>
</event>
<event>
 4    1  0.6158309E+003  0.1095276E+03  0.7546771E-02  0.1261447E+00
         21   -1    0    0  502  501  0.00000000000E+00  0.00000000000E+00  0.14921701552E+04  0.14921701552E+04  0.00000000000E+00 0.  1.
         21   -1    0    0  503  502 -0.00000000000E+00 -0.00000000000E+00 -0.20967401612E+02  0.20967401612E+02  0.00000000000E+00 0.  1.
         21    1    1    2  503  504  0.10661205633E+03  0.25103177913E+02  0.14152792020E+03  0.17895935933E+03  0.00000000000E+00 0.  1.
         21    1    1    2  504  501 -0.10661205633E+03 -0.25103177913E+02  0.13296748334E+04  0.13341781975E+04  0.00000000000E+00 0.  1.
<mgrwt>
<rscale>  2 0.10952762E+03</rscale>
<asrwt>0</asrwt>
<pdfrwt beam="1">  1       21 0.22956456E+00 0.10952762E+03</pdfrwt>
<pdfrwt beam="2">  1       21 0.32257553E-02 0.10952762E+03</pdfrwt>
<totfact> 0.52951283E+04</totfact>
</mgrwt>
</event>
<event>
 4    1  0.6158309E+003  0.1046512E+03  0.7546771E-02  0.1270808E+00
         21   -1    0    0  504  501  0.00000000000E+00  0.00000000000E+00  0.72256030189E+02  0.72256030189E+02  0.00000000000E+00 0.  1.
         21   -1    0    0  503  502 -0.00000000000E+00 -0.00000000000E+00 -0.15457481095E+03  0.15457481095E+03  0.00000000000E+00 0.  1.
         21    1    1    2  503  501  0.74975313337E+02  0.73010779815E+02 -0.56971369543E+02  0.11915371806E+03  0.00000000000E+00 0.  1.
         21    1    1    2  504  502 -0.74975313337E+02 -0.73010779815E+02 -0.25347411214E+02  0.10767712308E+03  0.00000000000E+00 0.  1.
<mgrwt>
<rscale>  2 0.10465119E+03</rscale>
<asrwt>0</asrwt>
<pdfrwt beam="1">  1       21 0.11116312E-01 0.10465119E+03</pdfrwt>
<pdfrwt beam="2">  1       21 0.23780740E-01 0.10465119E+03</pdfrwt>
<totfact> 0.11170704E+06</totfact>
</mgrwt>
</event>
<event>
 4    1  0.6158309E+003  0.1040502E+03  0.7546771E-02  0.1272002E+00
         21   -1    0    0  503  501  0.00000000000E+00  0.00000000000E+00  0.43800262698E+02  0.43800262698E+02  0.00000000000E+00 0. -1.
         21   -1    0    0  504  502 -0.00000000000E+00 -0.00000000000E+00 -0.27379684253E+03  0.27379684253E+03  0.00000000000E+00 0. -1.
         21    1    1    2  503  502  0.86640420472E+02  0.57618332220E+02 -0.16451272994E+03  0.19465578075E+03  0.00000000000E+00 0. -1.
         21    1    1    2  504  501 -0.86640420472E+02 -0.57618332220E+02 -0.65483849889E+02  0.12294132448E+03  0.00000000000E+00 0. -1.
<mgrwt>
<rscale>  2 0.10405015E+03</rscale>
<asrwt>0</asrwt>
<pdfrwt beam="1">  1       21 0.67385020E-02 0.10405015E+03</pdfrwt>
<pdfrwt beam="2">  1       21 0.42122591E-01 0.10405015E+03</pdfrwt>
<totfact> 0.87757326E+05</totfact>
</mgrwt>
</event>
<event>
 4    1  0.6158309E+003  0.1494044E+03  0.7546771E-02  0.1201207E+00
         21   -1    0    0  504  501  0.00000000000E+00  0.00000000000E+00  0.89657080775E+03  0.89657080775E+03  0.00000000000E+00 0. -1.
         21   -1    0    0  503  502 -0.00000000000E+00 -0.00000000000E+00 -0.19508760445E+04  0.19508760445E+04  0.00000000000E+00 0.  1.
         21    1    1    2  503  501  0.25309563537E+02 -0.14724499162E+03 -0.19417622305E+04  0.19475015331E+04  0.00000000000E+00 0.  1.
         21    1    1    2  504  502 -0.25309563537E+02  0.14724499162E+03  0.88745699380E+03  0.89994531912E+03  0.00000000000E+00 0. -1.
<mgrwt>
<rscale>  2 0.14940436E+03</rscale>
<asrwt>0</asrwt>
<pdfrwt beam="1">  1       21 0.13793397E+00 0.14940436E+03</pdfrwt>
<pdfrwt beam="2">  1       21 0.30013478E+00 0.14940436E+03</pdfrwt>
<totfact> 0.13948512E+01</totfact>
</mgrwt>
</event>
<event>
 4    1  0.6158309E+003  0.1091516E+03  0.7546771E-02  0.1262149E+00
         21   -1    0    0  504  501  0.00000000000E+00  0.00000000000E+00  0.54372626757E+03  0.54372626757E+03  0.00000000000E+00 0. -1.
         21   -1    0    0  503  502 -0.00000000000E+00 -0.00000000000E+00 -0.25920254808E+02  0.25920254808E+02  0.00000000000E+00 0. -1.
         21    1    1    2  503  501 -0.92221427549E+02 -0.58389036203E+02  0.37090850245E+03  0.38663573094E+03  0.00000000000E+00 0. -1.
         21    1    1    2  504  502  0.92221427549E+02  0.58389036203E+02  0.14689751031E+03  0.18301079144E+03  0.00000000000E+00 0. -1.
<mgrwt>
<rscale>  2 0.10915160E+03</rscale>
<asrwt>0</asrwt>
<pdfrwt beam="1">  1       21 0.83650187E-01 0.10915160E+03</pdfrwt>
<pdfrwt beam="2">  1       21 0.39877319E-02 0.10915160E+03</pdfrwt>
<totfact> 0.49602532E+05</totfact>
</mgrwt>
</event>
<event>
 4    1  0.6158309E+003  0.1251253E+03  0.7546771E-02  0.1234874E+00
         21   -1    0    0  503  501  0.00000000000E+00  0.00000000000E+00  0.55018718873E+03  0.55018718873E+03  0.00000000000E+00 0. -1.
         21   -1    0    0  504  502 -0.00000000000E+00 -0.00000000000E+00 -0.28792767478E+02  0.28792767478E+02  0.00000000000E+00 0. -1.
         21    1    1    2  503  502 -0.64169847770E+02  0.10741770113E+03  0.29198797969E+03  0.31766855708E+03  0.00000000000E+00 0. -1.
         21    1    1    2  504  501  0.64169847770E+02 -0.10741770113E+03  0.22940644156E+03  0.26131139912E+03  0.00000000000E+00 0. -1.
<mgrwt>
<rscale>  2 0.12512526E+03</rscale>
<asrwt>0</asrwt>
<pdfrwt beam="1">  1       21 0.84644175E-01 0.12512526E+03</pdfrwt>
<pdfrwt beam="2">  1       21 0.44296569E-02 0.12512526E+03</pdfrwt>
<totfact> 0.40470574E+05</totfact>
</mgrwt>
</event>
<event>
 4    1  0.6158309E+003  0.1408659E+03  0.7546771E-02  0.1212169E+00
         21   -1    0    0  503  501  0.00000000000E+00  0.00000000000E+00  0.15416192263E+02  0.15416192263E+02  0.00000000000E+00 0.  1.
         21   -1    0    0  501  502 -0.00000000000E+00 -0.00000000000E+00 -0.15746889125E+04  0.15746889125E+04  0.00000000000E+00 0. -1.
         21    1    1    2  503  504 -0.10045940390E+03  0.98747699959E+02 -0.43990580796E+03  0.46190942830E+03  0.00000000000E+00 0.  1.
         21    1    1    2  504  502  0.10045940390E+03 -0.98747699959E+02 -0.11193669123E+04  0.11281956765E+04  0.00000000000E+00 0. -1.
<mgrwt>
<rscale>  2 0.14086589E+03</rscale>
<asrwt>0</asrwt>
<pdfrwt beam="1">  1       21 0.23717220E-02 0.14086589E+03</pdfrwt>
<pdfrwt beam="2">  1       21 0.24225982E+00 0.14086589E+03</pdfrwt>
<totfact> 0.71629780E+04</totfact>
</mgrwt>
</event>
<event>
 4    1  0.6158309E+003  0.1284365E+03  0.7546771E-02  0.1229794E+00
         21   -1    0    0  503  501  0.00000000000E+00  0.00000000000E+00  0.79447500348E+02  0.79447500348E+02  0.00000000000E+00 0.  1.
         21   -1    0    0  504  502 -0.00000000000E+00 -0.00000000000E+00 -0.59406048840E+03  0.59406048840E+03  0.00000000000E+00 0. -1.
         21    1    1    2  503  502 -0.11683817774E+03 -0.53336392818E+02  0.14294511328E+02  0.12922949985E+03  0.00000000000E+00 0.  1.
         21    1    1    2  504  501  0.11683817774E+03  0.53336392818E+02 -0.52890749938E+03  0.54427848890E+03  0.00000000000E+00 0. -1.
<mgrwt>
<rscale>  2 0.12843648E+03</rscale>
<asrwt>0</asrwt>
<pdfrwt beam="1">  1       21 0.12222692E-01 0.12843648E+03</pdfrwt>
<pdfrwt beam="2">  1       21 0.91393925E-01 0.12843648E+03</pdfrwt>
<totfact> 0.59434572E+04</totfact>
</mgrwt>
</event>
<event>
 4    1  0.6158309E+003  0.1156344E+03  0.7546771E-02  0.1250478E+00
         21   -1    0    0  504  501  0.00000000000E+00  0.00000000000E+00  0.29371501407E+02  0.29371501407E+02  0.00000000000E+00 0.  1.
         21   -1    0    0  503  502 -0.00000000000E+00 -0.00000000000E+00 -0.26464698885E+04  0.26464698885E+04  0.00000000000E+00 0. -1.
         21    1    1    2  503  501 -0.13658185012E+02  0.11482493596E+03 -0.91130153398E+02  0.14722777182E+03  0.00000000000E+00 0.  1.
         21    1    1    2  504  502  0.13658185012E+02 -0.11482493596E+03 -0.25259682337E+04  0.25286136181E+04  0.00000000000E+00 0. -1.
<mgrwt>
<rscale>  2 0.11563439E+03</rscale>
<asrwt>0</asrwt>
<pdfrwt beam="1">  1       21 0.45186917E-02 0.11563439E+03</pdfrwt>
<pdfrwt beam="2">  1       21 0.40714928E+00 0.11563439E+03</pdfrwt>
<totfact> 0.28879669E+03</totfact>
</mgrwt>
</event>
<event>
 4    1  0.6158309E+003  0.1522880E+03  0.7546771E-02  0.1197689E+00
         21   -1    0    0  503  501  0.00000000000E+00  0.00000000000E+00  0.11597743366E+04  0.11597743366E+04  0.00000000000E+00 0. -1.
         21   -1    0    0  504  502 -0.00000000000E+00 -0.00000000000E+00 -0.19998383443E+02  0.19998383443E+02  0.00000000000E+00 0. -1.
         21    1    1    2  503  502  0.14226346168E+03  0.54339133595E+02  0.57533537077E+03  0.59514907614E+03  0.00000000000E+00 0. -1.
         21    1    1    2  504  501 -0.14226346168E+03 -0.54339133595E+02  0.56444058236E+03  0.58462364388E+03  0.00000000000E+00 0. -1.
<mgrwt>
<rscale>  2 0.15228800E+03</rscale>
<asrwt>0</asrwt>
<pdfrwt beam="1">  1       21 0.17842677E+00 0.15228800E+03</pdfrwt>
<pdfrwt beam="2">  1       21 0.30766753E-02 0.15228800E+03</pdfrwt>
<totfact> 0.11563713E+05</totfact>
</mgrwt>
</event>
<event>
 4    1  0.6158309E+003  0.1444846E+03  0.7546771E-02  0.1207419E+00
         21   -1    0    0  504  501  0.00000000000E+00  0.00000000000E+00  0.17792204264E+04  0.17792204264E+04  0.00000000000E+00 0.  1.
         21   -1    0    0  503  502 -0.00000000000E+00 -0.00000000000E+00 -0.61920495727E+02  0.61920495727E+02  0.00000000000E+00 0.  1.
         21    1    1    2  503  501 -0.14138695874E+03  0.29757644049E+02  0.29874074997E+02  0.14754067181E+03  0.00000000000E+00 0.  1.
         21    1    1    2  504  502  0.14138695874E+03 -0.29757644049E+02  0.16874258557E+04  0.16936002503E+04  0.00000000000E+00 0.  1.
<mgrwt>
<rscale>  2 0.14448456E+03</rscale>
<asrwt>0</asrwt>
<pdfrwt beam="1">  1       21 0.27372618E+00 0.14448456E+03</pdfrwt>
<pdfrwt beam="2">  1       21 0.95262315E-02 0.14448456E+03</pdfrwt>
<totfact> 0.45393596E+03</totfact>
</mgrwt>
</event>
<event>
 4    1  0.6158309E+003  0.1086335E+03  0.7546771E-02  0.1263122E+00
         21   -1    0    0  504  501  0.00000000000E+00  0.00000000000E+00  0.13224272758E+03  0.13224272758E+03  0.00000000000E+00 0. -1.
         21   -1    0    0  503  502 -0.00000000000E+00 -0.00000000000E+00 -0.13765993648E+03  0.13765993648E+03  0.00000000000E+00 0.  1.
         21    1    1    2  503  501  0.34012529510E+02 -0.10317161201E+03 -0.82745298274E+02  0.13655774630E+03  0.00000000000E+00 0.  1.
         21    1    1    2  504  502 -0.34012529510E+02  0.10317161201E+03  0.77328089368E+02  0.13334491776E+03  0.00000000000E+00 0. -1.
<mgrwt>
<rscale>  2 0.10863348E+03</rscale>
<asrwt>0</asrwt>
<pdfrwt beam="1">  1       21 0.20345035E-01 0.10863348E+03</pdfrwt>
<pdfrwt beam="2">  1       21 0.21178452E-01 0.10863348E+03</pdfrwt>
<totfact> 0.46836798E+05</totfact>
</mgrwt>
</event>
<event>
 4    1  0.6158309E+003  0.1011329E+03  0.7546771E-02  0.1277932E+00
         21   -1    0    0  503  501  0.00000000000E+00  0.00000000000E+00  0.22211340851E+03  0.22211340851E+03  0.00000000000E+00 0.  1.
         21   -1    0    0  504  502 -0.00000000000E+00 -0.00000000000E+00 -0.62143905665E+02  0.62143905665E+02  0.00000000000E+00 0.  1.
         21    1    1    2  503  502 -0.10108581326E+03 -0.30855847900E+01  0.76509904876E+01  0.10142189178E+03  0.00000000000E+00 0.  1.
         21    1    1    2  504  501  0.10108581326E+03  0.30855847900E+01  0.15231851236E+03  0.18283542240E+03  0.00000000000E+00 0.  1.
<mgrwt>
<rscale>  2 0.10113290E+03</rscale>
<asrwt>0</asrwt>
<pdfrwt beam="1">  1       21 0.34171293E-01 0.10113290E+03</pdfrwt>
<pdfrwt beam="2">  1       21 0.95606010E-02 0.10113290E+03</pdfrwt>
<totfact> 0.72760524E+05</totfact>
</mgrwt>
</event>
<event>
 4    1  0.6158309E+003  0.1824215E+03  0.7546771E-02  0.1165480E+00
         21   -1    0    0  504  501  0.00000000000E+00  0.00000000000E+00  0.71242677575E+02  0.71242677575E+02  0.00000000000E+00 0.  1.
         21   -1    0    0  501  502 -0.00000000000E+00 -0.00000000000E+00 -0.73939837982E+03  0.73939837982E+03  0.00000000000E+00 0.  1.
         21    1    1    2  503  502  0.16926785909E+03 -0.68014580840E+02 -0.58004683805E+03  0.60805585735E+03  0.00000000000E+00 0.  1.
         21    1    1    2  504  503 -0.16926785909E+03  0.68014580840E+02 -0.88108864198E+02  0.20258520005E+03  0.00000000000E+00 0.  1.
<mgrwt>
<rscale>  2 0.18242147E+03</rscale>
<asrwt>0</asrwt>
<pdfrwt beam="1">  1       21 0.10960412E-01 0.18242147E+03</pdfrwt>
<pdfrwt beam="2">  1       21 0.11375360E+00 0.18242147E+03</pdfrwt>
<totfact> 0.41751944E+04</totfact>
</mgrwt>
</event>
<event>
 4    1  0.6158309E+003  0.1084429E+03  0.7546771E-02  0.1263481E+00
         21   -1    0    0  503  501  0.00000000000E+00  0.00000000000E+00  0.13472370502E+04  0.13472370502E+04  0.00000000000E+00 0.  1.
         21   -1    0    0  504  502 -0.00000000000E+00 -0.00000000000E+00 -0.87406109178E+01  0.87406109178E+01  0.00000000000E+00 0.  1.
         21    1    1    2  503  502  0.83129842003E+02 -0.69636838565E+02  0.69409462615E+03  0.70251491796E+03  0.00000000000E+00 0.  1.
         21    1    1    2  504  501 -0.83129842003E+02  0.69636838565E+02  0.64440181312E+03  0.65346274313E+03  0.00000000000E+00 0.  1.
<mgrwt>
<rscale>  2 0.10844289E+03</rscale>
<asrwt>0</asrwt>
<pdfrwt beam="1">  1       21 0.20726707E+00 0.10844289E+03</pdfrwt>
<pdfrwt beam="2">  1       21 0.13447104E-02 0.10844289E+03</pdfrwt>
<totfact> 0.29456745E+05</totfact>
</mgrwt>
</event>
<event>
 4    1  0.6158309E+003  0.1043198E+03  0.7546771E-02  0.1271466E+00
         21   -1    0    0  502  501  0.00000000000E+00  0.00000000000E+00  0.76360857189E+02  0.76360857189E+02  0.00000000000E+00 0.  1.
         21   -1    0    0  504  502 -0.00000000000E+00 -0.00000000000E+00 -0.21180463052E+03  0.21180463052E+03  0.00000000000E+00 0. -1.
         21    1    1    2  503  501 -0.44493699240E+02  0.94355339581E+02  0.14687416391E+02  0.10534865723E+03  0.00000000000E+00 0.  1.
         21    1    1    2  504  503  0.44493699240E+02 -0.94355339581E+02 -0.15013118972E+03  0.18281683048E+03  0.00000000000E+00 0. -1.
<mgrwt>
<rscale>  2 0.10431979E+03</rscale>
<asrwt>0</asrwt>
<pdfrwt beam="1">  1       21 0.11747824E-01 0.10431979E+03</pdfrwt>
<pdfrwt beam="2">  1       21 0.32585327E-01 0.10431979E+03</pdfrwt>
<totfact> 0.55691286E+05</totfact>
</mgrwt>
</event>
<event>
 4    1  0.6158309E+003  0.1214309E+03  0.7546771E-02  0.1240755E+00
         21   -1    0    0  504  501  0.00000000000E+00  0.00000000000E+00  0.72290959204E+02  0.72290959204E+02  0.00000000000E+00 0.  1.
         21   -1    0    0  503  502 -0.00000000000E+00 -0.00000000000E+00 -0.21232963248E+03  0.21232963248E+03  0.00000000000E+00 0.  1.
         21    1    1    2  503  501 -0.25989568081E+00 -0.12143062379E+03 -0.41788414868E+02  0.12842015245E+03  0.00000000000E+00 0.  1.
         21    1    1    2  504  502  0.25989568081E+00  0.12143062379E+03 -0.98250258406E+02  0.15620043923E+03  0.00000000000E+00 0.  1.
<mgrwt>
<rscale>  2 0.12143090E+03</rscale>
<asrwt>0</asrwt>
<pdfrwt beam="1">  1       21 0.11121686E-01 0.12143090E+03</pdfrwt>
<pdfrwt beam="2">  1       21 0.32666097E-01 0.12143090E+03</pdfrwt>
<totfact> 0.61003895E+05</totfact>
</mgrwt>
</event>
<event>
 4    1  0.6158309E+003  0.1112121E+03  0.7546771E-02  0.1258342E+00
         21   -1    0    0  504  501  0.00000000000E+00  0.00000000000E+00  0.27423938142E+03  0.27423938142E+03  0.00000000000E+00 0. -1.
         21   -1    0    0  503  502 -0.00000000000E+00 -0.00000000000E+00 -0.56143962759E+02  0.56143962759E+02  0.00000000000E+00 0. -1.
         21    1    1    2  503  501  0.84548096541E+02 -0.72247905095E+02  0.18231380974E+03  0.21355670357E+03  0.00000000000E+00 0. -1.
         21    1    1    2  504  502 -0.84548096541E+02  0.72247905095E+02  0.35781608928E+02  0.11682664061E+03  0.00000000000E+00 0. -1.
<mgrwt>
<rscale>  2 0.11121214E+03</rscale>
<asrwt>0</asrwt>
<pdfrwt beam="1">  1       21 0.42190673E-01 0.11121214E+03</pdfrwt>
<pdfrwt beam="2">  1       21 0.86375329E-02 0.11121214E+03</pdfrwt>
<totfact> 0.57208246E+05</totfact>
</mgrwt>
</event>
<event>
 4    1  0.6158309E+003  0.1041019E+03  0.7546771E-02  0.1271899E+00
         21   -1    0    0  503  501  0.00000000000E+00  0.00000000000E+00  0.26626314210E+02  0.26626314210E+02  0.00000000000E+00 0. -1.
         21   -1    0    0  504  502 -0.00000000000E+00 -0.00000000000E+00 -0.54216942043E+03  0.54216942043E+03  0.00000000000E+00 0. -1.
         21    1    1    2  503  502 -0.83936557320E+02 -0.61578135928E+02 -0.39976875747E+03  0.41310080117E+03  0.00000000000E+00 0. -1.
         21    1    1    2  504  501  0.83936557320E+02  0.61578135928E+02 -0.11577434875E+03  0.15569493347E+03  0.00000000000E+00 0. -1.
<mgrwt>
<rscale>  2 0.10410193E+03</rscale>
<asrwt>0</asrwt>
<pdfrwt beam="1">  1       21 0.40963559E-02 0.10410193E+03</pdfrwt>
<pdfrwt beam="2">  1       21 0.83410682E-01 0.10410193E+03</pdfrwt>
<totfact> 0.47777389E+05</totfact>
</mgrwt>
</event>
<event>
 4    1  0.6158309E+003  0.1604618E+03  0.7546771E-02  0.1188176E+00
         21   -1    0    0  503  501  0.00000000000E+00  0.00000000000E+00  0.70257476213E+03  0.70257476213E+03  0.00000000000E+00 0.  1.
         21   -1    0    0  504  502 -0.00000000000E+00 -0.00000000000E+00 -0.36976384422E+02  0.36976384422E+02  0.00000000000E+00 0.  1.
         21    1    1    2  503  502  0.15151226927E+03  0.52839478531E+02  0.36764495371E+03  0.40113687218E+03  0.00000000000E+00 0.  1.
         21    1    1    2  504  501 -0.15151226927E+03 -0.52839478531E+02  0.29795342400E+03  0.33841427438E+03  0.00000000000E+00 0.  1.
<mgrwt>
<rscale>  2 0.16046177E+03</rscale>
<asrwt>0</asrwt>
<pdfrwt beam="1">  1       21 0.10808841E+00 0.16046177E+03</pdfrwt>
<pdfrwt beam="2">  1       21 0.56886751E-02 0.16046177E+03</pdfrwt>
<totfact> 0.14899899E+05</totfact>
</mgrwt>
</event>
<event>
 4    1  0.6158309E+003  0.1007840E+03  0.7546771E-02  0.1278656E+00
         21   -1    0    0  502  501  0.00000000000E+00  0.00000000000E+00  0.99777379451E+02  0.99777379451E+02  0.00000000000E+00 0.  1.
         21   -1    0    0  503  502 -0.00000000000E+00 -0.00000000000E+00 -0.37215871761E+03  0.37215871761E+03  0.00000000000E+00 0. -1.
         21    1    1    2  503  504  0.44479939554E+02  0.90437565821E+02 -0.33731223356E+03  0.35204681684E+03  0.00000000000E+00 0. -1.
         21    1    1    2  504  501 -0.44479939554E+02 -0.90437565821E+02  0.64930895404E+02  0.11988928022E+03  0.00000000000E+00 0.  1.
<mgrwt>
<rscale>  2 0.10078402E+03</rscale>
<asrwt>0</asrwt>
<pdfrwt beam="1">  1       21 0.15350366E-01 0.10078402E+03</pdfrwt>
<pdfrwt beam="2">  1       21 0.57255187E-01 0.10078402E+03</pdfrwt>
<totfact> 0.11167992E+05</totfact>
</mgrwt>
</event>
<event>
 4    1  0.6158309E+003  0.1044681E+03  0.7546771E-02  0.1271171E+00
         21   -1    0    0  503  501  0.00000000000E+00  0.00000000000E+00  0.24103569027E+03  0.24103569027E+03  0.00000000000E+00 0.  1.
         21   -1    0    0  504  502 -0.00000000000E+00 -0.00000000000E+00 -0.53016675705E+02  0.53016675705E+02  0.00000000000E+00 0.  1.
         21    1    1    2  503  502  0.38633861470E+00 -0.10446736911E+03  0.37836760385E+02  0.11110895960E+03  0.00000000000E+00 0.  1.
         21    1    1    2  504  501 -0.38633861470E+00  0.10446736911E+03  0.15018225417E+03  0.18294340637E+03  0.00000000000E+00 0.  1.
<mgrwt>
<rscale>  2 0.10446808E+03</rscale>
<asrwt>0</asrwt>
<pdfrwt beam="1">  1       21 0.37082413E-01 0.10446808E+03</pdfrwt>
<pdfrwt beam="2">  1       21 0.81564118E-02 0.10446808E+03</pdfrwt>
<totfact> 0.81570248E+05</totfact>
</mgrwt>
</event>
<event>
 4    1  0.6158309E+003  0.1069214E+03  0.7546771E-02  0.1266380E+00
         21   -1    0    0  504  501  0.00000000000E+00  0.00000000000E+00  0.17373201944E+03  0.17373201944E+03  0.00000000000E+00 0.  1.
         21   -1    0    0  503  502 -0.00000000000E+00 -0.00000000000E+00 -0.65803642810E+02  0.65803642810E+02  0.00000000000E+00 0.  1.
         21    1    1    2  503  501  0.22675797049E+02  0.10448918302E+03  0.53811370672E+02  0.11969897558E+03  0.00000000000E+00 0.  1.
         21    1    1    2  504  502 -0.22675797049E+02 -0.10448918302E+03  0.54117005962E+02  0.11983668668E+03  0.00000000000E+00 0.  1.
<mgrwt>
<rscale>  2 0.10692138E+03</rscale>
<asrwt>0</asrwt>
<pdfrwt beam="1">  1       21 0.26728003E-01 0.10692138E+03</pdfrwt>
<pdfrwt beam="2">  1       21 0.10123637E-01 0.10692138E+03</pdfrwt>
<totfact> 0.10562631E+06</totfact>
</mgrwt>
</event>
<event>
 4    1  0.6158309E+003  0.1086507E+03  0.7546771E-02  0.1263089E+00
         21   -1    0    0  504  501  0.00000000000E+00  0.00000000000E+00  0.10857919723E+03  0.10857919723E+03  0.00000000000E+00 0.  1.
         21   -1    0    0  503  502 -0.00000000000E+00 -0.00000000000E+00 -0.14204204945E+03  0.14204204945E+03  0.00000000000E+00 0.  1.
         21    1    1    2  503  501  0.92157599200E+02  0.57549589987E+02  0.43960425645E+02  0.11720707070E+03  0.00000000000E+00 0.  1.
         21    1    1    2  504  502 -0.92157599200E+02 -0.57549589987E+02 -0.77423277859E+02  0.13341417598E+03  0.00000000000E+00 0.  1.
<mgrwt>
<rscale>  2 0.10865072E+03</rscale>
<asrwt>0</asrwt>
<pdfrwt beam="1">  1       21 0.16704492E-01 0.10865072E+03</pdfrwt>
<pdfrwt beam="2">  1       21 0.21852623E-01 0.10865072E+03</pdfrwt>
<totfact> 0.63351555E+05</totfact>
</mgrwt>
</event>
<event>
 4    1  0.6158309E+003  0.1041410E+03  0.7546771E-02  0.1271821E+00
         21   -1    0    0  503  501  0.00000000000E+00  0.00000000000E+00  0.33455037718E+03  0.33455037718E+03  0.00000000000E+00 0.  1.
         21   -1    0    0  504  502 -0.00000000000E+00 -0.00000000000E+00 -0.62047331451E+02  0.62047331451E+02  0.00000000000E+00 0. -1.
         21    1    1    2  503  502  0.80550387988E+02 -0.66007518053E+02 -0.78038209940E+00  0.10414396978E+03  0.00000000000E+00 0. -1.
         21    1    1    2  504  501 -0.80550387988E+02  0.66007518053E+02  0.27328342782E+03  0.29245373885E+03  0.00000000000E+00 0.  1.
<mgrwt>
<rscale>  2 0.10414105E+03</rscale>
<asrwt>0</asrwt>
<pdfrwt beam="1">  1       21 0.51469288E-01 0.10414105E+03</pdfrwt>
<pdfrwt beam="2">  1       21 0.95457435E-02 0.10414105E+03</pdfrwt>
<totfact> 0.32152100E+05</totfact>
</mgrwt>
</event>
<event>
 4    1  0.6158309E+003  0.1037783E+03  0.7546771E-02  0.1272546E+00
         21   -1    0    0  503  501  0.00000000000E+00  0.00000000000E+00  0.86982075708E+03  0.86982075708E+03  0.00000000000E+00 0.  1.
         21   -1    0    0  504  502 -0.00000000000E+00 -0.00000000000E+00 -0.13396249546E+02  0.13396249546E+02  0.00000000000E+00 0.  1.
         21    1    1    2  503  502  0.88959143568E+02  0.53443477296E+02  0.30668770105E+03  0.32377041320E+03  0.00000000000E+00 0.  1.
         21    1    1    2  504  501 -0.88959143568E+02 -0.53443477296E+02  0.54973680648E+03  0.55944659342E+03  0.00000000000E+00 0.  1.
<mgrwt>
<rscale>  2 0.10377829E+03</rscale>
<asrwt>0</asrwt>
<pdfrwt beam="1">  1       21 0.13381853E+00 0.10377829E+03</pdfrwt>
<pdfrwt beam="2">  1       21 0.20609622E-02 0.10377829E+03</pdfrwt>
<totfact> 0.48100673E+05</totfact>
</mgrwt>
</event>
<event>
 4    1  0.6158309E+003  0.1000137E+03  0.7546771E-02  0.1280267E+00
         21   -1    0    0  503  501  0.00000000000E+00  0.00000000000E+00  0.28914380357E+03  0.28914380357E+03  0.00000000000E+00 0. -1.
         21   -1    0    0  504  502 -0.00000000000E+00 -0.00000000000E+00 -0.68622130144E+02  0.68622130144E+02  0.00000000000E+00 0. -1.
         21    1    1    2  503  502  0.84454880553E+02  0.53573353843E+02  0.23622701116E+03  0.25652666897E+03  0.00000000000E+00 0. -1.
         21    1    1    2  504  501 -0.84454880553E+02 -0.53573353843E+02 -0.15705337740E+02  0.10123926474E+03  0.00000000000E+00 0. -1.
<mgrwt>
<rscale>  2 0.10001365E+03</rscale>
<asrwt>0</asrwt>
<pdfrwt beam="1">  1       21 0.44483661E-01 0.10001365E+03</pdfrwt>
<pdfrwt beam="2">  1       21 0.10557251E-01 0.10001365E+03</pdfrwt>
<totfact> 0.36342081E+05</totfact>
</mgrwt>
</event>
<event>
 4    1  0.6158309E+003  0.1280886E+03  0.7546771E-02  0.1230320E+00
         21   -1    0    0  502  501  0.00000000000E+00  0.00000000000E+00  0.10581178471E+03  0.10581178471E+03  0.00000000000E+00 0.  1.
         21   -1    0    0  503  502 -0.00000000000E+00 -0.00000000000E+00 -0.23317769939E+03  0.23317769939E+03  0.00000000000E+00 0.  1.
         21    1    1    2  503  504  0.12018566491E+03  0.44295686205E+02 -0.16178993214E+03  0.20635572202E+03  0.00000000000E+00 0.  1.
         21    1    1    2  504  501 -0.12018566491E+03 -0.44295686205E+02  0.34424017462E+02  0.13263376209E+03  0.00000000000E+00 0.  1.
<mgrwt>
<rscale>  2 0.12808865E+03</rscale>
<asrwt>0</asrwt>
<pdfrwt beam="1">  1       21 0.16278736E-01 0.12808865E+03</pdfrwt>
<pdfrwt beam="2">  1       21 0.35873492E-01 0.12808865E+03</pdfrwt>
<totfact> 0.25698238E+05</totfact>
</mgrwt>
</event>
<event>
 4    1  0.6158309E+003  0.1491850E+03  0.7546771E-02  0.1201478E+00
         21   -1    0    0  503  501  0.00000000000E+00  0.00000000000E+00  0.22959204090E+03  0.22959204090E+03  0.00000000000E+00 0.  1.
         21   -1    0    0  504  502 -0.00000000000E+00 -0.00000000000E+00 -0.10646326339E+03  0.10646326339E+03  0.00000000000E+00 0.  1.
         21    1    1    2  503  502 -0.97790711686E+02 -0.11266381178E+03  0.11182443593E+03  0.18644265137E+03  0.00000000000E+00 0.  1.
         21    1    1    2  504  501  0.97790711686E+02  0.11266381178E+03  0.11304341578E+02  0.14961265293E+03  0.00000000000E+00 0.  1.
<mgrwt>
<rscale>  2 0.14918498E+03</rscale>
<asrwt>0</asrwt>
<pdfrwt beam="1">  1       21 0.35321852E-01 0.14918498E+03</pdfrwt>
<pdfrwt beam="2">  1       21 0.16378964E-01 0.14918498E+03</pdfrwt>
<totfact> 0.26087101E+05</totfact>
</mgrwt>
</event>
<event>
 4    1  0.6158309E+003  0.1179992E+03  0.7546771E-02  0.1246435E+00
         21   -1    0    0  503  501  0.00000000000E+00  0.00000000000E+00  0.78603795230E+01  0.78603795230E+01  0.00000000000E+00 0.  1.
         21   -1    0    0  504  502 -0.00000000000E+00 -0.00000000000E+00 -0.19133169741E+04  0.19133169741E+04  0.00000000000E+00 0.  1.
         21    1    1    2  503  502 -0.20196073494E+02 -0.11625799891E+03 -0.69110567012E+03  0.70110687557E+03  0.00000000000E+00 0.  1.
         21    1    1    2  504  501  0.20196073494E+02  0.11625799891E+03 -0.12143509244E+04  0.12200704780E+04  0.00000000000E+00 0.  1.
<mgrwt>
<rscale>  2 0.11799917E+03</rscale>
<asrwt>0</asrwt>
<pdfrwt beam="1">  1       21 0.12092874E-02 0.11799917E+03</pdfrwt>
<pdfrwt beam="2">  1       21 0.29435687E+00 0.11799917E+03</pdfrwt>
<totfact> 0.10933371E+05</totfact>
</mgrwt>
</event>
<event>
 4    1  0.6158309E+003  0.1089802E+03  0.7546771E-02  0.1262470E+00
         21   -1    0    0  503  501  0.00000000000E+00  0.00000000000E+00  0.23701435992E+03  0.23701435992E+03  0.00000000000E+00 0. -1.
         21   -1    0    0  504  502 -0.00000000000E+00 -0.00000000000E+00 -0.56081310028E+02  0.56081310028E+02  0.00000000000E+00 0. -1.
         21    1    1    2  503  502 -0.10792641443E+03  0.15118619900E+02  0.13828782751E+03  0.17606875599E+03  0.00000000000E+00 0. -1.
         21    1    1    2  504  501  0.10792641443E+03 -0.15118619900E+02  0.42645222383E+02  0.11702691396E+03  0.00000000000E+00 0. -1.
<mgrwt>
<rscale>  2 0.10898020E+03</rscale>
<asrwt>0</asrwt>
<pdfrwt beam="1">  1       21 0.36463747E-01 0.10898020E+03</pdfrwt>
<pdfrwt beam="2">  1       21 0.86278940E-02 0.10898020E+03</pdfrwt>
<totfact> 0.76569219E+05</totfact>
</mgrwt>
</event>
<event>
 4    1  0.6158309E+003  0.1228081E+03  0.7546771E-02  0.1238535E+00
         21   -1    0    0  503  501  0.00000000000E+00  0.00000000000E+00  0.21102851604E+02  0.21102851604E+02  0.00000000000E+00 0. -1.
         21   -1    0    0  504  502 -0.00000000000E+00 -0.00000000000E+00 -0.89634063458E+03  0.89634063458E+03  0.00000000000E+00 0. -1.
         21    1    1    2  503  502 -0.12059171416E+03  0.23226308438E+02 -0.23110888319E+03  0.26171193862E+03  0.00000000000E+00 0. -1.
         21    1    1    2  504  501  0.12059171416E+03 -0.23226308438E+02 -0.64412889979E+03  0.65573154757E+03  0.00000000000E+00 0. -1.
<mgrwt>
<rscale>  2 0.12280807E+03</rscale>
<asrwt>0</asrwt>
<pdfrwt beam="1">  1       21 0.32465928E-02 0.12280807E+03</pdfrwt>
<pdfrwt beam="2">  1       21 0.13789855E+00 0.12280807E+03</pdfrwt>
<totfact> 0.21193716E+05</totfact>
</mgrwt>
</event>
<event>
 4    1  0.6158309E+003  0.1036197E+03  0.7546771E-02  0.1272863E+00
         21   -1    0    0  503  501  0.00000000000E+00  0.00000000000E+00  0.21461584320E+03  0.21461584320E+03  0.00000000000E+00 0.  1.
         21   -1    0    0  501  502 -0.00000000000E+00 -0.00000000000E+00 -0.18923432790E+03  0.18923432790E+03  0.00000000000E+00 0. -1.
         21    1    1    2  503  504 -0.44293606051E+02  0.93675584058E+02  0.18587887026E+03  0.21280975775E+03  0.00000000000E+00 0.  1.
         21    1    1    2  504  502  0.44293606051E+02 -0.93675584058E+02 -0.16049735495E+03  0.19104041335E+03  0.00000000000E+00 0. -1.
<mgrwt>
<rscale>  2 0.10361968E+03</rscale>
<asrwt>0</asrwt>
<pdfrwt beam="1">  1       21 0.33017822E-01 0.10361968E+03</pdfrwt>
<pdfrwt beam="2">  1       21 0.29112974E-01 0.10361968E+03</pdfrwt>
<totfact> 0.10334897E+05</totfact>
</mgrwt>
</event>
<event>
 4    1  0.6158309E+003  0.1331485E+03  0.7546771E-02  0.1222857E+00
         21   -1    0    0  503  501  0.00000000000E+00  0.00000000000E+00  0.24614108451E+03  0.24614108451E+03  0.00000000000E+00 0. -1.
         21   -1    0    0  504  502 -0.00000000000E+00 -0.00000000000E+00 -0.81164577479E+02  0.81164577479E+02  0.00000000000E+00 0. -1.
         21    1    1    2  503  502  0.11738728544E+03 -0.62839065509E+02  0.27574274104E+02  0.13597376044E+03  0.00000000000E+00 0. -1.
         21    1    1    2  504  501 -0.11738728544E+03  0.62839065509E+02  0.13740223292E+03  0.19133190154E+03  0.00000000000E+00 0. -1.
<mgrwt>
<rscale>  2 0.13314850E+03</rscale>
<asrwt>0</asrwt>
<pdfrwt beam="1">  1       21 0.37867859E-01 0.13314850E+03</pdfrwt>
<pdfrwt beam="2">  1       21 0.12486858E-01 0.13314850E+03</pdfrwt>
<totfact> 0.37147221E+05</totfact>
</mgrwt>
</event>
<event>
 4    1  0.6158309E+003  0.1095464E+03  0.7546771E-02  0.1261412E+00
         21   -1    0    0  504  501  0.00000000000E+00  0.00000000000E+00  0.58385821875E+03  0.58385821875E+03  0.00000000000E+00 0. -1.
         21   -1    0    0  501  502 -0.00000000000E+00 -0.00000000000E+00 -0.40510962008E+02  0.40510962008E+02  0.00000000000E+00 0.  1.
         21    1    1    2  503  502  0.20959054950E+02 -0.10752267314E+03  0.52556464207E+02  0.12150139569E+03  0.00000000000E+00 0.  1.
         21    1    1    2  504  503 -0.20959054950E+02  0.10752267314E+03  0.49079079254E+03  0.50286778507E+03  0.00000000000E+00 0. -1.
<mgrwt>
<rscale>  2 0.10954637E+03</rscale>
<asrwt>0</asrwt>
<pdfrwt beam="1">  1       21 0.89824335E-01 0.10954637E+03</pdfrwt>
<pdfrwt beam="2">  1       21 0.62324561E-02 0.10954637E+03</pdfrwt>
<totfact> 0.20010983E+05</totfact>
</mgrwt>
</event>
<event>
 4    1  0.6158309E+003  0.1148646E+03  0.7546771E-02  0.1251818E+00
         21   -1    0    0  502  501  0.00000000000E+00  0.00000000000E+00  0.22507883270E+04  0.22507883270E+04  0.00000000000E+00 0. -1.
         21   -1    0    0  504  502 -0.00000000000E+00 -0.00000000000E+00 -0.70437954462E+01  0.70437954462E+01  0.00000000000E+00 0. -1.
         21    1    1    2  503  501 -0.11281833557E+03 -0.21584557573E+02  0.15843064669E+04  0.15884649354E+04  0.00000000000E+00 0. -1.
         21    1    1    2  504  503  0.11281833557E+03  0.21584557573E+02  0.65943806465E+03  0.66936718703E+03  0.00000000000E+00 0. -1.
<mgrwt>
<rscale>  2 0.11486457E+03</rscale>
<asrwt>0</asrwt>
<pdfrwt beam="1">  1       21 0.34627455E+00 0.11486457E+03</pdfrwt>
<pdfrwt beam="2">  1       21 0.10836626E-02 0.11486457E+03</pdfrwt>
<totfact> 0.66649894E+04</totfact>
</mgrwt>
</event>
<event>
 4    1  0.6158309E+003  0.1118710E+03  0.7546771E-02  0.1257144E+00
         21   -1    0    0  503  501  0.00000000000E+00  0.00000000000E+00  0.55495396462E+01  0.55495396462E+01  0.00000000000E+00 0. -1.
         21   -1    0    0  501  502 -0.00000000000E+00 -0.00000000000E+00 -0.24006985664E+04  0.24006985664E+04  0.00000000000E+00 0. -1.
         21    1    1    2  503  504 -0.94418327706E+02  0.60002428911E+02 -0.90134566876E+03  0.90826159595E+03  0.00000000000E+00 0. -1.
         21    1    1    2  504  502  0.94418327706E+02 -0.60002428911E+02 -0.14938033580E+04  0.14979865101E+04  0.00000000000E+00 0. -1.
<mgrwt>
<rscale>  2 0.11187096E+03</rscale>
<asrwt>0</asrwt>
<pdfrwt beam="1">  1       21 0.85377419E-03 0.11187096E+03</pdfrwt>
<pdfrwt beam="2">  1       21 0.36933873E+00 0.11187096E+03</pdfrwt>
<totfact> 0.71643657E+04</totfact>
</mgrwt>
</event>
<event>
 4    1  0.6158309E+003  0.1068034E+03  0.7546771E-02  0.1266607E+00
         21   -1    0    0  502  501  0.00000000000E+00  0.00000000000E+00  0.75900507903E+02  0.75900507903E+02  0.00000000000E+00 0. -1.
         21   -1    0    0  503  502 -0.00000000000E+00 -0.00000000000E+00 -0.29145625538E+03  0.29145625538E+03  0.00000000000E+00 0. -1.
         21    1    1    2  503  504 -0.47249518769E+02 -0.95783319978E+02 -0.23560980587E+03  0.25868695760E+03  0.00000000000E+00 0. -1.
         21    1    1    2  504  501  0.47249518769E+02  0.95783319978E+02  0.20054058391E+02  0.10866980569E+03  0.00000000000E+00 0. -1.
<mgrwt>
<rscale>  2 0.10680338E+03</rscale>
<asrwt>0</asrwt>
<pdfrwt beam="1">  1       21 0.11677001E-01 0.10680338E+03</pdfrwt>
<pdfrwt beam="2">  1       21 0.44839424E-01 0.10680338E+03</pdfrwt>
<totfact> 0.29942352E+05</totfact>
</mgrwt>
</event>
<event>
 4    1  0.6158309E+003  0.1169386E+03  0.7546771E-02  0.1248235E+00
         21   -1    0    0  504  501  0.00000000000E+00  0.00000000000E+00  0.65817673423E+03  0.65817673423E+03  0.00000000000E+00 0.  1.
         21   -1    0    0  503  502 -0.00000000000E+00 -0.00000000000E+00 -0.12656432372E+03  0.12656432372E+03  0.00000000000E+00 0.  1.
         21    1    1    2  503  501 -0.89092571882E+02  0.75743944613E+02  0.62452860772E+03  0.63538225768E+03  0.00000000000E+00 0.  1.
         21    1    1    2  504  502  0.89092571882E+02 -0.75743944613E+02 -0.92916197215E+02  0.14935880026E+03  0.00000000000E+00 0.  1.
<mgrwt>
<rscale>  2 0.11693858E+03</rscale>
<asrwt>0</asrwt>
<pdfrwt beam="1">  1       21 0.10125796E+00 0.11693858E+03</pdfrwt>
<pdfrwt beam="2">  1       21 0.19471435E-01 0.11693858E+03</pdfrwt>
<totfact> 0.20387821E+04</totfact>
</mgrwt>
</event>
<event>
 4    1  0.6158309E+003  0.1067535E+03  0.7546771E-02  0.1266703E+00
         21   -1    0    0  504  501  0.00000000000E+00  0.00000000000E+00  0.16024791643E+03  0.16024791643E+03  0.00000000000E+00 0.  1.
         21   -1    0    0  503  502 -0.00000000000E+00 -0.00000000000E+00 -0.71118592057E+02  0.71118592057E+02  0.00000000000E+00 0.  1.
         21    1    1    2  503  501  0.90706392056E+02 -0.56290938300E+02  0.45145091622E+02  0.11590685309E+03  0.00000000000E+00 0.  1.
         21    1    1    2  504  502 -0.90706392056E+02  0.56290938300E+02  0.43984232749E+02  0.11545965540E+03  0.00000000000E+00 0.  1.
<mgrwt>
<rscale>  2 0.10675354E+03</rscale>
<asrwt>0</asrwt>
<pdfrwt beam="1">  1       21 0.24653525E-01 0.10675354E+03</pdfrwt>
<pdfrwt beam="2">  1       21 0.10941322E-01 0.10675354E+03</pdfrwt>
<totfact> 0.10739520E+06</totfact>
</mgrwt>
</event>
<event>
 4    1  0.6158309E+003  0.1374351E+03  0.7546771E-02  0.1216822E+00
         21   -1    0    0  504  501  0.00000000000E+00  0.00000000000E+00  0.27931394064E+03  0.27931394064E+03  0.00000000000E+00 0.  1.
         21   -1    0    0  503  502 -0.00000000000E+00 -0.00000000000E+00 -0.88376937263E+02  0.88376937263E+02  0.00000000000E+00 0. -1.
         21    1    1    2  503  501 -0.94443117451E+02 -0.99844453090E+02  0.18455661300E+03  0.23010771531E+03  0.00000000000E+00 0.  1.
         21    1    1    2  504  502  0.94443117451E+02  0.99844453090E+02  0.63803903808E+01  0.13758316259E+03  0.00000000000E+00 0. -1.
<mgrwt>
<rscale>  2 0.13743514E+03</rscale>
<asrwt>0</asrwt>
<pdfrwt beam="1">  1       21 0.42971375E-01 0.13743514E+03</pdfrwt>
<pdfrwt beam="2">  1       21 0.13596452E-01 0.13743514E+03</pdfrwt>
<totfact> 0.24747964E+05</totfact>
</mgrwt>
</event>
<event>
 4    1  0.6158309E+003  0.1239759E+03  0.7546771E-02  0.1236678E+00
         21   -1    0    0  503  501  0.00000000000E+00  0.00000000000E+00  0.38766454165E+03  0.38766454165E+03  0.00000000000E+00 0. -1.
         21   -1    0    0  504  502 -0.00000000000E+00 -0.00000000000E+00 -0.48814141737E+02  0.48814141737E+02  0.00000000000E+00 0. -1.
         21    1    1    2  503  502  0.48474297598E+02  0.11410641613E+03  0.26399644820E+03  0.29165760130E+03  0.00000000000E+00 0. -1.
         21    1    1    2  504  501 -0.48474297598E+02 -0.11410641613E+03  0.74853951707E+02  0.14482108209E+03  0.00000000000E+00 0. -1.
<mgrwt>
<rscale>  2 0.12397593E+03</rscale>
<asrwt>0</asrwt>
<pdfrwt beam="1">  1       21 0.59640697E-01 0.12397593E+03</pdfrwt>
<pdfrwt beam="2">  1       21 0.75098682E-02 0.12397593E+03</pdfrwt>
<totfact> 0.35626109E+05</totfact>
</mgrwt>
</event>
<event>
 4    1  0.6158309E+003  0.1058824E+03  0.7546771E-02  0.1268391E+00
         21   -1    0    0  504  501  0.00000000000E+00  0.00000000000E+00  0.14799719376E+03  0.14799719376E+03  0.00000000000E+00 0. -1.
         21   -1    0    0  503  502 -0.00000000000E+00 -0.00000000000E+00 -0.85989254938E+02  0.85989254938E+02  0.00000000000E+00 0. -1.
         21    1    1    2  503  501 -0.10110376206E+03  0.31450197786E+02  0.71371302487E+02  0.12769083155E+03  0.00000000000E+00 0. -1.
         21    1    1    2  504  502  0.10110376206E+03 -0.31450197786E+02 -0.93633636696E+01  0.10629561714E+03  0.00000000000E+00 0. -1.
<mgrwt>
<rscale>  2 0.10588241E+03</rscale>
<asrwt>0</asrwt>
<pdfrwt beam="1">  1       21 0.22768799E-01 0.10588241E+03</pdfrwt>
<pdfrwt beam="2">  1       21 0.13229116E-01 0.10588241E+03</pdfrwt>
<totfact> 0.89150334E+05</totfact>
</mgrwt>
</event>
<event>
 4    1  0.6158309E+003  0.1384739E+03  0.7546771E-02  0.1215397E+00
         21   -1    0    0  503  501  0.00000000000E+00  0.00000000000E+00  0.14557081481E+04  0.14557081481E+04  0.00000000000E+00 0. -1.
         21   -1    0    0  501  502 -0.00000000000E+00 -0.00000000000E+00 -0.22932881210E+02  0.22932881210E+02  0.00000000000E+00 0.  1.
         21    1    1    2  503  504  0.11020260038E+03  0.83847589806E+02  0.11987141949E+04  0.12066858549E+04  0.00000000000E+00 0. -1.
         21    1    1    2  504  502 -0.11020260038E+03 -0.83847589806E+02  0.23406107196E+03  0.27195517435E+03  0.00000000000E+00 0.  1.
<mgrwt>
<rscale>  2 0.13847394E+03</rscale>
<asrwt>0</asrwt>
<pdfrwt beam="1">  1       21 0.22395503E+00 0.13847394E+03</pdfrwt>
<pdfrwt beam="2">  1       21 0.35281367E-02 0.13847394E+03</pdfrwt>
<totfact> 0.47961897E+04</totfact>
</mgrwt>
</event>
<event>
 4    1  0.6158309E+003  0.1273826E+03  0.7546771E-02  0.1231392E+00
         21   -1    0    0  504  501  0.00000000000E+00  0.00000000000E+00  0.71502669812E+02  0.71502669812E+02  0.00000000000E+00 0. -1.
         21   -1    0    0  503  502 -0.00000000000E+00 -0.00000000000E+00 -0.35024854813E+03  0.35024854813E+03  0.00000000000E+00 0. -1.
         21    1    1    2  503  501 -0.11238067596E+03  0.59974327341E+02 -0.26449865701E+03  0.29357431057E+03  0.00000000000E+00 0. -1.
         21    1    1    2  504  502  0.11238067596E+03 -0.59974327341E+02 -0.14247221312E+02  0.12817690737E+03  0.00000000000E+00 0. -1.
<mgrwt>
<rscale>  2 0.12738264E+03</rscale>
<asrwt>0</asrwt>
<pdfrwt beam="1">  1       21 0.11000411E-01 0.12738264E+03</pdfrwt>
<pdfrwt beam="2">  1       21 0.53884392E-01 0.12738264E+03</pdfrwt>
<totfact> 0.22704884E+05</totfact>
</mgrwt>
</event>
<event>
 4    1  0.6158309E+003  0.1050105E+03  0.7546771E-02  0.1270099E+00
         21   -1    0    0  502  501  0.00000000000E+00  0.00000000000E+00  0.60492284092E+03  0.60492284092E+03  0.00000000000E+00 0.  1.
         21   -1    0    0  504  502 -0.00000000000E+00 -0.00000000000E+00 -0.64691157034E+02  0.64691157034E+02  0.00000000000E+00 0. -1.
         21    1    1    2  503  501  0.20079232817E+02 -0.10307291968E+03  0.55385629590E+03  0.56372333540E+03  0.00000000000E+00 0.  1.
         21    1    1    2  504  503 -0.20079232817E+02  0.10307291968E+03 -0.13624612020E+02  0.10589066255E+03  0.00000000000E+00 0. -1.
<mgrwt>
<rscale>  2 0.10501049E+03</rscale>
<asrwt>0</asrwt>
<pdfrwt beam="1">  1       21 0.93065049E-01 0.10501049E+03</pdfrwt>
<pdfrwt beam="2">  1       21 0.99524861E-02 0.10501049E+03</pdfrwt>
<totfact> 0.82878610E+04</totfact>
</mgrwt>
</event>
<event>
 4    1  0.6158309E+003  0.1163599E+03  0.7546771E-02  0.1249226E+00
         21   -1    0    0  504  501  0.00000000000E+00  0.00000000000E+00  0.21925561718E+03  0.21925561718E+03  0.00000000000E+00 0.  1.
         21   -1    0    0  503  502 -0.00000000000E+00 -0.00000000000E+00 -0.61996894611E+02  0.61996894611E+02  0.00000000000E+00 0.  1.
         21    1    1    2  503  501  0.83396505982E+02  0.81145833057E+02  0.87455308361E+02  0.14556117062E+03  0.00000000000E+00 0.  1.
         21    1    1    2  504  502 -0.83396505982E+02 -0.81145833057E+02  0.69803414204E+02  0.13569134116E+03  0.00000000000E+00 0.  1.
<mgrwt>
<rscale>  2 0.11635989E+03</rscale>
<asrwt>0</asrwt>
<pdfrwt beam="1">  1       21 0.33731633E-01 0.11635989E+03</pdfrwt>
<pdfrwt beam="2">  1       21 0.95379839E-02 0.11635989E+03</pdfrwt>
<totfact> 0.74974913E+05</totfact>
</mgrwt>
</event>
<event>
 4    1  0.6158309E+003  0.1349381E+03  0.7546771E-02  0.1220307E+00
         21   -1    0    0  503  501  0.00000000000E+00  0.00000000000E+00  0.43806208988E+02  0.43806208988E+02  0.00000000000E+00 0. -1.
         21   -1    0    0  504  502 -0.00000000000E+00 -0.00000000000E+00 -0.41869939995E+03  0.41869939995E+03  0.00000000000E+00 0. -1.
         21    1    1    2  503  502  0.13356882873E+03 -0.19174586660E+02 -0.16772950860E+03  0.21527072452E+03  0.00000000000E+00 0. -1.
         21    1    1    2  504  501 -0.13356882873E+03  0.19174586660E+02 -0.20716368237E+03  0.24723488442E+03  0.00000000000E+00 0. -1.
<mgrwt>
<rscale>  2 0.13493812E+03</rscale>
<asrwt>0</asrwt>
<pdfrwt beam="1">  1       21 0.67394164E-02 0.13493812E+03</pdfrwt>
<pdfrwt beam="2">  1       21 0.64415296E-01 0.13493812E+03</pdfrwt>
<totfact> 0.36314144E+05</totfact>
</mgrwt>
</event>
<event>
 4    1  0.6158309E+003  0.1378772E+03  0.7546771E-02  0.1216214E+00
         21   -1    0    0  503  501  0.00000000000E+00  0.00000000000E+00  0.13003822969E+03  0.13003822969E+03  0.00000000000E+00 0.  1.
         21   -1    0    0  504  502 -0.00000000000E+00 -0.00000000000E+00 -0.37735790762E+03  0.37735790762E+03  0.00000000000E+00 0.  1.
         21    1    1    2  503  502  0.11709247993E+03 -0.72797432750E+02 -0.32222610057E+03  0.35048505668E+03  0.00000000000E+00 0.  1.
         21    1    1    2  504  501 -0.11709247993E+03  0.72797432750E+02  0.74906422638E+02  0.15691108063E+03  0.00000000000E+00 0.  1.
<mgrwt>
<rscale>  2 0.13787717E+03</rscale>
<asrwt>0</asrwt>
<pdfrwt beam="1">  1       21 0.20005882E-01 0.13787717E+03</pdfrwt>
<pdfrwt beam="2">  1       21 0.58055062E-01 0.13787717E+03</pdfrwt>
<totfact> 0.65765866E+04</totfact>
</mgrwt>
</event>
<event>
 4    1  0.6158309E+003  0.1667821E+03  0.7546771E-02  0.1181246E+00
         21   -1    0    0  504  501  0.00000000000E+00  0.00000000000E+00  0.69236458213E+03  0.69236458213E+03  0.00000000000E+00 0. -1.
         21   -1    0    0  503  502 -0.00000000000E+00 -0.00000000000E+00 -0.54585873921E+03  0.54585873921E+03  0.00000000000E+00 0.  1.
         21    1    1    2  503  501  0.41645759026E+01  0.16673007962E+03  0.66914556532E+03  0.68961732195E+03  0.00000000000E+00 0. -1.
         21    1    1    2  504  502 -0.41645759026E+01 -0.16673007962E+03 -0.52263972240E+03  0.54860599939E+03  0.00000000000E+00 0.  1.
<mgrwt>
<rscale>  2 0.16678208E+03</rscale>
<asrwt>0</asrwt>
<pdfrwt beam="1">  1       21 0.10651763E+00 0.16678208E+03</pdfrwt>
<pdfrwt beam="2">  1       21 0.83978267E-01 0.16678208E+03</pdfrwt>
<totfact> 0.89443055E+02</totfact>
</mgrwt>
</event>
<event>
 4    1  0.6158309E+003  0.1509590E+03  0.7546771E-02  0.1199299E+00
         21   -1    0    0  502  501  0.00000000000E+00  0.00000000000E+00  0.66420107973E+03  0.66420107973E+03  0.00000000000E+00 0.  1.
         21   -1    0    0  504  502 -0.00000000000E+00 -0.00000000000E+00 -0.37453180880E+02  0.37453180880E+02  0.00000000000E+00 0.  1.
         21    1    1    2  503  501  0.14391913065E+03 -0.45562243682E+02  0.41500921055E+03  0.44161213645E+03  0.00000000000E+00 0.  1.
         21    1    1    2  504  503 -0.14391913065E+03  0.45562243682E+02  0.21173868830E+03  0.26004212416E+03  0.00000000000E+00 0.  1.
<mgrwt>
<rscale>  2 0.15095905E+03</rscale>
<asrwt>0</asrwt>
<pdfrwt beam="1">  1       21 0.10218477E+00 0.15095905E+03</pdfrwt>
<pdfrwt beam="2">  1       21 0.57620283E-02 0.15095905E+03</pdfrwt>
<totfact> 0.16721487E+05</totfact>
</mgrwt>
</event>
<event>
 4    1  0.6158309E+003  0.1330883E+03  0.7546771E-02  0.1222944E+00
         21   -1    0    0  503  501  0.00000000000E+00  0.00000000000E+00  0.11190018066E+04  0.11190018066E+04  0.00000000000E+00 0. -1.
         21   -1    0    0  501  502 -0.00000000000E+00 -0.00000000000E+00 -0.65218954253E+02  0.65218954253E+02  0.00000000000E+00 0. -1.
         21    1    1    2  503  504 -0.47410040106E+02 -0.12435752529E+03  0.10421624889E+04  0.10506260797E+04  0.00000000000E+00 0. -1.
         21    1    1    2  504  502  0.47410040106E+02  0.12435752529E+03  0.11620363458E+02  0.13359468120E+03  0.00000000000E+00 0. -1.
<mgrwt>
<rscale>  2 0.13308834E+03</rscale>
<asrwt>0</asrwt>
<pdfrwt beam="1">  1       21 0.17215411E+00 0.13308834E+03</pdfrwt>
<pdfrwt beam="2">  1       21 0.10033686E-01 0.13308834E+03</pdfrwt>
<totfact> 0.17437364E+04</totfact>
</mgrwt>
</event>
<event>
 4    1  0.6158309E+003  0.1296695E+03  0.7546771E-02  0.1227947E+00
         21   -1    0    0  503  501  0.00000000000E+00  0.00000000000E+00  0.20261450178E+03  0.20261450178E+03  0.00000000000E+00 0.  1.
         21   -1    0    0  504  502 -0.00000000000E+00 -0.00000000000E+00 -0.18322333493E+03  0.18322333493E+03  0.00000000000E+00 0. -1.
         21    1    1    2  503  502  0.36342112226E+02 -0.12447260561E+03  0.15238739702E+03  0.20009022325E+03  0.00000000000E+00 0.  1.
         21    1    1    2  504  501 -0.36342112226E+02  0.12447260561E+03 -0.13299623017E+03  0.18574761346E+03  0.00000000000E+00 0. -1.
<mgrwt>
<rscale>  2 0.12966950E+03</rscale>
<asrwt>0</asrwt>
<pdfrwt beam="1">  1       21 0.31171462E-01 0.12966950E+03</pdfrwt>
<pdfrwt beam="2">  1       21 0.28188205E-01 0.12966950E+03</pdfrwt>
<totfact> 0.12159494E+05</totfact>
</mgrwt>
</event>
<event>
 4    1  0.6158309E+003  0.1165191E+03  0.7546771E-02  0.1248952E+00
         21   -1    0    0  503  501  0.00000000000E+00  0.00000000000E+00  0.44432052446E+03  0.44432052446E+03  0.00000000000E+00 0. -1.
         21   -1    0    0  504  502 -0.00000000000E+00 -0.00000000000E+00 -0.41051130583E+02  0.41051130583E+02  0.00000000000E+00 0. -1.
         21    1    1    2  503  502  0.52327949849E+02 -0.10410809342E+03  0.78926555399E+02  0.14073418418E+03  0.00000000000E+00 0. -1.
         21    1    1    2  504  501 -0.52327949849E+02  0.10410809342E+03  0.32434283848E+03  0.34463747086E+03  0.00000000000E+00 0. -1.
<mgrwt>
<rscale>  2 0.11651914E+03</rscale>
<asrwt>0</asrwt>
<pdfrwt beam="1">  1       21 0.68357000E-01 0.11651914E+03</pdfrwt>
<pdfrwt beam="2">  1       21 0.63155589E-02 0.11651914E+03</pdfrwt>
<totfact> 0.35790375E+05</totfact>
</mgrwt>
</event>
<event>
 4    1  0.6158309E+003  0.1000358E+03  0.7546771E-02  0.1280221E+00
         21   -1    0    0  503  501  0.00000000000E+00  0.00000000000E+00  0.74625675259E+01  0.74625675259E+01  0.00000000000E+00 0. -1.
         21   -1    0    0  504  502 -0.00000000000E+00 -0.00000000000E+00 -0.21268219471E+04  0.21268219471E+04  0.00000000000E+00 0. -1.
         21    1    1    2  503  502 -0.38262474200E+02  0.92429147555E+02 -0.17083499210E+04  0.17112763123E+04  0.00000000000E+00 0. -1.
         21    1    1    2  504  501  0.38262474200E+02 -0.92429147555E+02 -0.41100945859E+03  0.42300820240E+03  0.00000000000E+00 0. -1.
<mgrwt>
<rscale>  2 0.10003581E+03</rscale>
<asrwt>0</asrwt>
<pdfrwt beam="1">  1       21 0.11480872E-02 0.10003581E+03</pdfrwt>
<pdfrwt beam="2">  1       21 0.32720341E+00 0.10003581E+03</pdfrwt>
<totfact> 0.79836335E+04</totfact>
</mgrwt>
</event>
<event>
 4    1  0.6158309E+003  0.1399283E+03  0.7546771E-02  0.1213425E+00
         21   -1    0    0  502  501  0.00000000000E+00  0.00000000000E+00  0.43472769325E+03  0.43472769325E+03  0.00000000000E+00 0.  1.
         21   -1    0    0  504  502 -0.00000000000E+00 -0.00000000000E+00 -0.56731412444E+02  0.56731412444E+02  0.00000000000E+00 0.  1.
         21    1    1    2  503  501  0.11754864520E+03  0.75909526103E+02  0.30055272437E+03  0.33152960693E+03  0.00000000000E+00 0.  1.
         21    1    1    2  504  503 -0.11754864520E+03 -0.75909526103E+02  0.77443556436E+02  0.15992949877E+03  0.00000000000E+00 0.  1.
<mgrwt>
<rscale>  2 0.13992834E+03</rscale>
<asrwt>0</asrwt>
<pdfrwt beam="1">  1       21 0.66881181E-01 0.13992834E+03</pdfrwt>
<pdfrwt beam="2">  1       21 0.87279099E-02 0.13992834E+03</pdfrwt>
<totfact> 0.21425890E+05</totfact>
</mgrwt>
</event>
<event>
 4    1  0.6158309E+003  0.1128403E+03  0.7546771E-02  0.1255399E+00
         21   -1    0    0  504  501  0.00000000000E+00  0.00000000000E+00  0.90812944370E+03  0.90812944370E+03  0.00000000000E+00 0.  1.
         21   -1    0    0  503  502 -0.00000000000E+00 -0.00000000000E+00 -0.64672674226E+02  0.64672674226E+02  0.00000000000E+00 0. -1.
         21    1    1    2  503  501 -0.70115501167E+02 -0.88412321334E+02 -0.87296511959E+01  0.11317742212E+03  0.00000000000E+00 0. -1.
         21    1    1    2  504  502  0.70115501167E+02  0.88412321334E+02  0.85218642067E+03  0.85962469581E+03  0.00000000000E+00 0.  1.
<mgrwt>
<rscale>  2 0.11284025E+03</rscale>
<asrwt>0</asrwt>
<pdfrwt beam="1">  1       21 0.13971221E+00 0.11284025E+03</pdfrwt>
<pdfrwt beam="2">  1       21 0.99496428E-02 0.11284025E+03</pdfrwt>
<totfact> 0.31117150E+04</totfact>
</mgrwt>
</event>
<event>
 4    1  0.6158309E+003  0.1097580E+03  0.7546771E-02  0.1261019E+00
         21   -1    0    0  503  501  0.00000000000E+00  0.00000000000E+00  0.45811251268E+03  0.45811251268E+03  0.00000000000E+00 0. -1.
         21   -1    0    0  504  502 -0.00000000000E+00 -0.00000000000E+00 -0.38623044011E+02  0.38623044011E+02  0.00000000000E+00 0. -1.
         21    1    1    2  503  502  0.11431344745E+02 -0.10916110970E+03  0.69434270499E+02  0.12987663929E+03  0.00000000000E+00 0. -1.
         21    1    1    2  504  501 -0.11431344745E+02  0.10916110970E+03  0.35005519817E+03  0.36685891740E+03  0.00000000000E+00 0. -1.
<mgrwt>
<rscale>  2 0.10975802E+03</rscale>
<asrwt>0</asrwt>
<pdfrwt beam="1">  1       21 0.70478844E-01 0.10975802E+03</pdfrwt>
<pdfrwt beam="2">  1       21 0.59420071E-02 0.10975802E+03</pdfrwt>
<totfact> 0.37178685E+05</totfact>
</mgrwt>
</event>
<event>
 4    1  0.6158309E+003  0.1430912E+03  0.7546771E-02  0.1209229E+00
         21   -1    0    0  503  501  0.00000000000E+00  0.00000000000E+00  0.11527547364E+04  0.11527547364E+04  0.00000000000E+00 0. -1.
         21   -1    0    0  504  502 -0.00000000000E+00 -0.00000000000E+00 -0.34531925434E+02  0.34531925434E+02  0.00000000000E+00 0. -1.
         21    1    1    2  503  502 -0.29254207706E+01 -0.14306134239E+03  0.97280819738E+03  0.98327559446E+03  0.00000000000E+00 0. -1.
         21    1    1    2  504  501  0.29254207706E+01  0.14306134239E+03  0.14541461363E+03  0.20401106742E+03  0.00000000000E+00 0. -1.
<mgrwt>
<rscale>  2 0.14309125E+03</rscale>
<asrwt>0</asrwt>
<pdfrwt beam="1">  1       21 0.17734685E+00 0.14309125E+03</pdfrwt>
<pdfrwt beam="2">  1       21 0.53126048E-02 0.14309125E+03</pdfrwt>
<totfact> 0.47552735E+04</totfact>
</mgrwt>
</event>
<event>
 4    1  0.6158309E+003  0.1024692E+03  0.7546771E-02  0.1275188E+00
         21   -1    0    0  504  501  0.00000000000E+00  0.00000000000E+00  0.71687289869E+03  0.71687289869E+03  0.00000000000E+00 0.  1.
         21   -1    0    0  501  502 -0.00000000000E+00 -0.00000000000E+00 -0.87140164452E+02  0.87140164452E+02  0.00000000000E+00 0. -1.
         21    1    1    2  503  502 -0.47038399003E+01  0.10236121246E+03 -0.51801490460E+02  0.11481871946E+03  0.00000000000E+00 0. -1.
         21    1    1    2  504  503  0.47038399003E+01 -0.10236121246E+03  0.68153422470E+03  0.68919434368E+03  0.00000000000E+00 0.  1.
<mgrwt>
<rscale>  2 0.10246923E+03</rscale>
<asrwt>0</asrwt>
<pdfrwt beam="1">  1       21 0.11028813E+00 0.10246923E+03</pdfrwt>
<pdfrwt beam="2">  1       21 0.13406180E-01 0.10246923E+03</pdfrwt>
<totfact> 0.33113230E+04</totfact>
</mgrwt>
</event>
<event>
 4    1  0.6158309E+003  0.1029833E+03  0.7546771E-02  0.1274145E+00
         21   -1    0    0  503  501  0.00000000000E+00  0.00000000000E+00  0.49665201199E+03  0.49665201199E+03  0.00000000000E+00 0. -1.
         21   -1    0    0  504  502 -0.00000000000E+00 -0.00000000000E+00 -0.33509224722E+02  0.33509224722E+02  0.00000000000E+00 0. -1.
         21    1    1    2  503  502  0.29870597307E+02 -0.98556080508E+02  0.39122385104E+03  0.40455117749E+03  0.00000000000E+00 0. -1.
         21    1    1    2  504  501 -0.29870597307E+02  0.98556080508E+02  0.71918936228E+02  0.12561005922E+03  0.00000000000E+00 0. -1.
<mgrwt>
<rscale>  2 0.10298327E+03</rscale>
<asrwt>0</asrwt>
<pdfrwt beam="1">  1       21 0.76407997E-01 0.10298327E+03</pdfrwt>
<pdfrwt beam="2">  1       21 0.51552657E-02 0.10298327E+03</pdfrwt>
<totfact> 0.39597796E+05</totfact>
</mgrwt>
</event>
<event>
 4    1  0.6158309E+003  0.1247328E+03  0.7546771E-02  0.1235487E+00
         21   -1    0    0  504  501  0.00000000000E+00  0.00000000000E+00  0.81108570148E+03  0.81108570148E+03  0.00000000000E+00 0. -1.
         21   -1    0    0  503  502 -0.00000000000E+00 -0.00000000000E+00 -0.80851124933E+02  0.80851124933E+02  0.00000000000E+00 0. -1.
         21    1    1    2  503  501  0.12429998926E+03 -0.10382316895E+02  0.75460594334E+03  0.76484535009E+03  0.00000000000E+00 0. -1.
         21    1    1    2  504  502 -0.12429998926E+03  0.10382316895E+02 -0.24371366789E+02  0.12709147632E+03  0.00000000000E+00 0. -1.
<mgrwt>
<rscale>  2 0.12473283E+03</rscale>
<asrwt>0</asrwt>
<pdfrwt beam="1">  1       21 0.12478241E+00 0.12473283E+03</pdfrwt>
<pdfrwt beam="2">  1       21 0.12438635E-01 0.12473283E+03</pdfrwt>
<totfact> 0.27576040E+04</totfact>
</mgrwt>
</event>
<event>
 4    1  0.6158309E+003  0.1141738E+03  0.7546771E-02  0.1253030E+00
         21   -1    0    0  503  501  0.00000000000E+00  0.00000000000E+00  0.71087765102E+02  0.71087765102E+02  0.00000000000E+00 0. -1.
         21   -1    0    0  501  502 -0.00000000000E+00 -0.00000000000E+00 -0.18597773592E+03  0.18597773592E+03  0.00000000000E+00 0. -1.
         21    1    1    2  503  504 -0.58428831227E+02  0.98090462953E+02 -0.42237443367E+02  0.12173606229E+03  0.00000000000E+00 0. -1.
         21    1    1    2  504  502  0.58428831227E+02 -0.98090462953E+02 -0.72652527451E+02  0.13532943873E+03  0.00000000000E+00 0. -1.
<mgrwt>
<rscale>  2 0.11417385E+03</rscale>
<asrwt>0</asrwt>
<pdfrwt beam="1">  1       21 0.10936579E-01 0.11417385E+03</pdfrwt>
<pdfrwt beam="2">  1       21 0.28611959E-01 0.11417385E+03</pdfrwt>
<totfact> 0.81119260E+05</totfact>
</mgrwt>
</event>
<event>
 4    1  0.6158309E+003  0.1255717E+03  0.7546771E-02  0.1234179E+00
         21   -1    0    0  504  501  0.00000000000E+00  0.00000000000E+00  0.23565159780E+02  0.23565159780E+02  0.00000000000E+00 0. -1.
         21   -1    0    0  503  502 -0.00000000000E+00 -0.00000000000E+00 -0.10597321134E+04  0.10597321134E+04  0.00000000000E+00 0. -1.
         21    1    1    2  503  501  0.41207441670E+02  0.11861782270E+03 -0.18924329604E+03  0.22711509462E+03  0.00000000000E+00 0. -1.
         21    1    1    2  504  502 -0.41207441670E+02 -0.11861782270E+03 -0.84692365758E+03  0.85618217856E+03  0.00000000000E+00 0. -1.
<mgrwt>
<rscale>  2 0.12557166E+03</rscale>
<asrwt>0</asrwt>
<pdfrwt beam="1">  1       21 0.36254097E-02 0.12557166E+03</pdfrwt>
<pdfrwt beam="2">  1       21 0.16303569E+00 0.12557166E+03</pdfrwt>
<totfact> 0.11435633E+05</totfact>
</mgrwt>
</event>
<event>
 4    1  0.6158309E+003  0.1195282E+03  0.7546771E-02  0.1243877E+00
         21   -1    0    0  504  501  0.00000000000E+00  0.00000000000E+00  0.70639691988E+02  0.70639691988E+02  0.00000000000E+00 0. -1.
         21   -1    0    0  503  502 -0.00000000000E+00 -0.00000000000E+00 -0.61227921758E+03  0.61227921758E+03  0.00000000000E+00 0.  1.
         21    1    1    2  503  501 -0.66032117773E+02  0.99633020561E+02 -0.55024847122E+03  0.56308113043E+03  0.00000000000E+00 0.  1.
         21    1    1    2  504  502  0.66032117773E+02 -0.99633020561E+02  0.86089456311E+01  0.11983777914E+03  0.00000000000E+00 0. -1.
<mgrwt>
<rscale>  2 0.11952815E+03</rscale>
<asrwt>0</asrwt>
<pdfrwt beam="1">  1       21 0.10867644E-01 0.11952815E+03</pdfrwt>
<pdfrwt beam="2">  1       21 0.94196807E-01 0.11952815E+03</pdfrwt>
<totfact> 0.68561567E+04</totfact>
</mgrwt>
</event>
<event>
 4    1  0.6158309E+003  0.1023097E+03  0.7546771E-02  0.1275513E+00
         21   -1    0    0  504  501  0.00000000000E+00  0.00000000000E+00  0.30546279239E+03  0.30546279239E+03  0.00000000000E+00 0.  1.
         21   -1    0    0  501  502 -0.00000000000E+00 -0.00000000000E+00 -0.69136011948E+02  0.69136011948E+02  0.00000000000E+00 0. -1.
         21    1    1    2  503  502  0.48474432836E+02  0.90097169271E+02 -0.14852803988E+02  0.10338218578E+03  0.00000000000E+00 0. -1.
         21    1    1    2  504  503 -0.48474432836E+02 -0.90097169271E+02  0.25117958443E+03  0.27121661856E+03  0.00000000000E+00 0.  1.
<mgrwt>
<rscale>  2 0.10230968E+03</rscale>
<asrwt>0</asrwt>
<pdfrwt beam="1">  1       21 0.46994275E-01 0.10230968E+03</pdfrwt>
<pdfrwt beam="2">  1       21 0.10636310E-01 0.10230968E+03</pdfrwt>
<totfact> 0.32090690E+05</totfact>
</mgrwt>
</event>
<event>
 4    1  0.6158309E+003  0.1193454E+03  0.7546771E-02  0.1244181E+00
         21   -1    0    0  502  501  0.00000000000E+00  0.00000000000E+00  0.27950412670E+03  0.27950412670E+03  0.00000000000E+00 0.  1.
         21   -1    0    0  504  502 -0.00000000000E+00 -0.00000000000E+00 -0.90128583586E+02  0.90128583586E+02  0.00000000000E+00 0.  1.
         21    1    1    2  503  501 -0.93226136992E+02  0.74513117531E+02  0.21652563825E+03  0.24723808227E+03  0.00000000000E+00 0.  1.
         21    1    1    2  504  503  0.93226136992E+02 -0.74513117531E+02 -0.27150095136E+02  0.12239462802E+03  0.00000000000E+00 0.  1.
<mgrwt>
<rscale>  2 0.11934537E+03</rscale>
<asrwt>0</asrwt>
<pdfrwt beam="1">  1       21 0.43000634E-01 0.11934537E+03</pdfrwt>
<pdfrwt beam="2">  1       21 0.13865936E-01 0.11934537E+03</pdfrwt>
<totfact> 0.23958751E+05</totfact>
</mgrwt>
</event>
<event>
 4    1  0.6158309E+003  0.1120423E+03  0.7546771E-02  0.1256834E+00
         21   -1    0    0  504  501  0.00000000000E+00  0.00000000000E+00  0.20256634422E+03  0.20256634422E+03  0.00000000000E+00 0.  1.
         21   -1    0    0  503  502 -0.00000000000E+00 -0.00000000000E+00 -0.71131942452E+02  0.71131942452E+02  0.00000000000E+00 0.  1.
         21    1    1    2  503  501 -0.81470781129E+02  0.76915445473E+02  0.16609192163E+02  0.11326667292E+03  0.00000000000E+00 0.  1.
         21    1    1    2  504  502  0.81470781129E+02 -0.76915445473E+02  0.11482520960E+03  0.16043161375E+03  0.00000000000E+00 0.  1.
<mgrwt>
<rscale>  2 0.11204229E+03</rscale>
<asrwt>0</asrwt>
<pdfrwt beam="1">  1       21 0.31164053E-01 0.11204229E+03</pdfrwt>
<pdfrwt beam="2">  1       21 0.10943376E-01 0.11204229E+03</pdfrwt>
<totfact> 0.68762266E+05</totfact>
</mgrwt>
</event>
<event>
 4    1  0.6158309E+003  0.1037124E+03  0.7546771E-02  0.1272678E+00
         21   -1    0    0  503  501  0.00000000000E+00  0.00000000000E+00  0.13040123204E+03  0.13040123204E+03  0.00000000000E+00 0. -1.
         21   -1    0    0  504  502 -0.00000000000E+00 -0.00000000000E+00 -0.93336920997E+02  0.93336920997E+02  0.00000000000E+00 0. -1.
         21    1    1    2  503  502  0.99171287600E+02  0.30353080372E+02 -0.19611299940E+02  0.10555025750E+03  0.00000000000E+00 0. -1.
         21    1    1    2  504  501 -0.99171287600E+02 -0.30353080372E+02  0.56675610987E+02  0.11818789554E+03  0.00000000000E+00 0. -1.
<mgrwt>
<rscale>  2 0.10371236E+03</rscale>
<asrwt>0</asrwt>
<pdfrwt beam="1">  1       21 0.20061728E-01 0.10371236E+03</pdfrwt>
<pdfrwt beam="2">  1       21 0.14359526E-01 0.10371236E+03</pdfrwt>
<totfact> 0.97338812E+05</totfact>
</mgrwt>
</event>
<event>
 4    1  0.6158309E+003  0.2172876E+03  0.7546771E-02  0.1135922E+00
         21   -1    0    0  504  501  0.00000000000E+00  0.00000000000E+00  0.56605527867E+03  0.56605527867E+03  0.00000000000E+00 0.  1.
         21   -1    0    0  503  502 -0.00000000000E+00 -0.00000000000E+00 -0.25760452779E+03  0.25760452779E+03  0.00000000000E+00 0. -1.
         21    1    1    2  503  501  0.10652868981E+03  0.18938193607E+03  0.49288243118E+03  0.53865292205E+03  0.00000000000E+00 0.  1.
         21    1    1    2  504  502 -0.10652868981E+03 -0.18938193607E+03 -0.18443168030E+03  0.28500688441E+03  0.00000000000E+00 0. -1.
<mgrwt>
<rscale>  2 0.21728755E+03</rscale>
<asrwt>0</asrwt>
<pdfrwt beam="1">  1       21 0.87085427E-01 0.21728755E+03</pdfrwt>
<pdfrwt beam="2">  1       21 0.39631466E-01 0.21728755E+03</pdfrwt>
<totfact> 0.68333503E+03</totfact>
</mgrwt>
</event>
<event>
 4    1  0.6158309E+003  0.1383466E+03  0.7546771E-02  0.1215571E+00
         21   -1    0    0  503  501  0.00000000000E+00  0.00000000000E+00  0.10214842821E+04  0.10214842821E+04  0.00000000000E+00 0. -1.
         21   -1    0    0  504  502 -0.00000000000E+00 -0.00000000000E+00 -0.18747522565E+02  0.18747522565E+02  0.00000000000E+00 0. -1.
         21    1    1    2  503  502  0.12249535809E+03  0.64301312600E+02  0.48917323992E+03  0.50836033501E+03  0.00000000000E+00 0. -1.
         21    1    1    2  504  501 -0.12249535809E+03 -0.64301312600E+02  0.51356351965E+03  0.53187146969E+03  0.00000000000E+00 0. -1.
<mgrwt>
<rscale>  2 0.13834656E+03</rscale>
<asrwt>0</asrwt>
<pdfrwt beam="1">  1       21 0.15715138E+00 0.13834656E+03</pdfrwt>
<pdfrwt beam="2">  1       21 0.28842350E-02 0.13834656E+03</pdfrwt>
<totfact> 0.18254735E+05</totfact>
</mgrwt>
</event>
<event>
 4    1  0.6158309E+003  0.1417694E+03  0.7546771E-02  0.1210968E+00
         21   -1    0    0  504  501  0.00000000000E+00  0.00000000000E+00  0.13404459612E+04  0.13404459612E+04  0.00000000000E+00 0. -1.
         21   -1    0    0  503  502 -0.00000000000E+00 -0.00000000000E+00 -0.15050515282E+02  0.15050515282E+02  0.00000000000E+00 0. -1.
         21    1    1    2  503  501  0.13846514521E+03 -0.30429572167E+02  0.62114135204E+03  0.63711469495E+03  0.00000000000E+00 0. -1.
         21    1    1    2  504  502 -0.13846514521E+03  0.30429572167E+02  0.70425409386E+03  0.71838178152E+03  0.00000000000E+00 0. -1.
<mgrwt>
<rscale>  2 0.14176937E+03</rscale>
<asrwt>0</asrwt>
<pdfrwt beam="1">  1       21 0.20622236E+00 0.14176937E+03</pdfrwt>
<pdfrwt beam="2">  1       21 0.23154649E-02 0.14176937E+03</pdfrwt>
<totfact> 0.12242334E+05</totfact>
</mgrwt>
</event>
<event>
 4    1  0.6158309E+003  0.1056934E+03  0.7546771E-02  0.1268759E+00
         21   -1    0    0  503  501  0.00000000000E+00  0.00000000000E+00  0.57216869062E+02  0.57216869062E+02  0.00000000000E+00 0. -1.
         21   -1    0    0  501  502 -0.00000000000E+00 -0.00000000000E+00 -0.29138762062E+03  0.29138762062E+03  0.00000000000E+00 0.  1.
         21    1    1    2  503  504 -0.35360456465E+02 -0.99602894518E+02 -0.16962419447E+02  0.10704588806E+03  0.00000000000E+00 0. -1.
         21    1    1    2  504  502  0.35360456465E+02  0.99602894518E+02 -0.21720833211E+03  0.24155860162E+03  0.00000000000E+00 0.  1.
<mgrwt>
<rscale>  2 0.10569342E+03</rscale>
<asrwt>0</asrwt>
<pdfrwt beam="1">  1       21 0.88025951E-02 0.10569342E+03</pdfrwt>
<pdfrwt beam="2">  1       21 0.44828866E-01 0.10569342E+03</pdfrwt>
<totfact> 0.49018364E+05</totfact>
</mgrwt>
</event>
<event>
 4    1  0.6158309E+003  0.1024965E+03  0.7546771E-02  0.1275132E+00
         21   -1    0    0  504  501  0.00000000000E+00  0.00000000000E+00  0.92001083632E+03  0.92001083632E+03  0.00000000000E+00 0.  1.
         21   -1    0    0  503  502 -0.00000000000E+00 -0.00000000000E+00 -0.13077465553E+02  0.13077465553E+02  0.00000000000E+00 0.  1.
         21    1    1    2  503  501  0.95621794555E+02  0.36905428205E+02  0.61961406952E+03  0.62803434092E+03  0.00000000000E+00 0.  1.
         21    1    1    2  504  502 -0.95621794555E+02 -0.36905428205E+02  0.28731930125E+03  0.30505396095E+03  0.00000000000E+00 0.  1.
<mgrwt>
<rscale>  2 0.10249653E+03</rscale>
<asrwt>0</asrwt>
<pdfrwt beam="1">  1       21 0.14154008E+00 0.10249653E+03</pdfrwt>
<pdfrwt beam="2">  1       21 0.20119185E-02 0.10249653E+03</pdfrwt>
<totfact> 0.43458011E+05</totfact>
</mgrwt>
</event>
<event>
 4    1  0.6158309E+003  0.2185932E+03  0.7546771E-02  0.1134936E+00
         21   -1    0    0  503  501  0.00000000000E+00  0.00000000000E+00  0.34334997992E+03  0.34334997992E+03  0.00000000000E+00 0.  1.
         21   -1    0    0  504  502 -0.00000000000E+00 -0.00000000000E+00 -0.14696376356E+03  0.14696376356E+03  0.00000000000E+00 0.  1.
         21    1    1    2  503  502 -0.19533802849E+03  0.98112359275E+02  0.15466035673E+03  0.26777379700E+03  0.00000000000E+00 0.  1.
         21    1    1    2  504  501  0.19533802849E+03 -0.98112359275E+02  0.41725859618E+02  0.22253994648E+03  0.00000000000E+00 0.  1.
<mgrwt>
<rscale>  2 0.21859318E+03</rscale>
<asrwt>0</asrwt>
<pdfrwt beam="1">  1       21 0.52823074E-01 0.21859318E+03</pdfrwt>
<pdfrwt beam="2">  1       21 0.22609810E-01 0.21859318E+03</pdfrwt>
<totfact> 0.61538954E+04</totfact>
</mgrwt>
</event>
<event>
 4    1  0.6158309E+003  0.1131446E+03  0.7546771E-02  0.1254855E+00
         21   -1    0    0  503  501  0.00000000000E+00  0.00000000000E+00  0.55244827573E+02  0.55244827573E+02  0.00000000000E+00 0.  1.
         21   -1    0    0  504  502 -0.00000000000E+00 -0.00000000000E+00 -0.30076297402E+03  0.30076297402E+03  0.00000000000E+00 0. -1.
         21    1    1    2  503  502  0.11209259149E+03 -0.15393218250E+02 -0.20804081920E+03  0.23681782595E+03  0.00000000000E+00 0. -1.
         21    1    1    2  504  501 -0.11209259149E+03  0.15393218250E+02 -0.37477327245E+02  0.11918997564E+03  0.00000000000E+00 0.  1.
<mgrwt>
<rscale>  2 0.11314460E+03</rscale>
<asrwt>0</asrwt>
<pdfrwt beam="1">  1       21 0.84992042E-02 0.11314460E+03</pdfrwt>
<pdfrwt beam="2">  1       21 0.46271227E-01 0.11314460E+03</pdfrwt>
<totfact> 0.48814195E+05</totfact>
</mgrwt>
</event>
<event>
 4    1  0.6158309E+003  0.1157051E+03  0.7546771E-02  0.1250355E+00
         21   -1    0    0  503  501  0.00000000000E+00  0.00000000000E+00  0.58858262868E+03  0.58858262868E+03  0.00000000000E+00 0. -1.
         21   -1    0    0  504  502 -0.00000000000E+00 -0.00000000000E+00 -0.19275591643E+03  0.19275591643E+03  0.00000000000E+00 0.  1.
         21    1    1    2  503  502 -0.64600782032E-01 -0.11570504390E+03  0.56480941031E+03  0.57653909784E+03  0.00000000000E+00 0. -1.
         21    1    1    2  504  501  0.64600782032E-01  0.11570504390E+03 -0.16898269807E+03  0.20479944727E+03  0.00000000000E+00 0.  1.
<mgrwt>
<rscale>  2 0.11570506E+03</rscale>
<asrwt>0</asrwt>
<pdfrwt beam="1">  1       21 0.90551173E-01 0.11570506E+03</pdfrwt>
<pdfrwt beam="2">  1       21 0.29654757E-01 0.11570506E+03</pdfrwt>
<totfact> 0.11991115E+04</totfact>
</mgrwt>
</event>
<event>
 4    1  0.6158309E+003  0.1253099E+03  0.7546771E-02  0.1234586E+00
         21   -1    0    0  504  501  0.00000000000E+00  0.00000000000E+00  0.22340505204E+03  0.22340505204E+03  0.00000000000E+00 0.  1.
         21   -1    0    0  503  502 -0.00000000000E+00 -0.00000000000E+00 -0.10194743669E+03  0.10194743669E+03  0.00000000000E+00 0.  1.
         21    1    1    2  503  501  0.12504027232E+03  0.82162158264E+01  0.15138369213E+03  0.19651869669E+03  0.00000000000E+00 0.  1.
         21    1    1    2  504  502 -0.12504027232E+03 -0.82162158264E+01 -0.29926076782E+02  0.12883379205E+03  0.00000000000E+00 0.  1.
<mgrwt>
<rscale>  2 0.12530992E+03</rscale>
<asrwt>0</asrwt>
<pdfrwt beam="1">  1       21 0.34370008E-01 0.12530992E+03</pdfrwt>
<pdfrwt beam="2">  1       21 0.15684221E-01 0.12530992E+03</pdfrwt>
<totfact> 0.29917144E+05</totfact>
</mgrwt>
</event>
<event>
 4    1  0.6158309E+003  0.1658265E+03  0.7546771E-02  0.1182271E+00
         21   -1    0    0  504  501  0.00000000000E+00  0.00000000000E+00  0.24899352792E+02  0.24899352792E+02  0.00000000000E+00 0. -1.
         21   -1    0    0  503  502 -0.00000000000E+00 -0.00000000000E+00 -0.11080748291E+04  0.11080748291E+04  0.00000000000E+00 0. -1.
         21    1    1    2  503  501  0.15647184247E+03  0.54908991888E+02 -0.50889165723E+03  0.53522813237E+03  0.00000000000E+00 0. -1.
         21    1    1    2  504  502 -0.15647184247E+03 -0.54908991888E+02 -0.57428381912E+03  0.59774604957E+03  0.00000000000E+00 0. -1.
<mgrwt>
<rscale>  2 0.16582652E+03</rscale>
<asrwt>0</asrwt>
<pdfrwt beam="1">  1       21 0.38306693E-02 0.16582652E+03</pdfrwt>
<pdfrwt beam="2">  1       21 0.17047306E+00 0.16582652E+03</pdfrwt>
<totfact> 0.90515830E+04</totfact>
</mgrwt>
</event>
<event>
 4    1  0.6158309E+003  0.1373558E+03  0.7546771E-02  0.1216932E+00
         21   -1    0    0  503  501  0.00000000000E+00  0.00000000000E+00  0.74600670962E+03  0.74600670962E+03  0.00000000000E+00 0. -1.
         21   -1    0    0  504  502 -0.00000000000E+00 -0.00000000000E+00 -0.35657912435E+02  0.35657912435E+02  0.00000000000E+00 0.  1.
         21    1    1    2  503  502 -0.94855860111E+02  0.99342692273E+02  0.56591853318E+03  0.58234902842E+03  0.00000000000E+00 0. -1.
         21    1    1    2  504  501  0.94855860111E+02 -0.99342692273E+02  0.14443026400E+03  0.19931559363E+03  0.00000000000E+00 0.  1.
<mgrwt>
<rscale>  2 0.13735576E+03</rscale>
<asrwt>0</asrwt>
<pdfrwt beam="1">  1       21 0.11477025E+00 0.13735576E+03</pdfrwt>
<pdfrwt beam="2">  1       21 0.54858332E-02 0.13735576E+03</pdfrwt>
<totfact> 0.13833385E+05</totfact>
</mgrwt>
</event>
<event>
 4    1  0.6158309E+003  0.1539806E+03  0.7546771E-02  0.1195665E+00
         21   -1    0    0  503  501  0.00000000000E+00  0.00000000000E+00  0.14562701262E+03  0.14562701262E+03  0.00000000000E+00 0. -1.
         21   -1    0    0  504  502 -0.00000000000E+00 -0.00000000000E+00 -0.57508852488E+03  0.57508852488E+03  0.00000000000E+00 0.  1.
         21    1    1    2  503  502  0.67781217393E+02  0.13825965781E+03  0.90381823527E+02  0.17854663378E+03  0.00000000000E+00 0. -1.
         21    1    1    2  504  501 -0.67781217393E+02 -0.13825965781E+03 -0.51984333579E+03  0.54216890373E+03  0.00000000000E+00 0.  1.
<mgrwt>
<rscale>  2 0.15398060E+03</rscale>
<asrwt>0</asrwt>
<pdfrwt beam="1">  1       21 0.22404156E-01 0.15398060E+03</pdfrwt>
<pdfrwt beam="2">  1       21 0.88475156E-01 0.15398060E+03</pdfrwt>
<totfact> 0.20891093E+04</totfact>
</mgrwt>
</event>
<event>
 4    1  0.6158309E+003  0.1114673E+03  0.7546771E-02  0.1257877E+00
         21   -1    0    0  504  501  0.00000000000E+00  0.00000000000E+00  0.32881339910E+02  0.32881339910E+02  0.00000000000E+00 0.  1.
         21   -1    0    0  503  502 -0.00000000000E+00 -0.00000000000E+00 -0.49286359662E+03  0.49286359662E+03  0.00000000000E+00 0.  1.
         21    1    1    2  503  501  0.89431135197E+02 -0.66535866296E+02 -0.10301733102E+03  0.15178115804E+03  0.00000000000E+00 0.  1.
         21    1    1    2  504  502 -0.89431135197E+02  0.66535866296E+02 -0.35696492569E+03  0.37396377848E+03  0.00000000000E+00 0.  1.
<mgrwt>
<rscale>  2 0.11146726E+03</rscale>
<asrwt>0</asrwt>
<pdfrwt beam="1">  1       21 0.50586676E-02 0.11146726E+03</pdfrwt>
<pdfrwt beam="2">  1       21 0.75825169E-01 0.11146726E+03</pdfrwt>
<totfact> 0.41515475E+05</totfact>
</mgrwt>
</event>
<event>
 4    1  0.6158309E+003  0.1403483E+03  0.7546771E-02  0.1212861E+00
         21   -1    0    0  504  501  0.00000000000E+00  0.00000000000E+00  0.60073202579E+02  0.60073202579E+02  0.00000000000E+00 0. -1.
         21   -1    0    0  503  502 -0.00000000000E+00 -0.00000000000E+00 -0.36040386384E+03  0.36040386384E+03  0.00000000000E+00 0. -1.
         21    1    1    2  503  501 -0.44745356959E+02 -0.13302439830E+03 -0.21330840878E+03  0.25533921510E+03  0.00000000000E+00 0. -1.
         21    1    1    2  504  502  0.44745356959E+02  0.13302439830E+03 -0.87022252483E+02  0.16513785132E+03  0.00000000000E+00 0. -1.
<mgrwt>
<rscale>  2 0.14034827E+03</rscale>
<asrwt>0</asrwt>
<pdfrwt beam="1">  1       21 0.92420312E-02 0.14034827E+03</pdfrwt>
<pdfrwt beam="2">  1       21 0.55446748E-01 0.14034827E+03</pdfrwt>
<totfact> 0.28933980E+05</totfact>
</mgrwt>
</event>
<event>
 4    1  0.6158309E+003  0.1186964E+03  0.7546771E-02  0.1245263E+00
         21   -1    0    0  503  501  0.00000000000E+00  0.00000000000E+00  0.18460065829E+03  0.18460065829E+03  0.00000000000E+00 0. -1.
         21   -1    0    0  501  502 -0.00000000000E+00 -0.00000000000E+00 -0.14913899197E+03  0.14913899197E+03  0.00000000000E+00 0. -1.
         21    1    1    2  503  504  0.10892910517E+03  0.47151680176E+02  0.13433197015E+03  0.17925933477E+03  0.00000000000E+00 0. -1.
         21    1    1    2  504  502 -0.10892910517E+03 -0.47151680176E+02 -0.98870303830E+02  0.15448031549E+03  0.00000000000E+00 0. -1.
<mgrwt>
<rscale>  2 0.11869638E+03</rscale>
<asrwt>0</asrwt>
<pdfrwt beam="1">  1       21 0.28400101E-01 0.11869638E+03</pdfrwt>
<pdfrwt beam="2">  1       21 0.22944460E-01 0.11869638E+03</pdfrwt>
<totfact> 0.21543840E+05</totfact>
</mgrwt>
</event>
<event>
 4    1  0.6158309E+003  0.1224829E+03  0.7546771E-02  0.1239056E+00
         21   -1    0    0  504  501  0.00000000000E+00  0.00000000000E+00  0.60272291956E+03  0.60272291956E+03  0.00000000000E+00 0.  1.
         21   -1    0    0  503  502 -0.00000000000E+00 -0.00000000000E+00 -0.29013678005E+02  0.29013678005E+02  0.00000000000E+00 0. -1.
         21    1    1    2  503  501 -0.53597283230E+02  0.11013354012E+03  0.16777936819E+03  0.20773055100E+03  0.00000000000E+00 0. -1.
         21    1    1    2  504  502  0.53597283230E+02 -0.11013354012E+03  0.40592987337E+03  0.42400604657E+03  0.00000000000E+00 0.  1.
<mgrwt>
<rscale>  2 0.12248292E+03</rscale>
<asrwt>0</asrwt>
<pdfrwt beam="1">  1       21 0.92726594E-01 0.12248292E+03</pdfrwt>
<pdfrwt beam="2">  1       21 0.44636432E-02 0.12248292E+03</pdfrwt>
<totfact> 0.32483285E+05</totfact>
</mgrwt>
</event>
<event>
 4    1  0.6158309E+003  0.1616178E+03  0.7546771E-02  0.1186882E+00
         21   -1    0    0  503  501  0.00000000000E+00  0.00000000000E+00  0.15373769634E+03  0.15373769634E+03  0.00000000000E+00 0.  1.
         21   -1    0    0  504  502 -0.00000000000E+00 -0.00000000000E+00 -0.99292085865E+03  0.99292085865E+03  0.00000000000E+00 0. -1.
         21    1    1    2  503  502 -0.61770261580E+02  0.14934776616E+03  0.10238585910E+03  0.19131958764E+03  0.00000000000E+00 0.  1.
         21    1    1    2  504  501  0.61770261580E+02 -0.14934776616E+03 -0.94156902140E+03  0.95533896735E+03  0.00000000000E+00 0. -1.
<mgrwt>
<rscale>  2 0.16161782E+03</rscale>
<asrwt>0</asrwt>
<pdfrwt beam="1">  1       21 0.23651952E-01 0.16161782E+03</pdfrwt>
<pdfrwt beam="2">  1       21 0.15275706E+00 0.16161782E+03</pdfrwt>
<totfact> 0.49320100E+03</totfact>
</mgrwt>
</event>
<event>
 4    1  0.6158309E+003  0.1437166E+03  0.7546771E-02  0.1208414E+00
         21   -1    0    0  503  501  0.00000000000E+00  0.00000000000E+00  0.22165567619E+03  0.22165567619E+03  0.00000000000E+00 0.  1.
         21   -1    0    0  504  502 -0.00000000000E+00 -0.00000000000E+00 -0.19915677394E+03  0.19915677394E+03  0.00000000000E+00 0. -1.
         21    1    1    2  503  502 -0.10915230112E+03 -0.93489166993E+02 -0.14223383581E+03  0.20220018109E+03  0.00000000000E+00 0. -1.
         21    1    1    2  504  501  0.10915230112E+03  0.93489166993E+02  0.16473273806E+03  0.21861226903E+03  0.00000000000E+00 0.  1.
<mgrwt>
<rscale>  2 0.14371656E+03</rscale>
<asrwt>0</asrwt>
<pdfrwt beam="1">  1       21 0.34100874E-01 0.14371656E+03</pdfrwt>
<pdfrwt beam="2">  1       21 0.30639503E-01 0.14371656E+03</pdfrwt>
<totfact> 0.86430838E+04</totfact>
</mgrwt>
</event>
<event>
 4    1  0.6158309E+003  0.1116438E+03  0.7546771E-02  0.1257556E+00
         21   -1    0    0  504  501  0.00000000000E+00  0.00000000000E+00  0.98654341706E+01  0.98654341706E+01  0.00000000000E+00 0. -1.
         21   -1    0    0  503  502 -0.00000000000E+00 -0.00000000000E+00 -0.13543150421E+04  0.13543150421E+04  0.00000000000E+00 0.  1.
         21    1    1    2  503  501 -0.30716091852E+02  0.10733525437E+03 -0.49553309621E+03  0.50795411660E+03  0.00000000000E+00 0. -1.
         21    1    1    2  504  502  0.30716091852E+02 -0.10733525437E+03 -0.84891651169E+03  0.85622635965E+03  0.00000000000E+00 0.  1.
<mgrwt>
<rscale>  2 0.11164379E+03</rscale>
<asrwt>0</asrwt>
<pdfrwt beam="1">  1       21 0.15177597E-02 0.11164379E+03</pdfrwt>
<pdfrwt beam="2">  1       21 0.20835608E+00 0.11164379E+03</pdfrwt>
<totfact> 0.23887053E+05</totfact>
</mgrwt>
</event>
<event>
 4    1  0.6158309E+003  0.1053992E+03  0.7546771E-02  0.1269335E+00
         21   -1    0    0  503  501  0.00000000000E+00  0.00000000000E+00  0.22162949252E+03  0.22162949252E+03  0.00000000000E+00 0.  1.
         21   -1    0    0  504  502 -0.00000000000E+00 -0.00000000000E+00 -0.10247330226E+03  0.10247330226E+03  0.00000000000E+00 0.  1.
         21    1    1    2  503  502 -0.10315751116E+03  0.21622011995E+02  0.17540310906E+03  0.20463439149E+03  0.00000000000E+00 0.  1.
         21    1    1    2  504  501  0.10315751116E+03 -0.21622011995E+02 -0.56246918802E+02  0.11946840330E+03  0.00000000000E+00 0.  1.
<mgrwt>
<rscale>  2 0.10539916E+03</rscale>
<asrwt>0</asrwt>
<pdfrwt beam="1">  1       21 0.34096845E-01 0.10539916E+03</pdfrwt>
<pdfrwt beam="2">  1       21 0.15765123E-01 0.10539916E+03</pdfrwt>
<totfact> 0.30216076E+05</totfact>
</mgrwt>
</event>
<event>
 4    1  0.6158309E+003  0.1030563E+03  0.7546771E-02  0.1273997E+00
         21   -1    0    0  504  501  0.00000000000E+00  0.00000000000E+00  0.43926340056E+03  0.43926340056E+03  0.00000000000E+00 0.  1.
         21   -1    0    0  503  502 -0.00000000000E+00 -0.00000000000E+00 -0.30829199371E+02  0.30829199371E+02  0.00000000000E+00 0.  1.
         21    1    1    2  503  501 -0.87195536920E+02 -0.54932152735E+02  0.31339013943E+03  0.32989995840E+03  0.00000000000E+00 0.  1.
         21    1    1    2  504  502  0.87195536920E+02  0.54932152735E+02  0.95044061760E+02  0.14019264153E+03  0.00000000000E+00 0.  1.
<mgrwt>
<rscale>  2 0.10305631E+03</rscale>
<asrwt>0</asrwt>
<pdfrwt beam="1">  1       21 0.67578980E-01 0.10305631E+03</pdfrwt>
<pdfrwt beam="2">  1       21 0.47429541E-02 0.10305631E+03</pdfrwt>
<totfact> 0.59447263E+05</totfact>
</mgrwt>
</event>
<event>
 4    1  0.6158309E+003  0.1074164E+03  0.7546771E-02  0.1265431E+00
         21   -1    0    0  503  501  0.00000000000E+00  0.00000000000E+00  0.10322219152E+03  0.10322219152E+03  0.00000000000E+00 0. -1.
         21   -1    0    0  504  502 -0.00000000000E+00 -0.00000000000E+00 -0.54754540998E+03  0.54754540998E+03  0.00000000000E+00 0.  1.
         21    1    1    2  503  502  0.87813178523E+01 -0.10705685088E+03 -0.51243801031E+03  0.52357520499E+03  0.00000000000E+00 0.  1.
         21    1    1    2  504  501 -0.87813178523E+01  0.10705685088E+03  0.68114791853E+02  0.12719239652E+03  0.00000000000E+00 0. -1.
<mgrwt>
<rscale>  2 0.10741639E+03</rscale>
<asrwt>0</asrwt>
<pdfrwt beam="1">  1       21 0.15880337E-01 0.10741639E+03</pdfrwt>
<pdfrwt beam="2">  1       21 0.84237756E-01 0.10741639E+03</pdfrwt>
<totfact> 0.45367074E+04</totfact>
</mgrwt>
</event>
<event>
 4    1  0.6158309E+003  0.1078320E+03  0.7546771E-02  0.1264638E+00
         21   -1    0    0  502  501  0.00000000000E+00  0.00000000000E+00  0.29215366136E+02  0.29215366136E+02  0.00000000000E+00 0. -1.
         21   -1    0    0  503  502 -0.00000000000E+00 -0.00000000000E+00 -0.73598051003E+03  0.73598051003E+03  0.00000000000E+00 0.  1.
         21    1    1    2  503  504  0.10398861561E+03 -0.28532606704E+02 -0.61265403768E+03  0.62207130758E+03  0.00000000000E+00 0.  1.
         21    1    1    2  504  501 -0.10398861561E+03  0.28532606704E+02 -0.94111106212E+02  0.14312456859E+03  0.00000000000E+00 0. -1.
<mgrwt>
<rscale>  2 0.10783201E+03</rscale>
<asrwt>0</asrwt>
<pdfrwt beam="1">  1       21 0.44946713E-02 0.10783201E+03</pdfrwt>
<pdfrwt beam="2">  1       21 0.11322778E+00 0.10783201E+03</pdfrwt>
<totfact> 0.20189912E+05</totfact>
</mgrwt>
</event>
<event>
 4    1  0.6158309E+003  0.1597818E+03  0.7546771E-02  0.1188943E+00
         21   -1    0    0  504  501  0.00000000000E+00  0.00000000000E+00  0.77668566286E+03  0.77668566286E+03  0.00000000000E+00 0. -1.
         21   -1    0    0  503  502 -0.00000000000E+00 -0.00000000000E+00 -0.32991215072E+02  0.32991215072E+02  0.00000000000E+00 0. -1.
         21    1    1    2  503  501 -0.82127965712E+02 -0.13705920565E+03  0.34738250754E+03  0.38236740859E+03  0.00000000000E+00 0. -1.
         21    1    1    2  504  502  0.82127965712E+02  0.13705920565E+03  0.39631194025E+03  0.42730946934E+03  0.00000000000E+00 0. -1.
<mgrwt>
<rscale>  2 0.15978182E+03</rscale>
<asrwt>0</asrwt>
<pdfrwt beam="1">  1       21 0.11949009E+00 0.15978182E+03</pdfrwt>
<pdfrwt beam="2">  1       21 0.50755721E-02 0.15978182E+03</pdfrwt>
<totfact> 0.14183308E+05</totfact>
</mgrwt>
</event>
<event>
 4    1  0.6158309E+003  0.1254291E+03  0.7546771E-02  0.1234400E+00
         21   -1    0    0  503  501  0.00000000000E+00  0.00000000000E+00  0.46788223099E+03  0.46788223099E+03  0.00000000000E+00 0.  1.
         21   -1    0    0  504  502 -0.00000000000E+00 -0.00000000000E+00 -0.36664653314E+02  0.36664653314E+02  0.00000000000E+00 0. -1.
         21    1    1    2  503  502  0.12339388934E+03  0.22503617741E+02  0.14296955383E+03  0.19019137220E+03  0.00000000000E+00 0. -1.
         21    1    1    2  504  501 -0.12339388934E+03 -0.22503617741E+02  0.28824802384E+03  0.31435551210E+03  0.00000000000E+00 0.  1.
<mgrwt>
<rscale>  2 0.12542912E+03</rscale>
<asrwt>0</asrwt>
<pdfrwt beam="1">  1       21 0.71981878E-01 0.12542912E+03</pdfrwt>
<pdfrwt beam="2">  1       21 0.56407162E-02 0.12542912E+03</pdfrwt>
<totfact> 0.38666352E+05</totfact>
</mgrwt>
</event>
<event>
 4    1  0.6158309E+003  0.1294912E+03  0.7546771E-02  0.1228213E+00
         21   -1    0    0  503  501  0.00000000000E+00  0.00000000000E+00  0.21422278798E+03  0.21422278798E+03  0.00000000000E+00 0. -1.
         21   -1    0    0  504  502 -0.00000000000E+00 -0.00000000000E+00 -0.78284082014E+02  0.78284082014E+02  0.00000000000E+00 0. -1.
         21    1    1    2  503  502 -0.69701020050E+02  0.10913176605E+03  0.69667074082E+02  0.14704242846E+03  0.00000000000E+00 0. -1.
         21    1    1    2  504  501  0.69701020050E+02 -0.10913176605E+03  0.66271631885E+02  0.14546444153E+03  0.00000000000E+00 0. -1.
<mgrwt>
<rscale>  2 0.12949121E+03</rscale>
<asrwt>0</asrwt>
<pdfrwt beam="1">  1       21 0.32957352E-01 0.12949121E+03</pdfrwt>
<pdfrwt beam="2">  1       21 0.12043705E-01 0.12949121E+03</pdfrwt>
<totfact> 0.52074494E+05</totfact>
</mgrwt>
</event>
<event>
 4    1  0.6158309E+003  0.1138751E+03  0.7546771E-02  0.1253558E+00
         21   -1    0    0  503  501  0.00000000000E+00  0.00000000000E+00  0.19834562328E+03  0.19834562328E+03  0.00000000000E+00 0. -1.
         21   -1    0    0  504  502 -0.00000000000E+00 -0.00000000000E+00 -0.78873216066E+02  0.78873216066E+02  0.00000000000E+00 0. -1.
         21    1    1    2  503  502 -0.42826920392E+02 -0.10551488618E+03  0.24024876187E+01  0.11390043135E+03  0.00000000000E+00 0. -1.
         21    1    1    2  504  501  0.42826920392E+02  0.10551488618E+03  0.11706991959E+03  0.16331840799E+03  0.00000000000E+00 0. -1.
<mgrwt>
<rscale>  2 0.11387509E+03</rscale>
<asrwt>0</asrwt>
<pdfrwt beam="1">  1       21 0.30514711E-01 0.11387509E+03</pdfrwt>
<pdfrwt beam="2">  1       21 0.12134341E-01 0.11387509E+03</pdfrwt>
<totfact> 0.59702486E+05</totfact>
</mgrwt>
</event>
<event>
 4    1  0.6158309E+003  0.1054155E+03  0.7546771E-02  0.1269303E+00
         21   -1    0    0  503  501  0.00000000000E+00  0.00000000000E+00  0.22070297725E+03  0.22070297725E+03  0.00000000000E+00 0. -1.
         21   -1    0    0  504  502 -0.00000000000E+00 -0.00000000000E+00 -0.57184972290E+02  0.57184972290E+02  0.00000000000E+00 0. -1.
         21    1    1    2  503  502 -0.62306202884E+02 -0.85031541245E+02  0.33723462744E+02  0.11067835318E+03  0.00000000000E+00 0. -1.
         21    1    1    2  504  501  0.62306202884E+02  0.85031541245E+02  0.12979454222E+03  0.16720959636E+03  0.00000000000E+00 0. -1.
<mgrwt>
<rscale>  2 0.10541549E+03</rscale>
<asrwt>0</asrwt>
<pdfrwt beam="1">  1       21 0.33954304E-01 0.10541549E+03</pdfrwt>
<pdfrwt beam="2">  1       21 0.87976882E-02 0.10541549E+03</pdfrwt>
<totfact> 0.85091740E+05</totfact>
</mgrwt>
</event>
<event>
 4    1  0.6158309E+003  0.1380956E+03  0.7546771E-02  0.1215915E+00
         21   -1    0    0  504  501  0.00000000000E+00  0.00000000000E+00  0.73414281397E+02  0.73414281397E+02  0.00000000000E+00 0. -1.
         21   -1    0    0  501  502 -0.00000000000E+00 -0.00000000000E+00 -0.94399769288E+03  0.94399769288E+03  0.00000000000E+00 0.  1.
         21    1    1    2  503  502  0.13738859081E+03 -0.13955813242E+02 -0.86838713554E+03  0.87929892914E+03  0.00000000000E+00 0.  1.
         21    1    1    2  504  503 -0.13738859081E+03  0.13955813242E+02 -0.21962759403E+01  0.13811304514E+03  0.00000000000E+00 0. -1.
<mgrwt>
<rscale>  2 0.13809558E+03</rscale>
<asrwt>0</asrwt>
<pdfrwt beam="1">  1       21 0.11294506E-01 0.13809558E+03</pdfrwt>
<pdfrwt beam="2">  1       21 0.14523040E+00 0.13809558E+03</pdfrwt>
<totfact> 0.22106436E+04</totfact>
</mgrwt>
</event>
<event>
 4    1  0.6158309E+003  0.2430928E+03  0.7546771E-02  0.1117749E+00
         21   -1    0    0  503  501  0.00000000000E+00  0.00000000000E+00  0.31124093588E+03  0.31124093588E+03  0.00000000000E+00 0.  1.
         21   -1    0    0  504  502 -0.00000000000E+00 -0.00000000000E+00 -0.21521964043E+03  0.21521964043E+03  0.00000000000E+00 0.  1.
         21    1    1    2  503  502  0.23712883684E+03  0.53516802626E+02  0.13835757126E+03  0.27970868944E+03  0.00000000000E+00 0.  1.
         21    1    1    2  504  501 -0.23712883684E+03 -0.53516802626E+02 -0.42336275815E+02  0.24675188687E+03  0.00000000000E+00 0.  1.
<mgrwt>
<rscale>  2 0.24309285E+03</rscale>
<asrwt>0</asrwt>
<pdfrwt beam="1">  1       21 0.47883221E-01 0.24309285E+03</pdfrwt>
<pdfrwt beam="2">  1       21 0.33110714E-01 0.24309285E+03</pdfrwt>
<totfact> 0.35722190E+04</totfact>
</mgrwt>
</event>
<event>
 4    1  0.6158309E+003  0.1433827E+03  0.7546771E-02  0.1208848E+00
         21   -1    0    0  504  501  0.00000000000E+00  0.00000000000E+00  0.56652573194E+03  0.56652573194E+03  0.00000000000E+00 0. -1.
         21   -1    0    0  501  502 -0.00000000000E+00 -0.00000000000E+00 -0.60847034337E+02  0.60847034337E+02  0.00000000000E+00 0. -1.
         21    1    1    2  503  502 -0.13142057514E+03 -0.57334373184E+02  0.53554808770E+02  0.15305788271E+03  0.00000000000E+00 0. -1.
         21    1    1    2  504  503  0.13142057514E+03  0.57334373184E+02  0.45212388883E+03  0.47431488356E+03  0.00000000000E+00 0. -1.
<mgrwt>
<rscale>  2 0.14338270E+03</rscale>
<asrwt>0</asrwt>
<pdfrwt beam="1">  1       21 0.87157802E-01 0.14338270E+03</pdfrwt>
<pdfrwt beam="2">  1       21 0.93610825E-02 0.14338270E+03</pdfrwt>
<totfact> 0.10518808E+05</totfact>
</mgrwt>
</event>
<event>
 4    1  0.6158309E+003  0.1830935E+03  0.7546771E-02  0.1164842E+00
         21   -1    0    0  504  501  0.00000000000E+00  0.00000000000E+00  0.17072223616E+03  0.17072223616E+03  0.00000000000E+00 0. -1.
         21   -1    0    0  503  502 -0.00000000000E+00 -0.00000000000E+00 -0.22171644140E+03  0.22171644140E+03  0.00000000000E+00 0.  1.
         21    1    1    2  503  501  0.17808653732E+03 -0.42525452552E+02  0.40858323972E+02  0.18759699232E+03  0.00000000000E+00 0. -1.
         21    1    1    2  504  502 -0.17808653732E+03  0.42525452552E+02 -0.91852529209E+02  0.20484168524E+03  0.00000000000E+00 0.  1.
<mgrwt>
<rscale>  2 0.18309350E+03</rscale>
<asrwt>0</asrwt>
<pdfrwt beam="1">  1       21 0.26264959E-01 0.18309350E+03</pdfrwt>
<pdfrwt beam="2">  1       21 0.34110222E-01 0.18309350E+03</pdfrwt>
<totfact> 0.11451691E+05</totfact>
</mgrwt>
</event>
<event>
 4    1  0.6158309E+003  0.1161355E+03  0.7546771E-02  0.1249612E+00
         21   -1    0    0  504  501  0.00000000000E+00  0.00000000000E+00  0.22237982100E+03  0.22237982100E+03  0.00000000000E+00 0. -1.
         21   -1    0    0  503  502 -0.00000000000E+00 -0.00000000000E+00 -0.64663962808E+02  0.64663962808E+02  0.00000000000E+00 0.  1.
         21    1    1    2  503  501 -0.39040621348E+02  0.10937675929E+03  0.43102084683E+02  0.12387588664E+03  0.00000000000E+00 0.  1.
         21    1    1    2  504  502  0.39040621348E+02 -0.10937675929E+03  0.11461377351E+03  0.16316789717E+03  0.00000000000E+00 0. -1.
<mgrwt>
<rscale>  2 0.11613546E+03</rscale>
<asrwt>0</asrwt>
<pdfrwt beam="1">  1       21 0.34212280E-01 0.11613546E+03</pdfrwt>
<pdfrwt beam="2">  1       21 0.99483021E-02 0.11613546E+03</pdfrwt>
<totfact> 0.67774149E+05</totfact>
</mgrwt>
</event>
<event>
 4    1  0.6158309E+003  0.1438983E+03  0.7546771E-02  0.1208178E+00
         21   -1    0    0  504  501  0.00000000000E+00  0.00000000000E+00  0.82355061471E+02  0.82355061471E+02  0.00000000000E+00 0.  1.
         21   -1    0    0  501  502 -0.00000000000E+00 -0.00000000000E+00 -0.34298697670E+03  0.34298697670E+03  0.00000000000E+00 0.  1.
         21    1    1    2  503  502 -0.78604517828E+02  0.12053240465E+03 -0.24019364890E+03  0.27999949958E+03  0.00000000000E+00 0.  1.
         21    1    1    2  504  503  0.78604517828E+02 -0.12053240465E+03 -0.20438266324E+02  0.14534253859E+03  0.00000000000E+00 0.  1.
<mgrwt>
<rscale>  2 0.14389833E+03</rscale>
<asrwt>0</asrwt>
<pdfrwt beam="1">  1       21 0.12670009E-01 0.14389833E+03</pdfrwt>
<pdfrwt beam="2">  1       21 0.52767228E-01 0.14389833E+03</pdfrwt>
<totfact> 0.18386057E+05</totfact>
</mgrwt>
</event>
<event>
 4    1  0.6158309E+003  0.1132420E+03  0.7546771E-02  0.1254681E+00
         21   -1    0    0  502  501  0.00000000000E+00  0.00000000000E+00  0.11514199288E+03  0.11514199288E+03  0.00000000000E+00 0.  1.
         21   -1    0    0  504  502 -0.00000000000E+00 -0.00000000000E+00 -0.51197961720E+03  0.51197961720E+03  0.00000000000E+00 0.  1.
         21    1    1    2  503  501  0.80467669675E+02  0.79678779235E+02  0.78947865661E+02  0.13804535203E+03  0.00000000000E+00 0.  1.
         21    1    1    2  504  503 -0.80467669675E+02 -0.79678779235E+02 -0.47578548998E+03  0.48907625806E+03  0.00000000000E+00 0.  1.
<mgrwt>
<rscale>  2 0.11324201E+03</rscale>
<asrwt>0</asrwt>
<pdfrwt beam="1">  1       21 0.17714152E-01 0.11324201E+03</pdfrwt>
<pdfrwt beam="2">  1       21 0.78766098E-01 0.11324201E+03</pdfrwt>
<totfact> 0.43062000E+04</totfact>
</mgrwt>
</event>
<event>
 4    1  0.6158309E+003  0.1187936E+03  0.7546771E-02  0.1245101E+00
         21   -1    0    0  503  501  0.00000000000E+00  0.00000000000E+00  0.16993135281E+03  0.16993135281E+03  0.00000000000E+00 0.  1.
         21   -1    0    0  501  502 -0.00000000000E+00 -0.00000000000E+00 -0.17280643960E+03  0.17280643960E+03  0.00000000000E+00 0.  1.
         21    1    1    2  503  504 -0.15926853861E+02 -0.11772105071E+03  0.12207114063E+03  0.17033283250E+03  0.00000000000E+00 0.  1.
         21    1    1    2  504  502  0.15926853861E+02  0.11772105071E+03 -0.12494622742E+03  0.17240495991E+03  0.00000000000E+00 0.  1.
<mgrwt>
<rscale>  2 0.11879356E+03</rscale>
<asrwt>0</asrwt>
<pdfrwt beam="1">  1       21 0.26143285E-01 0.11879356E+03</pdfrwt>
<pdfrwt beam="2">  1       21 0.26585606E-01 0.11879356E+03</pdfrwt>
<totfact> 0.19111311E+05</totfact>
</mgrwt>
</event>
<event>
 4    1  0.6158309E+003  0.1243248E+03  0.7546771E-02  0.1236128E+00
         21   -1    0    0  504  501  0.00000000000E+00  0.00000000000E+00  0.53736737373E+02  0.53736737373E+02  0.00000000000E+00 0.  1.
         21   -1    0    0  503  502 -0.00000000000E+00 -0.00000000000E+00 -0.11601262984E+04  0.11601262984E+04  0.00000000000E+00 0.  1.
         21    1    1    2  503  501  0.23784089942E+02  0.12202861738E+03 -0.26853849474E+02  0.12719196369E+03  0.00000000000E+00 0.  1.
         21    1    1    2  504  502 -0.23784089942E+02 -0.12202861738E+03 -0.10795357116E+04  0.10866710721E+04  0.00000000000E+00 0.  1.
<mgrwt>
<rscale>  2 0.12432484E+03</rscale>
<asrwt>0</asrwt>
<pdfrwt beam="1">  1       21 0.82671901E-02 0.12432484E+03</pdfrwt>
<pdfrwt beam="2">  1       21 0.17848098E+00 0.12432484E+03</pdfrwt>
<totfact> 0.22301908E+04</totfact>
</mgrwt>
</event>
<event>
 4    1  0.6158309E+003  0.1725023E+03  0.7546771E-02  0.1175263E+00
         21   -1    0    0  504  501  0.00000000000E+00  0.00000000000E+00  0.18187651513E+04  0.18187651513E+04  0.00000000000E+00 0. -1.
         21   -1    0    0  503  502 -0.00000000000E+00 -0.00000000000E+00 -0.18844909973E+02  0.18844909973E+02  0.00000000000E+00 0. -1.
         21    1    1    2  503  501  0.16919511466E+03  0.33616530154E+02  0.56639344365E+03  0.59207988560E+03  0.00000000000E+00 0. -1.
         21    1    1    2  504  502 -0.16919511466E+03 -0.33616530154E+02  0.12335267977E+04  0.12455301757E+04  0.00000000000E+00 0. -1.
<mgrwt>
<rscale>  2 0.17250234E+03</rscale>
<asrwt>0</asrwt>
<pdfrwt beam="1">  1       21 0.27980989E+00 0.17250234E+03</pdfrwt>
<pdfrwt beam="2">  1       21 0.28992183E-02 0.17250234E+03</pdfrwt>
<totfact> 0.30441128E+04</totfact>
</mgrwt>
</event>
<event>
 4    1  0.6158309E+003  0.1212969E+03  0.7546771E-02  0.1240973E+00
         21   -1    0    0  504  501  0.00000000000E+00  0.00000000000E+00  0.78812765029E+03  0.78812765029E+03  0.00000000000E+00 0. -1.
         21   -1    0    0  503  502 -0.00000000000E+00 -0.00000000000E+00 -0.13574435423E+03  0.13574435423E+03  0.00000000000E+00 0.  1.
         21    1    1    2  503  501  0.99970335701E+02 -0.68693949141E+02  0.75518952484E+03  0.76486871102E+03  0.00000000000E+00 0. -1.
         21    1    1    2  504  502 -0.99970335701E+02  0.68693949141E+02 -0.10280622878E+03  0.15900329350E+03  0.00000000000E+00 0.  1.
<mgrwt>
<rscale>  2 0.12129685E+03</rscale>
<asrwt>0</asrwt>
<pdfrwt beam="1">  1       21 0.12125040E+00 0.12129685E+03</pdfrwt>
<pdfrwt beam="2">  1       21 0.20883747E-01 0.12129685E+03</pdfrwt>
<totfact> 0.11605091E+04</totfact>
</mgrwt>
</event>
<event>
 4    1  0.6158309E+003  0.1203196E+03  0.7546771E-02  0.1242571E+00
         21   -1    0    0  503  501  0.00000000000E+00  0.00000000000E+00  0.19311231070E+03  0.19311231070E+03  0.00000000000E+00 0. -1.
         21   -1    0    0  504  502 -0.00000000000E+00 -0.00000000000E+00 -0.25423456704E+03  0.25423456704E+03  0.00000000000E+00 0.  1.
         21    1    1    2  503  502 -0.31070653136E+02  0.11623859813E+03 -0.21838447157E+03  0.24933626813E+03  0.00000000000E+00 0.  1.
         21    1    1    2  504  501  0.31070653136E+02 -0.11623859813E+03  0.15726221523E+03  0.19801060962E+03  0.00000000000E+00 0. -1.
<mgrwt>
<rscale>  2 0.12031956E+03</rscale>
<asrwt>0</asrwt>
<pdfrwt beam="1">  1       21 0.29709586E-01 0.12031956E+03</pdfrwt>
<pdfrwt beam="2">  1       21 0.39113010E-01 0.12031956E+03</pdfrwt>
<totfact> 0.70700539E+04</totfact>
</mgrwt>
</event>
<event>
 4    1  0.6158309E+003  0.1499579E+03  0.7546771E-02  0.1200525E+00
         21   -1    0    0  504  501  0.00000000000E+00  0.00000000000E+00  0.16645422639E+03  0.16645422639E+03  0.00000000000E+00 0.  1.
         21   -1    0    0  503  502 -0.00000000000E+00 -0.00000000000E+00 -0.13656663523E+03  0.13656663523E+03  0.00000000000E+00 0.  1.
         21    1    1    2  503  501  0.46555340560E+02 -0.14254818359E+03 -0.77603995468E+00  0.14995995004E+03  0.00000000000E+00 0.  1.
         21    1    1    2  504  502 -0.46555340560E+02  0.14254818359E+03  0.30663631117E+02  0.15306091157E+03  0.00000000000E+00 0.  1.
<mgrwt>
<rscale>  2 0.14995794E+03</rscale>
<asrwt>0</asrwt>
<pdfrwt beam="1">  1       21 0.25608343E-01 0.14995794E+03</pdfrwt>
<pdfrwt beam="2">  1       21 0.21010252E-01 0.14995794E+03</pdfrwt>
<totfact> 0.30733725E+05</totfact>
</mgrwt>
</event>
<event>
 4    1  0.6158309E+003  0.1083552E+03  0.7546771E-02  0.1263646E+00
         21   -1    0    0  502  501  0.00000000000E+00  0.00000000000E+00  0.22368226856E+03  0.22368226856E+03  0.00000000000E+00 0. -1.
         21   -1    0    0  503  502 -0.00000000000E+00 -0.00000000000E+00 -0.52835928195E+02  0.52835928195E+02  0.00000000000E+00 0. -1.
         21    1    1    2  503  504 -0.99148755914E+02  0.43707932804E+02  0.74219838776E+02  0.13133713739E+03  0.00000000000E+00 0. -1.
         21    1    1    2  504  501  0.99148755914E+02 -0.43707932804E+02  0.96626501587E+02  0.14518105936E+03  0.00000000000E+00 0. -1.
<mgrwt>
<rscale>  2 0.10835525E+03</rscale>
<asrwt>0</asrwt>
<pdfrwt beam="1">  1       21 0.34412656E-01 0.10835525E+03</pdfrwt>
<pdfrwt beam="2">  1       21 0.81286044E-02 0.10835525E+03</pdfrwt>
<totfact> 0.95021148E+05</totfact>
</mgrwt>
</event>
<event>
 4    1  0.6158309E+003  0.1345291E+03  0.7546771E-02  0.1220886E+00
         21   -1    0    0  502  501  0.00000000000E+00  0.00000000000E+00  0.17866145849E+03  0.17866145849E+03  0.00000000000E+00 0. -1.
         21   -1    0    0  503  502 -0.00000000000E+00 -0.00000000000E+00 -0.17412060302E+03  0.17412060302E+03  0.00000000000E+00 0. -1.
         21    1    1    2  503  504  0.13153530005E+03 -0.28223000458E+02 -0.11180289906E+03  0.17492272909E+03  0.00000000000E+00 0. -1.
         21    1    1    2  504  501 -0.13153530005E+03  0.28223000458E+02  0.11634375452E+03  0.17785933242E+03  0.00000000000E+00 0. -1.
<mgrwt>
<rscale>  2 0.13452908E+03</rscale>
<asrwt>0</asrwt>
<pdfrwt beam="1">  1       21 0.27486378E-01 0.13452908E+03</pdfrwt>
<pdfrwt beam="2">  1       21 0.26787785E-01 0.13452908E+03</pdfrwt>
<totfact> 0.17048861E+05</totfact>
</mgrwt>
</event>
<event>
 4    1  0.6158309E+003  0.1244428E+03  0.7546771E-02  0.1235943E+00
         21   -1    0    0  503  501  0.00000000000E+00  0.00000000000E+00  0.10411959848E+04  0.10411959848E+04  0.00000000000E+00 0.  1.
         21   -1    0    0  504  502 -0.00000000000E+00 -0.00000000000E+00 -0.16717122920E+02  0.16717122920E+02  0.00000000000E+00 0.  1.
         21    1    1    2  503  502 -0.11516377046E+03  0.47151941776E+02  0.68791087425E+03  0.69907608352E+03  0.00000000000E+00 0.  1.
         21    1    1    2  504  501  0.11516377046E+03 -0.47151941776E+02  0.33656798761E+03  0.35883702418E+03  0.00000000000E+00 0.  1.
<mgrwt>
<rscale>  2 0.12444276E+03</rscale>
<asrwt>0</asrwt>
<pdfrwt beam="1">  1       21 0.16018395E+00 0.12444276E+03</pdfrwt>
<pdfrwt beam="2">  1       21 0.25718659E-02 0.12444276E+03</pdfrwt>
<totfact> 0.21057877E+05</totfact>
</mgrwt>
</event>
<event>
 4    1  0.6158309E+003  0.1485592E+03  0.7546771E-02  0.1202255E+00
         21   -1    0    0  503  501  0.00000000000E+00  0.00000000000E+00  0.89729061954E+03  0.89729061954E+03  0.00000000000E+00 0.  1.
         21   -1    0    0  504  502 -0.00000000000E+00 -0.00000000000E+00 -0.86445829493E+02  0.86445829493E+02  0.00000000000E+00 0. -1.
         21    1    1    2  503  502 -0.13422088342E+03  0.63675611073E+02  0.82147258828E+03  0.83479760558E+03  0.00000000000E+00 0.  1.
         21    1    1    2  504  501  0.13422088342E+03 -0.63675611073E+02 -0.10627798238E+02  0.14893884344E+03  0.00000000000E+00 0. -1.
<mgrwt>
<rscale>  2 0.14855918E+03</rscale>
<asrwt>0</asrwt>
<pdfrwt beam="1">  1       21 0.13804470E+00 0.14855918E+03</pdfrwt>
<pdfrwt beam="2">  1       21 0.13299359E-01 0.14855918E+03</pdfrwt>
<totfact> 0.18676313E+04</totfact>
</mgrwt>
</event>
<event>
 4    1  0.6158309E+003  0.1213574E+03  0.7546771E-02  0.1240874E+00
         21   -1    0    0  504  501  0.00000000000E+00  0.00000000000E+00  0.16340170419E+03  0.16340170419E+03  0.00000000000E+00 0.  1.
         21   -1    0    0  503  502 -0.00000000000E+00 -0.00000000000E+00 -0.11124668733E+04  0.11124668733E+04  0.00000000000E+00 0. -1.
         21    1    1    2  503  501 -0.21793939649E+02 -0.11938441826E+03 -0.10860785838E+04  0.10928377306E+04  0.00000000000E+00 0. -1.
         21    1    1    2  504  502  0.21793939649E+02  0.11938441826E+03  0.13701341469E+03  0.18303084694E+03  0.00000000000E+00 0.  1.
<mgrwt>
<rscale>  2 0.12135739E+03</rscale>
<asrwt>0</asrwt>
<pdfrwt beam="1">  1       21 0.25138724E-01 0.12135739E+03</pdfrwt>
<pdfrwt beam="2">  1       21 0.17114875E+00 0.12135739E+03</pdfrwt>
<totfact> 0.33945093E+03</totfact>
</mgrwt>
</event>
<event>
 4    1  0.6158309E+003  0.1077618E+03  0.7546771E-02  0.1264772E+00
         21   -1    0    0  504  501  0.00000000000E+00  0.00000000000E+00  0.40372113040E+02  0.40372113040E+02  0.00000000000E+00 0.  1.
         21   -1    0    0  503  502 -0.00000000000E+00 -0.00000000000E+00 -0.34801219034E+03  0.34801219034E+03  0.00000000000E+00 0.  1.
         21    1    1    2  503  501 -0.45312410111E+02  0.97772124033E+02 -0.23470275889E+03  0.25825953570E+03  0.00000000000E+00 0.  1.
         21    1    1    2  504  502  0.45312410111E+02 -0.97772124033E+02 -0.72937318415E+02  0.13012476769E+03  0.00000000000E+00 0.  1.
<mgrwt>
<rscale>  2 0.10776179E+03</rscale>
<asrwt>0</asrwt>
<pdfrwt beam="1">  1       21 0.62110942E-02 0.10776179E+03</pdfrwt>
<pdfrwt beam="2">  1       21 0.53540338E-01 0.10776179E+03</pdfrwt>
<totfact> 0.61828543E+05</totfact>
</mgrwt>
</event>
<event>
 4    1  0.6158309E+003  0.1082053E+03  0.7546771E-02  0.1263930E+00
         21   -1    0    0  504  501  0.00000000000E+00  0.00000000000E+00  0.36510761679E+03  0.36510761679E+03  0.00000000000E+00 0. -1.
         21   -1    0    0  503  502 -0.00000000000E+00 -0.00000000000E+00 -0.21846004881E+03  0.21846004881E+03  0.00000000000E+00 0. -1.
         21    1    1    2  503  501 -0.10642272412E+03 -0.19560041961E+02  0.34284224524E+03  0.35951244286E+03  0.00000000000E+00 0. -1.
         21    1    1    2  504  502  0.10642272412E+03  0.19560041961E+02 -0.19619467726E+03  0.22405522274E+03  0.00000000000E+00 0. -1.
<mgrwt>
<rscale>  2 0.10820532E+03</rscale>
<asrwt>0</asrwt>
<pdfrwt beam="1">  1       21 0.56170402E-01 0.10820532E+03</pdfrwt>
<pdfrwt beam="2">  1       21 0.33609238E-01 0.10820532E+03</pdfrwt>
<totfact> 0.26851274E+04</totfact>
</mgrwt>
</event>
<event>
 4    1  0.6158309E+003  0.1223335E+03  0.7546771E-02  0.1239296E+00
         21   -1    0    0  503  501  0.00000000000E+00  0.00000000000E+00  0.12616521395E+03  0.12616521395E+03  0.00000000000E+00 0.  1.
         21   -1    0    0  504  502 -0.00000000000E+00 -0.00000000000E+00 -0.52873064422E+03  0.52873064422E+03  0.00000000000E+00 0. -1.
         21    1    1    2  503  502 -0.27832644876E+02  0.11912523345E+03  0.87104854005E+02  0.15017567365E+03  0.00000000000E+00 0.  1.
         21    1    1    2  504  501  0.27832644876E+02 -0.11912523345E+03 -0.48967028427E+03  0.50472018452E+03  0.00000000000E+00 0. -1.
<mgrwt>
<rscale>  2 0.12233347E+03</rscale>
<asrwt>0</asrwt>
<pdfrwt beam="1">  1       21 0.19410033E-01 0.12233347E+03</pdfrwt>
<pdfrwt beam="2">  1       21 0.81343176E-01 0.12233347E+03</pdfrwt>
<totfact> 0.33693178E+04</totfact>
</mgrwt>
</event>
<event>
 4    1  0.6158309E+003  0.1131992E+03  0.7546771E-02  0.1254757E+00
         21   -1    0    0  503  501  0.00000000000E+00  0.00000000000E+00  0.28965966689E+03  0.28965966689E+03  0.00000000000E+00 0.  1.
         21   -1    0    0  504  502 -0.00000000000E+00 -0.00000000000E+00 -0.19736280483E+03  0.19736280483E+03  0.00000000000E+00 0.  1.
         21    1    1    2  503  502 -0.10677772943E+03  0.37584389317E+02 -0.16834233894E+03  0.20286254682E+03  0.00000000000E+00 0.  1.
         21    1    1    2  504  501  0.10677772943E+03 -0.37584389317E+02  0.26063920100E+03  0.28415992490E+03  0.00000000000E+00 0.  1.
<mgrwt>
<rscale>  2 0.11319925E+03</rscale>
<asrwt>0</asrwt>
<pdfrwt beam="1">  1       21 0.44563026E-01 0.11319925E+03</pdfrwt>
<pdfrwt beam="2">  1       21 0.30363509E-01 0.11319925E+03</pdfrwt>
<totfact> 0.52401555E+04</totfact>
</mgrwt>
</event>
<event>
 4    1  0.6158309E+003  0.1246057E+03  0.7546771E-02  0.1235687E+00
         21   -1    0    0  502  501  0.00000000000E+00  0.00000000000E+00  0.25334334828E+03  0.25334334828E+03  0.00000000000E+00 0.  1.
         21   -1    0    0  503  502 -0.00000000000E+00 -0.00000000000E+00 -0.66239025038E+02  0.66239025038E+02  0.00000000000E+00 0.  1.
         21    1    1    2  503  504 -0.55359700166E+01 -0.12448267323E+03  0.49860401424E+02  0.13421118630E+03  0.00000000000E+00 0.  1.
         21    1    1    2  504  501  0.55359700166E+01  0.12448267323E+03  0.13724392181E+03  0.18537118701E+03  0.00000000000E+00 0.  1.
<mgrwt>
<rscale>  2 0.12460571E+03</rscale>
<asrwt>0</asrwt>
<pdfrwt beam="1">  1       21 0.38975899E-01 0.12460571E+03</pdfrwt>
<pdfrwt beam="2">  1       21 0.10190619E-01 0.12460571E+03</pdfrwt>
<totfact> 0.50242335E+05</totfact>
</mgrwt>
</event>
<event>
 4    1  0.6158309E+003  0.1836388E+03  0.7546771E-02  0.1164327E+00
         21   -1    0    0  502  501  0.00000000000E+00  0.00000000000E+00  0.37119634101E+02  0.37119634101E+02  0.00000000000E+00 0. -1.
         21   -1    0    0  504  502 -0.00000000000E+00 -0.00000000000E+00 -0.92452787746E+03  0.92452787746E+03  0.00000000000E+00 0. -1.
         21    1    1    2  503  501  0.17507295803E+03  0.55431742089E+02 -0.50701124384E+03  0.53924356282E+03  0.00000000000E+00 0. -1.
         21    1    1    2  504  503 -0.17507295803E+03 -0.55431742089E+02 -0.38039699952E+03  0.42240394874E+03  0.00000000000E+00 0. -1.
<mgrwt>
<rscale>  2 0.18363883E+03</rscale>
<asrwt>0</asrwt>
<pdfrwt beam="1">  1       21 0.57107130E-02 0.18363883E+03</pdfrwt>
<pdfrwt beam="2">  1       21 0.14223506E+00 0.18363883E+03</pdfrwt>
<totfact> 0.74021146E+04</totfact>
</mgrwt>
</event>
<event>
 4    1  0.6158309E+003  0.1284025E+03  0.7546771E-02  0.1229846E+00
         21   -1    0    0  502  501  0.00000000000E+00  0.00000000000E+00  0.40736788510E+03  0.40736788510E+03  0.00000000000E+00 0.  1.
         21   -1    0    0  504  502 -0.00000000000E+00 -0.00000000000E+00 -0.12092671523E+03  0.12092671523E+03  0.00000000000E+00 0. -1.
         21    1    1    2  503  501 -0.14714143634E+02 -0.12755666068E+03  0.35867697390E+03  0.38096768802E+03  0.00000000000E+00 0.  1.
         21    1    1    2  504  503  0.14714143634E+02  0.12755666068E+03 -0.72235804034E+02  0.14732691231E+03  0.00000000000E+00 0. -1.
<mgrwt>
<rscale>  2 0.12840252E+03</rscale>
<asrwt>0</asrwt>
<pdfrwt beam="1">  1       21 0.62671982E-01 0.12840252E+03</pdfrwt>
<pdfrwt beam="2">  1       21 0.18604110E-01 0.12840252E+03</pdfrwt>
<totfact> 0.64194567E+04</totfact>
</mgrwt>
</event>
<event>
 4    1  0.6158309E+003  0.1496852E+03  0.7546771E-02  0.1200860E+00
         21   -1    0    0  504  501  0.00000000000E+00  0.00000000000E+00  0.20453113428E+04  0.20453113428E+04  0.00000000000E+00 0.  1.
         21   -1    0    0  503  502 -0.00000000000E+00 -0.00000000000E+00 -0.48143711093E+02  0.48143711093E+02  0.00000000000E+00 0.  1.
         21    1    1    2  503  501  0.12212815999E+03 -0.86546898782E+02  0.19185492674E+04  0.19243796259E+04  0.00000000000E+00 0.  1.
         21    1    1    2  504  502 -0.12212815999E+03  0.86546898782E+02  0.78618364353E+02  0.16907542803E+03  0.00000000000E+00 0.  1.
<mgrwt>
<rscale>  2 0.14968518E+03</rscale>
<asrwt>0</asrwt>
<pdfrwt beam="1">  1       21 0.31466322E+00 0.14968518E+03</pdfrwt>
<pdfrwt beam="2">  1       21 0.74067264E-02 0.14968518E+03</pdfrwt>
<totfact> 0.40860362E+03</totfact>
</mgrwt>
</event>
<event>
 4    1  0.6158309E+003  0.2468435E+03  0.7546771E-02  0.1115316E+00
         21   -1    0    0  503  501  0.00000000000E+00  0.00000000000E+00  0.53293229318E+02  0.53293229318E+02  0.00000000000E+00 0. -1.
         21   -1    0    0  504  502 -0.00000000000E+00 -0.00000000000E+00 -0.12018081650E+04  0.12018081650E+04  0.00000000000E+00 0. -1.
         21    1    1    2  503  502 -0.75925705750E+02  0.23487652133E+03 -0.71268801274E+03  0.75422536192E+03  0.00000000000E+00 0. -1.
         21    1    1    2  504  501  0.75925705750E+02 -0.23487652133E+03 -0.43582692293E+03  0.50087603238E+03  0.00000000000E+00 0. -1.
<mgrwt>
<rscale>  2 0.24684346E+03</rscale>
<asrwt>0</asrwt>
<pdfrwt beam="1">  1       21 0.81989583E-02 0.24684346E+03</pdfrwt>
<pdfrwt beam="2">  1       21 0.18489357E+00 0.24684346E+03</pdfrwt>
<totfact> 0.18694876E+04</totfact>
</mgrwt>
</event>
<event>
 4    1  0.6158309E+003  0.1011891E+03  0.7546771E-02  0.1277815E+00
         21   -1    0    0  503  501  0.00000000000E+00  0.00000000000E+00  0.65607067556E+02  0.65607067556E+02  0.00000000000E+00 0.  1.
         21   -1    0    0  504  502 -0.00000000000E+00 -0.00000000000E+00 -0.20775656679E+03  0.20775656679E+03  0.00000000000E+00 0. -1.
         21    1    1    2  503  502  0.85220087991E+02 -0.54559804214E+02 -0.28996139691E+01  0.10123064454E+03  0.00000000000E+00 0.  1.
         21    1    1    2  504  501 -0.85220087991E+02  0.54559804214E+02 -0.13924988527E+03  0.17213298981E+03  0.00000000000E+00 0. -1.
<mgrwt>
<rscale>  2 0.10118911E+03</rscale>
<asrwt>0</asrwt>
<pdfrwt beam="1">  1       21 0.10093395E-01 0.10118911E+03</pdfrwt>
<pdfrwt beam="2">  1       21 0.31962549E-01 0.10118911E+03</pdfrwt>
<totfact> 0.75376750E+05</totfact>
</mgrwt>
</event>
<event>
 4    1  0.6158309E+003  0.1544028E+03  0.7546771E-02  0.1195165E+00
         21   -1    0    0  503  501  0.00000000000E+00  0.00000000000E+00  0.41638744871E+03  0.41638744871E+03  0.00000000000E+00 0.  1.
         21   -1    0    0  501  502 -0.00000000000E+00 -0.00000000000E+00 -0.74812773817E+02  0.74812773817E+02  0.00000000000E+00 0. -1.
         21    1    1    2  503  504 -0.12686501949E+03 -0.88008441463E+02  0.28976809382E+03  0.32833788563E+03  0.00000000000E+00 0.  1.
         21    1    1    2  504  502  0.12686501949E+03  0.88008441463E+02  0.51806581071E+02  0.16286233690E+03  0.00000000000E+00 0. -1.
<mgrwt>
<rscale>  2 0.15440278E+03</rscale>
<asrwt>0</asrwt>
<pdfrwt beam="1">  1       21 0.64059606E-01 0.15440278E+03</pdfrwt>
<pdfrwt beam="2">  1       21 0.11509658E-01 0.15440278E+03</pdfrwt>
<totfact> 0.14411986E+05</totfact>
</mgrwt>
</event>
<event>
 4    1  0.6158309E+003  0.1083018E+03  0.7546771E-02  0.1263747E+00
         21   -1    0    0  504  501  0.00000000000E+00  0.00000000000E+00  0.68872527342E+02  0.68872527342E+02  0.00000000000E+00 0.  1.
         21   -1    0    0  503  502 -0.00000000000E+00 -0.00000000000E+00 -0.17671006424E+03  0.17671006424E+03  0.00000000000E+00 0. -1.
         21    1    1    2  503  501  0.68131623639E+02 -0.84186448805E+02 -0.77297877433E+02  0.13305727398E+03  0.00000000000E+00 0. -1.
         21    1    1    2  504  502 -0.68131623639E+02  0.84186448805E+02 -0.30539659465E+02  0.11252531761E+03  0.00000000000E+00 0.  1.
<mgrwt>
<rscale>  2 0.10830178E+03</rscale>
<asrwt>0</asrwt>
<pdfrwt beam="1">  1       21 0.10595774E-01 0.10830178E+03</pdfrwt>
<pdfrwt beam="2">  1       21 0.27186163E-01 0.10830178E+03</pdfrwt>
<totfact> 0.94475551E+05</totfact>
</mgrwt>
</event>
<event>
 4    1  0.6158309E+003  0.1430871E+03  0.7546771E-02  0.1209234E+00
         21   -1    0    0  502  501  0.00000000000E+00  0.00000000000E+00  0.20129369702E+03  0.20129369702E+03  0.00000000000E+00 0.  1.
         21   -1    0    0  503  502 -0.00000000000E+00 -0.00000000000E+00 -0.26200753339E+03  0.26200753339E+03  0.00000000000E+00 0. -1.
         21    1    1    2  503  504 -0.14244519923E+03  0.13538673565E+02 -0.21154834413E+03  0.25539505158E+03  0.00000000000E+00 0. -1.
         21    1    1    2  504  501  0.14244519923E+03 -0.13538673565E+02  0.15083450776E+03  0.20790617883E+03  0.00000000000E+00 0.  1.
<mgrwt>
<rscale>  2 0.14308714E+03</rscale>
<asrwt>0</asrwt>
<pdfrwt beam="1">  1       21 0.30968261E-01 0.14308714E+03</pdfrwt>
<pdfrwt beam="2">  1       21 0.40308851E-01 0.14308714E+03</pdfrwt>
<totfact> 0.60764783E+04</totfact>
</mgrwt>
</event>
<event>
 4    1  0.6158309E+003  0.1032996E+03  0.7546771E-02  0.1273506E+00
         21   -1    0    0  503  501  0.00000000000E+00  0.00000000000E+00  0.91337612895E+02  0.91337612895E+02  0.00000000000E+00 0.  1.
         21   -1    0    0  504  502 -0.00000000000E+00 -0.00000000000E+00 -0.17920994924E+03  0.17920994924E+03  0.00000000000E+00 0. -1.
         21    1    1    2  503  502 -0.90694708481E+02 -0.49449760683E+02 -0.12374690906E+03  0.16119586372E+03  0.00000000000E+00 0. -1.
         21    1    1    2  504  501  0.90694708481E+02  0.49449760683E+02  0.35874572719E+02  0.10935169841E+03  0.00000000000E+00 0.  1.
<mgrwt>
<rscale>  2 0.10329961E+03</rscale>
<asrwt>0</asrwt>
<pdfrwt beam="1">  1       21 0.14051940E-01 0.10329961E+03</pdfrwt>
<pdfrwt beam="2">  1       21 0.27570761E-01 0.10329961E+03</pdfrwt>
<totfact> 0.55874824E+05</totfact>
</mgrwt>
</event>
<event>
 4    1  0.6158309E+003  0.1092520E+03  0.7546771E-02  0.1261961E+00
         21   -1    0    0  504  501  0.00000000000E+00  0.00000000000E+00  0.11537850452E+02  0.11537850452E+02  0.00000000000E+00 0. -1.
         21   -1    0    0  503  502 -0.00000000000E+00 -0.00000000000E+00 -0.10364577851E+04  0.10364577851E+04  0.00000000000E+00 0. -1.
         21    1    1    2  503  501  0.60851733236E+02  0.90736203573E+02 -0.53519051830E+03  0.54622786724E+03  0.00000000000E+00 0. -1.
         21    1    1    2  504  502 -0.60851733236E+02 -0.90736203573E+02 -0.48972941637E+03  0.50176776833E+03  0.00000000000E+00 0. -1.
<mgrwt>
<rscale>  2 0.10925197E+03</rscale>
<asrwt>0</asrwt>
<pdfrwt beam="1">  1       21 0.17750530E-02 0.10925197E+03</pdfrwt>
<pdfrwt beam="2">  1       21 0.15945512E+00 0.10925197E+03</pdfrwt>
<totfact> 0.39011844E+05</totfact>
</mgrwt>
</event>
<event>
 4    1  0.6158309E+003  0.1005887E+03  0.7546771E-02  0.1279063E+00
         21   -1    0    0  503  501  0.00000000000E+00  0.00000000000E+00  0.36988100888E+02  0.36988100888E+02  0.00000000000E+00 0. -1.
         21   -1    0    0  504  502 -0.00000000000E+00 -0.00000000000E+00 -0.27370632450E+03  0.27370632450E+03  0.00000000000E+00 0.  1.
         21    1    1    2  503  502  0.10058667773E+03  0.63329492513E+00 -0.12207623630E+03  0.15817929153E+03  0.00000000000E+00 0.  1.
         21    1    1    2  504  501 -0.10058667773E+03 -0.63329492513E+00 -0.11464198730E+03  0.15251513385E+03  0.00000000000E+00 0. -1.
<mgrwt>
<rscale>  2 0.10058867E+03</rscale>
<asrwt>0</asrwt>
<pdfrwt beam="1">  1       21 0.56904772E-02 0.10058867E+03</pdfrwt>
<pdfrwt beam="2">  1       21 0.42108664E-01 0.10058867E+03</pdfrwt>
<totfact> 0.11677248E+06</totfact>
</mgrwt>
</event>
<event>
 4    1  0.6158309E+003  0.1138244E+03  0.7546771E-02  0.1253647E+00
         21   -1    0    0  503  501  0.00000000000E+00  0.00000000000E+00  0.10314500299E+03  0.10314500299E+03  0.00000000000E+00 0.  1.
         21   -1    0    0  504  502 -0.00000000000E+00 -0.00000000000E+00 -0.12944979982E+03  0.12944979982E+03  0.00000000000E+00 0.  1.
         21    1    1    2  503  502 -0.35145178289E+02  0.10826272493E+03 -0.33183138675E+02  0.11856273385E+03  0.00000000000E+00 0.  1.
         21    1    1    2  504  501  0.35145178289E+02 -0.10826272493E+03  0.68783418436E+01  0.11403206897E+03  0.00000000000E+00 0.  1.
<mgrwt>
<rscale>  2 0.11382443E+03</rscale>
<asrwt>0</asrwt>
<pdfrwt beam="1">  1       21 0.15868462E-01 0.11382443E+03</pdfrwt>
<pdfrwt beam="2">  1       21 0.19915354E-01 0.11382443E+03</pdfrwt>
<totfact> 0.82540835E+05</totfact>
</mgrwt>
</event>
<event>
 4    1  0.6158309E+003  0.1090480E+03  0.7546771E-02  0.1262343E+00
         21   -1    0    0  503  501  0.00000000000E+00  0.00000000000E+00  0.10743855072E+04  0.10743855072E+04  0.00000000000E+00 0. -1.
         21   -1    0    0  504  502 -0.00000000000E+00 -0.00000000000E+00 -0.27526017765E+02  0.27526017765E+02  0.00000000000E+00 0. -1.
         21    1    1    2  503  502  0.10891847293E+03  0.53141566134E+01  0.94945137356E+03  0.95569314362E+03  0.00000000000E+00 0. -1.
         21    1    1    2  504  501 -0.10891847293E+03 -0.53141566134E+01  0.97408115872E+02  0.14621838134E+03  0.00000000000E+00 0. -1.
<mgrwt>
<rscale>  2 0.10904804E+03</rscale>
<asrwt>0</asrwt>
<pdfrwt beam="1">  1       21 0.16529005E+00 0.10904804E+03</pdfrwt>
<pdfrwt beam="2">  1       21 0.42347728E-02 0.10904804E+03</pdfrwt>
<totfact> 0.86149636E+04</totfact>
</mgrwt>
</event>
<event>
 4    1  0.6158309E+003  0.1210627E+03  0.7546771E-02  0.1241354E+00
         21   -1    0    0  503  501  0.00000000000E+00  0.00000000000E+00  0.47816449335E+03  0.47816449335E+03  0.00000000000E+00 0.  1.
         21   -1    0    0  504  502 -0.00000000000E+00 -0.00000000000E+00 -0.30705189954E+02  0.30705189954E+02  0.00000000000E+00 0.  1.
         21    1    1    2  503  502  0.31382934262E+02  0.11692427109E+03  0.23442799470E+03  0.26384210890E+03  0.00000000000E+00 0.  1.
         21    1    1    2  504  501 -0.31382934262E+02 -0.11692427109E+03  0.21303130869E+03  0.24502757440E+03  0.00000000000E+00 0.  1.
<mgrwt>
<rscale>  2 0.12106269E+03</rscale>
<asrwt>0</asrwt>
<pdfrwt beam="1">  1       21 0.73563763E-01 0.12106269E+03</pdfrwt>
<pdfrwt beam="2">  1       21 0.47238757E-02 0.12106269E+03</pdfrwt>
<totfact> 0.49697765E+05</totfact>
</mgrwt>
</event>
<event>
 4    1  0.6158309E+003  0.1236184E+03  0.7546771E-02  0.1237244E+00
         21   -1    0    0  503  501  0.00000000000E+00  0.00000000000E+00  0.20077873158E+03  0.20077873158E+03  0.00000000000E+00 0.  1.
         21   -1    0    0  504  502 -0.00000000000E+00 -0.00000000000E+00 -0.12289186377E+03  0.12289186377E+03  0.00000000000E+00 0.  1.
         21    1    1    2  503  502 -0.25312356210E+02  0.12099914052E+03  0.13879271457E+03  0.18586265091E+03  0.00000000000E+00 0.  1.
         21    1    1    2  504  501  0.25312356210E+02 -0.12099914052E+03 -0.60905846755E+02  0.13780794445E+03  0.00000000000E+00 0.  1.
<mgrwt>
<rscale>  2 0.12361839E+03</rscale>
<asrwt>0</asrwt>
<pdfrwt beam="1">  1       21 0.30889036E-01 0.12361839E+03</pdfrwt>
<pdfrwt beam="2">  1       21 0.18906441E-01 0.12361839E+03</pdfrwt>
<totfact> 0.26209249E+05</totfact>
</mgrwt>
</event>
<event>
 4    1  0.6158309E+003  0.1273351E+03  0.7546771E-02  0.1231464E+00
         21   -1    0    0  504  501  0.00000000000E+00  0.00000000000E+00  0.46775841045E+03  0.46775841045E+03  0.00000000000E+00 0. -1.
         21   -1    0    0  503  502 -0.00000000000E+00 -0.00000000000E+00 -0.42290540783E+02  0.42290540783E+02  0.00000000000E+00 0. -1.
         21    1    1    2  503  501  0.96435464272E+02  0.83153100942E+02  0.10443290183E+03  0.16468293157E+03  0.00000000000E+00 0. -1.
         21    1    1    2  504  502 -0.96435464272E+02 -0.83153100942E+02  0.32103496783E+03  0.34536601966E+03  0.00000000000E+00 0. -1.
<mgrwt>
<rscale>  2 0.12733514E+03</rscale>
<asrwt>0</asrwt>
<pdfrwt beam="1">  1       21 0.71962829E-01 0.12733514E+03</pdfrwt>
<pdfrwt beam="2">  1       21 0.65062374E-02 0.12733514E+03</pdfrwt>
<totfact> 0.30360367E+05</totfact>
</mgrwt>
</event>
<event>
 4    1  0.6158309E+003  0.1036631E+03  0.7546771E-02  0.1272776E+00
         21   -1    0    0  504  501  0.00000000000E+00  0.00000000000E+00  0.24463501994E+03  0.24463501994E+03  0.00000000000E+00 0. -1.
         21   -1    0    0  501  502 -0.00000000000E+00 -0.00000000000E+00 -0.79773962836E+02  0.79773962836E+02  0.00000000000E+00 0.  1.
         21    1    1    2  503  502 -0.10362550380E+03  0.27926065798E+01 -0.26301987237E+02  0.10694782944E+03  0.00000000000E+00 0.  1.
         21    1    1    2  504  503  0.10362550380E+03 -0.27926065798E+01  0.19116304434E+03  0.21746115334E+03  0.00000000000E+00 0. -1.
<mgrwt>
<rscale>  2 0.10366313E+03</rscale>
<asrwt>0</asrwt>
<pdfrwt beam="1">  1       21 0.37636157E-01 0.10366313E+03</pdfrwt>
<pdfrwt beam="2">  1       21 0.12272917E-01 0.10366313E+03</pdfrwt>
<totfact> 0.38916434E+05</totfact>
</mgrwt>
</event>
<event>
 4    1  0.6158309E+003  0.1108294E+03  0.7546771E-02  0.1259042E+00
         21   -1    0    0  504  501  0.00000000000E+00  0.00000000000E+00  0.25042393385E+03  0.25042393385E+03  0.00000000000E+00 0.  1.
         21   -1    0    0  503  502 -0.00000000000E+00 -0.00000000000E+00 -0.11449657151E+03  0.11449657151E+03  0.00000000000E+00 0. -1.
         21    1    1    2  503  501 -0.11070503928E+03  0.52489432435E+01 -0.69984917749E+02  0.13107648850E+03  0.00000000000E+00 0. -1.
         21    1    1    2  504  502  0.11070503928E+03 -0.52489432435E+01  0.20591228009E+03  0.23384401685E+03  0.00000000000E+00 0.  1.
<mgrwt>
<rscale>  2 0.11082941E+03</rscale>
<asrwt>0</asrwt>
<pdfrwt beam="1">  1       21 0.38526759E-01 0.11082941E+03</pdfrwt>
<pdfrwt beam="2">  1       21 0.17614857E-01 0.11082941E+03</pdfrwt>
<totfact> 0.19424370E+05</totfact>
</mgrwt>
</event>
<event>
 4    1  0.6158309E+003  0.1083309E+03  0.7546771E-02  0.1263692E+00
         21   -1    0    0  504  501  0.00000000000E+00  0.00000000000E+00  0.22469029087E+03  0.22469029087E+03  0.00000000000E+00 0. -1.
         21   -1    0    0  503  502 -0.00000000000E+00 -0.00000000000E+00 -0.13083979469E+04  0.13083979469E+04  0.00000000000E+00 0.  1.
         21    1    1    2  503  501  0.10466486426E+03 -0.27943814154E+02  0.20923459834E+03  0.23561559308E+03  0.00000000000E+00 0. -1.
         21    1    1    2  504  502 -0.10466486426E+03  0.27943814154E+02 -0.12929422544E+04  0.12974726447E+04  0.00000000000E+00 0.  1.
<mgrwt>
<rscale>  2 0.10833093E+03</rscale>
<asrwt>0</asrwt>
<pdfrwt beam="1">  1       21 0.34567736E-01 0.10833093E+03</pdfrwt>
<pdfrwt beam="2">  1       21 0.20129200E+00 0.10833093E+03</pdfrwt>
<totfact> 0.11970299E+03</totfact>
</mgrwt>
</event>
<event>
 4    1  0.6158309E+003  0.1141853E+03  0.7546771E-02  0.1253010E+00
         21   -1    0    0  504  501  0.00000000000E+00  0.00000000000E+00  0.12349575663E+03  0.12349575663E+03  0.00000000000E+00 0. -1.
         21   -1    0    0  503  502 -0.00000000000E+00 -0.00000000000E+00 -0.13343683410E+03  0.13343683410E+03  0.00000000000E+00 0. -1.
         21    1    1    2  503  501  0.88299878195E+01  0.11384339396E+03 -0.63671084983E+02  0.13073750073E+03  0.00000000000E+00 0. -1.
         21    1    1    2  504  502 -0.88299878195E+01 -0.11384339396E+03  0.53730007514E+02  0.12619509001E+03  0.00000000000E+00 0. -1.
<mgrwt>
<rscale>  2 0.11418532E+03</rscale>
<asrwt>0</asrwt>
<pdfrwt beam="1">  1       21 0.18999347E-01 0.11418532E+03</pdfrwt>
<pdfrwt beam="2">  1       21 0.20528744E-01 0.11418532E+03</pdfrwt>
<totfact> 0.56249753E+05</totfact>
</mgrwt>
</event>
<event>
 4    1  0.6158309E+003  0.1075600E+03  0.7546771E-02  0.1265156E+00
         21   -1    0    0  502  501  0.00000000000E+00  0.00000000000E+00  0.11798590571E+03  0.11798590571E+03  0.00000000000E+00 0. -1.
         21   -1    0    0  503  502 -0.00000000000E+00 -0.00000000000E+00 -0.21264865506E+03  0.21264865506E+03  0.00000000000E+00 0. -1.
         21    1    1    2  503  504  0.87702568874E+02 -0.62268905134E+02 -0.16868882082E+03  0.20006267869E+03  0.00000000000E+00 0. -1.
         21    1    1    2  504  501 -0.87702568874E+02  0.62268905134E+02  0.74026071472E+02  0.13057188209E+03  0.00000000000E+00 0. -1.
<mgrwt>
<rscale>  2 0.10756002E+03</rscale>
<asrwt>0</asrwt>
<pdfrwt beam="1">  1       21 0.18151678E-01 0.10756002E+03</pdfrwt>
<pdfrwt beam="2">  1       21 0.32715178E-01 0.10756002E+03</pdfrwt>
<totfact> 0.25355582E+05</totfact>
</mgrwt>
</event>
<event>
 4    1  0.6158309E+003  0.1057152E+03  0.7546771E-02  0.1268717E+00
         21   -1    0    0  502  501  0.00000000000E+00  0.00000000000E+00  0.24037480185E+03  0.24037480185E+03  0.00000000000E+00 0. -1.
         21   -1    0    0  504  502 -0.00000000000E+00 -0.00000000000E+00 -0.74608761113E+02  0.74608761113E+02  0.00000000000E+00 0. -1.
         21    1    1    2  503  501 -0.99216325806E+02  0.36494227171E+02  0.17956357122E+03  0.20837174480E+03  0.00000000000E+00 0. -1.
         21    1    1    2  504  503  0.99216325806E+02 -0.36494227171E+02 -0.13797530486E+02  0.10661181816E+03  0.00000000000E+00 0. -1.
<mgrwt>
<rscale>  2 0.10571522E+03</rscale>
<asrwt>0</asrwt>
<pdfrwt beam="1">  1       21 0.36980738E-01 0.10571522E+03</pdfrwt>
<pdfrwt beam="2">  1       21 0.11478271E-01 0.10571522E+03</pdfrwt>
<totfact> 0.45316147E+05</totfact>
</mgrwt>
</event>
<event>
 4    1  0.6158309E+003  0.1712108E+03  0.7546771E-02  0.1176591E+00
         21   -1    0    0  503  501  0.00000000000E+00  0.00000000000E+00  0.59912586753E+03  0.59912586753E+03  0.00000000000E+00 0.  1.
         21   -1    0    0  504  502 -0.00000000000E+00 -0.00000000000E+00 -0.69158491031E+02  0.69158491031E+02  0.00000000000E+00 0.  1.
         21    1    1    2  503  502  0.14492249824E+03  0.91162460370E+02  0.84254630191E+02  0.19081920078E+03  0.00000000000E+00 0.  1.
         21    1    1    2  504  501 -0.14492249824E+03 -0.91162460370E+02  0.44571274631E+03  0.47746515778E+03  0.00000000000E+00 0.  1.
<mgrwt>
<rscale>  2 0.17121076E+03</rscale>
<asrwt>0</asrwt>
<pdfrwt beam="1">  1       21 0.92173207E-01 0.17121076E+03</pdfrwt>
<pdfrwt beam="2">  1       21 0.10639768E-01 0.17121076E+03</pdfrwt>
<totfact> 0.72976882E+04</totfact>
</mgrwt>
</event>
<event>
 4    1  0.6158309E+003  0.1024901E+03  0.7546771E-02  0.1275145E+00
         21   -1    0    0  503  501  0.00000000000E+00  0.00000000000E+00  0.85541614038E+01  0.85541614038E+01  0.00000000000E+00 0.  1.
         21   -1    0    0  504  502 -0.00000000000E+00 -0.00000000000E+00 -0.13195211266E+04  0.13195211266E+04  0.00000000000E+00 0.  1.
         21    1    1    2  503  502  0.96707523572E+02  0.33939371564E+02 -0.83039725383E+03  0.83669816853E+03  0.00000000000E+00 0.  1.
         21    1    1    2  504  501 -0.96707523572E+02 -0.33939371564E+02 -0.48056971138E+03  0.49137711949E+03  0.00000000000E+00 0.  1.
<mgrwt>
<rscale>  2 0.10249013E+03</rscale>
<asrwt>0</asrwt>
<pdfrwt beam="1">  1       21 0.13160237E-02 0.10249013E+03</pdfrwt>
<pdfrwt beam="2">  1       21 0.20300342E+00 0.10249013E+03</pdfrwt>
<totfact> 0.32487692E+05</totfact>
</mgrwt>
</event>
<event>
 4    1  0.6158309E+003  0.1223771E+03  0.7546771E-02  0.1239226E+00
         21   -1    0    0  503  501  0.00000000000E+00  0.00000000000E+00  0.16433608036E+03  0.16433608036E+03  0.00000000000E+00 0. -1.
         21   -1    0    0  504  502 -0.00000000000E+00 -0.00000000000E+00 -0.93365557009E+02  0.93365557009E+02  0.00000000000E+00 0. -1.
         21    1    1    2  503  502  0.59397833208E+02  0.10699552542E+03  0.55418121851E+02  0.13434028912E+03  0.00000000000E+00 0. -1.
         21    1    1    2  504  501 -0.59397833208E+02 -0.10699552542E+03  0.15552401498E+02  0.12336134825E+03  0.00000000000E+00 0. -1.
<mgrwt>
<rscale>  2 0.12237706E+03</rscale>
<asrwt>0</asrwt>
<pdfrwt beam="1">  1       21 0.25282474E-01 0.12237706E+03</pdfrwt>
<pdfrwt beam="2">  1       21 0.14363932E-01 0.12237706E+03</pdfrwt>
<totfact> 0.63283026E+05</totfact>
</mgrwt>
</event>
<event>
 4    1  0.6158309E+003  0.1005201E+03  0.7546771E-02  0.1279206E+00
         21   -1    0    0  502  501  0.00000000000E+00  0.00000000000E+00  0.58041898612E+03  0.58041898612E+03  0.00000000000E+00 0.  1.
         21   -1    0    0  504  502 -0.00000000000E+00 -0.00000000000E+00 -0.51166107622E+02  0.51166107622E+02  0.00000000000E+00 0. -1.
         21    1    1    2  503  501 -0.54331070098E+02 -0.84572043582E+02  0.52113137149E+03  0.53073741350E+03  0.00000000000E+00 0.  1.
         21    1    1    2  504  503  0.54331070098E+02  0.84572043582E+02  0.81215070010E+01  0.10084768024E+03  0.00000000000E+00 0. -1.
<mgrwt>
<rscale>  2 0.10052013E+03</rscale>
<asrwt>0</asrwt>
<pdfrwt beam="1">  1       21 0.89295224E-01 0.10052013E+03</pdfrwt>
<pdfrwt beam="2">  1       21 0.78717093E-02 0.10052013E+03</pdfrwt>
<totfact> 0.13677900E+05</totfact>
</mgrwt>
</event>
<event>
 4    1  0.6158309E+003  0.1769137E+03  0.7546771E-02  0.1170824E+00
         21   -1    0    0  504  501  0.00000000000E+00  0.00000000000E+00  0.27289009430E+03  0.27289009430E+03  0.00000000000E+00 0.  1.
         21   -1    0    0  503  502 -0.00000000000E+00 -0.00000000000E+00 -0.13840701640E+03  0.13840701640E+03  0.00000000000E+00 0.  1.
         21    1    1    2  503  501 -0.74196275146E+01  0.17675807332E+03  0.15236574368E+03  0.23348187768E+03  0.00000000000E+00 0.  1.
         21    1    1    2  504  502  0.74196275146E+01 -0.17675807332E+03 -0.17882665790E+02  0.17781523302E+03  0.00000000000E+00 0.  1.
<mgrwt>
<rscale>  2 0.17691373E+03</rscale>
<asrwt>0</asrwt>
<pdfrwt beam="1">  1       21 0.41983091E-01 0.17691373E+03</pdfrwt>
<pdfrwt beam="2">  1       21 0.21293387E-01 0.17691373E+03</pdfrwt>
<totfact> 0.11272940E+05</totfact>
</mgrwt>
</event>
<event>
 4    1  0.6158309E+003  0.1185944E+03  0.7546771E-02  0.1245434E+00
         21   -1    0    0  503  501  0.00000000000E+00  0.00000000000E+00  0.39056762288E+03  0.39056762288E+03  0.00000000000E+00 0. -1.
         21   -1    0    0  504  502 -0.00000000000E+00 -0.00000000000E+00 -0.82595200330E+02  0.82595200330E+02  0.00000000000E+00 0.  1.
         21    1    1    2  503  502 -0.11818981266E+03  0.97876266972E+01  0.33166015559E+03  0.35222590515E+03  0.00000000000E+00 0. -1.
         21    1    1    2  504  501  0.11818981266E+03 -0.97876266972E+01 -0.23687733041E+02  0.12093691806E+03  0.00000000000E+00 0.  1.
<mgrwt>
<rscale>  2 0.11859439E+03</rscale>
<asrwt>0</asrwt>
<pdfrwt beam="1">  1       21 0.60087326E-01 0.11859439E+03</pdfrwt>
<pdfrwt beam="2">  1       21 0.12706954E-01 0.11859439E+03</pdfrwt>
<totfact> 0.14031667E+05</totfact>
</mgrwt>
</event>
<event>
 4    1  0.6158309E+003  0.1341549E+03  0.7546771E-02  0.1221418E+00
         21   -1    0    0  504  501  0.00000000000E+00  0.00000000000E+00  0.16995810667E+03  0.16995810667E+03  0.00000000000E+00 0.  1.
         21   -1    0    0  503  502 -0.00000000000E+00 -0.00000000000E+00 -0.20836951074E+03  0.20836951074E+03  0.00000000000E+00 0.  1.
         21    1    1    2  503  501 -0.71325375857E+02  0.11362316447E+03  0.11345159579E+03  0.17569518301E+03  0.00000000000E+00 0.  1.
         21    1    1    2  504  502  0.71325375857E+02 -0.11362316447E+03 -0.15186299986E+03  0.20263243440E+03  0.00000000000E+00 0.  1.
<mgrwt>
<rscale>  2 0.13415488E+03</rscale>
<asrwt>0</asrwt>
<pdfrwt beam="1">  1       21 0.26147401E-01 0.13415488E+03</pdfrwt>
<pdfrwt beam="2">  1       21 0.32056848E-01 0.13415488E+03</pdfrwt>
<totfact> 0.13270701E+05</totfact>
</mgrwt>
</event>
<event>
 4    1  0.6158309E+003  0.1179520E+03  0.7546771E-02  0.1246514E+00
         21   -1    0    0  504  501  0.00000000000E+00  0.00000000000E+00  0.88764433200E+02  0.88764433200E+02  0.00000000000E+00 0.  1.
         21   -1    0    0  503  502 -0.00000000000E+00 -0.00000000000E+00 -0.38876971060E+03  0.38876971060E+03  0.00000000000E+00 0.  1.
         21    1    1    2  503  501 -0.88884891295E+02  0.77538043109E+02  0.34457622129E+02  0.12288205627E+03  0.00000000000E+00 0.  1.
         21    1    1    2  504  502  0.88884891295E+02 -0.77538043109E+02 -0.33446289953E+03  0.35465208753E+03  0.00000000000E+00 0.  1.
<mgrwt>
<rscale>  2 0.11795199E+03</rscale>
<asrwt>0</asrwt>
<pdfrwt beam="1">  1       21 0.13656067E-01 0.11795199E+03</pdfrwt>
<pdfrwt beam="2">  1       21 0.59810724E-01 0.11795199E+03</pdfrwt>
<totfact> 0.12467065E+05</totfact>
</mgrwt>
</event>
<event>
 4    1  0.6158309E+003  0.1082363E+03  0.7546771E-02  0.1263871E+00
         21   -1    0    0  503  501  0.00000000000E+00  0.00000000000E+00  0.69337571507E+02  0.69337571507E+02  0.00000000000E+00 0. -1.
         21   -1    0    0  504  502 -0.00000000000E+00 -0.00000000000E+00 -0.33708591945E+03  0.33708591945E+03  0.00000000000E+00 0.  1.
         21    1    1    2  503  502  0.79311641039E+02  0.73653037048E+02 -0.27738973717E+03  0.29775858100E+03  0.00000000000E+00 0.  1.
         21    1    1    2  504  501 -0.79311641039E+02 -0.73653037048E+02  0.96413892238E+01  0.10866490996E+03  0.00000000000E+00 0. -1.
<mgrwt>
<rscale>  2 0.10823634E+03</rscale>
<asrwt>0</asrwt>
<pdfrwt beam="1">  1       21 0.10667319E-01 0.10823634E+03</pdfrwt>
<pdfrwt beam="2">  1       21 0.51859372E-01 0.10823634E+03</pdfrwt>
<totfact> 0.26066565E+05</totfact>
</mgrwt>
</event>
<event>
 4    1  0.6158309E+003  0.1487204E+03  0.7546771E-02  0.1202054E+00
         21   -1    0    0  503  501  0.00000000000E+00  0.00000000000E+00  0.16223888655E+03  0.16223888655E+03  0.00000000000E+00 0.  1.
         21   -1    0    0  504  502 -0.00000000000E+00 -0.00000000000E+00 -0.19066590650E+03  0.19066590650E+03  0.00000000000E+00 0. -1.
         21    1    1    2  503  502  0.14492020943E+03 -0.33404895307E+02  0.79984391908E+02  0.16886461169E+03  0.00000000000E+00 0.  1.
         21    1    1    2  504  501 -0.14492020943E+03  0.33404895307E+02 -0.10841141186E+03  0.18404018136E+03  0.00000000000E+00 0. -1.
<mgrwt>
<rscale>  2 0.14872039E+03</rscale>
<asrwt>0</asrwt>
<pdfrwt beam="1">  1       21 0.24959829E-01 0.14872039E+03</pdfrwt>
<pdfrwt beam="2">  1       21 0.29333216E-01 0.14872039E+03</pdfrwt>
<totfact> 0.17140856E+05</totfact>
</mgrwt>
</event>
<event>
 4    1  0.6158309E+003  0.1088427E+03  0.7546771E-02  0.1262728E+00
         21   -1    0    0  503  501  0.00000000000E+00  0.00000000000E+00  0.25028951342E+03  0.25028951342E+03  0.00000000000E+00 0.  1.
         21   -1    0    0  504  502 -0.00000000000E+00 -0.00000000000E+00 -0.40245969917E+03  0.40245969917E+03  0.00000000000E+00 0. -1.
         21    1    1    2  503  502 -0.90516015201E+02  0.60444852710E+02  0.23049741479E+03  0.25490348654E+03  0.00000000000E+00 0.  1.
         21    1    1    2  504  501  0.90516015201E+02 -0.60444852710E+02 -0.38266760054E+03  0.39784572604E+03  0.00000000000E+00 0. -1.
<mgrwt>
<rscale>  2 0.10884268E+03</rscale>
<asrwt>0</asrwt>
<pdfrwt beam="1">  1       21 0.38506079E-01 0.10884268E+03</pdfrwt>
<pdfrwt beam="2">  1       21 0.61916877E-01 0.10884268E+03</pdfrwt>
<totfact> 0.16737905E+04</totfact>
</mgrwt>
</event>
<event>
 4    1  0.6158309E+003  0.1553651E+03  0.7546771E-02  0.1194031E+00
         21   -1    0    0  504  501  0.00000000000E+00  0.00000000000E+00  0.85137117146E+02  0.85137117146E+02  0.00000000000E+00 0. -1.
         21   -1    0    0  503  502 -0.00000000000E+00 -0.00000000000E+00 -0.28416686484E+03  0.28416686484E+03  0.00000000000E+00 0.  1.
         21    1    1    2  503  501 -0.34965928658E+02 -0.15137933086E+03 -0.10830541633E+03  0.18938949597E+03  0.00000000000E+00 0. -1.
         21    1    1    2  504  502  0.34965928658E+02  0.15137933086E+03 -0.90724331369E+02  0.17991448602E+03  0.00000000000E+00 0.  1.
<mgrwt>
<rscale>  2 0.15536511E+03</rscale>
<asrwt>0</asrwt>
<pdfrwt beam="1">  1       21 0.13098018E-01 0.15536511E+03</pdfrwt>
<pdfrwt beam="2">  1       21 0.43717979E-01 0.15536511E+03</pdfrwt>
<totfact> 0.25456309E+05</totfact>
</mgrwt>
</event>
<event>
 4    1  0.6158309E+003  0.1011333E+03  0.7546771E-02  0.1277931E+00
         21   -1    0    0  504  501  0.00000000000E+00  0.00000000000E+00  0.38473269200E+03  0.38473269200E+03  0.00000000000E+00 0.  1.
         21   -1    0    0  501  502 -0.00000000000E+00 -0.00000000000E+00 -0.26853101086E+03  0.26853101086E+03  0.00000000000E+00 0.  1.
         21    1    1    2  503  502  0.82887196252E+02 -0.57945336139E+02 -0.25194145034E+03  0.27148193988E+03  0.00000000000E+00 0.  1.
         21    1    1    2  504  503 -0.82887196252E+02  0.57945336139E+02  0.36814313149E+03  0.38178176298E+03  0.00000000000E+00 0.  1.
<mgrwt>
<rscale>  2 0.10113332E+03</rscale>
<asrwt>0</asrwt>
<pdfrwt beam="1">  1       21 0.59189645E-01 0.10113332E+03</pdfrwt>
<pdfrwt beam="2">  1       21 0.41312463E-01 0.10113332E+03</pdfrwt>
<totfact> 0.16128762E+04</totfact>
</mgrwt>
</event>
<event>
 4    1  0.6158309E+003  0.1101400E+03  0.7546771E-02  0.1260311E+00
         21   -1    0    0  503  501  0.00000000000E+00  0.00000000000E+00  0.20642367550E+03  0.20642367550E+03  0.00000000000E+00 0.  1.
         21   -1    0    0  504  502 -0.00000000000E+00 -0.00000000000E+00 -0.96754399723E+02  0.96754399723E+02  0.00000000000E+00 0.  1.
         21    1    1    2  503  502  0.87163552726E+02  0.67330110026E+02 -0.40150180699E+02  0.11722996908E+03  0.00000000000E+00 0.  1.
         21    1    1    2  504  501 -0.87163552726E+02 -0.67330110026E+02  0.14981945648E+03  0.18594810615E+03  0.00000000000E+00 0.  1.
<mgrwt>
<rscale>  2 0.11014004E+03</rscale>
<asrwt>0</asrwt>
<pdfrwt beam="1">  1       21 0.31757489E-01 0.11014004E+03</pdfrwt>
<pdfrwt beam="2">  1       21 0.14885292E-01 0.11014004E+03</pdfrwt>
<totfact> 0.38429807E+05</totfact>
</mgrwt>
</event>
<event>
 4    1  0.6158309E+003  0.1448000E+03  0.7546771E-02  0.1207012E+00
         21   -1    0    0  504  501  0.00000000000E+00  0.00000000000E+00  0.67684693350E+03  0.67684693350E+03  0.00000000000E+00 0.  1.
         21   -1    0    0  503  502 -0.00000000000E+00 -0.00000000000E+00 -0.67370803152E+03  0.67370803152E+03  0.00000000000E+00 0.  1.
         21    1    1    2  503  501  0.59608138942E+02  0.13196174027E+03 -0.65800051043E+03  0.67374453827E+03  0.00000000000E+00 0.  1.
         21    1    1    2  504  502 -0.59608138942E+02 -0.13196174027E+03  0.66113941240E+03  0.67681042675E+03  0.00000000000E+00 0.  1.
<mgrwt>
<rscale>  2 0.14479997E+03</rscale>
<asrwt>0</asrwt>
<pdfrwt beam="1">  1       21 0.10413030E+00 0.14479997E+03</pdfrwt>
<pdfrwt beam="2">  1       21 0.10364739E+00 0.14479997E+03</pdfrwt>
<totfact> 0.59567339E+02</totfact>
</mgrwt>
</event>
<event>
 4    1  0.6158309E+003  0.1008535E+03  0.7546771E-02  0.1278511E+00
         21   -1    0    0  502  501  0.00000000000E+00  0.00000000000E+00  0.19657801902E+03  0.19657801902E+03  0.00000000000E+00 0.  1.
         21   -1    0    0  503  502 -0.00000000000E+00 -0.00000000000E+00 -0.12601467397E+03  0.12601467397E+03  0.00000000000E+00 0.  1.
         21    1    1    2  503  504  0.99720895007E+02  0.15072524966E+02 -0.88548660768E+02  0.13420992226E+03  0.00000000000E+00 0.  1.
         21    1    1    2  504  501 -0.99720895007E+02 -0.15072524966E+02  0.15911200582E+03  0.18838277073E+03  0.00000000000E+00 0.  1.
<mgrwt>
<rscale>  2 0.10085355E+03</rscale>
<asrwt>0</asrwt>
<pdfrwt beam="1">  1       21 0.30242772E-01 0.10085355E+03</pdfrwt>
<pdfrwt beam="2">  1       21 0.19386873E-01 0.10085355E+03</pdfrwt>
<totfact> 0.26197089E+05</totfact>
</mgrwt>
</event>
<event>
 4    1  0.6158309E+003  0.1438170E+03  0.7546771E-02  0.1208283E+00
         21   -1    0    0  502  501  0.00000000000E+00  0.00000000000E+00  0.39294371549E+03  0.39294371549E+03  0.00000000000E+00 0. -1.
         21   -1    0    0  504  502 -0.00000000000E+00 -0.00000000000E+00 -0.25498645820E+03  0.25498645820E+03  0.00000000000E+00 0.  1.
         21    1    1    2  503  501 -0.21513911954E+02  0.14219873441E+03  0.35757496294E+03  0.38541300263E+03  0.00000000000E+00 0. -1.
         21    1    1    2  504  503  0.21513911954E+02 -0.14219873441E+03 -0.21961770564E+03  0.26251717107E+03  0.00000000000E+00 0.  1.
<mgrwt>
<rscale>  2 0.14381700E+03</rscale>
<asrwt>0</asrwt>
<pdfrwt beam="1">  1       21 0.60452879E-01 0.14381700E+03</pdfrwt>
<pdfrwt beam="2">  1       21 0.39228686E-01 0.14381700E+03</pdfrwt>
<totfact> 0.16499707E+04</totfact>
</mgrwt>
</event>
<event>
 4    1  0.6158309E+003  0.1062864E+03  0.7546771E-02  0.1267606E+00
         21   -1    0    0  503  501  0.00000000000E+00  0.00000000000E+00  0.40318960563E+02  0.40318960563E+02  0.00000000000E+00 0. -1.
         21   -1    0    0  504  502 -0.00000000000E+00 -0.00000000000E+00 -0.28587475814E+03  0.28587475814E+03  0.00000000000E+00 0. -1.
         21    1    1    2  503  502 -0.97398946447E+02  0.42546975758E+02 -0.14578565947E+03  0.18041690171E+03  0.00000000000E+00 0. -1.
         21    1    1    2  504  501  0.97398946447E+02 -0.42546975758E+02 -0.99770138109E+02  0.14577681700E+03  0.00000000000E+00 0. -1.
<mgrwt>
<rscale>  2 0.10628641E+03</rscale>
<asrwt>0</asrwt>
<pdfrwt beam="1">  1       21 0.62029170E-02 0.10628641E+03</pdfrwt>
<pdfrwt beam="2">  1       21 0.43980732E-01 0.10628641E+03</pdfrwt>
<totfact> 0.92613988E+05</totfact>
</mgrwt>
</event>
<event>
 4    1  0.6158309E+003  0.1023139E+03  0.7546771E-02  0.1275504E+00
         21   -1    0    0  504  501  0.00000000000E+00  0.00000000000E+00  0.17213560515E+02  0.17213560515E+02  0.00000000000E+00 0. -1.
         21   -1    0    0  503  502 -0.00000000000E+00 -0.00000000000E+00 -0.62595773522E+03  0.62595773522E+03  0.00000000000E+00 0. -1.
         21    1    1    2  503  501 -0.99842172485E+02  0.22353507583E+02 -0.25010550090E+03  0.27022379667E+03  0.00000000000E+00 0. -1.
         21    1    1    2  504  502  0.99842172485E+02 -0.22353507583E+02 -0.35863867381E+03  0.37294749906E+03  0.00000000000E+00 0. -1.
<mgrwt>
<rscale>  2 0.10231392E+03</rscale>
<asrwt>0</asrwt>
<pdfrwt beam="1">  1       21 0.26482406E-02 0.10231392E+03</pdfrwt>
<pdfrwt beam="2">  1       21 0.96301173E-01 0.10231392E+03</pdfrwt>
<totfact> 0.70464046E+05</totfact>
</mgrwt>
</event>
<event>
 4    1  0.6158309E+003  0.1579468E+03  0.7546771E-02  0.1191035E+00
         21   -1    0    0  503  501  0.00000000000E+00  0.00000000000E+00  0.25814727914E+04  0.25814727914E+04  0.00000000000E+00 0. -1.
         21   -1    0    0  504  502 -0.00000000000E+00 -0.00000000000E+00 -0.48693005920E+02  0.48693005920E+02  0.00000000000E+00 0.  1.
         21    1    1    2  503  502 -0.46594368712E+02  0.15091767306E+03  0.89017204608E+02  0.18130428002E+03  0.00000000000E+00 0.  1.
         21    1    1    2  504  501  0.46594368712E+02 -0.15091767306E+03  0.24437625809E+04  0.24488615173E+04  0.00000000000E+00 0. -1.
<mgrwt>
<rscale>  2 0.15794676E+03</rscale>
<asrwt>0</asrwt>
<pdfrwt beam="1">  1       21 0.39714955E+00 0.15794676E+03</pdfrwt>
<pdfrwt beam="2">  1       21 0.74912337E-02 0.15794676E+03</pdfrwt>
<totfact> 0.12932989E+03</totfact>
</mgrwt>
</event>
<event>
 4    1  0.6158309E+003  0.1151188E+03  0.7546771E-02  0.1251374E+00
         21   -1    0    0  504  501  0.00000000000E+00  0.00000000000E+00  0.29924463275E+02  0.29924463275E+02  0.00000000000E+00 0. -1.
         21   -1    0    0  503  502 -0.00000000000E+00 -0.00000000000E+00 -0.87404093266E+03  0.87404093266E+03  0.00000000000E+00 0. -1.
         21    1    1    2  503  501 -0.10920364513E+03  0.36426724551E+02 -0.10460059015E+03  0.15554300315E+03  0.00000000000E+00 0. -1.
         21    1    1    2  504  502  0.10920364513E+03 -0.36426724551E+02 -0.73951587924E+03  0.74842239278E+03  0.00000000000E+00 0. -1.
<mgrwt>
<rscale>  2 0.11511882E+03</rscale>
<asrwt>0</asrwt>
<pdfrwt beam="1">  1       21 0.46037633E-02 0.11511882E+03</pdfrwt>
<pdfrwt beam="2">  1       21 0.13446784E+00 0.11511882E+03</pdfrwt>
<totfact> 0.12707064E+05</totfact>
</mgrwt>
</event>
<event>
 4    1  0.6158309E+003  0.1044684E+03  0.7546771E-02  0.1271171E+00
         21   -1    0    0  504  501  0.00000000000E+00  0.00000000000E+00  0.57041494124E+03  0.57041494124E+03  0.00000000000E+00 0. -1.
         21   -1    0    0  503  502 -0.00000000000E+00 -0.00000000000E+00 -0.31092771043E+02  0.31092771043E+02  0.00000000000E+00 0. -1.
         21    1    1    2  503  501 -0.83331471501E+02 -0.63004055626E+02  0.83132141760E+02  0.13350879432E+03  0.00000000000E+00 0. -1.
         21    1    1    2  504  502  0.83331471501E+02  0.63004055626E+02  0.45619002844E+03  0.46799891796E+03  0.00000000000E+00 0. -1.
<mgrwt>
<rscale>  2 0.10446839E+03</rscale>
<asrwt>0</asrwt>
<pdfrwt beam="1">  1       21 0.87756137E-01 0.10446839E+03</pdfrwt>
<pdfrwt beam="2">  1       21 0.47835037E-02 0.10446839E+03</pdfrwt>
<totfact> 0.32943258E+05</totfact>
</mgrwt>
</event>
<event>
 4    1  0.6158309E+003  0.1216844E+03  0.7546771E-02  0.1240344E+00
         21   -1    0    0  504  501  0.00000000000E+00  0.00000000000E+00  0.24406328088E+03  0.24406328088E+03  0.00000000000E+00 0.  1.
         21   -1    0    0  503  502 -0.00000000000E+00 -0.00000000000E+00 -0.65054588057E+02  0.65054588057E+02  0.00000000000E+00 0.  1.
         21    1    1    2  503  501 -0.11435475312E+03  0.41594332276E+02  0.12963390951E+03  0.17779777426E+03  0.00000000000E+00 0.  1.
         21    1    1    2  504  502  0.11435475312E+03 -0.41594332276E+02  0.49374783316E+02  0.13132009468E+03  0.00000000000E+00 0.  1.
<mgrwt>
<rscale>  2 0.12168442E+03</rscale>
<asrwt>0</asrwt>
<pdfrwt beam="1">  1       21 0.37548197E-01 0.12168442E+03</pdfrwt>
<pdfrwt beam="2">  1       21 0.10008398E-01 0.12168442E+03</pdfrwt>
<totfact> 0.55847097E+05</totfact>
</mgrwt>
</event>
<event>
 4    1  0.6158309E+003  0.1302252E+03  0.7546771E-02  0.1227122E+00
         21   -1    0    0  502  501  0.00000000000E+00  0.00000000000E+00  0.52758891635E+03  0.52758891635E+03  0.00000000000E+00 0.  1.
         21   -1    0    0  504  502 -0.00000000000E+00 -0.00000000000E+00 -0.34689179384E+02  0.34689179384E+02  0.00000000000E+00 0.  1.
         21    1    1    2  503  501  0.10488108869E+03 -0.77191653621E+02  0.32260857704E+03  0.34790068717E+03  0.00000000000E+00 0.  1.
         21    1    1    2  504  503 -0.10488108869E+03  0.77191653621E+02  0.17029115993E+03  0.21437740857E+03  0.00000000000E+00 0.  1.
<mgrwt>
<rscale>  2 0.13022517E+03</rscale>
<asrwt>0</asrwt>
<pdfrwt beam="1">  1       21 0.81167520E-01 0.13022517E+03</pdfrwt>
<pdfrwt beam="2">  1       21 0.53367972E-02 0.13022517E+03</pdfrwt>
<totfact> 0.32510676E+05</totfact>
</mgrwt>
</event>
<event>
 4    1  0.6158309E+003  0.1415037E+03  0.7546771E-02  0.1211320E+00
         21   -1    0    0  504  501  0.00000000000E+00  0.00000000000E+00  0.28512299900E+03  0.28512299900E+03  0.00000000000E+00 0. -1.
         21   -1    0    0  503  502 -0.00000000000E+00 -0.00000000000E+00 -0.39006037936E+03  0.39006037936E+03  0.00000000000E+00 0.  1.
         21    1    1    2  503  501  0.14029664639E+03 -0.18443462849E+02  0.25322591490E+03  0.29008046175E+03  0.00000000000E+00 0. -1.
         21    1    1    2  504  502 -0.14029664639E+03  0.18443462849E+02 -0.35816329526E+03  0.38510291661E+03  0.00000000000E+00 0.  1.
<mgrwt>
<rscale>  2 0.14150375E+03</rscale>
<asrwt>0</asrwt>
<pdfrwt beam="1">  1       21 0.43865077E-01 0.14150375E+03</pdfrwt>
<pdfrwt beam="2">  1       21 0.60009289E-01 0.14150375E+03</pdfrwt>
<totfact> 0.13405491E+04</totfact>
</mgrwt>
</event>
<event>
 4    1  0.6158309E+003  0.1543517E+03  0.7546771E-02  0.1195225E+00
         21   -1    0    0  504  501  0.00000000000E+00  0.00000000000E+00  0.11414363461E+04  0.11414363461E+04  0.00000000000E+00 0. -1.
         21   -1    0    0  503  502 -0.00000000000E+00 -0.00000000000E+00 -0.30615869807E+02  0.30615869807E+02  0.00000000000E+00 0. -1.
         21    1    1    2  503  501 -0.15430283429E+03 -0.38836778903E+01  0.22481102153E+03  0.27269844705E+03  0.00000000000E+00 0. -1.
         21    1    1    2  504  502  0.15430283429E+03  0.38836778903E+01  0.88600945473E+03  0.89935376882E+03  0.00000000000E+00 0. -1.
<mgrwt>
<rscale>  2 0.15435170E+03</rscale>
<asrwt>0</asrwt>
<pdfrwt beam="1">  1       21 0.17560556E+00 0.15435170E+03</pdfrwt>
<pdfrwt beam="2">  1       21 0.47101347E-02 0.15435170E+03</pdfrwt>
<totfact> 0.59421260E+04</totfact>
</mgrwt>
</event>
<event>
 4    1  0.6158309E+003  0.1074626E+03  0.7546771E-02  0.1265342E+00
         21   -1    0    0  504  501  0.00000000000E+00  0.00000000000E+00  0.95763808952E+02  0.95763808952E+02  0.00000000000E+00 0. -1.
         21   -1    0    0  503  502 -0.00000000000E+00 -0.00000000000E+00 -0.12173239353E+03  0.12173239353E+03  0.00000000000E+00 0. -1.
         21    1    1    2  503  501 -0.10709599308E+03 -0.88692107242E+01 -0.23516356043E+02  0.11000560728E+03  0.00000000000E+00 0. -1.
         21    1    1    2  504  502  0.10709599308E+03  0.88692107242E+01 -0.24522285337E+01  0.10749059520E+03  0.00000000000E+00 0. -1.
<mgrwt>
<rscale>  2 0.10746262E+03</rscale>
<asrwt>0</asrwt>
<pdfrwt beam="1">  1       21 0.14732894E-01 0.10746262E+03</pdfrwt>
<pdfrwt beam="2">  1       21 0.18728061E-01 0.10746262E+03</pdfrwt>
<totfact> 0.10553135E+06</totfact>
</mgrwt>
</event>
<event>
 4    1  0.6158309E+003  0.1598069E+03  0.7546771E-02  0.1188915E+00
         21   -1    0    0  503  501  0.00000000000E+00  0.00000000000E+00  0.27904004355E+02  0.27904004355E+02  0.00000000000E+00 0. -1.
         21   -1    0    0  501  502 -0.00000000000E+00 -0.00000000000E+00 -0.12409609132E+04  0.12409609132E+04  0.00000000000E+00 0. -1.
         21    1    1    2  503  504 -0.13227328342E+03 -0.89677302597E+02 -0.28148307491E+03  0.32368342801E+03  0.00000000000E+00 0. -1.
         21    1    1    2  504  502  0.13227328342E+03  0.89677302597E+02 -0.93157383391E+03  0.94518148952E+03  0.00000000000E+00 0. -1.
<mgrwt>
<rscale>  2 0.15980688E+03</rscale>
<asrwt>0</asrwt>
<pdfrwt beam="1">  1       21 0.42929225E-02 0.15980688E+03</pdfrwt>
<pdfrwt beam="2">  1       21 0.19091712E+00 0.15980688E+03</pdfrwt>
<totfact> 0.54695008E+04</totfact>
</mgrwt>
</event>
<event>
 4    1  0.6158309E+003  0.1940534E+03  0.7546771E-02  0.1154855E+00
         21   -1    0    0  504  501  0.00000000000E+00  0.00000000000E+00  0.41106382306E+03  0.41106382306E+03  0.00000000000E+00 0.  1.
         21   -1    0    0  501  502 -0.00000000000E+00 -0.00000000000E+00 -0.10053826972E+03  0.10053826972E+03  0.00000000000E+00 0.  1.
         21    1    1    2  503  502  0.13604577553E+03  0.13837730494E+03  0.79025199275E+02  0.20952735784E+03  0.00000000000E+00 0.  1.
         21    1    1    2  504  503 -0.13604577553E+03 -0.13837730494E+03  0.23150035406E+03  0.30207473495E+03  0.00000000000E+00 0.  1.
<mgrwt>
<rscale>  2 0.19405342E+03</rscale>
<asrwt>0</asrwt>
<pdfrwt beam="1">  1       21 0.63240587E-01 0.19405342E+03</pdfrwt>
<pdfrwt beam="2">  1       21 0.15467426E-01 0.19405342E+03</pdfrwt>
<totfact> 0.85763294E+04</totfact>
</mgrwt>
</event>
<event>
 4    1  0.6158309E+003  0.1360578E+03  0.7546771E-02  0.1218734E+00
         21   -1    0    0  504  501  0.00000000000E+00  0.00000000000E+00  0.23618917347E+02  0.23618917347E+02  0.00000000000E+00 0. -1.
         21   -1    0    0  503  502 -0.00000000000E+00 -0.00000000000E+00 -0.79192083729E+03  0.79192083729E+03  0.00000000000E+00 0. -1.
         21    1    1    2  503  501  0.97173460535E+02 -0.95231520498E+02 -0.34277387822E+03  0.36878944605E+03  0.00000000000E+00 0. -1.
         21    1    1    2  504  502 -0.97173460535E+02  0.95231520498E+02 -0.42552804172E+03  0.44675030858E+03  0.00000000000E+00 0. -1.
<mgrwt>
<rscale>  2 0.13605780E+03</rscale>
<asrwt>0</asrwt>
<pdfrwt beam="1">  1       21 0.36336800E-02 0.13605780E+03</pdfrwt>
<pdfrwt beam="2">  1       21 0.12183396E+00 0.13605780E+03</pdfrwt>
<totfact> 0.23835983E+05</totfact>
</mgrwt>
</event>
<event>
 4    1  0.6158309E+003  0.1278468E+03  0.7546771E-02  0.1230686E+00
         21   -1    0    0  503  501  0.00000000000E+00  0.00000000000E+00  0.81527283886E+02  0.81527283886E+02  0.00000000000E+00 0.  1.
         21   -1    0    0  504  502 -0.00000000000E+00 -0.00000000000E+00 -0.19335006474E+04  0.19335006474E+04  0.00000000000E+00 0. -1.
         21    1    1    2  503  502 -0.34166839072E+02 -0.12319670637E+03 -0.18798375017E+04  0.18841798837E+04  0.00000000000E+00 0. -1.
         21    1    1    2  504  501  0.34166839072E+02  0.12319670637E+03  0.27864138210E+02  0.13084804756E+03  0.00000000000E+00 0.  1.
<mgrwt>
<rscale>  2 0.12784679E+03</rscale>
<asrwt>0</asrwt>
<pdfrwt beam="1">  1       21 0.12542661E-01 0.12784679E+03</pdfrwt>
<pdfrwt beam="2">  1       21 0.29746160E+00 0.12784679E+03</pdfrwt>
<totfact> 0.21088415E+03</totfact>
</mgrwt>
</event>
<event>
 4    1  0.6158309E+003  0.1304999E+03  0.7546771E-02  0.1226716E+00
         21   -1    0    0  503  501  0.00000000000E+00  0.00000000000E+00  0.41386056952E+03  0.41386056952E+03  0.00000000000E+00 0.  1.
         21   -1    0    0  501  502 -0.00000000000E+00 -0.00000000000E+00 -0.60773228563E+02  0.60773228563E+02  0.00000000000E+00 0. -1.
         21    1    1    2  503  504  0.43454649757E+01 -0.13042751051E+03  0.31139697357E+03  0.33763633352E+03  0.00000000000E+00 0.  1.
         21    1    1    2  504  502 -0.43454649757E+01  0.13042751051E+03  0.41690367380E+02  0.13699746456E+03  0.00000000000E+00 0. -1.
<mgrwt>
<rscale>  2 0.13049988E+03</rscale>
<asrwt>0</asrwt>
<pdfrwt beam="1">  1       21 0.63670855E-01 0.13049988E+03</pdfrwt>
<pdfrwt beam="2">  1       21 0.93497278E-02 0.13049988E+03</pdfrwt>
<totfact> 0.21188908E+05</totfact>
</mgrwt>
</event>
<event>
 4    1  0.6158309E+003  0.1137929E+03  0.7546771E-02  0.1253703E+00
         21   -1    0    0  504  501  0.00000000000E+00  0.00000000000E+00  0.12938903702E+03  0.12938903702E+03  0.00000000000E+00 0.  1.
         21   -1    0    0  503  502 -0.00000000000E+00 -0.00000000000E+00 -0.31389224168E+03  0.31389224168E+03  0.00000000000E+00 0.  1.
         21    1    1    2  503  501 -0.75892561402E+02 -0.84788770268E+02 -0.27517903020E+03  0.29777897021E+03  0.00000000000E+00 0.  1.
         21    1    1    2  504  502  0.75892561402E+02  0.84788770268E+02  0.90675825531E+02  0.14550230849E+03  0.00000000000E+00 0.  1.
<mgrwt>
<rscale>  2 0.11379287E+03</rscale>
<asrwt>0</asrwt>
<pdfrwt beam="1">  1       21 0.19906006E-01 0.11379287E+03</pdfrwt>
<pdfrwt beam="2">  1       21 0.48291114E-01 0.11379287E+03</pdfrwt>
<totfact> 0.98447791E+04</totfact>
</mgrwt>
</event>
<event>
 4    1  0.6158309E+003  0.1243878E+03  0.7546771E-02  0.1236029E+00
         21   -1    0    0  503  501  0.00000000000E+00  0.00000000000E+00  0.55565932545E+02  0.55565932545E+02  0.00000000000E+00 0.  1.
         21   -1    0    0  504  502 -0.00000000000E+00 -0.00000000000E+00 -0.41594860154E+03  0.41594860154E+03  0.00000000000E+00 0. -1.
         21    1    1    2  503  502 -0.11865947151E+03 -0.37312880027E+02 -0.31573984708E+03  0.33935817690E+03  0.00000000000E+00 0. -1.
         21    1    1    2  504  501  0.11865947151E+03  0.37312880027E+02 -0.44642821919E+02  0.13215635719E+03  0.00000000000E+00 0.  1.
<mgrwt>
<rscale>  2 0.12438779E+03</rscale>
<asrwt>0</asrwt>
<pdfrwt beam="1">  1       21 0.85486050E-02 0.12438779E+03</pdfrwt>
<pdfrwt beam="2">  1       21 0.63992093E-01 0.12438779E+03</pdfrwt>
<totfact> 0.24525312E+05</totfact>
</mgrwt>
</event>
<event>
 4    1  0.6158309E+003  0.1020689E+03  0.7546771E-02  0.1276005E+00
         21   -1    0    0  503  501  0.00000000000E+00  0.00000000000E+00  0.45631804926E+03  0.45631804926E+03  0.00000000000E+00 0.  1.
         21   -1    0    0  504  502 -0.00000000000E+00 -0.00000000000E+00 -0.10629629187E+04  0.10629629187E+04  0.00000000000E+00 0. -1.
         21    1    1    2  503  502 -0.15608279496E+02 -0.10086844631E+03  0.44811585087E+03  0.45959316536E+03  0.00000000000E+00 0.  1.
         21    1    1    2  504  501  0.15608279496E+02  0.10086844631E+03 -0.10547607204E+04  0.10596878026E+04  0.00000000000E+00 0. -1.
<mgrwt>
<rscale>  2 0.10206891E+03</rscale>
<asrwt>0</asrwt>
<pdfrwt beam="1">  1       21 0.70202777E-01 0.10206891E+03</pdfrwt>
<pdfrwt beam="2">  1       21 0.16353276E+00 0.10206891E+03</pdfrwt>
<totfact> 0.50193724E+02</totfact>
</mgrwt>
</event>
<event>
 4    1  0.6158309E+003  0.1415138E+03  0.7546771E-02  0.1211306E+00
         21   -1    0    0  504  501  0.00000000000E+00  0.00000000000E+00  0.94298994726E+02  0.94298994726E+02  0.00000000000E+00 0.  1.
         21   -1    0    0  501  502 -0.00000000000E+00 -0.00000000000E+00 -0.19370739006E+04  0.19370739006E+04  0.00000000000E+00 0. -1.
         21    1    1    2  503  502  0.74696416342E+01  0.14131655673E+03 -0.18797812324E+04  0.18851004340E+04  0.00000000000E+00 0. -1.
         21    1    1    2  504  503 -0.74696416342E+01 -0.14131655673E+03  0.37006326456E+02  0.14627246135E+03  0.00000000000E+00 0.  1.
<mgrwt>
<rscale>  2 0.14151383E+03</rscale>
<asrwt>0</asrwt>
<pdfrwt beam="1">  1       21 0.14507537E-01 0.14151383E+03</pdfrwt>
<pdfrwt beam="2">  1       21 0.29801138E+00 0.14151383E+03</pdfrwt>
<totfact> 0.15755472E+03</totfact>
</mgrwt>
</event>
<event>
 4    1  0.6158309E+003  0.1003411E+03  0.7546771E-02  0.1279580E+00
         21   -1    0    0  502  501  0.00000000000E+00  0.00000000000E+00  0.29836062683E+02  0.29836062683E+02  0.00000000000E+00 0.  1.
         21   -1    0    0  503  502 -0.00000000000E+00 -0.00000000000E+00 -0.48705544154E+03  0.48705544154E+03  0.00000000000E+00 0.  1.
         21    1    1    2  503  504 -0.98176298030E+01 -0.99859617184E+02 -0.37184385206E+03  0.38514436165E+03  0.00000000000E+00 0.  1.
         21    1    1    2  504  501  0.98176298030E+01  0.99859617184E+02 -0.85375526795E+02  0.13174714257E+03  0.00000000000E+00 0.  1.
<mgrwt>
<rscale>  2 0.10034106E+03</rscale>
<asrwt>0</asrwt>
<pdfrwt beam="1">  1       21 0.45901633E-02 0.10034106E+03</pdfrwt>
<pdfrwt beam="2">  1       21 0.74931609E-01 0.10034106E+03</pdfrwt>
<totfact> 0.50173373E+05</totfact>
</mgrwt>
</event>
<event>
 4    1  0.6158309E+003  0.1425648E+03  0.7546771E-02  0.1209919E+00
         21   -1    0    0  504  501  0.00000000000E+00  0.00000000000E+00  0.52490015597E+02  0.52490015597E+02  0.00000000000E+00 0.  1.
         21   -1    0    0  503  502 -0.00000000000E+00 -0.00000000000E+00 -0.48187040088E+03  0.48187040088E+03  0.00000000000E+00 0.  1.
         21    1    1    2  503  501 -0.61007885329E+02  0.12885167796E+03 -0.33310902968E+03  0.36233457279E+03  0.00000000000E+00 0.  1.
         21    1    1    2  504  502  0.61007885329E+02 -0.12885167796E+03 -0.96271355604E+02  0.17202584369E+03  0.00000000000E+00 0.  1.
<mgrwt>
<rscale>  2 0.14256478E+03</rscale>
<asrwt>0</asrwt>
<pdfrwt beam="1">  1       21 0.80753873E-02 0.14256478E+03</pdfrwt>
<pdfrwt beam="2">  1       21 0.74133905E-01 0.14256478E+03</pdfrwt>
<totfact> 0.19555309E+05</totfact>
</mgrwt>
</event>
<event>
 4    1  0.6158309E+003  0.1000932E+03  0.7546771E-02  0.1280100E+00
         21   -1    0    0  504  501  0.00000000000E+00  0.00000000000E+00  0.68260530165E+01  0.68260530165E+01  0.00000000000E+00 0. -1.
         21   -1    0    0  503  502 -0.00000000000E+00 -0.00000000000E+00 -0.14723550124E+04  0.14723550124E+04  0.00000000000E+00 0. -1.
         21    1    1    2  503  501  0.15822574616E+02  0.98834733694E+02 -0.69121820685E+03  0.69842771132E+03  0.00000000000E+00 0. -1.
         21    1    1    2  504  502 -0.15822574616E+02 -0.98834733694E+02 -0.77431075254E+03  0.78075335410E+03  0.00000000000E+00 0. -1.
<mgrwt>
<rscale>  2 0.10009325E+03</rscale>
<asrwt>0</asrwt>
<pdfrwt beam="1">  1       21 0.10501621E-02 0.10009325E+03</pdfrwt>
<pdfrwt beam="2">  1       21 0.22651613E+00 0.10009325E+03</pdfrwt>
<totfact> 0.33579504E+05</totfact>
</mgrwt>
</event>
<event>
 4    1  0.6158309E+003  0.1091752E+03  0.7546771E-02  0.1262105E+00
         21   -1    0    0  503  501  0.00000000000E+00  0.00000000000E+00  0.48641801039E+02  0.48641801039E+02  0.00000000000E+00 0.  1.
         21   -1    0    0  501  502 -0.00000000000E+00 -0.00000000000E+00 -0.25211006877E+03  0.25211006877E+03  0.00000000000E+00 0.  1.
         21    1    1    2  503  504  0.28351409554E+02  0.10542974902E+03 -0.76553591207E+02  0.13334049171E+03  0.00000000000E+00 0.  1.
         21    1    1    2  504  502 -0.28351409554E+02 -0.10542974902E+03 -0.12691467653E+03  0.16741137811E+03  0.00000000000E+00 0.  1.
<mgrwt>
<rscale>  2 0.10917525E+03</rscale>
<asrwt>0</asrwt>
<pdfrwt beam="1">  1       21 0.74833540E-02 0.10917525E+03</pdfrwt>
<pdfrwt beam="2">  1       21 0.38786164E-01 0.10917525E+03</pdfrwt>
<totfact> 0.86554461E+05</totfact>
</mgrwt>
</event>
<event>
 4    1  0.6158309E+003  0.1008874E+03  0.7546771E-02  0.1278441E+00
         21   -1    0    0  502  501  0.00000000000E+00  0.00000000000E+00  0.54113408585E+02  0.54113408585E+02  0.00000000000E+00 0. -1.
         21   -1    0    0  503  502 -0.00000000000E+00 -0.00000000000E+00 -0.26278260672E+03  0.26278260672E+03  0.00000000000E+00 0.  1.
         21    1    1    2  503  504 -0.32980896540E+02 -0.95344295110E+02 -0.18880855187E+03  0.21407228547E+03  0.00000000000E+00 0.  1.
         21    1    1    2  504  501  0.32980896540E+02  0.95344295110E+02 -0.19860646261E+02  0.10282372983E+03  0.00000000000E+00 0. -1.
<mgrwt>
<rscale>  2 0.10088743E+03</rscale>
<asrwt>0</asrwt>
<pdfrwt beam="1">  1       21 0.83251400E-02 0.10088743E+03</pdfrwt>
<pdfrwt beam="2">  1       21 0.40428092E-01 0.10088743E+03</pdfrwt>
<totfact> 0.66372986E+05</totfact>
</mgrwt>
</event>
<event>
 4    1  0.6158309E+003  0.1010477E+03  0.7546771E-02  0.1278108E+00
         21   -1    0    0  503  501  0.00000000000E+00  0.00000000000E+00  0.12462315345E+04  0.12462315345E+04  0.00000000000E+00 0.  1.
         21   -1    0    0  504  502 -0.00000000000E+00 -0.00000000000E+00 -0.96121330671E+01  0.96121330671E+01  0.00000000000E+00 0.  1.
         21    1    1    2  503  502  0.75219072753E+02  0.67473950685E+02  0.37705579473E+03  0.39036100634E+03  0.00000000000E+00 0.  1.
         21    1    1    2  504  501 -0.75219072753E+02 -0.67473950685E+02  0.85956360669E+03  0.86548266122E+03  0.00000000000E+00 0.  1.
<mgrwt>
<rscale>  2 0.10104773E+03</rscale>
<asrwt>0</asrwt>
<pdfrwt beam="1">  1       21 0.19172780E+00 0.10104773E+03</pdfrwt>
<pdfrwt beam="2">  1       21 0.14787907E-02 0.10104773E+03</pdfrwt>
<totfact> 0.31794041E+05</totfact>
</mgrwt>
</event>
<event>
 4    1  0.6158309E+003  0.1023678E+03  0.7546771E-02  0.1275394E+00
         21   -1    0    0  504  501  0.00000000000E+00  0.00000000000E+00  0.23007411548E+03  0.23007411548E+03  0.00000000000E+00 0. -1.
         21   -1    0    0  501  502 -0.00000000000E+00 -0.00000000000E+00 -0.60819024758E+02  0.60819024758E+02  0.00000000000E+00 0. -1.
         21    1    1    2  503  502  0.10010681635E+03 -0.21396182825E+02  0.11743417878E+02  0.10303921187E+03  0.00000000000E+00 0. -1.
         21    1    1    2  504  503 -0.10010681635E+03  0.21396182825E+02  0.15751167285E+03  0.18785392837E+03  0.00000000000E+00 0. -1.
<mgrwt>
<rscale>  2 0.10236782E+03</rscale>
<asrwt>0</asrwt>
<pdfrwt beam="1">  1       21 0.35396017E-01 0.10236782E+03</pdfrwt>
<pdfrwt beam="2">  1       21 0.93567731E-02 0.10236782E+03</pdfrwt>
<totfact> 0.70520946E+05</totfact>
</mgrwt>
</event>
<event>
 4    1  0.6158309E+003  0.1451187E+03  0.7546771E-02  0.1206603E+00
         21   -1    0    0  503  501  0.00000000000E+00  0.00000000000E+00  0.48626329446E+03  0.48626329446E+03  0.00000000000E+00 0. -1.
         21   -1    0    0  501  502 -0.00000000000E+00 -0.00000000000E+00 -0.92180752521E+02  0.92180752521E+02  0.00000000000E+00 0. -1.
         21    1    1    2  503  504  0.10812254851E+03  0.96793307046E+02  0.40763311016E+03  0.43269409781E+03  0.00000000000E+00 0. -1.
         21    1    1    2  504  502 -0.10812254851E+03 -0.96793307046E+02 -0.13550568217E+02  0.14574994917E+03  0.00000000000E+00 0. -1.
<mgrwt>
<rscale>  2 0.14511867E+03</rscale>
<asrwt>0</asrwt>
<pdfrwt beam="1">  1       21 0.74809736E-01 0.14511867E+03</pdfrwt>
<pdfrwt beam="2">  1       21 0.14181654E-01 0.14511867E+03</pdfrwt>
<totfact> 0.70953705E+04</totfact>
</mgrwt>
</event>
<event>
 4    1  0.6158309E+003  0.1104712E+03  0.7546771E-02  0.1259700E+00
         21   -1    0    0  504  501  0.00000000000E+00  0.00000000000E+00  0.87892337200E+02  0.87892337200E+02  0.00000000000E+00 0.  1.
         21   -1    0    0  503  502 -0.00000000000E+00 -0.00000000000E+00 -0.23825915631E+03  0.23825915631E+03  0.00000000000E+00 0.  1.
         21    1    1    2  503  501 -0.97626002514E+02  0.51701440063E+02  0.30152674079E+02  0.11451226583E+03  0.00000000000E+00 0.  1.
         21    1    1    2  504  502  0.97626002514E+02 -0.51701440063E+02 -0.18051949319E+03  0.21163922768E+03  0.00000000000E+00 0.  1.
<mgrwt>
<rscale>  2 0.11047115E+03</rscale>
<asrwt>0</asrwt>
<pdfrwt beam="1">  1       21 0.13521898E-01 0.11047115E+03</pdfrwt>
<pdfrwt beam="2">  1       21 0.36655254E-01 0.11047115E+03</pdfrwt>
<totfact> 0.34494667E+05</totfact>
</mgrwt>
</event>
<event>
 4    1  0.6158309E+003  0.1048427E+03  0.7546771E-02  0.1270430E+00
         21   -1    0    0  504  501  0.00000000000E+00  0.00000000000E+00  0.16987621658E+03  0.16987621658E+03  0.00000000000E+00 0. -1.
         21   -1    0    0  503  502 -0.00000000000E+00 -0.00000000000E+00 -0.67810174356E+02  0.67810174356E+02  0.00000000000E+00 0. -1.
         21    1    1    2  503  501  0.10150367555E+03  0.26248651353E+02  0.76460848758E+02  0.12976227973E+03  0.00000000000E+00 0. -1.
         21    1    1    2  504  502 -0.10150367555E+03 -0.26248651353E+02  0.25605193465E+02  0.10792411121E+03  0.00000000000E+00 0. -1.
<mgrwt>
<rscale>  2 0.10484268E+03</rscale>
<asrwt>0</asrwt>
<pdfrwt beam="1">  1       21 0.26134802E-01 0.10484268E+03</pdfrwt>
<pdfrwt beam="2">  1       21 0.10432335E-01 0.10484268E+03</pdfrwt>
<totfact> 0.10454692E+06</totfact>
</mgrwt>
</event>
<event>
 4    1  0.6158309E+003  0.1019365E+03  0.7546771E-02  0.1276276E+00
         21   -1    0    0  504  501  0.00000000000E+00  0.00000000000E+00  0.26776133592E+04  0.26776133592E+04  0.00000000000E+00 0. -1.
         21   -1    0    0  503  502 -0.00000000000E+00 -0.00000000000E+00 -0.48138453801E+01  0.48138453801E+01  0.00000000000E+00 0. -1.
         21    1    1    2  503  501 -0.10192310135E+03 -0.16534099880E+01  0.19269042644E+04  0.19295986880E+04  0.00000000000E+00 0. -1.
         21    1    1    2  504  502  0.10192310135E+03  0.16534099880E+01  0.74589524940E+03  0.75282851662E+03  0.00000000000E+00 0. -1.
<mgrwt>
<rscale>  2 0.10193651E+03</rscale>
<asrwt>0</asrwt>
<pdfrwt beam="1">  1       21 0.41193933E+00 0.10193651E+03</pdfrwt>
<pdfrwt beam="2">  1       21 0.74059374E-03 0.10193651E+03</pdfrwt>
<totfact> 0.50690852E+04</totfact>
</mgrwt>
</event>
<event>
 4    1  0.6158309E+003  0.2538198E+03  0.7546771E-02  0.1110914E+00
         21   -1    0    0  504  501  0.00000000000E+00  0.00000000000E+00  0.11435410301E+04  0.11435410301E+04  0.00000000000E+00 0.  1.
         21   -1    0    0  501  502 -0.00000000000E+00 -0.00000000000E+00 -0.85199559826E+02  0.85199559826E+02  0.00000000000E+00 0.  1.
         21    1    1    2  503  502 -0.15415442943E+03  0.20164553959E+03  0.17159056606E+03  0.30637857972E+03  0.00000000000E+00 0.  1.
         21    1    1    2  504  503  0.15415442943E+03 -0.20164553959E+03  0.88675090420E+03  0.92236201020E+03  0.00000000000E+00 0.  1.
<mgrwt>
<rscale>  2 0.25381984E+03</rscale>
<asrwt>0</asrwt>
<pdfrwt beam="1">  1       21 0.17592938E+00 0.25381984E+03</pdfrwt>
<pdfrwt beam="2">  1       21 0.13107625E-01 0.25381984E+03</pdfrwt>
<totfact> 0.92989331E+03</totfact>
</mgrwt>
</event>
<event>
 4    1  0.6158309E+003  0.1088572E+03  0.7546771E-02  0.1262701E+00
         21   -1    0    0  502  501  0.00000000000E+00  0.00000000000E+00  0.25878351589E+03  0.25878351589E+03  0.00000000000E+00 0.  1.
         21   -1    0    0  503  502 -0.00000000000E+00 -0.00000000000E+00 -0.67544387828E+02  0.67544387828E+02  0.00000000000E+00 0.  1.
         21    1    1    2  503  504 -0.76581980814E+02 -0.77363409815E+02  0.30229069343E+01  0.10889919619E+03  0.00000000000E+00 0.  1.
         21    1    1    2  504  501  0.76581980814E+02  0.77363409815E+02  0.18821622113E+03  0.21742870754E+03  0.00000000000E+00 0.  1.
<mgrwt>
<rscale>  2 0.10885723E+03</rscale>
<asrwt>0</asrwt>
<pdfrwt beam="1">  1       21 0.39812848E-01 0.10885723E+03</pdfrwt>
<pdfrwt beam="2">  1       21 0.10391444E-01 0.10885723E+03</pdfrwt>
<totfact> 0.46607963E+05</totfact>
</mgrwt>
</event>
<event>
 4    1  0.6158309E+003  0.1165808E+03  0.7546771E-02  0.1248847E+00
         21   -1    0    0  504  501  0.00000000000E+00  0.00000000000E+00  0.54925238727E+03  0.54925238727E+03  0.00000000000E+00 0. -1.
         21   -1    0    0  503  502 -0.00000000000E+00 -0.00000000000E+00 -0.64914086285E+02  0.64914086285E+02  0.00000000000E+00 0. -1.
         21    1    1    2  503  501  0.99557283795E+02 -0.60658221444E+02  0.60395525644E+00  0.11658232005E+03  0.00000000000E+00 0. -1.
         21    1    1    2  504  502 -0.99557283795E+02  0.60658221444E+02  0.48373434573E+03  0.49758415351E+03  0.00000000000E+00 0. -1.
<mgrwt>
<rscale>  2 0.11658076E+03</rscale>
<asrwt>0</asrwt>
<pdfrwt beam="1">  1       21 0.84500364E-01 0.11658076E+03</pdfrwt>
<pdfrwt beam="2">  1       21 0.99867829E-02 0.11658076E+03</pdfrwt>
<totfact> 0.10194691E+05</totfact>
</mgrwt>
</event>
<event>
 4    1  0.6158309E+003  0.1558119E+03  0.7546771E-02  0.1193508E+00
         21   -1    0    0  502  501  0.00000000000E+00  0.00000000000E+00  0.33784813174E+03  0.33784813174E+03  0.00000000000E+00 0.  1.
         21   -1    0    0  504  502 -0.00000000000E+00 -0.00000000000E+00 -0.11606250489E+03  0.11606250489E+03  0.00000000000E+00 0.  1.
         21    1    1    2  503  501 -0.86723454397E+02  0.12944649396E+03  0.25095595415E+03  0.29539167772E+03  0.00000000000E+00 0.  1.
         21    1    1    2  504  503  0.86723454397E+02 -0.12944649396E+03 -0.29170327297E+02  0.15851895892E+03  0.00000000000E+00 0.  1.
<mgrwt>
<rscale>  2 0.15581191E+03</rscale>
<asrwt>0</asrwt>
<pdfrwt beam="1">  1       21 0.51976635E-01 0.15581191E+03</pdfrwt>
<pdfrwt beam="2">  1       21 0.17855770E-01 0.15581191E+03</pdfrwt>
<totfact> 0.10157849E+05</totfact>
</mgrwt>
</event>
<event>
 4    1  0.6158309E+003  0.1285972E+03  0.7546771E-02  0.1229552E+00
         21   -1    0    0  504  501  0.00000000000E+00  0.00000000000E+00  0.34877299476E+03  0.34877299476E+03  0.00000000000E+00 0. -1.
         21   -1    0    0  503  502 -0.00000000000E+00 -0.00000000000E+00 -0.62479990435E+02  0.62479990435E+02  0.00000000000E+00 0. -1.
         21    1    1    2  503  501  0.32729026837E+02  0.12436257220E+03  0.24411505188E+03  0.27591556157E+03  0.00000000000E+00 0. -1.
         21    1    1    2  504  502 -0.32729026837E+02 -0.12436257220E+03  0.42177952453E+02  0.13533742363E+03  0.00000000000E+00 0. -1.
<mgrwt>
<rscale>  2 0.12859720E+03</rscale>
<asrwt>0</asrwt>
<pdfrwt beam="1">  1       21 0.53657383E-01 0.12859720E+03</pdfrwt>
<pdfrwt beam="2">  1       21 0.96123064E-02 0.12859720E+03</pdfrwt>
<totfact> 0.29005556E+05</totfact>
</mgrwt>
</event>
<event>
 4    1  0.6158309E+003  0.1165695E+03  0.7546771E-02  0.1248866E+00
         21   -1    0    0  504  501  0.00000000000E+00  0.00000000000E+00  0.30248045615E+03  0.30248045615E+03  0.00000000000E+00 0. -1.
         21   -1    0    0  503  502 -0.00000000000E+00 -0.00000000000E+00 -0.45084898618E+02  0.45084898618E+02  0.00000000000E+00 0.  1.
         21    1    1    2  503  501  0.21534283550E+02 -0.11456315268E+03  0.13909976450E+03  0.18148604851E+03  0.00000000000E+00 0. -1.
         21    1    1    2  504  502 -0.21534283550E+02  0.11456315268E+03  0.11829579303E+03  0.16607930626E+03  0.00000000000E+00 0.  1.
<mgrwt>
<rscale>  2 0.11656947E+03</rscale>
<asrwt>0</asrwt>
<pdfrwt beam="1">  1       21 0.46535454E-01 0.11656947E+03</pdfrwt>
<pdfrwt beam="2">  1       21 0.69361384E-02 0.11656947E+03</pdfrwt>
<totfact> 0.68358585E+05</totfact>
</mgrwt>
</event>
<event>
 4    1  0.6158309E+003  0.1017151E+03  0.7546771E-02  0.1276730E+00
         21   -1    0    0  502  501  0.00000000000E+00  0.00000000000E+00  0.92834586210E+02  0.92834586210E+02  0.00000000000E+00 0. -1.
         21   -1    0    0  504  502 -0.00000000000E+00 -0.00000000000E+00 -0.22846008932E+03  0.22846008932E+03  0.00000000000E+00 0.  1.
         21    1    1    2  503  501  0.45465214367E+02  0.90988356058E+02  0.47158424071E+02  0.11211549231E+03  0.00000000000E+00 0. -1.
         21    1    1    2  504  503 -0.45465214367E+02 -0.90988356058E+02 -0.18278392719E+03  0.20917918322E+03  0.00000000000E+00 0.  1.
<mgrwt>
<rscale>  2 0.10171513E+03</rscale>
<asrwt>0</asrwt>
<pdfrwt beam="1">  1       21 0.14282244E-01 0.10171513E+03</pdfrwt>
<pdfrwt beam="2">  1       21 0.35147706E-01 0.10171513E+03</pdfrwt>
<totfact> 0.34015197E+05</totfact>
</mgrwt>
</event>
<event>
 4    1  0.6158309E+003  0.1445223E+03  0.7546771E-02  0.1207370E+00
         21   -1    0    0  504  501  0.00000000000E+00  0.00000000000E+00  0.57784750448E+03  0.57784750448E+03  0.00000000000E+00 0.  1.
         21   -1    0    0  503  502 -0.00000000000E+00 -0.00000000000E+00 -0.64743363806E+02  0.64743363806E+02  0.00000000000E+00 0.  1.
         21    1    1    2  503  501  0.62631951313E+02 -0.13024565590E+03  0.43015463205E+02  0.15078800444E+03  0.00000000000E+00 0.  1.
         21    1    1    2  504  502 -0.62631951313E+02  0.13024565590E+03  0.47008867747E+03  0.49180286385E+03  0.00000000000E+00 0.  1.
<mgrwt>
<rscale>  2 0.14452229E+03</rscale>
<asrwt>0</asrwt>
<pdfrwt beam="1">  1       21 0.88899613E-01 0.14452229E+03</pdfrwt>
<pdfrwt beam="2">  1       21 0.99605179E-02 0.14452229E+03</pdfrwt>
<totfact> 0.90148617E+04</totfact>
</mgrwt>
</event>
<event>
 4    1  0.6158309E+003  0.1030380E+03  0.7546771E-02  0.1274034E+00
         21   -1    0    0  503  501  0.00000000000E+00  0.00000000000E+00  0.30778556761E+02  0.30778556761E+02  0.00000000000E+00 0.  1.
         21   -1    0    0  504  502 -0.00000000000E+00 -0.00000000000E+00 -0.55724495179E+03  0.55724495179E+03  0.00000000000E+00 0.  1.
         21    1    1    2  503  502  0.98136421226E+02 -0.31401941073E+02 -0.81757321191E+02  0.13153364073E+03  0.00000000000E+00 0.  1.
         21    1    1    2  504  501 -0.98136421226E+02  0.31401941073E+02 -0.44470907383E+03  0.45648986782E+03  0.00000000000E+00 0.  1.
<mgrwt>
<rscale>  2 0.10303805E+03</rscale>
<asrwt>0</asrwt>
<pdfrwt beam="1">  1       21 0.47351624E-02 0.10303805E+03</pdfrwt>
<pdfrwt beam="2">  1       21 0.85729996E-01 0.10303805E+03</pdfrwt>
<totfact> 0.35327067E+05</totfact>
</mgrwt>
</event>
<event>
 4    1  0.6158309E+003  0.1069927E+03  0.7546771E-02  0.1266242E+00
         21   -1    0    0  502  501  0.00000000000E+00  0.00000000000E+00  0.56117749398E+01  0.56117749398E+01  0.00000000000E+00 0.  1.
         21   -1    0    0  503  502 -0.00000000000E+00 -0.00000000000E+00 -0.22736845515E+04  0.22736845515E+04  0.00000000000E+00 0.  1.
         21    1    1    2  503  504  0.84890698457E+02 -0.65123066952E+02 -0.14994764070E+04  0.15032887080E+04  0.00000000000E+00 0.  1.
         21    1    1    2  504  501 -0.84890698457E+02  0.65123066952E+02 -0.76859636964E+03  0.77600761849E+03  0.00000000000E+00 0.  1.
<mgrwt>
<rscale>  2 0.10699273E+03</rscale>
<asrwt>0</asrwt>
<pdfrwt beam="1">  1       21 0.86335094E-03 0.10699273E+03</pdfrwt>
<pdfrwt beam="2">  1       21 0.34979724E+00 0.10699273E+03</pdfrwt>
<totfact> 0.92022429E+04</totfact>
</mgrwt>
</event>
<event>
 4    1  0.6158309E+003  0.1044477E+03  0.7546771E-02  0.1271212E+00
         21   -1    0    0  502  501  0.00000000000E+00  0.00000000000E+00  0.14522660720E+03  0.14522660720E+03  0.00000000000E+00 0. -1.
         21   -1    0    0  503  502 -0.00000000000E+00 -0.00000000000E+00 -0.10906069151E+03  0.10906069151E+03  0.00000000000E+00 0. -1.
         21    1    1    2  503  504 -0.77792322429E+02 -0.69696968840E+02 -0.52846351514E+02  0.11705575493E+03  0.00000000000E+00 0. -1.
         21    1    1    2  504  501  0.77792322429E+02  0.69696968840E+02  0.89012267202E+02  0.13723154378E+03  0.00000000000E+00 0. -1.
<mgrwt>
<rscale>  2 0.10444766E+03</rscale>
<asrwt>0</asrwt>
<pdfrwt beam="1">  1       21 0.22342555E-01 0.10444766E+03</pdfrwt>
<pdfrwt beam="2">  1       21 0.16778568E-01 0.10444766E+03</pdfrwt>
<totfact> 0.60305085E+05</totfact>
</mgrwt>
</event>
<event>
 4    1  0.6158309E+003  0.1056402E+03  0.7546771E-02  0.1268863E+00
         21   -1    0    0  502  501  0.00000000000E+00  0.00000000000E+00  0.38974199981E+02  0.38974199981E+02  0.00000000000E+00 0.  1.
         21   -1    0    0  503  502 -0.00000000000E+00 -0.00000000000E+00 -0.28769829842E+03  0.28769829842E+03  0.00000000000E+00 0.  1.
         21    1    1    2  503  504  0.50473988077E+02 -0.92802091226E+02 -0.11313677677E+03  0.15478947595E+03  0.00000000000E+00 0.  1.
         21    1    1    2  504  501 -0.50473988077E+02  0.92802091226E+02 -0.13558732168E+03  0.17188302245E+03  0.00000000000E+00 0.  1.
<mgrwt>
<rscale>  2 0.10564020E+03</rscale>
<asrwt>0</asrwt>
<pdfrwt beam="1">  1       21 0.59960307E-02 0.10564020E+03</pdfrwt>
<pdfrwt beam="2">  1       21 0.44261277E-01 0.10564020E+03</pdfrwt>
<totfact> 0.96818414E+05</totfact>
</mgrwt>
</event>
<event>
 4    1  0.6158309E+003  0.1081747E+03  0.7546771E-02  0.1263988E+00
         21   -1    0    0  503  501  0.00000000000E+00  0.00000000000E+00  0.21877792991E+04  0.21877792991E+04  0.00000000000E+00 0.  1.
         21   -1    0    0  501  502 -0.00000000000E+00 -0.00000000000E+00 -0.54404505377E+01  0.54404505377E+01  0.00000000000E+00 0.  1.
         21    1    1    2  503  504 -0.74741889053E+02  0.78201106544E+02  0.94875561263E+03  0.95490260003E+03  0.00000000000E+00 0.  1.
         21    1    1    2  504  502  0.74741889053E+02 -0.78201106544E+02  0.12335832360E+04  0.12383171496E+04  0.00000000000E+00 0.  1.
<mgrwt>
<rscale>  2 0.10817469E+03</rscale>
<asrwt>0</asrwt>
<pdfrwt beam="1">  1       21 0.33658073E+00 0.10817469E+03</pdfrwt>
<pdfrwt beam="2">  1       21 0.83699414E-03 0.10817469E+03</pdfrwt>
<totfact> 0.11456862E+05</totfact>
</mgrwt>
</event>
<event>
 4    1  0.6158309E+003  0.1182762E+03  0.7546771E-02  0.1245968E+00
         21   -1    0    0  504  501  0.00000000000E+00  0.00000000000E+00  0.32832305172E+02  0.32832305172E+02  0.00000000000E+00 0.  1.
         21   -1    0    0  503  502 -0.00000000000E+00 -0.00000000000E+00 -0.56796629854E+03  0.56796629854E+03  0.00000000000E+00 0.  1.
         21    1    1    2  503  501  0.93093227502E+02  0.72958242712E+02 -0.41770989926E+03  0.43413225419E+03  0.00000000000E+00 0.  1.
         21    1    1    2  504  502 -0.93093227502E+02 -0.72958242712E+02 -0.11742409411E+03  0.16666634952E+03  0.00000000000E+00 0.  1.
<mgrwt>
<rscale>  2 0.11827618E+03</rscale>
<asrwt>0</asrwt>
<pdfrwt beam="1">  1       21 0.50511244E-02 0.11827618E+03</pdfrwt>
<pdfrwt beam="2">  1       21 0.87379421E-01 0.11827618E+03</pdfrwt>
<totfact> 0.30277642E+05</totfact>
</mgrwt>
</event>
<event>
 4    1  0.6158309E+003  0.1106437E+03  0.7546771E-02  0.1259383E+00
         21   -1    0    0  503  501  0.00000000000E+00  0.00000000000E+00  0.14789224433E+02  0.14789224433E+02  0.00000000000E+00 0.  1.
         21   -1    0    0  504  502 -0.00000000000E+00 -0.00000000000E+00 -0.83201980447E+03  0.83201980447E+03  0.00000000000E+00 0.  1.
         21    1    1    2  503  502  0.10049314455E+03  0.46294172652E+02 -0.43888852792E+03  0.45262032927E+03  0.00000000000E+00 0.  1.
         21    1    1    2  504  501 -0.10049314455E+03 -0.46294172652E+02 -0.37834205212E+03  0.39418869964E+03  0.00000000000E+00 0.  1.
<mgrwt>
<rscale>  2 0.11064367E+03</rscale>
<asrwt>0</asrwt>
<pdfrwt beam="1">  1       21 0.22752651E-02 0.11064367E+03</pdfrwt>
<pdfrwt beam="2">  1       21 0.12800306E+00 0.11064367E+03</pdfrwt>
<totfact> 0.45703569E+05</totfact>
</mgrwt>
</event>
<event>
 4    1  0.6158309E+003  0.1578080E+03  0.7546771E-02  0.1191194E+00
         21   -1    0    0  504  501  0.00000000000E+00  0.00000000000E+00  0.50673635846E+03  0.50673635846E+03  0.00000000000E+00 0. -1.
         21   -1    0    0  501  502 -0.00000000000E+00 -0.00000000000E+00 -0.65066616033E+02  0.65066616033E+02  0.00000000000E+00 0. -1.
         21    1    1    2  503  502 -0.25007883480E+02 -0.15581386951E+03  0.79406572052E+02  0.17666001204E+03  0.00000000000E+00 0. -1.
         21    1    1    2  504  503  0.25007883480E+02  0.15581386951E+03  0.36226317037E+03  0.39514296245E+03  0.00000000000E+00 0. -1.
<mgrwt>
<rscale>  2 0.15780797E+03</rscale>
<asrwt>0</asrwt>
<pdfrwt beam="1">  1       21 0.77959437E-01 0.15780797E+03</pdfrwt>
<pdfrwt beam="2">  1       21 0.10010249E-01 0.15780797E+03</pdfrwt>
<totfact> 0.11967458E+05</totfact>
</mgrwt>
</event>
<event>
 4    1  0.6158309E+003  0.1009654E+03  0.7546771E-02  0.1278279E+00
         21   -1    0    0  502  501  0.00000000000E+00  0.00000000000E+00  0.96380636137E+02  0.96380636137E+02  0.00000000000E+00 0. -1.
         21   -1    0    0  504  502 -0.00000000000E+00 -0.00000000000E+00 -0.28422369137E+03  0.28422369137E+03  0.00000000000E+00 0. -1.
         21    1    1    2  503  501 -0.39567704104E+02  0.92889185658E+02  0.56870567982E+02  0.11588039318E+03  0.00000000000E+00 0. -1.
         21    1    1    2  504  503  0.39567704104E+02 -0.92889185658E+02 -0.24471362322E+03  0.26472393433E+03  0.00000000000E+00 0. -1.
<mgrwt>
<rscale>  2 0.10096536E+03</rscale>
<asrwt>0</asrwt>
<pdfrwt beam="1">  1       21 0.14827790E-01 0.10096536E+03</pdfrwt>
<pdfrwt beam="2">  1       21 0.43726722E-01 0.10096536E+03</pdfrwt>
<totfact> 0.20645030E+05</totfact>
</mgrwt>
</event>
<event>
 4    1  0.6158309E+003  0.1281309E+03  0.7546771E-02  0.1230256E+00
         21   -1    0    0  504  501  0.00000000000E+00  0.00000000000E+00  0.15852499972E+03  0.15852499972E+03  0.00000000000E+00 0. -1.
         21   -1    0    0  503  502 -0.00000000000E+00 -0.00000000000E+00 -0.22382835279E+03  0.22382835279E+03  0.00000000000E+00 0.  1.
         21    1    1    2  503  501 -0.10762437740E+03  0.69530705323E+02  0.10748290868E+03  0.16724264185E+03  0.00000000000E+00 0. -1.
         21    1    1    2  504  502  0.10762437740E+03 -0.69530705323E+02 -0.17278626175E+03  0.21511071067E+03  0.00000000000E+00 0.  1.
<mgrwt>
<rscale>  2 0.12813089E+03</rscale>
<asrwt>0</asrwt>
<pdfrwt beam="1">  1       21 0.24388462E-01 0.12813089E+03</pdfrwt>
<pdfrwt beam="2">  1       21 0.34435131E-01 0.12813089E+03</pdfrwt>
<totfact> 0.13192437E+05</totfact>
</mgrwt>
</event>
<event>
 4    1  0.6158309E+003  0.1299734E+03  0.7546771E-02  0.1227495E+00
         21   -1    0    0  503  501  0.00000000000E+00  0.00000000000E+00  0.60928880834E+03  0.60928880834E+03  0.00000000000E+00 0. -1.
         21   -1    0    0  501  502 -0.00000000000E+00 -0.00000000000E+00 -0.64891345912E+02  0.64891345912E+02  0.00000000000E+00 0. -1.
         21    1    1    2  503  504  0.35708844044E+02 -0.12497186939E+03  0.52730560694E+03  0.54308773950E+03  0.00000000000E+00 0. -1.
         21    1    1    2  504  502 -0.35708844044E+02  0.12497186939E+03  0.17091855479E+02  0.13109241475E+03  0.00000000000E+00 0. -1.
<mgrwt>
<rscale>  2 0.12997342E+03</rscale>
<asrwt>0</asrwt>
<pdfrwt beam="1">  1       21 0.93736736E-01 0.12997342E+03</pdfrwt>
<pdfrwt beam="2">  1       21 0.99832844E-02 0.12997342E+03</pdfrwt>
<totfact> 0.80024977E+04</totfact>
</mgrwt>
</event>
<event>
 4    1  0.6158309E+003  0.1540668E+03  0.7546771E-02  0.1195563E+00
         21   -1    0    0  503  501  0.00000000000E+00  0.00000000000E+00  0.10753556041E+03  0.10753556041E+03  0.00000000000E+00 0. -1.
         21   -1    0    0  504  502 -0.00000000000E+00 -0.00000000000E+00 -0.81759305818E+03  0.81759305818E+03  0.00000000000E+00 0. -1.
         21    1    1    2  503  502 -0.12636451190E+03  0.88139569337E+02 -0.75024976376E+03  0.76590553045E+03  0.00000000000E+00 0. -1.
         21    1    1    2  504  501  0.12636451190E+03 -0.88139569337E+02  0.40192265994E+02  0.15922308814E+03  0.00000000000E+00 0. -1.
<mgrwt>
<rscale>  2 0.15406678E+03</rscale>
<asrwt>0</asrwt>
<pdfrwt beam="1">  1       21 0.16543933E-01 0.15406678E+03</pdfrwt>
<pdfrwt beam="2">  1       21 0.12578354E+00 0.15406678E+03</pdfrwt>
<totfact> 0.15829775E+04</totfact>
</mgrwt>
</event>
<event>
 4    1  0.6158309E+003  0.1073555E+03  0.7546771E-02  0.1265547E+00
         21   -1    0    0  504  501  0.00000000000E+00  0.00000000000E+00  0.11525042398E+03  0.11525042398E+03  0.00000000000E+00 0.  1.
         21   -1    0    0  503  502 -0.00000000000E+00 -0.00000000000E+00 -0.68618608569E+03  0.68618608569E+03  0.00000000000E+00 0. -1.
         21    1    1    2  503  501 -0.97089413903E+02  0.45813310633E+02  0.84901805941E+02  0.13687048760E+03  0.00000000000E+00 0.  1.
         21    1    1    2  504  502  0.97089413903E+02 -0.45813310633E+02 -0.65583746765E+03  0.66456602207E+03  0.00000000000E+00 0. -1.
<mgrwt>
<rscale>  2 0.10735555E+03</rscale>
<asrwt>0</asrwt>
<pdfrwt beam="1">  1       21 0.17730835E-01 0.10735555E+03</pdfrwt>
<pdfrwt beam="2">  1       21 0.10556709E+00 0.10735555E+03</pdfrwt>
<totfact> 0.22123194E+04</totfact>
</mgrwt>
</event>
<event>
 4    1  0.6158309E+003  0.2436453E+03  0.7546771E-02  0.1117388E+00
         21   -1    0    0  503  501  0.00000000000E+00  0.00000000000E+00  0.33153981475E+03  0.33153981475E+03  0.00000000000E+00 0. -1.
         21   -1    0    0  504  502 -0.00000000000E+00 -0.00000000000E+00 -0.28658321842E+03  0.28658321842E+03  0.00000000000E+00 0. -1.
         21    1    1    2  503  502 -0.21214345432E+03 -0.11982566108E+03  0.21179364333E+03  0.32283057727E+03  0.00000000000E+00 0. -1.
         21    1    1    2  504  501  0.21214345432E+03  0.11982566108E+03 -0.16683704700E+03  0.29529245591E+03  0.00000000000E+00 0. -1.
<mgrwt>
<rscale>  2 0.24364530E+03</rscale>
<asrwt>0</asrwt>
<pdfrwt beam="1">  1       21 0.51006125E-01 0.24364530E+03</pdfrwt>
<pdfrwt beam="2">  1       21 0.44089726E-01 0.24364530E+03</pdfrwt>
<totfact> 0.17546632E+04</totfact>
</mgrwt>
</event>
<event>
 4    1  0.6158309E+003  0.1012789E+03  0.7546771E-02  0.1277629E+00
         21   -1    0    0  503  501  0.00000000000E+00  0.00000000000E+00  0.20066408151E+04  0.20066408151E+04  0.00000000000E+00 0.  1.
         21   -1    0    0  504  502 -0.00000000000E+00 -0.00000000000E+00 -0.77851771047E+01  0.77851771047E+01  0.00000000000E+00 0.  1.
         21    1    1    2  503  502  0.10063099604E+03  0.11437788069E+02  0.40919644447E+03  0.42154377060E+03  0.00000000000E+00 0.  1.
         21    1    1    2  504  501 -0.10063099604E+03 -0.11437788069E+02  0.15896591935E+04  0.15928822216E+04  0.00000000000E+00 0.  1.
<mgrwt>
<rscale>  2 0.10127892E+03</rscale>
<asrwt>0</asrwt>
<pdfrwt beam="1">  1       21 0.30871356E+00 0.10127892E+03</pdfrwt>
<pdfrwt beam="2">  1       21 0.11977211E-02 0.10127892E+03</pdfrwt>
<totfact> 0.94423657E+04</totfact>
</mgrwt>
</event>
<event>
 4    1  0.6158309E+003  0.1019493E+03  0.7546771E-02  0.1276249E+00
         21   -1    0    0  504  501  0.00000000000E+00  0.00000000000E+00  0.15801102897E+03  0.15801102897E+03  0.00000000000E+00 0.  1.
         21   -1    0    0  503  502 -0.00000000000E+00 -0.00000000000E+00 -0.12711199507E+03  0.12711199507E+03  0.00000000000E+00 0.  1.
         21    1    1    2  503  501 -0.76247127678E+02  0.67675990897E+02  0.11447781647E+03  0.15329329629E+03  0.00000000000E+00 0.  1.
         21    1    1    2  504  502  0.76247127678E+02 -0.67675990897E+02 -0.83578782573E+02  0.13182972775E+03  0.00000000000E+00 0.  1.
<mgrwt>
<rscale>  2 0.10194932E+03</rscale>
<asrwt>0</asrwt>
<pdfrwt beam="1">  1       21 0.24309389E-01 0.10194932E+03</pdfrwt>
<pdfrwt beam="2">  1       21 0.19555691E-01 0.10194932E+03</pdfrwt>
<totfact> 0.38989528E+05</totfact>
</mgrwt>
</event>
<event>
 4    1  0.6158309E+003  0.1015418E+03  0.7546771E-02  0.1277087E+00
         21   -1    0    0  504  501  0.00000000000E+00  0.00000000000E+00  0.57347002395E+02  0.57347002395E+02  0.00000000000E+00 0. -1.
         21   -1    0    0  503  502 -0.00000000000E+00 -0.00000000000E+00 -0.40921130401E+03  0.40921130401E+03  0.00000000000E+00 0.  1.
         21    1    1    2  503  501 -0.61715415626E+02 -0.80634667864E+02 -0.12640359314E+01  0.10154969214E+03  0.00000000000E+00 0. -1.
         21    1    1    2  504  502  0.61715415626E+02  0.80634667864E+02 -0.35060026568E+03  0.36500861426E+03  0.00000000000E+00 0.  1.
<mgrwt>
<rscale>  2 0.10154182E+03</rscale>
<asrwt>0</asrwt>
<pdfrwt beam="1">  1       21 0.88226161E-02 0.10154182E+03</pdfrwt>
<pdfrwt beam="2">  1       21 0.62955583E-01 0.10154182E+03</pdfrwt>
<totfact> 0.24188438E+05</totfact>
</mgrwt>
</event>
<event>
 4    1  0.6158309E+003  0.1039815E+03  0.7546771E-02  0.1272139E+00
         21   -1    0    0  503  501  0.00000000000E+00  0.00000000000E+00  0.78865428716E+02  0.78865428716E+02  0.00000000000E+00 0.  1.
         21   -1    0    0  504  502 -0.00000000000E+00 -0.00000000000E+00 -0.18539636777E+03  0.18539636777E+03  0.00000000000E+00 0.  1.
         21    1    1    2  503  502  0.79444289186E+02  0.67087624481E+02 -0.12070715986E+03  0.15931843234E+03  0.00000000000E+00 0.  1.
         21    1    1    2  504  501 -0.79444289186E+02 -0.67087624481E+02  0.14176220800E+02  0.10494336415E+03  0.00000000000E+00 0.  1.
<mgrwt>
<rscale>  2 0.10398146E+03</rscale>
<asrwt>0</asrwt>
<pdfrwt beam="1">  1       21 0.12133143E-01 0.10398146E+03</pdfrwt>
<pdfrwt beam="2">  1       21 0.28522518E-01 0.10398146E+03</pdfrwt>
<totfact> 0.67953701E+05</totfact>
</mgrwt>
</event>
<event>
 4    1  0.6158309E+003  0.1827865E+03  0.7546771E-02  0.1165133E+00
         21   -1    0    0  502  501  0.00000000000E+00  0.00000000000E+00  0.92294909290E+03  0.92294909290E+03  0.00000000000E+00 0. -1.
         21   -1    0    0  504  502 -0.00000000000E+00 -0.00000000000E+00 -0.78565652914E+02  0.78565652914E+02  0.00000000000E+00 0. -1.
         21    1    1    2  503  501 -0.98527103233E+02  0.15395879473E+03  0.78991163071E+03  0.81078436398E+03  0.00000000000E+00 0. -1.
         21    1    1    2  504  503  0.98527103233E+02 -0.15395879473E+03  0.54471809274E+02  0.19073038183E+03  0.00000000000E+00 0. -1.
<mgrwt>
<rscale>  2 0.18278649E+03</rscale>
<asrwt>0</asrwt>
<pdfrwt beam="1">  1       21 0.14199216E+00 0.18278649E+03</pdfrwt>
<pdfrwt beam="2">  1       21 0.12087024E-01 0.18278649E+03</pdfrwt>
<totfact> 0.20114619E+04</totfact>
</mgrwt>
</event>
<event>
 4    1  0.6158309E+003  0.1265066E+03  0.7546771E-02  0.1232733E+00
         21   -1    0    0  503  501  0.00000000000E+00  0.00000000000E+00  0.81313474757E+03  0.81313474757E+03  0.00000000000E+00 0.  1.
         21   -1    0    0  504  502 -0.00000000000E+00 -0.00000000000E+00 -0.27457983010E+02  0.27457983010E+02  0.00000000000E+00 0.  1.
         21    1    1    2  503  502 -0.13391248435E+02 -0.12579583785E+03  0.61650739953E+03  0.62935307422E+03  0.00000000000E+00 0.  1.
         21    1    1    2  504  501  0.13391248435E+02  0.12579583785E+03  0.16916936503E+03  0.21123965636E+03  0.00000000000E+00 0.  1.
<mgrwt>
<rscale>  2 0.12650659E+03</rscale>
<asrwt>0</asrwt>
<pdfrwt beam="1">  1       21 0.12509764E+00 0.12650659E+03</pdfrwt>
<pdfrwt beam="2">  1       21 0.42243057E-02 0.12650659E+03</pdfrwt>
<totfact> 0.17451960E+05</totfact>
</mgrwt>
</event>
<event>
 4    1  0.6158309E+003  0.1107663E+03  0.7546771E-02  0.1259157E+00
         21   -1    0    0  504  501  0.00000000000E+00  0.00000000000E+00  0.61260361565E+03  0.61260361565E+03  0.00000000000E+00 0.  1.
         21   -1    0    0  501  502 -0.00000000000E+00 -0.00000000000E+00 -0.73678422441E+03  0.73678422441E+03  0.00000000000E+00 0. -1.
         21    1    1    2  503  502 -0.94408636891E+02 -0.57932596367E+02 -0.72755098216E+03  0.73593451345E+03  0.00000000000E+00 0. -1.
         21    1    1    2  504  503  0.94408636891E+02  0.57932596367E+02  0.60337037340E+03  0.61345332662E+03  0.00000000000E+00 0.  1.
<mgrwt>
<rscale>  2 0.11076631E+03</rscale>
<asrwt>0</asrwt>
<pdfrwt beam="1">  1       21 0.94246711E-01 0.11076631E+03</pdfrwt>
<pdfrwt beam="2">  1       21 0.11335142E+00 0.11076631E+03</pdfrwt>
<totfact> 0.64089604E+02</totfact>
</mgrwt>
</event>
<event>
 4    1  0.6158309E+003  0.1276416E+03  0.7546771E-02  0.1230998E+00
         21   -1    0    0  504  501  0.00000000000E+00  0.00000000000E+00  0.16652497604E+04  0.16652497604E+04  0.00000000000E+00 0.  1.
         21   -1    0    0  503  502 -0.00000000000E+00 -0.00000000000E+00 -0.12501222238E+02  0.12501222238E+02  0.00000000000E+00 0.  1.
         21    1    1    2  503  501 -0.12353365480E+03 -0.32121917128E+02  0.43525959530E+03  0.45358934812E+03  0.00000000000E+00 0.  1.
         21    1    1    2  504  502  0.12353365480E+03  0.32121917128E+02  0.12174889429E+04  0.12241616345E+04  0.00000000000E+00 0.  1.
<mgrwt>
<rscale>  2 0.12764161E+03</rscale>
<asrwt>0</asrwt>
<pdfrwt beam="1">  1       21 0.25619210E+00 0.12764161E+03</pdfrwt>
<pdfrwt beam="2">  1       21 0.19232663E-02 0.12764161E+03</pdfrwt>
<totfact> 0.84598897E+04</totfact>
</mgrwt>
</event>
<event>
 4    1  0.6158309E+003  0.1031762E+03  0.7546771E-02  0.1273755E+00
         21   -1    0    0  502  501  0.00000000000E+00  0.00000000000E+00  0.29040137854E+03  0.29040137854E+03  0.00000000000E+00 0. -1.
         21   -1    0    0  503  502 -0.00000000000E+00 -0.00000000000E+00 -0.23638275102E+03  0.23638275102E+03  0.00000000000E+00 0. -1.
         21    1    1    2  503  504 -0.15913630800E+02  0.10194162095E+03 -0.21509998706E+03  0.23856517382E+03  0.00000000000E+00 0. -1.
         21    1    1    2  504  501  0.15913630800E+02 -0.10194162095E+03  0.26911861459E+03  0.28821895573E+03  0.00000000000E+00 0. -1.
<mgrwt>
<rscale>  2 0.10317625E+03</rscale>
<asrwt>0</asrwt>
<pdfrwt beam="1">  1       21 0.44677135E-01 0.10317625E+03</pdfrwt>
<pdfrwt beam="2">  1       21 0.36366577E-01 0.10317625E+03</pdfrwt>
<totfact> 0.36968457E+04</totfact>
</mgrwt>
</event>
<event>
 4    1  0.6158309E+003  0.1020116E+03  0.7546771E-02  0.1276122E+00
         21   -1    0    0  503  501  0.00000000000E+00  0.00000000000E+00  0.51796371626E+02  0.51796371626E+02  0.00000000000E+00 0.  1.
         21   -1    0    0  504  502 -0.00000000000E+00 -0.00000000000E+00 -0.16549161716E+04  0.16549161716E+04  0.00000000000E+00 0. -1.
         21    1    1    2  503  502 -0.73472103159E+02  0.70768819675E+02 -0.16014413137E+04  0.16046870900E+04  0.00000000000E+00 0. -1.
         21    1    1    2  504  501  0.73472103159E+02 -0.70768819675E+02 -0.16784862910E+01  0.10202545318E+03  0.00000000000E+00 0.  1.
<mgrwt>
<rscale>  2 0.10201165E+03</rscale>
<asrwt>0</asrwt>
<pdfrwt beam="1">  1       21 0.79686734E-02 0.10201165E+03</pdfrwt>
<pdfrwt beam="2">  1       21 0.25460246E+00 0.10201165E+03</pdfrwt>
<totfact> 0.84711702E+03</totfact>
</mgrwt>
</event>
<event>
 4    1  0.6158309E+003  0.1284008E+03  0.7546771E-02  0.1229848E+00
         21   -1    0    0  503  501  0.00000000000E+00  0.00000000000E+00  0.85715613161E+03  0.85715613161E+03  0.00000000000E+00 0. -1.
         21   -1    0    0  501  502 -0.00000000000E+00 -0.00000000000E+00 -0.19937446669E+03  0.19937446669E+03  0.00000000000E+00 0. -1.
         21    1    1    2  503  504  0.60720305930E+02 -0.11313624816E+03  0.83102831316E+03  0.84088930512E+03  0.00000000000E+00 0. -1.
         21    1    1    2  504  502 -0.60720305930E+02  0.11313624816E+03 -0.17324664824E+03  0.21564129318E+03  0.00000000000E+00 0. -1.
<mgrwt>
<rscale>  2 0.12840080E+03</rscale>
<asrwt>0</asrwt>
<pdfrwt beam="1">  1       21 0.13187017E+00 0.12840080E+03</pdfrwt>
<pdfrwt beam="2">  1       21 0.30672995E-01 0.12840080E+03</pdfrwt>
<totfact> 0.45239512E+03</totfact>
</mgrwt>
</event>
<event>
 4    1  0.6158309E+003  0.1097928E+03  0.7546771E-02  0.1260954E+00
         21   -1    0    0  503  501  0.00000000000E+00  0.00000000000E+00  0.73672680612E+03  0.73672680612E+03  0.00000000000E+00 0. -1.
         21   -1    0    0  501  502 -0.00000000000E+00 -0.00000000000E+00 -0.17104964048E+02  0.17104964048E+02  0.00000000000E+00 0. -1.
         21    1    1    2  503  504  0.47123580347E+02  0.99165628915E+02  0.43835541849E+03  0.45189592464E+03  0.00000000000E+00 0. -1.
         21    1    1    2  504  502 -0.47123580347E+02 -0.99165628915E+02  0.28126642358E+03  0.30193584553E+03  0.00000000000E+00 0. -1.
<mgrwt>
<rscale>  2 0.10979278E+03</rscale>
<asrwt>0</asrwt>
<pdfrwt beam="1">  1       21 0.11334256E+00 0.10979278E+03</pdfrwt>
<pdfrwt beam="2">  1       21 0.26315335E-02 0.10979278E+03</pdfrwt>
<totfact> 0.48516928E+05</totfact>
</mgrwt>
</event>
<event>
 4    1  0.6158309E+003  0.1056458E+03  0.7546771E-02  0.1268852E+00
         21   -1    0    0  503  501  0.00000000000E+00  0.00000000000E+00  0.21509225184E+04  0.21509225184E+04  0.00000000000E+00 0. -1.
         21   -1    0    0  504  502 -0.00000000000E+00 -0.00000000000E+00 -0.94602126589E+01  0.94602126589E+01  0.00000000000E+00 0.  1.
         21    1    1    2  503  502  0.93568836119E+02  0.49050074049E+02  0.34491234933E+03  0.36072921364E+03  0.00000000000E+00 0.  1.
         21    1    1    2  504  501 -0.93568836119E+02 -0.49050074049E+02  0.17965499564E+04  0.17996535174E+04  0.00000000000E+00 0. -1.
<mgrwt>
<rscale>  2 0.10564581E+03</rscale>
<asrwt>0</asrwt>
<pdfrwt beam="1">  1       21 0.33091077E+00 0.10564581E+03</pdfrwt>
<pdfrwt beam="2">  1       21 0.14554190E-02 0.10564581E+03</pdfrwt>
<totfact> 0.51827105E+04</totfact>
</mgrwt>
</event>
<event>
 4    1  0.6158309E+003  0.1092057E+03  0.7546771E-02  0.1262048E+00
         21   -1    0    0  503  501  0.00000000000E+00  0.00000000000E+00  0.39196721231E+02  0.39196721231E+02  0.00000000000E+00 0.  1.
         21   -1    0    0  501  502 -0.00000000000E+00 -0.00000000000E+00 -0.37967015020E+03  0.37967015020E+03  0.00000000000E+00 0.  1.
         21    1    1    2  503  504  0.94612645122E+02  0.54537340012E+02 -0.76896986083E+02  0.13356279625E+03  0.00000000000E+00 0.  1.
         21    1    1    2  504  502 -0.94612645122E+02 -0.54537340012E+02 -0.26357644289E+03  0.28530407519E+03  0.00000000000E+00 0.  1.
<mgrwt>
<rscale>  2 0.10920565E+03</rscale>
<asrwt>0</asrwt>
<pdfrwt beam="1">  1       21 0.60302648E-02 0.10920565E+03</pdfrwt>
<pdfrwt beam="2">  1       21 0.58410792E-01 0.10920565E+03</pdfrwt>
<totfact> 0.54185985E+05</totfact>
</mgrwt>
</event>
<event>
 4    1  0.6158309E+003  0.1207607E+03  0.7546771E-02  0.1241847E+00
         21   -1    0    0  504  501  0.00000000000E+00  0.00000000000E+00  0.58735831819E+02  0.58735831819E+02  0.00000000000E+00 0. -1.
         21   -1    0    0  503  502 -0.00000000000E+00 -0.00000000000E+00 -0.33945114239E+03  0.33945114239E+03  0.00000000000E+00 0. -1.
         21    1    1    2  503  501  0.11197863587E+03 -0.45209950103E+02 -0.24353589295E+03  0.27183245876E+03  0.00000000000E+00 0. -1.
         21    1    1    2  504  502 -0.11197863587E+03  0.45209950103E+02 -0.37179417621E+02  0.12635451545E+03  0.00000000000E+00 0. -1.
<mgrwt>
<rscale>  2 0.12076073E+03</rscale>
<asrwt>0</asrwt>
<pdfrwt beam="1">  1       21 0.90362816E-02 0.12076073E+03</pdfrwt>
<pdfrwt beam="2">  1       21 0.52223254E-01 0.12076073E+03</pdfrwt>
<totfact> 0.34216894E+05</totfact>
</mgrwt>
</event>
<event>
 4    1  0.6158309E+003  0.1051187E+03  0.7546771E-02  0.1269886E+00
         21   -1    0    0  504  501  0.00000000000E+00  0.00000000000E+00  0.21359281311E+02  0.21359281311E+02  0.00000000000E+00 0. -1.
         21   -1    0    0  501  502 -0.00000000000E+00 -0.00000000000E+00 -0.56289438636E+03  0.56289438636E+03  0.00000000000E+00 0. -1.
         21    1    1    2  503  502  0.10337980925E+03  0.19040930269E+02 -0.35387470538E+03  0.36915748549E+03  0.00000000000E+00 0. -1.
         21    1    1    2  504  503 -0.10337980925E+03 -0.19040930269E+02 -0.18766039967E+03  0.21509618219E+03  0.00000000000E+00 0. -1.
<mgrwt>
<rscale>  2 0.10511870E+03</rscale>
<asrwt>0</asrwt>
<pdfrwt beam="1">  1       21 0.32860438E-02 0.10511870E+03</pdfrwt>
<pdfrwt beam="2">  1       21 0.86599123E-01 0.10511870E+03</pdfrwt>
<totfact> 0.63120471E+05</totfact>
</mgrwt>
</event>
<event>
 4    1  0.6158309E+003  0.1035941E+03  0.7546771E-02  0.1272915E+00
         21   -1    0    0  504  501  0.00000000000E+00  0.00000000000E+00  0.97741097101E+03  0.97741097101E+03  0.00000000000E+00 0.  1.
         21   -1    0    0  501  502 -0.00000000000E+00 -0.00000000000E+00 -0.64133213720E+03  0.64133213720E+03  0.00000000000E+00 0.  1.
         21    1    1    2  503  502 -0.68717039481E+02  0.77522344118E+02 -0.63437390458E+03  0.64277678564E+03  0.00000000000E+00 0.  1.
         21    1    1    2  504  503  0.68717039481E+02 -0.77522344118E+02  0.97045273839E+03  0.97596632257E+03  0.00000000000E+00 0.  1.
<mgrwt>
<rscale>  2 0.10359414E+03</rscale>
<asrwt>0</asrwt>
<pdfrwt beam="1">  1       21 0.15037092E+00 0.10359414E+03</pdfrwt>
<pdfrwt beam="2">  1       21 0.98666483E-01 0.10359414E+03</pdfrwt>
<totfact> 0.29066817E+02</totfact>
</mgrwt>
</event>
<event>
 4    1  0.6158309E+003  0.1042127E+03  0.7546771E-02  0.1271679E+00
         21   -1    0    0  504  501  0.00000000000E+00  0.00000000000E+00  0.59480780453E+03  0.59480780453E+03  0.00000000000E+00 0. -1.
         21   -1    0    0  503  502 -0.00000000000E+00 -0.00000000000E+00 -0.61517099704E+02  0.61517099704E+02  0.00000000000E+00 0. -1.
         21    1    1    2  503  501  0.61154545888E+02  0.84382474525E+02  0.54183198955E+03  0.55176279812E+03  0.00000000000E+00 0. -1.
         21    1    1    2  504  502 -0.61154545888E+02 -0.84382474525E+02 -0.85412847273E+01  0.10456210611E+03  0.00000000000E+00 0. -1.
<mgrwt>
<rscale>  2 0.10421267E+03</rscale>
<asrwt>0</asrwt>
<pdfrwt beam="1">  1       21 0.91508889E-01 0.10421267E+03</pdfrwt>
<pdfrwt beam="2">  1       21 0.94641696E-02 0.10421267E+03</pdfrwt>
<totfact> 0.94034872E+04</totfact>
</mgrwt>
</event>
<event>
 4    1  0.6158309E+003  0.1229769E+03  0.7546771E-02  0.1238265E+00
         21   -1    0    0  503  501  0.00000000000E+00  0.00000000000E+00  0.28120924971E+02  0.28120924971E+02  0.00000000000E+00 0.  1.
         21   -1    0    0  504  502 -0.00000000000E+00 -0.00000000000E+00 -0.83491890578E+03  0.83491890578E+03  0.00000000000E+00 0. -1.
         21    1    1    2  503  502 -0.77523849062E+02 -0.95463959580E+02 -0.66082173990E+03  0.67216715680E+03  0.00000000000E+00 0. -1.
         21    1    1    2  504  501  0.77523849062E+02  0.95463959580E+02 -0.14597624091E+03  0.19087267395E+03  0.00000000000E+00 0.  1.
<mgrwt>
<rscale>  2 0.12297689E+03</rscale>
<asrwt>0</asrwt>
<pdfrwt beam="1">  1       21 0.43262970E-02 0.12297689E+03</pdfrwt>
<pdfrwt beam="2">  1       21 0.12844904E+00 0.12297689E+03</pdfrwt>
<totfact> 0.15734494E+05</totfact>
</mgrwt>
</event>
<event>
 4    1  0.6158309E+003  0.1346889E+03  0.7546771E-02  0.1220660E+00
         21   -1    0    0  504  501  0.00000000000E+00  0.00000000000E+00  0.53983215932E+03  0.53983215932E+03  0.00000000000E+00 0. -1.
         21   -1    0    0  503  502 -0.00000000000E+00 -0.00000000000E+00 -0.33608524246E+02  0.33608524246E+02  0.00000000000E+00 0.  1.
         21    1    1    2  503  501 -0.13084084667E+03  0.31965076288E+02  0.25020174505E+03  0.28415137952E+03  0.00000000000E+00 0. -1.
         21    1    1    2  504  502  0.13084084667E+03 -0.31965076288E+02  0.25602189003E+03  0.28928930404E+03  0.00000000000E+00 0.  1.
<mgrwt>
<rscale>  2 0.13468888E+03</rscale>
<asrwt>0</asrwt>
<pdfrwt beam="1">  1       21 0.83051095E-01 0.13468888E+03</pdfrwt>
<pdfrwt beam="2">  1       21 0.51705426E-02 0.13468888E+03</pdfrwt>
<totfact> 0.32538829E+05</totfact>
</mgrwt>
</event>
<event>
 4    1  0.6158309E+003  0.1152373E+03  0.7546771E-02  0.1251167E+00
         21   -1    0    0  504  501  0.00000000000E+00  0.00000000000E+00  0.56843509716E+03  0.56843509716E+03  0.00000000000E+00 0.  1.
         21   -1    0    0  503  502 -0.00000000000E+00 -0.00000000000E+00 -0.11245100439E+03  0.11245100439E+03  0.00000000000E+00 0.  1.
         21    1    1    2  503  501 -0.11422906639E+03 -0.15210554478E+02  0.53101495186E+03  0.54337511875E+03  0.00000000000E+00 0.  1.
         21    1    1    2  504  502  0.11422906639E+03  0.15210554478E+02 -0.75030859093E+02  0.13751098280E+03  0.00000000000E+00 0.  1.
<mgrwt>
<rscale>  2 0.11523732E+03</rscale>
<asrwt>0</asrwt>
<pdfrwt beam="1">  1       21 0.87451552E-01 0.11523732E+03</pdfrwt>
<pdfrwt beam="2">  1       21 0.17300155E-01 0.11523732E+03</pdfrwt>
<totfact> 0.35509473E+04</totfact>
</mgrwt>
</event>
<event>
 4    1  0.6158309E+003  0.1242283E+03  0.7546771E-02  0.1236280E+00
         21   -1    0    0  503  501  0.00000000000E+00  0.00000000000E+00  0.75003649751E+02  0.75003649751E+02  0.00000000000E+00 0.  1.
         21   -1    0    0  501  502 -0.00000000000E+00 -0.00000000000E+00 -0.30805697283E+03  0.30805697283E+03  0.00000000000E+00 0.  1.
         21    1    1    2  503  504  0.39799546586E+02 -0.11768032160E+03 -0.61554265715E+01  0.12438067083E+03  0.00000000000E+00 0.  1.
         21    1    1    2  504  502 -0.39799546586E+02  0.11768032160E+03 -0.22689789651E+03  0.25867995176E+03  0.00000000000E+00 0.  1.
<mgrwt>
<rscale>  2 0.12422827E+03</rscale>
<asrwt>0</asrwt>
<pdfrwt beam="1">  1       21 0.11539023E-01 0.12422827E+03</pdfrwt>
<pdfrwt beam="2">  1       21 0.47393381E-01 0.12422827E+03</pdfrwt>
<totfact> 0.27223833E+05</totfact>
</mgrwt>
</event>
<event>
 4    1  0.6158309E+003  0.1168593E+03  0.7546771E-02  0.1248370E+00
         21   -1    0    0  503  501  0.00000000000E+00  0.00000000000E+00  0.33724273818E+03  0.33724273818E+03  0.00000000000E+00 0.  1.
         21   -1    0    0  501  502 -0.00000000000E+00 -0.00000000000E+00 -0.89512542589E+02  0.89512542589E+02  0.00000000000E+00 0.  1.
         21    1    1    2  503  504  0.72258641600E+02 -0.91841058023E+02  0.28176795882E+03  0.30503979058E+03  0.00000000000E+00 0.  1.
         21    1    1    2  504  502 -0.72258641600E+02  0.91841058023E+02 -0.34037763227E+02  0.12171549018E+03  0.00000000000E+00 0.  1.
<mgrwt>
<rscale>  2 0.11685928E+03</rscale>
<asrwt>0</asrwt>
<pdfrwt beam="1">  1       21 0.51883497E-01 0.11685928E+03</pdfrwt>
<pdfrwt beam="2">  1       21 0.13771161E-01 0.11685928E+03</pdfrwt>
<totfact> 0.16543463E+05</totfact>
</mgrwt>
</event>
<event>
 4    1  0.6158309E+003  0.1599639E+03  0.7546771E-02  0.1188738E+00
         21   -1    0    0  502  501  0.00000000000E+00  0.00000000000E+00  0.44677219997E+03  0.44677219997E+03  0.00000000000E+00 0.  1.
         21   -1    0    0  504  502 -0.00000000000E+00 -0.00000000000E+00 -0.46443229197E+03  0.46443229197E+03  0.00000000000E+00 0. -1.
         21    1    1    2  503  501  0.72996654648E+01  0.15979724734E+03  0.41775563811E+03  0.44733457115E+03  0.00000000000E+00 0.  1.
         21    1    1    2  504  503 -0.72996654648E+01 -0.15979724734E+03 -0.43541573012E+03  0.46386992078E+03  0.00000000000E+00 0. -1.
<mgrwt>
<rscale>  2 0.15996389E+03</rscale>
<asrwt>0</asrwt>
<pdfrwt beam="1">  1       21 0.68734185E-01 0.15996389E+03</pdfrwt>
<pdfrwt beam="2">  1       21 0.71451122E-01 0.15996389E+03</pdfrwt>
<totfact> 0.35164277E+03</totfact>
</mgrwt>
</event>
<event>
 4    1  0.6158309E+003  0.2165187E+03  0.7546771E-02  0.1136505E+00
         21   -1    0    0  503  501  0.00000000000E+00  0.00000000000E+00  0.12761305345E+04  0.12761305345E+04  0.00000000000E+00 0. -1.
         21   -1    0    0  504  502 -0.00000000000E+00 -0.00000000000E+00 -0.11318435895E+03  0.11318435895E+03  0.00000000000E+00 0.  1.
         21    1    1    2  503  502  0.17733286381E+03  0.12423131722E+03  0.11523738289E+04  0.11725381897E+04  0.00000000000E+00 0. -1.
         21    1    1    2  504  501 -0.17733286381E+03 -0.12423131722E+03  0.10572346619E+02  0.21677670372E+03  0.00000000000E+00 0.  1.
<mgrwt>
<rscale>  2 0.21651874E+03</rscale>
<asrwt>0</asrwt>
<pdfrwt beam="1">  1       21 0.19632776E+00 0.21651874E+03</pdfrwt>
<pdfrwt beam="2">  1       21 0.17412979E-01 0.21651874E+03</pdfrwt>
<totfact> 0.41415746E+03</totfact>
</mgrwt>
</event>
<event>
 4    1  0.6158309E+003  0.1479746E+03  0.7546771E-02  0.1202984E+00
         21   -1    0    0  504  501  0.00000000000E+00  0.00000000000E+00  0.47285427867E+03  0.47285427867E+03  0.00000000000E+00 0. -1.
         21   -1    0    0  503  502 -0.00000000000E+00 -0.00000000000E+00 -0.47556391139E+02  0.47556391139E+02  0.00000000000E+00 0. -1.
         21    1    1    2  503  501  0.10073172512E+03  0.10839555668E+03  0.17047387593E+03  0.22573838736E+03  0.00000000000E+00 0. -1.
         21    1    1    2  504  502 -0.10073172512E+03 -0.10839555668E+03  0.25482401160E+03  0.29467228245E+03  0.00000000000E+00 0. -1.
<mgrwt>
<rscale>  2 0.14797458E+03</rscale>
<asrwt>0</asrwt>
<pdfrwt beam="1">  1       21 0.72746809E-01 0.14797458E+03</pdfrwt>
<pdfrwt beam="2">  1       21 0.73163682E-02 0.14797458E+03</pdfrwt>
<totfact> 0.24138491E+05</totfact>
</mgrwt>
</event>
<event>
 4    1  0.6158309E+003  0.1172269E+03  0.7546771E-02  0.1247743E+00
         21   -1    0    0  503  501  0.00000000000E+00  0.00000000000E+00  0.86784614573E+02  0.86784614573E+02  0.00000000000E+00 0.  1.
         21   -1    0    0  504  502 -0.00000000000E+00 -0.00000000000E+00 -0.47919072799E+03  0.47919072799E+03  0.00000000000E+00 0. -1.
         21    1    1    2  503  502 -0.11231041809E+03 -0.33593312474E+02  0.35354864688E+02  0.12244226032E+03  0.00000000000E+00 0.  1.
         21    1    1    2  504  501  0.11231041809E+03  0.33593312474E+02 -0.42776097810E+03  0.44353308224E+03  0.00000000000E+00 0. -1.
<mgrwt>
<rscale>  2 0.11722688E+03</rscale>
<asrwt>0</asrwt>
<pdfrwt beam="1">  1       21 0.13351479E-01 0.11722688E+03</pdfrwt>
<pdfrwt beam="2">  1       21 0.73721651E-01 0.11722688E+03</pdfrwt>
<totfact> 0.82731922E+04</totfact>
</mgrwt>
</event>
<event>
 4    1  0.6158309E+003  0.1148963E+03  0.7546771E-02  0.1251762E+00
         21   -1    0    0  504  501  0.00000000000E+00  0.00000000000E+00  0.21600006988E+02  0.21600006988E+02  0.00000000000E+00 0.  1.
         21   -1    0    0  503  502 -0.00000000000E+00 -0.00000000000E+00 -0.66462242032E+03  0.66462242032E+03  0.00000000000E+00 0.  1.
         21    1    1    2  503  501 -0.16885263702E+02  0.11364879122E+03 -0.41882020355E+03  0.43429428131E+03  0.00000000000E+00 0.  1.
         21    1    1    2  504  502  0.16885263702E+02 -0.11364879122E+03 -0.22420220978E+03  0.25192814600E+03  0.00000000000E+00 0.  1.
<mgrwt>
<rscale>  2 0.11489630E+03</rscale>
<asrwt>0</asrwt>
<pdfrwt beam="1">  1       21 0.33230786E-02 0.11489630E+03</pdfrwt>
<pdfrwt beam="2">  1       21 0.10224958E+00 0.11489630E+03</pdfrwt>
<totfact> 0.42257228E+05</totfact>
</mgrwt>
</event>
<event>
 4    1  0.6158309E+003  0.1043493E+03  0.7546771E-02  0.1271407E+00
         21   -1    0    0  504  501  0.00000000000E+00  0.00000000000E+00  0.24213732895E+02  0.24213732895E+02  0.00000000000E+00 0. -1.
         21   -1    0    0  501  502 -0.00000000000E+00 -0.00000000000E+00 -0.78294313217E+03  0.78294313217E+03  0.00000000000E+00 0.  1.
         21    1    1    2  503  502  0.99269811208E+02  0.32160251914E+02 -0.64266246293E+03  0.65107896486E+03  0.00000000000E+00 0.  1.
         21    1    1    2  504  503 -0.99269811208E+02 -0.32160251914E+02 -0.11606693634E+03  0.15607790020E+03  0.00000000000E+00 0. -1.
<mgrwt>
<rscale>  2 0.10434930E+03</rscale>
<asrwt>0</asrwt>
<pdfrwt beam="1">  1       21 0.37251900E-02 0.10434930E+03</pdfrwt>
<pdfrwt beam="2">  1       21 0.12045278E+00 0.10434930E+03</pdfrwt>
<totfact> 0.23775781E+05</totfact>
</mgrwt>
</event>
<event>
 4    1  0.6158309E+003  0.2421603E+03  0.7546771E-02  0.1118362E+00
         21   -1    0    0  504  501  0.00000000000E+00  0.00000000000E+00  0.17570463236E+04  0.17570463236E+04  0.00000000000E+00 0.  1.
         21   -1    0    0  503  502 -0.00000000000E+00 -0.00000000000E+00 -0.16094688139E+03  0.16094688139E+03  0.00000000000E+00 0. -1.
         21    1    1    2  503  501  0.13009757608E+03 -0.20424556723E+03  0.16518436501E+04  0.16694996483E+04  0.00000000000E+00 0.  1.
         21    1    1    2  504  502 -0.13009757608E+03  0.20424556723E+03 -0.55744207895E+02  0.24849355676E+03  0.00000000000E+00 0. -1.
<mgrwt>
<rscale>  2 0.24216034E+03</rscale>
<asrwt>0</asrwt>
<pdfrwt beam="1">  1       21 0.27031481E+00 0.24216034E+03</pdfrwt>
<pdfrwt beam="2">  1       21 0.24761060E-01 0.24216034E+03</pdfrwt>
<totfact> 0.73639926E+02</totfact>
</mgrwt>
</event>
<event>
 4    1  0.6158309E+003  0.1172801E+03  0.7546771E-02  0.1247653E+00
         21   -1    0    0  504  501  0.00000000000E+00  0.00000000000E+00  0.52665968195E+02  0.52665968195E+02  0.00000000000E+00 0. -1.
         21   -1    0    0  503  502 -0.00000000000E+00 -0.00000000000E+00 -0.28871347545E+03  0.28871347545E+03  0.00000000000E+00 0. -1.
         21    1    1    2  503  501  0.11710053129E+03  0.64868115655E+01 -0.65299938639E+02  0.13423373324E+03  0.00000000000E+00 0. -1.
         21    1    1    2  504  502 -0.11710053129E+03 -0.64868115655E+01 -0.17074756862E+03  0.20714571041E+03  0.00000000000E+00 0. -1.
<mgrwt>
<rscale>  2 0.11728006E+03</rscale>
<asrwt>0</asrwt>
<pdfrwt beam="1">  1       21 0.81024566E-02 0.11728006E+03</pdfrwt>
<pdfrwt beam="2">  1       21 0.44417458E-01 0.11728006E+03</pdfrwt>
<totfact> 0.57570261E+05</totfact>
</mgrwt>
</event>
<event>
 4    1  0.6158309E+003  0.1099367E+03  0.7546771E-02  0.1260687E+00
         21   -1    0    0  502  501  0.00000000000E+00  0.00000000000E+00  0.87729339751E+03  0.87729339751E+03  0.00000000000E+00 0.  1.
         21   -1    0    0  503  502 -0.00000000000E+00 -0.00000000000E+00 -0.16930606822E+02  0.16930606822E+02  0.00000000000E+00 0.  1.
         21    1    1    2  503  504  0.80781457867E+02  0.74568341649E+02  0.23720045514E+03  0.26143859208E+03  0.00000000000E+00 0.  1.
         21    1    1    2  504  501 -0.80781457867E+02 -0.74568341649E+02  0.62316233554E+03  0.63278541225E+03  0.00000000000E+00 0.  1.
<mgrwt>
<rscale>  2 0.10993672E+03</rscale>
<asrwt>0</asrwt>
<pdfrwt beam="1">  1       21 0.13496818E+00 0.10993672E+03</pdfrwt>
<pdfrwt beam="2">  1       21 0.26047094E-02 0.10993672E+03</pdfrwt>
<totfact> 0.32203442E+05</totfact>
</mgrwt>
</event>
<event>
 4    1  0.6158309E+003  0.1312136E+03  0.7546771E-02  0.1225666E+00
         21   -1    0    0  504  501  0.00000000000E+00  0.00000000000E+00  0.13809127996E+02  0.13809127996E+02  0.00000000000E+00 0.  1.
         21   -1    0    0  501  502 -0.00000000000E+00 -0.00000000000E+00 -0.30485731532E+04  0.30485731532E+04  0.00000000000E+00 0. -1.
         21    1    1    2  503  502 -0.58745014118E+02 -0.11732872469E+03 -0.26945353134E+04  0.26977282223E+04  0.00000000000E+00 0. -1.
         21    1    1    2  504  503  0.58745014118E+02  0.11732872469E+03 -0.34022871178E+03  0.36465405885E+03  0.00000000000E+00 0.  1.
<mgrwt>
<rscale>  2 0.13121359E+03</rscale>
<asrwt>0</asrwt>
<pdfrwt beam="1">  1       21 0.21244789E-02 0.13121359E+03</pdfrwt>
<pdfrwt beam="2">  1       21 0.46901177E+00 0.13121359E+03</pdfrwt>
<totfact> 0.38501523E+03</totfact>
</mgrwt>
</event>
<event>
 4    1  0.6158309E+003  0.1130931E+03  0.7546771E-02  0.1254947E+00
         21   -1    0    0  503  501  0.00000000000E+00  0.00000000000E+00  0.20474599781E+03  0.20474599781E+03  0.00000000000E+00 0.  1.
         21   -1    0    0  501  502 -0.00000000000E+00 -0.00000000000E+00 -0.45849436425E+03  0.45849436425E+03  0.00000000000E+00 0. -1.
         21    1    1    2  503  504  0.13639324935E+02 -0.11226764573E+03  0.18132823892E+03  0.21370537122E+03  0.00000000000E+00 0.  1.
         21    1    1    2  504  502 -0.13639324935E+02  0.11226764573E+03 -0.43507660535E+03  0.44953499083E+03  0.00000000000E+00 0. -1.
<mgrwt>
<rscale>  2 0.11309313E+03</rscale>
<asrwt>0</asrwt>
<pdfrwt beam="1">  1       21 0.31499385E-01 0.11309313E+03</pdfrwt>
<pdfrwt beam="2">  1       21 0.70537594E-01 0.11309313E+03</pdfrwt>
<totfact> 0.18660380E+04</totfact>
</mgrwt>
</event>
<event>
 4    1  0.6158309E+003  0.1116180E+03  0.7546771E-02  0.1257603E+00
         21   -1    0    0  503  501  0.00000000000E+00  0.00000000000E+00  0.85210819652E+02  0.85210819652E+02  0.00000000000E+00 0. -1.
         21   -1    0    0  504  502 -0.00000000000E+00 -0.00000000000E+00 -0.18653701210E+03  0.18653701210E+03  0.00000000000E+00 0. -1.
         21    1    1    2  503  502  0.90524820969E+02 -0.65298119794E+02 -0.11383981395E+03  0.15943052060E+03  0.00000000000E+00 0. -1.
         21    1    1    2  504  501 -0.90524820969E+02  0.65298119794E+02  0.12513621503E+02  0.11231731115E+03  0.00000000000E+00 0. -1.
<mgrwt>
<rscale>  2 0.11161804E+03</rscale>
<asrwt>0</asrwt>
<pdfrwt beam="1">  1       21 0.13109357E-01 0.11161804E+03</pdfrwt>
<pdfrwt beam="2">  1       21 0.28698002E-01 0.11161804E+03</pdfrwt>
<totfact> 0.58574169E+05</totfact>
</mgrwt>
</event>
<event>
 4    1  0.6158309E+003  0.1264686E+03  0.7546771E-02  0.1232792E+00
         21   -1    0    0  502  501  0.00000000000E+00  0.00000000000E+00  0.44544433252E+03  0.44544433252E+03  0.00000000000E+00 0.  1.
         21   -1    0    0  504  502 -0.00000000000E+00 -0.00000000000E+00 -0.51482508600E+02  0.51482508600E+02  0.00000000000E+00 0.  1.
         21    1    1    2  503  501  0.12578235553E+03 -0.13157038415E+02  0.33364735689E+03  0.35681208974E+03  0.00000000000E+00 0.  1.
         21    1    1    2  504  503 -0.12578235553E+03  0.13157038415E+02  0.60314467029E+02  0.14011475138E+03  0.00000000000E+00 0.  1.
<mgrwt>
<rscale>  2 0.12646861E+03</rscale>
<asrwt>0</asrwt>
<pdfrwt beam="1">  1       21 0.68529895E-01 0.12646861E+03</pdfrwt>
<pdfrwt beam="2">  1       21 0.79203862E-02 0.12646861E+03</pdfrwt>
<totfact> 0.24121498E+05</totfact>
</mgrwt>
</event>
<event>
 4    1  0.6158309E+003  0.1321353E+03  0.7546771E-02  0.1224321E+00
         21   -1    0    0  502  501  0.00000000000E+00  0.00000000000E+00  0.96830834548E+02  0.96830834548E+02  0.00000000000E+00 0. -1.
         21   -1    0    0  503  502 -0.00000000000E+00 -0.00000000000E+00 -0.74509610431E+03  0.74509610431E+03  0.00000000000E+00 0. -1.
         21    1    1    2  503  504  0.56216177318E+02 -0.11958042037E+03 -0.69063737775E+03  0.70316407977E+03  0.00000000000E+00 0. -1.
         21    1    1    2  504  501 -0.56216177318E+02  0.11958042037E+03  0.42372107991E+02  0.13876285909E+03  0.00000000000E+00 0. -1.
<mgrwt>
<rscale>  2 0.13213529E+03</rscale>
<asrwt>0</asrwt>
<pdfrwt beam="1">  1       21 0.14897052E-01 0.13213529E+03</pdfrwt>
<pdfrwt beam="2">  1       21 0.11463017E+00 0.13213529E+03</pdfrwt>
<totfact> 0.24422121E+04</totfact>
</mgrwt>
</event>
<event>
 4    1  0.6158309E+003  0.1121314E+03  0.7546771E-02  0.1256673E+00
         21   -1    0    0  504  501  0.00000000000E+00  0.00000000000E+00  0.38643172863E+02  0.38643172863E+02  0.00000000000E+00 0.  1.
         21   -1    0    0  501  502 -0.00000000000E+00 -0.00000000000E+00 -0.34573793657E+03  0.34573793657E+03  0.00000000000E+00 0.  1.
         21    1    1    2  503  502 -0.60950918986E+02 -0.94119305767E+02 -0.20019145010E+03  0.22945604141E+03  0.00000000000E+00 0.  1.
         21    1    1    2  504  503  0.60950918986E+02  0.94119305767E+02 -0.10690331360E+03  0.15492506802E+03  0.00000000000E+00 0.  1.
<mgrwt>
<rscale>  2 0.11213143E+03</rscale>
<asrwt>0</asrwt>
<pdfrwt beam="1">  1       21 0.59451037E-02 0.11213143E+03</pdfrwt>
<pdfrwt beam="2">  1       21 0.53190450E-01 0.11213143E+03</pdfrwt>
<totfact> 0.67482470E+05</totfact>
</mgrwt>
</event>
<event>
 4    1  0.6158309E+003  0.1146502E+03  0.7546771E-02  0.1252193E+00
         21   -1    0    0  504  501  0.00000000000E+00  0.00000000000E+00  0.13067466033E+03  0.13067466033E+03  0.00000000000E+00 0.  1.
         21   -1    0    0  503  502 -0.00000000000E+00 -0.00000000000E+00 -0.15298122573E+03  0.15298122573E+03  0.00000000000E+00 0. -1.
         21    1    1    2  503  501 -0.10575550944E+03  0.44276786815E+02  0.71844964687E+02  0.13530099991E+03  0.00000000000E+00 0.  1.
         21    1    1    2  504  502  0.10575550944E+03 -0.44276786815E+02 -0.94151530084E+02  0.14835488615E+03  0.00000000000E+00 0. -1.
<mgrwt>
<rscale>  2 0.11465017E+03</rscale>
<asrwt>0</asrwt>
<pdfrwt beam="1">  1       21 0.20103794E-01 0.11465017E+03</pdfrwt>
<pdfrwt beam="2">  1       21 0.23535573E-01 0.11465017E+03</pdfrwt>
<totfact> 0.39316760E+05</totfact>
</mgrwt>
</event>
<event>
 4    1  0.6158309E+003  0.1326193E+03  0.7546771E-02  0.1223620E+00
         21   -1    0    0  503  501  0.00000000000E+00  0.00000000000E+00  0.58085319049E+03  0.58085319049E+03  0.00000000000E+00 0.  1.
         21   -1    0    0  504  502 -0.00000000000E+00 -0.00000000000E+00 -0.37131018934E+02  0.37131018934E+02  0.00000000000E+00 0. -1.
         21    1    1    2  503  502  0.41992530714E+02  0.12579550511E+03  0.40459313120E+03  0.42577398177E+03  0.00000000000E+00 0.  1.
         21    1    1    2  504  501 -0.41992530714E+02 -0.12579550511E+03  0.13912904036E+03  0.19221022765E+03  0.00000000000E+00 0. -1.
<mgrwt>
<rscale>  2 0.13261931E+03</rscale>
<asrwt>0</asrwt>
<pdfrwt beam="1">  1       21 0.89362023E-01 0.13261931E+03</pdfrwt>
<pdfrwt beam="2">  1       21 0.57124649E-02 0.13261931E+03</pdfrwt>
<totfact> 0.23300753E+05</totfact>
</mgrwt>
</event>
<event>
 4    1  0.6158309E+003  0.1180312E+03  0.7546771E-02  0.1246381E+00
         21   -1    0    0  502  501  0.00000000000E+00  0.00000000000E+00  0.28963848163E+03  0.28963848163E+03  0.00000000000E+00 0. -1.
         21   -1    0    0  503  502 -0.00000000000E+00 -0.00000000000E+00 -0.88267017071E+02  0.88267017071E+02  0.00000000000E+00 0. -1.
         21    1    1    2  503  504  0.16854400009E+02  0.11682158686E+03 -0.26780038914E+02  0.12103108874E+03  0.00000000000E+00 0. -1.
         21    1    1    2  504  501 -0.16854400009E+02 -0.11682158686E+03  0.22815150348E+03  0.25687440997E+03  0.00000000000E+00 0. -1.
<mgrwt>
<rscale>  2 0.11803116E+03</rscale>
<asrwt>0</asrwt>
<pdfrwt beam="1">  1       21 0.44559766E-01 0.11803116E+03</pdfrwt>
<pdfrwt beam="2">  1       21 0.13579541E-01 0.11803116E+03</pdfrwt>
<totfact> 0.23150352E+05</totfact>
</mgrwt>
</event>
<event>
 4    1  0.6158309E+003  0.1223297E+03  0.7546771E-02  0.1239302E+00
         21   -1    0    0  503  501  0.00000000000E+00  0.00000000000E+00  0.48711571932E+03  0.48711571932E+03  0.00000000000E+00 0. -1.
         21   -1    0    0  504  502 -0.00000000000E+00 -0.00000000000E+00 -0.10411209773E+03  0.10411209773E+03  0.00000000000E+00 0. -1.
         21    1    1    2  503  502  0.63049272773E+01  0.12216715551E+03 -0.56695265661E+02  0.13482922214E+03  0.00000000000E+00 0. -1.
         21    1    1    2  504  501 -0.63049272773E+01 -0.12216715551E+03  0.43969888725E+03  0.45639859492E+03  0.00000000000E+00 0. -1.
<mgrwt>
<rscale>  2 0.12232974E+03</rscale>
<asrwt>0</asrwt>
<pdfrwt beam="1">  1       21 0.74940878E-01 0.12232974E+03</pdfrwt>
<pdfrwt beam="2">  1       21 0.16017246E-01 0.12232974E+03</pdfrwt>
<totfact> 0.57393298E+04</totfact>
</mgrwt>
</event>
<event>
 4    1  0.6158309E+003  0.1071820E+03  0.7546771E-02  0.1265879E+00
         21   -1    0    0  503  501  0.00000000000E+00  0.00000000000E+00  0.32481124420E+03  0.32481124420E+03  0.00000000000E+00 0. -1.
         21   -1    0    0  504  502 -0.00000000000E+00 -0.00000000000E+00 -0.54960018486E+02  0.54960018486E+02  0.00000000000E+00 0. -1.
         21    1    1    2  503  502 -0.44995443655E+02  0.97279932052E+02  0.21553427810E+02  0.10932760576E+03  0.00000000000E+00 0. -1.
         21    1    1    2  504  501  0.44995443655E+02 -0.97279932052E+02  0.24829779791E+03  0.27044365693E+03  0.00000000000E+00 0. -1.
<mgrwt>
<rscale>  2 0.10718197E+03</rscale>
<asrwt>0</asrwt>
<pdfrwt beam="1">  1       21 0.49970959E-01 0.10718197E+03</pdfrwt>
<pdfrwt beam="2">  1       21 0.84553877E-02 0.10718197E+03</pdfrwt>
<totfact> 0.42114597E+05</totfact>
</mgrwt>
</event>
<event>
 4    1  0.6158309E+003  0.1389932E+03  0.7546771E-02  0.1214690E+00
         21   -1    0    0  503  501  0.00000000000E+00  0.00000000000E+00  0.32574563417E+04  0.32574563417E+04  0.00000000000E+00 0.  1.
         21   -1    0    0  504  502 -0.00000000000E+00 -0.00000000000E+00 -0.69799795862E+01  0.69799795862E+01  0.00000000000E+00 0.  1.
         21    1    1    2  503  502  0.12584226991E+03 -0.59015599597E+02  0.99240532681E+03  0.10020915380E+04  0.00000000000E+00 0.  1.
         21    1    1    2  504  501 -0.12584226991E+03  0.59015599597E+02  0.22580710353E+04  0.22623447832E+04  0.00000000000E+00 0.  1.
<mgrwt>
<rscale>  2 0.13899323E+03</rscale>
<asrwt>0</asrwt>
<pdfrwt beam="1">  1       21 0.50114592E+00 0.13899323E+03</pdfrwt>
<pdfrwt beam="2">  1       21 0.10738456E-02 0.13899323E+03</pdfrwt>
<totfact> 0.67924443E+03</totfact>
</mgrwt>
</event>
<event>
 4    1  0.6158309E+003  0.1052179E+03  0.7546771E-02  0.1269691E+00
         21   -1    0    0  504  501  0.00000000000E+00  0.00000000000E+00  0.33692693037E+02  0.33692693037E+02  0.00000000000E+00 0. -1.
         21   -1    0    0  501  502 -0.00000000000E+00 -0.00000000000E+00 -0.10408300910E+04  0.10408300910E+04  0.00000000000E+00 0. -1.
         21    1    1    2  503  502 -0.97141678042E+02 -0.40426367507E+02 -0.94800702377E+03  0.95382813646E+03  0.00000000000E+00 0. -1.
         21    1    1    2  504  503  0.97141678042E+02  0.40426367507E+02 -0.59130374221E+02  0.12069464759E+03  0.00000000000E+00 0. -1.
<mgrwt>
<rscale>  2 0.10521785E+03</rscale>
<asrwt>0</asrwt>
<pdfrwt beam="1">  1       21 0.51834909E-02 0.10521785E+03</pdfrwt>
<pdfrwt beam="2">  1       21 0.16012772E+00 0.10521785E+03</pdfrwt>
<totfact> 0.67081278E+04</totfact>
</mgrwt>
</event>
<event>
 4    1  0.6158309E+003  0.1025145E+03  0.7546771E-02  0.1275095E+00
         21   -1    0    0  502  501  0.00000000000E+00  0.00000000000E+00  0.11087654767E+03  0.11087654767E+03  0.00000000000E+00 0. -1.
         21   -1    0    0  503  502 -0.00000000000E+00 -0.00000000000E+00 -0.18538836913E+03  0.18538836913E+03  0.00000000000E+00 0.  1.
         21    1    1    2  503  504  0.32733165183E+02  0.97148182471E+02 -0.14081436849E+03  0.17417782819E+03  0.00000000000E+00 0.  1.
         21    1    1    2  504  501 -0.32733165183E+02 -0.97148182471E+02  0.66302547038E+02  0.12208708861E+03  0.00000000000E+00 0. -1.
<mgrwt>
<rscale>  2 0.10251453E+03</rscale>
<asrwt>0</asrwt>
<pdfrwt beam="1">  1       21 0.17057931E-01 0.10251453E+03</pdfrwt>
<pdfrwt beam="2">  1       21 0.28521287E-01 0.10251453E+03</pdfrwt>
<totfact> 0.36981354E+05</totfact>
</mgrwt>
</event>
<event>
 4    1  0.6158309E+003  0.1201407E+03  0.7546771E-02  0.1242865E+00
         21   -1    0    0  503  501  0.00000000000E+00  0.00000000000E+00  0.11151723542E+04  0.11151723542E+04  0.00000000000E+00 0. -1.
         21   -1    0    0  504  502 -0.00000000000E+00 -0.00000000000E+00 -0.16830938691E+02  0.16830938691E+02  0.00000000000E+00 0. -1.
         21    1    1    2  503  502 -0.62962904633E+02 -0.10232037164E+03  0.82120128216E+03  0.82994296891E+03  0.00000000000E+00 0. -1.
         21    1    1    2  504  501  0.62962904633E+02  0.10232037164E+03  0.27714013332E+03  0.30206032396E+03  0.00000000000E+00 0. -1.
<mgrwt>
<rscale>  2 0.12014069E+03</rscale>
<asrwt>0</asrwt>
<pdfrwt beam="1">  1       21 0.17156492E+00 0.12014069E+03</pdfrwt>
<pdfrwt beam="2">  1       21 0.25893761E-02 0.12014069E+03</pdfrwt>
<totfact> 0.17371490E+05</totfact>
</mgrwt>
</event>
<event>
 4    1  0.6158309E+003  0.1427775E+03  0.7546771E-02  0.1209640E+00
         21   -1    0    0  503  501  0.00000000000E+00  0.00000000000E+00  0.61373019730E+03  0.61373019730E+03  0.00000000000E+00 0. -1.
         21   -1    0    0  504  502 -0.00000000000E+00 -0.00000000000E+00 -0.33266968992E+02  0.33266968992E+02  0.00000000000E+00 0. -1.
         21    1    1    2  503  502 -0.14252859629E+03 -0.84277473424E+01  0.30294147806E+03  0.33490142850E+03  0.00000000000E+00 0. -1.
         21    1    1    2  504  501  0.14252859629E+03  0.84277473424E+01  0.27752175024E+03  0.31209573778E+03  0.00000000000E+00 0. -1.
<mgrwt>
<rscale>  2 0.14277755E+03</rscale>
<asrwt>0</asrwt>
<pdfrwt beam="1">  1       21 0.94420022E-01 0.14277755E+03</pdfrwt>
<pdfrwt beam="2">  1       21 0.51179957E-02 0.14277755E+03</pdfrwt>
<totfact> 0.24646936E+05</totfact>
</mgrwt>
</event>
<event>
 4    1  0.6158309E+003  0.1144525E+03  0.7546771E-02  0.1252540E+00
         21   -1    0    0  504  501  0.00000000000E+00  0.00000000000E+00  0.26908636189E+03  0.26908636189E+03  0.00000000000E+00 0. -1.
         21   -1    0    0  503  502 -0.00000000000E+00 -0.00000000000E+00 -0.48685653359E+02  0.48685653359E+02  0.00000000000E+00 0. -1.
         21    1    1    2  503  501 -0.63647833723E+02 -0.95122755219E+02  0.10864212439E+03  0.15780524861E+03  0.00000000000E+00 0. -1.
         21    1    1    2  504  502  0.63647833723E+02  0.95122755219E+02  0.11175858414E+03  0.15996676664E+03  0.00000000000E+00 0. -1.
<mgrwt>
<rscale>  2 0.11445255E+03</rscale>
<asrwt>0</asrwt>
<pdfrwt beam="1">  1       21 0.41397901E-01 0.11445255E+03</pdfrwt>
<pdfrwt beam="2">  1       21 0.74901006E-02 0.11445255E+03</pdfrwt>
<totfact> 0.75916692E+05</totfact>
</mgrwt>
</event>
<event>
 4    1  0.6158309E+003  0.1487370E+03  0.7546771E-02  0.1202034E+00
         21   -1    0    0  503  501  0.00000000000E+00  0.00000000000E+00  0.10161881494E+03  0.10161881494E+03  0.00000000000E+00 0.  1.
         21   -1    0    0  504  502 -0.00000000000E+00 -0.00000000000E+00 -0.24633631391E+03  0.24633631391E+03  0.00000000000E+00 0.  1.
         21    1    1    2  503  502  0.15595440298E+02 -0.14791708707E+03 -0.13043316480E+02  0.14930777110E+03  0.00000000000E+00 0.  1.
         21    1    1    2  504  501 -0.15595440298E+02  0.14791708707E+03 -0.13167418250E+03  0.19864735775E+03  0.00000000000E+00 0.  1.
<mgrwt>
<rscale>  2 0.14873696E+03</rscale>
<asrwt>0</asrwt>
<pdfrwt beam="1">  1       21 0.15633664E-01 0.14873696E+03</pdfrwt>
<pdfrwt beam="2">  1       21 0.37897894E-01 0.14873696E+03</pdfrwt>
<totfact> 0.24696588E+05</totfact>
</mgrwt>
</event>
<event>
 4    1  0.6158309E+003  0.1108728E+03  0.7546771E-02  0.1258962E+00
         21   -1    0    0  503  501  0.00000000000E+00  0.00000000000E+00  0.79320020906E+03  0.79320020906E+03  0.00000000000E+00 0. -1.
         21   -1    0    0  504  502 -0.00000000000E+00 -0.00000000000E+00 -0.17117101689E+02  0.17117101689E+02  0.00000000000E+00 0. -1.
         21    1    1    2  503  502  0.61039638735E+02 -0.92557730820E+02  0.26342130129E+03  0.28580334674E+03  0.00000000000E+00 0. -1.
         21    1    1    2  504  501 -0.61039638735E+02  0.92557730820E+02  0.51266180608E+03  0.52451396402E+03  0.00000000000E+00 0. -1.
<mgrwt>
<rscale>  2 0.11087277E+03</rscale>
<asrwt>0</asrwt>
<pdfrwt beam="1">  1       21 0.12203077E+00 0.11087277E+03</pdfrwt>
<pdfrwt beam="2">  1       21 0.26334009E-02 0.11087277E+03</pdfrwt>
<totfact> 0.40546909E+05</totfact>
</mgrwt>
</event>
<event>
 4    1  0.6158309E+003  0.1011678E+03  0.7546771E-02  0.1277859E+00
         21   -1    0    0  503  501  0.00000000000E+00  0.00000000000E+00  0.11182515432E+03  0.11182515432E+03  0.00000000000E+00 0. -1.
         21   -1    0    0  504  502 -0.00000000000E+00 -0.00000000000E+00 -0.34028876489E+03  0.34028876489E+03  0.00000000000E+00 0. -1.
         21    1    1    2  503  502 -0.87293301610E+02  0.51135089066E+02 -0.30751170700E+03  0.32372576014E+03  0.00000000000E+00 0. -1.
         21    1    1    2  504  501  0.87293301610E+02 -0.51135089066E+02  0.79048096431E+02  0.12838815907E+03  0.00000000000E+00 0. -1.
<mgrwt>
<rscale>  2 0.10116777E+03</rscale>
<asrwt>0</asrwt>
<pdfrwt beam="1">  1       21 0.17203870E-01 0.10116777E+03</pdfrwt>
<pdfrwt beam="2">  1       21 0.52352118E-01 0.10116777E+03</pdfrwt>
<totfact> 0.10949826E+05</totfact>
</mgrwt>
</event>
<event>
 4    1  0.6158309E+003  0.1301960E+03  0.7546771E-02  0.1227165E+00
         21   -1    0    0  502  501  0.00000000000E+00  0.00000000000E+00  0.13705593358E+04  0.13705593358E+04  0.00000000000E+00 0. -1.
         21   -1    0    0  504  502 -0.00000000000E+00 -0.00000000000E+00 -0.38533797719E+02  0.38533797719E+02  0.00000000000E+00 0. -1.
         21    1    1    2  503  501  0.89136185941E+02 -0.94898522994E+02  0.12465850840E+04  0.12533656135E+04  0.00000000000E+00 0. -1.
         21    1    1    2  504  503 -0.89136185941E+02  0.94898522994E+02  0.85440454047E+02  0.15572752004E+03  0.00000000000E+00 0. -1.
<mgrwt>
<rscale>  2 0.13019597E+03</rscale>
<asrwt>0</asrwt>
<pdfrwt beam="1">  1       21 0.21085524E+00 0.13019597E+03</pdfrwt>
<pdfrwt beam="2">  1       21 0.59282776E-02 0.13019597E+03</pdfrwt>
<totfact> 0.24330673E+04</totfact>
</mgrwt>
</event>
<event>
 4    1  0.6158309E+003  0.2564710E+03  0.7546771E-02  0.1109282E+00
         21   -1    0    0  504  501  0.00000000000E+00  0.00000000000E+00  0.19712543982E+04  0.19712543982E+04  0.00000000000E+00 0. -1.
         21   -1    0    0  503  502 -0.00000000000E+00 -0.00000000000E+00 -0.47540340739E+02  0.47540340739E+02  0.00000000000E+00 0. -1.
         21    1    1    2  503  501 -0.22947493752E+03 -0.11453653425E+03  0.15129787876E+04  0.15345625358E+04  0.00000000000E+00 0. -1.
         21    1    1    2  504  502  0.22947493752E+03  0.11453653425E+03  0.41073526987E+03  0.48423220312E+03  0.00000000000E+00 0. -1.
<mgrwt>
<rscale>  2 0.25647098E+03</rscale>
<asrwt>0</asrwt>
<pdfrwt beam="1">  1       21 0.30326984E+00 0.25647098E+03</pdfrwt>
<pdfrwt beam="2">  1       21 0.73139001E-02 0.25647098E+03</pdfrwt>
<totfact> 0.42921590E+03</totfact>
</mgrwt>
</event>
<event>
 4    1  0.6158309E+003  0.1023001E+03  0.7546771E-02  0.1275532E+00
         21   -1    0    0  502  501  0.00000000000E+00  0.00000000000E+00  0.22821426880E+02  0.22821426880E+02  0.00000000000E+00 0. -1.
         21   -1    0    0  504  502 -0.00000000000E+00 -0.00000000000E+00 -0.46412084365E+03  0.46412084365E+03  0.00000000000E+00 0. -1.
         21    1    1    2  503  501 -0.74247743973E+02  0.70374561061E+02 -0.19403226335E+03  0.21934863927E+03  0.00000000000E+00 0. -1.
         21    1    1    2  504  503  0.74247743973E+02 -0.70374561061E+02 -0.24726715342E+03  0.26759363126E+03  0.00000000000E+00 0. -1.
<mgrwt>
<rscale>  2 0.10230008E+03</rscale>
<asrwt>0</asrwt>
<pdfrwt beam="1">  1       21 0.35109888E-02 0.10230008E+03</pdfrwt>
<pdfrwt beam="2">  1       21 0.71403206E-01 0.10230008E+03</pdfrwt>
<totfact> 0.86777569E+05</totfact>
</mgrwt>
</event>
<event>
 4    1  0.6158309E+003  0.1018502E+03  0.7546771E-02  0.1276453E+00
         21   -1    0    0  503  501  0.00000000000E+00  0.00000000000E+00  0.61280675084E+03  0.61280675084E+03  0.00000000000E+00 0.  1.
         21   -1    0    0  504  502 -0.00000000000E+00 -0.00000000000E+00 -0.54286884358E+02  0.54286884358E+02  0.00000000000E+00 0. -1.
         21    1    1    2  503  502  0.54296676855E+02 -0.86170337502E+02  0.25609351257E+01  0.10188235653E+03  0.00000000000E+00 0. -1.
         21    1    1    2  504  501 -0.54296676855E+02  0.86170337502E+02  0.55595893135E+03  0.56521127867E+03  0.00000000000E+00 0.  1.
<mgrwt>
<rscale>  2 0.10185017E+03</rscale>
<asrwt>0</asrwt>
<pdfrwt beam="1">  1       21 0.94277957E-01 0.10185017E+03</pdfrwt>
<pdfrwt beam="2">  1       21 0.83518288E-02 0.10185017E+03</pdfrwt>
<totfact> 0.10913030E+05</totfact>
</mgrwt>
</event>
<event>
 4    1  0.6158309E+003  0.1084818E+03  0.7546771E-02  0.1263407E+00
         21   -1    0    0  503  501  0.00000000000E+00  0.00000000000E+00  0.26569384567E+03  0.26569384567E+03  0.00000000000E+00 0.  1.
         21   -1    0    0  504  502 -0.00000000000E+00 -0.00000000000E+00 -0.46438189641E+02  0.46438189641E+02  0.00000000000E+00 0.  1.
         21    1    1    2  503  502 -0.10191081727E+03 -0.37181848416E+02  0.14317310293E+03  0.17962973565E+03  0.00000000000E+00 0.  1.
         21    1    1    2  504  501  0.10191081727E+03  0.37181848416E+02  0.76082553103E+02  0.13250229966E+03  0.00000000000E+00 0.  1.
<mgrwt>
<rscale>  2 0.10848182E+03</rscale>
<asrwt>0</asrwt>
<pdfrwt beam="1">  1       21 0.40875975E-01 0.10848182E+03</pdfrwt>
<pdfrwt beam="2">  1       21 0.71443370E-02 0.10848182E+03</pdfrwt>
<totfact> 0.84396251E+05</totfact>
</mgrwt>
</event>
<event>
 4    1  0.6158309E+003  0.1340301E+03  0.7546771E-02  0.1221595E+00
         21   -1    0    0  502  501  0.00000000000E+00  0.00000000000E+00  0.52371338060E+02  0.52371338060E+02  0.00000000000E+00 0.  1.
         21   -1    0    0  504  502 -0.00000000000E+00 -0.00000000000E+00 -0.40410157223E+03  0.40410157223E+03  0.00000000000E+00 0.  1.
         21    1    1    2  503  501 -0.12936334080E+03 -0.35059670907E+02 -0.87125119445E+02  0.15985881554E+03  0.00000000000E+00 0.  1.
         21    1    1    2  504  503  0.12936334080E+03  0.35059670907E+02 -0.26460511472E+03  0.29661409475E+03  0.00000000000E+00 0.  1.
<mgrwt>
<rscale>  2 0.13403005E+03</rscale>
<asrwt>0</asrwt>
<pdfrwt beam="1">  1       21 0.80571292E-02 0.13403005E+03</pdfrwt>
<pdfrwt beam="2">  1       21 0.62169471E-01 0.13403005E+03</pdfrwt>
<totfact> 0.28840595E+05</totfact>
</mgrwt>
</event>
<event>
 4    1  0.6158309E+003  0.1167701E+03  0.7546771E-02  0.1248523E+00
         21   -1    0    0  503  501  0.00000000000E+00  0.00000000000E+00  0.21245973818E+03  0.21245973818E+03  0.00000000000E+00 0. -1.
         21   -1    0    0  501  502 -0.00000000000E+00 -0.00000000000E+00 -0.70607334098E+02  0.70607334098E+02  0.00000000000E+00 0. -1.
         21    1    1    2  503  504 -0.11671167599E+03 -0.36934243801E+01  0.11363476559E+03  0.16293592804E+03  0.00000000000E+00 0. -1.
         21    1    1    2  504  502  0.11671167599E+03  0.36934243801E+01  0.28217638499E+02  0.12013114425E+03  0.00000000000E+00 0. -1.
<mgrwt>
<rscale>  2 0.11677010E+03</rscale>
<asrwt>0</asrwt>
<pdfrwt beam="1">  1       21 0.32686113E-01 0.11677010E+03</pdfrwt>
<pdfrwt beam="2">  1       21 0.10862667E-01 0.11677010E+03</pdfrwt>
<totfact> 0.63513823E+05</totfact>
</mgrwt>
</event>
<event>
 4    1  0.6158309E+003  0.1085882E+03  0.7546771E-02  0.1263207E+00
         21   -1    0    0  503  501  0.00000000000E+00  0.00000000000E+00  0.61318144325E+02  0.61318144325E+02  0.00000000000E+00 0.  1.
         21   -1    0    0  504  502 -0.00000000000E+00 -0.00000000000E+00 -0.20721793003E+03  0.20721793003E+03  0.00000000000E+00 0. -1.
         21    1    1    2  503  502  0.18194143792E+02 -0.10705312127E+03 -0.36922518991E+02  0.11469381000E+03  0.00000000000E+00 0.  1.
         21    1    1    2  504  501 -0.18194143792E+02  0.10705312127E+03 -0.10897726671E+03  0.15384226436E+03  0.00000000000E+00 0. -1.
<mgrwt>
<rscale>  2 0.10858820E+03</rscale>
<asrwt>0</asrwt>
<pdfrwt beam="1">  1       21 0.94335606E-02 0.10858820E+03</pdfrwt>
<pdfrwt beam="2">  1       21 0.31879682E-01 0.10858820E+03</pdfrwt>
<totfact> 0.85250490E+05</totfact>
</mgrwt>
</event>
<event>
 4    1  0.6158309E+003  0.1011602E+03  0.7546771E-02  0.1277875E+00
         21   -1    0    0  503  501  0.00000000000E+00  0.00000000000E+00  0.24836216721E+03  0.24836216721E+03  0.00000000000E+00 0. -1.
         21   -1    0    0  504  502 -0.00000000000E+00 -0.00000000000E+00 -0.45066593873E+02  0.45066593873E+02  0.00000000000E+00 0. -1.
         21    1    1    2  503  502  0.30098435199E+02 -0.96578813298E+02  0.58692693802E+02  0.11695390239E+03  0.00000000000E+00 0. -1.
         21    1    1    2  504  501 -0.30098435199E+02  0.96578813298E+02  0.14460287954E+03  0.17647485869E+03  0.00000000000E+00 0. -1.
<mgrwt>
<rscale>  2 0.10116018E+03</rscale>
<asrwt>0</asrwt>
<pdfrwt beam="1">  1       21 0.38209563E-01 0.10116018E+03</pdfrwt>
<pdfrwt beam="2">  1       21 0.69333223E-02 0.10116018E+03</pdfrwt>
<totfact> 0.10144876E+06</totfact>
</mgrwt>
</event>
<event>
 4    1  0.6158309E+003  0.1445139E+03  0.7546771E-02  0.1207381E+00
         21   -1    0    0  503  501  0.00000000000E+00  0.00000000000E+00  0.68174108434E+01  0.68174108434E+01  0.00000000000E+00 0.  1.
         21   -1    0    0  504  502 -0.00000000000E+00 -0.00000000000E+00 -0.30762688038E+04  0.30762688038E+04  0.00000000000E+00 0.  1.
         21    1    1    2  503  502 -0.95092736022E+02 -0.10881930558E+03 -0.16345357191E+04  0.16409117243E+04  0.00000000000E+00 0.  1.
         21    1    1    2  504  501  0.95092736022E+02  0.10881930558E+03 -0.14349156738E+04  0.14421744904E+04  0.00000000000E+00 0.  1.
<mgrwt>
<rscale>  2 0.14451391E+03</rscale>
<asrwt>0</asrwt>
<pdfrwt beam="1">  1       21 0.10488315E-02 0.14451391E+03</pdfrwt>
<pdfrwt beam="2">  1       21 0.47327255E+00 0.14451391E+03</pdfrwt>
<totfact> 0.10867226E+04</totfact>
</mgrwt>
</event>
<event>
 4    1  0.6158309E+003  0.1647822E+03  0.7546771E-02  0.1183401E+00
         21   -1    0    0  504  501  0.00000000000E+00  0.00000000000E+00  0.25018854547E+03  0.25018854547E+03  0.00000000000E+00 0.  1.
         21   -1    0    0  503  502 -0.00000000000E+00 -0.00000000000E+00 -0.12615101720E+03  0.12615101720E+03  0.00000000000E+00 0.  1.
         21    1    1    2  503  501 -0.15300247343E+03 -0.61183561266E+02  0.13234365135E+03  0.21134811827E+03  0.00000000000E+00 0.  1.
         21    1    1    2  504  502  0.15300247343E+03  0.61183561266E+02 -0.83061230770E+01  0.16499144440E+03  0.00000000000E+00 0.  1.
<mgrwt>
<rscale>  2 0.16478224E+03</rscale>
<asrwt>0</asrwt>
<pdfrwt beam="1">  1       21 0.38490545E-01 0.16478224E+03</pdfrwt>
<pdfrwt beam="2">  1       21 0.19407849E-01 0.16478224E+03</pdfrwt>
<totfact> 0.16034909E+05</totfact>
</mgrwt>
</event>
<event>
 4    1  0.6158309E+003  0.1137047E+03  0.7546771E-02  0.1253859E+00
         21   -1    0    0  502  501  0.00000000000E+00  0.00000000000E+00  0.14548348368E+04  0.14548348368E+04  0.00000000000E+00 0.  1.
         21   -1    0    0  503  502 -0.00000000000E+00 -0.00000000000E+00 -0.15054870930E+02  0.15054870930E+02  0.00000000000E+00 0.  1.
         21    1    1    2  503  504  0.16782357798E+02 -0.11245936285E+03  0.24946257317E+03  0.27415384593E+03  0.00000000000E+00 0.  1.
         21    1    1    2  504  501 -0.16782357798E+02  0.11245936285E+03  0.11903173927E+04  0.11957358618E+04  0.00000000000E+00 0.  1.
<mgrwt>
<rscale>  2 0.11370469E+03</rscale>
<asrwt>0</asrwt>
<pdfrwt beam="1">  1       21 0.22382063E+00 0.11370469E+03</pdfrwt>
<pdfrwt beam="2">  1       21 0.23161351E-02 0.11370469E+03</pdfrwt>
<totfact> 0.97740490E+04</totfact>
</mgrwt>
</event>
<event>
 4    1  0.6158309E+003  0.1269589E+03  0.7546771E-02  0.1232039E+00
         21   -1    0    0  503  501  0.00000000000E+00  0.00000000000E+00  0.47599389678E+03  0.47599389678E+03  0.00000000000E+00 0. -1.
         21   -1    0    0  501  502 -0.00000000000E+00 -0.00000000000E+00 -0.81718045029E+02  0.81718045029E+02  0.00000000000E+00 0.  1.
         21    1    1    2  503  504 -0.24202657488E+02  0.12463064309E+03  0.41053328798E+03  0.42971635572E+03  0.00000000000E+00 0. -1.
         21    1    1    2  504  502  0.24202657488E+02 -0.12463064309E+03 -0.16257436238E+02  0.12799558609E+03  0.00000000000E+00 0.  1.
<mgrwt>
<rscale>  2 0.12695891E+03</rscale>
<asrwt>0</asrwt>
<pdfrwt beam="1">  1       21 0.73229829E-01 0.12695891E+03</pdfrwt>
<pdfrwt beam="2">  1       21 0.12572007E-01 0.12695891E+03</pdfrwt>
<totfact> 0.93013680E+04</totfact>
</mgrwt>
</event>
<event>
 4    1  0.6158309E+003  0.1574310E+03  0.7546771E-02  0.1191628E+00
         21   -1    0    0  504  501  0.00000000000E+00  0.00000000000E+00  0.97110629719E+01  0.97110629719E+01  0.00000000000E+00 0. -1.
         21   -1    0    0  503  502 -0.00000000000E+00 -0.00000000000E+00 -0.26572641476E+04  0.26572641476E+04  0.00000000000E+00 0. -1.
         21    1    1    2  503  501  0.15016221727E+03  0.47284404876E+02 -0.10586132129E+04  0.10702553157E+04  0.00000000000E+00 0. -1.
         21    1    1    2  504  502 -0.15016221727E+03 -0.47284404876E+02 -0.15889398717E+04  0.15967198948E+04  0.00000000000E+00 0. -1.
<mgrwt>
<rscale>  2 0.15743096E+03</rscale>
<asrwt>0</asrwt>
<pdfrwt beam="1">  1       21 0.14940115E-02 0.15743096E+03</pdfrwt>
<pdfrwt beam="2">  1       21 0.40880937E+00 0.15743096E+03</pdfrwt>
<totfact> 0.15894163E+04</totfact>
</mgrwt>
</event>
<event>
 4    1  0.6158309E+003  0.1470030E+03  0.7546771E-02  0.1204205E+00
         21   -1    0    0  504  501  0.00000000000E+00  0.00000000000E+00  0.45584330871E+02  0.45584330871E+02  0.00000000000E+00 0.  1.
         21   -1    0    0  501  502 -0.00000000000E+00 -0.00000000000E+00 -0.57593271542E+03  0.57593271542E+03  0.00000000000E+00 0.  1.
         21    1    1    2  503  502 -0.99279187975E+02  0.10841362968E+03 -0.39586902860E+03  0.42228208590E+03  0.00000000000E+00 0.  1.
         21    1    1    2  504  503  0.99279187975E+02 -0.10841362968E+03 -0.13447935595E+03  0.19923496039E+03  0.00000000000E+00 0.  1.
<mgrwt>
<rscale>  2 0.14700297E+03</rscale>
<asrwt>0</asrwt>
<pdfrwt beam="1">  1       21 0.70129738E-02 0.14700297E+03</pdfrwt>
<pdfrwt beam="2">  1       21 0.88605035E-01 0.14700297E+03</pdfrwt>
<totfact> 0.16678405E+05</totfact>
</mgrwt>
</event>
<event>
 4    1  0.6158309E+003  0.1062894E+03  0.7546771E-02  0.1267600E+00
         21   -1    0    0  504  501  0.00000000000E+00  0.00000000000E+00  0.13992031601E+04  0.13992031601E+04  0.00000000000E+00 0. -1.
         21   -1    0    0  503  502 -0.00000000000E+00 -0.00000000000E+00 -0.57592327461E+02  0.57592327461E+02  0.00000000000E+00 0.  1.
         21    1    1    2  503  501 -0.89428992182E+02  0.57444760813E+02  0.13462168164E+04  0.13504062951E+04  0.00000000000E+00 0. -1.
         21    1    1    2  504  502  0.89428992182E+02 -0.57444760813E+02 -0.46059837193E+01  0.10638919247E+03  0.00000000000E+00 0.  1.
<mgrwt>
<rscale>  2 0.10628944E+03</rscale>
<asrwt>0</asrwt>
<pdfrwt beam="1">  1       21 0.21526200E+00 0.10628944E+03</pdfrwt>
<pdfrwt beam="2">  1       21 0.88603592E-02 0.10628944E+03</pdfrwt>
<totfact> 0.11836972E+04</totfact>
</mgrwt>
</event>
<event>
 4    1  0.6158309E+003  0.2014004E+03  0.7546771E-02  0.1148563E+00
         21   -1    0    0  502  501  0.00000000000E+00  0.00000000000E+00  0.44128255998E+03  0.44128255998E+03  0.00000000000E+00 0.  1.
         21   -1    0    0  504  502 -0.00000000000E+00 -0.00000000000E+00 -0.32152282996E+03  0.32152282996E+03  0.00000000000E+00 0.  1.
         21    1    1    2  503  501 -0.18929252479E+03  0.68778440326E+02  0.38218532756E+03  0.43200434998E+03  0.00000000000E+00 0.  1.
         21    1    1    2  504  503  0.18929252479E+03 -0.68778440326E+02 -0.26242559754E+03  0.33080103996E+03  0.00000000000E+00 0.  1.
<mgrwt>
<rscale>  2 0.20140043E+03</rscale>
<asrwt>0</asrwt>
<pdfrwt beam="1">  1       21 0.67889625E-01 0.20140043E+03</pdfrwt>
<pdfrwt beam="2">  1       21 0.49465051E-01 0.20140043E+03</pdfrwt>
<totfact> 0.76743429E+03</totfact>
</mgrwt>
</event>
<event>
 4    1  0.6158309E+003  0.1266429E+03  0.7546771E-02  0.1232524E+00
         21   -1    0    0  503  501  0.00000000000E+00  0.00000000000E+00  0.14565167621E+03  0.14565167621E+03  0.00000000000E+00 0. -1.
         21   -1    0    0  501  502 -0.00000000000E+00 -0.00000000000E+00 -0.45173754540E+03  0.45173754540E+03  0.00000000000E+00 0.  1.
         21    1    1    2  503  504 -0.11034639800E+03 -0.62145771854E+02  0.10670828660E+03  0.16560520203E+03  0.00000000000E+00 0. -1.
         21    1    1    2  504  502  0.11034639800E+03  0.62145771854E+02 -0.41279415578E+03  0.43178401958E+03  0.00000000000E+00 0.  1.
<mgrwt>
<rscale>  2 0.12664290E+03</rscale>
<asrwt>0</asrwt>
<pdfrwt beam="1">  1       21 0.22407950E-01 0.12664290E+03</pdfrwt>
<pdfrwt beam="2">  1       21 0.69498084E-01 0.12664290E+03</pdfrwt>
<totfact> 0.36427519E+04</totfact>
</mgrwt>
</event>
<event>
 4    1  0.6158309E+003  0.1345959E+03  0.7546771E-02  0.1220791E+00
         21   -1    0    0  503  501  0.00000000000E+00  0.00000000000E+00  0.12203311590E+03  0.12203311590E+03  0.00000000000E+00 0. -1.
         21   -1    0    0  504  502 -0.00000000000E+00 -0.00000000000E+00 -0.17968959637E+03  0.17968959637E+03  0.00000000000E+00 0. -1.
         21    1    1    2  503  502 -0.72819734751E+02 -0.11319597958E+03 -0.91729057562E+02  0.16288113323E+03  0.00000000000E+00 0. -1.
         21    1    1    2  504  501  0.72819734751E+02  0.11319597958E+03  0.34072577094E+02  0.13884157904E+03  0.00000000000E+00 0. -1.
<mgrwt>
<rscale>  2 0.13459585E+03</rscale>
<asrwt>0</asrwt>
<pdfrwt beam="1">  1       21 0.18774326E-01 0.13459585E+03</pdfrwt>
<pdfrwt beam="2">  1       21 0.27644553E-01 0.13459585E+03</pdfrwt>
<totfact> 0.32801265E+05</totfact>
</mgrwt>
</event>
<event>
 4    1  0.6158309E+003  0.1202236E+03  0.7546771E-02  0.1242729E+00
         21   -1    0    0  504  501  0.00000000000E+00  0.00000000000E+00  0.16211260848E+04  0.16211260848E+04  0.00000000000E+00 0.  1.
         21   -1    0    0  503  502 -0.00000000000E+00 -0.00000000000E+00 -0.44067147185E+02  0.44067147185E+02  0.00000000000E+00 0. -1.
         21    1    1    2  503  501 -0.11989243387E+03  0.89170615024E+01  0.44914917802E+02  0.12833962571E+03  0.00000000000E+00 0. -1.
         21    1    1    2  504  502  0.11989243387E+03 -0.89170615024E+01  0.15321440198E+04  0.15368536063E+04  0.00000000000E+00 0.  1.
<mgrwt>
<rscale>  2 0.12022358E+03</rscale>
<asrwt>0</asrwt>
<pdfrwt beam="1">  1       21 0.24940397E+00 0.12022358E+03</pdfrwt>
<pdfrwt beam="2">  1       21 0.67795623E-02 0.12022358E+03</pdfrwt>
<totfact> 0.11615791E+04</totfact>
</mgrwt>
</event>
<event>
 4    1  0.6158309E+003  0.1420394E+03  0.7546771E-02  0.1210611E+00
         21   -1    0    0  503  501  0.00000000000E+00  0.00000000000E+00  0.70361379133E+02  0.70361379133E+02  0.00000000000E+00 0. -1.
         21   -1    0    0  504  502 -0.00000000000E+00 -0.00000000000E+00 -0.28678279112E+03  0.28678279112E+03  0.00000000000E+00 0. -1.
         21    1    1    2  503  502  0.53576673441E+02 -0.13154749407E+03 -0.11046983858E+03  0.17994106916E+03  0.00000000000E+00 0. -1.
         21    1    1    2  504  501 -0.53576673441E+02  0.13154749407E+03 -0.10595157341E+03  0.17720310110E+03  0.00000000000E+00 0. -1.
<mgrwt>
<rscale>  2 0.14203944E+03</rscale>
<asrwt>0</asrwt>
<pdfrwt beam="1">  1       21 0.10824828E-01 0.14203944E+03</pdfrwt>
<pdfrwt beam="2">  1       21 0.44120428E-01 0.14203944E+03</pdfrwt>
<totfact> 0.35143347E+05</totfact>
</mgrwt>
</event>
<event>
 4    1  0.6158309E+003  0.1414346E+03  0.7546771E-02  0.1211412E+00
         21   -1    0    0  503  501  0.00000000000E+00  0.00000000000E+00  0.30153110714E+03  0.30153110714E+03  0.00000000000E+00 0. -1.
         21   -1    0    0  501  502 -0.00000000000E+00 -0.00000000000E+00 -0.50256193014E+03  0.50256193014E+03  0.00000000000E+00 0. -1.
         21    1    1    2  503  504 -0.12892972747E+03 -0.58145271944E+02  0.27405629816E+03  0.30840006782E+03  0.00000000000E+00 0. -1.
         21    1    1    2  504  502  0.12892972747E+03  0.58145271944E+02 -0.47508712116E+03  0.49569296946E+03  0.00000000000E+00 0. -1.
<mgrwt>
<rscale>  2 0.14143460E+03</rscale>
<asrwt>0</asrwt>
<pdfrwt beam="1">  1       21 0.46389401E-01 0.14143460E+03</pdfrwt>
<pdfrwt beam="2">  1       21 0.77317220E-01 0.14143460E+03</pdfrwt>
<totfact> 0.68908276E+03</totfact>
</mgrwt>
</event>
<event>
 4    1  0.6158309E+003  0.1076088E+03  0.7546771E-02  0.1265063E+00
         21   -1    0    0  503  501  0.00000000000E+00  0.00000000000E+00  0.17834832143E+03  0.17834832143E+03  0.00000000000E+00 0.  1.
         21   -1    0    0  504  502 -0.00000000000E+00 -0.00000000000E+00 -0.29728686935E+03  0.29728686935E+03  0.00000000000E+00 0. -1.
         21    1    1    2  503  502  0.10239925286E+03  0.33076278417E+02  0.15078098862E+03  0.18524187893E+03  0.00000000000E+00 0.  1.
         21    1    1    2  504  501 -0.10239925286E+03 -0.33076278417E+02 -0.26971953653E+03  0.29039331185E+03  0.00000000000E+00 0. -1.
<mgrwt>
<rscale>  2 0.10760877E+03</rscale>
<asrwt>0</asrwt>
<pdfrwt beam="1">  1       21 0.27438204E-01 0.10760877E+03</pdfrwt>
<pdfrwt beam="2">  1       21 0.45736441E-01 0.10760877E+03</pdfrwt>
<totfact> 0.60548262E+04</totfact>
</mgrwt>
</event>
<event>
 4    1  0.6158309E+003  0.1111223E+03  0.7546771E-02  0.1258506E+00
         21   -1    0    0  503  501  0.00000000000E+00  0.00000000000E+00  0.19573086220E+03  0.19573086220E+03  0.00000000000E+00 0. -1.
         21   -1    0    0  501  502 -0.00000000000E+00 -0.00000000000E+00 -0.24013001508E+03  0.24013001508E+03  0.00000000000E+00 0.  1.
         21    1    1    2  503  504 -0.90021529816E+02 -0.65148260924E+02  0.16492612795E+03  0.19886879950E+03  0.00000000000E+00 0. -1.
         21    1    1    2  504  502  0.90021529816E+02  0.65148260924E+02 -0.20932528084E+03  0.23699207778E+03  0.00000000000E+00 0.  1.
<mgrwt>
<rscale>  2 0.11112233E+03</rscale>
<asrwt>0</asrwt>
<pdfrwt beam="1">  1       21 0.30112441E-01 0.11112233E+03</pdfrwt>
<pdfrwt beam="2">  1       21 0.36943079E-01 0.11112233E+03</pdfrwt>
<totfact> 0.77499241E+04</totfact>
</mgrwt>
</event>
<event>
 4    1  0.6158309E+003  0.1543050E+03  0.7546771E-02  0.1195281E+00
         21   -1    0    0  504  501  0.00000000000E+00  0.00000000000E+00  0.18366895302E+03  0.18366895302E+03  0.00000000000E+00 0. -1.
         21   -1    0    0  503  502 -0.00000000000E+00 -0.00000000000E+00 -0.20419589892E+03  0.20419589892E+03  0.00000000000E+00 0. -1.
         21    1    1    2  503  501 -0.11063294601E+03 -0.10756571396E+03 -0.12745083985E+03  0.20013432524E+03  0.00000000000E+00 0. -1.
         21    1    1    2  504  502  0.11063294601E+03  0.10756571396E+03  0.10692389394E+03  0.18773052671E+03  0.00000000000E+00 0. -1.
<mgrwt>
<rscale>  2 0.15430500E+03</rscale>
<asrwt>0</asrwt>
<pdfrwt beam="1">  1       21 0.28256762E-01 0.15430500E+03</pdfrwt>
<pdfrwt beam="2">  1       21 0.31414754E-01 0.15430500E+03</pdfrwt>
<totfact> 0.11820503E+05</totfact>
</mgrwt>
</event>
<event>
 4    1  0.6158309E+003  0.1144242E+03  0.7546771E-02  0.1252590E+00
         21   -1    0    0  503  501  0.00000000000E+00  0.00000000000E+00  0.12126413879E+03  0.12126413879E+03  0.00000000000E+00 0.  1.
         21   -1    0    0  501  502 -0.00000000000E+00 -0.00000000000E+00 -0.59383674569E+03  0.59383674569E+03  0.00000000000E+00 0. -1.
         21    1    1    2  503  504 -0.10474180582E+03  0.46065740931E+02  0.87130320415E+02  0.14382138614E+03  0.00000000000E+00 0.  1.
         21    1    1    2  504  502  0.10474180582E+03 -0.46065740931E+02 -0.55970292731E+03  0.57127949833E+03  0.00000000000E+00 0. -1.
<mgrwt>
<rscale>  2 0.11442420E+03</rscale>
<asrwt>0</asrwt>
<pdfrwt beam="1">  1       21 0.18656022E-01 0.11442420E+03</pdfrwt>
<pdfrwt beam="2">  1       21 0.91359498E-01 0.11442420E+03</pdfrwt>
<totfact> 0.28030544E+04</totfact>
</mgrwt>
</event>
<event>
 4    1  0.6158309E+003  0.1070605E+03  0.7546771E-02  0.1266112E+00
         21   -1    0    0  503  501  0.00000000000E+00  0.00000000000E+00  0.41258511528E+03  0.41258511528E+03  0.00000000000E+00 0.  1.
         21   -1    0    0  501  502 -0.00000000000E+00 -0.00000000000E+00 -0.94220938906E+02  0.94220938906E+02  0.00000000000E+00 0.  1.
         21    1    1    2  503  504 -0.13931318557E+01 -0.10705147644E+03  0.37197307713E+03  0.38707354538E+03  0.00000000000E+00 0.  1.
         21    1    1    2  504  502  0.13931318557E+01  0.10705147644E+03 -0.53608900757E+02  0.11973250880E+03  0.00000000000E+00 0.  1.
<mgrwt>
<rscale>  2 0.10706054E+03</rscale>
<asrwt>0</asrwt>
<pdfrwt beam="1">  1       21 0.63474632E-01 0.10706054E+03</pdfrwt>
<pdfrwt beam="2">  1       21 0.14495529E-01 0.10706054E+03</pdfrwt>
<totfact> 0.99237410E+04</totfact>
</mgrwt>
</event>
<event>
 4    1  0.6158309E+003  0.1029233E+03  0.7546771E-02  0.1274266E+00
         21   -1    0    0  504  501  0.00000000000E+00  0.00000000000E+00  0.96115827468E+02  0.96115827468E+02  0.00000000000E+00 0. -1.
         21   -1    0    0  503  502 -0.00000000000E+00 -0.00000000000E+00 -0.22200800471E+03  0.22200800471E+03  0.00000000000E+00 0.  1.
         21    1    1    2  503  501 -0.97863083692E+02 -0.31875124414E+02  0.49927734040E+02  0.11439399168E+03  0.00000000000E+00 0. -1.
         21    1    1    2  504  502  0.97863083692E+02  0.31875124414E+02 -0.17581991128E+03  0.20372984050E+03  0.00000000000E+00 0.  1.
<mgrwt>
<rscale>  2 0.10292330E+03</rscale>
<asrwt>0</asrwt>
<pdfrwt beam="1">  1       21 0.14787050E-01 0.10292330E+03</pdfrwt>
<pdfrwt beam="2">  1       21 0.34155078E-01 0.10292330E+03</pdfrwt>
<totfact> 0.33798118E+05</totfact>
</mgrwt>
</event>
<event>
 4    1  0.6158309E+003  0.1141833E+03  0.7546771E-02  0.1253013E+00
         21   -1    0    0  502  501  0.00000000000E+00  0.00000000000E+00  0.11287351921E+03  0.11287351921E+03  0.00000000000E+00 0.  1.
         21   -1    0    0  504  502 -0.00000000000E+00 -0.00000000000E+00 -0.28860668892E+03  0.28860668892E+03  0.00000000000E+00 0.  1.
         21    1    1    2  503  501  0.10403509228E+03  0.47058710044E+02  0.67596587298E+02  0.13269182805E+03  0.00000000000E+00 0.  1.
         21    1    1    2  504  503 -0.10403509228E+03 -0.47058710044E+02 -0.24332975701E+03  0.26878838008E+03  0.00000000000E+00 0.  1.
<mgrwt>
<rscale>  2 0.11418329E+03</rscale>
<asrwt>0</asrwt>
<pdfrwt beam="1">  1       21 0.17365157E-01 0.11418329E+03</pdfrwt>
<pdfrwt beam="2">  1       21 0.44401028E-01 0.11418329E+03</pdfrwt>
<totfact> 0.14991082E+05</totfact>
</mgrwt>
</event>
<event>
 4    1  0.6158309E+003  0.1011982E+03  0.7546771E-02  0.1277796E+00
         21   -1    0    0  503  501  0.00000000000E+00  0.00000000000E+00  0.32603382024E+02  0.32603382024E+02  0.00000000000E+00 0. -1.
         21   -1    0    0  501  502 -0.00000000000E+00 -0.00000000000E+00 -0.79772880291E+03  0.79772880291E+03  0.00000000000E+00 0. -1.
         21    1    1    2  503  504 -0.10078184718E+03  0.91704147001E+01 -0.59307576683E+02  0.11729648707E+03  0.00000000000E+00 0. -1.
         21    1    1    2  504  502  0.10078184718E+03 -0.91704147001E+01 -0.70581784421E+03  0.71303569786E+03  0.00000000000E+00 0. -1.
<mgrwt>
<rscale>  2 0.10119821E+03</rscale>
<asrwt>0</asrwt>
<pdfrwt beam="1">  1       21 0.50159053E-02 0.10119821E+03</pdfrwt>
<pdfrwt beam="2">  1       21 0.12272750E+00 0.10119821E+03</pdfrwt>
<totfact> 0.13891060E+05</totfact>
</mgrwt>
</event>
<event>
 4    1  0.6158309E+003  0.1190843E+03  0.7546771E-02  0.1244615E+00
         21   -1    0    0  503  501  0.00000000000E+00  0.00000000000E+00  0.98790046449E+03  0.98790046449E+03  0.00000000000E+00 0.  1.
         21   -1    0    0  504  502 -0.00000000000E+00 -0.00000000000E+00 -0.34264759217E+02  0.34264759217E+02  0.00000000000E+00 0.  1.
         21    1    1    2  503  502  0.15265160030E+02  0.11810188326E+03  0.86640338458E+03  0.87454897219E+03  0.00000000000E+00 0.  1.
         21    1    1    2  504  501 -0.15265160030E+02 -0.11810188326E+03  0.87232320687E+02  0.14761625152E+03  0.00000000000E+00 0.  1.
<mgrwt>
<rscale>  2 0.11908434E+03</rscale>
<asrwt>0</asrwt>
<pdfrwt beam="1">  1       21 0.15198467E+00 0.11908434E+03</pdfrwt>
<pdfrwt beam="2">  1       21 0.52715022E-02 0.11908434E+03</pdfrwt>
<totfact> 0.73991654E+04</totfact>
</mgrwt>
</event>
<event>
 4    1  0.6158309E+003  0.1392132E+03  0.7546771E-02  0.1214392E+00
         21   -1    0    0  503  501  0.00000000000E+00  0.00000000000E+00  0.37586617021E+02  0.37586617021E+02  0.00000000000E+00 0. -1.
         21   -1    0    0  504  502 -0.00000000000E+00 -0.00000000000E+00 -0.86014591034E+03  0.86014591034E+03  0.00000000000E+00 0. -1.
         21    1    1    2  503  502 -0.13897614126E+03  0.81210258042E+01 -0.12719785533E+03  0.18857256773E+03  0.00000000000E+00 0. -1.
         21    1    1    2  504  501  0.13897614126E+03 -0.81210258042E+01 -0.69536143799E+03  0.70915995963E+03  0.00000000000E+00 0. -1.
<mgrwt>
<rscale>  2 0.13921321E+03</rscale>
<asrwt>0</asrwt>
<pdfrwt beam="1">  1       21 0.57825570E-02 0.13921321E+03</pdfrwt>
<pdfrwt beam="2">  1       21 0.13233013E+00 0.13921321E+03</pdfrwt>
<totfact> 0.89053905E+04</totfact>
</mgrwt>
</event>
<event>
 4    1  0.6158309E+003  0.1082072E+03  0.7546771E-02  0.1263926E+00
         21   -1    0    0  504  501  0.00000000000E+00  0.00000000000E+00  0.72127199769E+02  0.72127199769E+02  0.00000000000E+00 0.  1.
         21   -1    0    0  503  502 -0.00000000000E+00 -0.00000000000E+00 -0.56829718966E+03  0.56829718966E+03  0.00000000000E+00 0. -1.
         21    1    1    2  503  501  0.51789064995E+02  0.95008867888E+02  0.22555471784E+02  0.11053298846E+03  0.00000000000E+00 0.  1.
         21    1    1    2  504  502 -0.51789064995E+02 -0.95008867888E+02 -0.51872546167E+03  0.52989140097E+03  0.00000000000E+00 0. -1.
<mgrwt>
<rscale>  2 0.10820717E+03</rscale>
<asrwt>0</asrwt>
<pdfrwt beam="1">  1       21 0.11096492E-01 0.10820717E+03</pdfrwt>
<pdfrwt beam="2">  1       21 0.87430341E-01 0.10820717E+03</pdfrwt>
<totfact> 0.78851510E+04</totfact>
</mgrwt>
</event>
<event>
 4    1  0.6158309E+003  0.1496718E+03  0.7546771E-02  0.1200877E+00
         21   -1    0    0  504  501  0.00000000000E+00  0.00000000000E+00  0.40935135751E+02  0.40935135751E+02  0.00000000000E+00 0.  1.
         21   -1    0    0  501  502 -0.00000000000E+00 -0.00000000000E+00 -0.91944616330E+03  0.91944616330E+03  0.00000000000E+00 0.  1.
         21    1    1    2  503  502 -0.12240634046E+03  0.86129703310E+02 -0.74477444950E+03  0.75966480674E+03  0.00000000000E+00 0.  1.
         21    1    1    2  504  503  0.12240634046E+03 -0.86129703310E+02 -0.13373657805E+03  0.20071649231E+03  0.00000000000E+00 0.  1.
<mgrwt>
<rscale>  2 0.14967177E+03</rscale>
<asrwt>0</asrwt>
<pdfrwt beam="1">  1       21 0.62977137E-02 0.14967177E+03</pdfrwt>
<pdfrwt beam="2">  1       21 0.14145324E+00 0.14967177E+03</pdfrwt>
<totfact> 0.64699314E+04</totfact>
</mgrwt>
</event>
<event>
 4    1  0.6158309E+003  0.2215039E+03  0.7546771E-02  0.1132767E+00
         21   -1    0    0  503  501  0.00000000000E+00  0.00000000000E+00  0.55945012296E+02  0.55945012296E+02  0.00000000000E+00 0.  1.
         21   -1    0    0  504  502 -0.00000000000E+00 -0.00000000000E+00 -0.88036875796E+03  0.88036875796E+03  0.00000000000E+00 0.  1.
         21    1    1    2  503  502  0.18605996846E+03  0.12019005783E+03 -0.38326647652E+03  0.44267048003E+03  0.00000000000E+00 0.  1.
         21    1    1    2  504  501 -0.18605996846E+03 -0.12019005783E+03 -0.44115726914E+03  0.49364329022E+03  0.00000000000E+00 0.  1.
<mgrwt>
<rscale>  2 0.22150386E+03</rscale>
<asrwt>0</asrwt>
<pdfrwt beam="1">  1       21 0.86069258E-02 0.22150386E+03</pdfrwt>
<pdfrwt beam="2">  1       21 0.13544133E+00 0.22150386E+03</pdfrwt>
<totfact> 0.40498284E+04</totfact>
</mgrwt>
</event>
<event>
 4    1  0.6158309E+003  0.1072095E+03  0.7546771E-02  0.1265827E+00
         21   -1    0    0  503  501  0.00000000000E+00  0.00000000000E+00  0.23420052696E+03  0.23420052696E+03  0.00000000000E+00 0. -1.
         21   -1    0    0  504  502 -0.00000000000E+00 -0.00000000000E+00 -0.92749746540E+02  0.92749746540E+02  0.00000000000E+00 0.  1.
         21    1    1    2  503  502 -0.70332348793E+02  0.80914952545E+02  0.18290150469E+03  0.21200667265E+03  0.00000000000E+00 0. -1.
         21    1    1    2  504  501  0.70332348793E+02 -0.80914952545E+02 -0.41450724272E+02  0.11494360084E+03  0.00000000000E+00 0.  1.
<mgrwt>
<rscale>  2 0.10720946E+03</rscale>
<asrwt>0</asrwt>
<pdfrwt beam="1">  1       21 0.36030850E-01 0.10720946E+03</pdfrwt>
<pdfrwt beam="2">  1       21 0.14269192E-01 0.10720946E+03</pdfrwt>
<totfact> 0.32429699E+05</totfact>
</mgrwt>
</event>
<event>
 4    1  0.6158309E+003  0.1261678E+03  0.7546771E-02  0.1233255E+00
         21   -1    0    0  503  501  0.00000000000E+00  0.00000000000E+00  0.69526070555E+02  0.69526070555E+02  0.00000000000E+00 0. -1.
         21   -1    0    0  504  502 -0.00000000000E+00 -0.00000000000E+00 -0.72561506701E+03  0.72561506701E+03  0.00000000000E+00 0. -1.
         21    1    1    2  503  502  0.12075362481E+03 -0.36563194177E+02 -0.65696499042E+03  0.66897033097E+03  0.00000000000E+00 0. -1.
         21    1    1    2  504  501 -0.12075362481E+03  0.36563194177E+02  0.87599396493E+00  0.12617080660E+03  0.00000000000E+00 0. -1.
<mgrwt>
<rscale>  2 0.12616777E+03</rscale>
<asrwt>0</asrwt>
<pdfrwt beam="1">  1       21 0.10696318E-01 0.12616777E+03</pdfrwt>
<pdfrwt beam="2">  1       21 0.11163309E+00 0.12616777E+03</pdfrwt>
<totfact> 0.47107190E+04</totfact>
</mgrwt>
</event>
<event>
 4    1  0.6158309E+003  0.1385428E+03  0.7546771E-02  0.1215303E+00
         21   -1    0    0  503  501  0.00000000000E+00  0.00000000000E+00  0.14991680428E+04  0.14991680428E+04  0.00000000000E+00 0. -1.
         21   -1    0    0  504  502 -0.00000000000E+00 -0.00000000000E+00 -0.28983230217E+02  0.28983230217E+02  0.00000000000E+00 0. -1.
         21    1    1    2  503  502  0.15107119152E+02 -0.13771669667E+03  0.13059830604E+04  0.13133110324E+04  0.00000000000E+00 0. -1.
         21    1    1    2  504  501 -0.15107119152E+02  0.13771669667E+03  0.16420175211E+03  0.21484024061E+03  0.00000000000E+00 0. -1.
<mgrwt>
<rscale>  2 0.13854282E+03</rscale>
<asrwt>0</asrwt>
<pdfrwt beam="1">  1       21 0.23064118E+00 0.13854282E+03</pdfrwt>
<pdfrwt beam="2">  1       21 0.44589597E-02 0.13854282E+03</pdfrwt>
<totfact> 0.29646838E+04</totfact>
</mgrwt>
</event>
<event>
 4    1  0.6158309E+003  0.1521336E+03  0.7546771E-02  0.1197875E+00
         21   -1    0    0  502  501  0.00000000000E+00  0.00000000000E+00  0.37704118930E+02  0.37704118930E+02  0.00000000000E+00 0. -1.
         21   -1    0    0  504  502 -0.00000000000E+00 -0.00000000000E+00 -0.71016781515E+03  0.71016781515E+03  0.00000000000E+00 0. -1.
         21    1    1    2  503  501  0.14464753296E+03  0.47135216980E+02 -0.19851971460E+03  0.25010940517E+03  0.00000000000E+00 0. -1.
         21    1    1    2  504  503 -0.14464753296E+03 -0.47135216980E+02 -0.47394398162E+03  0.49776252891E+03  0.00000000000E+00 0. -1.
<mgrwt>
<rscale>  2 0.15213362E+03</rscale>
<asrwt>0</asrwt>
<pdfrwt beam="1">  1       21 0.58006342E-02 0.15213362E+03</pdfrwt>
<pdfrwt beam="2">  1       21 0.10925658E+00 0.15213362E+03</pdfrwt>
<totfact> 0.14088388E+05</totfact>
</mgrwt>
</event>
<event>
 4    1  0.6158309E+003  0.1039307E+03  0.7546771E-02  0.1272241E+00
         21   -1    0    0  502  501  0.00000000000E+00  0.00000000000E+00  0.46116928850E+02  0.46116928850E+02  0.00000000000E+00 0. -1.
         21   -1    0    0  504  502 -0.00000000000E+00 -0.00000000000E+00 -0.38880483782E+03  0.38880483782E+03  0.00000000000E+00 0. -1.
         21    1    1    2  503  501 -0.97103990862E+02  0.37045889080E+02 -0.34225328001E+02  0.10942100354E+03  0.00000000000E+00 0. -1.
         21    1    1    2  504  503  0.97103990862E+02 -0.37045889080E+02 -0.30846258097E+03  0.32550076313E+03  0.00000000000E+00 0. -1.
<mgrwt>
<rscale>  2 0.10393066E+03</rscale>
<asrwt>0</asrwt>
<pdfrwt beam="1">  1       21 0.70949122E-02 0.10393066E+03</pdfrwt>
<pdfrwt beam="2">  1       21 0.59816128E-01 0.10393066E+03</pdfrwt>
<totfact> 0.39136433E+05</totfact>
</mgrwt>
</event>
<event>
 4    1  0.6158309E+003  0.1180032E+03  0.7546771E-02  0.1246428E+00
         21   -1    0    0  502  501  0.00000000000E+00  0.00000000000E+00  0.69053021710E+02  0.69053021710E+02  0.00000000000E+00 0. -1.
         21   -1    0    0  503  502 -0.00000000000E+00 -0.00000000000E+00 -0.32098981053E+03  0.32098981053E+03  0.00000000000E+00 0. -1.
         21    1    1    2  503  504  0.11757937972E+03  0.99925691080E+01 -0.24487981117E+03  0.27182877679E+03  0.00000000000E+00 0. -1.
         21    1    1    2  504  501 -0.11757937972E+03 -0.99925691080E+01 -0.70569776481E+01  0.11821405545E+03  0.00000000000E+00 0. -1.
<mgrwt>
<rscale>  2 0.11800323E+03</rscale>
<asrwt>0</asrwt>
<pdfrwt beam="1">  1       21 0.10623542E-01 0.11800323E+03</pdfrwt>
<pdfrwt beam="2">  1       21 0.49383047E-01 0.11800323E+03</pdfrwt>
<totfact> 0.28975639E+05</totfact>
</mgrwt>
</event>
<event>
 4    1  0.6158309E+003  0.1040577E+03  0.7546771E-02  0.1271987E+00
         21   -1    0    0  503  501  0.00000000000E+00  0.00000000000E+00  0.60821644967E+03  0.60821644967E+03  0.00000000000E+00 0. -1.
         21   -1    0    0  504  502 -0.00000000000E+00 -0.00000000000E+00 -0.17841125349E+02  0.17841125349E+02  0.00000000000E+00 0. -1.
         21    1    1    2  503  502  0.10214944623E+03 -0.19836789649E+02  0.30967982914E+03  0.32669497113E+03  0.00000000000E+00 0. -1.
         21    1    1    2  504  501 -0.10214944623E+03  0.19836789649E+02  0.28069549519E+03  0.29936260389E+03  0.00000000000E+00 0. -1.
<mgrwt>
<rscale>  2 0.10405771E+03</rscale>
<asrwt>0</asrwt>
<pdfrwt beam="1">  1       21 0.93571746E-01 0.10405771E+03</pdfrwt>
<pdfrwt beam="2">  1       21 0.27447890E-02 0.10405771E+03</pdfrwt>
<totfact> 0.71014487E+05</totfact>
</mgrwt>
</event>
<event>
 4    1  0.6158309E+003  0.1018754E+03  0.7546771E-02  0.1276401E+00
         21   -1    0    0  504  501  0.00000000000E+00  0.00000000000E+00  0.85925088372E+02  0.85925088372E+02  0.00000000000E+00 0.  1.
         21   -1    0    0  501  502 -0.00000000000E+00 -0.00000000000E+00 -0.16025626640E+03  0.16025626640E+03  0.00000000000E+00 0. -1.
         21    1    1    2  503  502 -0.74938848619E+02  0.69012800335E+02 -0.98252685616E+02  0.14153511180E+03  0.00000000000E+00 0. -1.
         21    1    1    2  504  503  0.74938848619E+02 -0.69012800335E+02  0.23921507586E+02  0.10464624297E+03  0.00000000000E+00 0.  1.
<mgrwt>
<rscale>  2 0.10187540E+03</rscale>
<asrwt>0</asrwt>
<pdfrwt beam="1">  1       21 0.13219244E-01 0.10187540E+03</pdfrwt>
<pdfrwt beam="2">  1       21 0.24654810E-01 0.10187540E+03</pdfrwt>
<totfact> 0.76903560E+05</totfact>
</mgrwt>
</event>
<event>
 4    1  0.6158309E+003  0.1005455E+03  0.7546771E-02  0.1279153E+00
         21   -1    0    0  504  501  0.00000000000E+00  0.00000000000E+00  0.10039735406E+04  0.10039735406E+04  0.00000000000E+00 0.  1.
         21   -1    0    0  501  502 -0.00000000000E+00 -0.00000000000E+00 -0.74879851605E+02  0.74879851605E+02  0.00000000000E+00 0.  1.
         21    1    1    2  503  502  0.19531632614E+02  0.98630195196E+02 -0.37301515338E+02  0.10724179746E+03  0.00000000000E+00 0.  1.
         21    1    1    2  504  503 -0.19531632614E+02 -0.98630195196E+02  0.96639520438E+03  0.97161159479E+03  0.00000000000E+00 0.  1.
<mgrwt>
<rscale>  2 0.10054551E+03</rscale>
<asrwt>0</asrwt>
<pdfrwt beam="1">  1       21 0.15445746E+00 0.10054551E+03</pdfrwt>
<pdfrwt beam="2">  1       21 0.11519978E-01 0.10054551E+03</pdfrwt>
<totfact> 0.18864372E+04</totfact>
</mgrwt>
</event>
<event>
 4    1  0.6158309E+003  0.1178487E+03  0.7546771E-02  0.1246689E+00
         21   -1    0    0  502  501  0.00000000000E+00  0.00000000000E+00  0.25252510435E+03  0.25252510435E+03  0.00000000000E+00 0. -1.
         21   -1    0    0  503  502 -0.00000000000E+00 -0.00000000000E+00 -0.12097247440E+04  0.12097247440E+04  0.00000000000E+00 0. -1.
         21    1    1    2  503  504  0.84497316871E+02  0.82149403512E+02 -0.11929118432E+04  0.11987188939E+04  0.00000000000E+00 0. -1.
         21    1    1    2  504  501 -0.84497316871E+02 -0.82149403512E+02  0.23571220352E+03  0.26353095443E+03  0.00000000000E+00 0. -1.
<mgrwt>
<rscale>  2 0.11784872E+03</rscale>
<asrwt>0</asrwt>
<pdfrwt beam="1">  1       21 0.38850017E-01 0.11784872E+03</pdfrwt>
<pdfrwt beam="2">  1       21 0.18611150E+00 0.11784872E+03</pdfrwt>
<totfact> 0.11677111E+03</totfact>
</mgrwt>
</event>
<event>
 4    1  0.6158309E+003  0.1358887E+03  0.7546771E-02  0.1218971E+00
         21   -1    0    0  504  501  0.00000000000E+00  0.00000000000E+00  0.89924816899E+02  0.89924816899E+02  0.00000000000E+00 0. -1.
         21   -1    0    0  501  502 -0.00000000000E+00 -0.00000000000E+00 -0.76628555084E+03  0.76628555084E+03  0.00000000000E+00 0. -1.
         21    1    1    2  503  502 -0.12188505673E+03 -0.60081379065E+02 -0.70446022508E+03  0.71744682582E+03  0.00000000000E+00 0. -1.
         21    1    1    2  504  503  0.12188505673E+03  0.60081379065E+02  0.28099491137E+02  0.13876354192E+03  0.00000000000E+00 0. -1.
<mgrwt>
<rscale>  2 0.13588870E+03</rscale>
<asrwt>0</asrwt>
<pdfrwt beam="1">  1       21 0.13834586E-01 0.13588870E+03</pdfrwt>
<pdfrwt beam="2">  1       21 0.11789009E+00 0.13588870E+03</pdfrwt>
<totfact> 0.26001495E+04</totfact>
</mgrwt>
</event>
<event>
 4    1  0.6158309E+003  0.1008201E+03  0.7546771E-02  0.1278581E+00
         21   -1    0    0  503  501  0.00000000000E+00  0.00000000000E+00  0.45046901482E+03  0.45046901482E+03  0.00000000000E+00 0.  1.
         21   -1    0    0  504  502 -0.00000000000E+00 -0.00000000000E+00 -0.32099360444E+02  0.32099360444E+02  0.00000000000E+00 0.  1.
         21    1    1    2  503  502  0.16869165769E+02 -0.99398778043E+02  0.34068729769E+03  0.35529216236E+03  0.00000000000E+00 0.  1.
         21    1    1    2  504  501 -0.16869165769E+02  0.99398778043E+02  0.77682356690E+02  0.12727621290E+03  0.00000000000E+00 0.  1.
<mgrwt>
<rscale>  2 0.10082007E+03</rscale>
<asrwt>0</asrwt>
<pdfrwt beam="1">  1       21 0.69302920E-01 0.10082007E+03</pdfrwt>
<pdfrwt beam="2">  1       21 0.49383635E-02 0.10082007E+03</pdfrwt>
<totfact> 0.52645083E+05</totfact>
</mgrwt>
</event>
<event>
 4    1  0.6158309E+003  0.1395581E+03  0.7546771E-02  0.1213925E+00
         21   -1    0    0  503  501  0.00000000000E+00  0.00000000000E+00  0.14164462861E+03  0.14164462861E+03  0.00000000000E+00 0.  1.
         21   -1    0    0  504  502 -0.00000000000E+00 -0.00000000000E+00 -0.47258174562E+03  0.47258174562E+03  0.00000000000E+00 0. -1.
         21    1    1    2  503  502  0.13936278291E+03 -0.73818540318E+01 -0.42407171424E+03  0.44644517675E+03  0.00000000000E+00 0. -1.
         21    1    1    2  504  501 -0.13936278291E+03  0.73818540318E+01  0.93134597226E+02  0.16778119748E+03  0.00000000000E+00 0.  1.
<mgrwt>
<rscale>  2 0.13955815E+03</rscale>
<asrwt>0</asrwt>
<pdfrwt beam="1">  1       21 0.21791481E-01 0.13955815E+03</pdfrwt>
<pdfrwt beam="2">  1       21 0.72704886E-01 0.13955815E+03</pdfrwt>
<totfact> 0.34493100E+04</totfact>
</mgrwt>
</event>
<event>
 4    1  0.6158309E+003  0.1012085E+03  0.7546771E-02  0.1277775E+00
         21   -1    0    0  503  501  0.00000000000E+00  0.00000000000E+00  0.56598839966E+01  0.56598839966E+01  0.00000000000E+00 0. -1.
         21   -1    0    0  501  502 -0.00000000000E+00 -0.00000000000E+00 -0.18288709451E+04  0.18288709451E+04  0.00000000000E+00 0. -1.
         21    1    1    2  503  504  0.63288508109E+02 -0.78979245617E+02 -0.81789383087E+03  0.82413195247E+03  0.00000000000E+00 0. -1.
         21    1    1    2  504  502 -0.63288508109E+02  0.78979245617E+02 -0.10053172303E+04  0.10103988767E+04  0.00000000000E+00 0. -1.
<mgrwt>
<rscale>  2 0.10120848E+03</rscale>
<asrwt>0</asrwt>
<pdfrwt beam="1">  1       21 0.87075028E-03 0.10120848E+03</pdfrwt>
<pdfrwt beam="2">  1       21 0.28136512E+00 0.10120848E+03</pdfrwt>
<totfact> 0.22049964E+05</totfact>
</mgrwt>
</event>
<event>
 4    1  0.6158309E+003  0.1755092E+03  0.7546771E-02  0.1172221E+00
         21   -1    0    0  503  501  0.00000000000E+00  0.00000000000E+00  0.17390971088E+03  0.17390971088E+03  0.00000000000E+00 0. -1.
         21   -1    0    0  501  502 -0.00000000000E+00 -0.00000000000E+00 -0.20778334344E+03  0.20778334344E+03  0.00000000000E+00 0. -1.
         21    1    1    2  503  504 -0.16905819518E+03  0.47146797671E+02  0.56373311485E+02  0.18434056562E+03  0.00000000000E+00 0. -1.
         21    1    1    2  504  502  0.16905819518E+03 -0.47146797671E+02 -0.90246944045E+02  0.19735248870E+03  0.00000000000E+00 0. -1.
<mgrwt>
<rscale>  2 0.17550924E+03</rscale>
<asrwt>0</asrwt>
<pdfrwt beam="1">  1       21 0.26755340E-01 0.17550924E+03</pdfrwt>
<pdfrwt beam="2">  1       21 0.31966668E-01 0.17550924E+03</pdfrwt>
<totfact> 0.12592175E+05</totfact>
</mgrwt>
</event>
<event>
 4    1  0.6158309E+003  0.1566561E+03  0.7546771E-02  0.1192525E+00
         21   -1    0    0  503  501  0.00000000000E+00  0.00000000000E+00  0.42246009018E+02  0.42246009018E+02  0.00000000000E+00 0. -1.
         21   -1    0    0  504  502 -0.00000000000E+00 -0.00000000000E+00 -0.61928261397E+03  0.61928261397E+03  0.00000000000E+00 0. -1.
         21    1    1    2  503  502 -0.12698757779E+03  0.91734941236E+02 -0.37085299137E+03  0.40258301698E+03  0.00000000000E+00 0. -1.
         21    1    1    2  504  501  0.12698757779E+03 -0.91734941236E+02 -0.20618361358E+03  0.25894560600E+03  0.00000000000E+00 0. -1.
<mgrwt>
<rscale>  2 0.15665613E+03</rscale>
<asrwt>0</asrwt>
<pdfrwt beam="1">  1       21 0.64993864E-02 0.15665613E+03</pdfrwt>
<pdfrwt beam="2">  1       21 0.95274242E-01 0.15665613E+03</pdfrwt>
<totfact> 0.16022140E+05</totfact>
</mgrwt>
</event>
<event>
 4    1  0.6158309E+003  0.1074031E+03  0.7546771E-02  0.1265456E+00
         21   -1    0    0  504  501  0.00000000000E+00  0.00000000000E+00  0.65982717790E+02  0.65982717790E+02  0.00000000000E+00 0.  1.
         21   -1    0    0  503  502 -0.00000000000E+00 -0.00000000000E+00 -0.25836497083E+03  0.25836497083E+03  0.00000000000E+00 0.  1.
         21    1    1    2  503  501 -0.39514136358E+02  0.99870175160E+02 -0.39740094910E+01  0.10747656307E+03  0.00000000000E+00 0.  1.
         21    1    1    2  504  502  0.39514136358E+02 -0.99870175160E+02 -0.18840824355E+03  0.21687112555E+03  0.00000000000E+00 0.  1.
<mgrwt>
<rscale>  2 0.10740307E+03</rscale>
<asrwt>0</asrwt>
<pdfrwt beam="1">  1       21 0.10151187E-01 0.10740307E+03</pdfrwt>
<pdfrwt beam="2">  1       21 0.39748457E-01 0.10740307E+03</pdfrwt>
<totfact> 0.48709511E+05</totfact>
</mgrwt>
</event>
<event>
 4    1  0.6158309E+003  0.1410642E+03  0.7546771E-02  0.1211904E+00
         21   -1    0    0  504  501  0.00000000000E+00  0.00000000000E+00  0.97485269706E+03  0.97485269706E+03  0.00000000000E+00 0.  1.
         21   -1    0    0  503  502 -0.00000000000E+00 -0.00000000000E+00 -0.19953001866E+03  0.19953001866E+03  0.00000000000E+00 0. -1.
         21    1    1    2  503  501 -0.30923435482E+02 -0.13763299409E+03 -0.16868427159E+03  0.21989425505E+03  0.00000000000E+00 0. -1.
         21    1    1    2  504  502  0.30923435482E+02  0.13763299409E+03  0.94400694998E+03  0.95448846066E+03  0.00000000000E+00 0.  1.
<mgrwt>
<rscale>  2 0.14106417E+03</rscale>
<asrwt>0</asrwt>
<pdfrwt beam="1">  1       21 0.14997734E+00 0.14106417E+03</pdfrwt>
<pdfrwt beam="2">  1       21 0.30696926E-01 0.14106417E+03</pdfrwt>
<totfact> 0.32084869E+03</totfact>
</mgrwt>
</event>
<event>
 4    1  0.6158309E+003  0.1526830E+03  0.7546771E-02  0.1197214E+00
         21   -1    0    0  503  501  0.00000000000E+00  0.00000000000E+00  0.21292039003E+03  0.21292039003E+03  0.00000000000E+00 0.  1.
         21   -1    0    0  504  502 -0.00000000000E+00 -0.00000000000E+00 -0.13447295209E+03  0.13447295209E+03  0.00000000000E+00 0. -1.
         21    1    1    2  503  502  0.33914171415E+02 -0.14886884072E+03  0.11409553799E+03  0.19060402553E+03  0.00000000000E+00 0.  1.
         21    1    1    2  504  501 -0.33914171415E+02  0.14886884072E+03 -0.35648100055E+02  0.15678931659E+03  0.00000000000E+00 0. -1.
<mgrwt>
<rscale>  2 0.15268301E+03</rscale>
<asrwt>0</asrwt>
<pdfrwt beam="1">  1       21 0.32756983E-01 0.15268301E+03</pdfrwt>
<pdfrwt beam="2">  1       21 0.20688146E-01 0.15268301E+03</pdfrwt>
<totfact> 0.19660401E+05</totfact>
</mgrwt>
</event>
<event>
 4    1  0.6158309E+003  0.1193528E+03  0.7546771E-02  0.1244169E+00
         21   -1    0    0  503  501  0.00000000000E+00  0.00000000000E+00  0.65994428376E+01  0.65994428376E+01  0.00000000000E+00 0.  1.
         21   -1    0    0  504  502 -0.00000000000E+00 -0.00000000000E+00 -0.24122447927E+04  0.24122447927E+04  0.00000000000E+00 0.  1.
         21    1    1    2  503  502  0.83951740735E+02 -0.84836222158E+02 -0.15950539192E+04  0.15995130774E+04  0.00000000000E+00 0.  1.
         21    1    1    2  504  501 -0.83951740735E+02  0.84836222158E+02 -0.81059143063E+03  0.81933115819E+03  0.00000000000E+00 0.  1.
<mgrwt>
<rscale>  2 0.11935275E+03</rscale>
<asrwt>0</asrwt>
<pdfrwt beam="1">  1       21 0.10152977E-02 0.11935275E+03</pdfrwt>
<pdfrwt beam="2">  1       21 0.37111503E+00 0.11935275E+03</pdfrwt>
<totfact> 0.52667368E+04</totfact>
</mgrwt>
</event>
<event>
 4    1  0.6158309E+003  0.1248340E+03  0.7546771E-02  0.1235329E+00
         21   -1    0    0  504  501  0.00000000000E+00  0.00000000000E+00  0.28415580738E+03  0.28415580738E+03  0.00000000000E+00 0. -1.
         21   -1    0    0  503  502 -0.00000000000E+00 -0.00000000000E+00 -0.15201920883E+03  0.15201920883E+03  0.00000000000E+00 0. -1.
         21    1    1    2  503  501  0.91340915759E+02  0.85090303850E+02  0.24043556081E+03  0.27091102156E+03  0.00000000000E+00 0. -1.
         21    1    1    2  504  502 -0.91340915759E+02 -0.85090303850E+02 -0.10829896226E+03  0.16526399465E+03  0.00000000000E+00 0. -1.
<mgrwt>
<rscale>  2 0.12483398E+03</rscale>
<asrwt>0</asrwt>
<pdfrwt beam="1">  1       21 0.43716278E-01 0.12483398E+03</pdfrwt>
<pdfrwt beam="2">  1       21 0.23387571E-01 0.12483398E+03</pdfrwt>
<totfact> 0.88888845E+04</totfact>
</mgrwt>
</event>
<event>
 4    1  0.6158309E+003  0.1055978E+03  0.7546771E-02  0.1268946E+00
         21   -1    0    0  503  501  0.00000000000E+00  0.00000000000E+00  0.31173874498E+02  0.31173874498E+02  0.00000000000E+00 0. -1.
         21   -1    0    0  504  502 -0.00000000000E+00 -0.00000000000E+00 -0.83318964621E+03  0.83318964621E+03  0.00000000000E+00 0. -1.
         21    1    1    2  503  502 -0.73613728294E+02 -0.75709459741E+02 -0.74521623982E+02  0.12924540893E+03  0.00000000000E+00 0. -1.
         21    1    1    2  504  501  0.73613728294E+02  0.75709459741E+02 -0.72749414773E+03  0.73511811178E+03  0.00000000000E+00 0. -1.
<mgrwt>
<rscale>  2 0.10559784E+03</rscale>
<asrwt>0</asrwt>
<pdfrwt beam="1">  1       21 0.47959810E-02 0.10559784E+03</pdfrwt>
<pdfrwt beam="2">  1       21 0.12818301E+00 0.10559784E+03</pdfrwt>
<totfact> 0.13428085E+05</totfact>
</mgrwt>
</event>
<event>
 4    1  0.6158309E+003  0.1223188E+03  0.7546771E-02  0.1239320E+00
         21   -1    0    0  502  501  0.00000000000E+00  0.00000000000E+00  0.31408074157E+03  0.31408074157E+03  0.00000000000E+00 0.  1.
         21   -1    0    0  504  502 -0.00000000000E+00 -0.00000000000E+00 -0.52430774837E+02  0.52430774837E+02  0.00000000000E+00 0. -1.
         21    1    1    2  503  501  0.25797879105E+02 -0.11956733008E+03  0.18623668353E+03  0.22281377713E+03  0.00000000000E+00 0.  1.
         21    1    1    2  504  503 -0.25797879105E+02  0.11956733008E+03  0.75413283203E+02  0.14369773927E+03  0.00000000000E+00 0. -1.
<mgrwt>
<rscale>  2 0.12231875E+03</rscale>
<asrwt>0</asrwt>
<pdfrwt beam="1">  1       21 0.48320113E-01 0.12231875E+03</pdfrwt>
<pdfrwt beam="2">  1       21 0.80662733E-02 0.12231875E+03</pdfrwt>
<totfact> 0.48856800E+05</totfact>
</mgrwt>
</event>
<event>
 4    1  0.6158309E+003  0.1302523E+03  0.7546771E-02  0.1227082E+00
         21   -1    0    0  504  501  0.00000000000E+00  0.00000000000E+00  0.27430146248E+03  0.27430146248E+03  0.00000000000E+00 0. -1.
         21   -1    0    0  503  502 -0.00000000000E+00 -0.00000000000E+00 -0.92034016111E+02  0.92034016111E+02  0.00000000000E+00 0. -1.
         21    1    1    2  503  501  0.12061861120E+03  0.49161054252E+02 -0.13762618510E+02  0.13097735793E+03  0.00000000000E+00 0. -1.
         21    1    1    2  504  502 -0.12061861120E+03 -0.49161054252E+02  0.19603006488E+03  0.23535812065E+03  0.00000000000E+00 0. -1.
<mgrwt>
<rscale>  2 0.13025229E+03</rscale>
<asrwt>0</asrwt>
<pdfrwt beam="1">  1       21 0.42200225E-01 0.13025229E+03</pdfrwt>
<pdfrwt beam="2">  1       21 0.14159080E-01 0.13025229E+03</pdfrwt>
<totfact> 0.23907862E+05</totfact>
</mgrwt>
</event>
<event>
 4    1  0.6158309E+003  0.1024464E+03  0.7546771E-02  0.1275234E+00
         21   -1    0    0  502  501  0.00000000000E+00  0.00000000000E+00  0.23590202701E+03  0.23590202701E+03  0.00000000000E+00 0.  1.
         21   -1    0    0  504  502 -0.00000000000E+00 -0.00000000000E+00 -0.50341095340E+02  0.50341095340E+02  0.00000000000E+00 0.  1.
         21    1    1    2  503  501  0.34129554157E+02  0.96594243333E+02  0.14157412660E+03  0.17475270423E+03  0.00000000000E+00 0.  1.
         21    1    1    2  504  503 -0.34129554157E+02 -0.96594243333E+02  0.43986805063E+02  0.11149041812E+03  0.00000000000E+00 0.  1.
<mgrwt>
<rscale>  2 0.10244645E+03</rscale>
<asrwt>0</asrwt>
<pdfrwt beam="1">  1       21 0.36292619E-01 0.10244645E+03</pdfrwt>
<pdfrwt beam="2">  1       21 0.77447840E-02 0.10244645E+03</pdfrwt>
<totfact> 0.92969156E+05</totfact>
</mgrwt>
</event>
<event>
 4    1  0.6158309E+003  0.2456100E+03  0.7546771E-02  0.1116111E+00
         21   -1    0    0  503  501  0.00000000000E+00  0.00000000000E+00  0.89700877298E+02  0.89700877298E+02  0.00000000000E+00 0. -1.
         21   -1    0    0  501  502 -0.00000000000E+00 -0.00000000000E+00 -0.17562944410E+04  0.17562944410E+04  0.00000000000E+00 0. -1.
         21    1    1    2  503  504  0.16533044861E+03 -0.18163184975E+03 -0.10823602610E+03  0.26840142217E+03  0.00000000000E+00 0. -1.
         21    1    1    2  504  502 -0.16533044861E+03  0.18163184975E+03 -0.15583575376E+04  0.15775938961E+04  0.00000000000E+00 0. -1.
<mgrwt>
<rscale>  2 0.24561003E+03</rscale>
<asrwt>0</asrwt>
<pdfrwt beam="1">  1       21 0.13800135E-01 0.24561003E+03</pdfrwt>
<pdfrwt beam="2">  1       21 0.27019915E+00 0.24561003E+03</pdfrwt>
<totfact> 0.21876104E+03</totfact>
</mgrwt>
</event>
<event>
 4    1  0.6158309E+003  0.1777911E+03  0.7546771E-02  0.1169958E+00
         21   -1    0    0  503  501  0.00000000000E+00  0.00000000000E+00  0.66960696744E+03  0.66960696744E+03  0.00000000000E+00 0.  1.
         21   -1    0    0  504  502 -0.00000000000E+00 -0.00000000000E+00 -0.10979190016E+03  0.10979190016E+03  0.00000000000E+00 0. -1.
         21    1    1    2  503  502 -0.33993742302E+02 -0.17451105246E+03 -0.14318948501E+02  0.17836679689E+03  0.00000000000E+00 0. -1.
         21    1    1    2  504  501  0.33993742302E+02  0.17451105246E+03  0.57413401578E+03  0.60103207071E+03  0.00000000000E+00 0.  1.
<mgrwt>
<rscale>  2 0.17779112E+03</rscale>
<asrwt>0</asrwt>
<pdfrwt beam="1">  1       21 0.10301645E+00 0.17779112E+03</pdfrwt>
<pdfrwt beam="2">  1       21 0.16891062E-01 0.17779112E+03</pdfrwt>
<totfact> 0.24358549E+04</totfact>
</mgrwt>
</event>
<event>
 4    1  0.6158309E+003  0.1205323E+03  0.7546771E-02  0.1242221E+00
         21   -1    0    0  503  501  0.00000000000E+00  0.00000000000E+00  0.29378073901E+02  0.29378073901E+02  0.00000000000E+00 0.  1.
         21   -1    0    0  501  502 -0.00000000000E+00 -0.00000000000E+00 -0.71823152139E+03  0.71823152139E+03  0.00000000000E+00 0.  1.
         21    1    1    2  503  504  0.10359268673E+03 -0.61616514575E+02 -0.13580621621E+03  0.18158019709E+03  0.00000000000E+00 0.  1.
         21    1    1    2  504  502 -0.10359268673E+03  0.61616514575E+02 -0.55304723127E+03  0.56602939820E+03  0.00000000000E+00 0.  1.
<mgrwt>
<rscale>  2 0.12053232E+03</rscale>
<asrwt>0</asrwt>
<pdfrwt beam="1">  1       21 0.45197037E-02 0.12053232E+03</pdfrwt>
<pdfrwt beam="2">  1       21 0.11049716E+00 0.12053232E+03</pdfrwt>
<totfact> 0.21106394E+05</totfact>
</mgrwt>
</event>
<event>
 4    1  0.6158309E+003  0.1213421E+03  0.7546771E-02  0.1240899E+00
         21   -1    0    0  504  501  0.00000000000E+00  0.00000000000E+00  0.84740375316E+03  0.84740375316E+03  0.00000000000E+00 0.  1.
         21   -1    0    0  503  502 -0.00000000000E+00 -0.00000000000E+00 -0.38735886117E+02  0.38735886117E+02  0.00000000000E+00 0.  1.
         21    1    1    2  503  501  0.10866687616E+03 -0.53994663276E+02  0.73335353576E+03  0.74332450656E+03  0.00000000000E+00 0.  1.
         21    1    1    2  504  502 -0.10866687616E+03  0.53994663276E+02  0.75314331278E+02  0.14281513272E+03  0.00000000000E+00 0.  1.
<mgrwt>
<rscale>  2 0.12134213E+03</rscale>
<asrwt>0</asrwt>
<pdfrwt beam="1">  1       21 0.13036979E+00 0.12134213E+03</pdfrwt>
<pdfrwt beam="2">  1       21 0.59593677E-02 0.12134213E+03</pdfrwt>
<totfact> 0.88662515E+04</totfact>
</mgrwt>
</event>
<event>
 4    1  0.6158309E+003  0.1042714E+03  0.7546771E-02  0.1271562E+00
         21   -1    0    0  502  501  0.00000000000E+00  0.00000000000E+00  0.54819302986E+03  0.54819302986E+03  0.00000000000E+00 0.  1.
         21   -1    0    0  503  502 -0.00000000000E+00 -0.00000000000E+00 -0.87842393127E+02  0.87842393127E+02  0.00000000000E+00 0.  1.
         21    1    1    2  503  504 -0.89955660723E+02  0.52730517944E+02 -0.49647044723E+02  0.11548747754E+03  0.00000000000E+00 0.  1.
         21    1    1    2  504  501  0.89955660723E+02 -0.52730517944E+02  0.50999768145E+03  0.52054794544E+03  0.00000000000E+00 0.  1.
<mgrwt>
<rscale>  2 0.10427142E+03</rscale>
<asrwt>0</asrwt>
<pdfrwt beam="1">  1       21 0.84337387E-01 0.10427142E+03</pdfrwt>
<pdfrwt beam="2">  1       21 0.13514215E-01 0.10427142E+03</pdfrwt>
<totfact> 0.60523086E+04</totfact>
</mgrwt>
</event>
<event>
 4    1  0.6158309E+003  0.1033961E+03  0.7546771E-02  0.1273312E+00
         21   -1    0    0  503  501  0.00000000000E+00  0.00000000000E+00  0.11201376863E+04  0.11201376863E+04  0.00000000000E+00 0. -1.
         21   -1    0    0  504  502 -0.00000000000E+00 -0.00000000000E+00 -0.35434259861E+02  0.35434259861E+02  0.00000000000E+00 0. -1.
         21    1    1    2  503  502 -0.29052305679E+02 -0.99230610502E+02  0.48470683825E+02  0.11419350996E+03  0.00000000000E+00 0. -1.
         21    1    1    2  504  501  0.29052305679E+02  0.99230610502E+02  0.10362327426E+04  0.10413784362E+04  0.00000000000E+00 0. -1.
<mgrwt>
<rscale>  2 0.10339609E+03</rscale>
<asrwt>0</asrwt>
<pdfrwt beam="1">  1       21 0.17232885E+00 0.10339609E+03</pdfrwt>
<pdfrwt beam="2">  1       21 0.54514254E-02 0.10339609E+03</pdfrwt>
<totfact> 0.50805398E+04</totfact>
</mgrwt>
</event>
<event>
 4    1  0.6158309E+003  0.1440041E+03  0.7546771E-02  0.1208040E+00
         21   -1    0    0  504  501  0.00000000000E+00  0.00000000000E+00  0.72652744000E+03  0.72652744000E+03  0.00000000000E+00 0.  1.
         21   -1    0    0  503  502 -0.00000000000E+00 -0.00000000000E+00 -0.28609350763E+02  0.28609350763E+02  0.00000000000E+00 0.  1.
         21    1    1    2  503  501  0.14192426192E+03 -0.24386323904E+02  0.36715780349E+03  0.39438818641E+03  0.00000000000E+00 0.  1.
         21    1    1    2  504  502 -0.14192426192E+03  0.24386323904E+02  0.33076028574E+03  0.36074860435E+03  0.00000000000E+00 0.  1.
<mgrwt>
<rscale>  2 0.14400413E+03</rscale>
<asrwt>0</asrwt>
<pdfrwt beam="1">  1       21 0.11177344E+00 0.14400413E+03</pdfrwt>
<pdfrwt beam="2">  1       21 0.44014391E-02 0.14400413E+03</pdfrwt>
<totfact> 0.21301886E+05</totfact>
</mgrwt>
</event>
<event>
 4    1  0.6158309E+003  0.1094009E+03  0.7546771E-02  0.1261683E+00
         21   -1    0    0  503  501  0.00000000000E+00  0.00000000000E+00  0.21825059657E+03  0.21825059657E+03  0.00000000000E+00 0.  1.
         21   -1    0    0  504  502 -0.00000000000E+00 -0.00000000000E+00 -0.96216207119E+02  0.96216207119E+02  0.00000000000E+00 0.  1.
         21    1    1    2  503  502 -0.10891042211E+03  0.10348036315E+02  0.16412778340E+03  0.19724728435E+03  0.00000000000E+00 0.  1.
         21    1    1    2  504  501  0.10891042211E+03 -0.10348036315E+02 -0.42093393949E+02  0.11721951934E+03  0.00000000000E+00 0.  1.
<mgrwt>
<rscale>  2 0.10940092E+03</rscale>
<asrwt>0</asrwt>
<pdfrwt beam="1">  1       21 0.33577015E-01 0.10940092E+03</pdfrwt>
<pdfrwt beam="2">  1       21 0.14802493E-01 0.10940092E+03</pdfrwt>
<totfact> 0.34843996E+05</totfact>
</mgrwt>
</event>
<event>
 4    1  0.6158309E+003  0.1407895E+03  0.7546771E-02  0.1212271E+00
         21   -1    0    0  504  501  0.00000000000E+00  0.00000000000E+00  0.78944684228E+03  0.78944684228E+03  0.00000000000E+00 0. -1.
         21   -1    0    0  503  502 -0.00000000000E+00 -0.00000000000E+00 -0.26363178854E+02  0.26363178854E+02  0.00000000000E+00 0. -1.
         21    1    1    2  503  501 -0.14074261633E+03  0.36333902495E+01  0.47053511559E+03  0.49114659785E+03  0.00000000000E+00 0. -1.
         21    1    1    2  504  502  0.14074261633E+03 -0.36333902495E+01  0.29254854783E+03  0.32466342328E+03  0.00000000000E+00 0. -1.
<mgrwt>
<rscale>  2 0.14078951E+03</rscale>
<asrwt>0</asrwt>
<pdfrwt beam="1">  1       21 0.12145334E+00 0.14078951E+03</pdfrwt>
<pdfrwt beam="2">  1       21 0.40558743E-02 0.14078951E+03</pdfrwt>
<totfact> 0.19981369E+05</totfact>
</mgrwt>
</event>
<event>
 4    1  0.6158309E+003  0.1061408E+03  0.7546771E-02  0.1267888E+00
         21   -1    0    0  504  501  0.00000000000E+00  0.00000000000E+00  0.20799141787E+02  0.20799141787E+02  0.00000000000E+00 0. -1.
         21   -1    0    0  503  502 -0.00000000000E+00 -0.00000000000E+00 -0.59213322633E+03  0.59213322633E+03  0.00000000000E+00 0. -1.
         21    1    1    2  503  501  0.10569123757E+03  0.97587660993E+01 -0.19618351930E+03  0.22305569811E+03  0.00000000000E+00 0. -1.
         21    1    1    2  504  502 -0.10569123757E+03 -0.97587660993E+01 -0.37515056524E+03  0.38987667001E+03  0.00000000000E+00 0. -1.
<mgrwt>
<rscale>  2 0.10614081E+03</rscale>
<asrwt>0</asrwt>
<pdfrwt beam="1">  1       21 0.31998683E-02 0.10614081E+03</pdfrwt>
<pdfrwt beam="2">  1       21 0.91097410E-01 0.10614081E+03</pdfrwt>
<totfact> 0.58777031E+05</totfact>
</mgrwt>
</event>
<event>
 4    1  0.6158309E+003  0.1108604E+03  0.7546771E-02  0.1258985E+00
         21   -1    0    0  503  501  0.00000000000E+00  0.00000000000E+00  0.85022029578E+03  0.85022029578E+03  0.00000000000E+00 0. -1.
         21   -1    0    0  504  502 -0.00000000000E+00 -0.00000000000E+00 -0.16291335835E+02  0.16291335835E+02  0.00000000000E+00 0. -1.
         21    1    1    2  503  502 -0.93240676242E+02  0.59968364563E+02  0.27150935677E+03  0.29327011315E+03  0.00000000000E+00 0. -1.
         21    1    1    2  504  501  0.93240676242E+02 -0.59968364563E+02  0.56241960317E+03  0.57324151846E+03  0.00000000000E+00 0. -1.
<mgrwt>
<rscale>  2 0.11086040E+03</rscale>
<asrwt>0</asrwt>
<pdfrwt beam="1">  1       21 0.13080309E+00 0.11086040E+03</pdfrwt>
<pdfrwt beam="2">  1       21 0.25063600E-02 0.11086040E+03</pdfrwt>
<totfact> 0.37043277E+05</totfact>
</mgrwt>
</event>
<event>
 4    1  0.6158309E+003  0.2104183E+03  0.7546771E-02  0.1141235E+00
         21   -1    0    0  503  501  0.00000000000E+00  0.00000000000E+00  0.93973323516E+03  0.93973323516E+03  0.00000000000E+00 0.  1.
         21   -1    0    0  501  502 -0.00000000000E+00 -0.00000000000E+00 -0.38008450627E+03  0.38008450627E+03  0.00000000000E+00 0. -1.
         21    1    1    2  503  504  0.45710593712E+02  0.20539330156E+03  0.89747925073E+03  0.92181607286E+03  0.00000000000E+00 0.  1.
         21    1    1    2  504  502 -0.45710593712E+02 -0.20539330156E+03 -0.33783052184E+03  0.39800166857E+03  0.00000000000E+00 0. -1.
<mgrwt>
<rscale>  2 0.21041831E+03</rscale>
<asrwt>0</asrwt>
<pdfrwt beam="1">  1       21 0.14457434E+00 0.21041831E+03</pdfrwt>
<pdfrwt beam="2">  1       21 0.58474540E-01 0.21041831E+03</pdfrwt>
<totfact> 0.88501900E+02</totfact>
</mgrwt>
</event>
<event>
 4    1  0.6158309E+003  0.1011630E+03  0.7546771E-02  0.1277869E+00
         21   -1    0    0  504  501  0.00000000000E+00  0.00000000000E+00  0.74155487502E+02  0.74155487502E+02  0.00000000000E+00 0.  1.
         21   -1    0    0  503  502 -0.00000000000E+00 -0.00000000000E+00 -0.37338494994E+03  0.37338494994E+03  0.00000000000E+00 0.  1.
         21    1    1    2  503  501 -0.37256175497E+02 -0.94052782209E+02 -0.32728187360E+03  0.34256002867E+03  0.00000000000E+00 0.  1.
         21    1    1    2  504  502  0.37256175497E+02  0.94052782209E+02  0.28052411163E+02  0.10498040877E+03  0.00000000000E+00 0.  1.
<mgrwt>
<rscale>  2 0.10116298E+03</rscale>
<asrwt>0</asrwt>
<pdfrwt beam="1">  1       21 0.11408536E-01 0.10116298E+03</pdfrwt>
<pdfrwt beam="2">  1       21 0.57443839E-01 0.10116298E+03</pdfrwt>
<totfact> 0.18771676E+05</totfact>
</mgrwt>
</event>
<event>
 4    1  0.6158309E+003  0.1022833E+03  0.7546771E-02  0.1275567E+00
         21   -1    0    0  504  501  0.00000000000E+00  0.00000000000E+00  0.11145268610E+02  0.11145268610E+02  0.00000000000E+00 0. -1.
         21   -1    0    0  503  502 -0.00000000000E+00 -0.00000000000E+00 -0.11263008317E+04  0.11263008317E+04  0.00000000000E+00 0. -1.
         21    1    1    2  503  501  0.80099375694E+02  0.63607818818E+02 -0.32545825375E+03  0.34115236997E+03  0.00000000000E+00 0. -1.
         21    1    1    2  504  502 -0.80099375694E+02 -0.63607818818E+02 -0.78969730934E+03  0.79629373034E+03  0.00000000000E+00 0. -1.
<mgrwt>
<rscale>  2 0.10228326E+03</rscale>
<asrwt>0</asrwt>
<pdfrwt beam="1">  1       21 0.17146562E-02 0.10228326E+03</pdfrwt>
<pdfrwt beam="2">  1       21 0.17327711E+00 0.10228326E+03</pdfrwt>
<totfact> 0.33151319E+05</totfact>
</mgrwt>
</event>
<event>
 4    1  0.6158309E+003  0.1243837E+03  0.7546771E-02  0.1236036E+00
         21   -1    0    0  503  501  0.00000000000E+00  0.00000000000E+00  0.26670475411E+03  0.26670475411E+03  0.00000000000E+00 0. -1.
         21   -1    0    0  501  502 -0.00000000000E+00 -0.00000000000E+00 -0.23721269518E+03  0.23721269518E+03  0.00000000000E+00 0. -1.
         21    1    1    2  503  504 -0.71095480728E+02 -0.10206247462E+03  0.23374079575E+03  0.26477551946E+03  0.00000000000E+00 0. -1.
         21    1    1    2  504  502  0.71095480728E+02  0.10206247462E+03 -0.20424873682E+03  0.23914192982E+03  0.00000000000E+00 0. -1.
<mgrwt>
<rscale>  2 0.12438375E+03</rscale>
<asrwt>0</asrwt>
<pdfrwt beam="1">  1       21 0.41031501E-01 0.12438375E+03</pdfrwt>
<pdfrwt beam="2">  1       21 0.36494261E-01 0.12438375E+03</pdfrwt>
<totfact> 0.42950130E+04</totfact>
</mgrwt>
</event>
<event>
 4    1  0.6158309E+003  0.1389062E+03  0.7546771E-02  0.1214808E+00
         21   -1    0    0  504  501  0.00000000000E+00  0.00000000000E+00  0.23680589732E+03  0.23680589732E+03  0.00000000000E+00 0.  1.
         21   -1    0    0  501  502 -0.00000000000E+00 -0.00000000000E+00 -0.28084951130E+03  0.28084951130E+03  0.00000000000E+00 0.  1.
         21    1    1    2  503  502 -0.11945331727E+03 -0.70893195645E+02 -0.24009551900E+03  0.27738204419E+03  0.00000000000E+00 0.  1.
         21    1    1    2  504  503  0.11945331727E+03  0.70893195645E+02  0.19605190502E+03  0.24027336444E+03  0.00000000000E+00 0.  1.
<mgrwt>
<rscale>  2 0.13890623E+03</rscale>
<asrwt>0</asrwt>
<pdfrwt beam="1">  1       21 0.36431677E-01 0.13890623E+03</pdfrwt>
<pdfrwt beam="2">  1       21 0.43207617E-01 0.13890623E+03</pdfrwt>
<totfact> 0.38506939E+04</totfact>
</mgrwt>
</event>
<event>
 4    1  0.6158309E+003  0.1272248E+03  0.7546771E-02  0.1231633E+00
         21   -1    0    0  503  501  0.00000000000E+00  0.00000000000E+00  0.51237323024E+03  0.51237323024E+03  0.00000000000E+00 0.  1.
         21   -1    0    0  504  502 -0.00000000000E+00 -0.00000000000E+00 -0.48716772941E+02  0.48716772941E+02  0.00000000000E+00 0. -1.
         21    1    1    2  503  502 -0.11582749072E+03 -0.52632229073E+02  0.65489298961E+02  0.14309090615E+03  0.00000000000E+00 0. -1.
         21    1    1    2  504  501  0.11582749072E+03  0.52632229073E+02  0.39816715834E+03  0.41799909704E+03  0.00000000000E+00 0.  1.
<mgrwt>
<rscale>  2 0.12722484E+03</rscale>
<asrwt>0</asrwt>
<pdfrwt beam="1">  1       21 0.78826647E-01 0.12722484E+03</pdfrwt>
<pdfrwt beam="2">  1       21 0.74948885E-02 0.12722484E+03</pdfrwt>
<totfact> 0.19493813E+05</totfact>
</mgrwt>
</event>
<event>
 4    1  0.6158309E+003  0.1242292E+03  0.7546771E-02  0.1236279E+00
         21   -1    0    0  503  501  0.00000000000E+00  0.00000000000E+00  0.18393412392E+03  0.18393412392E+03  0.00000000000E+00 0.  1.
         21   -1    0    0  504  502 -0.00000000000E+00 -0.00000000000E+00 -0.12341976681E+03  0.12341976681E+03  0.00000000000E+00 0.  1.
         21    1    1    2  503  502  0.10236589722E+03  0.70385543041E+02 -0.56698668849E+02  0.13655636430E+03  0.00000000000E+00 0.  1.
         21    1    1    2  504  501 -0.10236589722E+03 -0.70385543041E+02  0.11721302596E+03  0.17079752644E+03  0.00000000000E+00 0.  1.
<mgrwt>
<rscale>  2 0.12422923E+03</rscale>
<asrwt>0</asrwt>
<pdfrwt beam="1">  1       21 0.28297558E-01 0.12422923E+03</pdfrwt>
<pdfrwt beam="2">  1       21 0.18987656E-01 0.12422923E+03</pdfrwt>
<totfact> 0.30774325E+05</totfact>
</mgrwt>
</event>
<event>
 4    1  0.6158309E+003  0.1061024E+03  0.7546771E-02  0.1267963E+00
         21   -1    0    0  502  501  0.00000000000E+00  0.00000000000E+00  0.18014977858E+03  0.18014977858E+03  0.00000000000E+00 0. -1.
         21   -1    0    0  503  502 -0.00000000000E+00 -0.00000000000E+00 -0.12447673151E+03  0.12447673151E+03  0.00000000000E+00 0.  1.
         21    1    1    2  503  504 -0.71721181766E+02  0.78190677291E+02 -0.79646545312E+02  0.13266982366E+03  0.00000000000E+00 0.  1.
         21    1    1    2  504  501  0.71721181766E+02 -0.78190677291E+02  0.13531959238E+03  0.17195668644E+03  0.00000000000E+00 0. -1.
<mgrwt>
<rscale>  2 0.10610236E+03</rscale>
<asrwt>0</asrwt>
<pdfrwt beam="1">  1       21 0.27715351E-01 0.10610236E+03</pdfrwt>
<pdfrwt beam="2">  1       21 0.19150266E-01 0.10610236E+03</pdfrwt>
<totfact> 0.31621159E+05</totfact>
</mgrwt>
</event>
<event>
 4    1  0.6158309E+003  0.1417439E+03  0.7546771E-02  0.1211001E+00
         21   -1    0    0  503  501  0.00000000000E+00  0.00000000000E+00  0.19703210119E+02  0.19703210119E+02  0.00000000000E+00 0. -1.
         21   -1    0    0  501  502 -0.00000000000E+00 -0.00000000000E+00 -0.13833256871E+04  0.13833256871E+04  0.00000000000E+00 0. -1.
         21    1    1    2  503  504 -0.13247833924E+03  0.50406683733E+02 -0.32214285770E+03  0.35194795766E+03  0.00000000000E+00 0. -1.
         21    1    1    2  504  502  0.13247833924E+03 -0.50406683733E+02 -0.10414796193E+04  0.10510809396E+04  0.00000000000E+00 0. -1.
<mgrwt>
<rscale>  2 0.14174394E+03</rscale>
<asrwt>0</asrwt>
<pdfrwt beam="1">  1       21 0.30312624E-02 0.14174394E+03</pdfrwt>
<pdfrwt beam="2">  1       21 0.21281939E+00 0.14174394E+03</pdfrwt>
<totfact> 0.71762249E+04</totfact>
</mgrwt>
</event>
<event>
 4    1  0.6158309E+003  0.1201406E+03  0.7546771E-02  0.1242865E+00
         21   -1    0    0  503  501  0.00000000000E+00  0.00000000000E+00  0.64243965470E+01  0.64243965470E+01  0.00000000000E+00 0.  1.
         21   -1    0    0  504  502 -0.00000000000E+00 -0.00000000000E+00 -0.22798375641E+04  0.22798375641E+04  0.00000000000E+00 0.  1.
         21    1    1    2  503  502  0.17265829379E+02 -0.11889349748E+03 -0.12744978892E+04  0.12801478985E+04  0.00000000000E+00 0.  1.
         21    1    1    2  504  501 -0.17265829379E+02  0.11889349748E+03 -0.99891527839E+03  0.10061140621E+04  0.00000000000E+00 0.  1.
<mgrwt>
<rscale>  2 0.12014064E+03</rscale>
<asrwt>0</asrwt>
<pdfrwt beam="1">  1       21 0.98836824E-03 0.12014064E+03</pdfrwt>
<pdfrwt beam="2">  1       21 0.35074440E+00 0.12014064E+03</pdfrwt>
<totfact> 0.72064554E+04</totfact>
</mgrwt>
</event>
<event>
 4    1  0.6158309E+003  0.1049287E+03  0.7546771E-02  0.1270260E+00
         21   -1    0    0  503  501  0.00000000000E+00  0.00000000000E+00  0.11437432209E+03  0.11437432209E+03  0.00000000000E+00 0. -1.
         21   -1    0    0  504  502 -0.00000000000E+00 -0.00000000000E+00 -0.11606765537E+03  0.11606765537E+03  0.00000000000E+00 0. -1.
         21    1    1    2  503  502 -0.30262810444E+02 -0.10046981718E+03  0.46748079429E+02  0.11487125311E+03  0.00000000000E+00 0. -1.
         21    1    1    2  504  501  0.30262810444E+02  0.10046981718E+03 -0.48441412707E+02  0.11557072435E+03  0.00000000000E+00 0. -1.
<mgrwt>
<rscale>  2 0.10492865E+03</rscale>
<asrwt>0</asrwt>
<pdfrwt beam="1">  1       21 0.17596050E-01 0.10492865E+03</pdfrwt>
<pdfrwt beam="2">  1       21 0.17856562E-01 0.10492865E+03</pdfrwt>
<totfact> 0.83530169E+05</totfact>
</mgrwt>
</event>
<event>
 4    1  0.6158309E+003  0.1638798E+03  0.7546771E-02  0.1184385E+00
         21   -1    0    0  504  501  0.00000000000E+00  0.00000000000E+00  0.23535316043E+03  0.23535316043E+03  0.00000000000E+00 0.  1.
         21   -1    0    0  503  502 -0.00000000000E+00 -0.00000000000E+00 -0.11522939397E+03  0.11522939397E+03  0.00000000000E+00 0.  1.
         21    1    1    2  503  501  0.11842927522E+03 -0.11327449327E+03  0.42799734157E+02  0.16937656656E+03  0.00000000000E+00 0.  1.
         21    1    1    2  504  502 -0.11842927522E+03  0.11327449327E+03  0.77324032305E+02  0.18120598784E+03  0.00000000000E+00 0.  1.
<mgrwt>
<rscale>  2 0.16387985E+03</rscale>
<asrwt>0</asrwt>
<pdfrwt beam="1">  1       21 0.36208178E-01 0.16387985E+03</pdfrwt>
<pdfrwt beam="2">  1       21 0.17727599E-01 0.16387985E+03</pdfrwt>
<totfact> 0.21416268E+05</totfact>
</mgrwt>
</event>
<event>
 4    1  0.6158309E+003  0.1672050E+03  0.7546771E-02  0.1180794E+00
         21   -1    0    0  504  501  0.00000000000E+00  0.00000000000E+00  0.45323150800E+03  0.45323150800E+03  0.00000000000E+00 0. -1.
         21   -1    0    0  503  502 -0.00000000000E+00 -0.00000000000E+00 -0.10536082923E+03  0.10536082923E+03  0.00000000000E+00 0. -1.
         21    1    1    2  503  501  0.13087603058E+03 -0.10406237574E+03 -0.58882901398E+01  0.16730865305E+03  0.00000000000E+00 0. -1.
         21    1    1    2  504  502 -0.13087603058E+03  0.10406237574E+03  0.35375896891E+03  0.39128368418E+03  0.00000000000E+00 0. -1.
<mgrwt>
<rscale>  2 0.16720500E+03</rscale>
<asrwt>0</asrwt>
<pdfrwt beam="1">  1       21 0.69727923E-01 0.16720500E+03</pdfrwt>
<pdfrwt beam="2">  1       21 0.16209359E-01 0.16720500E+03</pdfrwt>
<totfact> 0.64378240E+04</totfact>
</mgrwt>
</event>
<event>
 4    1  0.6158309E+003  0.1020506E+03  0.7546771E-02  0.1276042E+00
         21   -1    0    0  502  501  0.00000000000E+00  0.00000000000E+00  0.26199815436E+03  0.26199815436E+03  0.00000000000E+00 0. -1.
         21   -1    0    0  503  502 -0.00000000000E+00 -0.00000000000E+00 -0.17807170714E+03  0.17807170714E+03  0.00000000000E+00 0.  1.
         21    1    1    2  503  504 -0.60025278421E+02  0.82530511303E+02 -0.15196453718E+03  0.18305064847E+03  0.00000000000E+00 0.  1.
         21    1    1    2  504  501  0.60025278421E+02 -0.82530511303E+02  0.23589098440E+03  0.25701921303E+03  0.00000000000E+00 0. -1.
<mgrwt>
<rscale>  2 0.10205057E+03</rscale>
<asrwt>0</asrwt>
<pdfrwt beam="1">  1       21 0.40307408E-01 0.10205057E+03</pdfrwt>
<pdfrwt beam="2">  1       21 0.27395647E-01 0.10205057E+03</pdfrwt>
<totfact> 0.78505651E+04</totfact>
</mgrwt>
</event>
<event>
 4    1  0.6158309E+003  0.1063237E+03  0.7546771E-02  0.1267533E+00
         21   -1    0    0  502  501  0.00000000000E+00  0.00000000000E+00  0.14187998825E+03  0.14187998825E+03  0.00000000000E+00 0. -1.
         21   -1    0    0  504  502 -0.00000000000E+00 -0.00000000000E+00 -0.17659373270E+03  0.17659373270E+03  0.00000000000E+00 0. -1.
         21    1    1    2  503  501 -0.89284503065E+02 -0.57732286745E+02  0.10060799924E+03  0.14637864916E+03  0.00000000000E+00 0. -1.
         21    1    1    2  504  503  0.89284503065E+02  0.57732286745E+02 -0.13532174369E+03  0.17209507179E+03  0.00000000000E+00 0. -1.
<mgrwt>
<rscale>  2 0.10632375E+03</rscale>
<asrwt>0</asrwt>
<pdfrwt beam="1">  1       21 0.21827691E-01 0.10632375E+03</pdfrwt>
<pdfrwt beam="2">  1       21 0.27168266E-01 0.10632375E+03</pdfrwt>
<totfact> 0.25802225E+05</totfact>
</mgrwt>
</event>
<event>
 4    1  0.6158309E+003  0.1233272E+03  0.7546771E-02  0.1237707E+00
         21   -1    0    0  503  501  0.00000000000E+00  0.00000000000E+00  0.31625613281E+03  0.31625613281E+03  0.00000000000E+00 0. -1.
         21   -1    0    0  504  502 -0.00000000000E+00 -0.00000000000E+00 -0.48360534916E+02  0.48360534916E+02  0.00000000000E+00 0. -1.
         21    1    1    2  503  502 -0.97863913265E+02 -0.75048291287E+02  0.12037887975E+03  0.17233881233E+03  0.00000000000E+00 0. -1.
         21    1    1    2  504  501  0.97863913265E+02  0.75048291287E+02  0.14751671814E+03  0.19227785540E+03  0.00000000000E+00 0. -1.
<mgrwt>
<rscale>  2 0.12332717E+03</rscale>
<asrwt>0</asrwt>
<pdfrwt beam="1">  1       21 0.48654788E-01 0.12332717E+03</pdfrwt>
<pdfrwt beam="2">  1       21 0.74400825E-02 0.12332717E+03</pdfrwt>
<totfact> 0.55342714E+05</totfact>
</mgrwt>
</event>
<event>
 4    1  0.6158309E+003  0.1337548E+03  0.7546771E-02  0.1221988E+00
         21   -1    0    0  503  501  0.00000000000E+00  0.00000000000E+00  0.21199117851E+03  0.21199117851E+03  0.00000000000E+00 0.  1.
         21   -1    0    0  504  502 -0.00000000000E+00 -0.00000000000E+00 -0.16295203970E+03  0.16295203970E+03  0.00000000000E+00 0. -1.
         21    1    1    2  503  502 -0.12681366434E+02 -0.13315224058E+03 -0.10564918755E+03  0.17044672792E+03  0.00000000000E+00 0. -1.
         21    1    1    2  504  501  0.12681366434E+02  0.13315224058E+03  0.15468832636E+03  0.20449649029E+03  0.00000000000E+00 0.  1.
<mgrwt>
<rscale>  2 0.13375476E+03</rscale>
<asrwt>0</asrwt>
<pdfrwt beam="1">  1       21 0.32614027E-01 0.13375476E+03</pdfrwt>
<pdfrwt beam="2">  1       21 0.25069545E-01 0.13375476E+03</pdfrwt>
<totfact> 0.13900995E+05</totfact>
</mgrwt>
</event>
<event>
 4    1  0.6158309E+003  0.1077238E+03  0.7546771E-02  0.1264844E+00
         21   -1    0    0  502  501  0.00000000000E+00  0.00000000000E+00  0.32477522683E+03  0.32477522683E+03  0.00000000000E+00 0. -1.
         21   -1    0    0  503  502 -0.00000000000E+00 -0.00000000000E+00 -0.15491156791E+03  0.15491156791E+03  0.00000000000E+00 0. -1.
         21    1    1    2  503  504  0.98265955619E+02  0.44138744587E+02 -0.12544079414E+03  0.16534757223E+03  0.00000000000E+00 0. -1.
         21    1    1    2  504  501 -0.98265955619E+02 -0.44138744587E+02  0.29530445307E+03  0.31433922251E+03  0.00000000000E+00 0. -1.
<mgrwt>
<rscale>  2 0.10772385E+03</rscale>
<asrwt>0</asrwt>
<pdfrwt beam="1">  1       21 0.49965419E-01 0.10772385E+03</pdfrwt>
<pdfrwt beam="2">  1       21 0.23832549E-01 0.10772385E+03</pdfrwt>
<totfact> 0.65931156E+04</totfact>
</mgrwt>
</event>
<event>
 4    1  0.6158309E+003  0.1143209E+03  0.7546771E-02  0.1252771E+00
         21   -1    0    0  503  501  0.00000000000E+00  0.00000000000E+00  0.41133097376E+02  0.41133097376E+02  0.00000000000E+00 0. -1.
         21   -1    0    0  504  502 -0.00000000000E+00 -0.00000000000E+00 -0.83986964539E+03  0.83986964539E+03  0.00000000000E+00 0.  1.
         21    1    1    2  503  502 -0.10406113155E+03  0.47334497645E+02 -0.74669172196E+03  0.75539248170E+03  0.00000000000E+00 0.  1.
         21    1    1    2  504  501  0.10406113155E+03 -0.47334497645E+02 -0.52044826060E+02  0.12561026107E+03  0.00000000000E+00 0. -1.
<mgrwt>
<rscale>  2 0.11432092E+03</rscale>
<asrwt>0</asrwt>
<pdfrwt beam="1">  1       21 0.63281694E-02 0.11432092E+03</pdfrwt>
<pdfrwt beam="2">  1       21 0.12921070E+00 0.11432092E+03</pdfrwt>
<totfact> 0.82210121E+04</totfact>
</mgrwt>
</event>
<event>
 4    1  0.6158309E+003  0.1201649E+03  0.7546771E-02  0.1242825E+00
         21   -1    0    0  504  501  0.00000000000E+00  0.00000000000E+00  0.64420061558E+02  0.64420061558E+02  0.00000000000E+00 0.  1.
         21   -1    0    0  503  502 -0.00000000000E+00 -0.00000000000E+00 -0.35375909225E+03  0.35375909225E+03  0.00000000000E+00 0.  1.
         21    1    1    2  503  501  0.10174016196E+03  0.63941716525E+02 -0.18108399443E+02  0.12152167624E+03  0.00000000000E+00 0.  1.
         21    1    1    2  504  502 -0.10174016196E+03 -0.63941716525E+02 -0.27123063125E+03  0.29665747757E+03  0.00000000000E+00 0.  1.
<mgrwt>
<rscale>  2 0.12016490E+03</rscale>
<asrwt>0</asrwt>
<pdfrwt beam="1">  1       21 0.99107789E-02 0.12016490E+03</pdfrwt>
<pdfrwt beam="2">  1       21 0.54424475E-01 0.12016490E+03</pdfrwt>
<totfact> 0.26742938E+05</totfact>
</mgrwt>
</event>
<event>
 4    1  0.6158309E+003  0.1365032E+03  0.7546771E-02  0.1218113E+00
         21   -1    0    0  504  501  0.00000000000E+00  0.00000000000E+00  0.84259913441E+03  0.84259913441E+03  0.00000000000E+00 0.  1.
         21   -1    0    0  503  502 -0.00000000000E+00 -0.00000000000E+00 -0.33096549339E+02  0.33096549339E+02  0.00000000000E+00 0.  1.
         21    1    1    2  503  501 -0.39757828930E+02  0.13058496275E+03  0.65697519906E+03  0.67100635589E+03  0.00000000000E+00 0.  1.
         21    1    1    2  504  502  0.39757828930E+02 -0.13058496275E+03  0.15252738601E+03  0.20468932786E+03  0.00000000000E+00 0.  1.
<mgrwt>
<rscale>  2 0.13650318E+03</rscale>
<asrwt>0</asrwt>
<pdfrwt beam="1">  1       21 0.12963062E+00 0.13650318E+03</pdfrwt>
<pdfrwt beam="2">  1       21 0.50917775E-02 0.13650318E+03</pdfrwt>
<totfact> 0.11638381E+05</totfact>
</mgrwt>
</event>
<event>
 4    1  0.6158309E+003  0.1142221E+03  0.7546771E-02  0.1252945E+00
         21   -1    0    0  504  501  0.00000000000E+00  0.00000000000E+00  0.18080513630E+04  0.18080513630E+04  0.00000000000E+00 0. -1.
         21   -1    0    0  503  502 -0.00000000000E+00 -0.00000000000E+00 -0.94260034789E+01  0.94260034789E+01  0.00000000000E+00 0. -1.
         21    1    1    2  503  501 -0.12599514807E+02 -0.11352503542E+03  0.13393439086E+04  0.13442056341E+04  0.00000000000E+00 0. -1.
         21    1    1    2  504  502  0.12599514807E+02  0.11352503542E+03  0.45928145098E+03  0.47327173237E+03  0.00000000000E+00 0. -1.
<mgrwt>
<rscale>  2 0.11422207E+03</rscale>
<asrwt>0</asrwt>
<pdfrwt beam="1">  1       21 0.27816147E+00 0.11422207E+03</pdfrwt>
<pdfrwt beam="2">  1       21 0.14501558E-02 0.11422207E+03</pdfrwt>
<totfact> 0.10135513E+05</totfact>
</mgrwt>
</event>
<event>
 4    1  0.6158309E+003  0.1006668E+03  0.7546771E-02  0.1278900E+00
         21   -1    0    0  504  501  0.00000000000E+00  0.00000000000E+00  0.71984246120E+02  0.71984246120E+02  0.00000000000E+00 0. -1.
         21   -1    0    0  503  502 -0.00000000000E+00 -0.00000000000E+00 -0.29775601237E+03  0.29775601237E+03  0.00000000000E+00 0. -1.
         21    1    1    2  503  501 -0.27665383289E+02  0.96790604742E+02 -0.24711785101E+03  0.26683520549E+03  0.00000000000E+00 0. -1.
         21    1    1    2  504  502  0.27665383289E+02 -0.96790604742E+02  0.21346084761E+02  0.10290505300E+03  0.00000000000E+00 0. -1.
<mgrwt>
<rscale>  2 0.10066675E+03</rscale>
<asrwt>0</asrwt>
<pdfrwt beam="1">  1       21 0.11074500E-01 0.10066675E+03</pdfrwt>
<pdfrwt beam="2">  1       21 0.45808617E-01 0.10066675E+03</pdfrwt>
<totfact> 0.31502701E+05</totfact>
</mgrwt>
</event>
<event>
 4    1  0.6158309E+003  0.1198112E+03  0.7546771E-02  0.1243409E+00
         21   -1    0    0  503  501  0.00000000000E+00  0.00000000000E+00  0.76348771977E+02  0.76348771977E+02  0.00000000000E+00 0. -1.
         21   -1    0    0  504  502 -0.00000000000E+00 -0.00000000000E+00 -0.23273805209E+03  0.23273805209E+03  0.00000000000E+00 0. -1.
         21    1    1    2  503  502  0.11112778077E+03  0.44781085903E+02 -0.10448966499E+02  0.12026599775E+03  0.00000000000E+00 0. -1.
         21    1    1    2  504  501 -0.11112778077E+03 -0.44781085903E+02 -0.14594031362E+03  0.18882082632E+03  0.00000000000E+00 0. -1.
<mgrwt>
<rscale>  2 0.11981122E+03</rscale>
<asrwt>0</asrwt>
<pdfrwt beam="1">  1       21 0.11745965E-01 0.11981122E+03</pdfrwt>
<pdfrwt beam="2">  1       21 0.35805855E-01 0.11981122E+03</pdfrwt>
<totfact> 0.46309432E+05</totfact>
</mgrwt>
</event>
<event>
 4    1  0.6158309E+003  0.1257119E+03  0.7546771E-02  0.1233961E+00
         21   -1    0    0  503  501  0.00000000000E+00  0.00000000000E+00  0.78871456514E+02  0.78871456514E+02  0.00000000000E+00 0. -1.
         21   -1    0    0  504  502 -0.00000000000E+00 -0.00000000000E+00 -0.20719048480E+03  0.20719048480E+03  0.00000000000E+00 0. -1.
         21    1    1    2  503  502  0.10154554630E+03  0.74107892194E+02 -0.38208685864E+02  0.13139018736E+03  0.00000000000E+00 0. -1.
         21    1    1    2  504  501 -0.10154554630E+03 -0.74107892194E+02 -0.90110342427E+02  0.15467175396E+03  0.00000000000E+00 0. -1.
<mgrwt>
<rscale>  2 0.12571188E+03</rscale>
<asrwt>0</asrwt>
<pdfrwt beam="1">  1       21 0.12134070E-01 0.12571188E+03</pdfrwt>
<pdfrwt beam="2">  1       21 0.31875459E-01 0.12571188E+03</pdfrwt>
<totfact> 0.54848542E+05</totfact>
</mgrwt>
</event>
<event>
 4    1  0.6158309E+003  0.1145948E+03  0.7546771E-02  0.1252290E+00
         21   -1    0    0  504  501  0.00000000000E+00  0.00000000000E+00  0.49274556269E+03  0.49274556269E+03  0.00000000000E+00 0.  1.
         21   -1    0    0  503  502 -0.00000000000E+00 -0.00000000000E+00 -0.27894656118E+02  0.27894656118E+02  0.00000000000E+00 0.  1.
         21    1    1    2  503  501  0.78224310749E+02 -0.83743213178E+02  0.17745036897E+03  0.21123589182E+03  0.00000000000E+00 0.  1.
         21    1    1    2  504  502 -0.78224310749E+02  0.83743213178E+02  0.28740053760E+03  0.30940432699E+03  0.00000000000E+00 0.  1.
<mgrwt>
<rscale>  2 0.11459480E+03</rscale>
<asrwt>0</asrwt>
<pdfrwt beam="1">  1       21 0.75807003E-01 0.11459480E+03</pdfrwt>
<pdfrwt beam="2">  1       21 0.42914859E-02 0.11459480E+03</pdfrwt>
<totfact> 0.54630227E+05</totfact>
</mgrwt>
</event>
<event>
 4    1  0.6158309E+003  0.1620163E+03  0.7546771E-02  0.1186439E+00
         21   -1    0    0  503  501  0.00000000000E+00  0.00000000000E+00  0.65489821974E+02  0.65489821974E+02  0.00000000000E+00 0.  1.
         21   -1    0    0  501  502 -0.00000000000E+00 -0.00000000000E+00 -0.63153340089E+03  0.63153340089E+03  0.00000000000E+00 0.  1.
         21    1    1    2  503  504 -0.10335900700E+03 -0.12476453997E+03 -0.72372202443E+02  0.17744579580E+03  0.00000000000E+00 0.  1.
         21    1    1    2  504  502  0.10335900700E+03  0.12476453997E+03 -0.49367137647E+03  0.51957742706E+03  0.00000000000E+00 0.  1.
<mgrwt>
<rscale>  2 0.16201628E+03</rscale>
<asrwt>0</asrwt>
<pdfrwt beam="1">  1       21 0.10075357E-01 0.16201628E+03</pdfrwt>
<pdfrwt beam="2">  1       21 0.97158985E-01 0.16201628E+03</pdfrwt>
<totfact> 0.71388867E+04</totfact>
</mgrwt>
</event>
<event>
 4    1  0.6158309E+003  0.1042895E+03  0.7546771E-02  0.1271526E+00
         21   -1    0    0  502  501  0.00000000000E+00  0.00000000000E+00  0.28837861480E+03  0.28837861480E+03  0.00000000000E+00 0. -1.
         21   -1    0    0  504  502 -0.00000000000E+00 -0.00000000000E+00 -0.91414211583E+02  0.91414211583E+02  0.00000000000E+00 0. -1.
         21    1    1    2  503  501  0.95296488101E+02  0.42365895991E+02  0.24402562664E+03  0.26537670629E+03  0.00000000000E+00 0. -1.
         21    1    1    2  504  503 -0.95296488101E+02 -0.42365895991E+02 -0.47061223417E+02  0.11441612009E+03  0.00000000000E+00 0. -1.
<mgrwt>
<rscale>  2 0.10428945E+03</rscale>
<asrwt>0</asrwt>
<pdfrwt beam="1">  1       21 0.44365940E-01 0.10428945E+03</pdfrwt>
<pdfrwt beam="2">  1       21 0.14063725E-01 0.10428945E+03</pdfrwt>
<totfact> 0.22017979E+05</totfact>
</mgrwt>
</event>
<event>
 4    1  0.6158309E+003  0.1394839E+03  0.7546771E-02  0.1214025E+00
         21   -1    0    0  504  501  0.00000000000E+00  0.00000000000E+00  0.46433162614E+03  0.46433162614E+03  0.00000000000E+00 0. -1.
         21   -1    0    0  503  502 -0.00000000000E+00 -0.00000000000E+00 -0.42160389199E+02  0.42160389199E+02  0.00000000000E+00 0.  1.
         21    1    1    2  503  501  0.13607675979E+03 -0.30641201960E+02  0.23096539547E+03  0.26981619988E+03  0.00000000000E+00 0. -1.
         21    1    1    2  504  502 -0.13607675979E+03  0.30641201960E+02  0.19120584147E+03  0.23667581546E+03  0.00000000000E+00 0.  1.
<mgrwt>
<rscale>  2 0.13948393E+03</rscale>
<asrwt>0</asrwt>
<pdfrwt beam="1">  1       21 0.71435631E-01 0.13948393E+03</pdfrwt>
<pdfrwt beam="2">  1       21 0.64862140E-02 0.13948393E+03</pdfrwt>
<totfact> 0.30939701E+05</totfact>
</mgrwt>
</event>
<event>
 4    1  0.6158309E+003  0.1302433E+03  0.7546771E-02  0.1227095E+00
         21   -1    0    0  502  501  0.00000000000E+00  0.00000000000E+00  0.20336566247E+03  0.20336566247E+03  0.00000000000E+00 0.  1.
         21   -1    0    0  503  502 -0.00000000000E+00 -0.00000000000E+00 -0.18897540559E+03  0.18897540559E+03  0.00000000000E+00 0.  1.
         21    1    1    2  503  504  0.12174849772E+03 -0.46266950363E+02 -0.13942240129E+03  0.19079290704E+03  0.00000000000E+00 0.  1.
         21    1    1    2  504  501 -0.12174849772E+03  0.46266950363E+02  0.15381265817E+03  0.20154816101E+03  0.00000000000E+00 0.  1.
<mgrwt>
<rscale>  2 0.13024334E+03</rscale>
<asrwt>0</asrwt>
<pdfrwt beam="1">  1       21 0.31287025E-01 0.13024334E+03</pdfrwt>
<pdfrwt beam="2">  1       21 0.29073139E-01 0.13024334E+03</pdfrwt>
<totfact> 0.11374870E+05</totfact>
</mgrwt>
</event>
<event>
 4    1  0.6158309E+003  0.1074019E+03  0.7546771E-02  0.1265458E+00
         21   -1    0    0  503  501  0.00000000000E+00  0.00000000000E+00  0.60966288983E+02  0.60966288983E+02  0.00000000000E+00 0. -1.
         21   -1    0    0  504  502 -0.00000000000E+00 -0.00000000000E+00 -0.19768255661E+03  0.19768255661E+03  0.00000000000E+00 0. -1.
         21    1    1    2  503  502  0.10644215607E+03  0.14326103243E+02 -0.95138320996E+02  0.14347985902E+03  0.00000000000E+00 0. -1.
         21    1    1    2  504  501 -0.10644215607E+03 -0.14326103243E+02 -0.41577946632E+02  0.11516898657E+03  0.00000000000E+00 0. -1.
<mgrwt>
<rscale>  2 0.10740191E+03</rscale>
<asrwt>0</asrwt>
<pdfrwt beam="1">  1       21 0.93794293E-02 0.10740191E+03</pdfrwt>
<pdfrwt beam="2">  1       21 0.30412700E-01 0.10740191E+03</pdfrwt>
<totfact> 0.94278732E+05</totfact>
</mgrwt>
</event>
<event>
 4    1  0.6158309E+003  0.1110537E+03  0.7546771E-02  0.1258631E+00
         21   -1    0    0  504  501  0.00000000000E+00  0.00000000000E+00  0.84253588128E+03  0.84253588128E+03  0.00000000000E+00 0.  1.
         21   -1    0    0  503  502 -0.00000000000E+00 -0.00000000000E+00 -0.16719603109E+02  0.16719603109E+02  0.00000000000E+00 0.  1.
         21    1    1    2  503  501 -0.10215111495E+03 -0.43566901803E+02  0.56450581336E+03  0.57532576732E+03  0.00000000000E+00 0.  1.
         21    1    1    2  504  502  0.10215111495E+03  0.43566901803E+02  0.26131046480E+03  0.28392971707E+03  0.00000000000E+00 0.  1.
<mgrwt>
<rscale>  2 0.11105370E+03</rscale>
<asrwt>0</asrwt>
<pdfrwt beam="1">  1       21 0.12962087E+00 0.11105370E+03</pdfrwt>
<pdfrwt beam="2">  1       21 0.25722473E-02 0.11105370E+03</pdfrwt>
<totfact> 0.36320364E+05</totfact>
</mgrwt>
</event>
<event>
 4    1  0.6158309E+003  0.1304272E+03  0.7546771E-02  0.1226823E+00
         21   -1    0    0  504  501  0.00000000000E+00  0.00000000000E+00  0.39018693947E+03  0.39018693947E+03  0.00000000000E+00 0.  1.
         21   -1    0    0  503  502 -0.00000000000E+00 -0.00000000000E+00 -0.44084347680E+02  0.44084347680E+02  0.00000000000E+00 0.  1.
         21    1    1    2  503  501 -0.11453702830E+03 -0.62390039538E+02  0.15023725378E+03  0.19895346267E+03  0.00000000000E+00 0.  1.
         21    1    1    2  504  502  0.11453702830E+03  0.62390039538E+02  0.19586533801E+03  0.23531782448E+03  0.00000000000E+00 0.  1.
<mgrwt>
<rscale>  2 0.13042717E+03</rscale>
<asrwt>0</asrwt>
<pdfrwt beam="1">  1       21 0.60028758E-01 0.13042717E+03</pdfrwt>
<pdfrwt beam="2">  1       21 0.67822076E-02 0.13042717E+03</pdfrwt>
<totfact> 0.41799088E+05</totfact>
</mgrwt>
</event>
<event>
 4    1  0.6158309E+003  0.1145291E+03  0.7546771E-02  0.1252405E+00
         21   -1    0    0  504  501  0.00000000000E+00  0.00000000000E+00  0.36314074730E+02  0.36314074730E+02  0.00000000000E+00 0. -1.
         21   -1    0    0  501  502 -0.00000000000E+00 -0.00000000000E+00 -0.37207310044E+03  0.37207310044E+03  0.00000000000E+00 0. -1.
         21    1    1    2  503  502  0.24899140712E+02  0.11178974333E+03 -0.20277393844E+03  0.23288233946E+03  0.00000000000E+00 0. -1.
         21    1    1    2  504  503 -0.24899140712E+02 -0.11178974333E+03 -0.13298508726E+03  0.17550483570E+03  0.00000000000E+00 0. -1.
<mgrwt>
<rscale>  2 0.11452910E+03</rscale>
<asrwt>0</asrwt>
<pdfrwt beam="1">  1       21 0.55867812E-02 0.11452910E+03</pdfrwt>
<pdfrwt beam="2">  1       21 0.57242011E-01 0.11452910E+03</pdfrwt>
<totfact> 0.64293724E+05</totfact>
</mgrwt>
</event>
<event>
 4    1  0.6158309E+003  0.2178928E+03  0.7546771E-02  0.1135464E+00
         21   -1    0    0  504  501  0.00000000000E+00  0.00000000000E+00  0.29533967986E+03  0.29533967986E+03  0.00000000000E+00 0.  1.
         21   -1    0    0  503  502 -0.00000000000E+00 -0.00000000000E+00 -0.18966854456E+03  0.18966854456E+03  0.00000000000E+00 0. -1.
         21    1    1    2  503  501 -0.92072869498E+02 -0.19748386283E+03 -0.41847682768E+02  0.22187500519E+03  0.00000000000E+00 0. -1.
         21    1    1    2  504  502  0.92072869498E+02  0.19748386283E+03  0.14751881807E+03  0.26313321922E+03  0.00000000000E+00 0.  1.
<mgrwt>
<rscale>  2 0.21789284E+03</rscale>
<asrwt>0</asrwt>
<pdfrwt beam="1">  1       21 0.45436874E-01 0.21789284E+03</pdfrwt>
<pdfrwt beam="2">  1       21 0.29179776E-01 0.21789284E+03</pdfrwt>
<totfact> 0.51628347E+04</totfact>
</mgrwt>
</event>
<event>
 4    1  0.6158309E+003  0.1235962E+03  0.7546771E-02  0.1237280E+00
         21   -1    0    0  504  501  0.00000000000E+00  0.00000000000E+00  0.21380276753E+02  0.21380276753E+02  0.00000000000E+00 0. -1.
         21   -1    0    0  503  502 -0.00000000000E+00 -0.00000000000E+00 -0.96121292643E+03  0.96121292643E+03  0.00000000000E+00 0. -1.
         21    1    1    2  503  501  0.86673557792E+02 -0.88111895159E+02 -0.22100882542E+03  0.25322107456E+03  0.00000000000E+00 0. -1.
         21    1    1    2  504  502 -0.86673557792E+02  0.88111895159E+02 -0.71882382426E+03  0.72937212863E+03  0.00000000000E+00 0. -1.
<mgrwt>
<rscale>  2 0.12359616E+03</rscale>
<asrwt>0</asrwt>
<pdfrwt beam="1">  1       21 0.32892734E-02 0.12359616E+03</pdfrwt>
<pdfrwt beam="2">  1       21 0.14787891E+00 0.12359616E+03</pdfrwt>
<totfact> 0.17349478E+05</totfact>
</mgrwt>
</event>
<event>
 4    1  0.6158309E+003  0.1072644E+03  0.7546771E-02  0.1265721E+00
         21   -1    0    0  503  501  0.00000000000E+00  0.00000000000E+00  0.41667220260E+03  0.41667220260E+03  0.00000000000E+00 0. -1.
         21   -1    0    0  504  502 -0.00000000000E+00 -0.00000000000E+00 -0.59414169452E+02  0.59414169452E+02  0.00000000000E+00 0.  1.
         21    1    1    2  503  502 -0.92790149232E+02  0.53811164511E+02  0.35278199770E+03  0.36872861446E+03  0.00000000000E+00 0. -1.
         21    1    1    2  504  501  0.92790149232E+02 -0.53811164511E+02  0.44760354412E+01  0.10735775759E+03  0.00000000000E+00 0.  1.
<mgrwt>
<rscale>  2 0.10726441E+03</rscale>
<asrwt>0</asrwt>
<pdfrwt beam="1">  1       21 0.64103414E-01 0.10726441E+03</pdfrwt>
<pdfrwt beam="2">  1       21 0.91406417E-02 0.10726441E+03</pdfrwt>
<totfact> 0.21860365E+05</totfact>
</mgrwt>
</event>
<event>
 4    1  0.6158309E+003  0.1023005E+03  0.7546771E-02  0.1275531E+00
         21   -1    0    0  502  501  0.00000000000E+00  0.00000000000E+00  0.10984172327E+04  0.10984172327E+04  0.00000000000E+00 0. -1.
         21   -1    0    0  504  502 -0.00000000000E+00 -0.00000000000E+00 -0.15203413414E+02  0.15203413414E+02  0.00000000000E+00 0. -1.
         21    1    1    2  503  501 -0.12036236966E+02 -0.10159001041E+03  0.88181650602E+03  0.88773067509E+03  0.00000000000E+00 0. -1.
         21    1    1    2  504  503  0.12036236966E+02  0.10159001041E+03  0.20139731325E+03  0.22588997101E+03  0.00000000000E+00 0. -1.
<mgrwt>
<rscale>  2 0.10230054E+03</rscale>
<asrwt>0</asrwt>
<pdfrwt beam="1">  1       21 0.16898720E+00 0.10230054E+03</pdfrwt>
<pdfrwt beam="2">  1       21 0.23389875E-02 0.10230054E+03</pdfrwt>
<totfact> 0.21539393E+05</totfact>
</mgrwt>
</event>
<event>
 4    1  0.6158309E+003  0.2341289E+03  0.7546771E-02  0.1123767E+00
         21   -1    0    0  504  501  0.00000000000E+00  0.00000000000E+00  0.89451519349E+03  0.89451519349E+03  0.00000000000E+00 0.  1.
         21   -1    0    0  501  502 -0.00000000000E+00 -0.00000000000E+00 -0.69880882847E+02  0.69880882847E+02  0.00000000000E+00 0.  1.
         21    1    1    2  503  502  0.21418840620E+03 -0.94549824664E+02  0.24315429647E+03  0.33755052153E+03  0.00000000000E+00 0.  1.
         21    1    1    2  504  503 -0.21418840620E+03  0.94549824664E+02  0.58148001417E+03  0.62684555480E+03  0.00000000000E+00 0.  1.
<mgrwt>
<rscale>  2 0.23412890E+03</rscale>
<asrwt>0</asrwt>
<pdfrwt beam="1">  1       21 0.13761771E+00 0.23412890E+03</pdfrwt>
<pdfrwt beam="2">  1       21 0.10750906E-01 0.23412890E+03</pdfrwt>
<totfact> 0.26051464E+04</totfact>
</mgrwt>
</event>
<event>
 4    1  0.6158309E+003  0.1177543E+03  0.7546771E-02  0.1246848E+00
         21   -1    0    0  503  501  0.00000000000E+00  0.00000000000E+00  0.20410065657E+03  0.20410065657E+03  0.00000000000E+00 0.  1.
         21   -1    0    0  504  502 -0.00000000000E+00 -0.00000000000E+00 -0.67937744310E+02  0.67937744310E+02  0.00000000000E+00 0. -1.
         21    1    1    2  503  502 -0.11735925446E+03  0.96369229250E+01  0.68394249552E+02  0.13617576239E+03  0.00000000000E+00 0. -1.
         21    1    1    2  504  501  0.11735925446E+03 -0.96369229250E+01  0.67768662703E+02  0.13586263848E+03  0.00000000000E+00 0.  1.
<mgrwt>
<rscale>  2 0.11775426E+03</rscale>
<asrwt>0</asrwt>
<pdfrwt beam="1">  1       21 0.31400101E-01 0.11775426E+03</pdfrwt>
<pdfrwt beam="2">  1       21 0.10451961E-01 0.11775426E+03</pdfrwt>
<totfact> 0.73450607E+05</totfact>
</mgrwt>
</event>
<event>
 4    1  0.6158309E+003  0.1067640E+03  0.7546771E-02  0.1266683E+00
         21   -1    0    0  503  501  0.00000000000E+00  0.00000000000E+00  0.14214733765E+04  0.14214733765E+04  0.00000000000E+00 0.  1.
         21   -1    0    0  504  502 -0.00000000000E+00 -0.00000000000E+00 -0.12065042201E+02  0.12065042201E+02  0.00000000000E+00 0. -1.
         21    1    1    2  503  502 -0.45592404152E+02 -0.96539535530E+02  0.28961690976E+03  0.30866892240E+03  0.00000000000E+00 0. -1.
         21    1    1    2  504  501  0.45592404152E+02  0.96539535530E+02  0.11197914246E+04  0.11248694963E+04  0.00000000000E+00 0.  1.
<mgrwt>
<rscale>  2 0.10676399E+03</rscale>
<asrwt>0</asrwt>
<pdfrwt beam="1">  1       21 0.21868808E+00 0.10676399E+03</pdfrwt>
<pdfrwt beam="2">  1       21 0.18561615E-02 0.10676399E+03</pdfrwt>
<totfact> 0.15060843E+05</totfact>
</mgrwt>
</event>
<event>
 4    1  0.6158309E+003  0.1033974E+03  0.7546771E-02  0.1273310E+00
         21   -1    0    0  503  501  0.00000000000E+00  0.00000000000E+00  0.51783449755E+03  0.51783449755E+03  0.00000000000E+00 0. -1.
         21   -1    0    0  501  502 -0.00000000000E+00 -0.00000000000E+00 -0.92624770553E+02  0.92624770553E+02  0.00000000000E+00 0. -1.
         21    1    1    2  503  504  0.60803018786E+02 -0.83630212535E+02  0.48167558990E+03  0.49264834664E+03  0.00000000000E+00 0. -1.
         21    1    1    2  504  502 -0.60803018786E+02  0.83630212535E+02 -0.56465862904E+02  0.11781092146E+03  0.00000000000E+00 0. -1.
<mgrwt>
<rscale>  2 0.10339739E+03</rscale>
<asrwt>0</asrwt>
<pdfrwt beam="1">  1       21 0.79666844E-01 0.10339739E+03</pdfrwt>
<pdfrwt beam="2">  1       21 0.14249965E-01 0.10339739E+03</pdfrwt>
<totfact> 0.62562467E+04</totfact>
</mgrwt>
</event>
<event>
 4    1  0.6158309E+003  0.1369156E+03  0.7546771E-02  0.1217541E+00
         21   -1    0    0  502  501  0.00000000000E+00  0.00000000000E+00  0.19623112550E+03  0.19623112550E+03  0.00000000000E+00 0. -1.
         21   -1    0    0  503  502 -0.00000000000E+00 -0.00000000000E+00 -0.89840199150E+03  0.89840199150E+03  0.00000000000E+00 0. -1.
         21    1    1    2  503  504  0.30087327499E+02  0.13356878919E+03 -0.86848553896E+03  0.87921157869E+03  0.00000000000E+00 0. -1.
         21    1    1    2  504  501 -0.30087327499E+02 -0.13356878919E+03  0.16631467296E+03  0.21542153831E+03  0.00000000000E+00 0. -1.
<mgrwt>
<rscale>  2 0.13691555E+03</rscale>
<asrwt>0</asrwt>
<pdfrwt beam="1">  1       21 0.30189404E-01 0.13691555E+03</pdfrwt>
<pdfrwt beam="2">  1       21 0.13821569E+00 0.13691555E+03</pdfrwt>
<totfact> 0.41063975E+03</totfact>
</mgrwt>
</event>
<event>
 4    1  0.6158309E+003  0.1641838E+03  0.7546771E-02  0.1184053E+00
         21   -1    0    0  504  501  0.00000000000E+00  0.00000000000E+00  0.39332349289E+02  0.39332349289E+02  0.00000000000E+00 0. -1.
         21   -1    0    0  503  502 -0.00000000000E+00 -0.00000000000E+00 -0.17404646538E+04  0.17404646538E+04  0.00000000000E+00 0. -1.
         21    1    1    2  503  501 -0.13506930443E+03 -0.93341386586E+02 -0.15768588759E+03  0.22764263791E+03  0.00000000000E+00 0. -1.
         21    1    1    2  504  502  0.13506930443E+03  0.93341386586E+02 -0.15434464169E+04  0.15521543652E+04  0.00000000000E+00 0. -1.
<mgrwt>
<rscale>  2 0.16418383E+03</rscale>
<asrwt>0</asrwt>
<pdfrwt beam="1">  1       21 0.60511313E-02 0.16418383E+03</pdfrwt>
<pdfrwt beam="2">  1       21 0.26776376E+00 0.16418383E+03</pdfrwt>
<totfact> 0.10489254E+04</totfact>
</mgrwt>
</event>
<event>
 4    1  0.6158309E+003  0.1270454E+03  0.7546771E-02  0.1231907E+00
         21   -1    0    0  504  501  0.00000000000E+00  0.00000000000E+00  0.31192014325E+02  0.31192014325E+02  0.00000000000E+00 0. -1.
         21   -1    0    0  503  502 -0.00000000000E+00 -0.00000000000E+00 -0.59811489864E+03  0.59811489864E+03  0.00000000000E+00 0. -1.
         21    1    1    2  503  501 -0.11974416093E+03 -0.42448470525E+02 -0.16791336148E+03  0.21055981024E+03  0.00000000000E+00 0. -1.
         21    1    1    2  504  502  0.11974416093E+03  0.42448470525E+02 -0.39900952283E+03  0.41874710272E+03  0.00000000000E+00 0. -1.
<mgrwt>
<rscale>  2 0.12704541E+03</rscale>
<asrwt>0</asrwt>
<pdfrwt beam="1">  1       21 0.47987717E-02 0.12704541E+03</pdfrwt>
<pdfrwt beam="2">  1       21 0.92017671E-01 0.12704541E+03</pdfrwt>
<totfact> 0.29261600E+05</totfact>
</mgrwt>
</event>
<event>
 4    1  0.6158309E+003  0.1453640E+03  0.7546771E-02  0.1206288E+00
         21   -1    0    0  502  501  0.00000000000E+00  0.00000000000E+00  0.55014273610E+02  0.55014273610E+02  0.00000000000E+00 0.  1.
         21   -1    0    0  503  502 -0.00000000000E+00 -0.00000000000E+00 -0.39387924529E+03  0.39387924529E+03  0.00000000000E+00 0.  1.
         21    1    1    2  503  504 -0.14184113943E+03 -0.31808441910E+02 -0.20480811520E+03  0.25115144806E+03  0.00000000000E+00 0.  1.
         21    1    1    2  504  501  0.14184113943E+03  0.31808441910E+02 -0.13405685648E+03  0.19774207084E+03  0.00000000000E+00 0.  1.
<mgrwt>
<rscale>  2 0.14536398E+03</rscale>
<asrwt>0</asrwt>
<pdfrwt beam="1">  1       21 0.84637346E-02 0.14536398E+03</pdfrwt>
<pdfrwt beam="2">  1       21 0.60596805E-01 0.14536398E+03</pdfrwt>
<totfact> 0.27909038E+05</totfact>
</mgrwt>
</event>
<event>
 4    1  0.6158309E+003  0.1303031E+03  0.7546771E-02  0.1227007E+00
         21   -1    0    0  503  501  0.00000000000E+00  0.00000000000E+00  0.12949743612E+02  0.12949743612E+02  0.00000000000E+00 0. -1.
         21   -1    0    0  501  502 -0.00000000000E+00 -0.00000000000E+00 -0.13416004781E+04  0.13416004781E+04  0.00000000000E+00 0. -1.
         21    1    1    2  503  504  0.90094990970E+02  0.94137118776E+02 -0.56227039881E+03  0.57717147011E+03  0.00000000000E+00 0. -1.
         21    1    1    2  504  502 -0.90094990970E+02 -0.94137118776E+02 -0.76638033563E+03  0.77737875155E+03  0.00000000000E+00 0. -1.
<mgrwt>
<rscale>  2 0.13030313E+03</rscale>
<asrwt>0</asrwt>
<pdfrwt beam="1">  1       21 0.19922677E-02 0.13030313E+03</pdfrwt>
<pdfrwt beam="2">  1       21 0.20640013E+00 0.13030313E+03</pdfrwt>
<totfact> 0.15690802E+05</totfact>
</mgrwt>
</event>
<event>
 4    1  0.6158309E+003  0.1014341E+03  0.7546771E-02  0.1277309E+00
         21   -1    0    0  503  501  0.00000000000E+00  0.00000000000E+00  0.56904306068E+02  0.56904306068E+02  0.00000000000E+00 0.  1.
         21   -1    0    0  504  502 -0.00000000000E+00 -0.00000000000E+00 -0.13644788585E+04  0.13644788585E+04  0.00000000000E+00 0.  1.
         21    1    1    2  503  502 -0.53742980009E+02  0.86026535028E+02  0.81439369856E+01  0.10176048515E+03  0.00000000000E+00 0.  1.
         21    1    1    2  504  501  0.53742980009E+02 -0.86026535028E+02 -0.13157184894E+04  0.13196226794E+04  0.00000000000E+00 0.  1.
<mgrwt>
<rscale>  2 0.10143408E+03</rscale>
<asrwt>0</asrwt>
<pdfrwt beam="1">  1       21 0.87545092E-02 0.10143408E+03</pdfrwt>
<pdfrwt beam="2">  1       21 0.20991981E+00 0.10143408E+03</pdfrwt>
<totfact> 0.13104609E+04</totfact>
</mgrwt>
</event>
<event>
 4    1  0.6158309E+003  0.1033729E+03  0.7546771E-02  0.1273359E+00
         21   -1    0    0  502  501  0.00000000000E+00  0.00000000000E+00  0.79513607858E+03  0.79513607858E+03  0.00000000000E+00 0.  1.
         21   -1    0    0  503  502 -0.00000000000E+00 -0.00000000000E+00 -0.17251534095E+02  0.17251534095E+02  0.00000000000E+00 0. -1.
         21    1    1    2  503  504  0.25390288372E+02  0.10020619073E+03  0.19799293116E+03  0.22335431089E+03  0.00000000000E+00 0. -1.
         21    1    1    2  504  501 -0.25390288372E+02 -0.10020619073E+03  0.57989161333E+03  0.58903330179E+03  0.00000000000E+00 0.  1.
<mgrwt>
<rscale>  2 0.10337286E+03</rscale>
<asrwt>0</asrwt>
<pdfrwt beam="1">  1       21 0.12232860E+00 0.10337286E+03</pdfrwt>
<pdfrwt beam="2">  1       21 0.26540828E-02 0.10337286E+03</pdfrwt>
<totfact> 0.39868362E+05</totfact>
</mgrwt>
</event>
<event>
 4    1  0.6158309E+003  0.1006270E+03  0.7546771E-02  0.1278983E+00
         21   -1    0    0  502  501  0.00000000000E+00  0.00000000000E+00  0.60636049233E+03  0.60636049233E+03  0.00000000000E+00 0. -1.
         21   -1    0    0  503  502 -0.00000000000E+00 -0.00000000000E+00 -0.17352150527E+02  0.17352150527E+02  0.00000000000E+00 0. -1.
         21    1    1    2  503  504 -0.21879893728E+02 -0.98219459829E+02  0.23401371963E+03  0.25473164903E+03  0.00000000000E+00 0. -1.
         21    1    1    2  504  501  0.21879893728E+02  0.98219459829E+02  0.35499462217E+03  0.36898099383E+03  0.00000000000E+00 0. -1.
<mgrwt>
<rscale>  2 0.10062699E+03</rscale>
<asrwt>0</asrwt>
<pdfrwt beam="1">  1       21 0.93286214E-01 0.10062699E+03</pdfrwt>
<pdfrwt beam="2">  1       21 0.26695621E-02 0.10062699E+03</pdfrwt>
<totfact> 0.74819732E+05</totfact>
</mgrwt>
</event>
<event>
 4    1  0.6158309E+003  0.1162679E+03  0.7546771E-02  0.1249384E+00
         21   -1    0    0  504  501  0.00000000000E+00  0.00000000000E+00  0.24591852280E+03  0.24591852280E+03  0.00000000000E+00 0. -1.
         21   -1    0    0  503  502 -0.00000000000E+00 -0.00000000000E+00 -0.64394800729E+02  0.64394800729E+02  0.00000000000E+00 0. -1.
         21    1    1    2  503  501  0.26020497472E+02  0.11331884884E+03  0.15011900559E+03  0.18987876035E+03  0.00000000000E+00 0. -1.
         21    1    1    2  504  502 -0.26020497472E+02 -0.11331884884E+03  0.31404716487E+02  0.12043456319E+03  0.00000000000E+00 0. -1.
<mgrwt>
<rscale>  2 0.11626791E+03</rscale>
<asrwt>0</asrwt>
<pdfrwt beam="1">  1       21 0.37833618E-01 0.11626791E+03</pdfrwt>
<pdfrwt beam="2">  1       21 0.99068925E-02 0.11626791E+03</pdfrwt>
<totfact> 0.56019424E+05</totfact>
</mgrwt>
</event>
<event>
 4    1  0.6158309E+003  0.1080049E+03  0.7546771E-02  0.1264310E+00
         21   -1    0    0  504  501  0.00000000000E+00  0.00000000000E+00  0.12682326290E+04  0.12682326290E+04  0.00000000000E+00 0.  1.
         21   -1    0    0  503  502 -0.00000000000E+00 -0.00000000000E+00 -0.18774378546E+02  0.18774378546E+02  0.00000000000E+00 0.  1.
         21    1    1    2  503  501  0.88816733177E+02 -0.61454507922E+02  0.10843197898E+04  0.10896854937E+04  0.00000000000E+00 0.  1.
         21    1    1    2  504  502 -0.88816733177E+02  0.61454507922E+02  0.16513846062E+03  0.19732151381E+03  0.00000000000E+00 0.  1.
<mgrwt>
<rscale>  2 0.10800495E+03</rscale>
<asrwt>0</asrwt>
<pdfrwt beam="1">  1       21 0.19511265E+00 0.10800495E+03</pdfrwt>
<pdfrwt beam="2">  1       21 0.28883669E-02 0.10800495E+03</pdfrwt>
<totfact> 0.10265336E+05</totfact>
</mgrwt>
</event>
<event>
 4    1  0.6158309E+003  0.1093141E+03  0.7546771E-02  0.1261845E+00
         21   -1    0    0  504  501  0.00000000000E+00  0.00000000000E+00  0.11230554652E+04  0.11230554652E+04  0.00000000000E+00 0.  1.
         21   -1    0    0  503  502 -0.00000000000E+00 -0.00000000000E+00 -0.11224169469E+02  0.11224169469E+02  0.00000000000E+00 0.  1.
         21    1    1    2  503  501  0.95465634176E+02 -0.53253075696E+02  0.42655743991E+03  0.44034171608E+03  0.00000000000E+00 0.  1.
         21    1    1    2  504  502 -0.95465634176E+02  0.53253075696E+02  0.68527385579E+03  0.69393791855E+03  0.00000000000E+00 0.  1.
<mgrwt>
<rscale>  2 0.10931412E+03</rscale>
<asrwt>0</asrwt>
<pdfrwt beam="1">  1       21 0.17277767E+00 0.10931412E+03</pdfrwt>
<pdfrwt beam="2">  1       21 0.17267962E-02 0.10931412E+03</pdfrwt>
<totfact> 0.32930818E+05</totfact>
</mgrwt>
</event>
<event>
 4    1  0.6158309E+003  0.1125613E+03  0.7546771E-02  0.1255899E+00
         21   -1    0    0  503  501  0.00000000000E+00  0.00000000000E+00  0.17821143947E+03  0.17821143947E+03  0.00000000000E+00 0. -1.
         21   -1    0    0  504  502 -0.00000000000E+00 -0.00000000000E+00 -0.97462208492E+02  0.97462208492E+02  0.00000000000E+00 0. -1.
         21    1    1    2  503  502  0.27948044318E+02  0.10903649784E+03 -0.31317960340E+02  0.11683691917E+03  0.00000000000E+00 0. -1.
         21    1    1    2  504  501 -0.27948044318E+02 -0.10903649784E+03  0.11206719132E+03  0.15883672879E+03  0.00000000000E+00 0. -1.
<mgrwt>
<rscale>  2 0.11256132E+03</rscale>
<asrwt>0</asrwt>
<pdfrwt beam="1">  1       21 0.27417144E-01 0.11256132E+03</pdfrwt>
<pdfrwt beam="2">  1       21 0.14994186E-01 0.11256132E+03</pdfrwt>
<totfact> 0.50265383E+05</totfact>
</mgrwt>
</event>
<event>
 4    1  0.6158309E+003  0.1036729E+03  0.7546771E-02  0.1272757E+00
         21   -1    0    0  502  501  0.00000000000E+00  0.00000000000E+00  0.62536838739E+02  0.62536838739E+02  0.00000000000E+00 0. -1.
         21   -1    0    0  503  502 -0.00000000000E+00 -0.00000000000E+00 -0.23303044131E+03  0.23303044131E+03  0.00000000000E+00 0. -1.
         21    1    1    2  503  504 -0.10365555233E+03 -0.18969260903E+01 -0.16095849789E+03  0.19145680949E+03  0.00000000000E+00 0. -1.
         21    1    1    2  504  501  0.10365555233E+03  0.18969260903E+01 -0.95351046809E+01  0.10411047056E+03  0.00000000000E+00 0. -1.
<mgrwt>
<rscale>  2 0.10367291E+03</rscale>
<asrwt>0</asrwt>
<pdfrwt beam="1">  1       21 0.96210520E-02 0.10367291E+03</pdfrwt>
<pdfrwt beam="2">  1       21 0.35850838E-01 0.10367291E+03</pdfrwt>
<totfact> 0.65543482E+05</totfact>
</mgrwt>
</event>
<event>
 4    1  0.6158309E+003  0.1072961E+03  0.7546771E-02  0.1265661E+00
         21   -1    0    0  504  501  0.00000000000E+00  0.00000000000E+00  0.42481439970E+03  0.42481439970E+03  0.00000000000E+00 0.  1.
         21   -1    0    0  503  502 -0.00000000000E+00 -0.00000000000E+00 -0.89082025803E+02  0.89082025803E+02  0.00000000000E+00 0. -1.
         21    1    1    2  503  501 -0.80251500840E+02  0.71219050050E+02 -0.46464105006E+02  0.11692463184E+03  0.00000000000E+00 0. -1.
         21    1    1    2  504  502  0.80251500840E+02 -0.71219050050E+02  0.38219647890E+03  0.39697179366E+03  0.00000000000E+00 0.  1.
<mgrwt>
<rscale>  2 0.10729612E+03</rscale>
<asrwt>0</asrwt>
<pdfrwt beam="1">  1       21 0.65356060E-01 0.10729612E+03</pdfrwt>
<pdfrwt beam="2">  1       21 0.13704927E-01 0.10729612E+03</pdfrwt>
<totfact> 0.10303651E+05</totfact>
</mgrwt>
</event>
<event>
 4    1  0.6158309E+003  0.1121999E+03  0.7546771E-02  0.1256549E+00
         21   -1    0    0  503  501  0.00000000000E+00  0.00000000000E+00  0.60006970393E+03  0.60006970393E+03  0.00000000000E+00 0.  1.
         21   -1    0    0  504  502 -0.00000000000E+00 -0.00000000000E+00 -0.20989204989E+02  0.20989204989E+02  0.00000000000E+00 0.  1.
         21    1    1    2  503  502  0.10963869508E+03  0.23836402772E+02  0.29641239893E+03  0.31693710385E+03  0.00000000000E+00 0.  1.
         21    1    1    2  504  501 -0.10963869508E+03 -0.23836402772E+02  0.28266810001E+03  0.30412180507E+03  0.00000000000E+00 0.  1.
<mgrwt>
<rscale>  2 0.11219990E+03</rscale>
<asrwt>0</asrwt>
<pdfrwt beam="1">  1       21 0.92318403E-01 0.11219990E+03</pdfrwt>
<pdfrwt beam="2">  1       21 0.32291089E-02 0.11219990E+03</pdfrwt>
<totfact> 0.56142480E+05</totfact>
</mgrwt>
</event>
<event>
 4    1  0.6158309E+003  0.1045209E+03  0.7546771E-02  0.1271066E+00
         21   -1    0    0  502  501  0.00000000000E+00  0.00000000000E+00  0.95656974868E+02  0.95656974868E+02  0.00000000000E+00 0.  1.
         21   -1    0    0  503  502 -0.00000000000E+00 -0.00000000000E+00 -0.35078806542E+03  0.35078806542E+03  0.00000000000E+00 0.  1.
         21    1    1    2  503  504  0.24190926750E+02 -0.10168294385E+03 -0.31088404956E+03  0.32798401528E+03  0.00000000000E+00 0.  1.
         21    1    1    2  504  501 -0.24190926750E+02  0.10168294385E+03  0.55752959011E+02  0.11846102501E+03  0.00000000000E+00 0.  1.
<mgrwt>
<rscale>  2 0.10452092E+03</rscale>
<asrwt>0</asrwt>
<pdfrwt beam="1">  1       21 0.14716458E-01 0.10452092E+03</pdfrwt>
<pdfrwt beam="2">  1       21 0.53967395E-01 0.10452092E+03</pdfrwt>
<totfact> 0.13601720E+05</totfact>
</mgrwt>
</event>
<event>
 4    1  0.6158309E+003  0.1013169E+03  0.7546771E-02  0.1277551E+00
         21   -1    0    0  503  501  0.00000000000E+00  0.00000000000E+00  0.56572554964E+02  0.56572554964E+02  0.00000000000E+00 0. -1.
         21   -1    0    0  504  502 -0.00000000000E+00 -0.00000000000E+00 -0.34156074042E+03  0.34156074042E+03  0.00000000000E+00 0. -1.
         21    1    1    2  503  502 -0.92318994869E+02  0.41740984252E+02 -0.27878734897E+03  0.29662685739E+03  0.00000000000E+00 0. -1.
         21    1    1    2  504  501  0.92318994869E+02 -0.41740984252E+02 -0.62008364825E+01  0.10150643799E+03  0.00000000000E+00 0. -1.
<mgrwt>
<rscale>  2 0.10131686E+03</rscale>
<asrwt>0</asrwt>
<pdfrwt beam="1">  1       21 0.87034699E-02 0.10131686E+03</pdfrwt>
<pdfrwt beam="2">  1       21 0.52547807E-01 0.10131686E+03</pdfrwt>
<totfact> 0.36154928E+05</totfact>
</mgrwt>
</event>
<event>
 4    1  0.6158309E+003  0.1643643E+03  0.7546771E-02  0.1183856E+00
         21   -1    0    0  503  501  0.00000000000E+00  0.00000000000E+00  0.16893772008E+03  0.16893772008E+03  0.00000000000E+00 0.  1.
         21   -1    0    0  504  502 -0.00000000000E+00 -0.00000000000E+00 -0.16193392541E+03  0.16193392541E+03  0.00000000000E+00 0.  1.
         21    1    1    2  503  502 -0.15495569346E+01  0.16435697793E+03  0.21975764314E+02  0.16582687219E+03  0.00000000000E+00 0.  1.
         21    1    1    2  504  501  0.15495569346E+01 -0.16435697793E+03 -0.14971969646E+02  0.16504477331E+03  0.00000000000E+00 0.  1.
<mgrwt>
<rscale>  2 0.16436428E+03</rscale>
<asrwt>0</asrwt>
<pdfrwt beam="1">  1       21 0.25990419E-01 0.16436428E+03</pdfrwt>
<pdfrwt beam="2">  1       21 0.24912912E-01 0.16436428E+03</pdfrwt>
<totfact> 0.21612538E+05</totfact>
</mgrwt>
</event>
<event>
 4    1  0.6158309E+003  0.1135598E+03  0.7546771E-02  0.1254116E+00
         21   -1    0    0  503  501  0.00000000000E+00  0.00000000000E+00  0.29315031115E+02  0.29315031115E+02  0.00000000000E+00 0.  1.
         21   -1    0    0  504  502 -0.00000000000E+00 -0.00000000000E+00 -0.44286600440E+03  0.44286600440E+03  0.00000000000E+00 0.  1.
         21    1    1    2  503  502 -0.10740524718E+03  0.36877365731E+02 -0.22608030608E+03  0.25299828463E+03  0.00000000000E+00 0.  1.
         21    1    1    2  504  501  0.10740524718E+03 -0.36877365731E+02 -0.18747066720E+03  0.21918275088E+03  0.00000000000E+00 0.  1.
<mgrwt>
<rscale>  2 0.11355980E+03</rscale>
<asrwt>0</asrwt>
<pdfrwt beam="1">  1       21 0.45100052E-02 0.11355980E+03</pdfrwt>
<pdfrwt beam="2">  1       21 0.68133225E-01 0.11355980E+03</pdfrwt>
<totfact> 0.63495453E+05</totfact>
</mgrwt>
</event>
<event>
 4    1  0.6158309E+003  0.1217672E+03  0.7546771E-02  0.1240210E+00
         21   -1    0    0  503  501  0.00000000000E+00  0.00000000000E+00  0.21391835578E+03  0.21391835578E+03  0.00000000000E+00 0. -1.
         21   -1    0    0  504  502 -0.00000000000E+00 -0.00000000000E+00 -0.70939397045E+02  0.70939397045E+02  0.00000000000E+00 0. -1.
         21    1    1    2  503  502  0.11957728896E+03 -0.22989424878E+02  0.93057899202E+02  0.15325473661E+03  0.00000000000E+00 0. -1.
         21    1    1    2  504  501 -0.11957728896E+03  0.22989424878E+02  0.49921059535E+02  0.13160301621E+03  0.00000000000E+00 0. -1.
<mgrwt>
<rscale>  2 0.12176716E+03</rscale>
<asrwt>0</asrwt>
<pdfrwt beam="1">  1       21 0.32910516E-01 0.12176716E+03</pdfrwt>
<pdfrwt beam="2">  1       21 0.10913753E-01 0.12176716E+03</pdfrwt>
<totfact> 0.62153455E+05</totfact>
</mgrwt>
</event>
<event>
 4    1  0.6158309E+003  0.1385765E+03  0.7546771E-02  0.1215257E+00
         21   -1    0    0  504  501  0.00000000000E+00  0.00000000000E+00  0.49374111079E+02  0.49374111079E+02  0.00000000000E+00 0.  1.
         21   -1    0    0  503  502 -0.00000000000E+00 -0.00000000000E+00 -0.39166058828E+03  0.39166058828E+03  0.00000000000E+00 0.  1.
         21    1    1    2  503  501  0.11450978042E+03 -0.78044540506E+02 -0.15275568811E+03  0.20624679480E+03  0.00000000000E+00 0.  1.
         21    1    1    2  504  502 -0.11450978042E+03  0.78044540506E+02 -0.18953078909E+03  0.23478790456E+03  0.00000000000E+00 0.  1.
<mgrwt>
<rscale>  2 0.13857648E+03</rscale>
<asrwt>0</asrwt>
<pdfrwt beam="1">  1       21 0.75960170E-02 0.13857648E+03</pdfrwt>
<pdfrwt beam="2">  1       21 0.60255476E-01 0.13857648E+03</pdfrwt>
<totfact> 0.34098182E+05</totfact>
</mgrwt>
</event>
<event>
 4    1  0.6158309E+003  0.1249789E+03  0.7546771E-02  0.1235102E+00
         21   -1    0    0  503  501  0.00000000000E+00  0.00000000000E+00  0.34222650595E+03  0.34222650595E+03  0.00000000000E+00 0. -1.
         21   -1    0    0  504  502 -0.00000000000E+00 -0.00000000000E+00 -0.52052467358E+02  0.52052467358E+02  0.00000000000E+00 0. -1.
         21    1    1    2  503  502  0.11261297470E+03 -0.54203672661E+02  0.75901402056E+02  0.14622155462E+03  0.00000000000E+00 0. -1.
         21    1    1    2  504  501 -0.11261297470E+03  0.54203672661E+02  0.21427263654E+03  0.24805741869E+03  0.00000000000E+00 0. -1.
<mgrwt>
<rscale>  2 0.12497888E+03</rscale>
<asrwt>0</asrwt>
<pdfrwt beam="1">  1       21 0.52650230E-01 0.12497888E+03</pdfrwt>
<pdfrwt beam="2">  1       21 0.80080721E-02 0.12497888E+03</pdfrwt>
<totfact> 0.41430370E+05</totfact>
</mgrwt>
</event>
<event>
 4    1  0.6158309E+003  0.1371753E+03  0.7546771E-02  0.1217181E+00
         21   -1    0    0  504  501  0.00000000000E+00  0.00000000000E+00  0.76245857390E+02  0.76245857390E+02  0.00000000000E+00 0. -1.
         21   -1    0    0  503  502 -0.00000000000E+00 -0.00000000000E+00 -0.25948776960E+03  0.25948776960E+03  0.00000000000E+00 0. -1.
         21    1    1    2  503  501 -0.12970621185E+03  0.44646946087E+02 -0.12874837321E+03  0.18813079172E+03  0.00000000000E+00 0. -1.
         21    1    1    2  504  502  0.12970621185E+03 -0.44646946087E+02 -0.54493539000E+02  0.14760283527E+03  0.00000000000E+00 0. -1.
<mgrwt>
<rscale>  2 0.13717526E+03</rscale>
<asrwt>0</asrwt>
<pdfrwt beam="1">  1       21 0.11730132E-01 0.13717526E+03</pdfrwt>
<pdfrwt beam="2">  1       21 0.39921194E-01 0.13717526E+03</pdfrwt>
<totfact> 0.37336147E+05</totfact>
</mgrwt>
</event>
<event>
 4    1  0.6158309E+003  0.3130857E+03  0.7546771E-02  0.1078876E+00
         21   -1    0    0  504  501  0.00000000000E+00  0.00000000000E+00  0.50872866253E+03  0.50872866253E+03  0.00000000000E+00 0. -1.
         21   -1    0    0  503  502 -0.00000000000E+00 -0.00000000000E+00 -0.30037978535E+03  0.30037978535E+03  0.00000000000E+00 0.  1.
         21    1    1    2  503  501  0.18904121350E+03 -0.24957180376E+03 -0.13806537865E+03  0.34217643755E+03  0.00000000000E+00 0.  1.
         21    1    1    2  504  502 -0.18904121350E+03  0.24957180376E+03  0.34641425583E+03  0.46693201033E+03  0.00000000000E+00 0. -1.
<mgrwt>
<rscale>  2 0.31308572E+03</rscale>
<asrwt>0</asrwt>
<pdfrwt beam="1">  1       21 0.78265948E-01 0.31308572E+03</pdfrwt>
<pdfrwt beam="2">  1       21 0.46212275E-01 0.31308572E+03</pdfrwt>
<totfact> 0.60305642E+03</totfact>
</mgrwt>
</event>
<event>
 4    1  0.6158309E+003  0.1128399E+03  0.7546771E-02  0.1255399E+00
         21   -1    0    0  504  501  0.00000000000E+00  0.00000000000E+00  0.49642787628E+03  0.49642787628E+03  0.00000000000E+00 0.  1.
         21   -1    0    0  503  502 -0.00000000000E+00 -0.00000000000E+00 -0.51023473420E+02  0.51023473420E+02  0.00000000000E+00 0. -1.
         21    1    1    2  503  501  0.38057708450E+02  0.10622828669E+03  0.29670009079E+02  0.11667539374E+03  0.00000000000E+00 0. -1.
         21    1    1    2  504  502 -0.38057708450E+02 -0.10622828669E+03  0.41573439378E+03  0.43077595596E+03  0.00000000000E+00 0.  1.
<mgrwt>
<rscale>  2 0.11283988E+03</rscale>
<asrwt>0</asrwt>
<pdfrwt beam="1">  1       21 0.76373516E-01 0.11283988E+03</pdfrwt>
<pdfrwt beam="2">  1       21 0.78497655E-02 0.11283988E+03</pdfrwt>
<totfact> 0.19399383E+05</totfact>
</mgrwt>
</event>
<event>
 4    1  0.6158309E+003  0.1967072E+03  0.7546771E-02  0.1152547E+00
         21   -1    0    0  503  501  0.00000000000E+00  0.00000000000E+00  0.25291568006E+03  0.25291568006E+03  0.00000000000E+00 0.  1.
         21   -1    0    0  501  502 -0.00000000000E+00 -0.00000000000E+00 -0.16641130948E+03  0.16641130948E+03  0.00000000000E+00 0. -1.
         21    1    1    2  503  504  0.13272370369E+03 -0.14518314766E+03  0.10279354386E+03  0.22194648126E+03  0.00000000000E+00 0.  1.
         21    1    1    2  504  502 -0.13272370369E+03  0.14518314766E+03 -0.16289173277E+02  0.19738050828E+03  0.00000000000E+00 0. -1.
<mgrwt>
<rscale>  2 0.19670721E+03</rscale>
<asrwt>0</asrwt>
<pdfrwt beam="1">  1       21 0.38910104E-01 0.19670721E+03</pdfrwt>
<pdfrwt beam="2">  1       21 0.25601740E-01 0.19670721E+03</pdfrwt>
<totfact> 0.92023692E+04</totfact>
</mgrwt>
</event>
<event>
 4    1  0.6158309E+003  0.1097892E+03  0.7546771E-02  0.1260961E+00
         21   -1    0    0  502  501  0.00000000000E+00  0.00000000000E+00  0.77652202409E+03  0.77652202409E+03  0.00000000000E+00 0. -1.
         21   -1    0    0  504  502 -0.00000000000E+00 -0.00000000000E+00 -0.23249025222E+02  0.23249025222E+02  0.00000000000E+00 0. -1.
         21    1    1    2  503  501  0.57035908054E+02 -0.93811371278E+02  0.60716340453E+03  0.61700977950E+03  0.00000000000E+00 0. -1.
         21    1    1    2  504  503 -0.57035908054E+02  0.93811371278E+02  0.14610959434E+03  0.18276126982E+03  0.00000000000E+00 0. -1.
<mgrwt>
<rscale>  2 0.10978920E+03</rscale>
<asrwt>0</asrwt>
<pdfrwt beam="1">  1       21 0.11946491E+00 0.10978920E+03</pdfrwt>
<pdfrwt beam="2">  1       21 0.35767737E-02 0.10978920E+03</pdfrwt>
<totfact> 0.25887347E+05</totfact>
</mgrwt>
</event>
<event>
 4    1  0.6158309E+003  0.1114044E+03  0.7546771E-02  0.1257991E+00
         21   -1    0    0  504  501  0.00000000000E+00  0.00000000000E+00  0.23109700849E+04  0.23109700849E+04  0.00000000000E+00 0. -1.
         21   -1    0    0  503  502 -0.00000000000E+00 -0.00000000000E+00 -0.11860852265E+02  0.11860852265E+02  0.00000000000E+00 0.  1.
         21    1    1    2  503  501  0.11132080526E+03  0.43159851128E+01  0.29041160185E+03  0.31104637580E+03  0.00000000000E+00 0.  1.
         21    1    1    2  504  502 -0.11132080526E+03 -0.43159851128E+01  0.20086976308E+04  0.20117845614E+04  0.00000000000E+00 0. -1.
<mgrwt>
<rscale>  2 0.11140444E+03</rscale>
<asrwt>0</asrwt>
<pdfrwt beam="1">  1       21 0.35553350E+00 0.11140444E+03</pdfrwt>
<pdfrwt beam="2">  1       21 0.18247483E-02 0.11140444E+03</pdfrwt>
<totfact> 0.25919729E+04</totfact>
</mgrwt>
</event>
<event>
 4    1  0.6158309E+003  0.1363494E+03  0.7546771E-02  0.1218327E+00
         21   -1    0    0  503  501  0.00000000000E+00  0.00000000000E+00  0.26427618977E+03  0.26427618977E+03  0.00000000000E+00 0. -1.
         21   -1    0    0  501  502 -0.00000000000E+00 -0.00000000000E+00 -0.17843348388E+03  0.17843348388E+03  0.00000000000E+00 0. -1.
         21    1    1    2  503  504 -0.19753029673E+02 -0.13491102715E+03  0.21520162253E+03  0.25476048706E+03  0.00000000000E+00 0. -1.
         21    1    1    2  504  502  0.19753029673E+02  0.13491102715E+03 -0.12935891664E+03  0.18794918659E+03  0.00000000000E+00 0. -1.
<mgrwt>
<rscale>  2 0.13634943E+03</rscale>
<asrwt>0</asrwt>
<pdfrwt beam="1">  1       21 0.40657875E-01 0.13634943E+03</pdfrwt>
<pdfrwt beam="2">  1       21 0.27451305E-01 0.13634943E+03</pdfrwt>
<totfact> 0.75571776E+04</totfact>
</mgrwt>
</event>
<event>
 4    1  0.6158309E+003  0.1358462E+03  0.7546771E-02  0.1219030E+00
         21   -1    0    0  504  501  0.00000000000E+00  0.00000000000E+00  0.62565060517E+02  0.62565060517E+02  0.00000000000E+00 0. -1.
         21   -1    0    0  503  502 -0.00000000000E+00 -0.00000000000E+00 -0.31533687738E+03  0.31533687738E+03  0.00000000000E+00 0. -1.
         21    1    1    2  503  501  0.11522698585E+03  0.71950846438E+02 -0.17441804061E+03  0.22107879921E+03  0.00000000000E+00 0. -1.
         21    1    1    2  504  502 -0.11522698585E+03 -0.71950846438E+02 -0.78353776250E+02  0.15682313868E+03  0.00000000000E+00 0. -1.
<mgrwt>
<rscale>  2 0.13584617E+03</rscale>
<asrwt>0</asrwt>
<pdfrwt beam="1">  1       21 0.96253939E-02 0.13584617E+03</pdfrwt>
<pdfrwt beam="2">  1       21 0.48513366E-01 0.13584617E+03</pdfrwt>
<totfact> 0.35606250E+05</totfact>
</mgrwt>
</event>
<event>
 4    1  0.6158309E+003  0.1203529E+03  0.7546771E-02  0.1242516E+00
         21   -1    0    0  504  501  0.00000000000E+00  0.00000000000E+00  0.74813198131E+02  0.74813198131E+02  0.00000000000E+00 0. -1.
         21   -1    0    0  503  502 -0.00000000000E+00 -0.00000000000E+00 -0.20001861628E+04  0.20001861628E+04  0.00000000000E+00 0.  1.
         21    1    1    2  503  501 -0.33743302134E+02  0.11552579214E+03 -0.19486946701E+04  0.19524076768E+04  0.00000000000E+00 0.  1.
         21    1    1    2  504  502  0.33743302134E+02 -0.11552579214E+03  0.23321705397E+02  0.12259168418E+03  0.00000000000E+00 0. -1.
<mgrwt>
<rscale>  2 0.12035289E+03</rscale>
<asrwt>0</asrwt>
<pdfrwt beam="1">  1       21 0.11509722E-01 0.12035289E+03</pdfrwt>
<pdfrwt beam="2">  1       21 0.30772096E+00 0.12035289E+03</pdfrwt>
<totfact> 0.21821763E+03</totfact>
</mgrwt>
</event>
<event>
 4    1  0.6158309E+003  0.1466768E+03  0.7546771E-02  0.1204617E+00
         21   -1    0    0  503  501  0.00000000000E+00  0.00000000000E+00  0.24047721629E+03  0.24047721629E+03  0.00000000000E+00 0.  1.
         21   -1    0    0  504  502 -0.00000000000E+00 -0.00000000000E+00 -0.48096297723E+03  0.48096297723E+03  0.00000000000E+00 0.  1.
         21    1    1    2  503  502  0.12769369129E+03  0.72169189883E+02 -0.44568952013E+03  0.46920487968E+03  0.00000000000E+00 0.  1.
         21    1    1    2  504  501 -0.12769369129E+03 -0.72169189883E+02  0.20520375918E+03  0.25223531384E+03  0.00000000000E+00 0.  1.
<mgrwt>
<rscale>  2 0.14667676E+03</rscale>
<asrwt>0</asrwt>
<pdfrwt beam="1">  1       21 0.36996495E-01 0.14667676E+03</pdfrwt>
<pdfrwt beam="2">  1       21 0.73994304E-01 0.14667676E+03</pdfrwt>
<totfact> 0.11931323E+04</totfact>
</mgrwt>
</event>
<event>
 4    1  0.6158309E+003  0.1098635E+03  0.7546771E-02  0.1260823E+00
         21   -1    0    0  504  501  0.00000000000E+00  0.00000000000E+00  0.82992499226E+02  0.82992499226E+02  0.00000000000E+00 0.  1.
         21   -1    0    0  503  502 -0.00000000000E+00 -0.00000000000E+00 -0.16493635489E+03  0.16493635489E+03  0.00000000000E+00 0.  1.
         21    1    1    2  503  501 -0.70841549127E+00  0.10986124941E+03  0.16539866555E+01  0.10987598303E+03  0.00000000000E+00 0.  1.
         21    1    1    2  504  502  0.70841549127E+00 -0.10986124941E+03 -0.83597842322E+02  0.13805287109E+03  0.00000000000E+00 0.  1.
<mgrwt>
<rscale>  2 0.10986353E+03</rscale>
<asrwt>0</asrwt>
<pdfrwt beam="1">  1       21 0.12768077E-01 0.10986353E+03</pdfrwt>
<pdfrwt beam="2">  1       21 0.25374823E-01 0.10986353E+03</pdfrwt>
<totfact> 0.77530445E+05</totfact>
</mgrwt>
</event>
<event>
 4    1  0.6158309E+003  0.1076435E+03  0.7546771E-02  0.1264997E+00
         21   -1    0    0  503  501  0.00000000000E+00  0.00000000000E+00  0.71357508624E+02  0.71357508624E+02  0.00000000000E+00 0. -1.
         21   -1    0    0  504  502 -0.00000000000E+00 -0.00000000000E+00 -0.16285651620E+03  0.16285651620E+03  0.00000000000E+00 0.  1.
         21    1    1    2  503  502 -0.98996860401E+02  0.42270029618E+02 -0.39424367867E+02  0.11463600898E+03  0.00000000000E+00 0. -1.
         21    1    1    2  504  501  0.98996860401E+02 -0.42270029618E+02 -0.52074639712E+02  0.11957801585E+03  0.00000000000E+00 0.  1.
<mgrwt>
<rscale>  2 0.10764355E+03</rscale>
<asrwt>0</asrwt>
<pdfrwt beam="1">  1       21 0.10978078E-01 0.10764355E+03</pdfrwt>
<pdfrwt beam="2">  1       21 0.25054848E-01 0.10764355E+03</pdfrwt>
<totfact> 0.10358997E+06</totfact>
</mgrwt>
</event>
<event>
 4    1  0.6158309E+003  0.1043151E+03  0.7546771E-02  0.1271475E+00
         21   -1    0    0  503  501  0.00000000000E+00  0.00000000000E+00  0.63679772810E+03  0.63679772810E+03  0.00000000000E+00 0. -1.
         21   -1    0    0  501  502 -0.00000000000E+00 -0.00000000000E+00 -0.22388881066E+02  0.22388881066E+02  0.00000000000E+00 0.  1.
         21    1    1    2  503  504 -0.73641558697E+02  0.73882084728E+02  0.46757825767E+03  0.47907313498E+03  0.00000000000E+00 0. -1.
         21    1    1    2  504  502  0.73641558697E+02 -0.73882084728E+02  0.14683058936E+03  0.18011347418E+03  0.00000000000E+00 0.  1.
<mgrwt>
<rscale>  2 0.10431511E+03</rscale>
<asrwt>0</asrwt>
<pdfrwt beam="1">  1       21 0.97968867E-01 0.10431511E+03</pdfrwt>
<pdfrwt beam="2">  1       21 0.34444437E-02 0.10431511E+03</pdfrwt>
<totfact> 0.44096985E+05</totfact>
</mgrwt>
</event>
<event>
 4    1  0.6158309E+003  0.1013270E+03  0.7546771E-02  0.1277530E+00
         21   -1    0    0  504  501  0.00000000000E+00  0.00000000000E+00  0.86150159158E+02  0.86150159158E+02  0.00000000000E+00 0. -1.
         21   -1    0    0  503  502 -0.00000000000E+00 -0.00000000000E+00 -0.13693383676E+03  0.13693383676E+03  0.00000000000E+00 0. -1.
         21    1    1    2  503  501 -0.24922565530E+02  0.98214233367E+02  0.14774143742E+02  0.10239846303E+03  0.00000000000E+00 0. -1.
         21    1    1    2  504  502  0.24922565530E+02 -0.98214233367E+02 -0.65557821347E+02  0.12068553289E+03  0.00000000000E+00 0. -1.
<mgrwt>
<rscale>  2 0.10132704E+03</rscale>
<asrwt>0</asrwt>
<pdfrwt beam="1">  1       21 0.13253871E-01 0.10132704E+03</pdfrwt>
<pdfrwt beam="2">  1       21 0.21066744E-01 0.10132704E+03</pdfrwt>
<totfact> 0.10255445E+06</totfact>
</mgrwt>
</event>
<event>
 4    1  0.6158309E+003  0.1251899E+03  0.7546771E-02  0.1234773E+00
         21   -1    0    0  504  501  0.00000000000E+00  0.00000000000E+00  0.93118146332E+02  0.93118146332E+02  0.00000000000E+00 0.  1.
         21   -1    0    0  503  502 -0.00000000000E+00 -0.00000000000E+00 -0.29601506091E+03  0.29601506091E+03  0.00000000000E+00 0.  1.
         21    1    1    2  503  501 -0.33556883901E+02 -0.12060867219E+03  0.26348078334E+02  0.12793255058E+03  0.00000000000E+00 0.  1.
         21    1    1    2  504  502  0.33556883901E+02  0.12060867219E+03 -0.22924499291E+03  0.26120065666E+03  0.00000000000E+00 0.  1.
<mgrwt>
<rscale>  2 0.12518992E+03</rscale>
<asrwt>0</asrwt>
<pdfrwt beam="1">  1       21 0.14325868E-01 0.12518992E+03</pdfrwt>
<pdfrwt beam="2">  1       21 0.45540779E-01 0.12518992E+03</pdfrwt>
<totfact> 0.20089980E+05</totfact>
</mgrwt>
</event>
<event>
 4    1  0.6158309E+003  0.1049008E+03  0.7546771E-02  0.1270315E+00
         21   -1    0    0  502  501  0.00000000000E+00  0.00000000000E+00  0.13658605282E+03  0.13658605282E+03  0.00000000000E+00 0. -1.
         21   -1    0    0  504  502 -0.00000000000E+00 -0.00000000000E+00 -0.95166793673E+03  0.95166793673E+03  0.00000000000E+00 0.  1.
         21    1    1    2  503  501  0.10267586744E+03  0.21490691879E+02  0.11304454728E+03  0.15421820016E+03  0.00000000000E+00 0. -1.
         21    1    1    2  504  503 -0.10267586744E+03 -0.21490691879E+02 -0.92812643119E+03  0.93403578939E+03  0.00000000000E+00 0.  1.
<mgrwt>
<rscale>  2 0.10490083E+03</rscale>
<asrwt>0</asrwt>
<pdfrwt beam="1">  1       21 0.21013239E-01 0.10490083E+03</pdfrwt>
<pdfrwt beam="2">  1       21 0.14641045E+00 0.10490083E+03</pdfrwt>
<totfact> 0.73031937E+03</totfact>
</mgrwt>
</event>
<event>
 4    1  0.6158309E+003  0.1212878E+03  0.7546771E-02  0.1240988E+00
         21   -1    0    0  503  501  0.00000000000E+00  0.00000000000E+00  0.21339243213E+03  0.21339243213E+03  0.00000000000E+00 0. -1.
         21   -1    0    0  504  502 -0.00000000000E+00 -0.00000000000E+00 -0.69123059578E+02  0.69123059578E+02  0.00000000000E+00 0. -1.
         21    1    1    2  503  502 -0.11012063904E+03  0.50834690797E+02  0.79455365312E+02  0.14499612411E+03  0.00000000000E+00 0. -1.
         21    1    1    2  504  501  0.11012063904E+03 -0.50834690797E+02  0.64814007242E+02  0.13751936760E+03  0.00000000000E+00 0. -1.
<mgrwt>
<rscale>  2 0.12128776E+03</rscale>
<asrwt>0</asrwt>
<pdfrwt beam="1">  1       21 0.32829605E-01 0.12128776E+03</pdfrwt>
<pdfrwt beam="2">  1       21 0.10634317E-01 0.12128776E+03</pdfrwt>
<totfact> 0.65361810E+05</totfact>
</mgrwt>
</event>
<event>
 4    1  0.6158309E+003  0.2150649E+03  0.7546771E-02  0.1137617E+00
         21   -1    0    0  504  501  0.00000000000E+00  0.00000000000E+00  0.51337726820E+03  0.51337726820E+03  0.00000000000E+00 0. -1.
         21   -1    0    0  503  502 -0.00000000000E+00 -0.00000000000E+00 -0.90208957377E+02  0.90208957377E+02  0.00000000000E+00 0. -1.
         21    1    1    2  503  501  0.34026656989E+02 -0.21235604195E+03  0.20087394755E+03  0.29428429238E+03  0.00000000000E+00 0. -1.
         21    1    1    2  504  502 -0.34026656989E+02  0.21235604195E+03  0.22229436327E+03  0.30930193320E+03  0.00000000000E+00 0. -1.
<mgrwt>
<rscale>  2 0.21506488E+03</rscale>
<asrwt>0</asrwt>
<pdfrwt beam="1">  1       21 0.78981117E-01 0.21506488E+03</pdfrwt>
<pdfrwt beam="2">  1       21 0.13878301E-01 0.21506488E+03</pdfrwt>
<totfact> 0.63292557E+04</totfact>
</mgrwt>
</event>
<event>
 4    1  0.6158309E+003  0.1136100E+03  0.7546771E-02  0.1254027E+00
         21   -1    0    0  504  501  0.00000000000E+00  0.00000000000E+00  0.70647827689E+03  0.70647827689E+03  0.00000000000E+00 0.  1.
         21   -1    0    0  501  502 -0.00000000000E+00 -0.00000000000E+00 -0.88814638520E+03  0.88814638520E+03  0.00000000000E+00 0.  1.
         21    1    1    2  503  502 -0.11350088439E+03  0.49780784255E+01 -0.87990312318E+03  0.88720726902E+03  0.00000000000E+00 0.  1.
         21    1    1    2  504  503  0.11350088439E+03 -0.49780784255E+01  0.69823501487E+03  0.70741739307E+03  0.00000000000E+00 0.  1.
<mgrwt>
<rscale>  2 0.11361000E+03</rscale>
<asrwt>0</asrwt>
<pdfrwt beam="1">  1       21 0.10868897E+00 0.11361000E+03</pdfrwt>
<pdfrwt beam="2">  1       21 0.13663791E+00 0.11361000E+03</pdfrwt>
<totfact> 0.28914298E+02</totfact>
</mgrwt>
</event>
<event>
 4    1  0.6158309E+003  0.1300272E+03  0.7546771E-02  0.1227415E+00
         21   -1    0    0  503  501  0.00000000000E+00  0.00000000000E+00  0.20730741678E+02  0.20730741678E+02  0.00000000000E+00 0. -1.
         21   -1    0    0  504  502 -0.00000000000E+00 -0.00000000000E+00 -0.88240064404E+03  0.88240064404E+03  0.00000000000E+00 0. -1.
         21    1    1    2  503  502 -0.10061604350E+03 -0.82361878184E+02 -0.30654859212E+03  0.33298514459E+03  0.00000000000E+00 0. -1.
         21    1    1    2  504  501  0.10061604350E+03  0.82361878184E+02 -0.55512131025E+03  0.57014624113E+03  0.00000000000E+00 0. -1.
<mgrwt>
<rscale>  2 0.13002718E+03</rscale>
<asrwt>0</asrwt>
<pdfrwt beam="1">  1       21 0.31893448E-02 0.13002718E+03</pdfrwt>
<pdfrwt beam="2">  1       21 0.13575395E+00 0.13002718E+03</pdfrwt>
<totfact> 0.22640394E+05</totfact>
</mgrwt>
</event>
<event>
 4    1  0.6158309E+003  0.2662058E+03  0.7546771E-02  0.1103471E+00
         21   -1    0    0  502  501  0.00000000000E+00  0.00000000000E+00  0.29269055870E+03  0.29269055870E+03  0.00000000000E+00 0.  1.
         21   -1    0    0  504  502 -0.00000000000E+00 -0.00000000000E+00 -0.82263175335E+03  0.82263175335E+03  0.00000000000E+00 0. -1.
         21    1    1    2  503  501 -0.25896743340E+03  0.61655635573E+02  0.20349105876E+03  0.33507336503E+03  0.00000000000E+00 0.  1.
         21    1    1    2  504  503  0.25896743340E+03 -0.61655635573E+02 -0.73343225342E+03  0.78024894701E+03  0.00000000000E+00 0. -1.
<mgrwt>
<rscale>  2 0.26620584E+03</rscale>
<asrwt>0</asrwt>
<pdfrwt beam="1">  1       21 0.45029317E-01 0.26620584E+03</pdfrwt>
<pdfrwt beam="2">  1       21 0.12655873E+00 0.26620584E+03</pdfrwt>
<totfact> 0.20632219E+03</totfact>
</mgrwt>
</event>
<event>
 4    1  0.6158309E+003  0.1506659E+03  0.7546771E-02  0.1199657E+00
         21   -1    0    0  504  501  0.00000000000E+00  0.00000000000E+00  0.18848704558E+03  0.18848704558E+03  0.00000000000E+00 0.  1.
         21   -1    0    0  503  502 -0.00000000000E+00 -0.00000000000E+00 -0.16905863416E+03  0.16905863416E+03  0.00000000000E+00 0.  1.
         21    1    1    2  503  501 -0.14715269858E+03  0.32346458766E+02  0.10559065740E+03  0.18398259978E+03  0.00000000000E+00 0.  1.
         21    1    1    2  504  502  0.14715269858E+03 -0.32346458766E+02 -0.86162245973E+02  0.17356307996E+03  0.00000000000E+00 0.  1.
<mgrwt>
<rscale>  2 0.15066589E+03</rscale>
<asrwt>0</asrwt>
<pdfrwt beam="1">  1       21 0.28998007E-01 0.15066589E+03</pdfrwt>
<pdfrwt beam="2">  1       21 0.26009021E-01 0.15066589E+03</pdfrwt>
<totfact> 0.16197481E+05</totfact>
</mgrwt>
</event>
<event>
 4    1  0.6158309E+003  0.2031843E+03  0.7546771E-02  0.1147080E+00
         21   -1    0    0  504  501  0.00000000000E+00  0.00000000000E+00  0.51173433665E+03  0.51173433665E+03  0.00000000000E+00 0. -1.
         21   -1    0    0  503  502 -0.00000000000E+00 -0.00000000000E+00 -0.88201300660E+02  0.88201300660E+02  0.00000000000E+00 0. -1.
         21    1    1    2  503  501 -0.11266772480E+03  0.16908533111E+03  0.29939493970E+03  0.36183034052E+03  0.00000000000E+00 0. -1.
         21    1    1    2  504  502  0.11266772480E+03 -0.16908533111E+03  0.12413809629E+03  0.23810529678E+03  0.00000000000E+00 0. -1.
<mgrwt>
<rscale>  2 0.20318431E+03</rscale>
<asrwt>0</asrwt>
<pdfrwt beam="1">  1       21 0.78728358E-01 0.20318431E+03</pdfrwt>
<pdfrwt beam="2">  1       21 0.13569431E-01 0.20318431E+03</pdfrwt>
<totfact> 0.66763625E+04</totfact>
</mgrwt>
</event>
<event>
 4    1  0.6158309E+003  0.1121501E+03  0.7546771E-02  0.1256639E+00
         21   -1    0    0  502  501  0.00000000000E+00  0.00000000000E+00  0.25886233263E+03  0.25886233263E+03  0.00000000000E+00 0. -1.
         21   -1    0    0  504  502 -0.00000000000E+00 -0.00000000000E+00 -0.50083121534E+02  0.50083121534E+02  0.00000000000E+00 0. -1.
         21    1    1    2  503  501  0.27890333879E+02  0.10862671640E+03  0.13107827046E+03  0.17250839755E+03  0.00000000000E+00 0. -1.
         21    1    1    2  504  503 -0.27890333879E+02 -0.10862671640E+03  0.77700940640E+02  0.13643705661E+03  0.00000000000E+00 0. -1.
<mgrwt>
<rscale>  2 0.11215005E+03</rscale>
<asrwt>0</asrwt>
<pdfrwt beam="1">  1       21 0.39824973E-01 0.11215005E+03</pdfrwt>
<pdfrwt beam="2">  1       21 0.77050958E-02 0.11215005E+03</pdfrwt>
<totfact> 0.78135279E+05</totfact>
</mgrwt>
</event>
<event>
 4    1  0.6158309E+003  0.1010216E+03  0.7546771E-02  0.1278162E+00
         21   -1    0    0  504  501  0.00000000000E+00  0.00000000000E+00  0.21248510977E+03  0.21248510977E+03  0.00000000000E+00 0. -1.
         21   -1    0    0  503  502 -0.00000000000E+00 -0.00000000000E+00 -0.36256014910E+03  0.36256014910E+03  0.00000000000E+00 0. -1.
         21    1    1    2  503  501 -0.48700199025E+02  0.88507970544E+02 -0.34283968202E+03  0.35741351094E+03  0.00000000000E+00 0. -1.
         21    1    1    2  504  502  0.48700199025E+02 -0.88507970544E+02  0.19276464269E+03  0.21763174793E+03  0.00000000000E+00 0. -1.
<mgrwt>
<rscale>  2 0.10102163E+03</rscale>
<asrwt>0</asrwt>
<pdfrwt beam="1">  1       21 0.32690017E-01 0.10102163E+03</pdfrwt>
<pdfrwt beam="2">  1       21 0.55778484E-01 0.10102163E+03</pdfrwt>
<totfact> 0.28922861E+04</totfact>
</mgrwt>
</event>
<event>
 4    1  0.6158309E+003  0.1075177E+03  0.7546771E-02  0.1265237E+00
         21   -1    0    0  504  501  0.00000000000E+00  0.00000000000E+00  0.35315933591E+02  0.35315933591E+02  0.00000000000E+00 0.  1.
         21   -1    0    0  503  502 -0.00000000000E+00 -0.00000000000E+00 -0.45803888610E+03  0.45803888610E+03  0.00000000000E+00 0. -1.
         21    1    1    2  503  501 -0.78402268763E+02  0.73574022150E+02 -0.79588418221E+02  0.13376983516E+03  0.00000000000E+00 0.  1.
         21    1    1    2  504  502  0.78402268763E+02 -0.73574022150E+02 -0.34313453429E+03  0.35958498454E+03  0.00000000000E+00 0. -1.
<mgrwt>
<rscale>  2 0.10751768E+03</rscale>
<asrwt>0</asrwt>
<pdfrwt beam="1">  1       21 0.54332212E-02 0.10751768E+03</pdfrwt>
<pdfrwt beam="2">  1       21 0.70467512E-01 0.10751768E+03</pdfrwt>
<totfact> 0.43252680E+05</totfact>
</mgrwt>
</event>
<event>
 4    1  0.6158309E+003  0.1121352E+03  0.7546771E-02  0.1256666E+00
         21   -1    0    0  504  501  0.00000000000E+00  0.00000000000E+00  0.28895694453E+03  0.28895694453E+03  0.00000000000E+00 0. -1.
         21   -1    0    0  501  502 -0.00000000000E+00 -0.00000000000E+00 -0.49120881765E+02  0.49120881765E+02  0.00000000000E+00 0.  1.
         21    1    1    2  503  502  0.24395911947E+02  0.10944922413E+03  0.62818689072E+02  0.12853202278E+03  0.00000000000E+00 0.  1.
         21    1    1    2  504  503 -0.24395911947E+02 -0.10944922413E+03  0.17701737369E+03  0.20954580352E+03  0.00000000000E+00 0. -1.
<mgrwt>
<rscale>  2 0.11213516E+03</rscale>
<asrwt>0</asrwt>
<pdfrwt beam="1">  1       21 0.44454914E-01 0.11213516E+03</pdfrwt>
<pdfrwt beam="2">  1       21 0.75570588E-02 0.11213516E+03</pdfrwt>
<totfact> 0.64787604E+05</totfact>
</mgrwt>
</event>
<event>
 4    1  0.6158309E+003  0.1660992E+03  0.7546771E-02  0.1181978E+00
         21   -1    0    0  502  501  0.00000000000E+00  0.00000000000E+00  0.93294227547E+03  0.93294227547E+03  0.00000000000E+00 0. -1.
         21   -1    0    0  503  502 -0.00000000000E+00 -0.00000000000E+00 -0.70177100191E+02  0.70177100191E+02  0.00000000000E+00 0. -1.
         21    1    1    2  503  504  0.15675969552E+03  0.54912242779E+02  0.49864371760E+02  0.17342264016E+03  0.00000000000E+00 0. -1.
         21    1    1    2  504  501 -0.15675969552E+03 -0.54912242779E+02  0.81290080352E+03  0.82969673550E+03  0.00000000000E+00 0. -1.
<mgrwt>
<rscale>  2 0.16609924E+03</rscale>
<asrwt>0</asrwt>
<pdfrwt beam="1">  1       21 0.14352957E+00 0.16609924E+03</pdfrwt>
<pdfrwt beam="2">  1       21 0.10796478E-01 0.16609924E+03</pdfrwt>
<totfact> 0.24188999E+04</totfact>
</mgrwt>
</event>
<event>
 4    1  0.6158309E+003  0.1267572E+03  0.7546771E-02  0.1232348E+00
         21   -1    0    0  502  501  0.00000000000E+00  0.00000000000E+00  0.14269753844E+04  0.14269753844E+04  0.00000000000E+00 0. -1.
         21   -1    0    0  504  502 -0.00000000000E+00 -0.00000000000E+00 -0.17584008350E+02  0.17584008350E+02  0.00000000000E+00 0.  1.
         21    1    1    2  503  501  0.12622692708E+03  0.11582202156E+02  0.11378586403E+04  0.11448972311E+04  0.00000000000E+00 0. -1.
         21    1    1    2  504  503 -0.12622692708E+03 -0.11582202156E+02  0.27153273576E+03  0.29966216164E+03  0.00000000000E+00 0.  1.
<mgrwt>
<rscale>  2 0.12675719E+03</rscale>
<asrwt>0</asrwt>
<pdfrwt beam="1">  1       21 0.21953458E+00 0.12675719E+03</pdfrwt>
<pdfrwt beam="2">  1       21 0.27052332E-02 0.12675719E+03</pdfrwt>
<totfact> 0.79649023E+04</totfact>
</mgrwt>
</event>
<event>
 4    1  0.6158309E+003  0.2219207E+03  0.7546771E-02  0.1132459E+00
         21   -1    0    0  502  501  0.00000000000E+00  0.00000000000E+00  0.62085005929E+03  0.62085005929E+03  0.00000000000E+00 0. -1.
         21   -1    0    0  504  502 -0.00000000000E+00 -0.00000000000E+00 -0.16262782992E+03  0.16262782992E+03  0.00000000000E+00 0. -1.
         21    1    1    2  503  501 -0.81994511889E+02 -0.20621762241E+03  0.50947993243E+03  0.55571450343E+03  0.00000000000E+00 0. -1.
         21    1    1    2  504  503  0.81994511889E+02  0.20621762241E+03 -0.51257703065E+02  0.22776338577E+03  0.00000000000E+00 0. -1.
<mgrwt>
<rscale>  2 0.22192072E+03</rscale>
<asrwt>0</asrwt>
<pdfrwt beam="1">  1       21 0.95515392E-01 0.22192072E+03</pdfrwt>
<pdfrwt beam="2">  1       21 0.25019667E-01 0.22192072E+03</pdfrwt>
<totfact> 0.13576387E+04</totfact>
</mgrwt>
</event>
<event>
 4    1  0.6158309E+003  0.1009100E+03  0.7546771E-02  0.1278394E+00
         21   -1    0    0  504  501  0.00000000000E+00  0.00000000000E+00  0.10894664082E+03  0.10894664082E+03  0.00000000000E+00 0. -1.
         21   -1    0    0  503  502 -0.00000000000E+00 -0.00000000000E+00 -0.10786843437E+03  0.10786843437E+03  0.00000000000E+00 0. -1.
         21    1    1    2  503  501 -0.44138497635E+02 -0.90744818651E+02 -0.39072931495E+02  0.10821054968E+03  0.00000000000E+00 0. -1.
         21    1    1    2  504  502  0.44138497635E+02  0.90744818651E+02  0.40151137941E+02  0.10860452552E+03  0.00000000000E+00 0. -1.
<mgrwt>
<rscale>  2 0.10091000E+03</rscale>
<asrwt>0</asrwt>
<pdfrwt beam="1">  1       21 0.16761022E-01 0.10091000E+03</pdfrwt>
<pdfrwt beam="2">  1       21 0.16595144E-01 0.10091000E+03</pdfrwt>
<totfact> 0.10411688E+06</totfact>
</mgrwt>
</event>
<event>
 4    1  0.6158309E+003  0.1036457E+03  0.7546771E-02  0.1272811E+00
         21   -1    0    0  502  501  0.00000000000E+00  0.00000000000E+00  0.11093030709E+03  0.11093030709E+03  0.00000000000E+00 0.  1.
         21   -1    0    0  504  502 -0.00000000000E+00 -0.00000000000E+00 -0.98312968398E+02  0.98312968398E+02  0.00000000000E+00 0.  1.
         21    1    1    2  503  501 -0.10235662926E+03 -0.16295850594E+02  0.19116868829E+02  0.10539397029E+03  0.00000000000E+00 0.  1.
         21    1    1    2  504  503  0.10235662926E+03  0.16295850594E+02 -0.64995301321E+01  0.10384930520E+03  0.00000000000E+00 0.  1.
<mgrwt>
<rscale>  2 0.10364572E+03</rscale>
<asrwt>0</asrwt>
<pdfrwt beam="1">  1       21 0.17066201E-01 0.10364572E+03</pdfrwt>
<pdfrwt beam="2">  1       21 0.15125072E-01 0.10364572E+03</pdfrwt>
<totfact> 0.11913932E+06</totfact>
</mgrwt>
</event>
<event>
 4    1  0.6158309E+003  0.1170628E+03  0.7546771E-02  0.1248023E+00
         21   -1    0    0  504  501  0.00000000000E+00  0.00000000000E+00  0.38498451059E+02  0.38498451059E+02  0.00000000000E+00 0.  1.
         21   -1    0    0  501  502 -0.00000000000E+00 -0.00000000000E+00 -0.10970416847E+04  0.10970416847E+04  0.00000000000E+00 0.  1.
         21    1    1    2  503  502 -0.26247238957E+02  0.11408234468E+03 -0.99592623121E+03  0.10027825073E+04  0.00000000000E+00 0.  1.
         21    1    1    2  504  503  0.26247238957E+02 -0.11408234468E+03 -0.62617002424E+02  0.13275762846E+03  0.00000000000E+00 0.  1.
<mgrwt>
<rscale>  2 0.11706280E+03</rscale>
<asrwt>0</asrwt>
<pdfrwt beam="1">  1       21 0.59228384E-02 0.11706280E+03</pdfrwt>
<pdfrwt beam="2">  1       21 0.16877565E+00 0.11706280E+03</pdfrwt>
<totfact> 0.46180839E+04</totfact>
</mgrwt>
</event>
<event>
 4    1  0.6158309E+003  0.1416289E+03  0.7546771E-02  0.1211154E+00
         21   -1    0    0  504  501  0.00000000000E+00  0.00000000000E+00  0.12720300567E+04  0.12720300567E+04  0.00000000000E+00 0.  1.
         21   -1    0    0  503  502 -0.00000000000E+00 -0.00000000000E+00 -0.19536161349E+02  0.19536161349E+02  0.00000000000E+00 0. -1.
         21    1    1    2  503  501  0.47670753895E+02  0.13336508965E+03  0.90982288379E+03  0.92078033634E+03  0.00000000000E+00 0.  1.
         21    1    1    2  504  502 -0.47670753895E+02 -0.13336508965E+03  0.34267101160E+03  0.37078588175E+03  0.00000000000E+00 0. -1.
<mgrwt>
<rscale>  2 0.14162891E+03</rscale>
<asrwt>0</asrwt>
<pdfrwt beam="1">  1       21 0.19569687E+00 0.14162891E+03</pdfrwt>
<pdfrwt beam="2">  1       21 0.30055643E-02 0.14162891E+03</pdfrwt>
<totfact> 0.93120874E+04</totfact>
</mgrwt>
</event>
<event>
 4    1  0.6158309E+003  0.1030641E+03  0.7546771E-02  0.1273982E+00
         21   -1    0    0  502  501  0.00000000000E+00  0.00000000000E+00  0.93088921366E+02  0.93088921366E+02  0.00000000000E+00 0.  1.
         21   -1    0    0  503  502 -0.00000000000E+00 -0.00000000000E+00 -0.20074996001E+04  0.20074996001E+04  0.00000000000E+00 0.  1.
         21    1    1    2  503  504  0.21867582209E+02 -0.10071746281E+03 -0.19772130905E+04  0.19798974225E+04  0.00000000000E+00 0.  1.
         21    1    1    2  504  501 -0.21867582209E+02  0.10071746281E+03  0.62802411697E+02  0.12069109901E+03  0.00000000000E+00 0.  1.
<mgrwt>
<rscale>  2 0.10306405E+03</rscale>
<asrwt>0</asrwt>
<pdfrwt beam="1">  1       21 0.14321374E-01 0.10306405E+03</pdfrwt>
<pdfrwt beam="2">  1       21 0.30884607E+00 0.10306405E+03</pdfrwt>
<totfact> 0.15166484E+03</totfact>
</mgrwt>
</event>
<event>
 4    1  0.6158309E+003  0.1010998E+03  0.7546771E-02  0.1278000E+00
         21   -1    0    0  504  501  0.00000000000E+00  0.00000000000E+00  0.20611478495E+03  0.20611478495E+03  0.00000000000E+00 0.  1.
         21   -1    0    0  503  502 -0.00000000000E+00 -0.00000000000E+00 -0.22980073325E+03  0.22980073325E+03  0.00000000000E+00 0.  1.
         21    1    1    2  503  501 -0.32000967080E+02  0.95901547350E+02  0.18117036637E+03  0.20747016733E+03  0.00000000000E+00 0.  1.
         21    1    1    2  504  502  0.32000967080E+02 -0.95901547350E+02 -0.20485631467E+03  0.22844535088E+03  0.00000000000E+00 0.  1.
<mgrwt>
<rscale>  2 0.10109980E+03</rscale>
<asrwt>0</asrwt>
<pdfrwt beam="1">  1       21 0.31709967E-01 0.10109980E+03</pdfrwt>
<pdfrwt beam="2">  1       21 0.35353959E-01 0.10109980E+03</pdfrwt>
<totfact> 0.76888067E+04</totfact>
</mgrwt>
</event>
<event>
 4    1  0.6158309E+003  0.1056090E+03  0.7546771E-02  0.1268924E+00
         21   -1    0    0  504  501  0.00000000000E+00  0.00000000000E+00  0.61970598811E+02  0.61970598811E+02  0.00000000000E+00 0. -1.
         21   -1    0    0  503  502 -0.00000000000E+00 -0.00000000000E+00 -0.53720367536E+03  0.53720367536E+03  0.00000000000E+00 0.  1.
         21    1    1    2  503  501 -0.10526959547E+03  0.84605179711E+01  0.66847498789E+01  0.10582038544E+03  0.00000000000E+00 0. -1.
         21    1    1    2  504  502  0.10526959547E+03 -0.84605179711E+01 -0.48191782642E+03  0.49335388872E+03  0.00000000000E+00 0.  1.
<mgrwt>
<rscale>  2 0.10560903E+03</rscale>
<asrwt>0</asrwt>
<pdfrwt beam="1">  1       21 0.95339380E-02 0.10560903E+03</pdfrwt>
<pdfrwt beam="2">  1       21 0.82646721E-01 0.10560903E+03</pdfrwt>
<totfact> 0.11675127E+05</totfact>
</mgrwt>
</event>
<event>
 4    1  0.6158309E+003  0.1247654E+03  0.7546771E-02  0.1235436E+00
         21   -1    0    0  502  501  0.00000000000E+00  0.00000000000E+00  0.14530504137E+04  0.14530504137E+04  0.00000000000E+00 0. -1.
         21   -1    0    0  503  502 -0.00000000000E+00 -0.00000000000E+00 -0.79356642553E+02  0.79356642553E+02  0.00000000000E+00 0.  1.
         21    1    1    2  503  504  0.80987613218E+02 -0.94907425541E+02 -0.25764764802E+02  0.12739794356E+03  0.00000000000E+00 0.  1.
         21    1    1    2  504  501 -0.80987613218E+02  0.94907425541E+02  0.13994585359E+04  0.14050091127E+04  0.00000000000E+00 0. -1.
<mgrwt>
<rscale>  2 0.12476543E+03</rscale>
<asrwt>0</asrwt>
<pdfrwt beam="1">  1       21 0.22354620E+00 0.12476543E+03</pdfrwt>
<pdfrwt beam="2">  1       21 0.12208715E-01 0.12476543E+03</pdfrwt>
<totfact> 0.58769871E+03</totfact>
</mgrwt>
</event>
<event>
 4    1  0.6158309E+003  0.1025037E+03  0.7546771E-02  0.1275117E+00
         21   -1    0    0  503  501  0.00000000000E+00  0.00000000000E+00  0.11372516960E+03  0.11372516960E+03  0.00000000000E+00 0. -1.
         21   -1    0    0  501  502 -0.00000000000E+00 -0.00000000000E+00 -0.93615477052E+02  0.93615477052E+02  0.00000000000E+00 0. -1.
         21    1    1    2  503  504  0.80507084742E+02  0.63447715944E+02  0.21918940159E+02  0.10482100596E+03  0.00000000000E+00 0. -1.
         21    1    1    2  504  502 -0.80507084742E+02 -0.63447715944E+02 -0.18092476078E+01  0.10251964070E+03  0.00000000000E+00 0. -1.
<mgrwt>
<rscale>  2 0.10250367E+03</rscale>
<asrwt>0</asrwt>
<pdfrwt beam="1">  1       21 0.17496180E-01 0.10250367E+03</pdfrwt>
<pdfrwt beam="2">  1       21 0.14402381E-01 0.10250367E+03</pdfrwt>
<totfact> 0.12428348E+06</totfact>
</mgrwt>
</event>
<event>
 4    1  0.6158309E+003  0.2809374E+03  0.7546771E-02  0.1095178E+00
         21   -1    0    0  504  501  0.00000000000E+00  0.00000000000E+00  0.49038835348E+03  0.49038835348E+03  0.00000000000E+00 0. -1.
         21   -1    0    0  501  502 -0.00000000000E+00 -0.00000000000E+00 -0.30875141691E+03  0.30875141691E+03  0.00000000000E+00 0. -1.
         21    1    1    2  503  502 -0.28082368010E+03  0.79919283502E+01 -0.18564270371E+03  0.33673286692E+03  0.00000000000E+00 0. -1.
         21    1    1    2  504  503  0.28082368010E+03 -0.79919283502E+01  0.36727964027E+03  0.46240690347E+03  0.00000000000E+00 0. -1.
<mgrwt>
<rscale>  2 0.28093738E+03</rscale>
<asrwt>0</asrwt>
<pdfrwt beam="1">  1       21 0.75444362E-01 0.28093738E+03</pdfrwt>
<pdfrwt beam="2">  1       21 0.47500218E-01 0.28093738E+03</pdfrwt>
<totfact> 0.62882440E+03</totfact>
</mgrwt>
</event>
<event>
 4    1  0.6158309E+003  0.1007492E+03  0.7546771E-02  0.1278728E+00
         21   -1    0    0  503  501  0.00000000000E+00  0.00000000000E+00  0.67028805360E+02  0.67028805360E+02  0.00000000000E+00 0. -1.
         21   -1    0    0  504  502 -0.00000000000E+00 -0.00000000000E+00 -0.15218553205E+03  0.15218553205E+03  0.00000000000E+00 0. -1.
         21    1    1    2  503  502 -0.37162096127E+02  0.93644999949E+02 -0.50283262766E+02  0.11260023942E+03  0.00000000000E+00 0. -1.
         21    1    1    2  504  501  0.37162096127E+02 -0.93644999949E+02 -0.34873463929E+02  0.10661409799E+03  0.00000000000E+00 0. -1.
<mgrwt>
<rscale>  2 0.10074923E+03</rscale>
<asrwt>0</asrwt>
<pdfrwt beam="1">  1       21 0.10312124E-01 0.10074923E+03</pdfrwt>
<pdfrwt beam="2">  1       21 0.23413159E-01 0.10074923E+03</pdfrwt>
<totfact> 0.13101925E+06</totfact>
</mgrwt>
</event>
<event>
 4    1  0.6158309E+003  0.1105119E+03  0.7546771E-02  0.1259625E+00
         21   -1    0    0  503  501  0.00000000000E+00  0.00000000000E+00  0.20145454949E+04  0.20145454949E+04  0.00000000000E+00 0. -1.
         21   -1    0    0  504  502 -0.00000000000E+00 -0.00000000000E+00 -0.35866831583E+02  0.35866831583E+02  0.00000000000E+00 0. -1.
         21    1    1    2  503  502 -0.10728919695E+03 -0.26493703599E+02  0.19238956068E+04  0.19270669926E+04  0.00000000000E+00 0. -1.
         21    1    1    2  504  501  0.10728919695E+03  0.26493703599E+02  0.54783056535E+02  0.12334533390E+03  0.00000000000E+00 0. -1.
<mgrwt>
<rscale>  2 0.11051194E+03</rscale>
<asrwt>0</asrwt>
<pdfrwt beam="1">  1       21 0.30992999E+00 0.11051194E+03</pdfrwt>
<pdfrwt beam="2">  1       21 0.55179757E-02 0.11051194E+03</pdfrwt>
<totfact> 0.76549567E+03</totfact>
</mgrwt>
</event>
<event>
 4    1  0.6158309E+003  0.1274686E+03  0.7546771E-02  0.1231261E+00
         21   -1    0    0  502  501  0.00000000000E+00  0.00000000000E+00  0.20635765475E+02  0.20635765475E+02  0.00000000000E+00 0.  1.
         21   -1    0    0  504  502 -0.00000000000E+00 -0.00000000000E+00 -0.89177431701E+03  0.89177431701E+03  0.00000000000E+00 0. -1.
         21    1    1    2  503  501  0.12377652385E+03 -0.30456719088E+02 -0.27948256433E+03  0.30717868311E+03  0.00000000000E+00 0.  1.
         21    1    1    2  504  503 -0.12377652385E+03  0.30456719088E+02 -0.59165598721E+03  0.60523139938E+03  0.00000000000E+00 0. -1.
<mgrwt>
<rscale>  2 0.12746858E+03</rscale>
<asrwt>0</asrwt>
<pdfrwt beam="1">  1       21 0.31747329E-02 0.12746858E+03</pdfrwt>
<pdfrwt beam="2">  1       21 0.13719606E+00 0.12746858E+03</pdfrwt>
<totfact> 0.22234124E+05</totfact>
</mgrwt>
</event>
<event>
 4    1  0.6158309E+003  0.1606767E+03  0.7546771E-02  0.1187935E+00
         21   -1    0    0  503  501  0.00000000000E+00  0.00000000000E+00  0.93668834275E+02  0.93668834275E+02  0.00000000000E+00 0. -1.
         21   -1    0    0  504  502 -0.00000000000E+00 -0.00000000000E+00 -0.40524223225E+03  0.40524223225E+03  0.00000000000E+00 0. -1.
         21    1    1    2  503  502  0.13553891003E+03 -0.86291447535E+02 -0.14703456024E+02  0.16134807613E+03  0.00000000000E+00 0. -1.
         21    1    1    2  504  501 -0.13553891003E+03  0.86291447535E+02 -0.29686994195E+03  0.33756299040E+03  0.00000000000E+00 0. -1.
<mgrwt>
<rscale>  2 0.16067673E+03</rscale>
<asrwt>0</asrwt>
<pdfrwt beam="1">  1       21 0.14410590E-01 0.16067673E+03</pdfrwt>
<pdfrwt beam="2">  1       21 0.62344960E-01 0.16067673E+03</pdfrwt>
<totfact> 0.10196038E+05</totfact>
</mgrwt>
</event>
<event>
 4    1  0.6158309E+003  0.1001956E+03  0.7546771E-02  0.1279885E+00
         21   -1    0    0  504  501  0.00000000000E+00  0.00000000000E+00  0.14731418347E+02  0.14731418347E+02  0.00000000000E+00 0. -1.
         21   -1    0    0  503  502 -0.00000000000E+00 -0.00000000000E+00 -0.74426746074E+03  0.74426746074E+03  0.00000000000E+00 0.  1.
         21    1    1    2  503  501 -0.44442267211E+02 -0.89800064763E+02 -0.25454225247E+03  0.27355241735E+03  0.00000000000E+00 0. -1.
         21    1    1    2  504  502  0.44442267211E+02  0.89800064763E+02 -0.47499378993E+03  0.48544646174E+03  0.00000000000E+00 0.  1.
<mgrwt>
<rscale>  2 0.10019564E+03</rscale>
<asrwt>0</asrwt>
<pdfrwt beam="1">  1       21 0.22663718E-02 0.10019564E+03</pdfrwt>
<pdfrwt beam="2">  1       21 0.11450270E+00 0.10019564E+03</pdfrwt>
<totfact> 0.60385017E+05</totfact>
</mgrwt>
</event>
<event>
 4    1  0.6158309E+003  0.1058093E+03  0.7546771E-02  0.1268533E+00
         21   -1    0    0  504  501  0.00000000000E+00  0.00000000000E+00  0.98042086979E+01  0.98042086979E+01  0.00000000000E+00 0.  1.
         21   -1    0    0  503  502 -0.00000000000E+00 -0.00000000000E+00 -0.11900558714E+04  0.11900558714E+04  0.00000000000E+00 0.  1.
         21    1    1    2  503  501 -0.55300315779E+02  0.90208052742E+02 -0.46946860804E+03  0.48124462765E+03  0.00000000000E+00 0.  1.
         21    1    1    2  504  502  0.55300315779E+02 -0.90208052742E+02 -0.71078305462E+03  0.71861545241E+03  0.00000000000E+00 0.  1.
<mgrwt>
<rscale>  2 0.10580935E+03</rscale>
<asrwt>0</asrwt>
<pdfrwt beam="1">  1       21 0.15083401E-02 0.10580935E+03</pdfrwt>
<pdfrwt beam="2">  1       21 0.18308548E+00 0.10580935E+03</pdfrwt>
<totfact> 0.34935417E+05</totfact>
</mgrwt>
</event>
<event>
 4    1  0.6158309E+003  0.1049559E+03  0.7546771E-02  0.1270206E+00
         21   -1    0    0  504  501  0.00000000000E+00  0.00000000000E+00  0.70235862648E+02  0.70235862648E+02  0.00000000000E+00 0. -1.
         21   -1    0    0  501  502 -0.00000000000E+00 -0.00000000000E+00 -0.16386494702E+03  0.16386494702E+03  0.00000000000E+00 0. -1.
         21    1    1    2  503  502  0.88121299998E+02 -0.57012170892E+02 -0.71051031005E+02  0.12674383673E+03  0.00000000000E+00 0. -1.
         21    1    1    2  504  503 -0.88121299998E+02  0.57012170892E+02 -0.22578053366E+02  0.10735697293E+03  0.00000000000E+00 0. -1.
<mgrwt>
<rscale>  2 0.10495595E+03</rscale>
<asrwt>0</asrwt>
<pdfrwt beam="1">  1       21 0.10805517E-01 0.10495595E+03</pdfrwt>
<pdfrwt beam="2">  1       21 0.25209992E-01 0.10495595E+03</pdfrwt>
<totfact> 0.10522906E+06</totfact>
</mgrwt>
</event>
<event>
 4    1  0.6158309E+003  0.1203988E+03  0.7546771E-02  0.1242441E+00
         21   -1    0    0  504  501  0.00000000000E+00  0.00000000000E+00  0.11118081912E+03  0.11118081912E+03  0.00000000000E+00 0.  1.
         21   -1    0    0  503  502 -0.00000000000E+00 -0.00000000000E+00 -0.13413225761E+03  0.13413225761E+03  0.00000000000E+00 0.  1.
         21    1    1    2  503  501 -0.67984957608E+02 -0.99367630894E+02 -0.31987584860E+02  0.12457562408E+03  0.00000000000E+00 0.  1.
         21    1    1    2  504  502  0.67984957608E+02  0.99367630894E+02  0.90361463695E+01  0.12073745265E+03  0.00000000000E+00 0.  1.
<mgrwt>
<rscale>  2 0.12039884E+03</rscale>
<asrwt>0</asrwt>
<pdfrwt beam="1">  1       21 0.17104741E-01 0.12039884E+03</pdfrwt>
<pdfrwt beam="2">  1       21 0.20635732E-01 0.12039884E+03</pdfrwt>
<totfact> 0.67484509E+05</totfact>
</mgrwt>
</event>
<event>
 4    1  0.6158309E+003  0.1561263E+03  0.7546771E-02  0.1193141E+00
         21   -1    0    0  502  501  0.00000000000E+00  0.00000000000E+00  0.17025796916E+03  0.17025796916E+03  0.00000000000E+00 0.  1.
         21   -1    0    0  504  502 -0.00000000000E+00 -0.00000000000E+00 -0.47547170504E+03  0.47547170504E+03  0.00000000000E+00 0.  1.
         21    1    1    2  503  501 -0.65579783425E+02  0.14168526362E+03  0.11730766856E+03  0.19528571638E+03  0.00000000000E+00 0.  1.
         21    1    1    2  504  503  0.65579783425E+02 -0.14168526362E+03 -0.42252140444E+03  0.45044395782E+03  0.00000000000E+00 0.  1.
<mgrwt>
<rscale>  2 0.15612630E+03</rscale>
<asrwt>0</asrwt>
<pdfrwt beam="1">  1       21 0.26193534E-01 0.15612630E+03</pdfrwt>
<pdfrwt beam="2">  1       21 0.73149492E-01 0.15612630E+03</pdfrwt>
<totfact> 0.23809008E+04</totfact>
</mgrwt>
</event>
<event>
 4    1  0.6158309E+003  0.2269272E+03  0.7546771E-02  0.1128821E+00
         21   -1    0    0  504  501  0.00000000000E+00  0.00000000000E+00  0.16875436311E+03  0.16875436311E+03  0.00000000000E+00 0.  1.
         21   -1    0    0  503  502 -0.00000000000E+00 -0.00000000000E+00 -0.35403629458E+03  0.35403629458E+03  0.00000000000E+00 0.  1.
         21    1    1    2  503  501  0.17159854304E+03 -0.14849199416E+03  0.44890182677E+01  0.22697154798E+03  0.00000000000E+00 0.  1.
         21    1    1    2  504  502 -0.17159854304E+03  0.14849199416E+03 -0.18977094974E+03  0.29581910972E+03  0.00000000000E+00 0.  1.
<mgrwt>
<rscale>  2 0.22692715E+03</rscale>
<asrwt>0</asrwt>
<pdfrwt beam="1">  1       21 0.25962210E-01 0.22692715E+03</pdfrwt>
<pdfrwt beam="2">  1       21 0.54467122E-01 0.22692715E+03</pdfrwt>
<totfact> 0.44130287E+04</totfact>
</mgrwt>
</event>
<event>
 4    1  0.6158309E+003  0.1058186E+03  0.7546771E-02  0.1268515E+00
         21   -1    0    0  504  501  0.00000000000E+00  0.00000000000E+00  0.11620484283E+04  0.11620484283E+04  0.00000000000E+00 0.  1.
         21   -1    0    0  503  502 -0.00000000000E+00 -0.00000000000E+00 -0.59910623447E+02  0.59910623447E+02  0.00000000000E+00 0.  1.
         21    1    1    2  503  501  0.57612565248E+02 -0.88760149455E+02 -0.86228135774E+01  0.10616932099E+03  0.00000000000E+00 0.  1.
         21    1    1    2  504  502 -0.57612565248E+02  0.88760149455E+02  0.11107606185E+04  0.11157897308E+04  0.00000000000E+00 0.  1.
<mgrwt>
<rscale>  2 0.10581858E+03</rscale>
<asrwt>0</asrwt>
<pdfrwt beam="1">  1       21 0.17877666E+00 0.10581858E+03</pdfrwt>
<pdfrwt beam="2">  1       21 0.92170199E-02 0.10581858E+03</pdfrwt>
<totfact> 0.18754967E+04</totfact>
</mgrwt>
</event>
<event>
 4    1  0.6158309E+003  0.1271438E+03  0.7546771E-02  0.1231756E+00
         21   -1    0    0  503  501  0.00000000000E+00  0.00000000000E+00  0.39639881977E+03  0.39639881977E+03  0.00000000000E+00 0.  1.
         21   -1    0    0  504  502 -0.00000000000E+00 -0.00000000000E+00 -0.55006370578E+03  0.55006370578E+03  0.00000000000E+00 0.  1.
         21    1    1    2  503  502  0.32333133080E+02 -0.12296388584E+03  0.37851865432E+03  0.39930179111E+03  0.00000000000E+00 0.  1.
         21    1    1    2  504  501 -0.32333133080E+02  0.12296388584E+03 -0.53218354033E+03  0.54716073444E+03  0.00000000000E+00 0.  1.
<mgrwt>
<rscale>  2 0.12714381E+03</rscale>
<asrwt>0</asrwt>
<pdfrwt beam="1">  1       21 0.60984434E-01 0.12714381E+03</pdfrwt>
<pdfrwt beam="2">  1       21 0.84625185E-01 0.12714381E+03</pdfrwt>
<totfact> 0.32279665E+03</totfact>
</mgrwt>
</event>
<event>
 4    1  0.6158309E+003  0.1081934E+03  0.7546771E-02  0.1263952E+00
         21   -1    0    0  504  501  0.00000000000E+00  0.00000000000E+00  0.37818504020E+03  0.37818504020E+03  0.00000000000E+00 0. -1.
         21   -1    0    0  503  502 -0.00000000000E+00 -0.00000000000E+00 -0.23833509953E+03  0.23833509953E+03  0.00000000000E+00 0.  1.
         21    1    1    2  503  501 -0.97647497281E+02  0.46591622381E+02  0.35747228391E+03  0.37348660855E+03  0.00000000000E+00 0. -1.
         21    1    1    2  504  502  0.97647497281E+02 -0.46591622381E+02 -0.21762234324E+03  0.24303353118E+03  0.00000000000E+00 0.  1.
<mgrwt>
<rscale>  2 0.10819341E+03</rscale>
<asrwt>0</asrwt>
<pdfrwt beam="1">  1       21 0.58182314E-01 0.10819341E+03</pdfrwt>
<pdfrwt beam="2">  1       21 0.36666938E-01 0.10819341E+03</pdfrwt>
<totfact> 0.21036896E+04</totfact>
</mgrwt>
</event>
<event>
 4    1  0.6158309E+003  0.1154225E+03  0.7546771E-02  0.1250845E+00
         21   -1    0    0  503  501  0.00000000000E+00  0.00000000000E+00  0.23542771741E+02  0.23542771741E+02  0.00000000000E+00 0. -1.
         21   -1    0    0  501  502 -0.00000000000E+00 -0.00000000000E+00 -0.95156754442E+03  0.95156754442E+03  0.00000000000E+00 0.  1.
         21    1    1    2  503  504  0.10702132956E+03 -0.43229439737E+02 -0.15361177321E+03  0.19214298402E+03  0.00000000000E+00 0. -1.
         21    1    1    2  504  502 -0.10702132956E+03  0.43229439737E+02 -0.77441299947E+03  0.78296733214E+03  0.00000000000E+00 0.  1.
<mgrwt>
<rscale>  2 0.11542248E+03</rscale>
<asrwt>0</asrwt>
<pdfrwt beam="1">  1       21 0.36219651E-02 0.11542248E+03</pdfrwt>
<pdfrwt beam="2">  1       21 0.14639500E+00 0.11542248E+03</pdfrwt>
<totfact> 0.15251351E+05</totfact>
</mgrwt>
</event>
<event>
 4    1  0.6158309E+003  0.1014688E+03  0.7546771E-02  0.1277237E+00
         21   -1    0    0  504  501  0.00000000000E+00  0.00000000000E+00  0.49025009229E+03  0.49025009229E+03  0.00000000000E+00 0.  1.
         21   -1    0    0  501  502 -0.00000000000E+00 -0.00000000000E+00 -0.15009714625E+03  0.15009714625E+03  0.00000000000E+00 0. -1.
         21    1    1    2  503  502  0.49843717210E+02  0.88382845708E+02 -0.12685439265E+03  0.16244371486E+03  0.00000000000E+00 0. -1.
         21    1    1    2  504  503 -0.49843717210E+02 -0.88382845708E+02  0.46700733869E+03  0.47790352368E+03  0.00000000000E+00 0.  1.
<mgrwt>
<rscale>  2 0.10146883E+03</rscale>
<asrwt>0</asrwt>
<pdfrwt beam="1">  1       21 0.75423091E-01 0.10146883E+03</pdfrwt>
<pdfrwt beam="2">  1       21 0.23091869E-01 0.10146883E+03</pdfrwt>
<totfact> 0.29339619E+04</totfact>
</mgrwt>
</event>
<event>
 4    1  0.6158309E+003  0.1080342E+03  0.7546771E-02  0.1264254E+00
         21   -1    0    0  502  501  0.00000000000E+00  0.00000000000E+00  0.17625135409E+03  0.17625135409E+03  0.00000000000E+00 0.  1.
         21   -1    0    0  503  502 -0.00000000000E+00 -0.00000000000E+00 -0.70993896696E+02  0.70993896696E+02  0.00000000000E+00 0.  1.
         21    1    1    2  503  504  0.10529024983E+03  0.24193881159E+02  0.20571951896E+02  0.10997538725E+03  0.00000000000E+00 0.  1.
         21    1    1    2  504  501 -0.10529024983E+03 -0.24193881159E+02  0.84685505496E+02  0.13726986354E+03  0.00000000000E+00 0.  1.
<mgrwt>
<rscale>  2 0.10803416E+03</rscale>
<asrwt>0</asrwt>
<pdfrwt beam="1">  1       21 0.27115593E-01 0.10803416E+03</pdfrwt>
<pdfrwt beam="2">  1       21 0.10922138E-01 0.10803416E+03</pdfrwt>
<totfact> 0.90030878E+05</totfact>
</mgrwt>
</event>
<event>
 4    1  0.6158309E+003  0.1720471E+03  0.7546771E-02  0.1175730E+00
         21   -1    0    0  502  501  0.00000000000E+00  0.00000000000E+00  0.82687642894E+02  0.82687642894E+02  0.00000000000E+00 0. -1.
         21   -1    0    0  503  502 -0.00000000000E+00 -0.00000000000E+00 -0.39614077254E+03  0.39614077254E+03  0.00000000000E+00 0. -1.
         21    1    1    2  503  504  0.75406842753E+02  0.15464152982E+03 -0.23103810770E+03  0.28806041361E+03  0.00000000000E+00 0. -1.
         21    1    1    2  504  501 -0.75406842753E+02 -0.15464152982E+03 -0.82415021952E+02  0.19076800183E+03  0.00000000000E+00 0. -1.
<mgrwt>
<rscale>  2 0.17204707E+03</rscale>
<asrwt>0</asrwt>
<pdfrwt beam="1">  1       21 0.12721176E-01 0.17204707E+03</pdfrwt>
<pdfrwt beam="2">  1       21 0.60944733E-01 0.17204707E+03</pdfrwt>
<totfact> 0.13338906E+05</totfact>
</mgrwt>
</event>
<event>
 4    1  0.6158309E+003  0.1674121E+03  0.7546771E-02  0.1180574E+00
         21   -1    0    0  504  501  0.00000000000E+00  0.00000000000E+00  0.15103677591E+03  0.15103677591E+03  0.00000000000E+00 0. -1.
         21   -1    0    0  503  502 -0.00000000000E+00 -0.00000000000E+00 -0.29994071556E+04  0.29994071556E+04  0.00000000000E+00 0. -1.
         21    1    1    2  503  501  0.12127477227E+03 -0.11540903182E+03  0.10153213993E+03  0.19579476616E+03  0.00000000000E+00 0. -1.
         21    1    1    2  504  502 -0.12127477227E+03  0.11540903182E+03 -0.29499025196E+04  0.29546491653E+04  0.00000000000E+00 0. -1.
<mgrwt>
<rscale>  2 0.16741211E+03</rscale>
<asrwt>0</asrwt>
<pdfrwt beam="1">  1       21 0.23236428E-01 0.16741211E+03</pdfrwt>
<pdfrwt beam="2">  1       21 0.46144724E+00 0.16741211E+03</pdfrwt>
<totfact> 0.64038274E+01</totfact>
</mgrwt>
</event>
<event>
 4    1  0.6158309E+003  0.1941794E+03  0.7546771E-02  0.1154745E+00
         21   -1    0    0  504  501  0.00000000000E+00  0.00000000000E+00  0.43351210763E+02  0.43351210763E+02  0.00000000000E+00 0.  1.
         21   -1    0    0  503  502 -0.00000000000E+00 -0.00000000000E+00 -0.99515852334E+03  0.99515852334E+03  0.00000000000E+00 0.  1.
         21    1    1    2  503  501  0.11438188218E+03 -0.15691536542E+03 -0.66021869337E+03  0.68818193085E+03  0.00000000000E+00 0.  1.
         21    1    1    2  504  502 -0.11438188218E+03  0.15691536542E+03 -0.29158861921E+03  0.35032780325E+03  0.00000000000E+00 0.  1.
<mgrwt>
<rscale>  2 0.19417942E+03</rscale>
<asrwt>0</asrwt>
<pdfrwt beam="1">  1       21 0.66694180E-02 0.19417942E+03</pdfrwt>
<pdfrwt beam="2">  1       21 0.15310129E+00 0.19417942E+03</pdfrwt>
<totfact> 0.46524004E+04</totfact>
</mgrwt>
</event>
<event>
 4    1  0.6158309E+003  0.1310908E+03  0.7546771E-02  0.1225846E+00
         21   -1    0    0  503  501  0.00000000000E+00  0.00000000000E+00  0.16222193800E+04  0.16222193800E+04  0.00000000000E+00 0.  1.
         21   -1    0    0  504  502 -0.00000000000E+00 -0.00000000000E+00 -0.11492308064E+02  0.11492308064E+02  0.00000000000E+00 0.  1.
         21    1    1    2  503  502  0.34518031588E+02 -0.12646458138E+03  0.57690652954E+03  0.59161298893E+03  0.00000000000E+00 0.  1.
         21    1    1    2  504  501 -0.34518031588E+02  0.12646458138E+03  0.10338205424E+04  0.10420986991E+04  0.00000000000E+00 0.  1.
<mgrwt>
<rscale>  2 0.13109075E+03</rscale>
<asrwt>0</asrwt>
<pdfrwt beam="1">  1       21 0.24957203E+00 0.13109075E+03</pdfrwt>
<pdfrwt beam="2">  1       21 0.17680487E-02 0.13109075E+03</pdfrwt>
<totfact> 0.10535600E+05</totfact>
</mgrwt>
</event>
<event>
 4    1  0.6158309E+003  0.1144392E+03  0.7546771E-02  0.1252563E+00
         21   -1    0    0  504  501  0.00000000000E+00  0.00000000000E+00  0.72619327246E+02  0.72619327246E+02  0.00000000000E+00 0. -1.
         21   -1    0    0  503  502 -0.00000000000E+00 -0.00000000000E+00 -0.18389338618E+03  0.18389338618E+03  0.00000000000E+00 0. -1.
         21    1    1    2  503  501  0.56262779628E+01  0.11430084279E+03 -0.73459810381E+02  0.13598779874E+03  0.00000000000E+00 0. -1.
         21    1    1    2  504  502 -0.56262779628E+01 -0.11430084279E+03 -0.37814248557E+02  0.12052491469E+03  0.00000000000E+00 0. -1.
<mgrwt>
<rscale>  2 0.11443923E+03</rscale>
<asrwt>0</asrwt>
<pdfrwt beam="1">  1       21 0.11172204E-01 0.11443923E+03</pdfrwt>
<pdfrwt beam="2">  1       21 0.28291290E-01 0.11443923E+03</pdfrwt>
<totfact> 0.79841641E+05</totfact>
</mgrwt>
</event>
<event>
 4    1  0.6158309E+003  0.1091020E+03  0.7546771E-02  0.1262242E+00
         21   -1    0    0  504  501  0.00000000000E+00  0.00000000000E+00  0.12481990406E+03  0.12481990406E+03  0.00000000000E+00 0. -1.
         21   -1    0    0  503  502 -0.00000000000E+00 -0.00000000000E+00 -0.10615577935E+03  0.10615577935E+03  0.00000000000E+00 0.  1.
         21    1    1    2  503  501  0.10366704096E+03 -0.34005592376E+02  0.46155592587E+02  0.11846338853E+03  0.00000000000E+00 0. -1.
         21    1    1    2  504  502 -0.10366704096E+03  0.34005592376E+02 -0.27491467877E+02  0.11251229489E+03  0.00000000000E+00 0.  1.
<mgrwt>
<rscale>  2 0.10910195E+03</rscale>
<asrwt>0</asrwt>
<pdfrwt beam="1">  1       21 0.19203062E-01 0.10910195E+03</pdfrwt>
<pdfrwt beam="2">  1       21 0.16331658E-01 0.10910195E+03</pdfrwt>
<totfact> 0.83763209E+05</totfact>
</mgrwt>
</event>
<event>
 4    1  0.6158309E+003  0.1263041E+03  0.7546771E-02  0.1233045E+00
         21   -1    0    0  504  501  0.00000000000E+00  0.00000000000E+00  0.10637127896E+03  0.10637127896E+03  0.00000000000E+00 0.  1.
         21   -1    0    0  503  502 -0.00000000000E+00 -0.00000000000E+00 -0.24100338499E+03  0.24100338499E+03  0.00000000000E+00 0.  1.
         21    1    1    2  503  501  0.90487837294E+02 -0.88117447692E+02  0.39429969839E+02  0.13231574286E+03  0.00000000000E+00 0.  1.
         21    1    1    2  504  502 -0.90487837294E+02  0.88117447692E+02 -0.17406207587E+03  0.21505892109E+03  0.00000000000E+00 0.  1.
<mgrwt>
<rscale>  2 0.12630413E+03</rscale>
<asrwt>0</asrwt>
<pdfrwt beam="1">  1       21 0.16364812E-01 0.12630413E+03</pdfrwt>
<pdfrwt beam="2">  1       21 0.37077444E-01 0.12630413E+03</pdfrwt>
<totfact> 0.23857206E+05</totfact>
</mgrwt>
</event>
<event>
 4    1  0.6158309E+003  0.1426137E+03  0.7546771E-02  0.1209855E+00
         21   -1    0    0  503  501  0.00000000000E+00  0.00000000000E+00  0.16053943126E+03  0.16053943126E+03  0.00000000000E+00 0. -1.
         21   -1    0    0  501  502 -0.00000000000E+00 -0.00000000000E+00 -0.33805852319E+03  0.33805852319E+03  0.00000000000E+00 0. -1.
         21    1    1    2  503  504 -0.51981942623E+02  0.13280261203E+03  0.10836706187E+03  0.17911470129E+03  0.00000000000E+00 0. -1.
         21    1    1    2  504  502  0.51981942623E+02 -0.13280261203E+03 -0.28588615380E+03  0.31948325317E+03  0.00000000000E+00 0. -1.
<mgrwt>
<rscale>  2 0.14261366E+03</rscale>
<asrwt>0</asrwt>
<pdfrwt beam="1">  1       21 0.24698374E-01 0.14261366E+03</pdfrwt>
<pdfrwt beam="2">  1       21 0.52009003E-01 0.14261366E+03</pdfrwt>
<totfact> 0.55706150E+04</totfact>
</mgrwt>
</event>
<event>
 4    1  0.6158309E+003  0.1519742E+03  0.7546771E-02  0.1198068E+00
         21   -1    0    0  504  501  0.00000000000E+00  0.00000000000E+00  0.51627950383E+03  0.51627950383E+03  0.00000000000E+00 0.  1.
         21   -1    0    0  503  502 -0.00000000000E+00 -0.00000000000E+00 -0.46317778618E+02  0.46317778618E+02  0.00000000000E+00 0.  1.
         21    1    1    2  503  501  0.14641381290E+03  0.40732660324E+02  0.28696849435E+03  0.32472614766E+03  0.00000000000E+00 0.  1.
         21    1    1    2  504  502 -0.14641381290E+03 -0.40732660324E+02  0.18299323086E+03  0.23787113479E+03  0.00000000000E+00 0.  1.
<mgrwt>
<rscale>  2 0.15197419E+03</rscale>
<asrwt>0</asrwt>
<pdfrwt beam="1">  1       21 0.79427612E-01 0.15197419E+03</pdfrwt>
<pdfrwt beam="2">  1       21 0.71258125E-02 0.15197419E+03</pdfrwt>
<totfact> 0.20757793E+05</totfact>
</mgrwt>
</event>
<event>
 4    1  0.6158309E+003  0.1434051E+03  0.7546771E-02  0.1208819E+00
         21   -1    0    0  504  501  0.00000000000E+00  0.00000000000E+00  0.13803286872E+04  0.13803286872E+04  0.00000000000E+00 0.  1.
         21   -1    0    0  503  502 -0.00000000000E+00 -0.00000000000E+00 -0.38137073766E+02  0.38137073766E+02  0.00000000000E+00 0.  1.
         21    1    1    2  503  501 -0.61837109300E+02 -0.12938773911E+03  0.11746705102E+03  0.18537400895E+03  0.00000000000E+00 0.  1.
         21    1    1    2  504  502  0.61837109300E+02  0.12938773911E+03  0.12247245624E+04  0.12330917520E+04  0.00000000000E+00 0.  1.
<mgrwt>
<rscale>  2 0.14340507E+03</rscale>
<asrwt>0</asrwt>
<pdfrwt beam="1">  1       21 0.21235822E+00 0.14340507E+03</pdfrwt>
<pdfrwt beam="2">  1       21 0.58672432E-02 0.14340507E+03</pdfrwt>
<totfact> 0.23942074E+04</totfact>
</mgrwt>
</event>
<event>
 4    1  0.6158309E+003  0.1229426E+03  0.7546771E-02  0.1238320E+00
         21   -1    0    0  502  501  0.00000000000E+00  0.00000000000E+00  0.16746136159E+03  0.16746136159E+03  0.00000000000E+00 0.  1.
         21   -1    0    0  503  502 -0.00000000000E+00 -0.00000000000E+00 -0.19767314045E+03  0.19767314045E+03  0.00000000000E+00 0.  1.
         21    1    1    2  503  504  0.11082287850E+03  0.53227662993E+02 -0.14968565902E+03  0.19370258394E+03  0.00000000000E+00 0.  1.
         21    1    1    2  504  501 -0.11082287850E+03 -0.53227662993E+02  0.11947388016E+03  0.17143191811E+03  0.00000000000E+00 0.  1.
<mgrwt>
<rscale>  2 0.12294265E+03</rscale>
<asrwt>0</asrwt>
<pdfrwt beam="1">  1       21 0.25763286E-01 0.12294265E+03</pdfrwt>
<pdfrwt beam="2">  1       21 0.30411252E-01 0.12294265E+03</pdfrwt>
<totfact> 0.15171858E+05</totfact>
</mgrwt>
</event>
<event>
 4    1  0.6158309E+003  0.1084852E+03  0.7546771E-02  0.1263401E+00
         21   -1    0    0  503  501  0.00000000000E+00  0.00000000000E+00  0.62111846538E+01  0.62111846538E+01  0.00000000000E+00 0. -1.
         21   -1    0    0  504  502 -0.00000000000E+00 -0.00000000000E+00 -0.24585153570E+04  0.24585153570E+04  0.00000000000E+00 0. -1.
         21    1    1    2  503  502  0.89982984264E+02 -0.60597934553E+02 -0.63605107469E+03  0.64523640377E+03  0.00000000000E+00 0. -1.
         21    1    1    2  504  501 -0.89982984264E+02  0.60597934553E+02 -0.18162530976E+04  0.18194901379E+04  0.00000000000E+00 0. -1.
<mgrwt>
<rscale>  2 0.10848524E+03</rscale>
<asrwt>0</asrwt>
<pdfrwt beam="1">  1       21 0.95556802E-03 0.10848524E+03</pdfrwt>
<pdfrwt beam="2">  1       21 0.37823268E+00 0.10848524E+03</pdfrwt>
<totfact> 0.53580361E+04</totfact>
</mgrwt>
</event>
<event>
 4    1  0.6158309E+003  0.1032960E+03  0.7546771E-02  0.1273514E+00
         21   -1    0    0  504  501  0.00000000000E+00  0.00000000000E+00  0.83277609090E+02  0.83277609090E+02  0.00000000000E+00 0. -1.
         21   -1    0    0  503  502 -0.00000000000E+00 -0.00000000000E+00 -0.13786666562E+03  0.13786666562E+03  0.00000000000E+00 0. -1.
         21    1    1    2  503  501  0.98185560285E+02 -0.32088210882E+02 -0.56684705081E+02  0.11782704832E+03  0.00000000000E+00 0. -1.
         21    1    1    2  504  502 -0.98185560285E+02  0.32088210882E+02  0.20956485479E+01  0.10331722639E+03  0.00000000000E+00 0. -1.
<mgrwt>
<rscale>  2 0.10329597E+03</rscale>
<asrwt>0</asrwt>
<pdfrwt beam="1">  1       21 0.12811940E-01 0.10329597E+03</pdfrwt>
<pdfrwt beam="2">  1       21 0.21210256E-01 0.10329597E+03</pdfrwt>
<totfact> 0.10758481E+06</totfact>
</mgrwt>
</event>
<event>
 4    1  0.6158309E+003  0.1227951E+03  0.7546771E-02  0.1238556E+00
         21   -1    0    0  504  501  0.00000000000E+00  0.00000000000E+00  0.84278597537E+02  0.84278597537E+02  0.00000000000E+00 0. -1.
         21   -1    0    0  503  502 -0.00000000000E+00 -0.00000000000E+00 -0.21290058056E+03  0.21290058056E+03  0.00000000000E+00 0. -1.
         21    1    1    2  503  501 -0.10593241032E+03 -0.62104477826E+02 -0.49430318273E+01  0.12289456980E+03  0.00000000000E+00 0. -1.
         21    1    1    2  504  502  0.10593241032E+03  0.62104477826E+02 -0.12367895120E+03  0.17428460830E+03  0.00000000000E+00 0. -1.
<mgrwt>
<rscale>  2 0.12279512E+03</rscale>
<asrwt>0</asrwt>
<pdfrwt beam="1">  1       21 0.12965938E-01 0.12279512E+03</pdfrwt>
<pdfrwt beam="2">  1       21 0.32753935E-01 0.12279512E+03</pdfrwt>
<totfact> 0.46256379E+05</totfact>
</mgrwt>
</event>
<event>
 4    1  0.6158309E+003  0.1421373E+03  0.7546771E-02  0.1210482E+00
         21   -1    0    0  504  501  0.00000000000E+00  0.00000000000E+00  0.19562727687E+02  0.19562727687E+02  0.00000000000E+00 0.  1.
         21   -1    0    0  503  502 -0.00000000000E+00 -0.00000000000E+00 -0.10755481142E+04  0.10755481142E+04  0.00000000000E+00 0.  1.
         21    1    1    2  503  501 -0.11435328763E+03  0.84417649306E+02 -0.63724419385E+03  0.65290365024E+03  0.00000000000E+00 0.  1.
         21    1    1    2  504  502  0.11435328763E+03 -0.84417649306E+02 -0.41874119267E+03  0.44220719165E+03  0.00000000000E+00 0.  1.
<mgrwt>
<rscale>  2 0.14213731E+03</rscale>
<asrwt>0</asrwt>
<pdfrwt beam="1">  1       21 0.30096498E-02 0.14213731E+03</pdfrwt>
<pdfrwt beam="2">  1       21 0.16546898E+00 0.14213731E+03</pdfrwt>
<totfact> 0.14809340E+05</totfact>
</mgrwt>
</event>
<event>
 4    1  0.6158309E+003  0.1106408E+03  0.7546771E-02  0.1259388E+00
         21   -1    0    0  504  501  0.00000000000E+00  0.00000000000E+00  0.20018701373E+03  0.20018701373E+03  0.00000000000E+00 0. -1.
         21   -1    0    0  501  502 -0.00000000000E+00 -0.00000000000E+00 -0.11643083619E+03  0.11643083619E+03  0.00000000000E+00 0.  1.
         21    1    1    2  503  502  0.13809617240E+02 -0.10977554551E+03 -0.67205613670E+02  0.12945257985E+03  0.00000000000E+00 0.  1.
         21    1    1    2  504  503 -0.13809617240E+02  0.10977554551E+03  0.15096179121E+03  0.18716527008E+03  0.00000000000E+00 0. -1.
<mgrwt>
<rscale>  2 0.11064075E+03</rscale>
<asrwt>0</asrwt>
<pdfrwt beam="1">  1       21 0.30798002E-01 0.11064075E+03</pdfrwt>
<pdfrwt beam="2">  1       21 0.17912436E-01 0.11064075E+03</pdfrwt>
<totfact> 0.29174039E+05</totfact>
</mgrwt>
</event>
<event>
 4    1  0.6158309E+003  0.1130045E+03  0.7546771E-02  0.1255105E+00
         21   -1    0    0  502  501  0.00000000000E+00  0.00000000000E+00  0.13266811537E+03  0.13266811537E+03  0.00000000000E+00 0.  1.
         21   -1    0    0  504  502 -0.00000000000E+00 -0.00000000000E+00 -0.30800924184E+03  0.30800924184E+03  0.00000000000E+00 0.  1.
         21    1    1    2  503  501  0.70278712156E+02 -0.88492443438E+02  0.95023575018E+02  0.14764650262E+03  0.00000000000E+00 0.  1.
         21    1    1    2  504  503 -0.70278712156E+02  0.88492443438E+02 -0.27036470149E+03  0.29303085459E+03  0.00000000000E+00 0.  1.
<mgrwt>
<rscale>  2 0.11300447E+03</rscale>
<asrwt>0</asrwt>
<pdfrwt beam="1">  1       21 0.20410480E-01 0.11300447E+03</pdfrwt>
<pdfrwt beam="2">  1       21 0.47386036E-01 0.11300447E+03</pdfrwt>
<totfact> 0.97747170E+04</totfact>
</mgrwt>
</event>
<event>
 4    1  0.6158309E+003  0.1039116E+03  0.7546771E-02  0.1272279E+00
         21   -1    0    0  503  501  0.00000000000E+00  0.00000000000E+00  0.23036972867E+02  0.23036972867E+02  0.00000000000E+00 0. -1.
         21   -1    0    0  504  502 -0.00000000000E+00 -0.00000000000E+00 -0.57986924709E+03  0.57986924709E+03  0.00000000000E+00 0. -1.
         21    1    1    2  503  502 -0.10301688516E+03 -0.13606854031E+02 -0.41040292191E+03  0.42335349700E+03  0.00000000000E+00 0. -1.
         21    1    1    2  504  501  0.10301688516E+03  0.13606854031E+02 -0.14642935231E+03  0.17955272296E+03  0.00000000000E+00 0. -1.
<mgrwt>
<rscale>  2 0.10391162E+03</rscale>
<asrwt>0</asrwt>
<pdfrwt beam="1">  1       21 0.35441498E-02 0.10391162E+03</pdfrwt>
<pdfrwt beam="2">  1       21 0.89210650E-01 0.10391162E+03</pdfrwt>
<totfact> 0.52138881E+05</totfact>
</mgrwt>
</event>
<event>
 4    1  0.6158309E+003  0.1008645E+03  0.7546771E-02  0.1278488E+00
         21   -1    0    0  503  501  0.00000000000E+00  0.00000000000E+00  0.70756921322E+03  0.70756921322E+03  0.00000000000E+00 0. -1.
         21   -1    0    0  504  502 -0.00000000000E+00 -0.00000000000E+00 -0.15718252190E+02  0.15718252190E+02  0.00000000000E+00 0. -1.
         21    1    1    2  503  502  0.32773872640E+02  0.95391446109E+02  0.45151496055E+03  0.46264393902E+03  0.00000000000E+00 0. -1.
         21    1    1    2  504  501 -0.32773872640E+02 -0.95391446109E+02  0.24033600048E+03  0.26064352639E+03  0.00000000000E+00 0. -1.
<mgrwt>
<rscale>  2 0.10086454E+03</rscale>
<asrwt>0</asrwt>
<pdfrwt beam="1">  1       21 0.10885678E+00 0.10086454E+03</pdfrwt>
<pdfrwt beam="2">  1       21 0.24181932E-02 0.10086454E+03</pdfrwt>
<totfact> 0.61315861E+05</totfact>
</mgrwt>
</event>
<event>
 4    1  0.6158309E+003  0.1099095E+03  0.7546771E-02  0.1260738E+00
         21   -1    0    0  504  501  0.00000000000E+00  0.00000000000E+00  0.96254739126E+01  0.96254739126E+01  0.00000000000E+00 0.  1.
         21   -1    0    0  503  502 -0.00000000000E+00 -0.00000000000E+00 -0.12660203114E+04  0.12660203114E+04  0.00000000000E+00 0. -1.
         21    1    1    2  503  501  0.29329281785E+02  0.10592400768E+03 -0.68766844982E+03  0.69639643814E+03  0.00000000000E+00 0. -1.
         21    1    1    2  504  502 -0.29329281785E+02 -0.10592400768E+03 -0.56872638769E+03  0.57924934720E+03  0.00000000000E+00 0.  1.
<mgrwt>
<rscale>  2 0.10990952E+03</rscale>
<asrwt>0</asrwt>
<pdfrwt beam="1">  1       21 0.14808420E-02 0.10990952E+03</pdfrwt>
<pdfrwt beam="2">  1       21 0.19477237E+00 0.10990952E+03</pdfrwt>
<totfact> 0.30196552E+05</totfact>
</mgrwt>
</event>
<event>
 4    1  0.6158309E+003  0.1335237E+03  0.7546771E-02  0.1222319E+00
         21   -1    0    0  504  501  0.00000000000E+00  0.00000000000E+00  0.71553988013E+02  0.71553988013E+02  0.00000000000E+00 0.  1.
         21   -1    0    0  501  502 -0.00000000000E+00 -0.00000000000E+00 -0.41481663588E+03  0.41481663588E+03  0.00000000000E+00 0.  1.
         21    1    1    2  503  502 -0.20667396955E+02  0.13191452494E+03 -0.32530878188E+03  0.35164525698E+03  0.00000000000E+00 0.  1.
         21    1    1    2  504  503  0.20667396955E+02 -0.13191452494E+03 -0.17953865989E+02  0.13472536692E+03  0.00000000000E+00 0.  1.
<mgrwt>
<rscale>  2 0.13352372E+03</rscale>
<asrwt>0</asrwt>
<pdfrwt beam="1">  1       21 0.11008306E-01 0.13352372E+03</pdfrwt>
<pdfrwt beam="2">  1       21 0.63817945E-01 0.13352372E+03</pdfrwt>
<totfact> 0.15823755E+05</totfact>
</mgrwt>
</event>
<event>
 4    1  0.6158309E+003  0.1149039E+03  0.7546771E-02  0.1251749E+00
         21   -1    0    0  503  501  0.00000000000E+00  0.00000000000E+00  0.13397903498E+03  0.13397903498E+03  0.00000000000E+00 0.  1.
         21   -1    0    0  501  502 -0.00000000000E+00 -0.00000000000E+00 -0.19998988200E+03  0.19998988200E+03  0.00000000000E+00 0.  1.
         21    1    1    2  503  504 -0.46238529038E+02 -0.10518984977E+03  0.85923650330E+02  0.14347745380E+03  0.00000000000E+00 0.  1.
         21    1    1    2  504  502  0.46238529038E+02  0.10518984977E+03 -0.15193449735E+03  0.19049146319E+03  0.00000000000E+00 0.  1.
<mgrwt>
<rscale>  2 0.11490390E+03</rscale>
<asrwt>0</asrwt>
<pdfrwt beam="1">  1       21 0.20612159E-01 0.11490390E+03</pdfrwt>
<pdfrwt beam="2">  1       21 0.30767674E-01 0.11490390E+03</pdfrwt>
<totfact> 0.22568183E+05</totfact>
</mgrwt>
</event>
<event>
 4    1  0.6158309E+003  0.1327454E+03  0.7546771E-02  0.1223438E+00
         21   -1    0    0  503  501  0.00000000000E+00  0.00000000000E+00  0.32545914602E+03  0.32545914602E+03  0.00000000000E+00 0.  1.
         21   -1    0    0  504  502 -0.00000000000E+00 -0.00000000000E+00 -0.59903510048E+02  0.59903510048E+02  0.00000000000E+00 0. -1.
         21    1    1    2  503  502 -0.90260268094E+02  0.97336596717E+02  0.73026897476E+02  0.15150662300E+03  0.00000000000E+00 0. -1.
         21    1    1    2  504  501  0.90260268094E+02 -0.97336596717E+02  0.19252873849E+03  0.23385603307E+03  0.00000000000E+00 0.  1.
<mgrwt>
<rscale>  2 0.13274535E+03</rscale>
<asrwt>0</asrwt>
<pdfrwt beam="1">  1       21 0.50070637E-01 0.13274535E+03</pdfrwt>
<pdfrwt beam="2">  1       21 0.92159249E-02 0.13274535E+03</pdfrwt>
<totfact> 0.36008101E+05</totfact>
</mgrwt>
</event>
<event>
 4    1  0.6158309E+003  0.1141644E+03  0.7546771E-02  0.1253047E+00
         21   -1    0    0  502  501  0.00000000000E+00  0.00000000000E+00  0.56183481215E+01  0.56183481215E+01  0.00000000000E+00 0. -1.
         21   -1    0    0  503  502 -0.00000000000E+00 -0.00000000000E+00 -0.23245283538E+04  0.23245283538E+04  0.00000000000E+00 0. -1.
         21    1    1    2  503  504 -0.31592876169E+02 -0.10970593391E+03 -0.12119439616E+04  0.12173091916E+04  0.00000000000E+00 0. -1.
         21    1    1    2  504  501  0.31592876169E+02  0.10970593391E+03 -0.11069660440E+04  0.11128375103E+04  0.00000000000E+00 0. -1.
<mgrwt>
<rscale>  2 0.11416436E+03</rscale>
<asrwt>0</asrwt>
<pdfrwt beam="1">  1       21 0.86436238E-03 0.11416436E+03</pdfrwt>
<pdfrwt beam="2">  1       21 0.35761928E+00 0.11416436E+03</pdfrwt>
<totfact> 0.81904434E+04</totfact>
</mgrwt>
</event>
<event>
 4    1  0.6158309E+003  0.1046299E+03  0.7546771E-02  0.1270850E+00
         21   -1    0    0  503  501  0.00000000000E+00  0.00000000000E+00  0.22943715279E+03  0.22943715279E+03  0.00000000000E+00 0.  1.
         21   -1    0    0  504  502 -0.00000000000E+00 -0.00000000000E+00 -0.21621495699E+03  0.21621495699E+03  0.00000000000E+00 0.  1.
         21    1    1    2  503  502 -0.78706862283E+02 -0.68939473378E+02 -0.19009778450E+03  0.21698983578E+03  0.00000000000E+00 0.  1.
         21    1    1    2  504  501  0.78706862283E+02  0.68939473378E+02  0.20331998030E+03  0.22866227400E+03  0.00000000000E+00 0.  1.
<mgrwt>
<rscale>  2 0.10462992E+03</rscale>
<asrwt>0</asrwt>
<pdfrwt beam="1">  1       21 0.35298024E-01 0.10462992E+03</pdfrwt>
<pdfrwt beam="2">  1       21 0.33263839E-01 0.10462992E+03</pdfrwt>
<totfact> 0.70169525E+04</totfact>
</mgrwt>
</event>
<event>
 4    1  0.6158309E+003  0.1293582E+03  0.7546771E-02  0.1228411E+00
         21   -1    0    0  504  501  0.00000000000E+00  0.00000000000E+00  0.39562110906E+02  0.39562110906E+02  0.00000000000E+00 0. -1.
         21   -1    0    0  501  502 -0.00000000000E+00 -0.00000000000E+00 -0.57222610884E+03  0.57222610884E+03  0.00000000000E+00 0. -1.
         21    1    1    2  503  502  0.83963214134E+02 -0.98405965123E+02 -0.42255841445E+03  0.44191534135E+03  0.00000000000E+00 0. -1.
         21    1    1    2  504  503 -0.83963214134E+02  0.98405965123E+02 -0.11010558348E+03  0.16987287839E+03  0.00000000000E+00 0. -1.
<mgrwt>
<rscale>  2 0.12935824E+03</rscale>
<asrwt>0</asrwt>
<pdfrwt beam="1">  1       21 0.60864787E-02 0.12935824E+03</pdfrwt>
<pdfrwt beam="2">  1       21 0.88034785E-01 0.12935824E+03</pdfrwt>
<totfact> 0.21672726E+05</totfact>
</mgrwt>
</event>
<event>
 4    1  0.6158309E+003  0.1171466E+03  0.7546771E-02  0.1247880E+00
         21   -1    0    0  503  501  0.00000000000E+00  0.00000000000E+00  0.19777869626E+03  0.19777869626E+03  0.00000000000E+00 0. -1.
         21   -1    0    0  501  502 -0.00000000000E+00 -0.00000000000E+00 -0.22220349264E+03  0.22220349264E+03  0.00000000000E+00 0. -1.
         21    1    1    2  503  504 -0.34849007156E+01 -0.11709478295E+03  0.16193223812E+03  0.19986340953E+03  0.00000000000E+00 0. -1.
         21    1    1    2  504  502  0.34849007156E+01  0.11709478295E+03 -0.18635703449E+03  0.22011877937E+03  0.00000000000E+00 0. -1.
<mgrwt>
<rscale>  2 0.11714663E+03</rscale>
<asrwt>0</asrwt>
<pdfrwt beam="1">  1       21 0.30427492E-01 0.11714663E+03</pdfrwt>
<pdfrwt beam="2">  1       21 0.34185153E-01 0.11714663E+03</pdfrwt>
<totfact> 0.88183596E+04</totfact>
</mgrwt>
</event>
<event>
 4    1  0.6158309E+003  0.1059248E+03  0.7546771E-02  0.1268308E+00
         21   -1    0    0  502  501  0.00000000000E+00  0.00000000000E+00  0.22288162642E+03  0.22288162642E+03  0.00000000000E+00 0. -1.
         21   -1    0    0  503  502 -0.00000000000E+00 -0.00000000000E+00 -0.13139210020E+03  0.13139210020E+03  0.00000000000E+00 0. -1.
         21    1    1    2  503  504  0.23248825026E+02  0.10334192549E+03 -0.93379875982E+02  0.14120857859E+03  0.00000000000E+00 0. -1.
         21    1    1    2  504  501 -0.23248825026E+02 -0.10334192549E+03  0.18486940220E+03  0.21306514802E+03  0.00000000000E+00 0. -1.
<mgrwt>
<rscale>  2 0.10592479E+03</rscale>
<asrwt>0</asrwt>
<pdfrwt beam="1">  1       21 0.34289481E-01 0.10592479E+03</pdfrwt>
<pdfrwt beam="2">  1       21 0.20214169E-01 0.10592479E+03</pdfrwt>
<totfact> 0.19008582E+05</totfact>
</mgrwt>
</event>
<event>
 4    1  0.6158309E+003  0.1172034E+03  0.7546771E-02  0.1247783E+00
         21   -1    0    0  504  501  0.00000000000E+00  0.00000000000E+00  0.24304894210E+03  0.24304894210E+03  0.00000000000E+00 0. -1.
         21   -1    0    0  503  502 -0.00000000000E+00 -0.00000000000E+00 -0.16469362982E+03  0.16469362982E+03  0.00000000000E+00 0.  1.
         21    1    1    2  503  501 -0.37094499306E+02 -0.11117835947E+03  0.20440520703E+03  0.23562283029E+03  0.00000000000E+00 0. -1.
         21    1    1    2  504  502  0.37094499306E+02  0.11117835947E+03 -0.12604989475E+03  0.17211974163E+03  0.00000000000E+00 0.  1.
<mgrwt>
<rscale>  2 0.11720337E+03</rscale>
<asrwt>0</asrwt>
<pdfrwt beam="1">  1       21 0.37392145E-01 0.11720337E+03</pdfrwt>
<pdfrwt beam="2">  1       21 0.25337482E-01 0.11720337E+03</pdfrwt>
<totfact> 0.10483018E+05</totfact>
</mgrwt>
</event>
<event>
 4    1  0.6158309E+003  0.1074637E+03  0.7546771E-02  0.1265340E+00
         21   -1    0    0  502  501  0.00000000000E+00  0.00000000000E+00  0.22362790209E+03  0.22362790209E+03  0.00000000000E+00 0. -1.
         21   -1    0    0  503  502 -0.00000000000E+00 -0.00000000000E+00 -0.18329159027E+03  0.18329159027E+03  0.00000000000E+00 0. -1.
         21    1    1    2  503  504  0.36470668652E+02  0.10108578455E+03 -0.15226392369E+03  0.18636723952E+03  0.00000000000E+00 0. -1.
         21    1    1    2  504  501 -0.36470668652E+02 -0.10108578455E+03  0.19260023551E+03  0.22055225283E+03  0.00000000000E+00 0. -1.
<mgrwt>
<rscale>  2 0.10746369E+03</rscale>
<asrwt>0</asrwt>
<pdfrwt beam="1">  1       21 0.34404293E-01 0.10746369E+03</pdfrwt>
<pdfrwt beam="2">  1       21 0.28198706E-01 0.10746369E+03</pdfrwt>
<totfact> 0.10121617E+05</totfact>
</mgrwt>
</event>
<event>
 4    1  0.6158309E+003  0.1081293E+03  0.7546771E-02  0.1264074E+00
         21   -1    0    0  504  501  0.00000000000E+00  0.00000000000E+00  0.38438822180E+02  0.38438822180E+02  0.00000000000E+00 0. -1.
         21   -1    0    0  503  502 -0.00000000000E+00 -0.00000000000E+00 -0.35543464272E+03  0.35543464272E+03  0.00000000000E+00 0. -1.
         21    1    1    2  503  501  0.54330569501E+02  0.93488715120E+02 -0.83706062126E+02  0.13674302715E+03  0.00000000000E+00 0. -1.
         21    1    1    2  504  502 -0.54330569501E+02 -0.93488715120E+02 -0.23328975841E+03  0.25713043775E+03  0.00000000000E+00 0. -1.
<mgrwt>
<rscale>  2 0.10812932E+03</rscale>
<asrwt>0</asrwt>
<pdfrwt beam="1">  1       21 0.59136647E-02 0.10812932E+03</pdfrwt>
<pdfrwt beam="2">  1       21 0.54682255E-01 0.10812932E+03</pdfrwt>
<totfact> 0.64289992E+05</totfact>
</mgrwt>
</event>
<event>
 4    1  0.6158309E+003  0.1073806E+03  0.7546771E-02  0.1265499E+00
         21   -1    0    0  503  501  0.00000000000E+00  0.00000000000E+00  0.79301224034E+03  0.79301224034E+03  0.00000000000E+00 0. -1.
         21   -1    0    0  504  502 -0.00000000000E+00 -0.00000000000E+00 -0.14614815534E+02  0.14614815534E+02  0.00000000000E+00 0.  1.
         21    1    1    2  503  502  0.10615833712E+03 -0.16155504703E+02  0.41804338306E+03  0.43161425253E+03  0.00000000000E+00 0.  1.
         21    1    1    2  504  501 -0.10615833712E+03  0.16155504703E+02  0.36035404175E+03  0.37601280334E+03  0.00000000000E+00 0. -1.
<mgrwt>
<rscale>  2 0.10738060E+03</rscale>
<asrwt>0</asrwt>
<pdfrwt beam="1">  1       21 0.12200185E+00 0.10738060E+03</pdfrwt>
<pdfrwt beam="2">  1       21 0.22484338E-02 0.10738060E+03</pdfrwt>
<totfact> 0.52440896E+05</totfact>
</mgrwt>
</event>
<event>
 4    1  0.6158309E+003  0.1091036E+03  0.7546771E-02  0.1262239E+00
         21   -1    0    0  503  501  0.00000000000E+00  0.00000000000E+00  0.31014784442E+03  0.31014784442E+03  0.00000000000E+00 0.  1.
         21   -1    0    0  504  502 -0.00000000000E+00 -0.00000000000E+00 -0.52696308123E+02  0.52696308123E+02  0.00000000000E+00 0.  1.
         21    1    1    2  503  502  0.10094127704E+03  0.41405921083E+02  0.22328627967E+03  0.24851630610E+03  0.00000000000E+00 0.  1.
         21    1    1    2  504  501 -0.10094127704E+03 -0.41405921083E+02  0.34165256633E+02  0.11432784644E+03  0.00000000000E+00 0.  1.
<mgrwt>
<rscale>  2 0.10910358E+03</rscale>
<asrwt>0</asrwt>
<pdfrwt beam="1">  1       21 0.47715052E-01 0.10910358E+03</pdfrwt>
<pdfrwt beam="2">  1       21 0.81071245E-02 0.10910358E+03</pdfrwt>
<totfact> 0.49754007E+05</totfact>
</mgrwt>
</event>
<event>
 4    1  0.6158309E+003  0.1036686E+03  0.7546771E-02  0.1272765E+00
         21   -1    0    0  504  501  0.00000000000E+00  0.00000000000E+00  0.73651138808E+03  0.73651138808E+03  0.00000000000E+00 0. -1.
         21   -1    0    0  501  502 -0.00000000000E+00 -0.00000000000E+00 -0.14798729574E+02  0.14798729574E+02  0.00000000000E+00 0. -1.
         21    1    1    2  503  502  0.60961890635E+02  0.83849966745E+02  0.40525660460E+03  0.41830620914E+03  0.00000000000E+00 0. -1.
         21    1    1    2  504  503 -0.60961890635E+02 -0.83849966745E+02  0.31645605391E+03  0.33300390852E+03  0.00000000000E+00 0. -1.
<mgrwt>
<rscale>  2 0.10366855E+03</rscale>
<asrwt>0</asrwt>
<pdfrwt beam="1">  1       21 0.11330942E+00 0.10366855E+03</pdfrwt>
<pdfrwt beam="2">  1       21 0.22767282E-02 0.10366855E+03</pdfrwt>
<totfact> 0.61432735E+05</totfact>
</mgrwt>
</event>
<event>
 4    1  0.6158309E+003  0.1497994E+03  0.7546771E-02  0.1200720E+00
         21   -1    0    0  503  501  0.00000000000E+00  0.00000000000E+00  0.85098717800E+03  0.85098717800E+03  0.00000000000E+00 0.  1.
         21   -1    0    0  504  502 -0.00000000000E+00 -0.00000000000E+00 -0.39561576353E+02  0.39561576353E+02  0.00000000000E+00 0.  1.
         21    1    1    2  503  502 -0.14301353528E+03 -0.44575817233E+02  0.14858326289E+03  0.21099019116E+03  0.00000000000E+00 0.  1.
         21    1    1    2  504  501  0.14301353528E+03  0.44575817233E+02  0.66284233876E+03  0.67955856319E+03  0.00000000000E+00 0.  1.
<mgrwt>
<rscale>  2 0.14979945E+03</rscale>
<asrwt>0</asrwt>
<pdfrwt beam="1">  1       21 0.13092109E+00 0.14979945E+03</pdfrwt>
<pdfrwt beam="2">  1       21 0.60863970E-02 0.14979945E+03</pdfrwt>
<totfact> 0.83418130E+04</totfact>
</mgrwt>
</event>
<event>
 4    1  0.6158309E+003  0.1205234E+03  0.7546771E-02  0.1242236E+00
         21   -1    0    0  503  501  0.00000000000E+00  0.00000000000E+00  0.43906804497E+03  0.43906804497E+03  0.00000000000E+00 0.  1.
         21   -1    0    0  504  502 -0.00000000000E+00 -0.00000000000E+00 -0.33111494459E+02  0.33111494459E+02  0.00000000000E+00 0.  1.
         21    1    1    2  503  502  0.43433662258E+02 -0.11242511890E+03  0.19610871343E+03  0.23018366115E+03  0.00000000000E+00 0.  1.
         21    1    1    2  504  501 -0.43433662258E+02  0.11242511890E+03  0.20984783708E+03  0.24199587828E+03  0.00000000000E+00 0.  1.
<mgrwt>
<rscale>  2 0.12052340E+03</rscale>
<asrwt>0</asrwt>
<pdfrwt beam="1">  1       21 0.67548926E-01 0.12052340E+03</pdfrwt>
<pdfrwt beam="2">  1       21 0.50940764E-02 0.12052340E+03</pdfrwt>
<totfact> 0.52745326E+05</totfact>
</mgrwt>
</event>
<event>
 4    1  0.6158309E+003  0.1808459E+03  0.7546771E-02  0.1166987E+00
         21   -1    0    0  503  501  0.00000000000E+00  0.00000000000E+00  0.10265424217E+04  0.10265424217E+04  0.00000000000E+00 0.  1.
         21   -1    0    0  501  502 -0.00000000000E+00 -0.00000000000E+00 -0.32642279620E+02  0.32642279620E+02  0.00000000000E+00 0.  1.
         21    1    1    2  503  504  0.11468087206E+03  0.13983391494E+03  0.57895590709E+03  0.60654362459E+03  0.00000000000E+00 0.  1.
         21    1    1    2  504  502 -0.11468087206E+03 -0.13983391494E+03  0.41494423495E+03  0.45264107668E+03  0.00000000000E+00 0.  1.
<mgrwt>
<rscale>  2 0.18084586E+03</rscale>
<asrwt>0</asrwt>
<pdfrwt beam="1">  1       21 0.15792958E+00 0.18084586E+03</pdfrwt>
<pdfrwt beam="2">  1       21 0.50218900E-02 0.18084586E+03</pdfrwt>
<totfact> 0.70041159E+04</totfact>
</mgrwt>
</event>
<event>
 4    1  0.6158309E+003  0.1275748E+03  0.7546771E-02  0.1231099E+00
         21   -1    0    0  503  501  0.00000000000E+00  0.00000000000E+00  0.18133167571E+02  0.18133167571E+02  0.00000000000E+00 0.  1.
         21   -1    0    0  504  502 -0.00000000000E+00 -0.00000000000E+00 -0.90162874172E+03  0.90162874172E+03  0.00000000000E+00 0.  1.
         21    1    1    2  503  502  0.12734618104E+03  0.76336460427E+01 -0.41079537939E+03  0.43014900454E+03  0.00000000000E+00 0.  1.
         21    1    1    2  504  501 -0.12734618104E+03 -0.76336460427E+01 -0.47270019476E+03  0.48961290476E+03  0.00000000000E+00 0.  1.
<mgrwt>
<rscale>  2 0.12757477E+03</rscale>
<asrwt>0</asrwt>
<pdfrwt beam="1">  1       21 0.27897184E-02 0.12757477E+03</pdfrwt>
<pdfrwt beam="2">  1       21 0.13871210E+00 0.12757477E+03</pdfrwt>
<totfact> 0.26726235E+05</totfact>
</mgrwt>
</event>
<event>
 4    1  0.6158309E+003  0.1143987E+03  0.7546771E-02  0.1252634E+00
         21   -1    0    0  502  501  0.00000000000E+00  0.00000000000E+00  0.11974001126E+04  0.11974001126E+04  0.00000000000E+00 0. -1.
         21   -1    0    0  504  502 -0.00000000000E+00 -0.00000000000E+00 -0.16405921028E+02  0.16405921028E+02  0.00000000000E+00 0. -1.
         21    1    1    2  503  501  0.25471611308E+02 -0.11152696625E+03  0.94113968585E+03  0.94806696782E+03  0.00000000000E+00 0. -1.
         21    1    1    2  504  503 -0.25471611308E+02  0.11152696625E+03  0.23985450573E+03  0.26573906582E+03  0.00000000000E+00 0. -1.
<mgrwt>
<rscale>  2 0.11439872E+03</rscale>
<asrwt>0</asrwt>
<pdfrwt beam="1">  1       21 0.18421533E+00 0.11439872E+03</pdfrwt>
<pdfrwt beam="2">  1       21 0.25239888E-02 0.11439872E+03</pdfrwt>
<totfact> 0.14950727E+05</totfact>
</mgrwt>
</event>
<event>
 4    1  0.6158309E+003  0.1071239E+03  0.7546771E-02  0.1265991E+00
         21   -1    0    0  504  501  0.00000000000E+00  0.00000000000E+00  0.14345695683E+03  0.14345695683E+03  0.00000000000E+00 0. -1.
         21   -1    0    0  503  502 -0.00000000000E+00 -0.00000000000E+00 -0.14076698703E+03  0.14076698703E+03  0.00000000000E+00 0. -1.
         21    1    1    2  503  501  0.11210565732E+02  0.10653564698E+03 -0.92032012943E+02  0.14122822759E+03  0.00000000000E+00 0. -1.
         21    1    1    2  504  502 -0.11210565732E+02 -0.10653564698E+03  0.94721982740E+02  0.14299571628E+03  0.00000000000E+00 0. -1.
<mgrwt>
<rscale>  2 0.10712386E+03</rscale>
<asrwt>0</asrwt>
<pdfrwt beam="1">  1       21 0.22070301E-01 0.10712386E+03</pdfrwt>
<pdfrwt beam="2">  1       21 0.21656460E-01 0.10712386E+03</pdfrwt>
<totfact> 0.38661722E+05</totfact>
</mgrwt>
</event>
<event>
 4    1  0.6158309E+003  0.1020382E+03  0.7546771E-02  0.1276067E+00
         21   -1    0    0  503  501  0.00000000000E+00  0.00000000000E+00  0.16897534449E+03  0.16897534449E+03  0.00000000000E+00 0.  1.
         21   -1    0    0  504  502 -0.00000000000E+00 -0.00000000000E+00 -0.69605380753E+02  0.69605380753E+02  0.00000000000E+00 0. -1.
         21    1    1    2  503  502  0.71247148007E+02 -0.73045385801E+02  0.90096800401E+02  0.13612206995E+03  0.00000000000E+00 0.  1.
         21    1    1    2  504  501 -0.71247148007E+02  0.73045385801E+02  0.92731633375E+01  0.10245865529E+03  0.00000000000E+00 0. -1.
<mgrwt>
<rscale>  2 0.10203815E+03</rscale>
<asrwt>0</asrwt>
<pdfrwt beam="1">  1       21 0.25996207E-01 0.10203815E+03</pdfrwt>
<pdfrwt beam="2">  1       21 0.10708520E-01 0.10203815E+03</pdfrwt>
<totfact> 0.10084742E+06</totfact>
</mgrwt>
</event>
<event>
 4    1  0.6158309E+003  0.1591404E+03  0.7546771E-02  0.1189671E+00
         21   -1    0    0  504  501  0.00000000000E+00  0.00000000000E+00  0.16923496236E+03  0.16923496236E+03  0.00000000000E+00 0.  1.
         21   -1    0    0  503  502 -0.00000000000E+00 -0.00000000000E+00 -0.31497913665E+03  0.31497913665E+03  0.00000000000E+00 0. -1.
         21    1    1    2  503  501  0.88627873487E+02 -0.13217706334E+03  0.10253367187E+03  0.18931146267E+03  0.00000000000E+00 0.  1.
         21    1    1    2  504  502 -0.88627873487E+02  0.13217706334E+03 -0.24827784615E+03  0.29490263634E+03  0.00000000000E+00 0. -1.
<mgrwt>
<rscale>  2 0.15914043E+03</rscale>
<asrwt>0</asrwt>
<pdfrwt beam="1">  1       21 0.26036148E-01 0.15914043E+03</pdfrwt>
<pdfrwt beam="2">  1       21 0.48458328E-01 0.15914043E+03</pdfrwt>
<totfact> 0.57908074E+04</totfact>
</mgrwt>
</event>
<event>
 4    1  0.6158309E+003  0.1579130E+03  0.7546771E-02  0.1191073E+00
         21   -1    0    0  503  501  0.00000000000E+00  0.00000000000E+00  0.40859616054E+03  0.40859616054E+03  0.00000000000E+00 0.  1.
         21   -1    0    0  504  502 -0.00000000000E+00 -0.00000000000E+00 -0.80547140080E+02  0.80547140080E+02  0.00000000000E+00 0.  1.
         21    1    1    2  503  502  0.11385939563E+03 -0.10941921201E+03  0.43634125357E+02  0.16383059185E+03  0.00000000000E+00 0.  1.
         21    1    1    2  504  501 -0.11385939563E+03  0.10941921201E+03  0.28441489511E+03  0.32531270877E+03  0.00000000000E+00 0.  1.
<mgrwt>
<rscale>  2 0.15791303E+03</rscale>
<asrwt>0</asrwt>
<pdfrwt beam="1">  1       21 0.62860947E-01 0.15791303E+03</pdfrwt>
<pdfrwt beam="2">  1       21 0.12391868E-01 0.15791303E+03</pdfrwt>
<totfact> 0.13148148E+05</totfact>
</mgrwt>
</event>
<event>
 4    1  0.6158309E+003  0.1046235E+03  0.7546771E-02  0.1270863E+00
         21   -1    0    0  502  501  0.00000000000E+00  0.00000000000E+00  0.71704084375E+01  0.71704084375E+01  0.00000000000E+00 0.  1.
         21   -1    0    0  503  502 -0.00000000000E+00 -0.00000000000E+00 -0.19860913143E+04  0.19860913143E+04  0.00000000000E+00 0.  1.
         21    1    1    2  503  504  0.48894309466E+02 -0.92495536422E+02 -0.14688527212E+04  0.14725740709E+04  0.00000000000E+00 0.  1.
         21    1    1    2  504  501 -0.48894309466E+02  0.92495536422E+02 -0.51006818472E+03  0.52068765188E+03  0.00000000000E+00 0.  1.
<mgrwt>
<rscale>  2 0.10462350E+03</rscale>
<asrwt>0</asrwt>
<pdfrwt beam="1">  1       21 0.11031391E-02 0.10462350E+03</pdfrwt>
<pdfrwt beam="2">  1       21 0.30555268E+00 0.10462350E+03</pdfrwt>
<totfact> 0.11136485E+05</totfact>
</mgrwt>
</event>
<event>
 4    1  0.6158309E+003  0.1587056E+03  0.7546771E-02  0.1190166E+00
         21   -1    0    0  504  501  0.00000000000E+00  0.00000000000E+00  0.84689388504E+03  0.84689388504E+03  0.00000000000E+00 0. -1.
         21   -1    0    0  503  502 -0.00000000000E+00 -0.00000000000E+00 -0.30251877921E+02  0.30251877921E+02  0.00000000000E+00 0. -1.
         21    1    1    2  503  501  0.66269030451E+02 -0.14420783030E+03  0.35132842479E+03  0.38551153651E+03  0.00000000000E+00 0. -1.
         21    1    1    2  504  502 -0.66269030451E+02  0.14420783030E+03  0.46531358233E+03  0.49163422645E+03  0.00000000000E+00 0. -1.
<mgrwt>
<rscale>  2 0.15870565E+03</rscale>
<asrwt>0</asrwt>
<pdfrwt beam="1">  1       21 0.13029135E+00 0.15870565E+03</pdfrwt>
<pdfrwt beam="2">  1       21 0.46541357E-02 0.15870565E+03</pdfrwt>
<totfact> 0.13243928E+05</totfact>
</mgrwt>
</event>
<event>
 4    1  0.6158309E+003  0.1683682E+03  0.7546771E-02  0.1179560E+00
         21   -1    0    0  503  501  0.00000000000E+00  0.00000000000E+00  0.32483656531E+03  0.32483656531E+03  0.00000000000E+00 0.  1.
         21   -1    0    0  504  502 -0.00000000000E+00 -0.00000000000E+00 -0.12400239313E+03  0.12400239313E+03  0.00000000000E+00 0. -1.
         21    1    1    2  503  502  0.25307230718E+02 -0.16645541955E+03 -0.21729544729E+02  0.16976464808E+03  0.00000000000E+00 0. -1.
         21    1    1    2  504  501 -0.25307230718E+02  0.16645541955E+03  0.22256371690E+03  0.27907431036E+03  0.00000000000E+00 0.  1.
<mgrwt>
<rscale>  2 0.16836824E+03</rscale>
<asrwt>0</asrwt>
<pdfrwt beam="1">  1       21 0.49974856E-01 0.16836824E+03</pdfrwt>
<pdfrwt beam="2">  1       21 0.19077291E-01 0.16836824E+03</pdfrwt>
<totfact> 0.97073292E+04</totfact>
</mgrwt>
</event>
<event>
 4    1  0.6158309E+003  0.1123933E+03  0.7546771E-02  0.1256201E+00
         21   -1    0    0  503  501  0.00000000000E+00  0.00000000000E+00  0.20129889724E+02  0.20129889724E+02  0.00000000000E+00 0.  1.
         21   -1    0    0  504  502 -0.00000000000E+00 -0.00000000000E+00 -0.80178724008E+03  0.80178724008E+03  0.00000000000E+00 0.  1.
         21    1    1    2  503  502 -0.11016814401E+03  0.22253704223E+02 -0.19924638396E+03  0.22876050539E+03  0.00000000000E+00 0.  1.
         21    1    1    2  504  501  0.11016814401E+03 -0.22253704223E+02 -0.58241096640E+03  0.59315662441E+03  0.00000000000E+00 0.  1.
<mgrwt>
<rscale>  2 0.11239327E+03</rscale>
<asrwt>0</asrwt>
<pdfrwt beam="1">  1       21 0.30969064E-02 0.11239327E+03</pdfrwt>
<pdfrwt beam="2">  1       21 0.12335187E+00 0.11239327E+03</pdfrwt>
<totfact> 0.30305322E+05</totfact>
</mgrwt>
</event>
<event>
 4    1  0.6158309E+003  0.1124216E+03  0.7546771E-02  0.1256150E+00
         21   -1    0    0  504  501  0.00000000000E+00  0.00000000000E+00  0.10321543450E+02  0.10321543450E+02  0.00000000000E+00 0. -1.
         21   -1    0    0  501  502 -0.00000000000E+00 -0.00000000000E+00 -0.14650496584E+04  0.14650496584E+04  0.00000000000E+00 0. -1.
         21    1    1    2  503  502 -0.87932450163E+02  0.70046472843E+02 -0.10262852866E+04  0.10324243864E+04  0.00000000000E+00 0. -1.
         21    1    1    2  504  503  0.87932450163E+02 -0.70046472843E+02 -0.42844282832E+03  0.44294681542E+03  0.00000000000E+00 0. -1.
<mgrwt>
<rscale>  2 0.11242164E+03</rscale>
<asrwt>0</asrwt>
<pdfrwt beam="1">  1       21 0.15879287E-02 0.11242164E+03</pdfrwt>
<pdfrwt beam="2">  1       21 0.22539240E+00 0.11242164E+03</pdfrwt>
<totfact> 0.17561586E+05</totfact>
</mgrwt>
</event>
<event>
 4    1  0.6158309E+003  0.1500508E+03  0.7546771E-02  0.1200411E+00
         21   -1    0    0  503  501  0.00000000000E+00  0.00000000000E+00  0.11094646423E+03  0.11094646423E+03  0.00000000000E+00 0.  1.
         21   -1    0    0  504  502 -0.00000000000E+00 -0.00000000000E+00 -0.28303884956E+03  0.28303884956E+03  0.00000000000E+00 0. -1.
         21    1    1    2  503  502 -0.13209808340E+03  0.71171253861E+02 -0.19084241699E+03  0.24276754135E+03  0.00000000000E+00 0. -1.
         21    1    1    2  504  501  0.13209808340E+03 -0.71171253861E+02  0.18750031665E+02  0.15121777244E+03  0.00000000000E+00 0.  1.
<mgrwt>
<rscale>  2 0.15005083E+03</rscale>
<asrwt>0</asrwt>
<pdfrwt beam="1">  1       21 0.17068687E-01 0.15005083E+03</pdfrwt>
<pdfrwt beam="2">  1       21 0.43544438E-01 0.15005083E+03</pdfrwt>
<totfact> 0.15910548E+05</totfact>
</mgrwt>
</event>
<event>
 4    1  0.6158309E+003  0.1744892E+03  0.7546771E-02  0.1173246E+00
         21   -1    0    0  504  501  0.00000000000E+00  0.00000000000E+00  0.18813607487E+03  0.18813607487E+03  0.00000000000E+00 0. -1.
         21   -1    0    0  503  502 -0.00000000000E+00 -0.00000000000E+00 -0.16188740040E+03  0.16188740040E+03  0.00000000000E+00 0. -1.
         21    1    1    2  503  501 -0.14607455927E+03  0.95439499988E+02  0.16356022539E+02  0.17525408554E+03  0.00000000000E+00 0. -1.
         21    1    1    2  504  502  0.14607455927E+03 -0.95439499988E+02  0.98926519359E+01  0.17476938973E+03  0.00000000000E+00 0. -1.
<mgrwt>
<rscale>  2 0.17448918E+03</rscale>
<asrwt>0</asrwt>
<pdfrwt beam="1">  1       21 0.28944011E-01 0.17448918E+03</pdfrwt>
<pdfrwt beam="2">  1       21 0.24905754E-01 0.17448918E+03</pdfrwt>
<totfact> 0.17527089E+05</totfact>
</mgrwt>
</event>
<event>
 4    1  0.6158309E+003  0.1251194E+03  0.7546771E-02  0.1234883E+00
         21   -1    0    0  503  501  0.00000000000E+00  0.00000000000E+00  0.78423417589E+02  0.78423417589E+02  0.00000000000E+00 0. -1.
         21   -1    0    0  501  502 -0.00000000000E+00 -0.00000000000E+00 -0.30480852186E+03  0.30480852186E+03  0.00000000000E+00 0.  1.
         21    1    1    2  503  504  0.64772390246E+02  0.10704857757E+03 -0.62767351700E+00  0.12512095937E+03  0.00000000000E+00 0. -1.
         21    1    1    2  504  502 -0.64772390246E+02 -0.10704857757E+03 -0.22575743075E+03  0.25811098008E+03  0.00000000000E+00 0.  1.
<mgrwt>
<rscale>  2 0.12511938E+03</rscale>
<asrwt>0</asrwt>
<pdfrwt beam="1">  1       21 0.12065142E-01 0.12511938E+03</pdfrwt>
<pdfrwt beam="2">  1       21 0.46893617E-01 0.12511938E+03</pdfrwt>
<totfact> 0.25706642E+05</totfact>
</mgrwt>
</event>
<event>
 4    1  0.6158309E+003  0.1214976E+03  0.7546771E-02  0.1240647E+00
         21   -1    0    0  503  501  0.00000000000E+00  0.00000000000E+00  0.24800811410E+03  0.24800811410E+03  0.00000000000E+00 0. -1.
         21   -1    0    0  504  502 -0.00000000000E+00 -0.00000000000E+00 -0.12953851673E+03  0.12953851673E+03  0.00000000000E+00 0. -1.
         21    1    1    2  503  502 -0.11953909091E+03 -0.21727076124E+02  0.19802055017E+03  0.23232261703E+03  0.00000000000E+00 0. -1.
         21    1    1    2  504  501  0.11953909091E+03  0.21727076124E+02 -0.79550952799E+02  0.14522401380E+03  0.00000000000E+00 0. -1.
<mgrwt>
<rscale>  2 0.12149757E+03</rscale>
<asrwt>0</asrwt>
<pdfrwt beam="1">  1       21 0.38155094E-01 0.12149757E+03</pdfrwt>
<pdfrwt beam="2">  1       21 0.19929003E-01 0.12149757E+03</pdfrwt>
<totfact> 0.15739863E+05</totfact>
</mgrwt>
</event>
<event>
 4    1  0.6158309E+003  0.1381462E+03  0.7546771E-02  0.1215845E+00
         21   -1    0    0  504  501  0.00000000000E+00  0.00000000000E+00  0.14611303246E+04  0.14611303246E+04  0.00000000000E+00 0. -1.
         21   -1    0    0  503  502 -0.00000000000E+00 -0.00000000000E+00 -0.13062800244E+02  0.13062800244E+02  0.00000000000E+00 0. -1.
         21    1    1    2  503  501 -0.47026280334E+02 -0.12989570952E+03  0.73174173768E+03  0.74466793745E+03  0.00000000000E+00 0. -1.
         21    1    1    2  504  502  0.47026280334E+02  0.12989570952E+03  0.71632578672E+03  0.72952518744E+03  0.00000000000E+00 0. -1.
<mgrwt>
<rscale>  2 0.13814618E+03</rscale>
<asrwt>0</asrwt>
<pdfrwt beam="1">  1       21 0.22478915E+00 0.13814618E+03</pdfrwt>
<pdfrwt beam="2">  1       21 0.20096627E-02 0.13814618E+03</pdfrwt>
<totfact> 0.11901759E+05</totfact>
</mgrwt>
</event>
<event>
 4    1  0.6158309E+003  0.1064606E+03  0.7546771E-02  0.1267268E+00
         21   -1    0    0  504  501  0.00000000000E+00  0.00000000000E+00  0.20138349990E+03  0.20138349990E+03  0.00000000000E+00 0.  1.
         21   -1    0    0  503  502 -0.00000000000E+00 -0.00000000000E+00 -0.60466271997E+02  0.60466271997E+02  0.00000000000E+00 0.  1.
         21    1    1    2  503  501  0.10266485047E+02  0.10596443402E+03  0.36009370801E+02  0.11238566091E+03  0.00000000000E+00 0.  1.
         21    1    1    2  504  502 -0.10266485047E+02 -0.10596443402E+03  0.10490785710E+03  0.14946411099E+03  0.00000000000E+00 0.  1.
<mgrwt>
<rscale>  2 0.10646061E+03</rscale>
<asrwt>0</asrwt>
<pdfrwt beam="1">  1       21 0.30982077E-01 0.10646061E+03</pdfrwt>
<pdfrwt beam="2">  1       21 0.93025035E-02 0.10646061E+03</pdfrwt>
<totfact> 0.92270437E+05</totfact>
</mgrwt>
</event>
<event>
 4    1  0.6158309E+003  0.1121435E+03  0.7546771E-02  0.1256651E+00
         21   -1    0    0  504  501  0.00000000000E+00  0.00000000000E+00  0.59199524988E+02  0.59199524988E+02  0.00000000000E+00 0.  1.
         21   -1    0    0  503  502 -0.00000000000E+00 -0.00000000000E+00 -0.23707009006E+03  0.23707009006E+03  0.00000000000E+00 0.  1.
         21    1    1    2  503  501 -0.55790233358E+02  0.97281145427E+02 -0.41184785226E+02  0.11946697421E+03  0.00000000000E+00 0.  1.
         21    1    1    2  504  502  0.55790233358E+02 -0.97281145427E+02 -0.13668577984E+03  0.17680264083E+03  0.00000000000E+00 0.  1.
<mgrwt>
<rscale>  2 0.11214353E+03</rscale>
<asrwt>0</asrwt>
<pdfrwt beam="1">  1       21 0.91076193E-02 0.11214353E+03</pdfrwt>
<pdfrwt beam="2">  1       21 0.36472321E-01 0.11214353E+03</pdfrwt>
<totfact> 0.69705566E+05</totfact>
</mgrwt>
</event>
<event>
 4    1  0.6158309E+003  0.1132773E+03  0.7546771E-02  0.1254618E+00
         21   -1    0    0  503  501  0.00000000000E+00  0.00000000000E+00  0.11648186324E+04  0.11648186324E+04  0.00000000000E+00 0.  1.
         21   -1    0    0  504  502 -0.00000000000E+00 -0.00000000000E+00 -0.18814075077E+02  0.18814075077E+02  0.00000000000E+00 0.  1.
         21    1    1    2  503  502  0.19592992971E+02 -0.11156998964E+03  0.19199199319E+03  0.22291853537E+03  0.00000000000E+00 0.  1.
         21    1    1    2  504  501 -0.19592992971E+02  0.11156998964E+03  0.95401256413E+03  0.96071417210E+03  0.00000000000E+00 0.  1.
<mgrwt>
<rscale>  2 0.11327731E+03</rscale>
<asrwt>0</asrwt>
<pdfrwt beam="1">  1       21 0.17920281E+00 0.11327731E+03</pdfrwt>
<pdfrwt beam="2">  1       21 0.28944740E-02 0.11327731E+03</pdfrwt>
<totfact> 0.12918326E+05</totfact>
</mgrwt>
</event>
<event>
 4    1  0.6158309E+003  0.1281344E+03  0.7546771E-02  0.1230250E+00
         21   -1    0    0  503  501  0.00000000000E+00  0.00000000000E+00  0.33328207258E+02  0.33328207258E+02  0.00000000000E+00 0. -1.
         21   -1    0    0  504  502 -0.00000000000E+00 -0.00000000000E+00 -0.49508932268E+03  0.49508932268E+03  0.00000000000E+00 0. -1.
         21    1    1    2  503  502 -0.98952768967E+02  0.81405020484E+02 -0.21225379415E+03  0.24793164578E+03  0.00000000000E+00 0. -1.
         21    1    1    2  504  501  0.98952768967E+02 -0.81405020484E+02 -0.24950732127E+03  0.28048588416E+03  0.00000000000E+00 0. -1.
<mgrwt>
<rscale>  2 0.12813441E+03</rscale>
<asrwt>0</asrwt>
<pdfrwt beam="1">  1       21 0.51274160E-02 0.12813441E+03</pdfrwt>
<pdfrwt beam="2">  1       21 0.76167596E-01 0.12813441E+03</pdfrwt>
<totfact> 0.40081035E+05</totfact>
</mgrwt>
</event>
<event>
 4    1  0.6158309E+003  0.3747385E+03  0.7546771E-02  0.1052896E+00
         21   -1    0    0  504  501  0.00000000000E+00  0.00000000000E+00  0.50283442494E+03  0.50283442494E+03  0.00000000000E+00 0.  1.
         21   -1    0    0  503  502 -0.00000000000E+00 -0.00000000000E+00 -0.37570955167E+03  0.37570955167E+03  0.00000000000E+00 0.  1.
         21    1    1    2  503  501  0.74765650314E+00 -0.37473771041E+03 -0.15898597616E+03  0.40706934447E+03  0.00000000000E+00 0.  1.
         21    1    1    2  504  502 -0.74765650314E+00  0.37473771041E+03  0.28611084943E+03  0.47147463215E+03  0.00000000000E+00 0.  1.
<mgrwt>
<rscale>  2 0.37473846E+03</rscale>
<asrwt>0</asrwt>
<pdfrwt beam="1">  1       21 0.77359142E-01 0.37473846E+03</pdfrwt>
<pdfrwt beam="2">  1       21 0.57801470E-01 0.37473846E+03</pdfrwt>
<totfact> 0.37452456E+03</totfact>
</mgrwt>
</event>
<event>
 4    1  0.6158309E+003  0.1274646E+03  0.7546771E-02  0.1231267E+00
         21   -1    0    0  502  501  0.00000000000E+00  0.00000000000E+00  0.89211695355E+03  0.89211695355E+03  0.00000000000E+00 0.  1.
         21   -1    0    0  504  502 -0.00000000000E+00 -0.00000000000E+00 -0.33558061670E+02  0.33558061670E+02  0.00000000000E+00 0.  1.
         21    1    1    2  503  501  0.17391451662E+02 -0.12627254827E+03  0.74226826146E+03  0.75313305000E+03  0.00000000000E+00 0.  1.
         21    1    1    2  504  503 -0.17391451662E+02  0.12627254827E+03  0.11629063043E+03  0.17254196522E+03  0.00000000000E+00 0.  1.
<mgrwt>
<rscale>  2 0.12746458E+03</rscale>
<asrwt>0</asrwt>
<pdfrwt beam="1">  1       21 0.13724874E+00 0.12746458E+03</pdfrwt>
<pdfrwt beam="2">  1       21 0.51627794E-02 0.12746458E+03</pdfrwt>
<totfact> 0.98995665E+04</totfact>
</mgrwt>
</event>
<event>
 4    1  0.6158309E+003  0.1154213E+03  0.7546771E-02  0.1250848E+00
         21   -1    0    0  503  501  0.00000000000E+00  0.00000000000E+00  0.11399802374E+02  0.11399802374E+02  0.00000000000E+00 0. -1.
         21   -1    0    0  504  502 -0.00000000000E+00 -0.00000000000E+00 -0.18180916694E+04  0.18180916694E+04  0.00000000000E+00 0.  1.
         21    1    1    2  503  502 -0.29768020288E+02 -0.11151653675E+03 -0.14500742361E+04  0.14546605663E+04  0.00000000000E+00 0.  1.
         21    1    1    2  504  501  0.29768020288E+02  0.11151653675E+03 -0.35661763098E+03  0.37483090551E+03  0.00000000000E+00 0. -1.
<mgrwt>
<rscale>  2 0.11542128E+03</rscale>
<asrwt>0</asrwt>
<pdfrwt beam="1">  1       21 0.17538163E-02 0.11542128E+03</pdfrwt>
<pdfrwt beam="2">  1       21 0.27970632E+00 0.11542128E+03</pdfrwt>
<totfact> 0.73254958E+04</totfact>
</mgrwt>
</event>
<event>
 4    1  0.6158309E+003  0.1021346E+03  0.7546771E-02  0.1275870E+00
         21   -1    0    0  503  501  0.00000000000E+00  0.00000000000E+00  0.21239738749E+03  0.21239738749E+03  0.00000000000E+00 0. -1.
         21   -1    0    0  504  502 -0.00000000000E+00 -0.00000000000E+00 -0.17923466312E+03  0.17923466312E+03  0.00000000000E+00 0.  1.
         21    1    1    2  503  502 -0.69171371530E+02  0.75145239073E+02 -0.15026315209E+03  0.18168792054E+03  0.00000000000E+00 0.  1.
         21    1    1    2  504  501  0.69171371530E+02 -0.75145239073E+02  0.18342587646E+03  0.20994413007E+03  0.00000000000E+00 0. -1.
<mgrwt>
<rscale>  2 0.10213464E+03</rscale>
<asrwt>0</asrwt>
<pdfrwt beam="1">  1       21 0.32676521E-01 0.10213464E+03</pdfrwt>
<pdfrwt beam="2">  1       21 0.27574564E-01 0.10213464E+03</pdfrwt>
<totfact> 0.11701561E+05</totfact>
</mgrwt>
</event>
<event>
 4    1  0.6158309E+003  0.1160212E+03  0.7546771E-02  0.1249809E+00
         21   -1    0    0  504  501  0.00000000000E+00  0.00000000000E+00  0.76997246779E+03  0.76997246779E+03  0.00000000000E+00 0. -1.
         21   -1    0    0  503  502 -0.00000000000E+00 -0.00000000000E+00 -0.23072771507E+02  0.23072771507E+02  0.00000000000E+00 0. -1.
         21    1    1    2  503  501  0.52719373771E+02  0.10335175924E+03  0.17826736062E+03  0.21269736804E+03  0.00000000000E+00 0. -1.
         21    1    1    2  504  502 -0.52719373771E+02 -0.10335175924E+03  0.56863233566E+03  0.58034787126E+03  0.00000000000E+00 0. -1.
<mgrwt>
<rscale>  2 0.11602120E+03</rscale>
<asrwt>0</asrwt>
<pdfrwt beam="1">  1       21 0.11845728E+00 0.11602120E+03</pdfrwt>
<pdfrwt beam="2">  1       21 0.35496577E-02 0.11602120E+03</pdfrwt>
<totfact> 0.26705032E+05</totfact>
</mgrwt>
</event>
<event>
 4    1  0.6158309E+003  0.1783999E+03  0.7546771E-02  0.1169361E+00
         21   -1    0    0  503  501  0.00000000000E+00  0.00000000000E+00  0.14994019331E+03  0.14994019331E+03  0.00000000000E+00 0. -1.
         21   -1    0    0  504  502 -0.00000000000E+00 -0.00000000000E+00 -0.43750269050E+03  0.43750269050E+03  0.00000000000E+00 0.  1.
         21    1    1    2  503  502  0.12288073983E+03  0.12933235179E+03  0.66969523615E+02  0.19055563632E+03  0.00000000000E+00 0. -1.
         21    1    1    2  504  501 -0.12288073983E+03 -0.12933235179E+03 -0.35453202081E+03  0.39688724749E+03  0.00000000000E+00 0.  1.
<mgrwt>
<rscale>  2 0.17839993E+03</rscale>
<asrwt>0</asrwt>
<pdfrwt beam="1">  1       21 0.23067722E-01 0.17839993E+03</pdfrwt>
<pdfrwt beam="2">  1       21 0.67308105E-01 0.17839993E+03</pdfrwt>
<totfact> 0.35913255E+04</totfact>
</mgrwt>
</event>
<event>
 4    1  0.6158309E+003  0.1460130E+03  0.7546771E-02  0.1205460E+00
         21   -1    0    0  504  501  0.00000000000E+00  0.00000000000E+00  0.59657814494E+03  0.59657814494E+03  0.00000000000E+00 0. -1.
         21   -1    0    0  503  502 -0.00000000000E+00 -0.00000000000E+00 -0.48907244674E+02  0.48907244674E+02  0.00000000000E+00 0. -1.
         21    1    1    2  503  501 -0.37583789522E+02 -0.14109312359E+03  0.44131800399E+03  0.46484555650E+03  0.00000000000E+00 0. -1.
         21    1    1    2  504  502  0.37583789522E+02  0.14109312359E+03  0.10635289628E+03  0.18063983311E+03  0.00000000000E+00 0. -1.
<mgrwt>
<rscale>  2 0.14601305E+03</rscale>
<asrwt>0</asrwt>
<pdfrwt beam="1">  1       21 0.91781248E-01 0.14601305E+03</pdfrwt>
<pdfrwt beam="2">  1       21 0.75241919E-02 0.14601305E+03</pdfrwt>
<totfact> 0.13633935E+05</totfact>
</mgrwt>
</event>
<event>
 4    1  0.6158309E+003  0.1068882E+03  0.7546771E-02  0.1266443E+00
         21   -1    0    0  502  501  0.00000000000E+00  0.00000000000E+00  0.24502064505E+04  0.24502064505E+04  0.00000000000E+00 0. -1.
         21   -1    0    0  503  502 -0.00000000000E+00 -0.00000000000E+00 -0.20949292150E+02  0.20949292150E+02  0.00000000000E+00 0.  1.
         21    1    1    2  503  504 -0.96709256428E+02  0.45523671202E+02  0.12520243090E+03  0.16462300453E+03  0.00000000000E+00 0.  1.
         21    1    1    2  504  501  0.96709256428E+02 -0.45523671202E+02  0.23040547275E+04  0.23065327382E+04  0.00000000000E+00 0. -1.
<mgrwt>
<rscale>  2 0.10688819E+03</rscale>
<asrwt>0</asrwt>
<pdfrwt beam="1">  1       21 0.37695461E+00 0.10688819E+03</pdfrwt>
<pdfrwt beam="2">  1       21 0.32229700E-02 0.10688819E+03</pdfrwt>
<totfact> 0.78186318E+03</totfact>
</mgrwt>
</event>
<event>
 4    1  0.6158309E+003  0.1051499E+03  0.7546771E-02  0.1269824E+00
         21   -1    0    0  503  501  0.00000000000E+00  0.00000000000E+00  0.76558986288E+03  0.76558986288E+03  0.00000000000E+00 0. -1.
         21   -1    0    0  501  502 -0.00000000000E+00 -0.00000000000E+00 -0.99434350192E+02  0.99434350192E+02  0.00000000000E+00 0. -1.
         21    1    1    2  503  504 -0.20363203163E+02  0.10315935010E+03  0.73294923226E+03  0.74045329942E+03  0.00000000000E+00 0. -1.
         21    1    1    2  504  502  0.20363203163E+02 -0.10315935010E+03 -0.66793719566E+02  0.12457091366E+03  0.00000000000E+00 0. -1.
<mgrwt>
<rscale>  2 0.10514995E+03</rscale>
<asrwt>0</asrwt>
<pdfrwt beam="1">  1       21 0.11778305E+00 0.10514995E+03</pdfrwt>
<pdfrwt beam="2">  1       21 0.15297593E-01 0.10514995E+03</pdfrwt>
<totfact> 0.22311194E+04</totfact>
</mgrwt>
</event>
<event>
 4    1  0.6158309E+003  0.1272522E+03  0.7546771E-02  0.1231591E+00
         21   -1    0    0  504  501  0.00000000000E+00  0.00000000000E+00  0.88446438462E+03  0.88446438462E+03  0.00000000000E+00 0. -1.
         21   -1    0    0  503  502 -0.00000000000E+00 -0.00000000000E+00 -0.23557436365E+02  0.23557436365E+02  0.00000000000E+00 0.  1.
         21    1    1    2  503  501 -0.12319065576E+03 -0.31893416188E+02  0.64476329370E+03  0.65720075515E+03  0.00000000000E+00 0. -1.
         21    1    1    2  504  502  0.12319065576E+03  0.31893416188E+02  0.21614365456E+03  0.25082106584E+03  0.00000000000E+00 0.  1.
<mgrwt>
<rscale>  2 0.12725222E+03</rscale>
<asrwt>0</asrwt>
<pdfrwt beam="1">  1       21 0.13607142E+00 0.12725222E+03</pdfrwt>
<pdfrwt beam="2">  1       21 0.36242216E-02 0.12725222E+03</pdfrwt>
<totfact> 0.18250164E+05</totfact>
</mgrwt>
</event>
<event>
 4    1  0.6158309E+003  0.1936704E+03  0.7546771E-02  0.1155192E+00
         21   -1    0    0  503  501  0.00000000000E+00  0.00000000000E+00  0.12540411160E+03  0.12540411160E+03  0.00000000000E+00 0.  1.
         21   -1    0    0  504  502 -0.00000000000E+00 -0.00000000000E+00 -0.38045541349E+03  0.38045541349E+03  0.00000000000E+00 0.  1.
         21    1    1    2  503  502  0.75853552574E+01 -0.19352179845E+03 -0.10563759857E+02  0.19395828704E+03  0.00000000000E+00 0.  1.
         21    1    1    2  504  501 -0.75853552574E+01  0.19352179845E+03 -0.24448754203E+03  0.31190123805E+03  0.00000000000E+00 0.  1.
<mgrwt>
<rscale>  2 0.19367040E+03</rscale>
<asrwt>0</asrwt>
<pdfrwt beam="1">  1       21 0.19292940E-01 0.19367040E+03</pdfrwt>
<pdfrwt beam="2">  1       21 0.58531602E-01 0.19367040E+03</pdfrwt>
<totfact> 0.67426726E+04</totfact>
</mgrwt>
</event>
<event>
 4    1  0.6158309E+003  0.1088616E+03  0.7546771E-02  0.1262693E+00
         21   -1    0    0  503  501  0.00000000000E+00  0.00000000000E+00  0.22050204060E+02  0.22050204060E+02  0.00000000000E+00 0.  1.
         21   -1    0    0  501  502 -0.00000000000E+00 -0.00000000000E+00 -0.58597529016E+03  0.58597529016E+03  0.00000000000E+00 0.  1.
         21    1    1    2  503  504 -0.35621621380E+01  0.10880327785E+03 -0.19447538472E+03  0.22287107828E+03  0.00000000000E+00 0.  1.
         21    1    1    2  504  502  0.35621621380E+01 -0.10880327785E+03 -0.36944970137E+03  0.38515441594E+03  0.00000000000E+00 0.  1.
<mgrwt>
<rscale>  2 0.10886157E+03</rscale>
<asrwt>0</asrwt>
<pdfrwt beam="1">  1       21 0.33923395E-02 0.10886157E+03</pdfrwt>
<pdfrwt beam="2">  1       21 0.90150034E-01 0.10886157E+03</pdfrwt>
<totfact> 0.54683264E+05</totfact>
</mgrwt>
</event>
<event>
 4    1  0.6158309E+003  0.2654754E+03  0.7546771E-02  0.1103897E+00
         21   -1    0    0  503  501  0.00000000000E+00  0.00000000000E+00  0.39080068333E+03  0.39080068333E+03  0.00000000000E+00 0. -1.
         21   -1    0    0  504  502 -0.00000000000E+00 -0.00000000000E+00 -0.22612235383E+03  0.22612235383E+03  0.00000000000E+00 0.  1.
         21    1    1    2  503  502 -0.23158023582E+03 -0.12979901683E+03 -0.56456510348E+02  0.27141209987E+03  0.00000000000E+00 0.  1.
         21    1    1    2  504  501  0.23158023582E+03  0.12979901683E+03  0.22113483985E+03  0.34551093729E+03  0.00000000000E+00 0. -1.
<mgrwt>
<rscale>  2 0.26547540E+03</rscale>
<asrwt>0</asrwt>
<pdfrwt beam="1">  1       21 0.60123182E-01 0.26547540E+03</pdfrwt>
<pdfrwt beam="2">  1       21 0.34788054E-01 0.26547540E+03</pdfrwt>
<totfact> 0.19769788E+04</totfact>
</mgrwt>
</event>
<event>
 4    1  0.6158309E+003  0.1076292E+03  0.7546771E-02  0.1265024E+00
         21   -1    0    0  504  501  0.00000000000E+00  0.00000000000E+00  0.96684942929E+02  0.96684942929E+02  0.00000000000E+00 0. -1.
         21   -1    0    0  503  502 -0.00000000000E+00 -0.00000000000E+00 -0.26828611606E+03  0.26828611606E+03  0.00000000000E+00 0.  1.
         21    1    1    2  503  501 -0.53747245605E+02 -0.93248508762E+02  0.49953898422E+02  0.11865682772E+03  0.00000000000E+00 0. -1.
         21    1    1    2  504  502  0.53747245605E+02  0.93248508762E+02 -0.22155507155E+03  0.24631423127E+03  0.00000000000E+00 0.  1.
<mgrwt>
<rscale>  2 0.10762923E+03</rscale>
<asrwt>0</asrwt>
<pdfrwt beam="1">  1       21 0.14874607E-01 0.10762923E+03</pdfrwt>
<pdfrwt beam="2">  1       21 0.41274786E-01 0.10762923E+03</pdfrwt>
<totfact> 0.23005053E+05</totfact>
</mgrwt>
</event>
<event>
 4    1  0.6158309E+003  0.1247161E+03  0.7546771E-02  0.1235514E+00
         21   -1    0    0  503  501  0.00000000000E+00  0.00000000000E+00  0.80503477767E+03  0.80503477767E+03  0.00000000000E+00 0. -1.
         21   -1    0    0  504  502 -0.00000000000E+00 -0.00000000000E+00 -0.21229683246E+03  0.21229683246E+03  0.00000000000E+00 0.  1.
         21    1    1    2  503  502 -0.84099265060E+02 -0.92094637385E+02  0.78133599010E+03  0.79122691944E+03  0.00000000000E+00 0. -1.
         21    1    1    2  504  501  0.84099265060E+02  0.92094637385E+02 -0.18859804489E+03  0.22610469070E+03  0.00000000000E+00 0.  1.
<mgrwt>
<rscale>  2 0.12471611E+03</rscale>
<asrwt>0</asrwt>
<pdfrwt beam="1">  1       21 0.12385150E+00 0.12471611E+03</pdfrwt>
<pdfrwt beam="2">  1       21 0.32661052E-01 0.12471611E+03</pdfrwt>
<totfact> 0.46979655E+03</totfact>
</mgrwt>
</event>
<event>
 4    1  0.6158309E+003  0.1053110E+03  0.7546771E-02  0.1269508E+00
         21   -1    0    0  503  501  0.00000000000E+00  0.00000000000E+00  0.11082828151E+02  0.11082828151E+02  0.00000000000E+00 0. -1.
         21   -1    0    0  501  502 -0.00000000000E+00 -0.00000000000E+00 -0.20674113010E+04  0.20674113010E+04  0.00000000000E+00 0. -1.
         21    1    1    2  503  504  0.10177291699E+03 -0.27068120340E+02 -0.28166038807E+03  0.30070414693E+03  0.00000000000E+00 0. -1.
         21    1    1    2  504  502 -0.10177291699E+03  0.27068120340E+02 -0.17746680848E+04  0.17777899822E+04  0.00000000000E+00 0. -1.
<mgrwt>
<rscale>  2 0.10531101E+03</rscale>
<asrwt>0</asrwt>
<pdfrwt beam="1">  1       21 0.17050510E-02 0.10531101E+03</pdfrwt>
<pdfrwt beam="2">  1       21 0.31806318E+00 0.10531101E+03</pdfrwt>
<totfact> 0.47549059E+04</totfact>
</mgrwt>
</event>
<event>
 4    1  0.6158309E+003  0.1155369E+03  0.7546771E-02  0.1250647E+00
         21   -1    0    0  504  501  0.00000000000E+00  0.00000000000E+00  0.92645987901E+03  0.92645987901E+03  0.00000000000E+00 0.  1.
         21   -1    0    0  503  502 -0.00000000000E+00 -0.00000000000E+00 -0.15809736167E+02  0.15809736167E+02  0.00000000000E+00 0.  1.
         21    1    1    2  503  501  0.10971198723E+03 -0.36222376625E+02  0.59559288510E+03  0.60669569430E+03  0.00000000000E+00 0.  1.
         21    1    1    2  504  502 -0.10971198723E+03  0.36222376625E+02  0.31505725775E+03  0.33557392088E+03  0.00000000000E+00 0.  1.
<mgrwt>
<rscale>  2 0.11553692E+03</rscale>
<asrwt>0</asrwt>
<pdfrwt beam="1">  1       21 0.14253225E+00 0.11553692E+03</pdfrwt>
<pdfrwt beam="2">  1       21 0.24322678E-02 0.11553692E+03</pdfrwt>
<totfact> 0.31309850E+05</totfact>
</mgrwt>
</event>
<event>
 4    1  0.6158309E+003  0.2520599E+03  0.7546771E-02  0.1112010E+00
         21   -1    0    0  502  501  0.00000000000E+00  0.00000000000E+00  0.18607890772E+03  0.18607890772E+03  0.00000000000E+00 0. -1.
         21   -1    0    0  504  502 -0.00000000000E+00 -0.00000000000E+00 -0.40435005936E+03  0.40435005936E+03  0.00000000000E+00 0. -1.
         21    1    1    2  503  501 -0.18737584816E+03  0.16859568503E+03  0.73117454793E+01  0.25216596739E+03  0.00000000000E+00 0. -1.
         21    1    1    2  504  503  0.18737584816E+03 -0.16859568503E+03 -0.22558289713E+03  0.33826299969E+03  0.00000000000E+00 0. -1.
<mgrwt>
<rscale>  2 0.25205994E+03</rscale>
<asrwt>0</asrwt>
<pdfrwt beam="1">  1       21 0.28627525E-01 0.25205994E+03</pdfrwt>
<pdfrwt beam="2">  1       21 0.62207701E-01 0.25205994E+03</pdfrwt>
<totfact> 0.27142253E+04</totfact>
</mgrwt>
</event>
<event>
 4    1  0.6158309E+003  0.1069795E+03  0.7546771E-02  0.1266268E+00
         21   -1    0    0  504  501  0.00000000000E+00  0.00000000000E+00  0.33564775568E+03  0.33564775568E+03  0.00000000000E+00 0.  1.
         21   -1    0    0  503  502 -0.00000000000E+00 -0.00000000000E+00 -0.45830877095E+02  0.45830877095E+02  0.00000000000E+00 0.  1.
         21    1    1    2  503  501  0.37120186799E+02 -0.10033292172E+03  0.24142030166E+03  0.26406129118E+03  0.00000000000E+00 0.  1.
         21    1    1    2  504  502 -0.37120186799E+02  0.10033292172E+03  0.48396576932E+02  0.11741734160E+03  0.00000000000E+00 0.  1.
<mgrwt>
<rscale>  2 0.10697945E+03</rscale>
<asrwt>0</asrwt>
<pdfrwt beam="1">  1       21 0.51638115E-01 0.10697945E+03</pdfrwt>
<pdfrwt beam="2">  1       21 0.70509044E-02 0.10697945E+03</pdfrwt>
<totfact> 0.53727940E+05</totfact>
</mgrwt>
</event>
<event>
 4    1  0.6158309E+003  0.1333283E+03  0.7546771E-02  0.1222599E+00
         21   -1    0    0  503  501  0.00000000000E+00  0.00000000000E+00  0.55909360411E+02  0.55909360411E+02  0.00000000000E+00 0. -1.
         21   -1    0    0  504  502 -0.00000000000E+00 -0.00000000000E+00 -0.32877680202E+03  0.32877680202E+03  0.00000000000E+00 0. -1.
         21    1    1    2  503  502  0.35020799064E+02 -0.12864668852E+03 -0.17133647445E+03  0.21710047054E+03  0.00000000000E+00 0. -1.
         21    1    1    2  504  501 -0.35020799064E+02  0.12864668852E+03 -0.10153096717E+03  0.16758569189E+03  0.00000000000E+00 0. -1.
<mgrwt>
<rscale>  2 0.13332827E+03</rscale>
<asrwt>0</asrwt>
<pdfrwt beam="1">  1       21 0.86014401E-02 0.13332827E+03</pdfrwt>
<pdfrwt beam="2">  1       21 0.50581046E-01 0.13332827E+03</pdfrwt>
<totfact> 0.39748185E+05</totfact>
</mgrwt>
</event>
<event>
 4    1  0.6158309E+003  0.1829883E+03  0.7546771E-02  0.1164942E+00
         21   -1    0    0  504  501  0.00000000000E+00  0.00000000000E+00  0.50129563372E+03  0.50129563372E+03  0.00000000000E+00 0.  1.
         21   -1    0    0  501  502 -0.00000000000E+00 -0.00000000000E+00 -0.11738417388E+03  0.11738417388E+03  0.00000000000E+00 0. -1.
         21    1    1    2  503  502  0.55623716536E+02 -0.17432933700E+03 -0.11118211045E+02  0.18332574887E+03  0.00000000000E+00 0. -1.
         21    1    1    2  504  503 -0.55623716536E+02  0.17432933700E+03  0.39502967088E+03  0.43535405873E+03  0.00000000000E+00 0.  1.
<mgrwt>
<rscale>  2 0.18298829E+03</rscale>
<asrwt>0</asrwt>
<pdfrwt beam="1">  1       21 0.77122404E-01 0.18298829E+03</pdfrwt>
<pdfrwt beam="2">  1       21 0.18059104E-01 0.18298829E+03</pdfrwt>
<totfact> 0.41884802E+04</totfact>
</mgrwt>
</event>
<event>
 4    1  0.6158309E+003  0.1146824E+03  0.7546771E-02  0.1252137E+00
         21   -1    0    0  503  501  0.00000000000E+00  0.00000000000E+00  0.13760796293E+03  0.13760796293E+03  0.00000000000E+00 0. -1.
         21   -1    0    0  501  502 -0.00000000000E+00 -0.00000000000E+00 -0.27023805698E+03  0.27023805698E+03  0.00000000000E+00 0.  1.
         21    1    1    2  503  504  0.10379533557E+03 -0.48770691170E+02  0.97627607201E+02  0.15060943427E+03  0.00000000000E+00 0. -1.
         21    1    1    2  504  502 -0.10379533557E+03  0.48770691170E+02 -0.23025770126E+03  0.25723658564E+03  0.00000000000E+00 0.  1.
<mgrwt>
<rscale>  2 0.11468240E+03</rscale>
<asrwt>0</asrwt>
<pdfrwt beam="1">  1       21 0.21170456E-01 0.11468240E+03</pdfrwt>
<pdfrwt beam="2">  1       21 0.41575086E-01 0.11468240E+03</pdfrwt>
<totfact> 0.11892021E+05</totfact>
</mgrwt>
</event>
<event>
 4    1  0.6158309E+003  0.1500284E+03  0.7546771E-02  0.1200438E+00
         21   -1    0    0  503  501  0.00000000000E+00  0.00000000000E+00  0.25436432671E+03  0.25436432671E+03  0.00000000000E+00 0.  1.
         21   -1    0    0  501  502 -0.00000000000E+00 -0.00000000000E+00 -0.14487885746E+03  0.14487885746E+03  0.00000000000E+00 0.  1.
         21    1    1    2  503  504  0.13384408254E+03  0.67781148519E+02  0.17928143579E+03  0.23377415543E+03  0.00000000000E+00 0.  1.
         21    1    1    2  504  502 -0.13384408254E+03 -0.67781148519E+02 -0.69795966542E+02  0.16546902874E+03  0.00000000000E+00 0.  1.
<mgrwt>
<rscale>  2 0.15002841E+03</rscale>
<asrwt>0</asrwt>
<pdfrwt beam="1">  1       21 0.39132973E-01 0.15002841E+03</pdfrwt>
<pdfrwt beam="2">  1       21 0.22289055E-01 0.15002841E+03</pdfrwt>
<totfact> 0.12039260E+05</totfact>
</mgrwt>
</event>
<event>
 4    1  0.6158309E+003  0.1099887E+03  0.7546771E-02  0.1260591E+00
         21   -1    0    0  504  501  0.00000000000E+00  0.00000000000E+00  0.68795262801E+02  0.68795262801E+02  0.00000000000E+00 0. -1.
         21   -1    0    0  503  502 -0.00000000000E+00 -0.00000000000E+00 -0.35397919357E+03  0.35397919357E+03  0.00000000000E+00 0. -1.
         21    1    1    2  503  501  0.40385323484E+02 -0.10230605930E+03  0.73626918143E+01  0.11023481008E+03  0.00000000000E+00 0. -1.
         21    1    1    2  504  502 -0.40385323484E+02  0.10230605930E+03 -0.29254662259E+03  0.31253964630E+03  0.00000000000E+00 0. -1.
<mgrwt>
<rscale>  2 0.10998865E+03</rscale>
<asrwt>0</asrwt>
<pdfrwt beam="1">  1       21 0.10583886E-01 0.10998865E+03</pdfrwt>
<pdfrwt beam="2">  1       21 0.54458338E-01 0.10998865E+03</pdfrwt>
<totfact> 0.23870785E+05</totfact>
</mgrwt>
</event>
<event>
 4    1  0.6158309E+003  0.3377065E+03  0.7546771E-02  0.1067777E+00
         21   -1    0    0  504  501  0.00000000000E+00  0.00000000000E+00  0.10394361596E+04  0.10394361596E+04  0.00000000000E+00 0.  1.
         21   -1    0    0  503  502 -0.00000000000E+00 -0.00000000000E+00 -0.15274695277E+03  0.15274695277E+03  0.00000000000E+00 0.  1.
         21    1    1    2  503  501 -0.32016921697E+02 -0.33618532831E+03  0.75972035395E+03  0.83139682129E+03  0.00000000000E+00 0.  1.
         21    1    1    2  504  502  0.32016921697E+02  0.33618532831E+03  0.12696885290E+03  0.36078629111E+03  0.00000000000E+00 0.  1.
<mgrwt>
<rscale>  2 0.33770647E+03</rscale>
<asrwt>0</asrwt>
<pdfrwt beam="1">  1       21 0.15991325E+00 0.33770647E+03</pdfrwt>
<pdfrwt beam="2">  1       21 0.23499532E-01 0.33770647E+03</pdfrwt>
<totfact> 0.38974021E+03</totfact>
</mgrwt>
</event>
<event>
 4    1  0.6158309E+003  0.1094522E+03  0.7546771E-02  0.1261588E+00
         21   -1    0    0  504  501  0.00000000000E+00  0.00000000000E+00  0.57921234995E+02  0.57921234995E+02  0.00000000000E+00 0.  1.
         21   -1    0    0  503  502 -0.00000000000E+00 -0.00000000000E+00 -0.48572402987E+03  0.48572402987E+03  0.00000000000E+00 0.  1.
         21    1    1    2  503  501  0.10676961057E+03 -0.24083772263E+02 -0.41987491474E+03  0.43390635148E+03  0.00000000000E+00 0.  1.
         21    1    1    2  504  502 -0.10676961057E+03  0.24083772263E+02 -0.79278801350E+01  0.10973891338E+03  0.00000000000E+00 0.  1.
<mgrwt>
<rscale>  2 0.10945217E+03</rscale>
<asrwt>0</asrwt>
<pdfrwt beam="1">  1       21 0.89109591E-02 0.10945217E+03</pdfrwt>
<pdfrwt beam="2">  1       21 0.74726775E-01 0.10945217E+03</pdfrwt>
<totfact> 0.16379303E+05</totfact>
</mgrwt>
</event>
<event>
 4    1  0.6158309E+003  0.1254336E+03  0.7546771E-02  0.1234393E+00
         21   -1    0    0  504  501  0.00000000000E+00  0.00000000000E+00  0.27153145674E+03  0.27153145674E+03  0.00000000000E+00 0. -1.
         21   -1    0    0  501  502 -0.00000000000E+00 -0.00000000000E+00 -0.10015292728E+03  0.10015292728E+03  0.00000000000E+00 0. -1.
         21    1    1    2  503  502 -0.73945937493E+02  0.10131928437E+03 -0.34957318168E+02  0.13021372105E+03  0.00000000000E+00 0. -1.
         21    1    1    2  504  503  0.73945937493E+02 -0.10131928437E+03  0.20633584763E+03  0.24147066297E+03  0.00000000000E+00 0. -1.
<mgrwt>
<rscale>  2 0.12543364E+03</rscale>
<asrwt>0</asrwt>
<pdfrwt beam="1">  1       21 0.41774070E-01 0.12543364E+03</pdfrwt>
<pdfrwt beam="2">  1       21 0.15408143E-01 0.12543364E+03</pdfrwt>
<totfact> 0.20980449E+05</totfact>
</mgrwt>
</event>
<event>
 4    1  0.6158309E+003  0.1286402E+03  0.7546771E-02  0.1229487E+00
         21   -1    0    0  504  501  0.00000000000E+00  0.00000000000E+00  0.10539563485E+03  0.10539563485E+03  0.00000000000E+00 0. -1.
         21   -1    0    0  503  502 -0.00000000000E+00 -0.00000000000E+00 -0.16214987875E+03  0.16214987875E+03  0.00000000000E+00 0. -1.
         21    1    1    2  503  501  0.80663550445E+02  0.10020828224E+03 -0.45632592359E+01  0.12872113865E+03  0.00000000000E+00 0. -1.
         21    1    1    2  504  502 -0.80663550445E+02 -0.10020828224E+03 -0.52190984663E+02  0.13882437495E+03  0.00000000000E+00 0. -1.
<mgrwt>
<rscale>  2 0.12864023E+03</rscale>
<asrwt>0</asrwt>
<pdfrwt beam="1">  1       21 0.16214713E-01 0.12864023E+03</pdfrwt>
<pdfrwt beam="2">  1       21 0.24946135E-01 0.12864023E+03</pdfrwt>
<totfact> 0.52146599E+05</totfact>
</mgrwt>
</event>
<event>
 4    1  0.6158309E+003  0.1262264E+03  0.7546771E-02  0.1233165E+00
         21   -1    0    0  504  501  0.00000000000E+00  0.00000000000E+00  0.53079904518E+02  0.53079904518E+02  0.00000000000E+00 0. -1.
         21   -1    0    0  501  502 -0.00000000000E+00 -0.00000000000E+00 -0.14691920665E+04  0.14691920665E+04  0.00000000000E+00 0.  1.
         21    1    1    2  503  502 -0.10346567814E+03  0.72304584759E+02 -0.13870000838E+04  0.13927319670E+04  0.00000000000E+00 0.  1.
         21    1    1    2  504  503  0.10346567814E+03 -0.72304584759E+02 -0.29112078154E+02  0.12954000396E+03  0.00000000000E+00 0. -1.
<mgrwt>
<rscale>  2 0.12622638E+03</rscale>
<asrwt>0</asrwt>
<pdfrwt beam="1">  1       21 0.81661404E-02 0.12622638E+03</pdfrwt>
<pdfrwt beam="2">  1       21 0.22602952E+00 0.12622638E+03</pdfrwt>
<totfact> 0.11452750E+04</totfact>
</mgrwt>
</event>
<event>
 4    1  0.6158309E+003  0.3031708E+03  0.7546771E-02  0.1083666E+00
         21   -1    0    0  502  501  0.00000000000E+00  0.00000000000E+00  0.25288753449E+03  0.25288753449E+03  0.00000000000E+00 0. -1.
         21   -1    0    0  504  502 -0.00000000000E+00 -0.00000000000E+00 -0.72530829931E+03  0.72530829931E+03  0.00000000000E+00 0. -1.
         21    1    1    2  503  501 -0.25712220816E+03 -0.16062590713E+03  0.10925336758E+03  0.32225581500E+03  0.00000000000E+00 0. -1.
         21    1    1    2  504  503  0.25712220816E+03  0.16062590713E+03 -0.58167413240E+03  0.65594001880E+03  0.00000000000E+00 0. -1.
<mgrwt>
<rscale>  2 0.30317076E+03</rscale>
<asrwt>0</asrwt>
<pdfrwt beam="1">  1       21 0.38905775E-01 0.30317076E+03</pdfrwt>
<pdfrwt beam="2">  1       21 0.11158589E+00 0.30317076E+03</pdfrwt>
<totfact> 0.37297928E+03</totfact>
</mgrwt>
</event>
<event>
 4    1  0.6158309E+003  0.1669545E+03  0.7546771E-02  0.1181062E+00
         21   -1    0    0  503  501  0.00000000000E+00  0.00000000000E+00  0.33428473568E+03  0.33428473568E+03  0.00000000000E+00 0. -1.
         21   -1    0    0  504  502 -0.00000000000E+00 -0.00000000000E+00 -0.95560512728E+02  0.95560512728E+02  0.00000000000E+00 0. -1.
         21    1    1    2  503  502 -0.20008731905E+02  0.16575119186E+03  0.42641054862E+02  0.17231386049E+03  0.00000000000E+00 0. -1.
         21    1    1    2  504  501  0.20008731905E+02 -0.16575119186E+03  0.19608316809E+03  0.25753138792E+03  0.00000000000E+00 0. -1.
<mgrwt>
<rscale>  2 0.16695451E+03</rscale>
<asrwt>0</asrwt>
<pdfrwt beam="1">  1       21 0.51428420E-01 0.16695451E+03</pdfrwt>
<pdfrwt beam="2">  1       21 0.14701618E-01 0.16695451E+03</pdfrwt>
<totfact> 0.14745516E+05</totfact>
</mgrwt>
</event>
<event>
 4    1  0.6158309E+003  0.1153549E+03  0.7546771E-02  0.1250963E+00
         21   -1    0    0  504  501  0.00000000000E+00  0.00000000000E+00  0.22767696870E+03  0.22767696870E+03  0.00000000000E+00 0.  1.
         21   -1    0    0  503  502 -0.00000000000E+00 -0.00000000000E+00 -0.85788044578E+02  0.85788044578E+02  0.00000000000E+00 0.  1.
         21    1    1    2  503  501  0.42333438299E+02 -0.10730623490E+03  0.15942816390E+03  0.19678436801E+03  0.00000000000E+00 0.  1.
         21    1    1    2  504  502 -0.42333438299E+02  0.10730623490E+03 -0.17539239783E+02  0.11668064527E+03  0.00000000000E+00 0.  1.
<mgrwt>
<rscale>  2 0.11535488E+03</rscale>
<asrwt>0</asrwt>
<pdfrwt beam="1">  1       21 0.35027226E-01 0.11535488E+03</pdfrwt>
<pdfrwt beam="2">  1       21 0.13198161E-01 0.11535488E+03</pdfrwt>
<totfact> 0.39346179E+05</totfact>
</mgrwt>
</event>
<event>
 4    1  0.6158309E+003  0.1380274E+03  0.7546771E-02  0.1216008E+00
         21   -1    0    0  504  501  0.00000000000E+00  0.00000000000E+00  0.79403736838E+02  0.79403736838E+02  0.00000000000E+00 0. -1.
         21   -1    0    0  503  502 -0.00000000000E+00 -0.00000000000E+00 -0.25101649702E+03  0.25101649702E+03  0.00000000000E+00 0. -1.
         21    1    1    2  503  501  0.97888236035E+02  0.97311112262E+02 -0.12052226344E+03  0.18324075777E+03  0.00000000000E+00 0. -1.
         21    1    1    2  504  502 -0.97888236035E+02 -0.97311112262E+02 -0.51090496739E+02  0.14717947609E+03  0.00000000000E+00 0. -1.
<mgrwt>
<rscale>  2 0.13802739E+03</rscale>
<asrwt>0</asrwt>
<pdfrwt beam="1">  1       21 0.12215959E-01 0.13802739E+03</pdfrwt>
<pdfrwt beam="2">  1       21 0.38617923E-01 0.13802739E+03</pdfrwt>
<totfact> 0.37118896E+05</totfact>
</mgrwt>
</event>
<event>
 4    1  0.6158309E+003  0.1236056E+03  0.7546771E-02  0.1237265E+00
         21   -1    0    0  503  501  0.00000000000E+00  0.00000000000E+00  0.54768736235E+03  0.54768736235E+03  0.00000000000E+00 0.  1.
         21   -1    0    0  501  502 -0.00000000000E+00 -0.00000000000E+00 -0.29635319322E+02  0.29635319322E+02  0.00000000000E+00 0. -1.
         21    1    1    2  503  504 -0.11597343969E+03  0.42760887870E+02  0.32895595069E+03  0.35141193739E+03  0.00000000000E+00 0. -1.
         21    1    1    2  504  502  0.11597343969E+03 -0.42760887870E+02  0.18909609234E+03  0.22591074429E+03  0.00000000000E+00 0.  1.
<mgrwt>
<rscale>  2 0.12360555E+03</rscale>
<asrwt>0</asrwt>
<pdfrwt beam="1">  1       21 0.84259587E-01 0.12360555E+03</pdfrwt>
<pdfrwt beam="2">  1       21 0.45592803E-02 0.12360555E+03</pdfrwt>
<totfact> 0.38976249E+05</totfact>
</mgrwt>
</event>
<event>
 4    1  0.6158309E+003  0.1047045E+03  0.7546771E-02  0.1270703E+00
         21   -1    0    0  503  501  0.00000000000E+00  0.00000000000E+00  0.22894019636E+02  0.22894019636E+02  0.00000000000E+00 0. -1.
         21   -1    0    0  504  502 -0.00000000000E+00 -0.00000000000E+00 -0.51298682890E+03  0.51298682890E+03  0.00000000000E+00 0. -1.
         21    1    1    2  503  502 -0.44996901408E+02 -0.94542644753E+02 -0.31415505100E+03  0.33114412102E+03  0.00000000000E+00 0. -1.
         21    1    1    2  504  501  0.44996901408E+02  0.94542644753E+02 -0.17593775826E+03  0.20473672751E+03  0.00000000000E+00 0. -1.
<mgrwt>
<rscale>  2 0.10470450E+03</rscale>
<asrwt>0</asrwt>
<pdfrwt beam="1">  1       21 0.35221569E-02 0.10470450E+03</pdfrwt>
<pdfrwt beam="2">  1       21 0.78921050E-01 0.10470450E+03</pdfrwt>
<totfact> 0.69312186E+05</totfact>
</mgrwt>
</event>
<event>
 4    1  0.6158309E+003  0.1172122E+03  0.7546771E-02  0.1247768E+00
         21   -1    0    0  502  501  0.00000000000E+00  0.00000000000E+00  0.25718807619E+03  0.25718807619E+03  0.00000000000E+00 0.  1.
         21   -1    0    0  504  502 -0.00000000000E+00 -0.00000000000E+00 -0.10201462138E+03  0.10201462138E+03  0.00000000000E+00 0. -1.
         21    1    1    2  503  501 -0.66334081273E+02  0.96635911054E+02  0.20154551035E+03  0.23315081468E+03  0.00000000000E+00 0.  1.
         21    1    1    2  504  503  0.66334081273E+02 -0.96635911054E+02 -0.46372055544E+02  0.12605188289E+03  0.00000000000E+00 0. -1.
<mgrwt>
<rscale>  2 0.11721224E+03</rscale>
<asrwt>0</asrwt>
<pdfrwt beam="1">  1       21 0.39567396E-01 0.11721224E+03</pdfrwt>
<pdfrwt beam="2">  1       21 0.15694557E-01 0.11721224E+03</pdfrwt>
<totfact> 0.22669162E+05</totfact>
</mgrwt>
</event>
<event>
 4    1  0.6158309E+003  0.1200455E+03  0.7546771E-02  0.1243022E+00
         21   -1    0    0  503  501  0.00000000000E+00  0.00000000000E+00  0.16289181132E+03  0.16289181132E+03  0.00000000000E+00 0.  1.
         21   -1    0    0  504  502 -0.00000000000E+00 -0.00000000000E+00 -0.96396523674E+02  0.96396523674E+02  0.00000000000E+00 0.  1.
         21    1    1    2  503  502 -0.69316912394E+02  0.98010666038E+02 -0.39300779483E+01  0.12010982688E+03  0.00000000000E+00 0.  1.
         21    1    1    2  504  501  0.69316912394E+02 -0.98010666038E+02  0.70425365594E+02  0.13917850811E+03  0.00000000000E+00 0.  1.
<mgrwt>
<rscale>  2 0.12004551E+03</rscale>
<asrwt>0</asrwt>
<pdfrwt beam="1">  1       21 0.25060279E-01 0.12004551E+03</pdfrwt>
<pdfrwt beam="2">  1       21 0.14830234E-01 0.12004551E+03</pdfrwt>
<totfact> 0.60761336E+05</totfact>
</mgrwt>
</event>
<event>
 4    1  0.6158309E+003  0.1024370E+03  0.7546771E-02  0.1275253E+00
         21   -1    0    0  504  501  0.00000000000E+00  0.00000000000E+00  0.35249869330E+03  0.35249869330E+03  0.00000000000E+00 0.  1.
         21   -1    0    0  503  502 -0.00000000000E+00 -0.00000000000E+00 -0.11254481105E+03  0.11254481105E+03  0.00000000000E+00 0.  1.
         21    1    1    2  503  501  0.85746452855E+02  0.56043544693E+02 -0.79436332667E+02  0.12962817605E+03  0.00000000000E+00 0.  1.
         21    1    1    2  504  502 -0.85746452855E+02 -0.56043544693E+02  0.31939021491E+03  0.33541532830E+03  0.00000000000E+00 0.  1.
<mgrwt>
<rscale>  2 0.10243697E+03</rscale>
<asrwt>0</asrwt>
<pdfrwt beam="1">  1       21 0.54230568E-01 0.10243697E+03</pdfrwt>
<pdfrwt beam="2">  1       21 0.17314586E-01 0.10243697E+03</pdfrwt>
<totfact> 0.10055989E+05</totfact>
</mgrwt>
</event>
<event>
 4    1  0.6158309E+003  0.1023256E+03  0.7546771E-02  0.1275480E+00
         21   -1    0    0  504  501  0.00000000000E+00  0.00000000000E+00  0.21354936735E+03  0.21354936735E+03  0.00000000000E+00 0. -1.
         21   -1    0    0  503  502 -0.00000000000E+00 -0.00000000000E+00 -0.16635988577E+03  0.16635988577E+03  0.00000000000E+00 0. -1.
         21    1    1    2  503  501 -0.10142008935E+03 -0.13583006470E+02 -0.13593001851E+03  0.17013965593E+03  0.00000000000E+00 0. -1.
         21    1    1    2  504  502  0.10142008935E+03  0.13583006470E+02  0.18311950009E+03  0.20976959718E+03  0.00000000000E+00 0. -1.
<mgrwt>
<rscale>  2 0.10232562E+03</rscale>
<asrwt>0</asrwt>
<pdfrwt beam="1">  1       21 0.32853749E-01 0.10232562E+03</pdfrwt>
<pdfrwt beam="2">  1       21 0.25593828E-01 0.10232562E+03</pdfrwt>
<totfact> 0.13330454E+05</totfact>
</mgrwt>
</event>
<event>
 4    1  0.6158309E+003  0.1008027E+03  0.7546771E-02  0.1278617E+00
         21   -1    0    0  503  501  0.00000000000E+00  0.00000000000E+00  0.12033185793E+04  0.12033185793E+04  0.00000000000E+00 0. -1.
         21   -1    0    0  504  502 -0.00000000000E+00 -0.00000000000E+00 -0.14830720333E+02  0.14830720333E+02  0.00000000000E+00 0. -1.
         21    1    1    2  503  502 -0.81560796178E+02 -0.59236965996E+02  0.99392924484E+03  0.99902779009E+03  0.00000000000E+00 0. -1.
         21    1    1    2  504  501  0.81560796178E+02  0.59236965996E+02  0.19455861409E+03  0.21912150951E+03  0.00000000000E+00 0. -1.
<mgrwt>
<rscale>  2 0.10080269E+03</rscale>
<asrwt>0</asrwt>
<pdfrwt beam="1">  1       21 0.18512586E+00 0.10080269E+03</pdfrwt>
<pdfrwt beam="2">  1       21 0.22816502E-02 0.10080269E+03</pdfrwt>
<totfact> 0.17518108E+05</totfact>
</mgrwt>
</event>
<event>
 4    1  0.6158309E+003  0.1019342E+03  0.7546771E-02  0.1276280E+00
         21   -1    0    0  503  501  0.00000000000E+00  0.00000000000E+00  0.61283973527E+02  0.61283973527E+02  0.00000000000E+00 0.  1.
         21   -1    0    0  504  502 -0.00000000000E+00 -0.00000000000E+00 -0.18683536878E+03  0.18683536878E+03  0.00000000000E+00 0.  1.
         21    1    1    2  503  502 -0.99635757560E+02 -0.21524447502E+02 -0.10051234355E+03  0.14315487149E+03  0.00000000000E+00 0.  1.
         21    1    1    2  504  501  0.99635757560E+02  0.21524447502E+02 -0.25039051708E+02  0.10496447082E+03  0.00000000000E+00 0.  1.
<mgrwt>
<rscale>  2 0.10193422E+03</rscale>
<asrwt>0</asrwt>
<pdfrwt beam="1">  1       21 0.94283037E-02 0.10193422E+03</pdfrwt>
<pdfrwt beam="2">  1       21 0.28743903E-01 0.10193422E+03</pdfrwt>
<totfact> 0.10401320E+06</totfact>
</mgrwt>
</event>
<event>
 4    1  0.6158309E+003  0.1002297E+03  0.7546771E-02  0.1279814E+00
         21   -1    0    0  503  501  0.00000000000E+00  0.00000000000E+00  0.22074743917E+03  0.22074743917E+03  0.00000000000E+00 0. -1.
         21   -1    0    0  504  502 -0.00000000000E+00 -0.00000000000E+00 -0.54352200994E+02  0.54352200994E+02  0.00000000000E+00 0. -1.
         21    1    1    2  503  502 -0.18098000207E+02  0.98582228400E+02  0.27715069275E+02  0.10399095361E+03  0.00000000000E+00 0. -1.
         21    1    1    2  504  501  0.18098000207E+02 -0.98582228400E+02  0.13868016890E+03  0.17110868655E+03  0.00000000000E+00 0. -1.
<mgrwt>
<rscale>  2 0.10022970E+03</rscale>
<asrwt>0</asrwt>
<pdfrwt beam="1">  1       21 0.33961144E-01 0.10022970E+03</pdfrwt>
<pdfrwt beam="2">  1       21 0.83618772E-02 0.10022970E+03</pdfrwt>
<totfact> 0.92776934E+05</totfact>
</mgrwt>
</event>
<event>
 4    1  0.6158309E+003  0.1413167E+03  0.7546771E-02  0.1211568E+00
         21   -1    0    0  504  501  0.00000000000E+00  0.00000000000E+00  0.20071720163E+03  0.20071720163E+03  0.00000000000E+00 0.  1.
         21   -1    0    0  503  502 -0.00000000000E+00 -0.00000000000E+00 -0.19600207433E+03  0.19600207433E+03  0.00000000000E+00 0.  1.
         21    1    1    2  503  501  0.12180380013E+03  0.71653627558E+02 -0.13683049793E+03  0.19670534622E+03  0.00000000000E+00 0.  1.
         21    1    1    2  504  502 -0.12180380013E+03 -0.71653627558E+02  0.14154562523E+03  0.20001392974E+03  0.00000000000E+00 0.  1.
<mgrwt>
<rscale>  2 0.14131669E+03</rscale>
<asrwt>0</asrwt>
<pdfrwt beam="1">  1       21 0.30879570E-01 0.14131669E+03</pdfrwt>
<pdfrwt beam="2">  1       21 0.30154165E-01 0.14131669E+03</pdfrwt>
<totfact> 0.10829582E+05</totfact>
</mgrwt>
</event>
<event>
 4    1  0.6158309E+003  0.1553832E+03  0.7546771E-02  0.1194010E+00
         21   -1    0    0  502  501  0.00000000000E+00  0.00000000000E+00  0.58703065456E+03  0.58703065456E+03  0.00000000000E+00 0. -1.
         21   -1    0    0  503  502 -0.00000000000E+00 -0.00000000000E+00 -0.18565326899E+03  0.18565326899E+03  0.00000000000E+00 0.  1.
         21    1    1    2  503  504 -0.13312348099E+03  0.80137923888E+02 -0.14018309831E+03  0.20927314469E+03  0.00000000000E+00 0.  1.
         21    1    1    2  504  501  0.13312348099E+03 -0.80137923888E+02  0.54156048388E+03  0.56341077886E+03  0.00000000000E+00 0. -1.
<mgrwt>
<rscale>  2 0.15538323E+03</rscale>
<asrwt>0</asrwt>
<pdfrwt beam="1">  1       21 0.90312408E-01 0.15538323E+03</pdfrwt>
<pdfrwt beam="2">  1       21 0.28562042E-01 0.15538323E+03</pdfrwt>
<totfact> 0.12546050E+04</totfact>
</mgrwt>
</event>
<event>
 4    1  0.6158309E+003  0.1103301E+03  0.7546771E-02  0.1259960E+00
         21   -1    0    0  503  501  0.00000000000E+00  0.00000000000E+00  0.55953973202E+02  0.55953973202E+02  0.00000000000E+00 0.  1.
         21   -1    0    0  501  502 -0.00000000000E+00 -0.00000000000E+00 -0.43721417124E+03  0.43721417124E+03  0.00000000000E+00 0.  1.
         21    1    1    2  503  504 -0.96840166515E+02  0.52864973826E+02 -0.15847319516E+02  0.11146237412E+03  0.00000000000E+00 0.  1.
         21    1    1    2  504  502  0.96840166515E+02 -0.52864973826E+02 -0.36541287852E+03  0.38170577032E+03  0.00000000000E+00 0.  1.
<mgrwt>
<rscale>  2 0.11033007E+03</rscale>
<asrwt>0</asrwt>
<pdfrwt beam="1">  1       21 0.86083037E-02 0.11033007E+03</pdfrwt>
<pdfrwt beam="2">  1       21 0.67263718E-01 0.11033007E+03</pdfrwt>
<totfact> 0.21850998E+05</totfact>
</mgrwt>
</event>
<event>
 4    1  0.6158309E+003  0.1249549E+03  0.7546771E-02  0.1235140E+00
         21   -1    0    0  504  501  0.00000000000E+00  0.00000000000E+00  0.99241853962E+02  0.99241853962E+02  0.00000000000E+00 0. -1.
         21   -1    0    0  503  502 -0.00000000000E+00 -0.00000000000E+00 -0.15776688577E+03  0.15776688577E+03  0.00000000000E+00 0.  1.
         21    1    1    2  503  501  0.30816211484E+02 -0.12109533257E+03 -0.22500034850E+02  0.12696444395E+03  0.00000000000E+00 0.  1.
         21    1    1    2  504  502 -0.30816211484E+02  0.12109533257E+03 -0.36024996963E+02  0.13004429578E+03  0.00000000000E+00 0. -1.
<mgrwt>
<rscale>  2 0.12495487E+03</rscale>
<asrwt>0</asrwt>
<pdfrwt beam="1">  1       21 0.15267978E-01 0.12495487E+03</pdfrwt>
<pdfrwt beam="2">  1       21 0.24271828E-01 0.12495487E+03</pdfrwt>
<totfact> 0.61233823E+05</totfact>
</mgrwt>
</event>
<event>
 4    1  0.6158309E+003  0.1204941E+03  0.7546771E-02  0.1242284E+00
         21   -1    0    0  503  501  0.00000000000E+00  0.00000000000E+00  0.62362681809E+03  0.62362681809E+03  0.00000000000E+00 0.  1.
         21   -1    0    0  504  502 -0.00000000000E+00 -0.00000000000E+00 -0.31516663883E+02  0.31516663883E+02  0.00000000000E+00 0.  1.
         21    1    1    2  503  502 -0.28140303700E+02 -0.11716202872E+03  0.46350261970E+03  0.47890865114E+03  0.00000000000E+00 0.  1.
         21    1    1    2  504  501  0.28140303700E+02  0.11716202872E+03  0.12860753451E+03  0.17623483083E+03  0.00000000000E+00 0.  1.
<mgrwt>
<rscale>  2 0.12049406E+03</rscale>
<asrwt>0</asrwt>
<pdfrwt beam="1">  1       21 0.95942578E-01 0.12049406E+03</pdfrwt>
<pdfrwt beam="2">  1       21 0.48487180E-02 0.12049406E+03</pdfrwt>
<totfact> 0.26163530E+05</totfact>
</mgrwt>
</event>
<event>
 4    1  0.6158309E+003  0.1142728E+03  0.7546771E-02  0.1252856E+00
         21   -1    0    0  503  501  0.00000000000E+00  0.00000000000E+00  0.75349188332E+02  0.75349188332E+02  0.00000000000E+00 0.  1.
         21   -1    0    0  504  502 -0.00000000000E+00 -0.00000000000E+00 -0.30562633733E+03  0.30562633733E+03  0.00000000000E+00 0. -1.
         21    1    1    2  503  502 -0.11383865662E+03  0.99510233991E+01 -0.24047849986E+03  0.26624832676E+03  0.00000000000E+00 0. -1.
         21    1    1    2  504  501  0.11383865662E+03 -0.99510233991E+01  0.10201350861E+02  0.11472719890E+03  0.00000000000E+00 0.  1.
<mgrwt>
<rscale>  2 0.11427276E+03</rscale>
<asrwt>0</asrwt>
<pdfrwt beam="1">  1       21 0.11592182E-01 0.11427276E+03</pdfrwt>
<pdfrwt beam="2">  1       21 0.47019438E-01 0.11427276E+03</pdfrwt>
<totfact> 0.27502519E+05</totfact>
</mgrwt>
</event>
<event>
 4    1  0.6158309E+003  0.1092027E+03  0.7546771E-02  0.1262054E+00
         21   -1    0    0  504  501  0.00000000000E+00  0.00000000000E+00  0.49966483907E+02  0.49966483907E+02  0.00000000000E+00 0. -1.
         21   -1    0    0  503  502 -0.00000000000E+00 -0.00000000000E+00 -0.34264831807E+03  0.34264831807E+03  0.00000000000E+00 0. -1.
         21    1    1    2  503  501  0.97091324919E+02 -0.49985012114E+02 -0.25448312017E+03  0.27692397018E+03  0.00000000000E+00 0. -1.
         21    1    1    2  504  502 -0.97091324919E+02  0.49985012114E+02 -0.38198713995E+02  0.11569083180E+03  0.00000000000E+00 0. -1.
<mgrwt>
<rscale>  2 0.10920269E+03</rscale>
<asrwt>0</asrwt>
<pdfrwt beam="1">  1       21 0.76871512E-02 0.10920269E+03</pdfrwt>
<pdfrwt beam="2">  1       21 0.52715127E-01 0.10920269E+03</pdfrwt>
<totfact> 0.44416048E+05</totfact>
</mgrwt>
</event>
<event>
 4    1  0.6158309E+003  0.1052675E+03  0.7546771E-02  0.1269594E+00
         21   -1    0    0  504  501  0.00000000000E+00  0.00000000000E+00  0.41941033979E+02  0.41941033979E+02  0.00000000000E+00 0. -1.
         21   -1    0    0  503  502 -0.00000000000E+00 -0.00000000000E+00 -0.31094307629E+03  0.31094307629E+03  0.00000000000E+00 0. -1.
         21    1    1    2  503  501 -0.53394585437E+02 -0.90720764199E+02 -0.20290384709E+03  0.22858523569E+03  0.00000000000E+00 0. -1.
         21    1    1    2  504  502  0.53394585437E+02  0.90720764199E+02 -0.66098195223E+02  0.12429887458E+03  0.00000000000E+00 0. -1.
<mgrwt>
<rscale>  2 0.10526746E+03</rscale>
<asrwt>0</asrwt>
<pdfrwt beam="1">  1       21 0.64524667E-02 0.10526746E+03</pdfrwt>
<pdfrwt beam="2">  1       21 0.47837397E-01 0.10526746E+03</pdfrwt>
<totfact> 0.73061392E+05</totfact>
</mgrwt>
</event>
<event>
 4    1  0.6158309E+003  0.1081583E+03  0.7546771E-02  0.1264019E+00
         21   -1    0    0  503  501  0.00000000000E+00  0.00000000000E+00  0.47264046747E+03  0.47264046747E+03  0.00000000000E+00 0.  1.
         21   -1    0    0  504  502 -0.00000000000E+00 -0.00000000000E+00 -0.61878375185E+03  0.61878375185E+03  0.00000000000E+00 0. -1.
         21    1    1    2  503  502 -0.51847635825E+02 -0.94921286376E+02 -0.60775837745E+03  0.61730743824E+03  0.00000000000E+00 0. -1.
         21    1    1    2  504  501  0.51847635825E+02  0.94921286376E+02  0.46161509307E+03  0.47411678108E+03  0.00000000000E+00 0.  1.
<mgrwt>
<rscale>  2 0.10815835E+03</rscale>
<asrwt>0</asrwt>
<pdfrwt beam="1">  1       21 0.72713918E-01 0.10815835E+03</pdfrwt>
<pdfrwt beam="2">  1       21 0.95197500E-01 0.10815835E+03</pdfrwt>
<totfact> 0.17332346E+03</totfact>
</mgrwt>
</event>
<event>
 4    1  0.6158309E+003  0.1036872E+03  0.7546771E-02  0.1272728E+00
         21   -1    0    0  504  501  0.00000000000E+00  0.00000000000E+00  0.10074436375E+04  0.10074436375E+04  0.00000000000E+00 0. -1.
         21   -1    0    0  501  502 -0.00000000000E+00 -0.00000000000E+00 -0.18004092236E+02  0.18004092236E+02  0.00000000000E+00 0. -1.
         21    1    1    2  503  502 -0.53531577003E+01  0.10354892153E+03  0.16751191396E+03  0.19700577851E+03  0.00000000000E+00 0. -1.
         21    1    1    2  504  503  0.53531577003E+01 -0.10354892153E+03  0.82192763132E+03  0.82844195124E+03  0.00000000000E+00 0. -1.
<mgrwt>
<rscale>  2 0.10368720E+03</rscale>
<asrwt>0</asrwt>
<pdfrwt beam="1">  1       21 0.15499128E+00 0.10368720E+03</pdfrwt>
<pdfrwt beam="2">  1       21 0.27698611E-02 0.10368720E+03</pdfrwt>
<totfact> 0.20549667E+05</totfact>
</mgrwt>
</event>
<event>
 4    1  0.6158309E+003  0.1065069E+03  0.7546771E-02  0.1267179E+00
         21   -1    0    0  503  501  0.00000000000E+00  0.00000000000E+00  0.19829301611E+02  0.19829301611E+02  0.00000000000E+00 0. -1.
         21   -1    0    0  504  502 -0.00000000000E+00 -0.00000000000E+00 -0.65915420214E+03  0.65915420214E+03  0.00000000000E+00 0.  1.
         21    1    1    2  503  502 -0.87523761759E+02 -0.60690298108E+02 -0.44306065770E+03  0.45568241963E+03  0.00000000000E+00 0.  1.
         21    1    1    2  504  501  0.87523761759E+02  0.60690298108E+02 -0.19626424283E+03  0.22330108412E+03  0.00000000000E+00 0. -1.
<mgrwt>
<rscale>  2 0.10650691E+03</rscale>
<asrwt>0</asrwt>
<pdfrwt beam="1">  1       21 0.30506618E-02 0.10650691E+03</pdfrwt>
<pdfrwt beam="2">  1       21 0.10140834E+00 0.10650691E+03</pdfrwt>
<totfact> 0.49633030E+05</totfact>
</mgrwt>
</event>
<event>
 4    1  0.6158309E+003  0.1022979E+03  0.7546771E-02  0.1275537E+00
         21   -1    0    0  503  501  0.00000000000E+00  0.00000000000E+00  0.47724196880E+02  0.47724196880E+02  0.00000000000E+00 0. -1.
         21   -1    0    0  504  502 -0.00000000000E+00 -0.00000000000E+00 -0.25409998472E+03  0.25409998472E+03  0.00000000000E+00 0.  1.
         21    1    1    2  503  502 -0.57230476474E+02 -0.84791062103E+02 -0.47321529516E+02  0.11271281562E+03  0.00000000000E+00 0. -1.
         21    1    1    2  504  501  0.57230476474E+02  0.84791062103E+02 -0.15905425832E+03  0.18911136597E+03  0.00000000000E+00 0.  1.
<mgrwt>
<rscale>  2 0.10229786E+03</rscale>
<asrwt>0</asrwt>
<pdfrwt beam="1">  1       21 0.73421841E-02 0.10229786E+03</pdfrwt>
<pdfrwt beam="2">  1       21 0.39092306E-01 0.10229786E+03</pdfrwt>
<totfact> 0.87974118E+05</totfact>
</mgrwt>
</event>
<event>
 4    1  0.6158309E+003  0.1871079E+03  0.7546771E-02  0.1161096E+00
         21   -1    0    0  503  501  0.00000000000E+00  0.00000000000E+00  0.73474052587E+03  0.73474052587E+03  0.00000000000E+00 0.  1.
         21   -1    0    0  501  502 -0.00000000000E+00 -0.00000000000E+00 -0.15301905314E+03  0.15301905314E+03  0.00000000000E+00 0.  1.
         21    1    1    2  503  504 -0.51702580783E+02 -0.17982273389E+03  0.65920337756E+03  0.68524336222E+03  0.00000000000E+00 0.  1.
         21    1    1    2  504  502  0.51702580783E+02  0.17982273389E+03 -0.77481904832E+02  0.20251621678E+03  0.00000000000E+00 0.  1.
<mgrwt>
<rscale>  2 0.18710792E+03</rscale>
<asrwt>0</asrwt>
<pdfrwt beam="1">  1       21 0.11303700E+00 0.18710792E+03</pdfrwt>
<pdfrwt beam="2">  1       21 0.23541393E-01 0.18710792E+03</pdfrwt>
<totfact> 0.10423528E+04</totfact>
</mgrwt>
</event>
<event>
 4    1  0.6158309E+003  0.1005579E+03  0.7546771E-02  0.1279127E+00
         21   -1    0    0  502  501  0.00000000000E+00  0.00000000000E+00  0.51703440046E+02  0.51703440046E+02  0.00000000000E+00 0.  1.
         21   -1    0    0  503  502 -0.00000000000E+00 -0.00000000000E+00 -0.20735784396E+03  0.20735784396E+03  0.00000000000E+00 0.  1.
         21    1    1    2  503  504 -0.77485219815E+02  0.64093191753E+02 -0.10870445736E+03  0.14808293477E+03  0.00000000000E+00 0.  1.
         21    1    1    2  504  501  0.77485219815E+02 -0.64093191753E+02 -0.46949946556E+02  0.11097834924E+03  0.00000000000E+00 0.  1.
<mgrwt>
<rscale>  2 0.10055793E+03</rscale>
<asrwt>0</asrwt>
<pdfrwt beam="1">  1       21 0.79543754E-02 0.10055793E+03</pdfrwt>
<pdfrwt beam="2">  1       21 0.31901207E-01 0.10055793E+03</pdfrwt>
<totfact> 0.11410117E+06</totfact>
</mgrwt>
</event>
<event>
 4    1  0.6158309E+003  0.1031943E+03  0.7546771E-02  0.1273719E+00
         21   -1    0    0  504  501  0.00000000000E+00  0.00000000000E+00  0.48286503869E+02  0.48286503869E+02  0.00000000000E+00 0. -1.
         21   -1    0    0  503  502 -0.00000000000E+00 -0.00000000000E+00 -0.23406160855E+03  0.23406160855E+03  0.00000000000E+00 0.  1.
         21    1    1    2  503  501 -0.11002595084E+02  0.10260610276E+03 -0.12682006342E+03  0.16350045231E+03  0.00000000000E+00 0.  1.
         21    1    1    2  504  502  0.11002595084E+02 -0.10260610276E+03 -0.58955041258E+02  0.11884766010E+03  0.00000000000E+00 0. -1.
<mgrwt>
<rscale>  2 0.10319433E+03</rscale>
<asrwt>0</asrwt>
<pdfrwt beam="1">  1       21 0.74286930E-02 0.10319433E+03</pdfrwt>
<pdfrwt beam="2">  1       21 0.36009478E-01 0.10319433E+03</pdfrwt>
<totfact> 0.10138387E+06</totfact>
</mgrwt>
</event>
<event>
 4    1  0.6158309E+003  0.1220121E+03  0.7546771E-02  0.1239814E+00
         21   -1    0    0  502  501  0.00000000000E+00  0.00000000000E+00  0.27345343290E+03  0.27345343290E+03  0.00000000000E+00 0. -1.
         21   -1    0    0  504  502 -0.00000000000E+00 -0.00000000000E+00 -0.13682175712E+03  0.13682175712E+03  0.00000000000E+00 0.  1.
         21    1    1    2  503  501 -0.77684643632E+02  0.94085325521E+02  0.22749337545E+03  0.25814760934E+03  0.00000000000E+00 0. -1.
         21    1    1    2  504  503  0.77684643632E+02 -0.94085325521E+02 -0.90861699677E+02  0.15212758068E+03  0.00000000000E+00 0.  1.
<mgrwt>
<rscale>  2 0.12201210E+03</rscale>
<asrwt>0</asrwt>
<pdfrwt beam="1">  1       21 0.42069759E-01 0.12201210E+03</pdfrwt>
<pdfrwt beam="2">  1       21 0.21049501E-01 0.12201210E+03</pdfrwt>
<totfact> 0.11702722E+05</totfact>
</mgrwt>
</event>
<event>
 4    1  0.6158309E+003  0.1540022E+03  0.7546771E-02  0.1195640E+00
         21   -1    0    0  503  501  0.00000000000E+00  0.00000000000E+00  0.23142265774E+03  0.23142265774E+03  0.00000000000E+00 0. -1.
         21   -1    0    0  501  502 -0.00000000000E+00 -0.00000000000E+00 -0.12439125397E+04  0.12439125397E+04  0.00000000000E+00 0. -1.
         21    1    1    2  503  504  0.35336192325E+02 -0.14989335128E+03  0.20038254084E+03  0.25272480274E+03  0.00000000000E+00 0. -1.
         21    1    1    2  504  502 -0.35336192325E+02  0.14989335128E+03 -0.12128724228E+04  0.12226103947E+04  0.00000000000E+00 0. -1.
<mgrwt>
<rscale>  2 0.15400215E+03</rscale>
<asrwt>0</asrwt>
<pdfrwt beam="1">  1       21 0.35603486E-01 0.15400215E+03</pdfrwt>
<pdfrwt beam="2">  1       21 0.19137116E+00 0.15400215E+03</pdfrwt>
<totfact> 0.12168930E+03</totfact>
</mgrwt>
</event>
<event>
 4    1  0.6158309E+003  0.3305795E+03  0.7546771E-02  0.1070881E+00
         21   -1    0    0  503  501  0.00000000000E+00  0.00000000000E+00  0.34554646636E+03  0.34554646636E+03  0.00000000000E+00 0. -1.
         21   -1    0    0  504  502 -0.00000000000E+00 -0.00000000000E+00 -0.31635440125E+03  0.31635440125E+03  0.00000000000E+00 0. -1.
         21    1    1    2  503  502 -0.26152587297E+03  0.20220541160E+03  0.20287937168E+02  0.33120146604E+03  0.00000000000E+00 0. -1.
         21    1    1    2  504  501  0.26152587297E+03 -0.20220541160E+03  0.89041279417E+01  0.33069940158E+03  0.00000000000E+00 0. -1.
<mgrwt>
<rscale>  2 0.33057951E+03</rscale>
<asrwt>0</asrwt>
<pdfrwt beam="1">  1       21 0.53160995E-01 0.33057951E+03</pdfrwt>
<pdfrwt beam="2">  1       21 0.48669908E-01 0.33057951E+03</pdfrwt>
<totfact> 0.12589817E+04</totfact>
</mgrwt>
</event>
<event>
 4    1  0.6158309E+003  0.1841264E+03  0.7546771E-02  0.1163868E+00
         21   -1    0    0  504  501  0.00000000000E+00  0.00000000000E+00  0.14134092290E+03  0.14134092290E+03  0.00000000000E+00 0. -1.
         21   -1    0    0  501  502 -0.00000000000E+00 -0.00000000000E+00 -0.55216953208E+03  0.55216953208E+03  0.00000000000E+00 0. -1.
         21    1    1    2  503  502 -0.16554857220E+02 -0.18338070247E+03 -0.46619587760E+03  0.50123960501E+03  0.00000000000E+00 0. -1.
         21    1    1    2  504  503  0.16554857220E+02  0.18338070247E+03  0.55367268424E+02  0.19227084997E+03  0.00000000000E+00 0. -1.
<mgrwt>
<rscale>  2 0.18412644E+03</rscale>
<asrwt>0</asrwt>
<pdfrwt beam="1">  1       21 0.21744757E-01 0.18412644E+03</pdfrwt>
<pdfrwt beam="2">  1       21 0.84949160E-01 0.18412644E+03</pdfrwt>
<totfact> 0.23794192E+04</totfact>
</mgrwt>
</event>
<event>
 4    1  0.6158309E+003  0.1468343E+03  0.7546771E-02  0.1204418E+00
         21   -1    0    0  502  501  0.00000000000E+00  0.00000000000E+00  0.35597634915E+02  0.35597634915E+02  0.00000000000E+00 0. -1.
         21   -1    0    0  504  502 -0.00000000000E+00 -0.00000000000E+00 -0.13964908847E+04  0.13964908847E+04  0.00000000000E+00 0. -1.
         21    1    1    2  503  501  0.13236509546E+03 -0.63559411810E+02 -0.14160558157E+03  0.20399131858E+03  0.00000000000E+00 0. -1.
         21    1    1    2  504  503 -0.13236509546E+03  0.63559411810E+02 -0.12192876682E+04  0.12280972010E+04  0.00000000000E+00 0. -1.
<mgrwt>
<rscale>  2 0.14683432E+03</rscale>
<asrwt>0</asrwt>
<pdfrwt beam="1">  1       21 0.54765602E-02 0.14683432E+03</pdfrwt>
<pdfrwt beam="2">  1       21 0.21484471E+00 0.14683432E+03</pdfrwt>
<totfact> 0.25901844E+04</totfact>
</mgrwt>
</event>
<event>
 4    1  0.6158309E+003  0.2150552E+03  0.7546771E-02  0.1137624E+00
         21   -1    0    0  502  501  0.00000000000E+00  0.00000000000E+00  0.17092770468E+04  0.17092770468E+04  0.00000000000E+00 0.  1.
         21   -1    0    0  503  502 -0.00000000000E+00 -0.00000000000E+00 -0.78104868893E+02  0.78104868893E+02  0.00000000000E+00 0.  1.
         21    1    1    2  503  504 -0.12039672870E+03  0.17819480197E+03  0.93090830844E+02  0.23433877724E+03  0.00000000000E+00 0.  1.
         21    1    1    2  504  501  0.12039672870E+03 -0.17819480197E+03  0.15380813471E+04  0.15530431385E+04  0.00000000000E+00 0.  1.
<mgrwt>
<rscale>  2 0.21505525E+03</rscale>
<asrwt>0</asrwt>
<pdfrwt beam="1">  1       21 0.26296567E+00 0.21505525E+03</pdfrwt>
<pdfrwt beam="2">  1       21 0.12016135E-01 0.21505525E+03</pdfrwt>
<totfact> 0.31913787E+03</totfact>
</mgrwt>
</event>
<event>
 4    1  0.6158309E+003  0.1454141E+03  0.7546771E-02  0.1206224E+00
         21   -1    0    0  503  501  0.00000000000E+00  0.00000000000E+00  0.12750309457E+03  0.12750309457E+03  0.00000000000E+00 0.  1.
         21   -1    0    0  504  502 -0.00000000000E+00 -0.00000000000E+00 -0.73298563637E+03  0.73298563637E+03  0.00000000000E+00 0. -1.
         21    1    1    2  503  502 -0.25564420355E+02  0.14314931883E+03  0.75713770431E+02  0.16394463121E+03  0.00000000000E+00 0.  1.
         21    1    1    2  504  501  0.25564420355E+02 -0.14314931883E+03 -0.68119631223E+03  0.69654409973E+03  0.00000000000E+00 0. -1.
<mgrwt>
<rscale>  2 0.14541412E+03</rscale>
<asrwt>0</asrwt>
<pdfrwt beam="1">  1       21 0.19615861E-01 0.14541412E+03</pdfrwt>
<pdfrwt beam="2">  1       21 0.11276702E+00 0.14541412E+03</pdfrwt>
<totfact> 0.15218576E+04</totfact>
</mgrwt>
</event>
<event>
 4    1  0.6158309E+003  0.1130748E+03  0.7546771E-02  0.1254979E+00
         21   -1    0    0  503  501  0.00000000000E+00  0.00000000000E+00  0.73774803383E+02  0.73774803383E+02  0.00000000000E+00 0. -1.
         21   -1    0    0  504  502 -0.00000000000E+00 -0.00000000000E+00 -0.17445180138E+03  0.17445180138E+03  0.00000000000E+00 0.  1.
         21    1    1    2  503  502  0.10612554143E+03  0.39029329194E+02 -0.60379002737E+02  0.12818558052E+03  0.00000000000E+00 0. -1.
         21    1    1    2  504  501 -0.10612554143E+03 -0.39029329194E+02 -0.40297995262E+02  0.12004102425E+03  0.00000000000E+00 0.  1.
<mgrwt>
<rscale>  2 0.11307484E+03</rscale>
<asrwt>0</asrwt>
<pdfrwt beam="1">  1       21 0.11349970E-01 0.11307484E+03</pdfrwt>
<pdfrwt beam="2">  1       21 0.26838738E-01 0.11307484E+03</pdfrwt>
<totfact> 0.85848243E+05</totfact>
</mgrwt>
</event>
<event>
 4    1  0.6158309E+003  0.1947609E+03  0.7546771E-02  0.1154236E+00
         21   -1    0    0  504  501  0.00000000000E+00  0.00000000000E+00  0.20676903446E+03  0.20676903446E+03  0.00000000000E+00 0.  1.
         21   -1    0    0  501  502 -0.00000000000E+00 -0.00000000000E+00 -0.19825659637E+03  0.19825659637E+03  0.00000000000E+00 0.  1.
         21    1    1    2  503  502  0.15714537524E+03  0.11505279662E+03 -0.51086919204E+02  0.20134966671E+03  0.00000000000E+00 0.  1.
         21    1    1    2  504  503 -0.15714537524E+03 -0.11505279662E+03  0.59599357297E+02  0.20367596412E+03  0.00000000000E+00 0.  1.
<mgrwt>
<rscale>  2 0.19476092E+03</rscale>
<asrwt>0</asrwt>
<pdfrwt beam="1">  1       21 0.31810621E-01 0.19476092E+03</pdfrwt>
<pdfrwt beam="2">  1       21 0.30501015E-01 0.19476092E+03</pdfrwt>
<totfact> 0.97961185E+04</totfact>
</mgrwt>
</event>
<event>
 4    1  0.6158309E+003  0.1010623E+03  0.7546771E-02  0.1278078E+00
         21   -1    0    0  503  501  0.00000000000E+00  0.00000000000E+00  0.13659450309E+04  0.13659450309E+04  0.00000000000E+00 0.  1.
         21   -1    0    0  504  502 -0.00000000000E+00 -0.00000000000E+00 -0.11845962586E+02  0.11845962586E+02  0.00000000000E+00 0. -1.
         21    1    1    2  503  502 -0.84667369264E+02  0.55181788812E+02  0.25869742208E+03  0.27773719489E+03  0.00000000000E+00 0. -1.
         21    1    1    2  504  501  0.84667369264E+02 -0.55181788812E+02  0.10954016463E+04  0.11000537986E+04  0.00000000000E+00 0.  1.
<mgrwt>
<rscale>  2 0.10106232E+03</rscale>
<asrwt>0</asrwt>
<pdfrwt beam="1">  1       21 0.21014526E+00 0.10106232E+03</pdfrwt>
<pdfrwt beam="2">  1       21 0.18224569E-02 0.10106232E+03</pdfrwt>
<totfact> 0.17531290E+05</totfact>
</mgrwt>
</event>
<event>
 4    1  0.6158309E+003  0.1664993E+03  0.7546771E-02  0.1181548E+00
         21   -1    0    0  503  501  0.00000000000E+00  0.00000000000E+00  0.30303601688E+03  0.30303601688E+03  0.00000000000E+00 0. -1.
         21   -1    0    0  504  502 -0.00000000000E+00 -0.00000000000E+00 -0.22791927213E+03  0.22791927213E+03  0.00000000000E+00 0. -1.
         21    1    1    2  503  502  0.12578132062E+03  0.10909207721E+03 -0.16784407791E+03  0.23641839272E+03  0.00000000000E+00 0. -1.
         21    1    1    2  504  501 -0.12578132062E+03 -0.10909207721E+03  0.24296082266E+03  0.29453689628E+03  0.00000000000E+00 0. -1.
<mgrwt>
<rscale>  2 0.16649932E+03</rscale>
<asrwt>0</asrwt>
<pdfrwt beam="1">  1       21 0.46620926E-01 0.16649932E+03</pdfrwt>
<pdfrwt beam="2">  1       21 0.35064503E-01 0.16649932E+03</pdfrwt>
<totfact> 0.35031603E+04</totfact>
</mgrwt>
</event>
<event>
 4    1  0.6158309E+003  0.1072102E+03  0.7546771E-02  0.1265825E+00
         21   -1    0    0  503  501  0.00000000000E+00  0.00000000000E+00  0.15520250109E+03  0.15520250109E+03  0.00000000000E+00 0.  1.
         21   -1    0    0  501  502 -0.00000000000E+00 -0.00000000000E+00 -0.74103848193E+02  0.74103848193E+02  0.00000000000E+00 0.  1.
         21    1    1    2  503  504 -0.10675469435E+03 -0.98722213057E+01  0.37705239779E+02  0.11364730804E+03  0.00000000000E+00 0.  1.
         21    1    1    2  504  502  0.10675469435E+03  0.98722213057E+01  0.43393413118E+02  0.11565904124E+03  0.00000000000E+00 0.  1.
<mgrwt>
<rscale>  2 0.10721019E+03</rscale>
<asrwt>0</asrwt>
<pdfrwt beam="1">  1       21 0.23877308E-01 0.10721019E+03</pdfrwt>
<pdfrwt beam="2">  1       21 0.11400592E-01 0.10721019E+03</pdfrwt>
<totfact> 0.10610569E+06</totfact>
</mgrwt>
</event>
<event>
 4    1  0.6158309E+003  0.1019476E+03  0.7546771E-02  0.1276253E+00
         21   -1    0    0  504  501  0.00000000000E+00  0.00000000000E+00  0.33791568066E+02  0.33791568066E+02  0.00000000000E+00 0.  1.
         21   -1    0    0  501  502 -0.00000000000E+00 -0.00000000000E+00 -0.38378478447E+03  0.38378478447E+03  0.00000000000E+00 0. -1.
         21    1    1    2  503  502 -0.10189793937E+03 -0.31816961794E+01 -0.26803843097E+03  0.28677153575E+03  0.00000000000E+00 0. -1.
         21    1    1    2  504  503  0.10189793937E+03  0.31816961794E+01 -0.81954785429E+02  0.13080481678E+03  0.00000000000E+00 0.  1.
<mgrwt>
<rscale>  2 0.10194760E+03</rscale>
<asrwt>0</asrwt>
<pdfrwt beam="1">  1       21 0.51987029E-02 0.10194760E+03</pdfrwt>
<pdfrwt beam="2">  1       21 0.59043811E-01 0.10194760E+03</pdfrwt>
<totfact> 0.67982164E+05</totfact>
</mgrwt>
</event>
<event>
 4    1  0.6158309E+003  0.1034797E+03  0.7546771E-02  0.1273144E+00
         21   -1    0    0  503  501  0.00000000000E+00  0.00000000000E+00  0.98813713690E+03  0.98813713690E+03  0.00000000000E+00 0.  1.
         21   -1    0    0  501  502 -0.00000000000E+00 -0.00000000000E+00 -0.11632684272E+03  0.11632684272E+03  0.00000000000E+00 0. -1.
         21    1    1    2  503  504 -0.32832197519E+02 -0.98132998421E+02  0.96178647830E+03  0.96733720512E+03  0.00000000000E+00 0.  1.
         21    1    1    2  504  502  0.32832197519E+02  0.98132998421E+02 -0.89976184124E+02  0.13712677449E+03  0.00000000000E+00 0. -1.
<mgrwt>
<rscale>  2 0.10347965E+03</rscale>
<asrwt>0</asrwt>
<pdfrwt beam="1">  1       21 0.15202109E+00 0.10347965E+03</pdfrwt>
<pdfrwt beam="2">  1       21 0.17896438E-01 0.10347965E+03</pdfrwt>
<totfact> 0.89182959E+03</totfact>
</mgrwt>
</event>
<event>
 4    1  0.6158309E+003  0.1403401E+03  0.7546771E-02  0.1212872E+00
         21   -1    0    0  502  501  0.00000000000E+00  0.00000000000E+00  0.50593840670E+02  0.50593840670E+02  0.00000000000E+00 0.  1.
         21   -1    0    0  504  502 -0.00000000000E+00 -0.00000000000E+00 -0.11968814570E+04  0.11968814570E+04  0.00000000000E+00 0. -1.
         21    1    1    2  503  501 -0.12641896384E+03 -0.60939335549E+02 -0.60785309915E+02  0.15293858551E+03  0.00000000000E+00 0.  1.
         21    1    1    2  504  503  0.12641896384E+03  0.60939335549E+02 -0.10855023064E+04  0.10945367122E+04  0.00000000000E+00 0. -1.
<mgrwt>
<rscale>  2 0.14034015E+03</rscale>
<asrwt>0</asrwt>
<pdfrwt beam="1">  1       21 0.77836680E-02 0.14034015E+03</pdfrwt>
<pdfrwt beam="2">  1       21 0.18413560E+00 0.14034015E+03</pdfrwt>
<totfact> 0.22367199E+04</totfact>
</mgrwt>
</event>
<event>
 4    1  0.6158309E+003  0.1190509E+03  0.7546771E-02  0.1244671E+00
         21   -1    0    0  503  501  0.00000000000E+00  0.00000000000E+00  0.24388385380E+02  0.24388385380E+02  0.00000000000E+00 0. -1.
         21   -1    0    0  504  502 -0.00000000000E+00 -0.00000000000E+00 -0.10030076182E+04  0.10030076182E+04  0.00000000000E+00 0. -1.
         21    1    1    2  503  502 -0.37897377086E+02 -0.11285791554E+03 -0.15615739292E+03  0.19636255156E+03  0.00000000000E+00 0. -1.
         21    1    1    2  504  501  0.37897377086E+02  0.11285791554E+03 -0.82246183993E+03  0.83103345206E+03  0.00000000000E+00 0. -1.
<mgrwt>
<rscale>  2 0.11905091E+03</rscale>
<asrwt>0</asrwt>
<pdfrwt beam="1">  1       21 0.37520597E-02 0.11905091E+03</pdfrwt>
<pdfrwt beam="2">  1       21 0.15430885E+00 0.11905091E+03</pdfrwt>
<totfact> 0.12536833E+05</totfact>
</mgrwt>
</event>
<event>
 4    1  0.6158309E+003  0.2286835E+03  0.7546771E-02  0.1127570E+00
         21   -1    0    0  503  501  0.00000000000E+00  0.00000000000E+00  0.12308472526E+04  0.12308472526E+04  0.00000000000E+00 0. -1.
         21   -1    0    0  504  502 -0.00000000000E+00 -0.00000000000E+00 -0.56296713980E+02  0.56296713980E+02  0.00000000000E+00 0. -1.
         21    1    1    2  503  502  0.65717007550E+02 -0.21903742890E+03  0.90601318463E+03  0.93442817330E+03  0.00000000000E+00 0. -1.
         21    1    1    2  504  501 -0.65717007550E+02  0.21903742890E+03  0.26853735402E+03  0.35271579330E+03  0.00000000000E+00 0. -1.
<mgrwt>
<rscale>  2 0.22868345E+03</rscale>
<asrwt>0</asrwt>
<pdfrwt beam="1">  1       21 0.18936110E+00 0.22868345E+03</pdfrwt>
<pdfrwt beam="2">  1       21 0.86610338E-02 0.22868345E+03</pdfrwt>
<totfact> 0.16029275E+04</totfact>
</mgrwt>
</event>
<event>
 4    1  0.6158309E+003  0.1012619E+03  0.7546771E-02  0.1277664E+00
         21   -1    0    0  504  501  0.00000000000E+00  0.00000000000E+00  0.46435539938E+02  0.46435539938E+02  0.00000000000E+00 0. -1.
         21   -1    0    0  503  502 -0.00000000000E+00 -0.00000000000E+00 -0.59778138163E+03  0.59778138163E+03  0.00000000000E+00 0.  1.
         21    1    1    2  503  501 -0.21281313667E+02 -0.99000439124E+02 -0.19886012897E+02  0.10319609860E+03  0.00000000000E+00 0. -1.
         21    1    1    2  504  502  0.21281313667E+02  0.99000439124E+02 -0.53145982880E+03  0.54102082297E+03  0.00000000000E+00 0.  1.
<mgrwt>
<rscale>  2 0.10126194E+03</rscale>
<asrwt>0</asrwt>
<pdfrwt beam="1">  1       21 0.71439290E-02 0.10126194E+03</pdfrwt>
<pdfrwt beam="2">  1       21 0.91966369E-01 0.10126194E+03</pdfrwt>
<totfact> 0.15090483E+05</totfact>
</mgrwt>
</event>
<event>
 4    1  0.6158309E+003  0.1235149E+03  0.7546771E-02  0.1237409E+00
         21   -1    0    0  502  501  0.00000000000E+00  0.00000000000E+00  0.57246076622E+03  0.57246076622E+03  0.00000000000E+00 0.  1.
         21   -1    0    0  503  502 -0.00000000000E+00 -0.00000000000E+00 -0.28351439852E+02  0.28351439852E+02  0.00000000000E+00 0.  1.
         21    1    1    2  503  504 -0.91922587054E+02  0.82499467707E+02  0.19845698763E+03  0.23375435851E+03  0.00000000000E+00 0.  1.
         21    1    1    2  504  501  0.91922587054E+02 -0.82499467707E+02  0.34565233873E+03  0.36705784756E+03  0.00000000000E+00 0.  1.
<mgrwt>
<rscale>  2 0.12351487E+03</rscale>
<asrwt>0</asrwt>
<pdfrwt beam="1">  1       21 0.88070879E-01 0.12351487E+03</pdfrwt>
<pdfrwt beam="2">  1       21 0.43617604E-02 0.12351487E+03</pdfrwt>
<totfact> 0.37967273E+05</totfact>
</mgrwt>
</event>
<event>
 4    1  0.6158309E+003  0.1047949E+03  0.7546771E-02  0.1270524E+00
         21   -1    0    0  503  501  0.00000000000E+00  0.00000000000E+00  0.13543959908E+03  0.13543959908E+03  0.00000000000E+00 0.  1.
         21   -1    0    0  501  502 -0.00000000000E+00 -0.00000000000E+00 -0.13155678626E+03  0.13155678626E+03  0.00000000000E+00 0.  1.
         21    1    1    2  503  504 -0.63870264061E+02  0.83081586731E+02  0.84630485102E+02  0.13470070413E+03  0.00000000000E+00 0.  1.
         21    1    1    2  504  502  0.63870264061E+02 -0.83081586731E+02 -0.80747672282E+02  0.13229568120E+03  0.00000000000E+00 0.  1.
<mgrwt>
<rscale>  2 0.10479485E+03</rscale>
<asrwt>0</asrwt>
<pdfrwt beam="1">  1       21 0.20836862E-01 0.10479485E+03</pdfrwt>
<pdfrwt beam="2">  1       21 0.20239505E-01 0.10479485E+03</pdfrwt>
<totfact> 0.48738091E+05</totfact>
</mgrwt>
</event>
<event>
 4    1  0.6158309E+003  0.1496537E+03  0.7546771E-02  0.1200899E+00
         21   -1    0    0  502  501  0.00000000000E+00  0.00000000000E+00  0.38040660320E+03  0.38040660320E+03  0.00000000000E+00 0. -1.
         21   -1    0    0  504  502 -0.00000000000E+00 -0.00000000000E+00 -0.92517092407E+02  0.92517092407E+02  0.00000000000E+00 0. -1.
         21    1    1    2  503  501 -0.80171937372E+02  0.12636732807E+03  0.28653668434E+03  0.32326384366E+03  0.00000000000E+00 0. -1.
         21    1    1    2  504  503  0.80171937372E+02 -0.12636732807E+03  0.13528264489E+01  0.14965985194E+03  0.00000000000E+00 0. -1.
<mgrwt>
<rscale>  2 0.14965374E+03</rscale>
<asrwt>0</asrwt>
<pdfrwt beam="1">  1       21 0.58524092E-01 0.14965374E+03</pdfrwt>
<pdfrwt beam="2">  1       21 0.14233399E-01 0.14965374E+03</pdfrwt>
<totfact> 0.11980919E+05</totfact>
</mgrwt>
</event>
<event>
 4    1  0.6158309E+003  0.1776518E+03  0.7546771E-02  0.1170095E+00
         21   -1    0    0  503  501  0.00000000000E+00  0.00000000000E+00  0.64322056697E+02  0.64322056697E+02  0.00000000000E+00 0.  1.
         21   -1    0    0  504  502 -0.00000000000E+00 -0.00000000000E+00 -0.86856625032E+03  0.86856625032E+03  0.00000000000E+00 0. -1.
         21    1    1    2  503  502  0.17570105682E+03 -0.26254356544E+02 -0.94447826885E+02  0.20119777486E+03  0.00000000000E+00 0.  1.
         21    1    1    2  504  501 -0.17570105682E+03  0.26254356544E+02 -0.70979636674E+03  0.73169053215E+03  0.00000000000E+00 0. -1.
<mgrwt>
<rscale>  2 0.17765177E+03</rscale>
<asrwt>0</asrwt>
<pdfrwt beam="1">  1       21 0.98957014E-02 0.17765177E+03</pdfrwt>
<pdfrwt beam="2">  1       21 0.13362557E+00 0.17765177E+03</pdfrwt>
<totfact> 0.33624474E+04</totfact>
</mgrwt>
</event>
<event>
 4    1  0.6158309E+003  0.1392115E+03  0.7546771E-02  0.1214394E+00
         21   -1    0    0  502  501  0.00000000000E+00  0.00000000000E+00  0.46747745649E+03  0.46747745649E+03  0.00000000000E+00 0. -1.
         21   -1    0    0  503  502 -0.00000000000E+00 -0.00000000000E+00 -0.43255238877E+02  0.43255238877E+02  0.00000000000E+00 0. -1.
         21    1    1    2  503  504  0.13886944836E+03 -0.97521987975E+01  0.16003157017E+03  0.21210830376E+03  0.00000000000E+00 0. -1.
         21    1    1    2  504  501 -0.13886944836E+03  0.97521987975E+01  0.26419064744E+03  0.29862439161E+03  0.00000000000E+00 0. -1.
<mgrwt>
<rscale>  2 0.13921145E+03</rscale>
<asrwt>0</asrwt>
<pdfrwt beam="1">  1       21 0.71919605E-01 0.13921145E+03</pdfrwt>
<pdfrwt beam="2">  1       21 0.66546525E-02 0.13921145E+03</pdfrwt>
<totfact> 0.29180377E+05</totfact>
</mgrwt>
</event>
<event>
 4    1  0.6158309E+003  0.1018090E+03  0.7546771E-02  0.1276537E+00
         21   -1    0    0  502  501  0.00000000000E+00  0.00000000000E+00  0.31927569173E+03  0.31927569173E+03  0.00000000000E+00 0.  1.
         21   -1    0    0  503  502 -0.00000000000E+00 -0.00000000000E+00 -0.14194874506E+03  0.14194874506E+03  0.00000000000E+00 0.  1.
         21    1    1    2  503  504 -0.73342164188E+02  0.70611590337E+02 -0.11386808136E+03  0.15274491707E+03  0.00000000000E+00 0.  1.
         21    1    1    2  504  501  0.73342164188E+02 -0.70611590337E+02  0.29119502803E+03  0.30847951972E+03  0.00000000000E+00 0.  1.
<mgrwt>
<rscale>  2 0.10180899E+03</rscale>
<asrwt>0</asrwt>
<pdfrwt beam="1">  1       21 0.49119337E-01 0.10180899E+03</pdfrwt>
<pdfrwt beam="2">  1       21 0.21838269E-01 0.10180899E+03</pdfrwt>
<totfact> 0.80607049E+04</totfact>
</mgrwt>
</event>
<event>
 4    1  0.6158309E+003  0.1099979E+03  0.7546771E-02  0.1260574E+00
         21   -1    0    0  503  501  0.00000000000E+00  0.00000000000E+00  0.89366314151E+02  0.89366314151E+02  0.00000000000E+00 0.  1.
         21   -1    0    0  504  502 -0.00000000000E+00 -0.00000000000E+00 -0.35355470685E+03  0.35355470685E+03  0.00000000000E+00 0.  1.
         21    1    1    2  503  502 -0.92812757380E+02 -0.59036685767E+02  0.41869103943E+02  0.11769689913E+03  0.00000000000E+00 0.  1.
         21    1    1    2  504  501  0.92812757380E+02  0.59036685767E+02 -0.30605749664E+03  0.32522412187E+03  0.00000000000E+00 0.  1.
<mgrwt>
<rscale>  2 0.10999790E+03</rscale>
<asrwt>0</asrwt>
<pdfrwt beam="1">  1       21 0.13748664E-01 0.10999790E+03</pdfrwt>
<pdfrwt beam="2">  1       21 0.54393032E-01 0.10999790E+03</pdfrwt>
<totfact> 0.15079810E+05</totfact>
</mgrwt>
</event>
<event>
 4    1  0.6158309E+003  0.1272178E+03  0.7546771E-02  0.1231643E+00
         21   -1    0    0  504  501  0.00000000000E+00  0.00000000000E+00  0.71746347668E+02  0.71746347668E+02  0.00000000000E+00 0.  1.
         21   -1    0    0  503  502 -0.00000000000E+00 -0.00000000000E+00 -0.65972998760E+03  0.65972998760E+03  0.00000000000E+00 0. -1.
         21    1    1    2  503  501  0.17059633755E+02 -0.12606874331E+03 -0.59068552855E+03  0.60422988405E+03  0.00000000000E+00 0. -1.
         21    1    1    2  504  502 -0.17059633755E+02  0.12606874331E+03  0.27018886198E+01  0.12724645121E+03  0.00000000000E+00 0.  1.
<mgrwt>
<rscale>  2 0.12721776E+03</rscale>
<asrwt>0</asrwt>
<pdfrwt beam="1">  1       21 0.11037900E-01 0.12721776E+03</pdfrwt>
<pdfrwt beam="2">  1       21 0.10149692E+00 0.12721776E+03</pdfrwt>
<totfact> 0.55839167E+04</totfact>
</mgrwt>
</event>
<event>
 4    1  0.6158309E+003  0.1028051E+03  0.7546771E-02  0.1274505E+00
         21   -1    0    0  504  501  0.00000000000E+00  0.00000000000E+00  0.19623390980E+04  0.19623390980E+04  0.00000000000E+00 0. -1.
         21   -1    0    0  503  502 -0.00000000000E+00 -0.00000000000E+00 -0.85295715018E+01  0.85295715018E+01  0.00000000000E+00 0. -1.
         21    1    1    2  503  501  0.96241519862E+02 -0.36145076732E+02  0.15751578735E+04  0.15785091774E+04  0.00000000000E+00 0. -1.
         21    1    1    2  504  502 -0.96241519862E+02  0.36145076732E+02  0.37865165303E+03  0.39235949212E+03  0.00000000000E+00 0. -1.
<mgrwt>
<rscale>  2 0.10280514E+03</rscale>
<asrwt>0</asrwt>
<pdfrwt beam="1">  1       21 0.30189796E+00 0.10280514E+03</pdfrwt>
<pdfrwt beam="2">  1       21 0.13122433E-02 0.10280514E+03</pdfrwt>
<totfact> 0.88966271E+04</totfact>
</mgrwt>
</event>
<event>
 4    1  0.6158309E+003  0.2034662E+03  0.7546771E-02  0.1146847E+00
         21   -1    0    0  504  501  0.00000000000E+00  0.00000000000E+00  0.88478178522E+02  0.88478178522E+02  0.00000000000E+00 0.  1.
         21   -1    0    0  503  502 -0.00000000000E+00 -0.00000000000E+00 -0.47961552040E+03  0.47961552040E+03  0.00000000000E+00 0.  1.
         21    1    1    2  503  501 -0.20344552199E+03 -0.29018986374E+01 -0.15116529889E+03  0.25347475027E+03  0.00000000000E+00 0.  1.
         21    1    1    2  504  502  0.20344552199E+03  0.29018986374E+01 -0.23997204299E+03  0.31461894865E+03  0.00000000000E+00 0.  1.
<mgrwt>
<rscale>  2 0.20346622E+03</rscale>
<asrwt>0</asrwt>
<pdfrwt beam="1">  1       21 0.13612027E-01 0.20346622E+03</pdfrwt>
<pdfrwt beam="2">  1       21 0.73787003E-01 0.20346622E+03</pdfrwt>
<totfact> 0.76763994E+04</totfact>
</mgrwt>
</event>
<event>
 4    1  0.6158309E+003  0.1051348E+03  0.7546771E-02  0.1269854E+00
         21   -1    0    0  502  501  0.00000000000E+00  0.00000000000E+00  0.72510470074E+02  0.72510470074E+02  0.00000000000E+00 0.  1.
         21   -1    0    0  503  502 -0.00000000000E+00 -0.00000000000E+00 -0.34529743266E+03  0.34529743266E+03  0.00000000000E+00 0.  1.
         21    1    1    2  503  504  0.24573523946E+02 -0.10222268458E+03 -0.29251783963E+03  0.31083761326E+03  0.00000000000E+00 0.  1.
         21    1    1    2  504  501 -0.24573523946E+02  0.10222268458E+03  0.19730877038E+02  0.10697028947E+03  0.00000000000E+00 0.  1.
<mgrwt>
<rscale>  2 0.10513484E+03</rscale>
<asrwt>0</asrwt>
<pdfrwt beam="1">  1       21 0.11155457E-01 0.10513484E+03</pdfrwt>
<pdfrwt beam="2">  1       21 0.53122682E-01 0.10513484E+03</pdfrwt>
<totfact> 0.22949441E+05</totfact>
</mgrwt>
</event>
<event>
 4    1  0.6158309E+003  0.1217738E+03  0.7546771E-02  0.1240199E+00
         21   -1    0    0  502  501  0.00000000000E+00  0.00000000000E+00  0.11344353522E+04  0.11344353522E+04  0.00000000000E+00 0. -1.
         21   -1    0    0  504  502 -0.00000000000E+00 -0.00000000000E+00 -0.16012177840E+02  0.16012177840E+02  0.00000000000E+00 0. -1.
         21    1    1    2  503  501  0.30455129182E+02  0.11790398211E+03  0.80571863563E+03  0.81486893652E+03  0.00000000000E+00 0. -1.
         21    1    1    2  504  503 -0.30455129182E+02 -0.11790398211E+03  0.31270453868E+03  0.33557859347E+03  0.00000000000E+00 0. -1.
<mgrwt>
<rscale>  2 0.12177382E+03</rscale>
<asrwt>0</asrwt>
<pdfrwt beam="1">  1       21 0.17452845E+00 0.12177382E+03</pdfrwt>
<pdfrwt beam="2">  1       21 0.24634129E-02 0.12177382E+03</pdfrwt>
<totfact> 0.17967573E+05</totfact>
</mgrwt>
</event>
<event>
 4    1  0.6158309E+003  0.1472987E+03  0.7546771E-02  0.1203832E+00
         21   -1    0    0  504  501  0.00000000000E+00  0.00000000000E+00  0.77236436291E+03  0.77236436291E+03  0.00000000000E+00 0.  1.
         21   -1    0    0  503  502 -0.00000000000E+00 -0.00000000000E+00 -0.28093255706E+02  0.28093255706E+02  0.00000000000E+00 0.  1.
         21    1    1    2  503  501  0.13195622141E+03 -0.65455866066E+02  0.36902009517E+03  0.39733203421E+03  0.00000000000E+00 0.  1.
         21    1    1    2  504  502 -0.13195622141E+03  0.65455866066E+02  0.37525101203E+03  0.40312558440E+03  0.00000000000E+00 0.  1.
<mgrwt>
<rscale>  2 0.14729873E+03</rscale>
<asrwt>0</asrwt>
<pdfrwt beam="1">  1       21 0.11882527E+00 0.14729873E+03</pdfrwt>
<pdfrwt beam="2">  1       21 0.43220399E-02 0.14729873E+03</pdfrwt>
<totfact> 0.18920758E+05</totfact>
</mgrwt>
</event>
<event>
 4    1  0.6158309E+003  0.1575934E+03  0.7546771E-02  0.1191441E+00
         21   -1    0    0  504  501  0.00000000000E+00  0.00000000000E+00  0.97388446979E+03  0.97388446979E+03  0.00000000000E+00 0.  1.
         21   -1    0    0  503  502 -0.00000000000E+00 -0.00000000000E+00 -0.41286896061E+03  0.41286896061E+03  0.00000000000E+00 0.  1.
         21    1    1    2  503  501  0.64665132240E+02  0.14371534414E+03  0.95212928457E+03  0.96508334044E+03  0.00000000000E+00 0.  1.
         21    1    1    2  504  502 -0.64665132240E+02 -0.14371534414E+03 -0.39111377539E+03  0.42167008996E+03  0.00000000000E+00 0.  1.
<mgrwt>
<rscale>  2 0.15759340E+03</rscale>
<asrwt>0</asrwt>
<pdfrwt beam="1">  1       21 0.14982838E+00 0.15759340E+03</pdfrwt>
<pdfrwt beam="2">  1       21 0.63518302E-01 0.15759340E+03</pdfrwt>
<totfact> 0.71632622E+02</totfact>
</mgrwt>
</event>
<event>
 4    1  0.6158309E+003  0.1109321E+03  0.7546771E-02  0.1258854E+00
         21   -1    0    0  503  501  0.00000000000E+00  0.00000000000E+00  0.10281643334E+03  0.10281643334E+03  0.00000000000E+00 0. -1.
         21   -1    0    0  504  502 -0.00000000000E+00 -0.00000000000E+00 -0.18142775521E+03  0.18142775521E+03  0.00000000000E+00 0.  1.
         21    1    1    2  503  502  0.20558619677E+02 -0.10901038222E+03 -0.12221267287E+03  0.16505107599E+03  0.00000000000E+00 0.  1.
         21    1    1    2  504  501 -0.20558619677E+02  0.10901038222E+03  0.43601351004E+02  0.11919311257E+03  0.00000000000E+00 0. -1.
<mgrwt>
<rscale>  2 0.11093205E+03</rscale>
<asrwt>0</asrwt>
<pdfrwt beam="1">  1       21 0.15817913E-01 0.11093205E+03</pdfrwt>
<pdfrwt beam="2">  1       21 0.27911962E-01 0.11093205E+03</pdfrwt>
<totfact> 0.44130584E+05</totfact>
</mgrwt>
</event>
<event>
 4    1  0.6158309E+003  0.1249748E+03  0.7546771E-02  0.1235109E+00
         21   -1    0    0  502  501  0.00000000000E+00  0.00000000000E+00  0.15385240445E+02  0.15385240445E+02  0.00000000000E+00 0. -1.
         21   -1    0    0  503  502 -0.00000000000E+00 -0.00000000000E+00 -0.28152152205E+04  0.28152152205E+04  0.00000000000E+00 0. -1.
         21    1    1    2  503  504  0.97241781415E+02  0.78503035192E+02 -0.25316221011E+04  0.25347049441E+04  0.00000000000E+00 0. -1.
         21    1    1    2  504  501 -0.97241781415E+02 -0.78503035192E+02 -0.26820787895E+03  0.29589551689E+03  0.00000000000E+00 0. -1.
<mgrwt>
<rscale>  2 0.12497476E+03</rscale>
<asrwt>0</asrwt>
<pdfrwt beam="1">  1       21 0.23669603E-02 0.12497476E+03</pdfrwt>
<pdfrwt beam="2">  1       21 0.43310998E+00 0.12497476E+03</pdfrwt>
<totfact> 0.56311833E+03</totfact>
</mgrwt>
</event>
<event>
 4    1  0.6158309E+003  0.1034026E+03  0.7546771E-02  0.1273299E+00
         21   -1    0    0  503  501  0.00000000000E+00  0.00000000000E+00  0.11333574620E+03  0.11333574620E+03  0.00000000000E+00 0. -1.
         21   -1    0    0  504  502 -0.00000000000E+00 -0.00000000000E+00 -0.21304748526E+03  0.21304748526E+03  0.00000000000E+00 0. -1.
         21    1    1    2  503  502 -0.10125993886E+03 -0.20940759940E+02 -0.17167030238E+03  0.20040654521E+03  0.00000000000E+00 0. -1.
         21    1    1    2  504  501  0.10125993886E+03  0.20940759940E+02  0.71958563319E+02  0.12597668626E+03  0.00000000000E+00 0. -1.
<mgrwt>
<rscale>  2 0.10340257E+03</rscale>
<asrwt>0</asrwt>
<pdfrwt beam="1">  1       21 0.17436269E-01 0.10340257E+03</pdfrwt>
<pdfrwt beam="2">  1       21 0.32776536E-01 0.10340257E+03</pdfrwt>
<totfact> 0.27203578E+05</totfact>
</mgrwt>
</event>
<event>
 4    1  0.6158309E+003  0.1248379E+03  0.7546771E-02  0.1235323E+00
         21   -1    0    0  503  501  0.00000000000E+00  0.00000000000E+00  0.41946109946E+03  0.41946109946E+03  0.00000000000E+00 0.  1.
         21   -1    0    0  504  502 -0.00000000000E+00 -0.00000000000E+00 -0.27786005641E+03  0.27786005641E+03  0.00000000000E+00 0. -1.
         21    1    1    2  503  502 -0.72987535361E+02 -0.10127848601E+03 -0.25371360579E+03  0.28276333887E+03  0.00000000000E+00 0. -1.
         21    1    1    2  504  501  0.72987535361E+02  0.10127848601E+03  0.39531464885E+03  0.41455781700E+03  0.00000000000E+00 0.  1.
<mgrwt>
<rscale>  2 0.12483794E+03</rscale>
<asrwt>0</asrwt>
<pdfrwt beam="1">  1       21 0.64532477E-01 0.12483794E+03</pdfrwt>
<pdfrwt beam="2">  1       21 0.42747701E-01 0.12483794E+03</pdfrwt>
<totfact> 0.12256782E+04</totfact>
</mgrwt>
</event>
<event>
 4    1  0.6158309E+003  0.1003695E+03  0.7546771E-02  0.1279521E+00
         21   -1    0    0  504  501  0.00000000000E+00  0.00000000000E+00  0.17074925696E+03  0.17074925696E+03  0.00000000000E+00 0.  1.
         21   -1    0    0  501  502 -0.00000000000E+00 -0.00000000000E+00 -0.28720847505E+03  0.28720847505E+03  0.00000000000E+00 0. -1.
         21    1    1    2  503  502 -0.99485900712E+02  0.13289072976E+02 -0.26233927097E+03  0.28088420567E+03  0.00000000000E+00 0. -1.
         21    1    1    2  504  503  0.99485900712E+02 -0.13289072976E+02  0.14588005288E+03  0.17707352634E+03  0.00000000000E+00 0.  1.
<mgrwt>
<rscale>  2 0.10036954E+03</rscale>
<asrwt>0</asrwt>
<pdfrwt beam="1">  1       21 0.26269117E-01 0.10036954E+03</pdfrwt>
<pdfrwt beam="2">  1       21 0.44185919E-01 0.10036954E+03</pdfrwt>
<totfact> 0.70793940E+04</totfact>
</mgrwt>
</event>
<event>
 4    1  0.6158309E+003  0.1159762E+03  0.7546771E-02  0.1249887E+00
         21   -1    0    0  503  501  0.00000000000E+00  0.00000000000E+00  0.28361248460E+02  0.28361248460E+02  0.00000000000E+00 0. -1.
         21   -1    0    0  504  502 -0.00000000000E+00 -0.00000000000E+00 -0.77095479052E+03  0.77095479052E+03  0.00000000000E+00 0. -1.
         21    1    1    2  503  502  0.11036782669E+03  0.35628798006E+02 -0.12336477361E+03  0.16932021670E+03  0.00000000000E+00 0. -1.
         21    1    1    2  504  501 -0.11036782669E+03 -0.35628798006E+02 -0.61922876845E+03  0.62999582228E+03  0.00000000000E+00 0. -1.
<mgrwt>
<rscale>  2 0.11597615E+03</rscale>
<asrwt>0</asrwt>
<pdfrwt beam="1">  1       21 0.43632684E-02 0.11597615E+03</pdfrwt>
<pdfrwt beam="2">  1       21 0.11860844E+00 0.11597615E+03</pdfrwt>
<totfact> 0.18917705E+05</totfact>
</mgrwt>
</event>
<event>
 4    1  0.6158309E+003  0.1170086E+03  0.7546771E-02  0.1248115E+00
         21   -1    0    0  503  501  0.00000000000E+00  0.00000000000E+00  0.62948698195E+02  0.62948698195E+02  0.00000000000E+00 0.  1.
         21   -1    0    0  504  502 -0.00000000000E+00 -0.00000000000E+00 -0.76506078370E+03  0.76506078370E+03  0.00000000000E+00 0. -1.
         21    1    1    2  503  502 -0.11549292577E+03 -0.18772533245E+02 -0.80816278783E+00  0.11701143976E+03  0.00000000000E+00 0.  1.
         21    1    1    2  504  501  0.11549292577E+03  0.18772533245E+02 -0.70130392272E+03  0.71099804214E+03  0.00000000000E+00 0. -1.
<mgrwt>
<rscale>  2 0.11700865E+03</rscale>
<asrwt>0</asrwt>
<pdfrwt beam="1">  1       21 0.96844156E-02 0.11700865E+03</pdfrwt>
<pdfrwt beam="2">  1       21 0.11770165E+00 0.11700865E+03</pdfrwt>
<totfact> 0.49658950E+04</totfact>
</mgrwt>
</event>
<event>
 4    1  0.6158309E+003  0.1140655E+03  0.7546771E-02  0.1253221E+00
         21   -1    0    0  504  501  0.00000000000E+00  0.00000000000E+00  0.27439925287E+02  0.27439925287E+02  0.00000000000E+00 0. -1.
         21   -1    0    0  503  502 -0.00000000000E+00 -0.00000000000E+00 -0.49941343501E+03  0.49941343501E+03  0.00000000000E+00 0. -1.
         21    1    1    2  503  501  0.79523341406E+00  0.11406276779E+03 -0.29522193575E+03  0.31649160927E+03  0.00000000000E+00 0. -1.
         21    1    1    2  504  502 -0.79523341406E+00 -0.11406276779E+03 -0.17675157397E+03  0.21036175102E+03  0.00000000000E+00 0. -1.
<mgrwt>
<rscale>  2 0.11406554E+03</rscale>
<asrwt>0</asrwt>
<pdfrwt beam="1">  1       21 0.42215273E-02 0.11406554E+03</pdfrwt>
<pdfrwt beam="2">  1       21 0.76832830E-01 0.11406554E+03</pdfrwt>
<totfact> 0.54504612E+05</totfact>
</mgrwt>
</event>
<event>
 4    1  0.6158309E+003  0.1044671E+03  0.7546771E-02  0.1271173E+00
         21   -1    0    0  504  501  0.00000000000E+00  0.00000000000E+00  0.18844496853E+03  0.18844496853E+03  0.00000000000E+00 0. -1.
         21   -1    0    0  503  502 -0.00000000000E+00 -0.00000000000E+00 -0.94999698760E+02  0.94999698760E+02  0.00000000000E+00 0.  1.
         21    1    1    2  503  501 -0.72539175185E+02 -0.75176110929E+02 -0.41827111493E+02  0.11252949323E+03  0.00000000000E+00 0.  1.
         21    1    1    2  504  502  0.72539175185E+02  0.75176110929E+02  0.13527238127E+03  0.17091517406E+03  0.00000000000E+00 0. -1.
<mgrwt>
<rscale>  2 0.10446712E+03</rscale>
<asrwt>0</asrwt>
<pdfrwt beam="1">  1       21 0.28991534E-01 0.10446712E+03</pdfrwt>
<pdfrwt beam="2">  1       21 0.14615338E-01 0.10446712E+03</pdfrwt>
<totfact> 0.47331331E+05</totfact>
</mgrwt>
</event>
<event>
 4    1  0.6158309E+003  0.1561014E+03  0.7546771E-02  0.1193170E+00
         21   -1    0    0  502  501  0.00000000000E+00  0.00000000000E+00  0.22474750773E+03  0.22474750773E+03  0.00000000000E+00 0. -1.
         21   -1    0    0  504  502 -0.00000000000E+00 -0.00000000000E+00 -0.14063223927E+03  0.14063223927E+03  0.00000000000E+00 0. -1.
         21    1    1    2  503  501 -0.35701434881E+01  0.15606057756E+03  0.12948889469E+03  0.20281771038E+03  0.00000000000E+00 0. -1.
         21    1    1    2  504  503  0.35701434881E+01 -0.15606057756E+03 -0.45373626225E+02  0.16256203662E+03  0.00000000000E+00 0. -1.
<mgrwt>
<rscale>  2 0.15610141E+03</rscale>
<asrwt>0</asrwt>
<pdfrwt beam="1">  1       21 0.34576540E-01 0.15610141E+03</pdfrwt>
<pdfrwt beam="2">  1       21 0.21635729E-01 0.15610141E+03</pdfrwt>
<totfact> 0.16247136E+05</totfact>
</mgrwt>
</event>
<event>
 4    1  0.6158309E+003  0.1268547E+03  0.7546771E-02  0.1232199E+00
         21   -1    0    0  502  501  0.00000000000E+00  0.00000000000E+00  0.11509644606E+04  0.11509644606E+04  0.00000000000E+00 0. -1.
         21   -1    0    0  504  502 -0.00000000000E+00 -0.00000000000E+00 -0.68475588473E+02  0.68475588473E+02  0.00000000000E+00 0. -1.
         21    1    1    2  503  501  0.97191942653E+02 -0.81522092881E+02  0.10851676068E+04  0.10925570283E+04  0.00000000000E+00 0. -1.
         21    1    1    2  504  503 -0.97191942653E+02  0.81522092881E+02 -0.26787346129E+01  0.12688302078E+03  0.00000000000E+00 0. -1.
<mgrwt>
<rscale>  2 0.12685474E+03</rscale>
<asrwt>0</asrwt>
<pdfrwt beam="1">  1       21 0.17707144E+00 0.12685474E+03</pdfrwt>
<pdfrwt beam="2">  1       21 0.10534707E-01 0.12685474E+03</pdfrwt>
<totfact> 0.14912699E+04</totfact>
</mgrwt>
</event>
<event>
 4    1  0.6158309E+003  0.1015175E+03  0.7546771E-02  0.1277137E+00
         21   -1    0    0  503  501  0.00000000000E+00  0.00000000000E+00  0.20207435986E+03  0.20207435986E+03  0.00000000000E+00 0. -1.
         21   -1    0    0  504  502 -0.00000000000E+00 -0.00000000000E+00 -0.75667053295E+02  0.75667053295E+02  0.00000000000E+00 0. -1.
         21    1    1    2  503  502 -0.91115325797E+02 -0.44763843857E+02  0.14249309309E+03  0.17495738307E+03  0.00000000000E+00 0. -1.
         21    1    1    2  504  501  0.91115325797E+02  0.44763843857E+02 -0.16085786528E+02  0.10278403008E+03  0.00000000000E+00 0. -1.
<mgrwt>
<rscale>  2 0.10151751E+03</rscale>
<asrwt>0</asrwt>
<pdfrwt beam="1">  1       21 0.31088363E-01 0.10151751E+03</pdfrwt>
<pdfrwt beam="2">  1       21 0.11641085E-01 0.10151751E+03</pdfrwt>
<totfact> 0.61967770E+05</totfact>
</mgrwt>
</event>
<event>
 4    1  0.6158309E+003  0.1063903E+03  0.7546771E-02  0.1267404E+00
         21   -1    0    0  503  501  0.00000000000E+00  0.00000000000E+00  0.91552026051E+02  0.91552026051E+02  0.00000000000E+00 0.  1.
         21   -1    0    0  501  502 -0.00000000000E+00 -0.00000000000E+00 -0.24856662928E+03  0.24856662928E+03  0.00000000000E+00 0. -1.
         21    1    1    2  503  504  0.10479974342E+03  0.18327665709E+02  0.42056797283E+02  0.11440132757E+03  0.00000000000E+00 0.  1.
         21    1    1    2  504  502 -0.10479974342E+03 -0.18327665709E+02 -0.19907140051E+03  0.22571732777E+03  0.00000000000E+00 0. -1.
<mgrwt>
<rscale>  2 0.10639027E+03</rscale>
<asrwt>0</asrwt>
<pdfrwt beam="1">  1       21 0.14084927E-01 0.10639027E+03</pdfrwt>
<pdfrwt beam="2">  1       21 0.38241019E-01 0.10639027E+03</pdfrwt>
<totfact> 0.29524678E+05</totfact>
</mgrwt>
</event>
<event>
 4    1  0.6158309E+003  0.1086122E+03  0.7546771E-02  0.1263162E+00
         21   -1    0    0  503  501  0.00000000000E+00  0.00000000000E+00  0.20185746492E+02  0.20185746492E+02  0.00000000000E+00 0.  1.
         21   -1    0    0  501  502 -0.00000000000E+00 -0.00000000000E+00 -0.64603818775E+03  0.64603818775E+03  0.00000000000E+00 0. -1.
         21    1    1    2  503  504  0.92906329950E+02  0.56258638576E+02 -0.21003607083E+03  0.23645670134E+03  0.00000000000E+00 0.  1.
         21    1    1    2  504  502 -0.92906329950E+02 -0.56258638576E+02 -0.41581637043E+03  0.42976723290E+03  0.00000000000E+00 0. -1.
<mgrwt>
<rscale>  2 0.10861225E+03</rscale>
<asrwt>0</asrwt>
<pdfrwt beam="1">  1       21 0.31054991E-02 0.10861225E+03</pdfrwt>
<pdfrwt beam="2">  1       21 0.99390502E-01 0.10861225E+03</pdfrwt>
<totfact> 0.50508110E+05</totfact>
</mgrwt>
</event>
<event>
 4    1  0.6158309E+003  0.1920567E+03  0.7546771E-02  0.1156619E+00
         21   -1    0    0  503  501  0.00000000000E+00  0.00000000000E+00  0.41688393715E+02  0.41688393715E+02  0.00000000000E+00 0.  1.
         21   -1    0    0  504  502 -0.00000000000E+00 -0.00000000000E+00 -0.18879250086E+04  0.18879250086E+04  0.00000000000E+00 0.  1.
         21    1    1    2  503  502  0.19111450078E+03 -0.19000779367E+02 -0.16263946931E+04  0.16376951730E+04  0.00000000000E+00 0.  1.
         21    1    1    2  504  501 -0.19111450078E+03  0.19000779367E+02 -0.21984192186E+03  0.29191822936E+03  0.00000000000E+00 0.  1.
<mgrwt>
<rscale>  2 0.19205672E+03</rscale>
<asrwt>0</asrwt>
<pdfrwt beam="1">  1       21 0.64135988E-02 0.19205672E+03</pdfrwt>
<pdfrwt beam="2">  1       21 0.29045001E+00 0.19205672E+03</pdfrwt>
<totfact> 0.68179117E+03</totfact>
</mgrwt>
</event>
<event>
 4    1  0.6158309E+003  0.1240188E+03  0.7546771E-02  0.1236611E+00
         21   -1    0    0  503  501  0.00000000000E+00  0.00000000000E+00  0.32381840062E+02  0.32381840062E+02  0.00000000000E+00 0. -1.
         21   -1    0    0  501  502 -0.00000000000E+00 -0.00000000000E+00 -0.54456197164E+03  0.54456197164E+03  0.00000000000E+00 0. -1.
         21    1    1    2  503  504 -0.85303900507E+02  0.90021748142E+02 -0.15297227198E+03  0.19692939490E+03  0.00000000000E+00 0. -1.
         21    1    1    2  504  502  0.85303900507E+02 -0.90021748142E+02 -0.35920785960E+03  0.38001441680E+03  0.00000000000E+00 0. -1.
<mgrwt>
<rscale>  2 0.12401883E+03</rscale>
<asrwt>0</asrwt>
<pdfrwt beam="1">  1       21 0.49818217E-02 0.12401883E+03</pdfrwt>
<pdfrwt beam="2">  1       21 0.83778763E-01 0.12401883E+03</pdfrwt>
<totfact> 0.34035663E+05</totfact>
</mgrwt>
</event>
<event>
 4    1  0.6158309E+003  0.1134852E+03  0.7546771E-02  0.1254249E+00
         21   -1    0    0  502  501  0.00000000000E+00  0.00000000000E+00  0.29554552648E+03  0.29554552648E+03  0.00000000000E+00 0.  1.
         21   -1    0    0  504  502 -0.00000000000E+00 -0.00000000000E+00 -0.58278402606E+02  0.58278402606E+02  0.00000000000E+00 0.  1.
         21    1    1    2  503  501 -0.54575815054E+02 -0.99500655555E+02  0.20748963934E+03  0.23649704116E+03  0.00000000000E+00 0.  1.
         21    1    1    2  504  503  0.54575815054E+02  0.99500655555E+02  0.29777484535E+02  0.11732688792E+03  0.00000000000E+00 0.  1.
<mgrwt>
<rscale>  2 0.11348524E+03</rscale>
<asrwt>0</asrwt>
<pdfrwt beam="1">  1       21 0.45468541E-01 0.11348524E+03</pdfrwt>
<pdfrwt beam="2">  1       21 0.89659083E-02 0.11348524E+03</pdfrwt>
<totfact> 0.46116002E+05</totfact>
</mgrwt>
</event>
<event>
 4    1  0.6158309E+003  0.1016458E+03  0.7546771E-02  0.1276873E+00
         21   -1    0    0  502  501  0.00000000000E+00  0.00000000000E+00  0.10091014226E+03  0.10091014226E+03  0.00000000000E+00 0.  1.
         21   -1    0    0  504  502 -0.00000000000E+00 -0.00000000000E+00 -0.13158773551E+03  0.13158773551E+03  0.00000000000E+00 0.  1.
         21    1    1    2  503  501 -0.10068681023E+03  0.13929594289E+02  0.39423242931E+02  0.10902320594E+03  0.00000000000E+00 0.  1.
         21    1    1    2  504  503  0.10068681023E+03 -0.13929594289E+02 -0.70100836184E+02  0.12347467183E+03  0.00000000000E+00 0.  1.
<mgrwt>
<rscale>  2 0.10164579E+03</rscale>
<asrwt>0</asrwt>
<pdfrwt beam="1">  1       21 0.15524637E-01 0.10164579E+03</pdfrwt>
<pdfrwt beam="2">  1       21 0.20244267E-01 0.10164579E+03</pdfrwt>
<totfact> 0.83224835E+05</totfact>
</mgrwt>
</event>
<event>
 4    1  0.6158309E+003  0.1126826E+03  0.7546771E-02  0.1255681E+00
         21   -1    0    0  502  501  0.00000000000E+00  0.00000000000E+00  0.79283037923E+02  0.79283037923E+02  0.00000000000E+00 0. -1.
         21   -1    0    0  504  502 -0.00000000000E+00 -0.00000000000E+00 -0.10039561976E+04  0.10039561976E+04  0.00000000000E+00 0. -1.
         21    1    1    2  503  501  0.10462559662E+03  0.41843076182E+02  0.34207462069E+02  0.11776038788E+03  0.00000000000E+00 0. -1.
         21    1    1    2  504  503 -0.10462559662E+03 -0.41843076182E+02 -0.95888062176E+03  0.96547884766E+03  0.00000000000E+00 0. -1.
<mgrwt>
<rscale>  2 0.11268256E+03</rscale>
<asrwt>0</asrwt>
<pdfrwt beam="1">  1       21 0.12197391E-01 0.11268256E+03</pdfrwt>
<pdfrwt beam="2">  1       21 0.15445480E+00 0.11268256E+03</pdfrwt>
<totfact> 0.16836850E+04</totfact>
</mgrwt>
</event>
<event>
 4    1  0.6158309E+003  0.1224707E+03  0.7546771E-02  0.1239076E+00
         21   -1    0    0  502  501  0.00000000000E+00  0.00000000000E+00  0.16245888502E+02  0.16245888502E+02  0.00000000000E+00 0.  1.
         21   -1    0    0  504  502 -0.00000000000E+00 -0.00000000000E+00 -0.10390786937E+04  0.10390786937E+04  0.00000000000E+00 0.  1.
         21    1    1    2  503  501  0.11965719453E+03  0.26100376432E+02 -0.33524585408E+03  0.35691575551E+03  0.00000000000E+00 0.  1.
         21    1    1    2  504  503 -0.11965719453E+03 -0.26100376432E+02 -0.68758695109E+03  0.69840882666E+03  0.00000000000E+00 0.  1.
<mgrwt>
<rscale>  2 0.12247071E+03</rscale>
<asrwt>0</asrwt>
<pdfrwt beam="1">  1       21 0.24993673E-02 0.12247071E+03</pdfrwt>
<pdfrwt beam="2">  1       21 0.15985827E+00 0.12247071E+03</pdfrwt>
<totfact> 0.22199258E+05</totfact>
</mgrwt>
</event>
<event>
 4    1  0.6158309E+003  0.1221895E+03  0.7546771E-02  0.1239528E+00
         21   -1    0    0  504  501  0.00000000000E+00  0.00000000000E+00  0.39227033985E+03  0.39227033985E+03  0.00000000000E+00 0.  1.
         21   -1    0    0  503  502 -0.00000000000E+00 -0.00000000000E+00 -0.52565914101E+02  0.52565914101E+02  0.00000000000E+00 0. -1.
         21    1    1    2  503  501  0.11640721544E+03  0.37143413103E+02  0.28668720108E+03  0.31164053684E+03  0.00000000000E+00 0.  1.
         21    1    1    2  504  502 -0.11640721544E+03 -0.37143413103E+02  0.53017224674E+02  0.13319571711E+03  0.00000000000E+00 0. -1.
<mgrwt>
<rscale>  2 0.12218950E+03</rscale>
<asrwt>0</asrwt>
<pdfrwt beam="1">  1       21 0.60349281E-01 0.12218950E+03</pdfrwt>
<pdfrwt beam="2">  1       21 0.80870640E-02 0.12218950E+03</pdfrwt>
<totfact> 0.30601017E+05</totfact>
</mgrwt>
</event>
<event>
 4    1  0.6158309E+003  0.1322062E+03  0.7546771E-02  0.1224218E+00
         21   -1    0    0  503  501  0.00000000000E+00  0.00000000000E+00  0.94638714438E+01  0.94638714438E+01  0.00000000000E+00 0.  1.
         21   -1    0    0  504  502 -0.00000000000E+00 -0.00000000000E+00 -0.18476298542E+04  0.18476298542E+04  0.00000000000E+00 0.  1.
         21    1    1    2  503  502 -0.13177573864E+03 -0.10660195032E+02 -0.90018037361E+03  0.90983690301E+03  0.00000000000E+00 0.  1.
         21    1    1    2  504  501  0.13177573864E+03  0.10660195032E+02 -0.93798560913E+03  0.94725682261E+03  0.00000000000E+00 0.  1.
<mgrwt>
<rscale>  2 0.13220622E+03</rscale>
<asrwt>0</asrwt>
<pdfrwt beam="1">  1       21 0.14559811E-02 0.13220622E+03</pdfrwt>
<pdfrwt beam="2">  1       21 0.28425057E+00 0.13220622E+03</pdfrwt>
<totfact> 0.91294022E+04</totfact>
</mgrwt>
</event>
<event>
 4    1  0.6158309E+003  0.1023245E+03  0.7546771E-02  0.1275482E+00
         21   -1    0    0  503  501  0.00000000000E+00  0.00000000000E+00  0.11468874375E+04  0.11468874375E+04  0.00000000000E+00 0.  1.
         21   -1    0    0  501  502 -0.00000000000E+00 -0.00000000000E+00 -0.96835462456E+01  0.96835462456E+01  0.00000000000E+00 0.  1.
         21    1    1    2  503  504 -0.92176001162E+02 -0.44428476888E+02  0.70694833529E+03  0.71431523399E+03  0.00000000000E+00 0.  1.
         21    1    1    2  504  502  0.92176001162E+02  0.44428476888E+02  0.43025555597E+03  0.44225574976E+03  0.00000000000E+00 0.  1.
<mgrwt>
<rscale>  2 0.10232451E+03</rscale>
<asrwt>0</asrwt>
<pdfrwt beam="1">  1       21 0.17644411E+00 0.10232451E+03</pdfrwt>
<pdfrwt beam="2">  1       21 0.14897773E-02 0.10232451E+03</pdfrwt>
<totfact> 0.39482133E+05</totfact>
</mgrwt>
</event>
<event>
 4    1  0.6158309E+003  0.1363188E+03  0.7546771E-02  0.1218370E+00
         21   -1    0    0  503  501  0.00000000000E+00  0.00000000000E+00  0.14476034695E+03  0.14476034695E+03  0.00000000000E+00 0.  1.
         21   -1    0    0  501  502 -0.00000000000E+00 -0.00000000000E+00 -0.14524001682E+03  0.14524001682E+03  0.00000000000E+00 0.  1.
         21    1    1    2  503  504 -0.12289916752E+03 -0.58979728485E+02  0.49178665213E+02  0.14491844210E+03  0.00000000000E+00 0.  1.
         21    1    1    2  504  502  0.12289916752E+03  0.58979728485E+02 -0.49658335086E+02  0.14508192166E+03  0.00000000000E+00 0.  1.
<mgrwt>
<rscale>  2 0.13631879E+03</rscale>
<asrwt>0</asrwt>
<pdfrwt beam="1">  1       21 0.22270822E-01 0.13631879E+03</pdfrwt>
<pdfrwt beam="2">  1       21 0.22344618E-01 0.13631879E+03</pdfrwt>
<totfact> 0.35726214E+05</totfact>
</mgrwt>
</event>
<event>
 4    1  0.6158309E+003  0.1041241E+03  0.7546771E-02  0.1271855E+00
         21   -1    0    0  503  501  0.00000000000E+00  0.00000000000E+00  0.62675932376E+03  0.62675932376E+03  0.00000000000E+00 0.  1.
         21   -1    0    0  504  502 -0.00000000000E+00 -0.00000000000E+00 -0.25879310650E+03  0.25879310650E+03  0.00000000000E+00 0.  1.
         21    1    1    2  503  502  0.77860057953E+00 -0.10412121270E+03 -0.24373918143E+03  0.26504833846E+03  0.00000000000E+00 0.  1.
         21    1    1    2  504  501 -0.77860057953E+00  0.10412121270E+03  0.61170539870E+03  0.62050409181E+03  0.00000000000E+00 0.  1.
<mgrwt>
<rscale>  2 0.10412412E+03</rscale>
<asrwt>0</asrwt>
<pdfrwt beam="1">  1       21 0.96424511E-01 0.10412412E+03</pdfrwt>
<pdfrwt beam="2">  1       21 0.39814324E-01 0.10412412E+03</pdfrwt>
<totfact> 0.59183370E+03</totfact>
</mgrwt>
</event>
<event>
 4    1  0.6158309E+003  0.1242148E+03  0.7546771E-02  0.1236302E+00
         21   -1    0    0  504  501  0.00000000000E+00  0.00000000000E+00  0.75192952453E+02  0.75192952453E+02  0.00000000000E+00 0.  1.
         21   -1    0    0  501  502 -0.00000000000E+00 -0.00000000000E+00 -0.69815125134E+03  0.69815125134E+03  0.00000000000E+00 0.  1.
         21    1    1    2  503  502  0.11146706762E+03  0.54812491335E+02 -0.63639559307E+03  0.64840470946E+03  0.00000000000E+00 0.  1.
         21    1    1    2  504  503 -0.11146706762E+03 -0.54812491335E+02  0.13437294181E+02  0.12493949434E+03  0.00000000000E+00 0.  1.
<mgrwt>
<rscale>  2 0.12421480E+03</rscale>
<asrwt>0</asrwt>
<pdfrwt beam="1">  1       21 0.11568147E-01 0.12421480E+03</pdfrwt>
<pdfrwt beam="2">  1       21 0.10740788E+00 0.12421480E+03</pdfrwt>
<totfact> 0.45046933E+04</totfact>
</mgrwt>
</event>
<event>
 4    1  0.6158309E+003  0.1097714E+03  0.7546771E-02  0.1260994E+00
         21   -1    0    0  504  501  0.00000000000E+00  0.00000000000E+00  0.16378748555E+04  0.16378748555E+04  0.00000000000E+00 0.  1.
         21   -1    0    0  503  502 -0.00000000000E+00 -0.00000000000E+00 -0.10427217361E+02  0.10427217361E+02  0.00000000000E+00 0. -1.
         21    1    1    2  503  501 -0.16714371179E+02 -0.10849143561E+03  0.36651458404E+03  0.38259992436E+03  0.00000000000E+00 0. -1.
         21    1    1    2  504  502  0.16714371179E+02  0.10849143561E+03  0.12609330541E+04  0.12657021485E+04  0.00000000000E+00 0.  1.
<mgrwt>
<rscale>  2 0.10977141E+03</rscale>
<asrwt>0</asrwt>
<pdfrwt beam="1">  1       21 0.25198054E+00 0.10977141E+03</pdfrwt>
<pdfrwt beam="2">  1       21 0.16041886E-02 0.10977141E+03</pdfrwt>
<totfact> 0.12165369E+05</totfact>
</mgrwt>
</event>
<event>
 4    1  0.6158309E+003  0.1021423E+03  0.7546771E-02  0.1275854E+00
         21   -1    0    0  503  501  0.00000000000E+00  0.00000000000E+00  0.10732267146E+02  0.10732267146E+02  0.00000000000E+00 0. -1.
         21   -1    0    0  504  502 -0.00000000000E+00 -0.00000000000E+00 -0.10793221341E+04  0.10793221341E+04  0.00000000000E+00 0. -1.
         21    1    1    2  503  502 -0.71996210362E+02 -0.72454102634E+02 -0.70606377907E+03  0.71341370285E+03  0.00000000000E+00 0. -1.
         21    1    1    2  504  501  0.71996210362E+02  0.72454102634E+02 -0.36252608789E+03  0.37664069840E+03  0.00000000000E+00 0. -1.
<mgrwt>
<rscale>  2 0.10214231E+03</rscale>
<asrwt>0</asrwt>
<pdfrwt beam="1">  1       21 0.16511182E-02 0.10214231E+03</pdfrwt>
<pdfrwt beam="2">  1       21 0.16604954E+00 0.10214231E+03</pdfrwt>
<totfact> 0.39453003E+05</totfact>
</mgrwt>
</event>
<event>
 4    1  0.6158309E+003  0.1307308E+03  0.7546771E-02  0.1226375E+00
         21   -1    0    0  504  501  0.00000000000E+00  0.00000000000E+00  0.12896725321E+03  0.12896725321E+03  0.00000000000E+00 0. -1.
         21   -1    0    0  503  502 -0.00000000000E+00 -0.00000000000E+00 -0.16862173086E+03  0.16862173086E+03  0.00000000000E+00 0. -1.
         21    1    1    2  503  501 -0.11134202077E+03 -0.68509095341E+02  0.49022668641E+02  0.13962006938E+03  0.00000000000E+00 0. -1.
         21    1    1    2  504  502  0.11134202077E+03  0.68509095341E+02 -0.88677146294E+02  0.15796891469E+03  0.00000000000E+00 0. -1.
<mgrwt>
<rscale>  2 0.13073080E+03</rscale>
<asrwt>0</asrwt>
<pdfrwt beam="1">  1       21 0.19841116E-01 0.13073080E+03</pdfrwt>
<pdfrwt beam="2">  1       21 0.25941805E-01 0.13073080E+03</pdfrwt>
<totfact> 0.33457393E+05</totfact>
</mgrwt>
</event>
<event>
 4    1  0.6158309E+003  0.1069781E+03  0.7546771E-02  0.1266270E+00
         21   -1    0    0  503  501  0.00000000000E+00  0.00000000000E+00  0.68872032520E+02  0.68872032520E+02  0.00000000000E+00 0. -1.
         21   -1    0    0  501  502 -0.00000000000E+00 -0.00000000000E+00 -0.57173915790E+03  0.57173915790E+03  0.00000000000E+00 0.  1.
         21    1    1    2  503  504 -0.65653441657E+02 -0.84462702583E+02  0.18339839752E+02  0.10853880528E+03  0.00000000000E+00 0. -1.
         21    1    1    2  504  502  0.65653441657E+02  0.84462702583E+02 -0.52120696514E+03  0.53207238515E+03  0.00000000000E+00 0.  1.
<mgrwt>
<rscale>  2 0.10697814E+03</rscale>
<asrwt>0</asrwt>
<pdfrwt beam="1">  1       21 0.10595698E-01 0.10697814E+03</pdfrwt>
<pdfrwt beam="2">  1       21 0.87959869E-01 0.10697814E+03</pdfrwt>
<totfact> 0.84388479E+04</totfact>
</mgrwt>
</event>
<event>
 4    1  0.6158309E+003  0.1078099E+03  0.7546771E-02  0.1264680E+00
         21   -1    0    0  503  501  0.00000000000E+00  0.00000000000E+00  0.36656339190E+03  0.36656339190E+03  0.00000000000E+00 0.  1.
         21   -1    0    0  501  502 -0.00000000000E+00 -0.00000000000E+00 -0.64826562331E+02  0.64826562331E+02  0.00000000000E+00 0. -1.
         21    1    1    2  503  504  0.41039056559E+01  0.10773180989E+03  0.30503824750E+03  0.32352946904E+03  0.00000000000E+00 0.  1.
         21    1    1    2  504  502 -0.41039056559E+01 -0.10773180989E+03 -0.33014179306E+01  0.10786048519E+03  0.00000000000E+00 0. -1.
<mgrwt>
<rscale>  2 0.10780995E+03</rscale>
<asrwt>0</asrwt>
<pdfrwt beam="1">  1       21 0.56394367E-01 0.10780995E+03</pdfrwt>
<pdfrwt beam="2">  1       21 0.99733175E-02 0.10780995E+03</pdfrwt>
<totfact> 0.24630819E+05</totfact>
</mgrwt>
</event>
<event>
 4    1  0.6158309E+003  0.1102559E+03  0.7546771E-02  0.1260097E+00
         21   -1    0    0  504  501  0.00000000000E+00  0.00000000000E+00  0.53410275672E+02  0.53410275672E+02  0.00000000000E+00 0. -1.
         21   -1    0    0  503  502 -0.00000000000E+00 -0.00000000000E+00 -0.59547244729E+03  0.59547244729E+03  0.00000000000E+00 0. -1.
         21    1    1    2  503  501  0.71858700485E+02 -0.83622259345E+02 -0.52603806186E+03  0.53746850849E+03  0.00000000000E+00 0. -1.
         21    1    1    2  504  502 -0.71858700485E+02  0.83622259345E+02 -0.16024109760E+02  0.11141421447E+03  0.00000000000E+00 0. -1.
<mgrwt>
<rscale>  2 0.11025586E+03</rscale>
<asrwt>0</asrwt>
<pdfrwt beam="1">  1       21 0.82169654E-02 0.11025586E+03</pdfrwt>
<pdfrwt beam="2">  1       21 0.91611147E-01 0.11025586E+03</pdfrwt>
<totfact> 0.11935682E+05</totfact>
</mgrwt>
</event>
<event>
 4    1  0.6158309E+003  0.1135583E+03  0.7546771E-02  0.1254119E+00
         21   -1    0    0  504  501  0.00000000000E+00  0.00000000000E+00  0.28195813422E+03  0.28195813422E+03  0.00000000000E+00 0. -1.
         21   -1    0    0  501  502 -0.00000000000E+00 -0.00000000000E+00 -0.13746380699E+03  0.13746380699E+03  0.00000000000E+00 0.  1.
         21    1    1    2  503  502 -0.97939527191E+02  0.57474701580E+02 -0.99061248156E+02  0.15069380609E+03  0.00000000000E+00 0.  1.
         21    1    1    2  504  503  0.97939527191E+02 -0.57474701580E+02  0.24355557538E+03  0.26872813513E+03  0.00000000000E+00 0. -1.
<mgrwt>
<rscale>  2 0.11355832E+03</rscale>
<asrwt>0</asrwt>
<pdfrwt beam="1">  1       21 0.43378174E-01 0.11355832E+03</pdfrwt>
<pdfrwt beam="2">  1       21 0.21148278E-01 0.11355832E+03</pdfrwt>
<totfact> 0.10946255E+05</totfact>
</mgrwt>
</event>
<event>
 4    1  0.6158309E+003  0.1559102E+03  0.7546771E-02  0.1193393E+00
         21   -1    0    0  503  501  0.00000000000E+00  0.00000000000E+00  0.14229223334E+03  0.14229223334E+03  0.00000000000E+00 0. -1.
         21   -1    0    0  501  502 -0.00000000000E+00 -0.00000000000E+00 -0.94209430588E+03  0.94209430588E+03  0.00000000000E+00 0. -1.
         21    1    1    2  503  504 -0.93714944255E+02  0.12460133469E+03  0.90677057242E+02  0.18036161480E+03  0.00000000000E+00 0. -1.
         21    1    1    2  504  502  0.93714944255E+02 -0.12460133469E+03 -0.89047912979E+03  0.90402492442E+03  0.00000000000E+00 0. -1.
<mgrwt>
<rscale>  2 0.15591018E+03</rscale>
<asrwt>0</asrwt>
<pdfrwt beam="1">  1       21 0.21891114E-01 0.15591018E+03</pdfrwt>
<pdfrwt beam="2">  1       21 0.14493758E+00 0.15591018E+03</pdfrwt>
<totfact> 0.65770022E+03</totfact>
</mgrwt>
</event>
<event>
 4    1  0.6158309E+003  0.2502505E+03  0.7546771E-02  0.1113147E+00
         21   -1    0    0  503  501  0.00000000000E+00  0.00000000000E+00  0.24662415489E+03  0.24662415489E+03  0.00000000000E+00 0.  1.
         21   -1    0    0  504  502 -0.00000000000E+00 -0.00000000000E+00 -0.34174074979E+03  0.34174074979E+03  0.00000000000E+00 0.  1.
         21    1    1    2  503  502  0.18932506486E+03 -0.16365003775E+03  0.10156372589E+03  0.27007499969E+03  0.00000000000E+00 0.  1.
         21    1    1    2  504  501 -0.18932506486E+03  0.16365003775E+03 -0.19668032078E+03  0.31828990500E+03  0.00000000000E+00 0.  1.
<mgrwt>
<rscale>  2 0.25025050E+03</rscale>
<asrwt>0</asrwt>
<pdfrwt beam="1">  1       21 0.37942178E-01 0.25025050E+03</pdfrwt>
<pdfrwt beam="2">  1       21 0.52575500E-01 0.25025050E+03</pdfrwt>
<totfact> 0.22284366E+04</totfact>
</mgrwt>
</event>
<event>
 4    1  0.6158309E+003  0.1374064E+03  0.7546771E-02  0.1216862E+00
         21   -1    0    0  503  501  0.00000000000E+00  0.00000000000E+00  0.10573928648E+03  0.10573928648E+03  0.00000000000E+00 0. -1.
         21   -1    0    0  504  502 -0.00000000000E+00 -0.00000000000E+00 -0.21824237840E+03  0.21824237840E+03  0.00000000000E+00 0. -1.
         21    1    1    2  503  502 -0.10099939621E+03  0.93164528632E+02 -0.12532882837E+03  0.18597801658E+03  0.00000000000E+00 0. -1.
         21    1    1    2  504  501  0.10099939621E+03 -0.93164528632E+02  0.12825736448E+02  0.13800364831E+03  0.00000000000E+00 0. -1.
<mgrwt>
<rscale>  2 0.13740636E+03</rscale>
<asrwt>0</asrwt>
<pdfrwt beam="1">  1       21 0.16267583E-01 0.13740636E+03</pdfrwt>
<pdfrwt beam="2">  1       21 0.33575750E-01 0.13740636E+03</pdfrwt>
<totfact> 0.29248116E+05</totfact>
</mgrwt>
</event>
<event>
 4    1  0.6158309E+003  0.1063619E+03  0.7546771E-02  0.1267459E+00
         21   -1    0    0  503  501  0.00000000000E+00  0.00000000000E+00  0.78353899256E+02  0.78353899256E+02  0.00000000000E+00 0. -1.
         21   -1    0    0  504  502 -0.00000000000E+00 -0.00000000000E+00 -0.14811659885E+03  0.14811659885E+03  0.00000000000E+00 0. -1.
         21    1    1    2  503  502  0.40509767623E+02 -0.98345350047E+02 -0.52863186791E+02  0.11877443187E+03  0.00000000000E+00 0. -1.
         21    1    1    2  504  501 -0.40509767623E+02  0.98345350047E+02 -0.16899512801E+02  0.10769606623E+03  0.00000000000E+00 0. -1.
<mgrwt>
<rscale>  2 0.10636188E+03</rscale>
<asrwt>0</asrwt>
<pdfrwt beam="1">  1       21 0.12054446E-01 0.10636188E+03</pdfrwt>
<pdfrwt beam="2">  1       21 0.22787169E-01 0.10636188E+03</pdfrwt>
<totfact> 0.10494123E+06</totfact>
</mgrwt>
</event>
<event>
 4    1  0.6158309E+003  0.1001906E+03  0.7546771E-02  0.1279896E+00
         21   -1    0    0  504  501  0.00000000000E+00  0.00000000000E+00  0.19515206252E+02  0.19515206252E+02  0.00000000000E+00 0.  1.
         21   -1    0    0  501  502 -0.00000000000E+00 -0.00000000000E+00 -0.51535799353E+03  0.51535799353E+03  0.00000000000E+00 0.  1.
         21    1    1    2  503  502  0.76147366268E+02 -0.65113261234E+02 -0.25959406492E+03  0.27825750074E+03  0.00000000000E+00 0.  1.
         21    1    1    2  504  503 -0.76147366268E+02  0.65113261234E+02 -0.23624872236E+03  0.25661569904E+03  0.00000000000E+00 0.  1.
<mgrwt>
<rscale>  2 0.10019061E+03</rscale>
<asrwt>0</asrwt>
<pdfrwt beam="1">  1       21 0.30023390E-02 0.10019061E+03</pdfrwt>
<pdfrwt beam="2">  1       21 0.79285855E-01 0.10019061E+03</pdfrwt>
<totfact> 0.89090468E+05</totfact>
</mgrwt>
</event>
<event>
 4    1  0.6158309E+003  0.1355271E+03  0.7546771E-02  0.1219478E+00
         21   -1    0    0  504  501  0.00000000000E+00  0.00000000000E+00  0.21949897444E+02  0.21949897444E+02  0.00000000000E+00 0.  1.
         21   -1    0    0  501  502 -0.00000000000E+00 -0.00000000000E+00 -0.83759649624E+03  0.83759649624E+03  0.00000000000E+00 0.  1.
         21    1    1    2  503  502  0.21885412516E+02  0.13374835586E+03 -0.42110665083E+03  0.44237812485E+03  0.00000000000E+00 0.  1.
         21    1    1    2  504  503 -0.21885412516E+02 -0.13374835586E+03 -0.39453994797E+03  0.41716826883E+03  0.00000000000E+00 0.  1.
<mgrwt>
<rscale>  2 0.13552710E+03</rscale>
<asrwt>0</asrwt>
<pdfrwt beam="1">  1       21 0.33769073E-02 0.13552710E+03</pdfrwt>
<pdfrwt beam="2">  1       21 0.12886100E+00 0.13552710E+03</pdfrwt>
<totfact> 0.23426267E+05</totfact>
</mgrwt>
</event>
<event>
 4    1  0.6158309E+003  0.1094084E+03  0.7546771E-02  0.1261669E+00
         21   -1    0    0  502  501  0.00000000000E+00  0.00000000000E+00  0.15020924274E+03  0.15020924274E+03  0.00000000000E+00 0. -1.
         21   -1    0    0  503  502 -0.00000000000E+00 -0.00000000000E+00 -0.25982467740E+03  0.25982467740E+03  0.00000000000E+00 0. -1.
         21    1    1    2  503  504  0.35696439128E+02  0.10342132568E+03 -0.22551340797E+03  0.25065215647E+03  0.00000000000E+00 0. -1.
         21    1    1    2  504  501 -0.35696439128E+02 -0.10342132568E+03  0.11589797331E+03  0.15938176366E+03  0.00000000000E+00 0. -1.
<mgrwt>
<rscale>  2 0.10940844E+03</rscale>
<asrwt>0</asrwt>
<pdfrwt beam="1">  1       21 0.23109114E-01 0.10940844E+03</pdfrwt>
<pdfrwt beam="2">  1       21 0.39973027E-01 0.10940844E+03</pdfrwt>
<totfact> 0.10953335E+05</totfact>
</mgrwt>
</event>
<event>
 4    1  0.6158309E+003  0.1219714E+03  0.7546771E-02  0.1239880E+00
         21   -1    0    0  504  501  0.00000000000E+00  0.00000000000E+00  0.10710143795E+03  0.10710143795E+03  0.00000000000E+00 0.  1.
         21   -1    0    0  503  502 -0.00000000000E+00 -0.00000000000E+00 -0.24847290289E+03  0.24847290289E+03  0.00000000000E+00 0.  1.
         21    1    1    2  503  501 -0.13858591470E+02  0.12118157354E+03 -0.18874512851E+03  0.22472596170E+03  0.00000000000E+00 0.  1.
         21    1    1    2  504  502  0.13858591470E+02 -0.12118157354E+03  0.47373663576E+02  0.13084837914E+03  0.00000000000E+00 0.  1.
<mgrwt>
<rscale>  2 0.12197145E+03</rscale>
<asrwt>0</asrwt>
<pdfrwt beam="1">  1       21 0.16477144E-01 0.12197145E+03</pdfrwt>
<pdfrwt beam="2">  1       21 0.38226600E-01 0.12197145E+03</pdfrwt>
<totfact> 0.22203631E+05</totfact>
</mgrwt>
</event>
<event>
 4    1  0.6158309E+003  0.1257648E+03  0.7546771E-02  0.1233879E+00
         21   -1    0    0  502  501  0.00000000000E+00  0.00000000000E+00  0.22168225152E+03  0.22168225152E+03  0.00000000000E+00 0.  1.
         21   -1    0    0  503  502 -0.00000000000E+00 -0.00000000000E+00 -0.74767600042E+03  0.74767600042E+03  0.00000000000E+00 0.  1.
         21    1    1    2  503  504 -0.10970256833E+03 -0.61499000425E+02 -0.72397041384E+03  0.73481286099E+03  0.00000000000E+00 0.  1.
         21    1    1    2  504  501  0.10970256833E+03  0.61499000425E+02  0.19797666495E+03  0.23454539095E+03  0.00000000000E+00 0.  1.
<mgrwt>
<rscale>  2 0.12576478E+03</rscale>
<asrwt>0</asrwt>
<pdfrwt beam="1">  1       21 0.34104962E-01 0.12576478E+03</pdfrwt>
<pdfrwt beam="2">  1       21 0.11502707E+00 0.12576478E+03</pdfrwt>
<totfact> 0.51621944E+03</totfact>
</mgrwt>
</event>
<event>
 4    1  0.6158309E+003  0.1271245E+03  0.7546771E-02  0.1231786E+00
         21   -1    0    0  503  501  0.00000000000E+00  0.00000000000E+00  0.26876043337E+03  0.26876043337E+03  0.00000000000E+00 0. -1.
         21   -1    0    0  504  502 -0.00000000000E+00 -0.00000000000E+00 -0.19576387499E+03  0.19576387499E+03  0.00000000000E+00 0. -1.
         21    1    1    2  503  502  0.12164281773E+03 -0.36927842522E+02  0.22982674585E+03  0.26264229242E+03  0.00000000000E+00 0. -1.
         21    1    1    2  504  501 -0.12164281773E+03  0.36927842522E+02 -0.15683018747E+03  0.20188201595E+03  0.00000000000E+00 0. -1.
<mgrwt>
<rscale>  2 0.12712451E+03</rscale>
<asrwt>0</asrwt>
<pdfrwt beam="1">  1       21 0.41347759E-01 0.12712451E+03</pdfrwt>
<pdfrwt beam="2">  1       21 0.30117519E-01 0.12712451E+03</pdfrwt>
<totfact> 0.61416430E+04</totfact>
</mgrwt>
</event>
<event>
 4    1  0.6158309E+003  0.1203070E+03  0.7546771E-02  0.1242591E+00
         21   -1    0    0  503  501  0.00000000000E+00  0.00000000000E+00  0.15519546791E+03  0.15519546791E+03  0.00000000000E+00 0. -1.
         21   -1    0    0  504  502 -0.00000000000E+00 -0.00000000000E+00 -0.13551573544E+03  0.13551573544E+03  0.00000000000E+00 0. -1.
         21    1    1    2  503  502 -0.12002719344E+03  0.82001867036E+01 -0.71325689356E+02  0.13986108891E+03  0.00000000000E+00 0. -1.
         21    1    1    2  504  501  0.12002719344E+03 -0.82001867036E+01  0.91005421828E+02  0.15085011445E+03  0.00000000000E+00 0. -1.
<mgrwt>
<rscale>  2 0.12030698E+03</rscale>
<asrwt>0</asrwt>
<pdfrwt beam="1">  1       21 0.23876226E-01 0.12030698E+03</pdfrwt>
<pdfrwt beam="2">  1       21 0.20848575E-01 0.12030698E+03</pdfrwt>
<totfact> 0.35755805E+05</totfact>
</mgrwt>
</event>
<event>
 4    1  0.6158309E+003  0.1088296E+03  0.7546771E-02  0.1262753E+00
         21   -1    0    0  504  501  0.00000000000E+00  0.00000000000E+00  0.10169070456E+04  0.10169070456E+04  0.00000000000E+00 0. -1.
         21   -1    0    0  503  502 -0.00000000000E+00 -0.00000000000E+00 -0.30893966077E+02  0.30893966077E+02  0.00000000000E+00 0.  1.
         21    1    1    2  503  501  0.57678332810E+02 -0.92288088361E+02  0.79489400980E+02  0.13476812011E+03  0.00000000000E+00 0.  1.
         21    1    1    2  504  502 -0.57678332810E+02  0.92288088361E+02  0.90652367857E+03  0.91303289160E+03  0.00000000000E+00 0. -1.
<mgrwt>
<rscale>  2 0.10882960E+03</rscale>
<asrwt>0</asrwt>
<pdfrwt beam="1">  1       21 0.15644721E+00 0.10882960E+03</pdfrwt>
<pdfrwt beam="2">  1       21 0.47529186E-02 0.10882960E+03</pdfrwt>
<totfact> 0.82191836E+04</totfact>
</mgrwt>
</event>
<event>
 4    1  0.6158309E+003  0.1278109E+03  0.7546771E-02  0.1230741E+00
         21   -1    0    0  503  501  0.00000000000E+00  0.00000000000E+00  0.69463538038E+01  0.69463538038E+01  0.00000000000E+00 0.  1.
         21   -1    0    0  504  502 -0.00000000000E+00 -0.00000000000E+00 -0.24415356590E+04  0.24415356590E+04  0.00000000000E+00 0.  1.
         21    1    1    2  503  502 -0.12434189840E+03  0.29575676675E+02 -0.14521490506E+04  0.14577628386E+04  0.00000000000E+00 0.  1.
         21    1    1    2  504  501  0.12434189840E+03 -0.29575676675E+02 -0.98244025452E+03  0.99071917416E+03  0.00000000000E+00 0.  1.
<mgrwt>
<rscale>  2 0.12781091E+03</rscale>
<asrwt>0</asrwt>
<pdfrwt beam="1">  1       21 0.10686677E-02 0.12781091E+03</pdfrwt>
<pdfrwt beam="2">  1       21 0.37562161E+00 0.12781091E+03</pdfrwt>
<totfact> 0.45077699E+04</totfact>
</mgrwt>
</event>
<event>
 4    1  0.6158309E+003  0.1114539E+03  0.7546771E-02  0.1257901E+00
         21   -1    0    0  502  501  0.00000000000E+00  0.00000000000E+00  0.84462225153E+03  0.84462225153E+03  0.00000000000E+00 0.  1.
         21   -1    0    0  503  502 -0.00000000000E+00 -0.00000000000E+00 -0.25666805705E+02  0.25666805705E+02  0.00000000000E+00 0. -1.
         21    1    1    2  503  504  0.68427382784E+02 -0.87975375716E+02  0.12513221665E+03  0.16757101507E+03  0.00000000000E+00 0. -1.
         21    1    1    2  504  501 -0.68427382784E+02  0.87975375716E+02  0.69382322917E+03  0.70271804217E+03  0.00000000000E+00 0.  1.
<mgrwt>
<rscale>  2 0.11145391E+03</rscale>
<asrwt>0</asrwt>
<pdfrwt beam="1">  1       21 0.12994186E+00 0.11145391E+03</pdfrwt>
<pdfrwt beam="2">  1       21 0.39487400E-02 0.11145391E+03</pdfrwt>
<totfact> 0.17882343E+05</totfact>
</mgrwt>
</event>
<event>
 4    1  0.6158309E+003  0.1049129E+03  0.7546771E-02  0.1270291E+00
         21   -1    0    0  503  501  0.00000000000E+00  0.00000000000E+00  0.34287604593E+02  0.34287604593E+02  0.00000000000E+00 0.  1.
         21   -1    0    0  504  502 -0.00000000000E+00 -0.00000000000E+00 -0.32705969589E+03  0.32705969589E+03  0.00000000000E+00 0.  1.
         21    1    1    2  503  502  0.10368663393E+03 -0.15993860536E+02 -0.17095505727E+03  0.20058004197E+03  0.00000000000E+00 0.  1.
         21    1    1    2  504  501 -0.10368663393E+03  0.15993860536E+02 -0.12181703403E+03  0.16076725852E+03  0.00000000000E+00 0.  1.
<mgrwt>
<rscale>  2 0.10491292E+03</rscale>
<asrwt>0</asrwt>
<pdfrwt beam="1">  1       21 0.52750162E-02 0.10491292E+03</pdfrwt>
<pdfrwt beam="2">  1       21 0.50316875E-01 0.10491292E+03</pdfrwt>
<totfact> 0.92507063E+05</totfact>
</mgrwt>
</event>
<event>
 4    1  0.6158309E+003  0.1027615E+03  0.7546771E-02  0.1274594E+00
         21   -1    0    0  502  501  0.00000000000E+00  0.00000000000E+00  0.28121284546E+03  0.28121284546E+03  0.00000000000E+00 0. -1.
         21   -1    0    0  504  502 -0.00000000000E+00 -0.00000000000E+00 -0.65026171777E+02  0.65026171777E+02  0.00000000000E+00 0. -1.
         21    1    1    2  503  501 -0.38376715420E+02 -0.95326549445E+02  0.22062359671E+03  0.24338178802E+03  0.00000000000E+00 0. -1.
         21    1    1    2  504  503  0.38376715420E+02  0.95326549445E+02 -0.44369230289E+01  0.10285722921E+03  0.00000000000E+00 0. -1.
<mgrwt>
<rscale>  2 0.10276149E+03</rscale>
<asrwt>0</asrwt>
<pdfrwt beam="1">  1       21 0.43263514E-01 0.10276149E+03</pdfrwt>
<pdfrwt beam="2">  1       21 0.10004027E-01 0.10276149E+03</pdfrwt>
<totfact> 0.42196379E+05</totfact>
</mgrwt>
</event>
<event>
 4    1  0.6158309E+003  0.1109013E+03  0.7546771E-02  0.1258910E+00
         21   -1    0    0  503  501  0.00000000000E+00  0.00000000000E+00  0.18059957699E+03  0.18059957699E+03  0.00000000000E+00 0. -1.
         21   -1    0    0  504  502 -0.00000000000E+00 -0.00000000000E+00 -0.94086375972E+02  0.94086375972E+02  0.00000000000E+00 0. -1.
         21    1    1    2  503  502 -0.10687269604E+03  0.29619773966E+02 -0.28921145042E+02  0.11461036951E+03  0.00000000000E+00 0. -1.
         21    1    1    2  504  501  0.10687269604E+03 -0.29619773966E+02  0.11543434606E+03  0.16007558346E+03  0.00000000000E+00 0. -1.
<mgrwt>
<rscale>  2 0.11090133E+03</rscale>
<asrwt>0</asrwt>
<pdfrwt beam="1">  1       21 0.27784550E-01 0.11090133E+03</pdfrwt>
<pdfrwt beam="2">  1       21 0.14474827E-01 0.11090133E+03</pdfrwt>
<totfact> 0.52211725E+05</totfact>
</mgrwt>
</event>
<event>
 4    1  0.6158309E+003  0.1085234E+03  0.7546771E-02  0.1263329E+00
         21   -1    0    0  502  501  0.00000000000E+00  0.00000000000E+00  0.93905458611E+02  0.93905458611E+02  0.00000000000E+00 0. -1.
         21   -1    0    0  504  502 -0.00000000000E+00 -0.00000000000E+00 -0.19714572274E+03  0.19714572274E+03  0.00000000000E+00 0. -1.
         21    1    1    2  503  501 -0.82128030319E+02  0.70938738911E+02  0.36159342503E+02  0.11438888098E+03  0.00000000000E+00 0. -1.
         21    1    1    2  504  503  0.82128030319E+02 -0.70938738911E+02 -0.13939960663E+03  0.17666230037E+03  0.00000000000E+00 0. -1.
<mgrwt>
<rscale>  2 0.10852335E+03</rscale>
<asrwt>0</asrwt>
<pdfrwt beam="1">  1       21 0.14446994E-01 0.10852335E+03</pdfrwt>
<pdfrwt beam="2">  1       21 0.30330111E-01 0.10852335E+03</pdfrwt>
<totfact> 0.44308458E+05</totfact>
</mgrwt>
</event>
<event>
 4    1  0.6158309E+003  0.1238450E+03  0.7546771E-02  0.1236886E+00
         21   -1    0    0  503  501  0.00000000000E+00  0.00000000000E+00  0.64794353092E+02  0.64794353092E+02  0.00000000000E+00 0. -1.
         21   -1    0    0  504  502 -0.00000000000E+00 -0.00000000000E+00 -0.31014806619E+03  0.31014806619E+03  0.00000000000E+00 0. -1.
         21    1    1    2  503  502  0.11385128019E+03  0.48738725946E+02 -0.31453548376E+02  0.12777677063E+03  0.00000000000E+00 0. -1.
         21    1    1    2  504  501 -0.11385128019E+03 -0.48738725946E+02 -0.21390016473E+03  0.24716564866E+03  0.00000000000E+00 0. -1.
<mgrwt>
<rscale>  2 0.12384497E+03</rscale>
<asrwt>0</asrwt>
<pdfrwt beam="1">  1       21 0.99683620E-02 0.12384497E+03</pdfrwt>
<pdfrwt beam="2">  1       21 0.47715087E-01 0.12384497E+03</pdfrwt>
<totfact> 0.34717441E+05</totfact>
</mgrwt>
</event>
<event>
 4    1  0.6158309E+003  0.2214763E+03  0.7546771E-02  0.1132787E+00
         21   -1    0    0  504  501  0.00000000000E+00  0.00000000000E+00  0.11564903712E+03  0.11564903712E+03  0.00000000000E+00 0.  1.
         21   -1    0    0  503  502 -0.00000000000E+00 -0.00000000000E+00 -0.46963752081E+03  0.46963752081E+03  0.00000000000E+00 0.  1.
         21    1    1    2  503  501  0.69369495194E+02  0.21033217788E+03 -0.26807691863E+03  0.34773119822E+03  0.00000000000E+00 0.  1.
         21    1    1    2  504  502 -0.69369495194E+02 -0.21033217788E+03 -0.85911565065E+02  0.23755535971E+03  0.00000000000E+00 0.  1.
<mgrwt>
<rscale>  2 0.22147630E+03</rscale>
<asrwt>0</asrwt>
<pdfrwt beam="1">  1       21 0.17792160E-01 0.22147630E+03</pdfrwt>
<pdfrwt beam="2">  1       21 0.72251926E-01 0.22147630E+03</pdfrwt>
<totfact> 0.48871634E+04</totfact>
</mgrwt>
</event>
<event>
 4    1  0.6158309E+003  0.1410070E+03  0.7546771E-02  0.1211980E+00
         21   -1    0    0  503  501  0.00000000000E+00  0.00000000000E+00  0.92934827724E+02  0.92934827724E+02  0.00000000000E+00 0. -1.
         21   -1    0    0  504  502 -0.00000000000E+00 -0.00000000000E+00 -0.21789728935E+03  0.21789728935E+03  0.00000000000E+00 0. -1.
         21    1    1    2  503  502 -0.55717092767E+02 -0.12953218163E+03 -0.41551125650E+02  0.14700162090E+03  0.00000000000E+00 0. -1.
         21    1    1    2  504  501  0.55717092767E+02  0.12953218163E+03 -0.83411335971E+02  0.16383049617E+03  0.00000000000E+00 0. -1.
<mgrwt>
<rscale>  2 0.14100702E+03</rscale>
<asrwt>0</asrwt>
<pdfrwt beam="1">  1       21 0.14297666E-01 0.14100702E+03</pdfrwt>
<pdfrwt beam="2">  1       21 0.33522660E-01 0.14100702E+03</pdfrwt>
<totfact> 0.37031933E+05</totfact>
</mgrwt>
</event>
<event>
 4    1  0.6158309E+003  0.1314692E+03  0.7546771E-02  0.1225292E+00
         21   -1    0    0  503  501  0.00000000000E+00  0.00000000000E+00  0.22805541984E+03  0.22805541984E+03  0.00000000000E+00 0. -1.
         21   -1    0    0  504  502 -0.00000000000E+00 -0.00000000000E+00 -0.12758367126E+03  0.12758367126E+03  0.00000000000E+00 0. -1.
         21    1    1    2  503  502  0.11943129503E+03  0.54957420057E+02 -0.63062423580E+02  0.14581159597E+03  0.00000000000E+00 0. -1.
         21    1    1    2  504  501 -0.11943129503E+03 -0.54957420057E+02  0.16353417216E+03  0.20982749514E+03  0.00000000000E+00 0. -1.
<mgrwt>
<rscale>  2 0.13146921E+03</rscale>
<asrwt>0</asrwt>
<pdfrwt beam="1">  1       21 0.35085449E-01 0.13146921E+03</pdfrwt>
<pdfrwt beam="2">  1       21 0.19628257E-01 0.13146921E+03</pdfrwt>
<totfact> 0.19047515E+05</totfact>
</mgrwt>
</event>
<event>
 4    1  0.6158309E+003  0.1163915E+03  0.7546771E-02  0.1249172E+00
         21   -1    0    0  502  501  0.00000000000E+00  0.00000000000E+00  0.29793453344E+02  0.29793453344E+02  0.00000000000E+00 0. -1.
         21   -1    0    0  503  502 -0.00000000000E+00 -0.00000000000E+00 -0.60090808216E+03  0.60090808216E+03  0.00000000000E+00 0.  1.
         21    1    1    2  503  504 -0.71918295461E+02  0.91513590235E+02 -0.44111117183E+03  0.45620833435E+03  0.00000000000E+00 0.  1.
         21    1    1    2  504  501  0.71918295461E+02 -0.91513590235E+02 -0.13000345699E+03  0.17449320115E+03  0.00000000000E+00 0. -1.
<mgrwt>
<rscale>  2 0.11639149E+03</rscale>
<asrwt>0</asrwt>
<pdfrwt beam="1">  1       21 0.45836080E-02 0.11639149E+03</pdfrwt>
<pdfrwt beam="2">  1       21 0.92447402E-01 0.11639149E+03</pdfrwt>
<totfact> 0.31336741E+05</totfact>
</mgrwt>
</event>
<event>
 4    1  0.6158309E+003  0.1223067E+03  0.7546771E-02  0.1239339E+00
         21   -1    0    0  504  501  0.00000000000E+00  0.00000000000E+00  0.21602760633E+03  0.21602760633E+03  0.00000000000E+00 0. -1.
         21   -1    0    0  503  502 -0.00000000000E+00 -0.00000000000E+00 -0.51596365657E+03  0.51596365657E+03  0.00000000000E+00 0. -1.
         21    1    1    2  503  501 -0.99638090317E+02  0.70930873540E+02  0.19058375275E+03  0.22645331677E+03  0.00000000000E+00 0. -1.
         21    1    1    2  504  502  0.99638090317E+02 -0.70930873540E+02 -0.49051980299E+03  0.50553794614E+03  0.00000000000E+00 0. -1.
<mgrwt>
<rscale>  2 0.12230674E+03</rscale>
<asrwt>0</asrwt>
<pdfrwt beam="1">  1       21 0.33235016E-01 0.12230674E+03</pdfrwt>
<pdfrwt beam="2">  1       21 0.79379024E-01 0.12230674E+03</pdfrwt>
<totfact> 0.12861881E+04</totfact>
</mgrwt>
</event>
<event>
 4    1  0.6158309E+003  0.1442821E+03  0.7546771E-02  0.1207681E+00
         21   -1    0    0  503  501  0.00000000000E+00  0.00000000000E+00  0.92872824531E+02  0.92872824531E+02  0.00000000000E+00 0.  1.
         21   -1    0    0  501  502 -0.00000000000E+00 -0.00000000000E+00 -0.41780779374E+03  0.41780779374E+03  0.00000000000E+00 0.  1.
         21    1    1    2  503  504  0.60907293197E+02 -0.13079608586E+03  0.11372694542E+02  0.14472958447E+03  0.00000000000E+00 0.  1.
         21    1    1    2  504  502 -0.60907293197E+02  0.13079608586E+03 -0.33630766376E+03  0.36595103380E+03  0.00000000000E+00 0.  1.
<mgrwt>
<rscale>  2 0.14428207E+03</rscale>
<asrwt>0</asrwt>
<pdfrwt beam="1">  1       21 0.14288127E-01 0.14428207E+03</pdfrwt>
<pdfrwt beam="2">  1       21 0.64278124E-01 0.14428207E+03</pdfrwt>
<totfact> 0.97543465E+04</totfact>
</mgrwt>
</event>
<event>
 4    1  0.6158309E+003  0.1164190E+03  0.7546771E-02  0.1249124E+00
         21   -1    0    0  504  501  0.00000000000E+00  0.00000000000E+00  0.10669440979E+04  0.10669440979E+04  0.00000000000E+00 0. -1.
         21   -1    0    0  503  502 -0.00000000000E+00 -0.00000000000E+00 -0.26476147000E+02  0.26476147000E+02  0.00000000000E+00 0. -1.
         21    1    1    2  503  501 -0.11637782248E+03  0.30979729013E+01  0.91455165874E+03  0.92193173907E+03  0.00000000000E+00 0. -1.
         21    1    1    2  504  502  0.11637782248E+03 -0.30979729013E+01  0.12591629217E+03  0.17148850584E+03  0.00000000000E+00 0. -1.
<mgrwt>
<rscale>  2 0.11641905E+03</rscale>
<asrwt>0</asrwt>
<pdfrwt beam="1">  1       21 0.16414521E+00 0.11641905E+03</pdfrwt>
<pdfrwt beam="2">  1       21 0.40732542E-02 0.11641905E+03</pdfrwt>
<totfact> 0.93135522E+04</totfact>
</mgrwt>
</event>
<event>
 4    1  0.6158309E+003  0.1184611E+03  0.7546771E-02  0.1245658E+00
         21   -1    0    0  502  501  0.00000000000E+00  0.00000000000E+00  0.22317437699E+03  0.22317437699E+03  0.00000000000E+00 0. -1.
         21   -1    0    0  504  502 -0.00000000000E+00 -0.00000000000E+00 -0.76639012961E+02  0.76639012961E+02  0.00000000000E+00 0. -1.
         21    1    1    2  503  501 -0.90110900092E+02 -0.76896372463E+02  0.13678648923E+03  0.18095184456E+03  0.00000000000E+00 0. -1.
         21    1    1    2  504  503  0.90110900092E+02  0.76896372463E+02  0.97488748008E+01  0.11886154539E+03  0.00000000000E+00 0. -1.
<mgrwt>
<rscale>  2 0.11846108E+03</rscale>
<asrwt>0</asrwt>
<pdfrwt beam="1">  1       21 0.34334519E-01 0.11846108E+03</pdfrwt>
<pdfrwt beam="2">  1       21 0.11790617E-01 0.11846108E+03</pdfrwt>
<totfact> 0.49949893E+05</totfact>
</mgrwt>
</event>
<event>
 4    1  0.6158309E+003  0.1473265E+03  0.7546771E-02  0.1203797E+00
         21   -1    0    0  502  501  0.00000000000E+00  0.00000000000E+00  0.13020157328E+03  0.13020157328E+03  0.00000000000E+00 0. -1.
         21   -1    0    0  503  502 -0.00000000000E+00 -0.00000000000E+00 -0.26210039620E+03  0.26210039620E+03  0.00000000000E+00 0. -1.
         21    1    1    2  503  504 -0.14338953738E+03  0.33830980286E+02 -0.18428711446E+03  0.23593820210E+03  0.00000000000E+00 0. -1.
         21    1    1    2  504  501  0.14338953738E+03 -0.33830980286E+02  0.52388291542E+02  0.15636376738E+03  0.00000000000E+00 0. -1.
<mgrwt>
<rscale>  2 0.14732649E+03</rscale>
<asrwt>0</asrwt>
<pdfrwt beam="1">  1       21 0.20031011E-01 0.14732649E+03</pdfrwt>
<pdfrwt beam="2">  1       21 0.40323138E-01 0.14732649E+03</pdfrwt>
<totfact> 0.13849240E+05</totfact>
</mgrwt>
</event>
<event>
 4    1  0.6158309E+003  0.1268167E+03  0.7546771E-02  0.1232257E+00
         21   -1    0    0  503  501  0.00000000000E+00  0.00000000000E+00  0.31272944888E+03  0.31272944888E+03  0.00000000000E+00 0. -1.
         21   -1    0    0  504  502 -0.00000000000E+00 -0.00000000000E+00 -0.13449104792E+03  0.13449104792E+03  0.00000000000E+00 0. -1.
         21    1    1    2  503  502 -0.71702827447E+02 -0.10460006915E+03 -0.86613991154E+02  0.15357230673E+03  0.00000000000E+00 0. -1.
         21    1    1    2  504  501  0.71702827447E+02  0.10460006915E+03  0.26485239211E+03  0.29364819008E+03  0.00000000000E+00 0. -1.
<mgrwt>
<rscale>  2 0.12681668E+03</rscale>
<asrwt>0</asrwt>
<pdfrwt beam="1">  1       21 0.48112223E-01 0.12681668E+03</pdfrwt>
<pdfrwt beam="2">  1       21 0.20690931E-01 0.12681668E+03</pdfrwt>
<totfact> 0.91823049E+04</totfact>
</mgrwt>
</event>
<event>
 4    1  0.6158309E+003  0.1271355E+03  0.7546771E-02  0.1231769E+00
         21   -1    0    0  503  501  0.00000000000E+00  0.00000000000E+00  0.20152753347E+04  0.20152753347E+04  0.00000000000E+00 0.  1.
         21   -1    0    0  504  502 -0.00000000000E+00 -0.00000000000E+00 -0.80281034518E+01  0.80281034518E+01  0.00000000000E+00 0.  1.
         21    1    1    2  503  502 -0.11709053963E+03  0.49530164438E+02  0.10348426430E+04  0.10426230035E+04  0.00000000000E+00 0.  1.
         21    1    1    2  504  501  0.11709053963E+03 -0.49530164438E+02  0.97240458823E+03  0.98068043463E+03  0.00000000000E+00 0.  1.
<mgrwt>
<rscale>  2 0.12713549E+03</rscale>
<asrwt>0</asrwt>
<pdfrwt beam="1">  1       21 0.31004196E+00 0.12713549E+03</pdfrwt>
<pdfrwt beam="2">  1       21 0.12350944E-02 0.12713549E+03</pdfrwt>
<totfact> 0.85444935E+04</totfact>
</mgrwt>
</event>
<event>
 4    1  0.6158309E+003  0.1167181E+03  0.7546771E-02  0.1248611E+00
         21   -1    0    0  504  501  0.00000000000E+00  0.00000000000E+00  0.10202562453E+04  0.10202562453E+04  0.00000000000E+00 0. -1.
         21   -1    0    0  503  502 -0.00000000000E+00 -0.00000000000E+00 -0.24451894641E+02  0.24451894641E+02  0.00000000000E+00 0. -1.
         21    1    1    2  503  501 -0.10494073646E+03 -0.51093591982E+02  0.14597269152E+03  0.18689874259E+03  0.00000000000E+00 0. -1.
         21    1    1    2  504  502  0.10494073646E+03  0.51093591982E+02  0.84983165910E+03  0.85780939732E+03  0.00000000000E+00 0. -1.
<mgrwt>
<rscale>  2 0.11671809E+03</rscale>
<asrwt>0</asrwt>
<pdfrwt beam="1">  1       21 0.15696247E+00 0.11671809E+03</pdfrwt>
<pdfrwt beam="2">  1       21 0.37618307E-02 0.11671809E+03</pdfrwt>
<totfact> 0.11954620E+05</totfact>
</mgrwt>
</event>
<event>
 4    1  0.6158309E+003  0.1941593E+03  0.7546771E-02  0.1154762E+00
         21   -1    0    0  504  501  0.00000000000E+00  0.00000000000E+00  0.17523424913E+04  0.17523424913E+04  0.00000000000E+00 0. -1.
         21   -1    0    0  503  502 -0.00000000000E+00 -0.00000000000E+00 -0.83597665800E+02  0.83597665800E+02  0.00000000000E+00 0.  1.
         21    1    1    2  503  501 -0.81006856804E+02  0.17645319909E+03  0.43285452682E+02  0.19892579705E+03  0.00000000000E+00 0.  1.
         21    1    1    2  504  502  0.81006856804E+02 -0.17645319909E+03  0.16254593728E+04  0.16370143600E+04  0.00000000000E+00 0. -1.
<mgrwt>
<rscale>  2 0.19415932E+03</rscale>
<asrwt>0</asrwt>
<pdfrwt beam="1">  1       21 0.26959113E+00 0.19415932E+03</pdfrwt>
<pdfrwt beam="2">  1       21 0.12861181E-01 0.19415932E+03</pdfrwt>
<totfact> 0.26441293E+03</totfact>
</mgrwt>
</event>
<event>
 4    1  0.6158309E+003  0.2515218E+03  0.7546771E-02  0.1112347E+00
         21   -1    0    0  504  501  0.00000000000E+00  0.00000000000E+00  0.42797665300E+04  0.42797665300E+04  0.00000000000E+00 0.  1.
         21   -1    0    0  503  502 -0.00000000000E+00 -0.00000000000E+00 -0.29044131013E+02  0.29044131013E+02  0.00000000000E+00 0.  1.
         21    1    1    2  503  501  0.23165744965E+03 -0.97969708923E+02  0.61565862278E+03  0.66505546960E+03  0.00000000000E+00 0.  1.
         21    1    1    2  504  502 -0.23165744965E+03  0.97969708923E+02  0.36350637762E+04  0.36437551914E+04  0.00000000000E+00 0.  1.
<mgrwt>
<rscale>  2 0.25152184E+03</rscale>
<asrwt>0</asrwt>
<pdfrwt beam="1">  1       21 0.65842512E+00 0.25152184E+03</pdfrwt>
<pdfrwt beam="2">  1       21 0.44683313E-02 0.25152184E+03</pdfrwt>
<totfact> 0.34019875E+01</totfact>
</mgrwt>
</event>
<event>
 4    1  0.6158309E+003  0.1637675E+03  0.7546771E-02  0.1184508E+00
         21   -1    0    0  503  501  0.00000000000E+00  0.00000000000E+00  0.26358709910E+03  0.26358709910E+03  0.00000000000E+00 0. -1.
         21   -1    0    0  504  502 -0.00000000000E+00 -0.00000000000E+00 -0.21530164845E+03  0.21530164845E+03  0.00000000000E+00 0. -1.
         21    1    1    2  503  502 -0.39197750930E+02 -0.15900729655E+03  0.19803454653E+03  0.25697755866E+03  0.00000000000E+00 0. -1.
         21    1    1    2  504  501  0.39197750930E+02  0.15900729655E+03 -0.14974909588E+03  0.22191118888E+03  0.00000000000E+00 0. -1.
<mgrwt>
<rscale>  2 0.16376747E+03</rscale>
<asrwt>0</asrwt>
<pdfrwt beam="1">  1       21 0.40551861E-01 0.16376747E+03</pdfrwt>
<pdfrwt beam="2">  1       21 0.33123331E-01 0.16376747E+03</pdfrwt>
<totfact> 0.52139000E+04</totfact>
</mgrwt>
</event>
<event>
 4    1  0.6158309E+003  0.1217627E+03  0.7546771E-02  0.1240217E+00
         21   -1    0    0  504  501  0.00000000000E+00  0.00000000000E+00  0.24254307131E+03  0.24254307131E+03  0.00000000000E+00 0.  1.
         21   -1    0    0  501  502 -0.00000000000E+00 -0.00000000000E+00 -0.63768398000E+02  0.63768398000E+02  0.00000000000E+00 0.  1.
         21    1    1    2  503  502 -0.48984729718E+02  0.11147491020E+03  0.58222145920E+02  0.13496657966E+03  0.00000000000E+00 0.  1.
         21    1    1    2  504  503  0.48984729718E+02 -0.11147491020E+03  0.12055252739E+03  0.17134488965E+03  0.00000000000E+00 0.  1.
<mgrwt>
<rscale>  2 0.12176272E+03</rscale>
<asrwt>0</asrwt>
<pdfrwt beam="1">  1       21 0.37314318E-01 0.12176272E+03</pdfrwt>
<pdfrwt beam="2">  1       21 0.98105229E-02 0.12176272E+03</pdfrwt>
<totfact> 0.58547084E+05</totfact>
</mgrwt>
</event>
<event>
 4    1  0.6158309E+003  0.1013730E+03  0.7546771E-02  0.1277435E+00
         21   -1    0    0  503  501  0.00000000000E+00  0.00000000000E+00  0.68670362103E+03  0.68670362103E+03  0.00000000000E+00 0. -1.
         21   -1    0    0  504  502 -0.00000000000E+00 -0.00000000000E+00 -0.25471820247E+02  0.25471820247E+02  0.00000000000E+00 0.  1.
         21    1    1    2  503  502  0.76602054265E+02 -0.66397306892E+02  0.10191707158E+03  0.14374827498E+03  0.00000000000E+00 0.  1.
         21    1    1    2  504  501 -0.76602054265E+02  0.66397306892E+02  0.55931472920E+03  0.56842716630E+03  0.00000000000E+00 0. -1.
<mgrwt>
<rscale>  2 0.10137296E+03</rscale>
<asrwt>0</asrwt>
<pdfrwt beam="1">  1       21 0.10564670E+00 0.10137296E+03</pdfrwt>
<pdfrwt beam="2">  1       21 0.39187421E-02 0.10137296E+03</pdfrwt>
<totfact> 0.29921195E+05</totfact>
</mgrwt>
</event>
<event>
 4    1  0.6158309E+003  0.1207305E+03  0.7546771E-02  0.1241897E+00
         21   -1    0    0  504  501  0.00000000000E+00  0.00000000000E+00  0.27035495054E+03  0.27035495054E+03  0.00000000000E+00 0. -1.
         21   -1    0    0  501  502 -0.00000000000E+00 -0.00000000000E+00 -0.73971600413E+02  0.73971600413E+02  0.00000000000E+00 0. -1.
         21    1    1    2  503  502  0.99327932646E+02  0.68628021556E+02  0.85416469188E+01  0.12103224066E+03  0.00000000000E+00 0. -1.
         21    1    1    2  504  503 -0.99327932646E+02 -0.68628021556E+02  0.18784170321E+03  0.22329431030E+03  0.00000000000E+00 0. -1.
<mgrwt>
<rscale>  2 0.12073046E+03</rscale>
<asrwt>0</asrwt>
<pdfrwt beam="1">  1       21 0.41593069E-01 0.12073046E+03</pdfrwt>
<pdfrwt beam="2">  1       21 0.11380246E-01 0.12073046E+03</pdfrwt>
<totfact> 0.36362751E+05</totfact>
</mgrwt>
</event>
<event>
 4    1  0.6158309E+003  0.1070263E+03  0.7546771E-02  0.1266178E+00
         21   -1    0    0  504  501  0.00000000000E+00  0.00000000000E+00  0.17447454418E+03  0.17447454418E+03  0.00000000000E+00 0. -1.
         21   -1    0    0  503  502 -0.00000000000E+00 -0.00000000000E+00 -0.77467066886E+02  0.77467066886E+02  0.00000000000E+00 0. -1.
         21    1    1    2  503  501  0.70637861312E+02 -0.80404755712E+02  0.97699347923E+02  0.14491305937E+03  0.00000000000E+00 0. -1.
         21    1    1    2  504  502 -0.70637861312E+02  0.80404755712E+02 -0.69187063443E+00  0.10702855169E+03  0.00000000000E+00 0. -1.
<mgrwt>
<rscale>  2 0.10702632E+03</rscale>
<asrwt>0</asrwt>
<pdfrwt beam="1">  1       21 0.26842238E-01 0.10702632E+03</pdfrwt>
<pdfrwt beam="2">  1       21 0.11918010E-01 0.10702632E+03</pdfrwt>
<totfact> 0.78725217E+05</totfact>
</mgrwt>
</event>
<event>
 4    1  0.6158309E+003  0.1249600E+03  0.7546771E-02  0.1235132E+00
         21   -1    0    0  503  501  0.00000000000E+00  0.00000000000E+00  0.14946504711E+03  0.14946504711E+03  0.00000000000E+00 0. -1.
         21   -1    0    0  504  502 -0.00000000000E+00 -0.00000000000E+00 -0.31589885442E+03  0.31589885442E+03  0.00000000000E+00 0.  1.
         21    1    1    2  503  502 -0.30083755680E+02  0.12128462964E+03 -0.27357361184E+03  0.30076155811E+03  0.00000000000E+00 0.  1.
         21    1    1    2  504  501  0.30083755680E+02 -0.12128462964E+03  0.10713980454E+03  0.16460234342E+03  0.00000000000E+00 0. -1.
<mgrwt>
<rscale>  2 0.12495997E+03</rscale>
<asrwt>0</asrwt>
<pdfrwt beam="1">  1       21 0.22994623E-01 0.12495997E+03</pdfrwt>
<pdfrwt beam="2">  1       21 0.48599823E-01 0.12495997E+03</pdfrwt>
<totfact> 0.73947097E+04</totfact>
</mgrwt>
</event>
<event>
 4    1  0.6158309E+003  0.1180328E+03  0.7546771E-02  0.1246378E+00
         21   -1    0    0  503  501  0.00000000000E+00  0.00000000000E+00  0.11588616282E+02  0.11588616282E+02  0.00000000000E+00 0. -1.
         21   -1    0    0  504  502 -0.00000000000E+00 -0.00000000000E+00 -0.12097687222E+04  0.12097687222E+04  0.00000000000E+00 0. -1.
         21    1    1    2  503  502 -0.95491239209E+02 -0.69376994623E+02 -0.55076232139E+03  0.56326803461E+03  0.00000000000E+00 0. -1.
         21    1    1    2  504  501  0.95491239209E+02  0.69376994623E+02 -0.64741778449E+03  0.65808930384E+03  0.00000000000E+00 0. -1.
<mgrwt>
<rscale>  2 0.11803281E+03</rscale>
<asrwt>0</asrwt>
<pdfrwt beam="1">  1       21 0.17828636E-02 0.11803281E+03</pdfrwt>
<pdfrwt beam="2">  1       21 0.18611831E+00 0.11803281E+03</pdfrwt>
<totfact> 0.25404672E+05</totfact>
</mgrwt>
</event>
<event>
 4    1  0.6158309E+003  0.1177219E+03  0.7546771E-02  0.1246903E+00
         21   -1    0    0  502  501  0.00000000000E+00  0.00000000000E+00  0.26512581276E+03  0.26512581276E+03  0.00000000000E+00 0. -1.
         21   -1    0    0  503  502 -0.00000000000E+00 -0.00000000000E+00 -0.82623787729E+02  0.82623787729E+02  0.00000000000E+00 0. -1.
         21    1    1    2  503  504  0.78901044494E+02 -0.87367394657E+02 -0.14134804999E+02  0.11856740355E+03  0.00000000000E+00 0. -1.
         21    1    1    2  504  501 -0.78901044494E+02  0.87367394657E+02  0.19663683003E+03  0.22918219694E+03  0.00000000000E+00 0. -1.
<mgrwt>
<rscale>  2 0.11772186E+03</rscale>
<asrwt>0</asrwt>
<pdfrwt beam="1">  1       21 0.40788586E-01 0.11772186E+03</pdfrwt>
<pdfrwt beam="2">  1       21 0.12711352E-01 0.11772186E+03</pdfrwt>
<totfact> 0.31111242E+05</totfact>
</mgrwt>
</event>
<event>
 4    1  0.6158309E+003  0.1499816E+03  0.7546771E-02  0.1200496E+00
         21   -1    0    0  504  501  0.00000000000E+00  0.00000000000E+00  0.21214108258E+02  0.21214108258E+02  0.00000000000E+00 0. -1.
         21   -1    0    0  503  502 -0.00000000000E+00 -0.00000000000E+00 -0.25314355556E+04  0.25314355556E+04  0.00000000000E+00 0. -1.
         21    1    1    2  503  501  0.12131983131E+03  0.88181552646E+02 -0.22280729843E+04  0.22331152480E+04  0.00000000000E+00 0. -1.
         21    1    1    2  504  502 -0.12131983131E+03 -0.88181552646E+02 -0.28214846311E+03  0.31953441588E+03  0.00000000000E+00 0. -1.
<mgrwt>
<rscale>  2 0.14998162E+03</rscale>
<asrwt>0</asrwt>
<pdfrwt beam="1">  1       21 0.32637103E-02 0.14998162E+03</pdfrwt>
<pdfrwt beam="2">  1       21 0.38945146E+00 0.14998162E+03</pdfrwt>
<totfact> 0.59356908E+03</totfact>
</mgrwt>
</event>
<event>
 4    1  0.6158309E+003  0.1432595E+03  0.7546771E-02  0.1209009E+00
         21   -1    0    0  504  501  0.00000000000E+00  0.00000000000E+00  0.90127099532E+02  0.90127099532E+02  0.00000000000E+00 0.  1.
         21   -1    0    0  503  502 -0.00000000000E+00 -0.00000000000E+00 -0.18204787332E+04  0.18204787332E+04  0.00000000000E+00 0. -1.
         21    1    1    2  503  501  0.13380860134E+03  0.51171559049E+02  0.28384783898E+02  0.14604439806E+03  0.00000000000E+00 0.  1.
         21    1    1    2  504  502 -0.13380860134E+03 -0.51171559049E+02 -0.17587364176E+04  0.17645614347E+04  0.00000000000E+00 0. -1.
<mgrwt>
<rscale>  2 0.14325945E+03</rscale>
<asrwt>0</asrwt>
<pdfrwt beam="1">  1       21 0.13865710E-01 0.14325945E+03</pdfrwt>
<pdfrwt beam="2">  1       21 0.28007361E+00 0.14325945E+03</pdfrwt>
<totfact> 0.21526902E+03</totfact>
</mgrwt>
</event>
<event>
 4    1  0.6158309E+003  0.1101072E+03  0.7546771E-02  0.1260371E+00
         21   -1    0    0  502  501  0.00000000000E+00  0.00000000000E+00  0.14309713551E+03  0.14309713551E+03  0.00000000000E+00 0.  1.
         21   -1    0    0  504  502 -0.00000000000E+00 -0.00000000000E+00 -0.13042693048E+03  0.13042693048E+03  0.00000000000E+00 0. -1.
         21    1    1    2  503  501  0.33541933058E+02  0.10487391984E+03  0.87293013519E+02  0.14051217223E+03  0.00000000000E+00 0.  1.
         21    1    1    2  504  503 -0.33541933058E+02 -0.10487391984E+03 -0.74622808488E+02  0.13301189376E+03  0.00000000000E+00 0. -1.
<mgrwt>
<rscale>  2 0.11010722E+03</rscale>
<asrwt>0</asrwt>
<pdfrwt beam="1">  1       21 0.22014944E-01 0.11010722E+03</pdfrwt>
<pdfrwt beam="2">  1       21 0.20065682E-01 0.11010722E+03</pdfrwt>
<totfact> 0.44711547E+05</totfact>
</mgrwt>
</event>
<event>
 4    1  0.6158309E+003  0.1014414E+03  0.7546771E-02  0.1277294E+00
         21   -1    0    0  504  501  0.00000000000E+00  0.00000000000E+00  0.12581367477E+03  0.12581367477E+03  0.00000000000E+00 0.  1.
         21   -1    0    0  501  502 -0.00000000000E+00 -0.00000000000E+00 -0.19351627214E+03  0.19351627214E+03  0.00000000000E+00 0.  1.
         21    1    1    2  503  502  0.97450750267E+02  0.28172727559E+02 -0.15517000685E+03  0.18538630568E+03  0.00000000000E+00 0.  1.
         21    1    1    2  504  503 -0.97450750267E+02 -0.28172727559E+02  0.87467409481E+02  0.13394364123E+03  0.00000000000E+00 0.  1.
<mgrwt>
<rscale>  2 0.10144137E+03</rscale>
<asrwt>0</asrwt>
<pdfrwt beam="1">  1       21 0.19355950E-01 0.10144137E+03</pdfrwt>
<pdfrwt beam="2">  1       21 0.29771734E-01 0.10144137E+03</pdfrwt>
<totfact> 0.27072699E+05</totfact>
</mgrwt>
</event>
<event>
 4    1  0.6158309E+003  0.1564984E+03  0.7546771E-02  0.1192708E+00
         21   -1    0    0  504  501  0.00000000000E+00  0.00000000000E+00  0.52773481078E+03  0.52773481078E+03  0.00000000000E+00 0.  1.
         21   -1    0    0  503  502 -0.00000000000E+00 -0.00000000000E+00 -0.88430925991E+03  0.88430925991E+03  0.00000000000E+00 0.  1.
         21    1    1    2  503  501 -0.56470071646E+02 -0.14595506012E+03 -0.86553332005E+03  0.87956789202E+03  0.00000000000E+00 0.  1.
         21    1    1    2  504  502  0.56470071646E+02  0.14595506012E+03  0.50895887091E+03  0.53247617866E+03  0.00000000000E+00 0.  1.
<mgrwt>
<rscale>  2 0.15649840E+03</rscale>
<asrwt>0</asrwt>
<pdfrwt beam="1">  1       21 0.81189971E-01 0.15649840E+03</pdfrwt>
<pdfrwt beam="2">  1       21 0.13604758E+00 0.15649840E+03</pdfrwt>
<totfact> 0.53556198E+02</totfact>
</mgrwt>
</event>
<event>
 4    1  0.6158309E+003  0.1470606E+03  0.7546771E-02  0.1204132E+00
         21   -1    0    0  503  501  0.00000000000E+00  0.00000000000E+00  0.12959692312E+04  0.12959692312E+04  0.00000000000E+00 0. -1.
         21   -1    0    0  504  502 -0.00000000000E+00 -0.00000000000E+00 -0.57536638663E+02  0.57536638663E+02  0.00000000000E+00 0.  1.
         21    1    1    2  503  502 -0.82875850958E+02  0.12148415860E+03  0.48988951015E+02  0.15500556372E+03  0.00000000000E+00 0.  1.
         21    1    1    2  504  501  0.82875850958E+02 -0.12148415860E+03  0.11894436415E+04  0.11985003061E+04  0.00000000000E+00 0. -1.
<mgrwt>
<rscale>  2 0.14706056E+03</rscale>
<asrwt>0</asrwt>
<pdfrwt beam="1">  1       21 0.19937986E+00 0.14706056E+03</pdfrwt>
<pdfrwt beam="2">  1       21 0.88517915E-02 0.14706056E+03</pdfrwt>
<totfact> 0.14178254E+04</totfact>
</mgrwt>
</event>
<event>
 4    1  0.6158309E+003  0.1161390E+03  0.7546771E-02  0.1249606E+00
         21   -1    0    0  503  501  0.00000000000E+00  0.00000000000E+00  0.59521553288E+03  0.59521553288E+03  0.00000000000E+00 0.  1.
         21   -1    0    0  504  502 -0.00000000000E+00 -0.00000000000E+00 -0.37552827774E+02  0.37552827774E+02  0.00000000000E+00 0.  1.
         21    1    1    2  503  502  0.52393340582E+02 -0.10364939707E+03  0.79596428500E+02  0.14079719841E+03  0.00000000000E+00 0.  1.
         21    1    1    2  504  501 -0.52393340582E+02  0.10364939707E+03  0.47806627661E+03  0.49197116224E+03  0.00000000000E+00 0.  1.
<mgrwt>
<rscale>  2 0.11613897E+03</rscale>
<asrwt>0</asrwt>
<pdfrwt beam="1">  1       21 0.91571614E-01 0.11613897E+03</pdfrwt>
<pdfrwt beam="2">  1       21 0.57773585E-02 0.11613897E+03</pdfrwt>
<totfact> 0.21722047E+05</totfact>
</mgrwt>
</event>
<event>
 4    1  0.6158309E+003  0.1150542E+03  0.7546771E-02  0.1251486E+00
         21   -1    0    0  502  501  0.00000000000E+00  0.00000000000E+00  0.90862156546E+02  0.90862156546E+02  0.00000000000E+00 0.  1.
         21   -1    0    0  503  502 -0.00000000000E+00 -0.00000000000E+00 -0.23833760472E+03  0.23833760472E+03  0.00000000000E+00 0.  1.
         21    1    1    2  503  504  0.10907175892E+03  0.36617251452E+02 -0.17636349047E+03  0.21057433952E+03  0.00000000000E+00 0.  1.
         21    1    1    2  504  501 -0.10907175892E+03 -0.36617251452E+02  0.28888042289E+02  0.11862542174E+03  0.00000000000E+00 0.  1.
<mgrwt>
<rscale>  2 0.11505421E+03</rscale>
<asrwt>0</asrwt>
<pdfrwt beam="1">  1       21 0.13978794E-01 0.11505421E+03</pdfrwt>
<pdfrwt beam="2">  1       21 0.36667323E-01 0.11505421E+03</pdfrwt>
<totfact> 0.32462509E+05</totfact>
</mgrwt>
</event>
<event>
 4    1  0.6158309E+003  0.1069617E+03  0.7546771E-02  0.1266302E+00
         21   -1    0    0  503  501  0.00000000000E+00  0.00000000000E+00  0.89323454999E+03  0.89323454999E+03  0.00000000000E+00 0.  1.
         21   -1    0    0  501  502 -0.00000000000E+00 -0.00000000000E+00 -0.39485017418E+02  0.39485017418E+02  0.00000000000E+00 0.  1.
         21    1    1    2  503  504 -0.24822091356E+02  0.10404162676E+03  0.81020343389E+03  0.81723338197E+03  0.00000000000E+00 0.  1.
         21    1    1    2  504  502  0.24822091356E+02 -0.10404162676E+03  0.43546098686E+02  0.11548618544E+03  0.00000000000E+00 0.  1.
<mgrwt>
<rscale>  2 0.10696166E+03</rscale>
<asrwt>0</asrwt>
<pdfrwt beam="1">  1       21 0.13742068E+00 0.10696166E+03</pdfrwt>
<pdfrwt beam="2">  1       21 0.60746188E-02 0.10696166E+03</pdfrwt>
<totfact> 0.75944710E+04</totfact>
</mgrwt>
</event>
<event>
 4    1  0.6158309E+003  0.1115934E+03  0.7546771E-02  0.1257647E+00
         21   -1    0    0  504  501  0.00000000000E+00  0.00000000000E+00  0.27938065624E+02  0.27938065624E+02  0.00000000000E+00 0. -1.
         21   -1    0    0  503  502 -0.00000000000E+00 -0.00000000000E+00 -0.46276355234E+03  0.46276355234E+03  0.00000000000E+00 0. -1.
         21    1    1    2  503  501 -0.10769964093E+03  0.29221235406E+02 -0.17035379685E+03  0.20365045877E+03  0.00000000000E+00 0. -1.
         21    1    1    2  504  502  0.10769964093E+03 -0.29221235406E+02 -0.26447168987E+03  0.28705115920E+03  0.00000000000E+00 0. -1.
<mgrwt>
<rscale>  2 0.11159343E+03</rscale>
<asrwt>0</asrwt>
<pdfrwt beam="1">  1       21 0.42981636E-02 0.11159343E+03</pdfrwt>
<pdfrwt beam="2">  1       21 0.71194398E-01 0.11159343E+03</pdfrwt>
<totfact> 0.62536651E+05</totfact>
</mgrwt>
</event>
<event>
 4    1  0.6158309E+003  0.1408321E+03  0.7546771E-02  0.1212214E+00
         21   -1    0    0  504  501  0.00000000000E+00  0.00000000000E+00  0.11902509018E+02  0.11902509018E+02  0.00000000000E+00 0. -1.
         21   -1    0    0  503  502 -0.00000000000E+00 -0.00000000000E+00 -0.29415090307E+04  0.29415090307E+04  0.00000000000E+00 0.  1.
         21    1    1    2  503  501  0.12321547649E+03  0.68202853850E+02 -0.24370846109E+04  0.24411503607E+04  0.00000000000E+00 0.  1.
         21    1    1    2  504  502 -0.12321547649E+03 -0.68202853850E+02 -0.49252191082E+03  0.51226117905E+03  0.00000000000E+00 0. -1.
<mgrwt>
<rscale>  2 0.14083211E+03</rscale>
<asrwt>0</asrwt>
<pdfrwt beam="1">  1       21 0.18311540E-02 0.14083211E+03</pdfrwt>
<pdfrwt beam="2">  1       21 0.45254016E+00 0.14083211E+03</pdfrwt>
<totfact> 0.61818375E+03</totfact>
</mgrwt>
</event>
<event>
 4    1  0.6158309E+003  0.1033091E+03  0.7546771E-02  0.1273487E+00
         21   -1    0    0  504  501  0.00000000000E+00  0.00000000000E+00  0.47277805250E+03  0.47277805250E+03  0.00000000000E+00 0. -1.
         21   -1    0    0  503  502 -0.00000000000E+00 -0.00000000000E+00 -0.66235457109E+02  0.66235457109E+02  0.00000000000E+00 0. -1.
         21    1    1    2  503  501 -0.70030542842E+02 -0.75950628468E+02 -0.15540392000E+02  0.10447142518E+03  0.00000000000E+00 0. -1.
         21    1    1    2  504  502  0.70030542842E+02  0.75950628468E+02  0.42208298739E+03  0.43454208443E+03  0.00000000000E+00 0. -1.
<mgrwt>
<rscale>  2 0.10330912E+03</rscale>
<asrwt>0</asrwt>
<pdfrwt beam="1">  1       21 0.72735083E-01 0.10330912E+03</pdfrwt>
<pdfrwt beam="2">  1       21 0.10190071E-01 0.10330912E+03</pdfrwt>
<totfact> 0.13800940E+05</totfact>
</mgrwt>
</event>
<event>
 4    1  0.6158309E+003  0.1605023E+03  0.7546771E-02  0.1188131E+00
         21   -1    0    0  502  501  0.00000000000E+00  0.00000000000E+00  0.69161127791E+02  0.69161127791E+02  0.00000000000E+00 0. -1.
         21   -1    0    0  504  502 -0.00000000000E+00 -0.00000000000E+00 -0.37499109648E+03  0.37499109648E+03  0.00000000000E+00 0. -1.
         21    1    1    2  503  501 -0.12017427370E+03  0.10639147326E+03 -0.17109490962E+03  0.23459426621E+03  0.00000000000E+00 0. -1.
         21    1    1    2  504  503  0.12017427370E+03 -0.10639147326E+03 -0.13473505906E+03  0.20955795805E+03  0.00000000000E+00 0. -1.
<mgrwt>
<rscale>  2 0.16050234E+03</rscale>
<asrwt>0</asrwt>
<pdfrwt beam="1">  1       21 0.10640173E-01 0.16050234E+03</pdfrwt>
<pdfrwt beam="2">  1       21 0.57690938E-01 0.16050234E+03</pdfrwt>
<totfact> 0.20688449E+05</totfact>
</mgrwt>
</event>
<event>
 4    1  0.6158309E+003  0.1305134E+03  0.7546771E-02  0.1226696E+00
         21   -1    0    0  504  501  0.00000000000E+00  0.00000000000E+00  0.71002879523E+03  0.71002879523E+03  0.00000000000E+00 0. -1.
         21   -1    0    0  501  502 -0.00000000000E+00 -0.00000000000E+00 -0.31018737514E+02  0.31018737514E+02  0.00000000000E+00 0. -1.
         21    1    1    2  503  502 -0.31079866270E+02  0.12675874148E+03  0.16313031255E+03  0.20891442148E+03  0.00000000000E+00 0. -1.
         21    1    1    2  504  503  0.31079866270E+02 -0.12675874148E+03  0.51587974516E+03  0.53213311126E+03  0.00000000000E+00 0. -1.
<mgrwt>
<rscale>  2 0.13051336E+03</rscale>
<asrwt>0</asrwt>
<pdfrwt beam="1">  1       21 0.10923519E+00 0.13051336E+03</pdfrwt>
<pdfrwt beam="2">  1       21 0.47721140E-02 0.13051336E+03</pdfrwt>
<totfact> 0.19741646E+05</totfact>
</mgrwt>
</event>
<event>
 4    1  0.6158309E+003  0.1298491E+03  0.7546771E-02  0.1227680E+00
         21   -1    0    0  502  501  0.00000000000E+00  0.00000000000E+00  0.10493901143E+04  0.10493901143E+04  0.00000000000E+00 0. -1.
         21   -1    0    0  504  502 -0.00000000000E+00 -0.00000000000E+00 -0.57743039859E+02  0.57743039859E+02  0.00000000000E+00 0. -1.
         21    1    1    2  503  501 -0.12358746956E+03  0.39836356850E+02  0.96610952056E+03  0.97479659605E+03  0.00000000000E+00 0. -1.
         21    1    1    2  504  503  0.12358746956E+03 -0.39836356850E+02  0.25537553906E+02  0.13233655813E+03  0.00000000000E+00 0. -1.
<mgrwt>
<rscale>  2 0.12984914E+03</rscale>
<asrwt>0</asrwt>
<pdfrwt beam="1">  1       21 0.16144462E+00 0.12984914E+03</pdfrwt>
<pdfrwt beam="2">  1       21 0.88835454E-02 0.12984914E+03</pdfrwt>
<totfact> 0.25697248E+04</totfact>
</mgrwt>
</event>
<event>
 4    1  0.6158309E+003  0.1286629E+03  0.7546771E-02  0.1229453E+00
         21   -1    0    0  502  501  0.00000000000E+00  0.00000000000E+00  0.50224847515E+03  0.50224847515E+03  0.00000000000E+00 0.  1.
         21   -1    0    0  504  502 -0.00000000000E+00 -0.00000000000E+00 -0.33871536259E+02  0.33871536259E+02  0.00000000000E+00 0.  1.
         21    1    1    2  503  501 -0.12636374808E+03  0.24214398494E+02  0.27816187275E+03  0.30647701606E+03  0.00000000000E+00 0.  1.
         21    1    1    2  504  503  0.12636374808E+03 -0.24214398494E+02  0.19021506614E+03  0.22964299535E+03  0.00000000000E+00 0.  1.
<mgrwt>
<rscale>  2 0.12866287E+03</rscale>
<asrwt>0</asrwt>
<pdfrwt beam="1">  1       21 0.77268991E-01 0.12866287E+03</pdfrwt>
<pdfrwt beam="2">  1       21 0.52110060E-02 0.12866287E+03</pdfrwt>
<totfact> 0.37780668E+05</totfact>
</mgrwt>
</event>
<event>
 4    1  0.6158309E+003  0.1613984E+03  0.7546771E-02  0.1187127E+00
         21   -1    0    0  503  501  0.00000000000E+00  0.00000000000E+00  0.13194292600E+04  0.13194292600E+04  0.00000000000E+00 0. -1.
         21   -1    0    0  504  502 -0.00000000000E+00 -0.00000000000E+00 -0.51478840497E+02  0.51478840497E+02  0.00000000000E+00 0.  1.
         21    1    1    2  503  502 -0.78261995635E+02 -0.14115412755E+03  0.95780649275E+02  0.18767887591E+03  0.00000000000E+00 0.  1.
         21    1    1    2  504  501  0.78261995635E+02  0.14115412755E+03  0.11721697702E+04  0.11832292246E+04  0.00000000000E+00 0. -1.
<mgrwt>
<rscale>  2 0.16139835E+03</rscale>
<asrwt>0</asrwt>
<pdfrwt beam="1">  1       21 0.20298909E+00 0.16139835E+03</pdfrwt>
<pdfrwt beam="2">  1       21 0.79198226E-02 0.16139835E+03</pdfrwt>
<totfact> 0.16109689E+04</totfact>
</mgrwt>
</event>
<event>
 4    1  0.6158309E+003  0.1054053E+03  0.7546771E-02  0.1269323E+00
         21   -1    0    0  504  501  0.00000000000E+00  0.00000000000E+00  0.50940268496E+02  0.50940268496E+02  0.00000000000E+00 0.  1.
         21   -1    0    0  503  502 -0.00000000000E+00 -0.00000000000E+00 -0.22759039076E+03  0.22759039076E+03  0.00000000000E+00 0.  1.
         21    1    1    2  503  501 -0.20265438448E+02 -0.10343877468E+03 -0.11675790157E+03  0.15729804729E+03  0.00000000000E+00 0.  1.
         21    1    1    2  504  502  0.20265438448E+02  0.10343877468E+03 -0.59892220687E+02  0.12123261196E+03  0.00000000000E+00 0.  1.
<mgrwt>
<rscale>  2 0.10540526E+03</rscale>
<asrwt>0</asrwt>
<pdfrwt beam="1">  1       21 0.78369643E-02 0.10540526E+03</pdfrwt>
<pdfrwt beam="2">  1       21 0.35013906E-01 0.10540526E+03</pdfrwt>
<totfact> 0.97767250E+05</totfact>
</mgrwt>
</event>
<event>
 4    1  0.6158309E+003  0.1100869E+03  0.7546771E-02  0.1260409E+00
         21   -1    0    0  503  501  0.00000000000E+00  0.00000000000E+00  0.12043913549E+04  0.12043913549E+04  0.00000000000E+00 0.  1.
         21   -1    0    0  504  502 -0.00000000000E+00 -0.00000000000E+00 -0.76853510543E+02  0.76853510543E+02  0.00000000000E+00 0.  1.
         21    1    1    2  503  502 -0.81325007480E+02 -0.74198135735E+02  0.11609822312E+04  0.11661898908E+04  0.00000000000E+00 0.  1.
         21    1    1    2  504  501  0.81325007480E+02  0.74198135735E+02 -0.33444386829E+02  0.11505497468E+03  0.00000000000E+00 0.  1.
<mgrwt>
<rscale>  2 0.11008688E+03</rscale>
<asrwt>0</asrwt>
<pdfrwt beam="1">  1       21 0.18529096E+00 0.11008688E+03</pdfrwt>
<pdfrwt beam="2">  1       21 0.11823618E-01 0.11008688E+03</pdfrwt>
<totfact> 0.10943534E+04</totfact>
</mgrwt>
</event>
<event>
 4    1  0.6158309E+003  0.1106292E+03  0.7546771E-02  0.1259409E+00
         21   -1    0    0  502  501  0.00000000000E+00  0.00000000000E+00  0.69927035509E+03  0.69927035509E+03  0.00000000000E+00 0.  1.
         21   -1    0    0  503  502 -0.00000000000E+00 -0.00000000000E+00 -0.28819042672E+02  0.28819042672E+02  0.00000000000E+00 0.  1.
         21    1    1    2  503  504  0.97771005288E+02 -0.51765440868E+02  0.10709906613E+03  0.15397740194E+03  0.00000000000E+00 0.  1.
         21    1    1    2  504  501 -0.97771005288E+02  0.51765440868E+02  0.56335224629E+03  0.57411199582E+03  0.00000000000E+00 0.  1.
<mgrwt>
<rscale>  2 0.11062925E+03</rscale>
<asrwt>0</asrwt>
<pdfrwt beam="1">  1       21 0.10758004E+00 0.11062925E+03</pdfrwt>
<pdfrwt beam="2">  1       21 0.44336994E-02 0.11062925E+03</pdfrwt>
<totfact> 0.23300906E+05</totfact>
</mgrwt>
</event>
<event>
 4    1  0.6158309E+003  0.1034665E+03  0.7546771E-02  0.1273171E+00
         21   -1    0    0  504  501  0.00000000000E+00  0.00000000000E+00  0.14822168845E+02  0.14822168845E+02  0.00000000000E+00 0. -1.
         21   -1    0    0  503  502 -0.00000000000E+00 -0.00000000000E+00 -0.74894688330E+03  0.74894688330E+03  0.00000000000E+00 0. -1.
         21    1    1    2  503  501 -0.83236373896E+01 -0.10313110912E+03 -0.29496183788E+03  0.31258246018E+03  0.00000000000E+00 0. -1.
         21    1    1    2  504  502  0.83236373896E+01  0.10313110912E+03 -0.43916287657E+03  0.45118659196E+03  0.00000000000E+00 0. -1.
<mgrwt>
<rscale>  2 0.10346646E+03</rscale>
<asrwt>0</asrwt>
<pdfrwt beam="1">  1       21 0.22803335E-02 0.10346646E+03</pdfrwt>
<pdfrwt beam="2">  1       21 0.11522261E+00 0.10346646E+03</pdfrwt>
<totfact> 0.58879160E+05</totfact>
</mgrwt>
</event>
<event>
 4    1  0.6158309E+003  0.2076781E+03  0.7546771E-02  0.1143418E+00
         21   -1    0    0  504  501  0.00000000000E+00  0.00000000000E+00  0.25815131730E+03  0.25815131730E+03  0.00000000000E+00 0. -1.
         21   -1    0    0  503  502 -0.00000000000E+00 -0.00000000000E+00 -0.17191359753E+03  0.17191359753E+03  0.00000000000E+00 0. -1.
         21    1    1    2  503  501  0.50213479134E+02  0.20151624740E+03  0.70373160352E+01  0.20779729370E+03  0.00000000000E+00 0. -1.
         21    1    1    2  504  502 -0.50213479134E+02 -0.20151624740E+03  0.79200403734E+02  0.22226762114E+03  0.00000000000E+00 0. -1.
<mgrwt>
<rscale>  2 0.20767810E+03</rscale>
<asrwt>0</asrwt>
<pdfrwt beam="1">  1       21 0.39715587E-01 0.20767810E+03</pdfrwt>
<pdfrwt beam="2">  1       21 0.26448246E-01 0.20767810E+03</pdfrwt>
<totfact> 0.82572189E+04</totfact>
</mgrwt>
</event>
<event>
 4    1  0.6158309E+003  0.1055244E+03  0.7546771E-02  0.1269090E+00
         21   -1    0    0  504  501  0.00000000000E+00  0.00000000000E+00  0.32057923025E+02  0.32057923025E+02  0.00000000000E+00 0. -1.
         21   -1    0    0  501  502 -0.00000000000E+00 -0.00000000000E+00 -0.46675449305E+03  0.46675449305E+03  0.00000000000E+00 0.  1.
         21    1    1    2  503  502 -0.10254638834E+03 -0.24892335772E+02 -0.34349308035E+03  0.35933673120E+03  0.00000000000E+00 0.  1.
         21    1    1    2  504  503  0.10254638834E+03  0.24892335772E+02 -0.91203489675E+02  0.13947568487E+03  0.00000000000E+00 0. -1.
<mgrwt>
<rscale>  2 0.10552436E+03</rscale>
<asrwt>0</asrwt>
<pdfrwt beam="1">  1       21 0.49319883E-02 0.10552436E+03</pdfrwt>
<pdfrwt beam="2">  1       21 0.71808381E-01 0.10552436E+03</pdfrwt>
<totfact> 0.48830131E+05</totfact>
</mgrwt>
</event>
<event>
 4    1  0.6158309E+003  0.2315971E+03  0.7546771E-02  0.1125521E+00
         21   -1    0    0  504  501  0.00000000000E+00  0.00000000000E+00  0.86497513598E+03  0.86497513598E+03  0.00000000000E+00 0. -1.
         21   -1    0    0  503  502 -0.00000000000E+00 -0.00000000000E+00 -0.86086667084E+02  0.86086667084E+02  0.00000000000E+00 0. -1.
         21    1    1    2  503  501 -0.22978622773E+03 -0.28904839985E+02  0.64092688040E+03  0.68148695236E+03  0.00000000000E+00 0. -1.
         21    1    1    2  504  502  0.22978622773E+03  0.28904839985E+02  0.13796158850E+03  0.26957485070E+03  0.00000000000E+00 0. -1.
<mgrwt>
<rscale>  2 0.23159706E+03</rscale>
<asrwt>0</asrwt>
<pdfrwt beam="1">  1       21 0.13307309E+00 0.23159706E+03</pdfrwt>
<pdfrwt beam="2">  1       21 0.13244103E-01 0.23159706E+03</pdfrwt>
<totfact> 0.19550270E+04</totfact>
</mgrwt>
</event>
<event>
 4    1  0.6158309E+003  0.1245177E+03  0.7546771E-02  0.1235825E+00
         21   -1    0    0  503  501  0.00000000000E+00  0.00000000000E+00  0.32646595351E+03  0.32646595351E+03  0.00000000000E+00 0.  1.
         21   -1    0    0  504  502 -0.00000000000E+00 -0.00000000000E+00 -0.25705069809E+03  0.25705069809E+03  0.00000000000E+00 0.  1.
         21    1    1    2  503  502 -0.11724253506E+03  0.41938475456E+02  0.29813828052E+03  0.32309608798E+03  0.00000000000E+00 0.  1.
         21    1    1    2  504  501  0.11724253506E+03 -0.41938475456E+02 -0.22872302510E+03  0.26042056363E+03  0.00000000000E+00 0.  1.
<mgrwt>
<rscale>  2 0.12451766E+03</rscale>
<asrwt>0</asrwt>
<pdfrwt beam="1">  1       21 0.50225532E-01 0.12451766E+03</pdfrwt>
<pdfrwt beam="2">  1       21 0.39546261E-01 0.12451766E+03</pdfrwt>
<totfact> 0.24281535E+04</totfact>
</mgrwt>
</event>
<event>
 4    1  0.6158309E+003  0.1308269E+03  0.7546771E-02  0.1226234E+00
         21   -1    0    0  503  501  0.00000000000E+00  0.00000000000E+00  0.41930040288E+03  0.41930040288E+03  0.00000000000E+00 0. -1.
         21   -1    0    0  501  502 -0.00000000000E+00 -0.00000000000E+00 -0.45211964713E+03  0.45211964713E+03  0.00000000000E+00 0. -1.
         21    1    1    2  503  504 -0.16553322331E+02 -0.12977540957E+03  0.39916617715E+03  0.42005869398E+03  0.00000000000E+00 0. -1.
         21    1    1    2  504  502  0.16553322331E+02  0.12977540957E+03 -0.43198542140E+03  0.45136135602E+03  0.00000000000E+00 0. -1.
<mgrwt>
<rscale>  2 0.13082687E+03</rscale>
<asrwt>0</asrwt>
<pdfrwt beam="1">  1       21 0.64507755E-01 0.13082687E+03</pdfrwt>
<pdfrwt beam="2">  1       21 0.69556868E-01 0.13082687E+03</pdfrwt>
<totfact> 0.44031464E+03</totfact>
</mgrwt>
</event>
<event>
 4    1  0.6158309E+003  0.1006958E+03  0.7546771E-02  0.1278840E+00
         21   -1    0    0  503  501  0.00000000000E+00  0.00000000000E+00  0.81851159854E+02  0.81851159854E+02  0.00000000000E+00 0.  1.
         21   -1    0    0  504  502 -0.00000000000E+00 -0.00000000000E+00 -0.13341940500E+03  0.13341940500E+03  0.00000000000E+00 0.  1.
         21    1    1    2  503  502 -0.14963208401E+02  0.99577862887E+02  0.29982229625E+01  0.10074044731E+03  0.00000000000E+00 0.  1.
         21    1    1    2  504  501  0.14963208401E+02 -0.99577862887E+02 -0.54566468105E+02  0.11453011754E+03  0.00000000000E+00 0.  1.
<mgrwt>
<rscale>  2 0.10069582E+03</rscale>
<asrwt>0</asrwt>
<pdfrwt beam="1">  1       21 0.12592486E-01 0.10069582E+03</pdfrwt>
<pdfrwt beam="2">  1       21 0.20526062E-01 0.10069582E+03</pdfrwt>
<totfact> 0.11777896E+06</totfact>
</mgrwt>
</event>
<event>
 4    1  0.6158309E+003  0.1048486E+03  0.7546771E-02  0.1270418E+00
         21   -1    0    0  504  501  0.00000000000E+00  0.00000000000E+00  0.70932005781E+02  0.70932005781E+02  0.00000000000E+00 0.  1.
         21   -1    0    0  503  502 -0.00000000000E+00 -0.00000000000E+00 -0.26180173024E+03  0.26180173024E+03  0.00000000000E+00 0. -1.
         21    1    1    2  503  501  0.62075297678E+02 -0.84497811369E+02 -0.20170352534E+03  0.22732693383E+03  0.00000000000E+00 0. -1.
         21    1    1    2  504  502 -0.62075297678E+02  0.84497811369E+02  0.10833800880E+02  0.10540680220E+03  0.00000000000E+00 0.  1.
<mgrwt>
<rscale>  2 0.10484857E+03</rscale>
<asrwt>0</asrwt>
<pdfrwt beam="1">  1       21 0.10912616E-01 0.10484857E+03</pdfrwt>
<pdfrwt beam="2">  1       21 0.40277189E-01 0.10484857E+03</pdfrwt>
<totfact> 0.41823244E+05</totfact>
</mgrwt>
</event>
<event>
 4    1  0.6158309E+003  0.1539305E+03  0.7546771E-02  0.1195725E+00
         21   -1    0    0  502  501  0.00000000000E+00  0.00000000000E+00  0.19364484899E+04  0.19364484899E+04  0.00000000000E+00 0. -1.
         21   -1    0    0  504  502 -0.00000000000E+00 -0.00000000000E+00 -0.13346290491E+03  0.13346290491E+03  0.00000000000E+00 0.  1.
         21    1    1    2  503  501 -0.68623267750E+02  0.13778772740E+03  0.18878648745E+04  0.18941299837E+04  0.00000000000E+00 0. -1.
         21    1    1    2  504  503  0.68623267750E+02 -0.13778772740E+03 -0.84879289540E+02  0.17578141111E+03  0.00000000000E+00 0.  1.
<mgrwt>
<rscale>  2 0.15393054E+03</rscale>
<asrwt>0</asrwt>
<pdfrwt beam="1">  1       21 0.29791513E+00 0.15393054E+03</pdfrwt>
<pdfrwt beam="2">  1       21 0.20532756E-01 0.15393054E+03</pdfrwt>
<totfact> 0.81797449E+02</totfact>
</mgrwt>
</event>
<event>
 4    1  0.6158309E+003  0.1407976E+03  0.7546771E-02  0.1212260E+00
         21   -1    0    0  503  501  0.00000000000E+00  0.00000000000E+00  0.19455410437E+04  0.19455410437E+04  0.00000000000E+00 0. -1.
         21   -1    0    0  504  502 -0.00000000000E+00 -0.00000000000E+00 -0.12465824485E+02  0.12465824485E+02  0.00000000000E+00 0. -1.
         21    1    1    2  503  502  0.90718916998E+02  0.10767558862E+03  0.13848950269E+04  0.13920338322E+04  0.00000000000E+00 0. -1.
         21    1    1    2  504  501 -0.90718916998E+02 -0.10767558862E+03  0.54818019234E+03  0.56597303608E+03  0.00000000000E+00 0. -1.
<mgrwt>
<rscale>  2 0.14079756E+03</rscale>
<asrwt>0</asrwt>
<pdfrwt beam="1">  1       21 0.29931377E+00 0.14079756E+03</pdfrwt>
<pdfrwt beam="2">  1       21 0.19178207E-02 0.14079756E+03</pdfrwt>
<totfact> 0.47815844E+04</totfact>
</mgrwt>
</event>
<event>
 4    1  0.6158309E+003  0.1251289E+03  0.7546771E-02  0.1234868E+00
         21   -1    0    0  502  501  0.00000000000E+00  0.00000000000E+00  0.16482200928E+03  0.16482200928E+03  0.00000000000E+00 0.  1.
         21   -1    0    0  503  502 -0.00000000000E+00 -0.00000000000E+00 -0.96126924053E+02  0.96126924053E+02  0.00000000000E+00 0.  1.
         21    1    1    2  503  504 -0.91058327943E+02  0.85823211629E+02  0.20188313201E+02  0.12674703441E+03  0.00000000000E+00 0.  1.
         21    1    1    2  504  501  0.91058327943E+02 -0.85823211629E+02  0.48506772026E+02  0.13420189892E+03  0.00000000000E+00 0.  1.
<mgrwt>
<rscale>  2 0.12512890E+03</rscale>
<asrwt>0</asrwt>
<pdfrwt beam="1">  1       21 0.25357232E-01 0.12512890E+03</pdfrwt>
<pdfrwt beam="2">  1       21 0.14788758E-01 0.12512890E+03</pdfrwt>
<totfact> 0.59716648E+05</totfact>
</mgrwt>
</event>
<event>
 4    1  0.6158309E+003  0.1077939E+03  0.7546771E-02  0.1264711E+00
         21   -1    0    0  504  501  0.00000000000E+00  0.00000000000E+00  0.23089490519E+03  0.23089490519E+03  0.00000000000E+00 0. -1.
         21   -1    0    0  503  502 -0.00000000000E+00 -0.00000000000E+00 -0.63791666721E+02  0.63791666721E+02  0.00000000000E+00 0. -1.
         21    1    1    2  503  501  0.77575877951E+02 -0.74843285308E+02  0.15125276581E+03  0.18573350091E+03  0.00000000000E+00 0. -1.
         21    1    1    2  504  502 -0.77575877951E+02  0.74843285308E+02  0.15850472652E+02  0.10895307099E+03  0.00000000000E+00 0. -1.
<mgrwt>
<rscale>  2 0.10779394E+03</rscale>
<asrwt>0</asrwt>
<pdfrwt beam="1">  1       21 0.35522292E-01 0.10779394E+03</pdfrwt>
<pdfrwt beam="2">  1       21 0.98141027E-02 0.10779394E+03</pdfrwt>
<totfact> 0.64479723E+05</totfact>
</mgrwt>
</event>
<event>
 4    1  0.6158309E+003  0.1111554E+03  0.7546771E-02  0.1258445E+00
         21   -1    0    0  504  501  0.00000000000E+00  0.00000000000E+00  0.17608198108E+03  0.17608198108E+03  0.00000000000E+00 0.  1.
         21   -1    0    0  503  502 -0.00000000000E+00 -0.00000000000E+00 -0.12103466234E+03  0.12103466234E+03  0.00000000000E+00 0. -1.
         21    1    1    2  503  501  0.10578687518E+03  0.34127093319E+02  0.12382977146E+03  0.16640112306E+03  0.00000000000E+00 0.  1.
         21    1    1    2  504  502 -0.10578687518E+03 -0.34127093319E+02 -0.68782452718E+02  0.13071552035E+03  0.00000000000E+00 0. -1.
<mgrwt>
<rscale>  2 0.11115539E+03</rscale>
<asrwt>0</asrwt>
<pdfrwt beam="1">  1       21 0.27089536E-01 0.11115539E+03</pdfrwt>
<pdfrwt beam="2">  1       21 0.18620717E-01 0.11115539E+03</pdfrwt>
<totfact> 0.34737383E+05</totfact>
</mgrwt>
</event>
<event>
 4    1  0.6158309E+003  0.1195683E+03  0.7546771E-02  0.1243811E+00
         21   -1    0    0  504  501  0.00000000000E+00  0.00000000000E+00  0.20015994281E+03  0.20015994281E+03  0.00000000000E+00 0. -1.
         21   -1    0    0  503  502 -0.00000000000E+00 -0.00000000000E+00 -0.37218069241E+03  0.37218069241E+03  0.00000000000E+00 0.  1.
         21    1    1    2  503  501  0.11494813025E+03 -0.32916505427E+02 -0.34325959709E+03  0.36348826662E+03  0.00000000000E+00 0.  1.
         21    1    1    2  504  502 -0.11494813025E+03  0.32916505427E+02  0.17123884749E+03  0.20885236860E+03  0.00000000000E+00 0. -1.
<mgrwt>
<rscale>  2 0.11956826E+03</rscale>
<asrwt>0</asrwt>
<pdfrwt beam="1">  1       21 0.30793838E-01 0.11956826E+03</pdfrwt>
<pdfrwt beam="2">  1       21 0.57258567E-01 0.11956826E+03</pdfrwt>
<totfact> 0.30296473E+04</totfact>
</mgrwt>
</event>
<event>
 4    1  0.6158309E+003  0.1219231E+03  0.7546771E-02  0.1239958E+00
         21   -1    0    0  503  501  0.00000000000E+00  0.00000000000E+00  0.26016164280E+02  0.26016164280E+02  0.00000000000E+00 0.  1.
         21   -1    0    0  504  502 -0.00000000000E+00 -0.00000000000E+00 -0.57184509587E+03  0.57184509587E+03  0.00000000000E+00 0.  1.
         21    1    1    2  503  502 -0.93881384589E+02  0.77791626371E+02 -0.26443719653E+03  0.29119114412E+03  0.00000000000E+00 0.  1.
         21    1    1    2  504  501  0.93881384589E+02 -0.77791626371E+02 -0.28139173506E+03  0.30667011603E+03  0.00000000000E+00 0.  1.
<mgrwt>
<rscale>  2 0.12192314E+03</rscale>
<asrwt>0</asrwt>
<pdfrwt beam="1">  1       21 0.40024871E-02 0.12192314E+03</pdfrwt>
<pdfrwt beam="2">  1       21 0.87976161E-01 0.12192314E+03</pdfrwt>
<totfact> 0.43919243E+05</totfact>
</mgrwt>
</event>
<event>
 4    1  0.6158309E+003  0.1131817E+03  0.7546771E-02  0.1254789E+00
         21   -1    0    0  503  501  0.00000000000E+00  0.00000000000E+00  0.29793750133E+02  0.29793750133E+02  0.00000000000E+00 0.  1.
         21   -1    0    0  504  502 -0.00000000000E+00 -0.00000000000E+00 -0.43905711352E+03  0.43905711352E+03  0.00000000000E+00 0.  1.
         21    1    1    2  503  502 -0.54815956020E+02 -0.99021747721E+02 -0.17088615178E+03  0.20496871085E+03  0.00000000000E+00 0.  1.
         21    1    1    2  504  501  0.54815956020E+02  0.99021747721E+02 -0.23837721160E+03  0.26388215280E+03  0.00000000000E+00 0.  1.
<mgrwt>
<rscale>  2 0.11318169E+03</rscale>
<asrwt>0</asrwt>
<pdfrwt beam="1">  1       21 0.45836541E-02 0.11318169E+03</pdfrwt>
<pdfrwt beam="2">  1       21 0.67547245E-01 0.11318169E+03</pdfrwt>
<totfact> 0.62969752E+05</totfact>
</mgrwt>
</event>
<event>
 4    1  0.6158309E+003  0.1434779E+03  0.7546771E-02  0.1208724E+00
         21   -1    0    0  504  501  0.00000000000E+00  0.00000000000E+00  0.21898910566E+04  0.21898910566E+04  0.00000000000E+00 0. -1.
         21   -1    0    0  503  502 -0.00000000000E+00 -0.00000000000E+00 -0.14041983754E+02  0.14041983754E+02  0.00000000000E+00 0. -1.
         21    1    1    2  503  501  0.14247884994E+03  0.16901929972E+02  0.45436668207E+03  0.47648187761E+03  0.00000000000E+00 0. -1.
         21    1    1    2  504  502 -0.14247884994E+03 -0.16901929972E+02  0.17214823908E+04  0.17274511627E+04  0.00000000000E+00 0. -1.
<mgrwt>
<rscale>  2 0.14347787E+03</rscale>
<asrwt>0</asrwt>
<pdfrwt beam="1">  1       21 0.33690604E+00 0.14347787E+03</pdfrwt>
<pdfrwt beam="2">  1       21 0.21603069E-02 0.14347787E+03</pdfrwt>
<totfact> 0.24032366E+04</totfact>
</mgrwt>
</event>
<event>
 4    1  0.6158309E+003  0.1043583E+03  0.7546771E-02  0.1271389E+00
         21   -1    0    0  504  501  0.00000000000E+00  0.00000000000E+00  0.46258418510E+02  0.46258418510E+02  0.00000000000E+00 0. -1.
         21   -1    0    0  503  502 -0.00000000000E+00 -0.00000000000E+00 -0.23547237322E+03  0.23547237322E+03  0.00000000000E+00 0.  1.
         21    1    1    2  503  501 -0.50080032575E+02 -0.91556802619E+02 -0.96478069853E+02  0.14212204520E+03  0.00000000000E+00 0. -1.
         21    1    1    2  504  502  0.50080032575E+02  0.91556802619E+02 -0.92735884861E+02  0.13960874654E+03  0.00000000000E+00 0.  1.
<mgrwt>
<rscale>  2 0.10435831E+03</rscale>
<asrwt>0</asrwt>
<pdfrwt beam="1">  1       21 0.71166798E-02 0.10435831E+03</pdfrwt>
<pdfrwt beam="2">  1       21 0.36226519E-01 0.10435831E+03</pdfrwt>
<totfact> 0.10782003E+06</totfact>
</mgrwt>
</event>
<event>
 4    1  0.6158309E+003  0.1409727E+03  0.7546771E-02  0.1212026E+00
         21   -1    0    0  503  501  0.00000000000E+00  0.00000000000E+00  0.24556703645E+02  0.24556703645E+02  0.00000000000E+00 0.  1.
         21   -1    0    0  504  502 -0.00000000000E+00 -0.00000000000E+00 -0.81864623845E+03  0.81864623845E+03  0.00000000000E+00 0.  1.
         21    1    1    2  503  502 -0.15582605724E+02 -0.14010886432E+03 -0.44213450709E+03  0.46406490260E+03  0.00000000000E+00 0.  1.
         21    1    1    2  504  501  0.15582605724E+02  0.14010886432E+03 -0.35195502771E+03  0.37913803949E+03  0.00000000000E+00 0.  1.
<mgrwt>
<rscale>  2 0.14097273E+03</rscale>
<asrwt>0</asrwt>
<pdfrwt beam="1">  1       21 0.37779547E-02 0.14097273E+03</pdfrwt>
<pdfrwt beam="2">  1       21 0.12594557E+00 0.14097273E+03</pdfrwt>
<totfact> 0.20554537E+05</totfact>
</mgrwt>
</event>
<event>
 4    1  0.6158309E+003  0.1251787E+03  0.7546771E-02  0.1234790E+00
         21   -1    0    0  503  501  0.00000000000E+00  0.00000000000E+00  0.13719042779E+03  0.13719042779E+03  0.00000000000E+00 0. -1.
         21   -1    0    0  504  502 -0.00000000000E+00 -0.00000000000E+00 -0.14097055709E+03  0.14097055709E+03  0.00000000000E+00 0. -1.
         21    1    1    2  503  502  0.10387044653E+03  0.69861493899E+02  0.58696988133E+02  0.13825713149E+03  0.00000000000E+00 0. -1.
         21    1    1    2  504  501 -0.10387044653E+03 -0.69861493899E+02 -0.62477117434E+02  0.13990385340E+03  0.00000000000E+00 0. -1.
<mgrwt>
<rscale>  2 0.12517866E+03</rscale>
<asrwt>0</asrwt>
<pdfrwt beam="1">  1       21 0.21106220E-01 0.12517866E+03</pdfrwt>
<pdfrwt beam="2">  1       21 0.21687778E-01 0.12517866E+03</pdfrwt>
<totfact> 0.41806727E+05</totfact>
</mgrwt>
</event>
<event>
 4    1  0.6158309E+003  0.1628319E+03  0.7546771E-02  0.1185536E+00
         21   -1    0    0  503  501  0.00000000000E+00  0.00000000000E+00  0.15499786285E+03  0.15499786285E+03  0.00000000000E+00 0. -1.
         21   -1    0    0  504  502 -0.00000000000E+00 -0.00000000000E+00 -0.19714348042E+03  0.19714348042E+03  0.00000000000E+00 0.  1.
         21    1    1    2  503  502 -0.13148660156E+03  0.96049404872E+02  0.42968991808E+02  0.16840590495E+03  0.00000000000E+00 0. -1.
         21    1    1    2  504  501  0.13148660156E+03 -0.96049404872E+02 -0.85114609373E+02  0.18373543832E+03  0.00000000000E+00 0.  1.
<mgrwt>
<rscale>  2 0.16283186E+03</rscale>
<asrwt>0</asrwt>
<pdfrwt beam="1">  1       21 0.23845825E-01 0.16283186E+03</pdfrwt>
<pdfrwt beam="2">  1       21 0.30329766E-01 0.16283186E+03</pdfrwt>
<totfact> 0.17450421E+05</totfact>
</mgrwt>
</event>
<event>
 4    1  0.6158309E+003  0.1005338E+03  0.7546771E-02  0.1279177E+00
         21   -1    0    0  504  501  0.00000000000E+00  0.00000000000E+00  0.33718069022E+03  0.33718069022E+03  0.00000000000E+00 0. -1.
         21   -1    0    0  503  502 -0.00000000000E+00 -0.00000000000E+00 -0.30233405710E+03  0.30233405710E+03  0.00000000000E+00 0. -1.
         21    1    1    2  503  501  0.79377349131E+02  0.61695032267E+02  0.32091572103E+03  0.33629442541E+03  0.00000000000E+00 0. -1.
         21    1    1    2  504  502 -0.79377349131E+02 -0.61695032267E+02 -0.28606908791E+03  0.30322032191E+03  0.00000000000E+00 0. -1.
<mgrwt>
<rscale>  2 0.10053378E+03</rscale>
<asrwt>0</asrwt>
<pdfrwt beam="1">  1       21 0.51873952E-01 0.10053378E+03</pdfrwt>
<pdfrwt beam="2">  1       21 0.46512932E-01 0.10053378E+03</pdfrwt>
<totfact> 0.16733158E+04</totfact>
</mgrwt>
</event>
<event>
 4    1  0.6158309E+003  0.1052669E+03  0.7546771E-02  0.1269595E+00
         21   -1    0    0  503  501  0.00000000000E+00  0.00000000000E+00  0.30514065363E+02  0.30514065363E+02  0.00000000000E+00 0.  1.
         21   -1    0    0  501  502 -0.00000000000E+00 -0.00000000000E+00 -0.55123979073E+03  0.55123979073E+03  0.00000000000E+00 0.  1.
         21    1    1    2  503  504 -0.39850860581E+02  0.97432212101E+02 -0.90450993363E+02  0.13878944212E+03  0.00000000000E+00 0.  1.
         21    1    1    2  504  502  0.39850860581E+02 -0.97432212101E+02 -0.43027473201E+03  0.44296441398E+03  0.00000000000E+00 0.  1.
<mgrwt>
<rscale>  2 0.10526693E+03</rscale>
<asrwt>0</asrwt>
<pdfrwt beam="1">  1       21 0.46944714E-02 0.10526693E+03</pdfrwt>
<pdfrwt beam="2">  1       21 0.84806125E-01 0.10526693E+03</pdfrwt>
<totfact> 0.36706665E+05</totfact>
</mgrwt>
</event>
<event>
 4    1  0.6158309E+003  0.1173558E+03  0.7546771E-02  0.1247524E+00
         21   -1    0    0  504  501  0.00000000000E+00  0.00000000000E+00  0.13151084898E+03  0.13151084898E+03  0.00000000000E+00 0. -1.
         21   -1    0    0  503  502 -0.00000000000E+00 -0.00000000000E+00 -0.15509968881E+03  0.15509968881E+03  0.00000000000E+00 0. -1.
         21    1    1    2  503  501  0.41628387925E+02 -0.10972449569E+03  0.69876171959E+02  0.13658355334E+03  0.00000000000E+00 0. -1.
         21    1    1    2  504  502 -0.41628387925E+02  0.10972449569E+03 -0.93465011790E+02  0.15002698445E+03  0.00000000000E+00 0. -1.
<mgrwt>
<rscale>  2 0.11735582E+03</rscale>
<asrwt>0</asrwt>
<pdfrwt beam="1">  1       21 0.20232438E-01 0.11735582E+03</pdfrwt>
<pdfrwt beam="2">  1       21 0.23861491E-01 0.11735582E+03</pdfrwt>
<totfact> 0.37854790E+05</totfact>
</mgrwt>
</event>
<event>
 4    1  0.6158309E+003  0.1132822E+03  0.7546771E-02  0.1254610E+00
         21   -1    0    0  503  501  0.00000000000E+00  0.00000000000E+00  0.11301468568E+03  0.11301468568E+03  0.00000000000E+00 0. -1.
         21   -1    0    0  501  502 -0.00000000000E+00 -0.00000000000E+00 -0.12222904794E+03  0.12222904794E+03  0.00000000000E+00 0. -1.
         21    1    1    2  503  504  0.59174794300E+02 -0.96598106571E+02  0.26735028450E+02  0.11639421042E+03  0.00000000000E+00 0. -1.
         21    1    1    2  504  502 -0.59174794300E+02  0.96598106571E+02 -0.35949390708E+02  0.11884952320E+03  0.00000000000E+00 0. -1.
<mgrwt>
<rscale>  2 0.11328217E+03</rscale>
<asrwt>0</asrwt>
<pdfrwt beam="1">  1       21 0.17386875E-01 0.11328217E+03</pdfrwt>
<pdfrwt beam="2">  1       21 0.18804469E-01 0.11328217E+03</pdfrwt>
<totfact> 0.77723401E+05</totfact>
</mgrwt>
</event>
<event>
 4    1  0.6158309E+003  0.1345562E+03  0.7546771E-02  0.1220848E+00
         21   -1    0    0  503  501  0.00000000000E+00  0.00000000000E+00  0.18953276474E+02  0.18953276474E+02  0.00000000000E+00 0.  1.
         21   -1    0    0  504  502 -0.00000000000E+00 -0.00000000000E+00 -0.10303398670E+04  0.10303398670E+04  0.00000000000E+00 0.  1.
         21    1    1    2  503  502 -0.94246428166E+01 -0.13422576318E+03 -0.64731416900E+03  0.66115127829E+03  0.00000000000E+00 0.  1.
         21    1    1    2  504  501  0.94246428166E+01  0.13422576318E+03 -0.36407242149E+03  0.38814186515E+03  0.00000000000E+00 0.  1.
<mgrwt>
<rscale>  2 0.13455623E+03</rscale>
<asrwt>0</asrwt>
<pdfrwt beam="1">  1       21 0.29158883E-02 0.13455623E+03</pdfrwt>
<pdfrwt beam="2">  1       21 0.15851385E+00 0.13455623E+03</pdfrwt>
<totfact> 0.17555136E+05</totfact>
</mgrwt>
</event>
<event>
 4    1  0.6158309E+003  0.1083756E+03  0.7546771E-02  0.1263608E+00
         21   -1    0    0  503  501  0.00000000000E+00  0.00000000000E+00  0.79413784478E+02  0.79413784478E+02  0.00000000000E+00 0. -1.
         21   -1    0    0  504  502 -0.00000000000E+00 -0.00000000000E+00 -0.18484570487E+03  0.18484570487E+03  0.00000000000E+00 0. -1.
         21    1    1    2  503  502  0.35544148943E+02  0.10238105965E+03 -0.11178775597E+03  0.15569768876E+03  0.00000000000E+00 0. -1.
         21    1    1    2  504  501 -0.35544148943E+02 -0.10238105965E+03  0.63558355837E+01  0.10856180058E+03  0.00000000000E+00 0. -1.
<mgrwt>
<rscale>  2 0.10837559E+03</rscale>
<asrwt>0</asrwt>
<pdfrwt beam="1">  1       21 0.12217505E-01 0.10837559E+03</pdfrwt>
<pdfrwt beam="2">  1       21 0.28437801E-01 0.10837559E+03</pdfrwt>
<totfact> 0.67523427E+05</totfact>
</mgrwt>
</event>
<event>
 4    1  0.6158309E+003  0.1430368E+03  0.7546771E-02  0.1209300E+00
         21   -1    0    0  503  501  0.00000000000E+00  0.00000000000E+00  0.41146542133E+03  0.41146542133E+03  0.00000000000E+00 0.  1.
         21   -1    0    0  504  502 -0.00000000000E+00 -0.00000000000E+00 -0.10286160294E+04  0.10286160294E+04  0.00000000000E+00 0. -1.
         21    1    1    2  503  502 -0.12331157944E+02 -0.14250426773E+03 -0.10109969906E+04  0.10210653450E+04  0.00000000000E+00 0. -1.
         21    1    1    2  504  501  0.12331157944E+02  0.14250426773E+03  0.39384638255E+03  0.41901610569E+03  0.00000000000E+00 0.  1.
<mgrwt>
<rscale>  2 0.14303679E+03</rscale>
<asrwt>0</asrwt>
<pdfrwt beam="1">  1       21 0.63302372E-01 0.14303679E+03</pdfrwt>
<pdfrwt beam="2">  1       21 0.15824862E+00 0.14303679E+03</pdfrwt>
<totfact> 0.63729347E+02</totfact>
</mgrwt>
</event>
<event>
 4    1  0.6158309E+003  0.1026092E+03  0.7546771E-02  0.1274903E+00
         21   -1    0    0  504  501  0.00000000000E+00  0.00000000000E+00  0.69465773787E+02  0.69465773787E+02  0.00000000000E+00 0. -1.
         21   -1    0    0  501  502 -0.00000000000E+00 -0.00000000000E+00 -0.15761036600E+03  0.15761036600E+03  0.00000000000E+00 0.  1.
         21    1    1    2  503  502 -0.10144130410E+03  0.15437380164E+02 -0.21837980599E+02  0.10490733187E+03  0.00000000000E+00 0.  1.
         21    1    1    2  504  503  0.10144130410E+03 -0.15437380164E+02 -0.66306611615E+02  0.12216880792E+03  0.00000000000E+00 0. -1.
<mgrwt>
<rscale>  2 0.10260921E+03</rscale>
<asrwt>0</asrwt>
<pdfrwt beam="1">  1       21 0.10687042E-01 0.10260921E+03</pdfrwt>
<pdfrwt beam="2">  1       21 0.24247748E-01 0.10260921E+03</pdfrwt>
<totfact> 0.11535509E+06</totfact>
</mgrwt>
</event>
<event>
 4    1  0.6158309E+003  0.1356882E+03  0.7546771E-02  0.1219251E+00
         21   -1    0    0  503  501  0.00000000000E+00  0.00000000000E+00  0.72162314018E+02  0.72162314018E+02  0.00000000000E+00 0.  1.
         21   -1    0    0  501  502 -0.00000000000E+00 -0.00000000000E+00 -0.16195811295E+04  0.16195811295E+04  0.00000000000E+00 0.  1.
         21    1    1    2  503  504  0.19295703038E+02  0.13430925543E+03  0.26824606911E+01  0.13571475913E+03  0.00000000000E+00 0.  1.
         21    1    1    2  504  502 -0.19295703038E+02 -0.13430925543E+03 -0.15501012762E+04  0.15560286844E+04  0.00000000000E+00 0.  1.
<mgrwt>
<rscale>  2 0.13568825E+03</rscale>
<asrwt>0</asrwt>
<pdfrwt beam="1">  1       21 0.11101894E-01 0.13568825E+03</pdfrwt>
<pdfrwt beam="2">  1       21 0.24916634E+00 0.13568825E+03</pdfrwt>
<totfact> 0.48509487E+03</totfact>
</mgrwt>
</event>
<event>
 4    1  0.6158309E+003  0.1779370E+03  0.7546771E-02  0.1169815E+00
         21   -1    0    0  504  501  0.00000000000E+00  0.00000000000E+00  0.66932633588E+03  0.66932633588E+03  0.00000000000E+00 0.  1.
         21   -1    0    0  501  502 -0.00000000000E+00 -0.00000000000E+00 -0.47379613969E+02  0.47379613969E+02  0.00000000000E+00 0. -1.
         21    1    1    2  503  502  0.17525824930E+03 -0.30759164639E+02  0.29662464712E+03  0.34590137531E+03  0.00000000000E+00 0.  1.
         21    1    1    2  504  503 -0.17525824930E+03  0.30759164639E+02  0.32532207479E+03  0.37080457454E+03  0.00000000000E+00 0. -1.
<mgrwt>
<rscale>  2 0.17793701E+03</rscale>
<asrwt>0</asrwt>
<pdfrwt beam="1">  1       21 0.10297328E+00 0.17793701E+03</pdfrwt>
<pdfrwt beam="2">  1       21 0.72891719E-02 0.17793701E+03</pdfrwt>
<totfact> 0.10861951E+05</totfact>
</mgrwt>
</event>
<event>
 4    1  0.6158309E+003  0.1098205E+03  0.7546771E-02  0.1260903E+00
         21   -1    0    0  502  501  0.00000000000E+00  0.00000000000E+00  0.40388039076E+02  0.40388039076E+02  0.00000000000E+00 0.  1.
         21   -1    0    0  503  502 -0.00000000000E+00 -0.00000000000E+00 -0.36148082241E+03  0.36148082241E+03  0.00000000000E+00 0. -1.
         21    1    1    2  503  504  0.31384229618E+02  0.10524052209E+03 -0.24434052947E+03  0.26788585573E+03  0.00000000000E+00 0. -1.
         21    1    1    2  504  501 -0.31384229618E+02 -0.10524052209E+03 -0.76752253864E+02  0.13398300576E+03  0.00000000000E+00 0.  1.
<mgrwt>
<rscale>  2 0.10982048E+03</rscale>
<asrwt>0</asrwt>
<pdfrwt beam="1">  1       21 0.62135444E-02 0.10982048E+03</pdfrwt>
<pdfrwt beam="2">  1       21 0.55612435E-01 0.10982048E+03</pdfrwt>
<totfact> 0.57092225E+05</totfact>
</mgrwt>
</event>
<event>
 4    1  0.6158309E+003  0.1038041E+03  0.7546771E-02  0.1272494E+00
         21   -1    0    0  504  501  0.00000000000E+00  0.00000000000E+00  0.34326104592E+03  0.34326104592E+03  0.00000000000E+00 0. -1.
         21   -1    0    0  503  502 -0.00000000000E+00 -0.00000000000E+00 -0.42210238565E+02  0.42210238565E+02  0.00000000000E+00 0.  1.
         21    1    1    2  503  501  0.67351866825E+02  0.78987461949E+02  0.52947311760E+02  0.11652772603E+03  0.00000000000E+00 0.  1.
         21    1    1    2  504  502 -0.67351866825E+02 -0.78987461949E+02  0.24810349559E+03  0.26894355846E+03  0.00000000000E+00 0. -1.
<mgrwt>
<rscale>  2 0.10380411E+03</rscale>
<asrwt>0</asrwt>
<pdfrwt beam="1">  1       21 0.52809390E-01 0.10380411E+03</pdfrwt>
<pdfrwt beam="2">  1       21 0.64938831E-02 0.10380411E+03</pdfrwt>
<totfact> 0.58997568E+05</totfact>
</mgrwt>
</event>
<event>
 4    1  0.6158309E+003  0.1632516E+03  0.7546771E-02  0.1185074E+00
         21   -1    0    0  504  501  0.00000000000E+00  0.00000000000E+00  0.87863808475E+03  0.87863808475E+03  0.00000000000E+00 0. -1.
         21   -1    0    0  501  502 -0.00000000000E+00 -0.00000000000E+00 -0.99272506901E+02  0.99272506901E+02  0.00000000000E+00 0.  1.
         21    1    1    2  503  502 -0.11660602888E+02  0.16283459925E+03 -0.17782938813E+02  0.16421726245E+03  0.00000000000E+00 0.  1.
         21    1    1    2  504  503  0.11660602888E+02 -0.16283459925E+03  0.79714851666E+03  0.81369332920E+03  0.00000000000E+00 0. -1.
<mgrwt>
<rscale>  2 0.16325157E+03</rscale>
<asrwt>0</asrwt>
<pdfrwt beam="1">  1       21 0.13517508E+00 0.16325157E+03</pdfrwt>
<pdfrwt beam="2">  1       21 0.15272694E-01 0.16325157E+03</pdfrwt>
<totfact> 0.15181999E+04</totfact>
</mgrwt>
</event>
<event>
 4    1  0.6158309E+003  0.1184189E+03  0.7546771E-02  0.1245728E+00
         21   -1    0    0  504  501  0.00000000000E+00  0.00000000000E+00  0.56240644824E+02  0.56240644824E+02  0.00000000000E+00 0.  1.
         21   -1    0    0  503  502 -0.00000000000E+00 -0.00000000000E+00 -0.27270698356E+03  0.27270698356E+03  0.00000000000E+00 0.  1.
         21    1    1    2  503  501  0.84441066006E+02 -0.83022528896E+02 -0.15637818771E+03  0.19615598773E+03  0.00000000000E+00 0.  1.
         21    1    1    2  504  502 -0.84441066006E+02  0.83022528896E+02 -0.60088151027E+02  0.13279164065E+03  0.00000000000E+00 0.  1.
<mgrwt>
<rscale>  2 0.11841889E+03</rscale>
<asrwt>0</asrwt>
<pdfrwt beam="1">  1       21 0.86524070E-02 0.11841889E+03</pdfrwt>
<pdfrwt beam="2">  1       21 0.41954920E-01 0.11841889E+03</pdfrwt>
<totfact> 0.57663346E+05</totfact>
</mgrwt>
</event>
<event>
 4    1  0.6158309E+003  0.1181071E+03  0.7546771E-02  0.1246253E+00
         21   -1    0    0  504  501  0.00000000000E+00  0.00000000000E+00  0.54565221375E+02  0.54565221375E+02  0.00000000000E+00 0.  1.
         21   -1    0    0  503  502 -0.00000000000E+00 -0.00000000000E+00 -0.58293758791E+03  0.58293758791E+03  0.00000000000E+00 0. -1.
         21    1    1    2  503  501  0.10440354469E+03  0.55219346685E+02 -0.50302767000E+03  0.51670698967E+03  0.00000000000E+00 0. -1.
         21    1    1    2  504  502 -0.10440354469E+03 -0.55219346685E+02 -0.25344696534E+02  0.12079581961E+03  0.00000000000E+00 0.  1.
<mgrwt>
<rscale>  2 0.11810705E+03</rscale>
<asrwt>0</asrwt>
<pdfrwt beam="1">  1       21 0.83946498E-02 0.11810705E+03</pdfrwt>
<pdfrwt beam="2">  1       21 0.89682703E-01 0.11810705E+03</pdfrwt>
<totfact> 0.12033389E+05</totfact>
</mgrwt>
</event>
<event>
 4    1  0.6158309E+003  0.1122264E+03  0.7546771E-02  0.1256502E+00
         21   -1    0    0  504  501  0.00000000000E+00  0.00000000000E+00  0.84021145420E+02  0.84021145420E+02  0.00000000000E+00 0.  1.
         21   -1    0    0  503  502 -0.00000000000E+00 -0.00000000000E+00 -0.15349256845E+03  0.15349256845E+03  0.00000000000E+00 0.  1.
         21    1    1    2  503  501  0.90362249180E+02  0.66553954613E+02 -0.52904290403E+02  0.12407106389E+03  0.00000000000E+00 0.  1.
         21    1    1    2  504  502 -0.90362249180E+02 -0.66553954613E+02 -0.16567132626E+02  0.11344264998E+03  0.00000000000E+00 0.  1.
<mgrwt>
<rscale>  2 0.11222640E+03</rscale>
<asrwt>0</asrwt>
<pdfrwt beam="1">  1       21 0.12926330E-01 0.11222640E+03</pdfrwt>
<pdfrwt beam="2">  1       21 0.23614241E-01 0.11222640E+03</pdfrwt>
<totfact> 0.86832279E+05</totfact>
</mgrwt>
</event>
<event>
 4    1  0.6158309E+003  0.1281232E+03  0.7546771E-02  0.1230267E+00
         21   -1    0    0  504  501  0.00000000000E+00  0.00000000000E+00  0.13525232188E+03  0.13525232188E+03  0.00000000000E+00 0. -1.
         21   -1    0    0  503  502 -0.00000000000E+00 -0.00000000000E+00 -0.20937628285E+03  0.20937628285E+03  0.00000000000E+00 0.  1.
         21    1    1    2  503  501  0.72451678353E+02 -0.10567072151E+03  0.74653901635E+02  0.14828604826E+03  0.00000000000E+00 0. -1.
         21    1    1    2  504  502 -0.72451678353E+02  0.10567072151E+03 -0.14877786261E+03  0.19634255647E+03  0.00000000000E+00 0.  1.
<mgrwt>
<rscale>  2 0.12812317E+03</rscale>
<asrwt>0</asrwt>
<pdfrwt beam="1">  1       21 0.20808050E-01 0.12812317E+03</pdfrwt>
<pdfrwt beam="2">  1       21 0.32211736E-01 0.12812317E+03</pdfrwt>
<totfact> 0.20223125E+05</totfact>
</mgrwt>
</event>
<event>
 4    1  0.6158309E+003  0.1000969E+03  0.7546771E-02  0.1280092E+00
         21   -1    0    0  502  501  0.00000000000E+00  0.00000000000E+00  0.15132231917E+03  0.15132231917E+03  0.00000000000E+00 0.  1.
         21   -1    0    0  503  502 -0.00000000000E+00 -0.00000000000E+00 -0.28308350096E+03  0.28308350096E+03  0.00000000000E+00 0.  1.
         21    1    1    2  503  504  0.99747348849E+02 -0.83575923815E+01 -0.25599253703E+03  0.27486644387E+03  0.00000000000E+00 0.  1.
         21    1    1    2  504  501 -0.99747348849E+02  0.83575923815E+01  0.12423135524E+03  0.15953937626E+03  0.00000000000E+00 0.  1.
<mgrwt>
<rscale>  2 0.10009687E+03</rscale>
<asrwt>0</asrwt>
<pdfrwt beam="1">  1       21 0.23280357E-01 0.10009687E+03</pdfrwt>
<pdfrwt beam="2">  1       21 0.43551308E-01 0.10009687E+03</pdfrwt>
<totfact> 0.91416987E+04</totfact>
</mgrwt>
</event>
<event>
 4    1  0.6158309E+003  0.1151819E+03  0.7546771E-02  0.1251264E+00
         21   -1    0    0  503  501  0.00000000000E+00  0.00000000000E+00  0.15449889074E+02  0.15449889074E+02  0.00000000000E+00 0.  1.
         21   -1    0    0  504  502 -0.00000000000E+00 -0.00000000000E+00 -0.11417162240E+04  0.11417162240E+04  0.00000000000E+00 0.  1.
         21    1    1    2  503  502 -0.95127906030E+02  0.64942709627E+02 -0.85119757091E+03  0.85895528333E+03  0.00000000000E+00 0.  1.
         21    1    1    2  504  501  0.95127906030E+02 -0.64942709627E+02 -0.27506876405E+03  0.29821082977E+03  0.00000000000E+00 0.  1.
<mgrwt>
<rscale>  2 0.11518192E+03</rscale>
<asrwt>0</asrwt>
<pdfrwt beam="1">  1       21 0.23769056E-02 0.11518192E+03</pdfrwt>
<pdfrwt beam="2">  1       21 0.17564868E+00 0.11518192E+03</pdfrwt>
<totfact> 0.18777404E+05</totfact>
</mgrwt>
</event>
<event>
 4    1  0.6158309E+003  0.1110117E+03  0.7546771E-02  0.1258708E+00
         21   -1    0    0  503  501  0.00000000000E+00  0.00000000000E+00  0.66199877529E+02  0.66199877529E+02  0.00000000000E+00 0.  1.
         21   -1    0    0  501  502 -0.00000000000E+00 -0.00000000000E+00 -0.25769774783E+03  0.25769774783E+03  0.00000000000E+00 0.  1.
         21    1    1    2  503  504  0.84162145931E+02 -0.72390162094E+02 -0.10419722611E+02  0.11149965469E+03  0.00000000000E+00 0.  1.
         21    1    1    2  504  502 -0.84162145931E+02  0.72390162094E+02 -0.18107814769E+03  0.21239797067E+03  0.00000000000E+00 0.  1.
<mgrwt>
<rscale>  2 0.11101172E+03</rscale>
<asrwt>0</asrwt>
<pdfrwt beam="1">  1       21 0.10184596E-01 0.11101172E+03</pdfrwt>
<pdfrwt beam="2">  1       21 0.39645809E-01 0.11101172E+03</pdfrwt>
<totfact> 0.48670234E+05</totfact>
</mgrwt>
</event>
<event>
 4    1  0.6158309E+003  0.1126710E+03  0.7546771E-02  0.1255702E+00
         21   -1    0    0  503  501  0.00000000000E+00  0.00000000000E+00  0.42143510185E+03  0.42143510185E+03  0.00000000000E+00 0. -1.
         21   -1    0    0  501  502 -0.00000000000E+00 -0.00000000000E+00 -0.52705228644E+02  0.52705228644E+02  0.00000000000E+00 0. -1.
         21    1    1    2  503  504  0.65151453568E+02 -0.91924061672E+02  0.33954529481E+03  0.35775096400E+03  0.00000000000E+00 0. -1.
         21    1    1    2  504  502 -0.65151453568E+02  0.91924061672E+02  0.29184578395E+02  0.11638936649E+03  0.00000000000E+00 0. -1.
<mgrwt>
<rscale>  2 0.11267096E+03</rscale>
<asrwt>0</asrwt>
<pdfrwt beam="1">  1       21 0.64836167E-01 0.11267096E+03</pdfrwt>
<pdfrwt beam="2">  1       21 0.81084970E-02 0.11267096E+03</pdfrwt>
<totfact> 0.26196359E+05</totfact>
</mgrwt>
</event>
<event>
 4    1  0.6158309E+003  0.1193054E+03  0.7546771E-02  0.1244247E+00
         21   -1    0    0  504  501  0.00000000000E+00  0.00000000000E+00  0.64649267687E+02  0.64649267687E+02  0.00000000000E+00 0. -1.
         21   -1    0    0  503  502 -0.00000000000E+00 -0.00000000000E+00 -0.34328882687E+03  0.34328882687E+03  0.00000000000E+00 0. -1.
         21    1    1    2  503  501  0.11357886885E+03  0.36518858317E+02 -0.26147100698E+03  0.28740367770E+03  0.00000000000E+00 0. -1.
         21    1    1    2  504  502 -0.11357886885E+03 -0.36518858317E+02 -0.17168552205E+02  0.12053441686E+03  0.00000000000E+00 0. -1.
<mgrwt>
<rscale>  2 0.11930543E+03</rscale>
<asrwt>0</asrwt>
<pdfrwt beam="1">  1       21 0.99460413E-02 0.11930543E+03</pdfrwt>
<pdfrwt beam="2">  1       21 0.52813665E-01 0.11930543E+03</pdfrwt>
<totfact> 0.28297129E+05</totfact>
</mgrwt>
</event>
<event>
 4    1  0.6158309E+003  0.1084756E+03  0.7546771E-02  0.1263419E+00
         21   -1    0    0  503  501  0.00000000000E+00  0.00000000000E+00  0.10898540923E+03  0.10898540923E+03  0.00000000000E+00 0.  1.
         21   -1    0    0  504  502 -0.00000000000E+00 -0.00000000000E+00 -0.15153080169E+03  0.15153080169E+03  0.00000000000E+00 0. -1.
         21    1    1    2  503  502  0.99444410759E+02  0.43333273501E+02 -0.91113780721E+02  0.14166398435E+03  0.00000000000E+00 0. -1.
         21    1    1    2  504  501 -0.99444410759E+02 -0.43333273501E+02  0.48568388254E+02  0.11885222657E+03  0.00000000000E+00 0.  1.
<mgrwt>
<rscale>  2 0.10847564E+03</rscale>
<asrwt>0</asrwt>
<pdfrwt beam="1">  1       21 0.16766986E-01 0.10847564E+03</pdfrwt>
<pdfrwt beam="2">  1       21 0.23312431E-01 0.10847564E+03</pdfrwt>
<totfact> 0.55787258E+05</totfact>
</mgrwt>
</event>
<event>
 4    1  0.6158309E+003  0.1380472E+03  0.7546771E-02  0.1215981E+00
         21   -1    0    0  502  501  0.00000000000E+00  0.00000000000E+00  0.47520035046E+03  0.47520035046E+03  0.00000000000E+00 0. -1.
         21   -1    0    0  504  502 -0.00000000000E+00 -0.00000000000E+00 -0.41589993171E+02  0.41589993171E+02  0.00000000000E+00 0. -1.
         21    1    1    2  503  501 -0.47538176063E+02 -0.12960383986E+03  0.26566161277E+03  0.29938791891E+03  0.00000000000E+00 0. -1.
         21    1    1    2  504  503  0.47538176063E+02  0.12960383986E+03  0.16794874451E+03  0.21740242472E+03  0.00000000000E+00 0. -1.
<mgrwt>
<rscale>  2 0.13804721E+03</rscale>
<asrwt>0</asrwt>
<pdfrwt beam="1">  1       21 0.73107742E-01 0.13804721E+03</pdfrwt>
<pdfrwt beam="2">  1       21 0.63984608E-02 0.13804721E+03</pdfrwt>
<totfact> 0.30106183E+05</totfact>
</mgrwt>
</event>
<event>
 4    1  0.6158309E+003  0.1060825E+03  0.7546771E-02  0.1268001E+00
         21   -1    0    0  504  501  0.00000000000E+00  0.00000000000E+00  0.11992971124E+03  0.11992971124E+03  0.00000000000E+00 0. -1.
         21   -1    0    0  503  502 -0.00000000000E+00 -0.00000000000E+00 -0.13674867284E+03  0.13674867284E+03  0.00000000000E+00 0. -1.
         21    1    1    2  503  501  0.10211882579E+03  0.28727126218E+02  0.63485718381E+02  0.12362822817E+03  0.00000000000E+00 0. -1.
         21    1    1    2  504  502 -0.10211882579E+03 -0.28727126218E+02 -0.80304679983E+02  0.13305015591E+03  0.00000000000E+00 0. -1.
<mgrwt>
<rscale>  2 0.10608253E+03</rscale>
<asrwt>0</asrwt>
<pdfrwt beam="1">  1       21 0.18450725E-01 0.10608253E+03</pdfrwt>
<pdfrwt beam="2">  1       21 0.21038257E-01 0.10608253E+03</pdfrwt>
<totfact> 0.56728902E+05</totfact>
</mgrwt>
</event>
<event>
 4    1  0.6158309E+003  0.1517116E+03  0.7546771E-02  0.1198385E+00
         21   -1    0    0  503  501  0.00000000000E+00  0.00000000000E+00  0.28729874846E+02  0.28729874846E+02  0.00000000000E+00 0.  1.
         21   -1    0    0  504  502 -0.00000000000E+00 -0.00000000000E+00 -0.83218969563E+03  0.83218969563E+03  0.00000000000E+00 0. -1.
         21    1    1    2  503  502  0.11221606053E+03 -0.10209788775E+03 -0.31857156661E+03  0.35285162034E+03  0.00000000000E+00 0.  1.
         21    1    1    2  504  501 -0.11221606053E+03  0.10209788775E+03 -0.48488825417E+03  0.50806795013E+03  0.00000000000E+00 0. -1.
<mgrwt>
<rscale>  2 0.15171164E+03</rscale>
<asrwt>0</asrwt>
<pdfrwt beam="1">  1       21 0.44199804E-02 0.15171164E+03</pdfrwt>
<pdfrwt beam="2">  1       21 0.12802919E+00 0.15171164E+03</pdfrwt>
<totfact> 0.15129769E+05</totfact>
</mgrwt>
</event>
<event>
 4    1  0.6158309E+003  0.1295095E+03  0.7546771E-02  0.1228185E+00
         21   -1    0    0  503  501  0.00000000000E+00  0.00000000000E+00  0.67261475876E+02  0.67261475876E+02  0.00000000000E+00 0.  1.
         21   -1    0    0  504  502 -0.00000000000E+00 -0.00000000000E+00 -0.25666919254E+03  0.25666919254E+03  0.00000000000E+00 0.  1.
         21    1    1    2  503  502 -0.10965945304E+03  0.68902201415E+02 -0.12202499301E+03  0.17794046173E+03  0.00000000000E+00 0.  1.
         21    1    1    2  504  501  0.10965945304E+03 -0.68902201415E+02 -0.67382723660E+02  0.14599020669E+03  0.00000000000E+00 0.  1.
<mgrwt>
<rscale>  2 0.12950949E+03</rscale>
<asrwt>0</asrwt>
<pdfrwt beam="1">  1       21 0.10347919E-01 0.12950949E+03</pdfrwt>
<pdfrwt beam="2">  1       21 0.39487569E-01 0.12950949E+03</pdfrwt>
<totfact> 0.47639741E+05</totfact>
</mgrwt>
</event>
<event>
 4    1  0.6158309E+003  0.1060005E+03  0.7546771E-02  0.1268161E+00
         21   -1    0    0  504  501  0.00000000000E+00  0.00000000000E+00  0.13701877774E+03  0.13701877774E+03  0.00000000000E+00 0. -1.
         21   -1    0    0  503  502 -0.00000000000E+00 -0.00000000000E+00 -0.85075311880E+02  0.85075311880E+02  0.00000000000E+00 0. -1.
         21    1    1    2  503  501 -0.10330174351E+03  0.23766578326E+02  0.48727905981E+01  0.10611241466E+03  0.00000000000E+00 0. -1.
         21    1    1    2  504  502  0.10330174351E+03 -0.23766578326E+02  0.47070675263E+02  0.11598167496E+03  0.00000000000E+00 0. -1.
<mgrwt>
<rscale>  2 0.10600047E+03</rscale>
<asrwt>0</asrwt>
<pdfrwt beam="1">  1       21 0.21079812E-01 0.10600047E+03</pdfrwt>
<pdfrwt beam="2">  1       21 0.13088510E-01 0.10600047E+03</pdfrwt>
<totfact> 0.10482479E+06</totfact>
</mgrwt>
</event>
<event>
 4    1  0.6158309E+003  0.1234377E+03  0.7546771E-02  0.1237531E+00
         21   -1    0    0  503  501  0.00000000000E+00  0.00000000000E+00  0.58559464512E+03  0.58559464512E+03  0.00000000000E+00 0. -1.
         21   -1    0    0  504  502 -0.00000000000E+00 -0.00000000000E+00 -0.37829447277E+02  0.37829447277E+02  0.00000000000E+00 0.  1.
         21    1    1    2  503  502  0.12342706788E+03  0.16188535075E+01  0.99716695977E+02  0.15868295822E+03  0.00000000000E+00 0.  1.
         21    1    1    2  504  501 -0.12342706788E+03 -0.16188535075E+01  0.44804850186E+03  0.46474113418E+03  0.00000000000E+00 0. -1.
<mgrwt>
<rscale>  2 0.12343768E+03</rscale>
<asrwt>0</asrwt>
<pdfrwt beam="1">  1       21 0.90091477E-01 0.12343768E+03</pdfrwt>
<pdfrwt beam="2">  1       21 0.58199154E-02 0.12343768E+03</pdfrwt>
<totfact> 0.22219347E+05</totfact>
</mgrwt>
</event>
<event>
 4    1  0.6158309E+003  0.1374170E+03  0.7546771E-02  0.1216847E+00
         21   -1    0    0  504  501  0.00000000000E+00  0.00000000000E+00  0.50893243719E+02  0.50893243719E+02  0.00000000000E+00 0.  1.
         21   -1    0    0  503  502 -0.00000000000E+00 -0.00000000000E+00 -0.73761188127E+03  0.73761188127E+03  0.00000000000E+00 0. -1.
         21    1    1    2  503  501  0.36214281256E+02 -0.13255925154E+03 -0.62129233781E+03  0.63630778587E+03  0.00000000000E+00 0. -1.
         21    1    1    2  504  502 -0.36214281256E+02  0.13255925154E+03 -0.65426299738E+02  0.15219733912E+03  0.00000000000E+00 0.  1.
<mgrwt>
<rscale>  2 0.13741699E+03</rscale>
<asrwt>0</asrwt>
<pdfrwt beam="1">  1       21 0.78297302E-02 0.13741699E+03</pdfrwt>
<pdfrwt beam="2">  1       21 0.11347875E+00 0.13741699E+03</pdfrwt>
<totfact> 0.77448732E+04</totfact>
</mgrwt>
</event>
<event>
 4    1  0.6158309E+003  0.1072037E+03  0.7546771E-02  0.1265838E+00
         21   -1    0    0  504  501  0.00000000000E+00  0.00000000000E+00  0.79585642194E+03  0.79585642194E+03  0.00000000000E+00 0.  1.
         21   -1    0    0  501  502 -0.00000000000E+00 -0.00000000000E+00 -0.59710472660E+02  0.59710472660E+02  0.00000000000E+00 0.  1.
         21    1    1    2  503  502 -0.10247072866E+03  0.31502220499E+02 -0.44073890418E+01  0.10729429252E+03  0.00000000000E+00 0.  1.
         21    1    1    2  504  503  0.10247072866E+03 -0.31502220499E+02  0.74055333832E+03  0.74827260208E+03  0.00000000000E+00 0.  1.
<mgrwt>
<rscale>  2 0.10720373E+03</rscale>
<asrwt>0</asrwt>
<pdfrwt beam="1">  1       21 0.12243944E+00 0.10720373E+03</pdfrwt>
<pdfrwt beam="2">  1       21 0.91862271E-02 0.10720373E+03</pdfrwt>
<totfact> 0.49792242E+04</totfact>
</mgrwt>
</event>
<event>
 4    1  0.6158309E+003  0.1208179E+03  0.7546771E-02  0.1241754E+00
         21   -1    0    0  502  501  0.00000000000E+00  0.00000000000E+00  0.45816405677E+03  0.45816405677E+03  0.00000000000E+00 0. -1.
         21   -1    0    0  504  502 -0.00000000000E+00 -0.00000000000E+00 -0.12353874417E+03  0.12353874417E+03  0.00000000000E+00 0. -1.
         21    1    1    2  503  501 -0.11494443459E+03 -0.37212083516E+02  0.41786856205E+03  0.43498401965E+03  0.00000000000E+00 0. -1.
         21    1    1    2  504  503  0.11494443459E+03  0.37212083516E+02 -0.83243249445E+02  0.14671878128E+03  0.00000000000E+00 0. -1.
<mgrwt>
<rscale>  2 0.12081789E+03</rscale>
<asrwt>0</asrwt>
<pdfrwt beam="1">  1       21 0.70486777E-01 0.12081789E+03</pdfrwt>
<pdfrwt beam="2">  1       21 0.19005961E-01 0.12081789E+03</pdfrwt>
<totfact> 0.48096932E+04</totfact>
</mgrwt>
</event>
<event>
 4    1  0.6158309E+003  0.1143312E+03  0.7546771E-02  0.1252753E+00
         21   -1    0    0  503  501  0.00000000000E+00  0.00000000000E+00  0.58915530505E+02  0.58915530505E+02  0.00000000000E+00 0.  1.
         21   -1    0    0  504  502 -0.00000000000E+00 -0.00000000000E+00 -0.34007293354E+03  0.34007293354E+03  0.00000000000E+00 0.  1.
         21    1    1    2  503  502 -0.82768371732E+02 -0.78873380877E+02 -0.25819233398E+03  0.28237367954E+03  0.00000000000E+00 0.  1.
         21    1    1    2  504  501  0.82768371732E+02  0.78873380877E+02 -0.22965069062E+02  0.11661478451E+03  0.00000000000E+00 0.  1.
<mgrwt>
<rscale>  2 0.11433116E+03</rscale>
<asrwt>0</asrwt>
<pdfrwt beam="1">  1       21 0.90639277E-02 0.11433116E+03</pdfrwt>
<pdfrwt beam="2">  1       21 0.52318913E-01 0.11433116E+03</pdfrwt>
<totfact> 0.33944581E+05</totfact>
</mgrwt>
</event>
<event>
 4    1  0.6158309E+003  0.1162590E+03  0.7546771E-02  0.1249399E+00
         21   -1    0    0  503  501  0.00000000000E+00  0.00000000000E+00  0.53551253290E+02  0.53551253290E+02  0.00000000000E+00 0.  1.
         21   -1    0    0  504  502 -0.00000000000E+00 -0.00000000000E+00 -0.33308324030E+03  0.33308324030E+03  0.00000000000E+00 0.  1.
         21    1    1    2  503  502  0.10841281365E+03 -0.41985938039E+02 -0.23491294570E+03  0.26210732385E+03  0.00000000000E+00 0.  1.
         21    1    1    2  504  501 -0.10841281365E+03  0.41985938039E+02 -0.44619041305E+02  0.12452716974E+03  0.00000000000E+00 0.  1.
<mgrwt>
<rscale>  2 0.11625901E+03</rscale>
<asrwt>0</asrwt>
<pdfrwt beam="1">  1       21 0.82386546E-02 0.11625901E+03</pdfrwt>
<pdfrwt beam="2">  1       21 0.51243574E-01 0.11625901E+03</pdfrwt>
<totfact> 0.41774071E+05</totfact>
</mgrwt>
</event>
<event>
 4    1  0.6158309E+003  0.1054684E+03  0.7546771E-02  0.1269200E+00
         21   -1    0    0  502  501  0.00000000000E+00  0.00000000000E+00  0.45847389052E+02  0.45847389052E+02  0.00000000000E+00 0. -1.
         21   -1    0    0  503  502 -0.00000000000E+00 -0.00000000000E+00 -0.67099452079E+03  0.67099452079E+03  0.00000000000E+00 0. -1.
         21    1    1    2  503  504  0.98824425325E+02  0.36841649217E+02 -0.59895498049E+03  0.60816991278E+03  0.00000000000E+00 0. -1.
         21    1    1    2  504  501 -0.98824425325E+02 -0.36841649217E+02 -0.26192151247E+02  0.10867199706E+03  0.00000000000E+00 0. -1.
<mgrwt>
<rscale>  2 0.10546836E+03</rscale>
<asrwt>0</asrwt>
<pdfrwt beam="1">  1       21 0.70534443E-02 0.10546836E+03</pdfrwt>
<pdfrwt beam="2">  1       21 0.10322993E+00 0.10546836E+03</pdfrwt>
<totfact> 0.11785639E+05</totfact>
</mgrwt>
</event>
<event>
 4    1  0.6158309E+003  0.1483359E+03  0.7546771E-02  0.1202533E+00
         21   -1    0    0  503  501  0.00000000000E+00  0.00000000000E+00  0.20146732553E+03  0.20146732553E+03  0.00000000000E+00 0.  1.
         21   -1    0    0  504  502 -0.00000000000E+00 -0.00000000000E+00 -0.57043733710E+03  0.57043733710E+03  0.00000000000E+00 0. -1.
         21    1    1    2  503  502  0.13325553437E+03 -0.65165127879E+02 -0.53152874543E+03  0.55183905131E+03  0.00000000000E+00 0. -1.
         21    1    1    2  504  501 -0.13325553437E+03  0.65165127879E+02  0.16255873386E+03  0.22006561133E+03  0.00000000000E+00 0.  1.
<mgrwt>
<rscale>  2 0.14833587E+03</rscale>
<asrwt>0</asrwt>
<pdfrwt beam="1">  1       21 0.30994973E-01 0.14833587E+03</pdfrwt>
<pdfrwt beam="2">  1       21 0.87759590E-01 0.14833587E+03</pdfrwt>
<totfact> 0.11497944E+04</totfact>
</mgrwt>
</event>
<event>
 4    1  0.6158309E+003  0.1211978E+03  0.7546771E-02  0.1241134E+00
         21   -1    0    0  503  501  0.00000000000E+00  0.00000000000E+00  0.24363083273E+03  0.24363083273E+03  0.00000000000E+00 0. -1.
         21   -1    0    0  501  502 -0.00000000000E+00 -0.00000000000E+00 -0.45763816332E+03  0.45763816332E+03  0.00000000000E+00 0. -1.
         21    1    1    2  503  504  0.10116994587E+03 -0.66734911475E+02  0.21971821964E+03  0.25092828139E+03  0.00000000000E+00 0. -1.
         21    1    1    2  504  502 -0.10116994587E+03  0.66734911475E+02 -0.43372555023E+03  0.45034071466E+03  0.00000000000E+00 0. -1.
<mgrwt>
<rscale>  2 0.12119780E+03</rscale>
<asrwt>0</asrwt>
<pdfrwt beam="1">  1       21 0.37481667E-01 0.12119780E+03</pdfrwt>
<pdfrwt beam="2">  1       21 0.70405870E-01 0.12119780E+03</pdfrwt>
<totfact> 0.13241844E+04</totfact>
</mgrwt>
</event>
<event>
 4    1  0.6158309E+003  0.1362064E+03  0.7546771E-02  0.1218527E+00
         21   -1    0    0  503  501  0.00000000000E+00  0.00000000000E+00  0.55823031316E+02  0.55823031316E+02  0.00000000000E+00 0.  1.
         21   -1    0    0  504  502 -0.00000000000E+00 -0.00000000000E+00 -0.41198000516E+03  0.41198000516E+03  0.00000000000E+00 0.  1.
         21    1    1    2  503  502 -0.97637451715E+02 -0.94969031584E+02 -0.28091857326E+03  0.31219774781E+03  0.00000000000E+00 0.  1.
         21    1    1    2  504  501  0.97637451715E+02  0.94969031584E+02 -0.75238400585E+02  0.15560528866E+03  0.00000000000E+00 0.  1.
<mgrwt>
<rscale>  2 0.13620642E+03</rscale>
<asrwt>0</asrwt>
<pdfrwt beam="1">  1       21 0.85881586E-02 0.13620642E+03</pdfrwt>
<pdfrwt beam="2">  1       21 0.63381539E-01 0.13620642E+03</pdfrwt>
<totfact> 0.24766399E+05</totfact>
</mgrwt>
</event>
<event>
 4    1  0.6158309E+003  0.1052550E+03  0.7546771E-02  0.1269618E+00
         21   -1    0    0  502  501  0.00000000000E+00  0.00000000000E+00  0.18358332336E+02  0.18358332336E+02  0.00000000000E+00 0. -1.
         21   -1    0    0  503  502 -0.00000000000E+00 -0.00000000000E+00 -0.19860726466E+04  0.19860726466E+04  0.00000000000E+00 0.  1.
         21    1    1    2  503  504 -0.55243226748E+02  0.89592445709E+02 -0.18200625080E+04  0.18231034401E+04  0.00000000000E+00 0.  1.
         21    1    1    2  504  501  0.55243226748E+02 -0.89592445709E+02 -0.14765180623E+03  0.18132753876E+03  0.00000000000E+00 0. -1.
<mgrwt>
<rscale>  2 0.10525503E+03</rscale>
<asrwt>0</asrwt>
<pdfrwt beam="1">  1       21 0.28243595E-02 0.10525503E+03</pdfrwt>
<pdfrwt beam="2">  1       21 0.30554956E+00 0.10525503E+03</pdfrwt>
<totfact> 0.24743532E+04</totfact>
</mgrwt>
</event>
<event>
 4    1  0.6158309E+003  0.1155369E+03  0.7546771E-02  0.1250647E+00
         21   -1    0    0  503  501  0.00000000000E+00  0.00000000000E+00  0.71597171405E+02  0.71597171405E+02  0.00000000000E+00 0. -1.
         21   -1    0    0  501  502 -0.00000000000E+00 -0.00000000000E+00 -0.21061624791E+03  0.21061624791E+03  0.00000000000E+00 0. -1.
         21    1    1    2  503  504  0.37591702121E+02  0.10925039941E+03 -0.21704911317E+02  0.11755802404E+03  0.00000000000E+00 0. -1.
         21    1    1    2  504  502 -0.37591702121E+02 -0.10925039941E+03 -0.11731416519E+03  0.16465539528E+03  0.00000000000E+00 0. -1.
<mgrwt>
<rscale>  2 0.11553695E+03</rscale>
<asrwt>0</asrwt>
<pdfrwt beam="1">  1       21 0.11014949E-01 0.11553695E+03</pdfrwt>
<pdfrwt beam="2">  1       21 0.32402500E-01 0.11553695E+03</pdfrwt>
<totfact> 0.63039890E+05</totfact>
</mgrwt>
</event>
<event>
 4    1  0.6158309E+003  0.1176451E+03  0.7546771E-02  0.1247033E+00
         21   -1    0    0  504  501  0.00000000000E+00  0.00000000000E+00  0.16966308049E+03  0.16966308049E+03  0.00000000000E+00 0.  1.
         21   -1    0    0  501  502 -0.00000000000E+00 -0.00000000000E+00 -0.37213540989E+03  0.37213540989E+03  0.00000000000E+00 0.  1.
         21    1    1    2  503  502 -0.10820843343E+03 -0.46166160098E+02 -0.34060908382E+03  0.36035389187E+03  0.00000000000E+00 0.  1.
         21    1    1    2  504  503  0.10820843343E+03  0.46166160098E+02  0.13813675443E+03  0.18144459851E+03  0.00000000000E+00 0.  1.
<mgrwt>
<rscale>  2 0.11764514E+03</rscale>
<asrwt>0</asrwt>
<pdfrwt beam="1">  1       21 0.26102013E-01 0.11764514E+03</pdfrwt>
<pdfrwt beam="2">  1       21 0.57251601E-01 0.11764514E+03</pdfrwt>
<totfact> 0.41623678E+04</totfact>
</mgrwt>
</event>
<event>
 4    1  0.6158309E+003  0.1145642E+03  0.7546771E-02  0.1252344E+00
         21   -1    0    0  504  501  0.00000000000E+00  0.00000000000E+00  0.31692097602E+02  0.31692097602E+02  0.00000000000E+00 0.  1.
         21   -1    0    0  503  502 -0.00000000000E+00 -0.00000000000E+00 -0.49211285075E+03  0.49211285075E+03  0.00000000000E+00 0. -1.
         21    1    1    2  503  501 -0.56033555702E+02 -0.99925983440E+02 -0.33446115002E+03  0.35353814844E+03  0.00000000000E+00 0. -1.
         21    1    1    2  504  502  0.56033555702E+02  0.99925983440E+02 -0.12595960313E+03  0.17026679991E+03  0.00000000000E+00 0.  1.
<mgrwt>
<rscale>  2 0.11456422E+03</rscale>
<asrwt>0</asrwt>
<pdfrwt beam="1">  1       21 0.48757075E-02 0.11456422E+03</pdfrwt>
<pdfrwt beam="2">  1       21 0.75709667E-01 0.11456422E+03</pdfrwt>
<totfact> 0.44283672E+05</totfact>
</mgrwt>
</event>
<event>
 4    1  0.6158309E+003  0.1496458E+03  0.7546771E-02  0.1200909E+00
         21   -1    0    0  504  501  0.00000000000E+00  0.00000000000E+00  0.75731640977E+02  0.75731640977E+02  0.00000000000E+00 0.  1.
         21   -1    0    0  503  502 -0.00000000000E+00 -0.00000000000E+00 -0.42356519009E+03  0.42356519009E+03  0.00000000000E+00 0.  1.
         21    1    1    2  503  501  0.92463573594E+02  0.11766204812E+03 -0.36751456570E+02  0.15409263308E+03  0.00000000000E+00 0.  1.
         21    1    1    2  504  502 -0.92463573594E+02 -0.11766204812E+03 -0.31108209254E+03  0.34520419799E+03  0.00000000000E+00 0.  1.
<mgrwt>
<rscale>  2 0.14964582E+03</rscale>
<asrwt>0</asrwt>
<pdfrwt beam="1">  1       21 0.11651021E-01 0.14964582E+03</pdfrwt>
<pdfrwt beam="2">  1       21 0.65163877E-01 0.14964582E+03</pdfrwt>
<totfact> 0.13612118E+05</totfact>
</mgrwt>
</event>
<event>
 4    1  0.6158309E+003  0.1043247E+03  0.7546771E-02  0.1271456E+00
         21   -1    0    0  502  501  0.00000000000E+00  0.00000000000E+00  0.36124745383E+03  0.36124745383E+03  0.00000000000E+00 0.  1.
         21   -1    0    0  504  502 -0.00000000000E+00 -0.00000000000E+00 -0.16732107043E+03  0.16732107043E+03  0.00000000000E+00 0.  1.
         21    1    1    2  503  501  0.10138037874E+03 -0.24610137329E+02  0.33627392342E+03  0.35208492105E+03  0.00000000000E+00 0.  1.
         21    1    1    2  504  503 -0.10138037874E+03  0.24610137329E+02 -0.14234754002E+03  0.17648360322E+03  0.00000000000E+00 0.  1.
<mgrwt>
<rscale>  2 0.10432469E+03</rscale>
<asrwt>0</asrwt>
<pdfrwt beam="1">  1       21 0.55576531E-01 0.10432469E+03</pdfrwt>
<pdfrwt beam="2">  1       21 0.25741703E-01 0.10432469E+03</pdfrwt>
<totfact> 0.45876694E+04</totfact>
</mgrwt>
</event>
<event>
 4    1  0.6158309E+003  0.1507367E+03  0.7546771E-02  0.1199571E+00
         21   -1    0    0  504  501  0.00000000000E+00  0.00000000000E+00  0.46617443074E+03  0.46617443074E+03  0.00000000000E+00 0.  1.
         21   -1    0    0  503  502 -0.00000000000E+00 -0.00000000000E+00 -0.97995966319E+02  0.97995966319E+02  0.00000000000E+00 0. -1.
         21    1    1    2  503  501  0.36225966180E+02 -0.14631888874E+03  0.38407715350E+03  0.41259762199E+03  0.00000000000E+00 0.  1.
         21    1    1    2  504  502 -0.36225966180E+02  0.14631888874E+03 -0.15898689076E+02  0.15157277507E+03  0.00000000000E+00 0. -1.
<mgrwt>
<rscale>  2 0.15073665E+03</rscale>
<asrwt>0</asrwt>
<pdfrwt beam="1">  1       21 0.71719142E-01 0.15073665E+03</pdfrwt>
<pdfrwt beam="2">  1       21 0.15076303E-01 0.15073665E+03</pdfrwt>
<totfact> 0.69560561E+04</totfact>
</mgrwt>
</event>
<event>
 4    1  0.6158309E+003  0.1188108E+03  0.7546771E-02  0.1245072E+00
         21   -1    0    0  503  501  0.00000000000E+00  0.00000000000E+00  0.51318492510E+03  0.51318492510E+03  0.00000000000E+00 0. -1.
         21   -1    0    0  504  502 -0.00000000000E+00 -0.00000000000E+00 -0.39273973981E+02  0.39273973981E+02  0.00000000000E+00 0. -1.
         21    1    1    2  503  502  0.80857155091E+01  0.11853535702E+03  0.85754012193E+02  0.14652563006E+03  0.00000000000E+00 0. -1.
         21    1    1    2  504  501 -0.80857155091E+01 -0.11853535702E+03  0.38815693893E+03  0.40593326902E+03  0.00000000000E+00 0. -1.
<mgrwt>
<rscale>  2 0.11881081E+03</rscale>
<asrwt>0</asrwt>
<pdfrwt beam="1">  1       21 0.78951522E-01 0.11881081E+03</pdfrwt>
<pdfrwt beam="2">  1       21 0.60421502E-02 0.11881081E+03</pdfrwt>
<totfact> 0.28110833E+05</totfact>
</mgrwt>
</event>
<event>
 4    1  0.6158309E+003  0.1069117E+03  0.7546771E-02  0.1266398E+00
         21   -1    0    0  503  501  0.00000000000E+00  0.00000000000E+00  0.13534889606E+04  0.13534889606E+04  0.00000000000E+00 0.  1.
         21   -1    0    0  501  502 -0.00000000000E+00 -0.00000000000E+00 -0.52445667130E+02  0.52445667130E+02  0.00000000000E+00 0.  1.
         21    1    1    2  503  504 -0.72782917268E+02 -0.78311897191E+02  0.12944096732E+04  0.12988173499E+04  0.00000000000E+00 0.  1.
         21    1    1    2  504  502  0.72782917268E+02  0.78311897191E+02  0.66336202333E+01  0.10711727781E+03  0.00000000000E+00 0.  1.
<mgrwt>
<rscale>  2 0.10691168E+03</rscale>
<asrwt>0</asrwt>
<pdfrwt beam="1">  1       21 0.20822904E+00 0.10691168E+03</pdfrwt>
<pdfrwt beam="2">  1       21 0.80685652E-02 0.10691168E+03</pdfrwt>
<totfact> 0.15322794E+04</totfact>
</mgrwt>
</event>
<event>
 4    1  0.6158309E+003  0.1343612E+03  0.7546771E-02  0.1221124E+00
         21   -1    0    0  503  501  0.00000000000E+00  0.00000000000E+00  0.22469221302E+03  0.22469221302E+03  0.00000000000E+00 0. -1.
         21   -1    0    0  501  502 -0.00000000000E+00 -0.00000000000E+00 -0.80437785303E+02  0.80437785303E+02  0.00000000000E+00 0. -1.
         21    1    1    2  503  504 -0.13394883575E+03  0.10518206110E+02  0.66949013746E+02  0.15011693342E+03  0.00000000000E+00 0. -1.
         21    1    1    2  504  502  0.13394883575E+03 -0.10518206110E+02  0.77305413966E+02  0.15501306489E+03  0.00000000000E+00 0. -1.
<mgrwt>
<rscale>  2 0.13436117E+03</rscale>
<asrwt>0</asrwt>
<pdfrwt beam="1">  1       21 0.34568032E-01 0.13436117E+03</pdfrwt>
<pdfrwt beam="2">  1       21 0.12375044E-01 0.13436117E+03</pdfrwt>
<totfact> 0.45183547E+05</totfact>
</mgrwt>
</event>
<event>
 4    1  0.6158309E+003  0.1193857E+03  0.7546771E-02  0.1244114E+00
         21   -1    0    0  502  501  0.00000000000E+00  0.00000000000E+00  0.12797028939E+03  0.12797028939E+03  0.00000000000E+00 0.  1.
         21   -1    0    0  503  502 -0.00000000000E+00 -0.00000000000E+00 -0.18387254619E+03  0.18387254619E+03  0.00000000000E+00 0.  1.
         21    1    1    2  503  504 -0.21610958116E+02  0.11741343178E+03 -0.12585570201E+03  0.17347220296E+03  0.00000000000E+00 0.  1.
         21    1    1    2  504  501  0.21610958116E+02 -0.11741343178E+03  0.69953445204E+02  0.13837063261E+03  0.00000000000E+00 0.  1.
<mgrwt>
<rscale>  2 0.11938571E+03</rscale>
<asrwt>0</asrwt>
<pdfrwt beam="1">  1       21 0.19687737E-01 0.11938571E+03</pdfrwt>
<pdfrwt beam="2">  1       21 0.28288084E-01 0.11938571E+03</pdfrwt>
<totfact> 0.28834174E+05</totfact>
</mgrwt>
</event>
<event>
 4    1  0.6158309E+003  0.1014765E+03  0.7546771E-02  0.1277221E+00
         21   -1    0    0  503  501  0.00000000000E+00  0.00000000000E+00  0.34953921036E+02  0.34953921036E+02  0.00000000000E+00 0. -1.
         21   -1    0    0  504  502 -0.00000000000E+00 -0.00000000000E+00 -0.34870521722E+03  0.34870521722E+03  0.00000000000E+00 0. -1.
         21    1    1    2  503  502  0.39754970092E+02 -0.93365034316E+02 -0.23243683407E+03  0.25362249331E+03  0.00000000000E+00 0. -1.
         21    1    1    2  504  501 -0.39754970092E+02  0.93365034316E+02 -0.81314462111E+02  0.13003664494E+03  0.00000000000E+00 0. -1.
<mgrwt>
<rscale>  2 0.10147654E+03</rscale>
<asrwt>0</asrwt>
<pdfrwt beam="1">  1       21 0.53775262E-02 0.10147654E+03</pdfrwt>
<pdfrwt beam="2">  1       21 0.53646958E-01 0.10147654E+03</pdfrwt>
<totfact> 0.78464055E+05</totfact>
</mgrwt>
</event>
<event>
 4    1  0.6158309E+003  0.1140925E+03  0.7546771E-02  0.1253174E+00
         21   -1    0    0  504  501  0.00000000000E+00  0.00000000000E+00  0.25364922412E+03  0.25364922412E+03  0.00000000000E+00 0.  1.
         21   -1    0    0  501  502 -0.00000000000E+00 -0.00000000000E+00 -0.22004058507E+03  0.22004058507E+03  0.00000000000E+00 0.  1.
         21    1    1    2  503  502  0.11398093813E+03 -0.50443744381E+01 -0.19059035051E+03  0.22213010079E+03  0.00000000000E+00 0.  1.
         21    1    1    2  504  503 -0.11398093813E+03  0.50443744381E+01  0.22419898956E+03  0.25155970840E+03  0.00000000000E+00 0.  1.
<mgrwt>
<rscale>  2 0.11409251E+03</rscale>
<asrwt>0</asrwt>
<pdfrwt beam="1">  1       21 0.39022958E-01 0.11409251E+03</pdfrwt>
<pdfrwt beam="2">  1       21 0.33852398E-01 0.11409251E+03</pdfrwt>
<totfact> 0.55350971E+04</totfact>
</mgrwt>
</event>
<event>
 4    1  0.6158309E+003  0.2938321E+03  0.7546771E-02  0.1088365E+00
         21   -1    0    0  503  501  0.00000000000E+00  0.00000000000E+00  0.54609658889E+03  0.54609658889E+03  0.00000000000E+00 0.  1.
         21   -1    0    0  504  502 -0.00000000000E+00 -0.00000000000E+00 -0.38360346935E+03  0.38360346935E+03  0.00000000000E+00 0.  1.
         21    1    1    2  503  502  0.27618249244E+03  0.10030208908E+03  0.43765604870E+03  0.52714333456E+03  0.00000000000E+00 0.  1.
         21    1    1    2  504  501 -0.27618249244E+03 -0.10030208908E+03 -0.27516292916E+03  0.40255672369E+03  0.00000000000E+00 0.  1.
<mgrwt>
<rscale>  2 0.29383206E+03</rscale>
<asrwt>0</asrwt>
<pdfrwt beam="1">  1       21 0.84014860E-01 0.29383206E+03</pdfrwt>
<pdfrwt beam="2">  1       21 0.59015918E-01 0.29383206E+03</pdfrwt>
<totfact> 0.30799404E+03</totfact>
</mgrwt>
</event>
<event>
 4    1  0.6158309E+003  0.1535392E+03  0.7546771E-02  0.1196190E+00
         21   -1    0    0  503  501  0.00000000000E+00  0.00000000000E+00  0.50277792075E+02  0.50277792075E+02  0.00000000000E+00 0. -1.
         21   -1    0    0  504  502 -0.00000000000E+00 -0.00000000000E+00 -0.17522961775E+04  0.17522961775E+04  0.00000000000E+00 0. -1.
         21    1    1    2  503  502  0.15324601171E+03 -0.94834611709E+01 -0.79674237047E+02  0.17298051969E+03  0.00000000000E+00 0. -1.
         21    1    1    2  504  501 -0.15324601171E+03  0.94834611709E+01 -0.16223441484E+04  0.16295934499E+04  0.00000000000E+00 0. -1.
<mgrwt>
<rscale>  2 0.15353917E+03</rscale>
<asrwt>0</asrwt>
<pdfrwt beam="1">  1       21 0.77350464E-02 0.15353917E+03</pdfrwt>
<pdfrwt beam="2">  1       21 0.26958398E+00 0.15353917E+03</pdfrwt>
<totfact> 0.68024499E+03</totfact>
</mgrwt>
</event>
<event>
 4    1  0.6158309E+003  0.1185925E+03  0.7546771E-02  0.1245437E+00
         21   -1    0    0  503  501  0.00000000000E+00  0.00000000000E+00  0.43649539794E+03  0.43649539794E+03  0.00000000000E+00 0.  1.
         21   -1    0    0  504  502 -0.00000000000E+00 -0.00000000000E+00 -0.71543356671E+02  0.71543356671E+02  0.00000000000E+00 0. -1.
         21    1    1    2  503  502  0.61469242381E+02 -0.10141848579E+03  0.37079918641E+03  0.38930221379E+03  0.00000000000E+00 0.  1.
         21    1    1    2  504  501 -0.61469242381E+02  0.10141848579E+03 -0.58471451432E+01  0.11873654082E+03  0.00000000000E+00 0. -1.
<mgrwt>
<rscale>  2 0.11859248E+03</rscale>
<asrwt>0</asrwt>
<pdfrwt beam="1">  1       21 0.67153136E-01 0.11859248E+03</pdfrwt>
<pdfrwt beam="2">  1       21 0.11006671E-01 0.11859248E+03</pdfrwt>
<totfact> 0.14255801E+05</totfact>
</mgrwt>
</event>
<event>
 4    1  0.6158309E+003  0.1053563E+03  0.7546771E-02  0.1269419E+00
         21   -1    0    0  502  501  0.00000000000E+00  0.00000000000E+00  0.12207418520E+02  0.12207418520E+02  0.00000000000E+00 0.  1.
         21   -1    0    0  503  502 -0.00000000000E+00 -0.00000000000E+00 -0.13623638962E+04  0.13623638962E+04  0.00000000000E+00 0.  1.
         21    1    1    2  503  504  0.75951592850E+02  0.73015718958E+02 -0.10714300879E+04  0.10765975910E+04  0.00000000000E+00 0.  1.
         21    1    1    2  504  501 -0.75951592850E+02 -0.73015718958E+02 -0.27872638975E+03  0.29797372370E+03  0.00000000000E+00 0.  1.
<mgrwt>
<rscale>  2 0.10535625E+03</rscale>
<asrwt>0</asrwt>
<pdfrwt beam="1">  1       21 0.18780659E-02 0.10535625E+03</pdfrwt>
<pdfrwt beam="2">  1       21 0.20959428E+00 0.10535625E+03</pdfrwt>
<totfact> 0.16780845E+05</totfact>
</mgrwt>
</event>
<event>
 4    1  0.6158309E+003  0.1104465E+03  0.7546771E-02  0.1259745E+00
         21   -1    0    0  503  501  0.00000000000E+00  0.00000000000E+00  0.24599292727E+03  0.24599292727E+03  0.00000000000E+00 0.  1.
         21   -1    0    0  501  502 -0.00000000000E+00 -0.00000000000E+00 -0.57701449031E+02  0.57701449031E+02  0.00000000000E+00 0.  1.
         21    1    1    2  503  504 -0.10724427262E+03 -0.26402542159E+02  0.15108369889E+03  0.18714890412E+03  0.00000000000E+00 0.  1.
         21    1    1    2  504  502  0.10724427262E+03  0.26402542159E+02  0.37207779345E+02  0.11654547218E+03  0.00000000000E+00 0.  1.
<mgrwt>
<rscale>  2 0.11044649E+03</rscale>
<asrwt>0</asrwt>
<pdfrwt beam="1">  1       21 0.37845065E-01 0.11044649E+03</pdfrwt>
<pdfrwt beam="2">  1       21 0.88771461E-02 0.11044649E+03</pdfrwt>
<totfact> 0.67749788E+05</totfact>
</mgrwt>
</event>
<event>
 4    1  0.6158309E+003  0.1046554E+03  0.7546771E-02  0.1270800E+00
         21   -1    0    0  504  501  0.00000000000E+00  0.00000000000E+00  0.13070172959E+03  0.13070172959E+03  0.00000000000E+00 0. -1.
         21   -1    0    0  503  502 -0.00000000000E+00 -0.00000000000E+00 -0.32624670251E+03  0.32624670251E+03  0.00000000000E+00 0.  1.
         21    1    1    2  503  501 -0.62014360367E+01 -0.10447147567E+03 -0.29473005222E+03  0.31275957334E+03  0.00000000000E+00 0.  1.
         21    1    1    2  504  502  0.62014360367E+01  0.10447147567E+03  0.99185079290E+02  0.14418885876E+03  0.00000000000E+00 0. -1.
<mgrwt>
<rscale>  2 0.10465537E+03</rscale>
<asrwt>0</asrwt>
<pdfrwt beam="1">  1       21 0.20107959E-01 0.10465537E+03</pdfrwt>
<pdfrwt beam="2">  1       21 0.50191800E-01 0.10465537E+03</pdfrwt>
<totfact> 0.89679170E+04</totfact>
</mgrwt>
</event>
<event>
 4    1  0.6158309E+003  0.1310109E+03  0.7546771E-02  0.1225963E+00
         21   -1    0    0  504  501  0.00000000000E+00  0.00000000000E+00  0.24436139700E+03  0.24436139700E+03  0.00000000000E+00 0. -1.
         21   -1    0    0  503  502 -0.00000000000E+00 -0.00000000000E+00 -0.70381201821E+02  0.70381201821E+02  0.00000000000E+00 0. -1.
         21    1    1    2  503  501  0.66046334125E+02 -0.11314474864E+03  0.94048336825E+02  0.16127288072E+03  0.00000000000E+00 0. -1.
         21    1    1    2  504  502 -0.66046334125E+02  0.11314474864E+03  0.79931858356E+02  0.15346971811E+03  0.00000000000E+00 0. -1.
<mgrwt>
<rscale>  2 0.13101089E+03</rscale>
<asrwt>0</asrwt>
<pdfrwt beam="1">  1       21 0.37594061E-01 0.13101089E+03</pdfrwt>
<pdfrwt beam="2">  1       21 0.10827877E-01 0.13101089E+03</pdfrwt>
<totfact> 0.48503915E+05</totfact>
</mgrwt>
</event>
<event>
 4    1  0.6158309E+003  0.1145253E+03  0.7546771E-02  0.1252412E+00
         21   -1    0    0  502  501  0.00000000000E+00  0.00000000000E+00  0.12016490749E+04  0.12016490749E+04  0.00000000000E+00 0. -1.
         21   -1    0    0  504  502 -0.00000000000E+00 -0.00000000000E+00 -0.17779126550E+02  0.17779126550E+02  0.00000000000E+00 0.  1.
         21    1    1    2  503  501 -0.75160532705E+02  0.86411384910E+02  0.97078104576E+03  0.97751310576E+03  0.00000000000E+00 0. -1.
         21    1    1    2  504  503  0.75160532705E+02 -0.86411384910E+02  0.21308890260E+03  0.24191509571E+03  0.00000000000E+00 0.  1.
<mgrwt>
<rscale>  2 0.11452525E+03</rscale>
<asrwt>0</asrwt>
<pdfrwt beam="1">  1       21 0.18486902E+00 0.11452525E+03</pdfrwt>
<pdfrwt beam="2">  1       21 0.27352512E-02 0.11452525E+03</pdfrwt>
<totfact> 0.12989377E+05</totfact>
</mgrwt>
</event>
<event>
 4    1  0.6158309E+003  0.1016789E+03  0.7546771E-02  0.1276805E+00
         21   -1    0    0  504  501  0.00000000000E+00  0.00000000000E+00  0.46010368375E+03  0.46010368375E+03  0.00000000000E+00 0.  1.
         21   -1    0    0  503  502 -0.00000000000E+00 -0.00000000000E+00 -0.33219790752E+02  0.33219790752E+02  0.00000000000E+00 0. -1.
         21    1    1    2  503  501  0.17974232382E+02  0.10007756731E+03  0.73128080492E+02  0.12524499457E+03  0.00000000000E+00 0. -1.
         21    1    1    2  504  502 -0.17974232382E+02 -0.10007756731E+03  0.35375581251E+03  0.36807847993E+03  0.00000000000E+00 0.  1.
<mgrwt>
<rscale>  2 0.10167887E+03</rscale>
<asrwt>0</asrwt>
<pdfrwt beam="1">  1       21 0.70785177E-01 0.10167887E+03</pdfrwt>
<pdfrwt beam="2">  1       21 0.51107374E-02 0.10167887E+03</pdfrwt>
<totfact> 0.47484562E+05</totfact>
</mgrwt>
</event>
<event>
 4    1  0.6158309E+003  0.1582549E+03  0.7546771E-02  0.1190681E+00
         21   -1    0    0  504  501  0.00000000000E+00  0.00000000000E+00  0.11743555322E+03  0.11743555322E+03  0.00000000000E+00 0.  1.
         21   -1    0    0  503  502 -0.00000000000E+00 -0.00000000000E+00 -0.25156939822E+03  0.25156939822E+03  0.00000000000E+00 0.  1.
         21    1    1    2  503  501  0.14934282084E+03  0.52357629141E+02  0.49296457975E+01  0.15833161678E+03  0.00000000000E+00 0.  1.
         21    1    1    2  504  502 -0.14934282084E+03 -0.52357629141E+02 -0.13906349080E+03  0.21067333466E+03  0.00000000000E+00 0.  1.
<mgrwt>
<rscale>  2 0.15825486E+03</rscale>
<asrwt>0</asrwt>
<pdfrwt beam="1">  1       21 0.18067008E-01 0.15825486E+03</pdfrwt>
<pdfrwt beam="2">  1       21 0.38702984E-01 0.15825486E+03</pdfrwt>
<totfact> 0.18140330E+05</totfact>
</mgrwt>
</event>
<event>
 4    1  0.6158309E+003  0.1061723E+03  0.7546771E-02  0.1267827E+00
         21   -1    0    0  502  501  0.00000000000E+00  0.00000000000E+00  0.56631895377E+02  0.56631895377E+02  0.00000000000E+00 0.  1.
         21   -1    0    0  503  502 -0.00000000000E+00 -0.00000000000E+00 -0.28179809908E+03  0.28179809908E+03  0.00000000000E+00 0.  1.
         21    1    1    2  503  504  0.10188318620E+03 -0.29872614833E+02 -0.20427898869E+03  0.23022263566E+03  0.00000000000E+00 0.  1.
         21    1    1    2  504  501 -0.10188318620E+03  0.29872614833E+02 -0.20887215008E+02  0.10820735880E+03  0.00000000000E+00 0.  1.
<mgrwt>
<rscale>  2 0.10617230E+03</rscale>
<asrwt>0</asrwt>
<pdfrwt beam="1">  1       21 0.87125994E-02 0.10617230E+03</pdfrwt>
<pdfrwt beam="2">  1       21 0.43353553E-01 0.10617230E+03</pdfrwt>
<totfact> 0.53374245E+05</totfact>
</mgrwt>
</event>
<event>
 4    1  0.6158309E+003  0.1462049E+03  0.7546771E-02  0.1205215E+00
         21   -1    0    0  504  501  0.00000000000E+00  0.00000000000E+00  0.87202833852E+02  0.87202833852E+02  0.00000000000E+00 0.  1.
         21   -1    0    0  503  502 -0.00000000000E+00 -0.00000000000E+00 -0.29265922028E+03  0.29265922028E+03  0.00000000000E+00 0.  1.
         21    1    1    2  503  501  0.14460443798E+03 -0.21573824688E+02 -0.26185560586E+02  0.14853133332E+03  0.00000000000E+00 0.  1.
         21    1    1    2  504  502 -0.14460443798E+03  0.21573824688E+02 -0.17927082584E+03  0.23133072081E+03  0.00000000000E+00 0.  1.
<mgrwt>
<rscale>  2 0.14620490E+03</rscale>
<asrwt>0</asrwt>
<pdfrwt beam="1">  1       21 0.13415821E-01 0.14620490E+03</pdfrwt>
<pdfrwt beam="2">  1       21 0.45024495E-01 0.14620490E+03</pdfrwt>
<totfact> 0.23010561E+05</totfact>
</mgrwt>
</event>
<event>
 4    1  0.6158309E+003  0.1036964E+03  0.7546771E-02  0.1272710E+00
         21   -1    0    0  504  501  0.00000000000E+00  0.00000000000E+00  0.50624512195E+02  0.50624512195E+02  0.00000000000E+00 0.  1.
         21   -1    0    0  503  502 -0.00000000000E+00 -0.00000000000E+00 -0.60424796071E+03  0.60424796071E+03  0.00000000000E+00 0.  1.
         21    1    1    2  503  501 -0.51111484545E+02 -0.90225048826E+02 -0.13133242953E+02  0.10452475955E+03  0.00000000000E+00 0.  1.
         21    1    1    2  504  502  0.51111484545E+02  0.90225048826E+02 -0.54049020556E+03  0.55034771336E+03  0.00000000000E+00 0.  1.
<mgrwt>
<rscale>  2 0.10369640E+03</rscale>
<asrwt>0</asrwt>
<pdfrwt beam="1">  1       21 0.77883859E-02 0.10369640E+03</pdfrwt>
<pdfrwt beam="2">  1       21 0.92961232E-01 0.10369640E+03</pdfrwt>
<totfact> 0.12692576E+05</totfact>
</mgrwt>
</event>
<event>
 4    1  0.6158309E+003  0.1393904E+03  0.7546771E-02  0.1214152E+00
         21   -1    0    0  503  501  0.00000000000E+00  0.00000000000E+00  0.67509085107E+03  0.67509085107E+03  0.00000000000E+00 0.  1.
         21   -1    0    0  504  502 -0.00000000000E+00 -0.00000000000E+00 -0.35625348706E+02  0.35625348706E+02  0.00000000000E+00 0.  1.
         21    1    1    2  503  502 -0.30380661422E+02  0.13603937534E+03  0.16397232832E+03  0.21521296589E+03  0.00000000000E+00 0.  1.
         21    1    1    2  504  501  0.30380661422E+02 -0.13603937534E+03  0.47549317404E+03  0.49550323388E+03  0.00000000000E+00 0.  1.
<mgrwt>
<rscale>  2 0.13939045E+03</rscale>
<asrwt>0</asrwt>
<pdfrwt beam="1">  1       21 0.10386012E+00 0.13939045E+03</pdfrwt>
<pdfrwt beam="2">  1       21 0.54808234E-02 0.13939045E+03</pdfrwt>
<totfact> 0.17579256E+05</totfact>
</mgrwt>
</event>
<event>
 4    1  0.6158309E+003  0.1092407E+03  0.7546771E-02  0.1261983E+00
         21   -1    0    0  504  501  0.00000000000E+00  0.00000000000E+00  0.22124505961E+03  0.22124505961E+03  0.00000000000E+00 0.  1.
         21   -1    0    0  501  502 -0.00000000000E+00 -0.00000000000E+00 -0.79326206275E+02  0.79326206275E+02  0.00000000000E+00 0. -1.
         21    1    1    2  503  502 -0.85773354329E+02  0.67649477389E+02 -0.14061331553E+02  0.11014191368E+03  0.00000000000E+00 0. -1.
         21    1    1    2  504  503  0.85773354329E+02 -0.67649477389E+02  0.15598018489E+03  0.19042935221E+03  0.00000000000E+00 0.  1.
<mgrwt>
<rscale>  2 0.10924065E+03</rscale>
<asrwt>0</asrwt>
<pdfrwt beam="1">  1       21 0.34037701E-01 0.10924065E+03</pdfrwt>
<pdfrwt beam="2">  1       21 0.12204032E-01 0.10924065E+03</pdfrwt>
<totfact> 0.47838797E+05</totfact>
</mgrwt>
</event>
<event>
 4    1  0.6158309E+003  0.1014148E+03  0.7546771E-02  0.1277349E+00
         21   -1    0    0  503  501  0.00000000000E+00  0.00000000000E+00  0.26033641111E+03  0.26033641111E+03  0.00000000000E+00 0. -1.
         21   -1    0    0  504  502 -0.00000000000E+00 -0.00000000000E+00 -0.33036134557E+03  0.33036134557E+03  0.00000000000E+00 0. -1.
         21    1    1    2  503  502  0.84498126100E+02 -0.56080569990E+02  0.24211457880E+03  0.26249653886E+03  0.00000000000E+00 0. -1.
         21    1    1    2  504  501 -0.84498126100E+02  0.56080569990E+02 -0.31213951326E+03  0.32820121782E+03  0.00000000000E+00 0. -1.
<mgrwt>
<rscale>  2 0.10141481E+03</rscale>
<asrwt>0</asrwt>
<pdfrwt beam="1">  1       21 0.40051756E-01 0.10141481E+03</pdfrwt>
<pdfrwt beam="2">  1       21 0.50824822E-01 0.10141481E+03</pdfrwt>
<totfact> 0.23538927E+04</totfact>
</mgrwt>
</event>
<event>
 4    1  0.6158309E+003  0.1320063E+03  0.7546771E-02  0.1224509E+00
         21   -1    0    0  503  501  0.00000000000E+00  0.00000000000E+00  0.48086909059E+02  0.48086909059E+02  0.00000000000E+00 0.  1.
         21   -1    0    0  504  502 -0.00000000000E+00 -0.00000000000E+00 -0.36247711872E+03  0.36247711872E+03  0.00000000000E+00 0.  1.
         21    1    1    2  503  502 -0.47873215651E+02  0.12301955181E+03 -0.16058365389E+03  0.20787680198E+03  0.00000000000E+00 0.  1.
         21    1    1    2  504  501  0.47873215651E+02 -0.12301955181E+03 -0.15380655577E+03  0.20268722580E+03  0.00000000000E+00 0.  1.
<mgrwt>
<rscale>  2 0.13200627E+03</rscale>
<asrwt>0</asrwt>
<pdfrwt beam="1">  1       21 0.73979858E-02 0.13200627E+03</pdfrwt>
<pdfrwt beam="2">  1       21 0.55765712E-01 0.13200627E+03</pdfrwt>
<totfact> 0.42073883E+05</totfact>
</mgrwt>
</event>
<event>
 4    1  0.6158309E+003  0.1059329E+03  0.7546771E-02  0.1268292E+00
         21   -1    0    0  503  501  0.00000000000E+00  0.00000000000E+00  0.49948209023E+03  0.49948209023E+03  0.00000000000E+00 0.  1.
         21   -1    0    0  504  502 -0.00000000000E+00 -0.00000000000E+00 -0.23631990449E+02  0.23631990449E+02  0.00000000000E+00 0.  1.
         21    1    1    2  503  502 -0.10493887224E+03 -0.14478029092E+02  0.29600266151E+03  0.31438727050E+03  0.00000000000E+00 0.  1.
         21    1    1    2  504  501  0.10493887224E+03  0.14478029092E+02  0.17984743827E+03  0.20872681018E+03  0.00000000000E+00 0.  1.
<mgrwt>
<rscale>  2 0.10593290E+03</rscale>
<asrwt>0</asrwt>
<pdfrwt beam="1">  1       21 0.76843391E-01 0.10593290E+03</pdfrwt>
<pdfrwt beam="2">  1       21 0.36356912E-02 0.10593290E+03</pdfrwt>
<totfact> 0.69781776E+05</totfact>
</mgrwt>
</event>
<event>
 4    1  0.6158309E+003  0.1006015E+03  0.7546771E-02  0.1279036E+00
         21   -1    0    0  504  501  0.00000000000E+00  0.00000000000E+00  0.42508916036E+02  0.42508916036E+02  0.00000000000E+00 0. -1.
         21   -1    0    0  503  502 -0.00000000000E+00 -0.00000000000E+00 -0.25313924164E+03  0.25313924164E+03  0.00000000000E+00 0. -1.
         21    1    1    2  503  501 -0.46629866197E+02  0.89142118924E+02 -0.69263954949E+02  0.12213990848E+03  0.00000000000E+00 0. -1.
         21    1    1    2  504  502  0.46629866197E+02 -0.89142118924E+02 -0.14136637066E+03  0.17350824920E+03  0.00000000000E+00 0. -1.
<mgrwt>
<rscale>  2 0.10060150E+03</rscale>
<asrwt>0</asrwt>
<pdfrwt beam="1">  1       21 0.65398334E-02 0.10060150E+03</pdfrwt>
<pdfrwt beam="2">  1       21 0.38944498E-01 0.10060150E+03</pdfrwt>
<totfact> 0.10787188E+06</totfact>
</mgrwt>
</event>
<event>
 4    1  0.6158309E+003  0.1117078E+03  0.7546771E-02  0.1257440E+00
         21   -1    0    0  503  501  0.00000000000E+00  0.00000000000E+00  0.89098056556E+02  0.89098056556E+02  0.00000000000E+00 0. -1.
         21   -1    0    0  504  502 -0.00000000000E+00 -0.00000000000E+00 -0.25249435760E+03  0.25249435760E+03  0.00000000000E+00 0. -1.
         21    1    1    2  503  502 -0.94156059096E+01  0.11131024161E+03  0.32277391140E+02  0.11627748493E+03  0.00000000000E+00 0. -1.
         21    1    1    2  504  501  0.94156059096E+01 -0.11131024161E+03 -0.19567369218E+03  0.22531492923E+03  0.00000000000E+00 0. -1.
<mgrwt>
<rscale>  2 0.11170776E+03</rscale>
<asrwt>0</asrwt>
<pdfrwt beam="1">  1       21 0.13707393E-01 0.11170776E+03</pdfrwt>
<pdfrwt beam="2">  1       21 0.38845286E-01 0.11170776E+03</pdfrwt>
<totfact> 0.30015047E+05</totfact>
</mgrwt>
</event>
<event>
 4    1  0.6158309E+003  0.1136145E+03  0.7546771E-02  0.1254019E+00
         21   -1    0    0  503  501  0.00000000000E+00  0.00000000000E+00  0.73198266533E+03  0.73198266533E+03  0.00000000000E+00 0. -1.
         21   -1    0    0  504  502 -0.00000000000E+00 -0.00000000000E+00 -0.19327847070E+02  0.19327847070E+02  0.00000000000E+00 0. -1.
         21    1    1    2  503  502 -0.10690342774E+03 -0.38469746244E+02  0.46751348678E+03  0.48112069646E+03  0.00000000000E+00 0. -1.
         21    1    1    2  504  501  0.10690342774E+03  0.38469746244E+02  0.24514133147E+03  0.27018981594E+03  0.00000000000E+00 0. -1.
<mgrwt>
<rscale>  2 0.11361454E+03</rscale>
<asrwt>0</asrwt>
<pdfrwt beam="1">  1       21 0.11261270E+00 0.11361454E+03</pdfrwt>
<pdfrwt beam="2">  1       21 0.29735155E-02 0.11361454E+03</pdfrwt>
<totfact> 0.40346205E+05</totfact>
</mgrwt>
</event>
<event>
 4    1  0.6158309E+003  0.1126287E+03  0.7546771E-02  0.1255778E+00
         21   -1    0    0  502  501  0.00000000000E+00  0.00000000000E+00  0.19945479692E+03  0.19945479692E+03  0.00000000000E+00 0.  1.
         21   -1    0    0  504  502 -0.00000000000E+00 -0.00000000000E+00 -0.67196981773E+02  0.67196981773E+02  0.00000000000E+00 0.  1.
         21    1    1    2  503  501  0.10194730353E+03  0.47874526716E+02  0.96977803016E+02  0.14862677176E+03  0.00000000000E+00 0.  1.
         21    1    1    2  504  503 -0.10194730353E+03 -0.47874526716E+02  0.35280012133E+02  0.11802500694E+03  0.00000000000E+00 0.  1.
<mgrwt>
<rscale>  2 0.11262870E+03</rscale>
<asrwt>0</asrwt>
<pdfrwt beam="1">  1       21 0.30685353E-01 0.11262870E+03</pdfrwt>
<pdfrwt beam="2">  1       21 0.10337997E-01 0.11262870E+03</pdfrwt>
<totfact> 0.78266748E+05</totfact>
</mgrwt>
</event>
<event>
 4    1  0.6158309E+003  0.1323950E+03  0.7546771E-02  0.1223945E+00
         21   -1    0    0  503  501  0.00000000000E+00  0.00000000000E+00  0.23202821692E+02  0.23202821692E+02  0.00000000000E+00 0.  1.
         21   -1    0    0  504  502 -0.00000000000E+00 -0.00000000000E+00 -0.16914626177E+04  0.16914626177E+04  0.00000000000E+00 0.  1.
         21    1    1    2  503  502 -0.51069428970E+02  0.12214888386E+03 -0.19636531122E+03  0.23682857060E+03  0.00000000000E+00 0.  1.
         21    1    1    2  504  501  0.51069428970E+02 -0.12214888386E+03 -0.14718944848E+04  0.14778368688E+04  0.00000000000E+00 0.  1.
<mgrwt>
<rscale>  2 0.13239500E+03</rscale>
<asrwt>0</asrwt>
<pdfrwt beam="1">  1       21 0.35696643E-02 0.13239500E+03</pdfrwt>
<pdfrwt beam="2">  1       21 0.26022506E+00 0.13239500E+03</pdfrwt>
<totfact> 0.29106277E+04</totfact>
</mgrwt>
</event>
<event>
 4    1  0.6158309E+003  0.1271109E+03  0.7546771E-02  0.1231807E+00
         21   -1    0    0  503  501  0.00000000000E+00  0.00000000000E+00  0.78005687787E+01  0.78005687787E+01  0.00000000000E+00 0.  1.
         21   -1    0    0  504  502 -0.00000000000E+00 -0.00000000000E+00 -0.20715858481E+04  0.20715858481E+04  0.00000000000E+00 0.  1.
         21    1    1    2  503  502 -0.12285282212E+03 -0.32624474877E+02 -0.10192865761E+04  0.10271817251E+04  0.00000000000E+00 0.  1.
         21    1    1    2  504  501  0.12285282212E+03  0.32624474877E+02 -0.10444987033E+04  0.10522046918E+04  0.00000000000E+00 0.  1.
<mgrwt>
<rscale>  2 0.12711087E+03</rscale>
<asrwt>0</asrwt>
<pdfrwt beam="1">  1       21 0.12000852E-02 0.12711087E+03</pdfrwt>
<pdfrwt beam="2">  1       21 0.31870612E+00 0.12711087E+03</pdfrwt>
<totfact> 0.79931005E+04</totfact>
</mgrwt>
</event>
<event>
 4    1  0.6158309E+003  0.1173872E+03  0.7546771E-02  0.1247471E+00
         21   -1    0    0  503  501  0.00000000000E+00  0.00000000000E+00  0.10501881802E+02  0.10501881802E+02  0.00000000000E+00 0. -1.
         21   -1    0    0  504  502 -0.00000000000E+00 -0.00000000000E+00 -0.22174362941E+04  0.22174362941E+04  0.00000000000E+00 0. -1.
         21    1    1    2  503  502  0.57821132791E+02 -0.10215909365E+03 -0.39168530537E+03  0.40889747157E+03  0.00000000000E+00 0. -1.
         21    1    1    2  504  501 -0.57821132791E+02  0.10215909365E+03 -0.18152491069E+04  0.18190407043E+04  0.00000000000E+00 0. -1.
<mgrwt>
<rscale>  2 0.11738724E+03</rscale>
<asrwt>0</asrwt>
<pdfrwt beam="1">  1       21 0.16156730E-02 0.11738724E+03</pdfrwt>
<pdfrwt beam="2">  1       21 0.34114428E+00 0.11738724E+03</pdfrwt>
<totfact> 0.37687744E+04</totfact>
</mgrwt>
</event>
<event>
 4    1  0.6158309E+003  0.1984599E+03  0.7546771E-02  0.1151045E+00
         21   -1    0    0  502  501  0.00000000000E+00  0.00000000000E+00  0.66623134262E+03  0.66623134262E+03  0.00000000000E+00 0.  1.
         21   -1    0    0  504  502 -0.00000000000E+00 -0.00000000000E+00 -0.77210166747E+02  0.77210166747E+02  0.00000000000E+00 0.  1.
         21    1    1    2  503  501  0.85682852292E+01  0.19827486736E+03  0.47444885033E+03  0.51428401698E+03  0.00000000000E+00 0.  1.
         21    1    1    2  504  503 -0.85682852292E+01 -0.19827486736E+03  0.11457232554E+03  0.22915749239E+03  0.00000000000E+00 0.  1.
<mgrwt>
<rscale>  2 0.19845992E+03</rscale>
<asrwt>0</asrwt>
<pdfrwt beam="1">  1       21 0.10249713E+00 0.19845992E+03</pdfrwt>
<pdfrwt beam="2">  1       21 0.11878488E-01 0.19845992E+03</pdfrwt>
<totfact> 0.46118430E+04</totfact>
</mgrwt>
</event>
<event>
 4    1  0.6158309E+003  0.1094512E+03  0.7546771E-02  0.1261589E+00
         21   -1    0    0  504  501  0.00000000000E+00  0.00000000000E+00  0.25319426970E+03  0.25319426970E+03  0.00000000000E+00 0. -1.
         21   -1    0    0  501  502 -0.00000000000E+00 -0.00000000000E+00 -0.13339184305E+03  0.13339184305E+03  0.00000000000E+00 0. -1.
         21    1    1    2  503  502  0.81307768299E+02 -0.73270871742E+02 -0.95372486304E+02  0.14517398174E+03  0.00000000000E+00 0. -1.
         21    1    1    2  504  503 -0.81307768299E+02  0.73270871742E+02  0.21517491295E+03  0.24141213100E+03  0.00000000000E+00 0. -1.
<mgrwt>
<rscale>  2 0.10945124E+03</rscale>
<asrwt>0</asrwt>
<pdfrwt beam="1">  1       21 0.38952965E-01 0.10945124E+03</pdfrwt>
<pdfrwt beam="2">  1       21 0.20521822E-01 0.10945124E+03</pdfrwt>
<totfact> 0.14372501E+05</totfact>
</mgrwt>
</event>
<event>
 4    1  0.6158309E+003  0.1126068E+03  0.7546771E-02  0.1255817E+00
         21   -1    0    0  502  501  0.00000000000E+00  0.00000000000E+00  0.16755340436E+03  0.16755340436E+03  0.00000000000E+00 0.  1.
         21   -1    0    0  503  502 -0.00000000000E+00 -0.00000000000E+00 -0.72071916467E+03  0.72071916467E+03  0.00000000000E+00 0. -1.
         21    1    1    2  503  504  0.90944509206E+02  0.66403167922E+02 -0.69675436727E+03  0.70579524848E+03  0.00000000000E+00 0. -1.
         21    1    1    2  504  501 -0.90944509206E+02 -0.66403167922E+02  0.14358860696E+03  0.18247732055E+03  0.00000000000E+00 0.  1.
<mgrwt>
<rscale>  2 0.11260677E+03</rscale>
<asrwt>0</asrwt>
<pdfrwt beam="1">  1       21 0.25777447E-01 0.11260677E+03</pdfrwt>
<pdfrwt beam="2">  1       21 0.11087987E+00 0.11260677E+03</pdfrwt>
<totfact> 0.97931728E+03</totfact>
</mgrwt>
</event>
<event>
 4    1  0.6158309E+003  0.1103204E+03  0.7546771E-02  0.1259978E+00
         21   -1    0    0  504  501  0.00000000000E+00  0.00000000000E+00  0.59707330649E+02  0.59707330649E+02  0.00000000000E+00 0.  1.
         21   -1    0    0  503  502 -0.00000000000E+00 -0.00000000000E+00 -0.21223578077E+03  0.21223578077E+03  0.00000000000E+00 0.  1.
         21    1    1    2  503  501  0.66607416047E+02 -0.87943420848E+02 -0.49216303230E+02  0.12080081807E+03  0.00000000000E+00 0.  1.
         21    1    1    2  504  502 -0.66607416047E+02  0.87943420848E+02 -0.10331214689E+03  0.15114229334E+03  0.00000000000E+00 0.  1.
<mgrwt>
<rscale>  2 0.11032041E+03</rscale>
<asrwt>0</asrwt>
<pdfrwt beam="1">  1       21 0.91857431E-02 0.11032041E+03</pdfrwt>
<pdfrwt beam="2">  1       21 0.32651659E-01 0.11032041E+03</pdfrwt>
<totfact> 0.85247721E+05</totfact>
</mgrwt>
</event>
<event>
 4    1  0.6158309E+003  0.1881882E+03  0.7546771E-02  0.1160106E+00
         21   -1    0    0  504  501  0.00000000000E+00  0.00000000000E+00  0.35169731138E+02  0.35169731138E+02  0.00000000000E+00 0.  1.
         21   -1    0    0  503  502 -0.00000000000E+00 -0.00000000000E+00 -0.17975689302E+04  0.17975689302E+04  0.00000000000E+00 0.  1.
         21    1    1    2  503  501  0.18818232368E+03 -0.14820813405E+01 -0.14889237710E+04  0.15007693958E+04  0.00000000000E+00 0.  1.
         21    1    1    2  504  502 -0.18818232368E+03  0.14820813405E+01 -0.27347542804E+03  0.33196926552E+03  0.00000000000E+00 0.  1.
<mgrwt>
<rscale>  2 0.18818816E+03</rscale>
<asrwt>0</asrwt>
<pdfrwt beam="1">  1       21 0.54107259E-02 0.18818816E+03</pdfrwt>
<pdfrwt beam="2">  1       21 0.27654916E+00 0.18818816E+03</pdfrwt>
<totfact> 0.11009074E+04</totfact>
</mgrwt>
</event>
<event>
 4    1  0.6158309E+003  0.1220831E+03  0.7546771E-02  0.1239700E+00
         21   -1    0    0  504  501  0.00000000000E+00  0.00000000000E+00  0.41465343719E+02  0.41465343719E+02  0.00000000000E+00 0. -1.
         21   -1    0    0  503  502 -0.00000000000E+00 -0.00000000000E+00 -0.35944367462E+03  0.35944367462E+03  0.00000000000E+00 0. -1.
         21    1    1    2  503  501  0.10858093449E+03  0.55807361389E+02 -0.15967524665E+03  0.20099866993E+03  0.00000000000E+00 0. -1.
         21    1    1    2  504  502 -0.10858093449E+03 -0.55807361389E+02 -0.15830308425E+03  0.19991034841E+03  0.00000000000E+00 0. -1.
<mgrwt>
<rscale>  2 0.12208309E+03</rscale>
<asrwt>0</asrwt>
<pdfrwt beam="1">  1       21 0.63792835E-02 0.12208309E+03</pdfrwt>
<pdfrwt beam="2">  1       21 0.55299028E-01 0.12208309E+03</pdfrwt>
<totfact> 0.55204071E+05</totfact>
</mgrwt>
</event>
<event>
 4    1  0.6158309E+003  0.1198724E+03  0.7546771E-02  0.1243308E+00
         21   -1    0    0  504  501  0.00000000000E+00  0.00000000000E+00  0.23236917577E+03  0.23236917577E+03  0.00000000000E+00 0. -1.
         21   -1    0    0  503  502 -0.00000000000E+00 -0.00000000000E+00 -0.76107512591E+02  0.76107512591E+02  0.00000000000E+00 0. -1.
         21    1    1    2  503  501  0.68412771083E+02  0.98433094806E+02  0.11346553967E+02  0.12040816288E+03  0.00000000000E+00 0. -1.
         21    1    1    2  504  502 -0.68412771083E+02 -0.98433094806E+02  0.14491510922E+03  0.18806852549E+03  0.00000000000E+00 0. -1.
<mgrwt>
<rscale>  2 0.11987235E+03</rscale>
<asrwt>0</asrwt>
<pdfrwt beam="1">  1       21 0.35749104E-01 0.11987235E+03</pdfrwt>
<pdfrwt beam="2">  1       21 0.11708848E-01 0.11987235E+03</pdfrwt>
<totfact> 0.46714051E+05</totfact>
</mgrwt>
</event>
<event>
 4    1  0.6158309E+003  0.1267876E+03  0.7546771E-02  0.1232302E+00
         21   -1    0    0  502  501  0.00000000000E+00  0.00000000000E+00  0.41879373130E+03  0.41879373130E+03  0.00000000000E+00 0.  1.
         21   -1    0    0  504  502 -0.00000000000E+00 -0.00000000000E+00 -0.50013353746E+02  0.50013353746E+02  0.00000000000E+00 0.  1.
         21    1    1    2  503  501 -0.12678220179E+03  0.11645938302E+01  0.29742034249E+03  0.32331709372E+03  0.00000000000E+00 0.  1.
         21    1    1    2  504  503  0.12678220179E+03 -0.11645938302E+01  0.71360035063E+02  0.14548999132E+03  0.00000000000E+00 0.  1.
<mgrwt>
<rscale>  2 0.12678755E+03</rscale>
<asrwt>0</asrwt>
<pdfrwt beam="1">  1       21 0.64429803E-01 0.12678755E+03</pdfrwt>
<pdfrwt beam="2">  1       21 0.76943624E-02 0.12678755E+03</pdfrwt>
<totfact> 0.28964692E+05</totfact>
</mgrwt>
</event>
<event>
 4    1  0.6158309E+003  0.1281374E+03  0.7546771E-02  0.1230246E+00
         21   -1    0    0  503  501  0.00000000000E+00  0.00000000000E+00  0.77349040122E+02  0.77349040122E+02  0.00000000000E+00 0.  1.
         21   -1    0    0  504  502 -0.00000000000E+00 -0.00000000000E+00 -0.22443091994E+03  0.22443091994E+03  0.00000000000E+00 0.  1.
         21    1    1    2  503  502 -0.61368723968E+01 -0.12799032179E+03 -0.38422733383E+02  0.13377402631E+03  0.00000000000E+00 0.  1.
         21    1    1    2  504  501  0.61368723968E+01  0.12799032179E+03 -0.10865914644E+03  0.16800593376E+03  0.00000000000E+00 0.  1.
<mgrwt>
<rscale>  2 0.12813736E+03</rscale>
<asrwt>0</asrwt>
<pdfrwt beam="1">  1       21 0.11899852E-01 0.12813736E+03</pdfrwt>
<pdfrwt beam="2">  1       21 0.34527834E-01 0.12813736E+03</pdfrwt>
<totfact> 0.48570405E+05</totfact>
</mgrwt>
</event>
<event>
 4    1  0.6158309E+003  0.1035860E+03  0.7546771E-02  0.1272931E+00
         21   -1    0    0  504  501  0.00000000000E+00  0.00000000000E+00  0.18451348451E+03  0.18451348451E+03  0.00000000000E+00 0. -1.
         21   -1    0    0  501  502 -0.00000000000E+00 -0.00000000000E+00 -0.34197409939E+03  0.34197409939E+03  0.00000000000E+00 0. -1.
         21    1    1    2  503  502  0.10163004019E+03  0.20034605692E+02 -0.31854937659E+03  0.33496829077E+03  0.00000000000E+00 0. -1.
         21    1    1    2  504  503 -0.10163004019E+03 -0.20034605692E+02  0.16108876170E+03  0.19151929313E+03  0.00000000000E+00 0. -1.
<mgrwt>
<rscale>  2 0.10358596E+03</rscale>
<asrwt>0</asrwt>
<pdfrwt beam="1">  1       21 0.28386690E-01 0.10358596E+03</pdfrwt>
<pdfrwt beam="2">  1       21 0.52611400E-01 0.10358596E+03</pdfrwt>
<totfact> 0.42730244E+04</totfact>
</mgrwt>
</event>
<event>
 4    1  0.6158309E+003  0.1208143E+03  0.7546771E-02  0.1241760E+00
         21   -1    0    0  502  501  0.00000000000E+00  0.00000000000E+00  0.48537174283E+02  0.48537174283E+02  0.00000000000E+00 0.  1.
         21   -1    0    0  503  502 -0.00000000000E+00 -0.00000000000E+00 -0.43994970314E+03  0.43994970314E+03  0.00000000000E+00 0. -1.
         21    1    1    2  503  504 -0.11527074944E+03 -0.36176750643E+02 -0.33310641673E+03  0.35433880373E+03  0.00000000000E+00 0. -1.
         21    1    1    2  504  501  0.11527074944E+03  0.36176750643E+02 -0.58306112125E+02  0.13414807369E+03  0.00000000000E+00 0.  1.
<mgrwt>
<rscale>  2 0.12081433E+03</rscale>
<asrwt>0</asrwt>
<pdfrwt beam="1">  1       21 0.74672578E-02 0.12081433E+03</pdfrwt>
<pdfrwt beam="2">  1       21 0.67684568E-01 0.12081433E+03</pdfrwt>
<totfact> 0.27455267E+05</totfact>
</mgrwt>
</event>
<event>
 4    1  0.6158309E+003  0.1027975E+03  0.7546771E-02  0.1274521E+00
         21   -1    0    0  503  501  0.00000000000E+00  0.00000000000E+00  0.11086321716E+03  0.11086321716E+03  0.00000000000E+00 0. -1.
         21   -1    0    0  504  502 -0.00000000000E+00 -0.00000000000E+00 -0.15576088324E+04  0.15576088324E+04  0.00000000000E+00 0.  1.
         21    1    1    2  503  502  0.88118931579E+02  0.52937479901E+02 -0.15316801691E+04  0.15351258786E+04  0.00000000000E+00 0.  1.
         21    1    1    2  504  501 -0.88118931579E+02 -0.52937479901E+02  0.84934553811E+02  0.13334617097E+03  0.00000000000E+00 0. -1.
<mgrwt>
<rscale>  2 0.10279748E+03</rscale>
<asrwt>0</asrwt>
<pdfrwt beam="1">  1       21 0.17055880E-01 0.10279748E+03</pdfrwt>
<pdfrwt beam="2">  1       21 0.23963212E+00 0.10279748E+03</pdfrwt>
<totfact> 0.26972204E+03</totfact>
</mgrwt>
</event>
<event>
 4    1  0.6158309E+003  0.1092377E+03  0.7546771E-02  0.1261988E+00
         21   -1    0    0  504  501  0.00000000000E+00  0.00000000000E+00  0.85932550218E+03  0.85932550218E+03  0.00000000000E+00 0.  1.
         21   -1    0    0  501  502 -0.00000000000E+00 -0.00000000000E+00 -0.21493745066E+02  0.21493745066E+02  0.00000000000E+00 0. -1.
         21    1    1    2  503  502  0.96173791430E+02  0.51802320821E+02  0.15690503022E+03  0.19118594904E+03  0.00000000000E+00 0. -1.
         21    1    1    2  504  503 -0.96173791430E+02 -0.51802320821E+02  0.68092672690E+03  0.68963329821E+03  0.00000000000E+00 0.  1.
<mgrwt>
<rscale>  2 0.10923772E+03</rscale>
<asrwt>0</asrwt>
<pdfrwt beam="1">  1       21 0.13220390E+00 0.10923772E+03</pdfrwt>
<pdfrwt beam="2">  1       21 0.33067307E-02 0.10923772E+03</pdfrwt>
<totfact> 0.22971756E+05</totfact>
</mgrwt>
</event>
<event>
 4    1  0.6158309E+003  0.1009123E+03  0.7546771E-02  0.1278389E+00
         21   -1    0    0  503  501  0.00000000000E+00  0.00000000000E+00  0.46808641481E+03  0.46808641481E+03  0.00000000000E+00 0.  1.
         21   -1    0    0  504  502 -0.00000000000E+00 -0.00000000000E+00 -0.21998225816E+02  0.21998225816E+02  0.00000000000E+00 0.  1.
         21    1    1    2  503  502  0.19396254173E+02 -0.99030727319E+02  0.24880137961E+03  0.26848729229E+03  0.00000000000E+00 0.  1.
         21    1    1    2  504  501 -0.19396254173E+02  0.99030727319E+02  0.19728680939E+03  0.22159734834E+03  0.00000000000E+00 0.  1.
<mgrwt>
<rscale>  2 0.10091234E+03</rscale>
<asrwt>0</asrwt>
<pdfrwt beam="1">  1       21 0.72013287E-01 0.10091234E+03</pdfrwt>
<pdfrwt beam="2">  1       21 0.33843428E-02 0.10091234E+03</pdfrwt>
<totfact> 0.90470692E+05</totfact>
</mgrwt>
</event>
<event>
 4    1  0.6158309E+003  0.1061324E+03  0.7546771E-02  0.1267904E+00
         21   -1    0    0  503  501  0.00000000000E+00  0.00000000000E+00  0.10609738434E+03  0.10609738434E+03  0.00000000000E+00 0. -1.
         21   -1    0    0  501  502 -0.00000000000E+00 -0.00000000000E+00 -0.10901981207E+03  0.10901981207E+03  0.00000000000E+00 0. -1.
         21    1    1    2  503  504 -0.92844016175E+02  0.51420661857E+02 -0.18858827453E+02  0.10779494969E+03  0.00000000000E+00 0. -1.
         21    1    1    2  504  502  0.92844016175E+02 -0.51420661857E+02  0.15936399721E+02  0.10732224672E+03  0.00000000000E+00 0. -1.
<mgrwt>
<rscale>  2 0.10613244E+03</rscale>
<asrwt>0</asrwt>
<pdfrwt beam="1">  1       21 0.16322674E-01 0.10613244E+03</pdfrwt>
<pdfrwt beam="2">  1       21 0.16772279E-01 0.10613244E+03</pdfrwt>
<totfact> 0.10724162E+06</totfact>
</mgrwt>
</event>
<event>
 4    1  0.6158309E+003  0.1073038E+03  0.7546771E-02  0.1265646E+00
         21   -1    0    0  502  501  0.00000000000E+00  0.00000000000E+00  0.66630518353E+03  0.66630518353E+03  0.00000000000E+00 0.  1.
         21   -1    0    0  503  502 -0.00000000000E+00 -0.00000000000E+00 -0.70231968707E+02  0.70231968707E+02  0.00000000000E+00 0.  1.
         21    1    1    2  503  504 -0.43274479726E+02 -0.98190746289E+02 -0.21732235150E+02  0.10948238807E+03  0.00000000000E+00 0.  1.
         21    1    1    2  504  501  0.43274479726E+02  0.98190746289E+02  0.61780544997E+03  0.62705476417E+03  0.00000000000E+00 0.  1.
<mgrwt>
<rscale>  2 0.10730379E+03</rscale>
<asrwt>0</asrwt>
<pdfrwt beam="1">  1       21 0.10250849E+00 0.10730379E+03</pdfrwt>
<pdfrwt beam="2">  1       21 0.10804919E-01 0.10730379E+03</pdfrwt>
<totfact> 0.57338647E+04</totfact>
</mgrwt>
</event>
<event>
 4    1  0.6158309E+003  0.1442385E+03  0.7546771E-02  0.1207737E+00
         21   -1    0    0  503  501  0.00000000000E+00  0.00000000000E+00  0.14009733095E+04  0.14009733095E+04  0.00000000000E+00 0.  1.
         21   -1    0    0  504  502 -0.00000000000E+00 -0.00000000000E+00 -0.88140303490E+02  0.88140303490E+02  0.00000000000E+00 0. -1.
         21    1    1    2  503  502  0.14401788314E+03 -0.79745440882E+01  0.13353593440E+04  0.13431266960E+04  0.00000000000E+00 0.  1.
         21    1    1    2  504  501 -0.14401788314E+03  0.79745440882E+01 -0.22526337987E+02  0.14598691695E+03  0.00000000000E+00 0. -1.
<mgrwt>
<rscale>  2 0.14423850E+03</rscale>
<asrwt>0</asrwt>
<pdfrwt beam="1">  1       21 0.21553434E+00 0.14423850E+03</pdfrwt>
<pdfrwt beam="2">  1       21 0.13560048E-01 0.14423850E+03</pdfrwt>
<totfact> 0.53140148E+03</totfact>
</mgrwt>
</event>
<event>
 4    1  0.6158309E+003  0.1053880E+03  0.7546771E-02  0.1269357E+00
         21   -1    0    0  504  501  0.00000000000E+00  0.00000000000E+00  0.10884742174E+03  0.10884742174E+03  0.00000000000E+00 0. -1.
         21   -1    0    0  503  502 -0.00000000000E+00 -0.00000000000E+00 -0.13279132808E+03  0.13279132808E+03  0.00000000000E+00 0. -1.
         21    1    1    2  503  501  0.87119987029E+02  0.59302018180E+02  0.46170674606E+02  0.11505804054E+03  0.00000000000E+00 0. -1.
         21    1    1    2  504  502 -0.87119987029E+02 -0.59302018180E+02 -0.70114580942E+02  0.12658070928E+03  0.00000000000E+00 0. -1.
<mgrwt>
<rscale>  2 0.10538796E+03</rscale>
<asrwt>0</asrwt>
<pdfrwt beam="1">  1       21 0.16745757E-01 0.10538796E+03</pdfrwt>
<pdfrwt beam="2">  1       21 0.20429435E-01 0.10538796E+03</pdfrwt>
<totfact> 0.71422519E+05</totfact>
</mgrwt>
</event>
<event>
 4    1  0.6158309E+003  0.1095780E+03  0.7546771E-02  0.1261353E+00
         21   -1    0    0  504  501  0.00000000000E+00  0.00000000000E+00  0.18959135880E+02  0.18959135880E+02  0.00000000000E+00 0. -1.
         21   -1    0    0  503  502 -0.00000000000E+00 -0.00000000000E+00 -0.67345719711E+03  0.67345719711E+03  0.00000000000E+00 0. -1.
         21    1    1    2  503  501  0.42330320977E+02  0.10107164932E+03 -0.24273720880E+03  0.26632440163E+03  0.00000000000E+00 0. -1.
         21    1    1    2  504  502 -0.42330320977E+02 -0.10107164932E+03 -0.41176085244E+03  0.42609193136E+03  0.00000000000E+00 0. -1.
<mgrwt>
<rscale>  2 0.10957798E+03</rscale>
<asrwt>0</asrwt>
<pdfrwt beam="1">  1       21 0.29167904E-02 0.10957798E+03</pdfrwt>
<pdfrwt beam="2">  1       21 0.10360879E+00 0.10957798E+03</pdfrwt>
<totfact> 0.50762163E+05</totfact>
</mgrwt>
</event>
<event>
 4    1  0.6158309E+003  0.1173210E+03  0.7546771E-02  0.1247583E+00
         21   -1    0    0  503  501  0.00000000000E+00  0.00000000000E+00  0.89144018093E+03  0.89144018093E+03  0.00000000000E+00 0.  1.
         21   -1    0    0  504  502 -0.00000000000E+00 -0.00000000000E+00 -0.42541892345E+03  0.42541892345E+03  0.00000000000E+00 0. -1.
         21    1    1    2  503  502  0.75663059596E+02  0.89662266484E+02  0.87938101369E+03  0.88717258065E+03  0.00000000000E+00 0.  1.
         21    1    1    2  504  501 -0.75663059596E+02 -0.89662266484E+02 -0.41335975621E+03  0.42968652372E+03  0.00000000000E+00 0. -1.
<mgrwt>
<rscale>  2 0.11732102E+03</rscale>
<asrwt>0</asrwt>
<pdfrwt beam="1">  1       21 0.13714464E+00 0.11732102E+03</pdfrwt>
<pdfrwt beam="2">  1       21 0.65449065E-01 0.11732102E+03</pdfrwt>
<totfact> 0.89268701E+02</totfact>
</mgrwt>
</event>
<event>
 4    1  0.6158309E+003  0.1063145E+03  0.7546771E-02  0.1267551E+00
         21   -1    0    0  504  501  0.00000000000E+00  0.00000000000E+00  0.10447407418E+04  0.10447407418E+04  0.00000000000E+00 0.  1.
         21   -1    0    0  503  502 -0.00000000000E+00 -0.00000000000E+00 -0.19414524660E+02  0.19414524660E+02  0.00000000000E+00 0.  1.
         21    1    1    2  503  501 -0.87227580468E+02  0.60779209982E+02  0.86670508412E+03  0.87320127462E+03  0.00000000000E+00 0.  1.
         21    1    1    2  504  502  0.87227580468E+02 -0.60779209982E+02  0.15862113305E+03  0.19095399186E+03  0.00000000000E+00 0.  1.
<mgrwt>
<rscale>  2 0.10631445E+03</rscale>
<asrwt>0</asrwt>
<pdfrwt beam="1">  1       21 0.16072930E+00 0.10631445E+03</pdfrwt>
<pdfrwt beam="2">  1       21 0.29868508E-02 0.10631445E+03</pdfrwt>
<totfact> 0.16503149E+05</totfact>
</mgrwt>
</event>
<event>
 4    1  0.6158309E+003  0.1120956E+03  0.7546771E-02  0.1256738E+00
         21   -1    0    0  503  501  0.00000000000E+00  0.00000000000E+00  0.79230320197E+02  0.79230320197E+02  0.00000000000E+00 0. -1.
         21   -1    0    0  504  502 -0.00000000000E+00 -0.00000000000E+00 -0.33540369462E+03  0.33540369462E+03  0.00000000000E+00 0.  1.
         21    1    1    2  503  502  0.98027390042E+02 -0.54369690791E+02 -0.27861020921E+03  0.30031496990E+03  0.00000000000E+00 0.  1.
         21    1    1    2  504  501 -0.98027390042E+02  0.54369690791E+02  0.22436834782E+02  0.11431904491E+03  0.00000000000E+00 0. -1.
<mgrwt>
<rscale>  2 0.11209564E+03</rscale>
<asrwt>0</asrwt>
<pdfrwt beam="1">  1       21 0.12189280E-01 0.11209564E+03</pdfrwt>
<pdfrwt beam="2">  1       21 0.51600570E-01 0.11209564E+03</pdfrwt>
<totfact> 0.20812185E+05</totfact>
</mgrwt>
</event>
<event>
 4    1  0.6158309E+003  0.1044744E+03  0.7546771E-02  0.1271159E+00
         21   -1    0    0  502  501  0.00000000000E+00  0.00000000000E+00  0.52835751309E+02  0.52835751309E+02  0.00000000000E+00 0. -1.
         21   -1    0    0  504  502 -0.00000000000E+00 -0.00000000000E+00 -0.12248570594E+04  0.12248570594E+04  0.00000000000E+00 0.  1.
         21    1    1    2  503  501 -0.16278916629E+02  0.10319838786E+03 -0.35235384285E+01  0.10453384957E+03  0.00000000000E+00 0. -1.
         21    1    1    2  504  503  0.16278916629E+02 -0.10319838786E+03 -0.11684977697E+04  0.11731589612E+04  0.00000000000E+00 0.  1.
<mgrwt>
<rscale>  2 0.10447445E+03</rscale>
<asrwt>0</asrwt>
<pdfrwt beam="1">  1       21 0.81285762E-02 0.10447445E+03</pdfrwt>
<pdfrwt beam="2">  1       21 0.18843957E+00 0.10447445E+03</pdfrwt>
<totfact> 0.20174520E+04</totfact>
</mgrwt>
</event>
<event>
 4    1  0.6158309E+003  0.1127098E+03  0.7546771E-02  0.1255632E+00
         21   -1    0    0  503  501  0.00000000000E+00  0.00000000000E+00  0.13797317944E+03  0.13797317944E+03  0.00000000000E+00 0. -1.
         21   -1    0    0  504  502 -0.00000000000E+00 -0.00000000000E+00 -0.14115646967E+03  0.14115646967E+03  0.00000000000E+00 0. -1.
         21    1    1    2  503  502 -0.70726373403E+02  0.87756991548E+02 -0.83890966930E+02  0.14050339424E+03  0.00000000000E+00 0. -1.
         21    1    1    2  504  501  0.70726373403E+02 -0.87756991548E+02  0.80707676697E+02  0.13862625487E+03  0.00000000000E+00 0. -1.
<mgrwt>
<rscale>  2 0.11270985E+03</rscale>
<asrwt>0</asrwt>
<pdfrwt beam="1">  1       21 0.21226643E-01 0.11270985E+03</pdfrwt>
<pdfrwt beam="2">  1       21 0.21716380E-01 0.11270985E+03</pdfrwt>
<totfact> 0.41322846E+05</totfact>
</mgrwt>
</event>
<event>
 4    1  0.6158309E+003  0.1687712E+03  0.7546771E-02  0.1179135E+00
         21   -1    0    0  503  501  0.00000000000E+00  0.00000000000E+00  0.15092707180E+03  0.15092707180E+03  0.00000000000E+00 0.  1.
         21   -1    0    0  504  502 -0.00000000000E+00 -0.00000000000E+00 -0.19888485899E+03  0.19888485899E+03  0.00000000000E+00 0.  1.
         21    1    1    2  503  502  0.12518166753E+03 -0.11319570697E+03 -0.63510704029E+02  0.18032561517E+03  0.00000000000E+00 0.  1.
         21    1    1    2  504  501 -0.12518166753E+03  0.11319570697E+03  0.15552916842E+02  0.16948631562E+03  0.00000000000E+00 0.  1.
<mgrwt>
<rscale>  2 0.16877120E+03</rscale>
<asrwt>0</asrwt>
<pdfrwt beam="1">  1       21 0.23219550E-01 0.16877120E+03</pdfrwt>
<pdfrwt beam="2">  1       21 0.30597671E-01 0.16877120E+03</pdfrwt>
<totfact> 0.18004393E+05</totfact>
</mgrwt>
</event>
<event>
 4    1  0.6158309E+003  0.1035544E+03  0.7546771E-02  0.1272994E+00
         21   -1    0    0  504  501  0.00000000000E+00  0.00000000000E+00  0.17930494717E+04  0.17930494717E+04  0.00000000000E+00 0.  1.
         21   -1    0    0  503  502 -0.00000000000E+00 -0.00000000000E+00 -0.90655454865E+01  0.90655454865E+01  0.00000000000E+00 0.  1.
         21    1    1    2  503  501  0.10294406087E+03 -0.11226345410E+02  0.14176209803E+04  0.14213981688E+04  0.00000000000E+00 0.  1.
         21    1    1    2  504  502 -0.10294406087E+03  0.11226345410E+02  0.36636294586E+03  0.38071684833E+03  0.00000000000E+00 0.  1.
<mgrwt>
<rscale>  2 0.10355438E+03</rscale>
<asrwt>0</asrwt>
<pdfrwt beam="1">  1       21 0.27585348E+00 0.10355438E+03</pdfrwt>
<pdfrwt beam="2">  1       21 0.13947007E-02 0.10355438E+03</pdfrwt>
<totfact> 0.11247359E+05</totfact>
</mgrwt>
</event>
<event>
 4    1  0.6158309E+003  0.1073206E+03  0.7546771E-02  0.1265614E+00
         21   -1    0    0  502  501  0.00000000000E+00  0.00000000000E+00  0.37122787187E+03  0.37122787187E+03  0.00000000000E+00 0. -1.
         21   -1    0    0  504  502 -0.00000000000E+00 -0.00000000000E+00 -0.74447706164E+02  0.74447706164E+02  0.00000000000E+00 0.  1.
         21    1    1    2  503  501  0.83063248512E+02  0.67957467930E+02  0.31857323300E+03  0.33616458095E+03  0.00000000000E+00 0. -1.
         21    1    1    2  504  503 -0.83063248512E+02 -0.67957467930E+02 -0.21793067292E+02  0.10951099709E+03  0.00000000000E+00 0.  1.
<mgrwt>
<rscale>  2 0.10732064E+03</rscale>
<asrwt>0</asrwt>
<pdfrwt beam="1">  1       21 0.57111979E-01 0.10732064E+03</pdfrwt>
<pdfrwt beam="2">  1       21 0.11453493E-01 0.10732064E+03</pdfrwt>
<totfact> 0.18833795E+05</totfact>
</mgrwt>
</event>
<event>
 4    1  0.6158309E+003  0.1248182E+03  0.7546771E-02  0.1235354E+00
         21   -1    0    0  503  501  0.00000000000E+00  0.00000000000E+00  0.25966484864E+03  0.25966484864E+03  0.00000000000E+00 0. -1.
         21   -1    0    0  504  502 -0.00000000000E+00 -0.00000000000E+00 -0.86875517077E+02  0.86875517077E+02  0.00000000000E+00 0. -1.
         21    1    1    2  503  502  0.93998840299E+02 -0.82120679716E+02  0.18276935083E+03  0.22132379813E+03  0.00000000000E+00 0. -1.
         21    1    1    2  504  501 -0.93998840299E+02  0.82120679716E+02 -0.99800192655E+01  0.12521656759E+03  0.00000000000E+00 0. -1.
<mgrwt>
<rscale>  2 0.12481822E+03</rscale>
<asrwt>0</asrwt>
<pdfrwt beam="1">  1       21 0.39948438E-01 0.12481822E+03</pdfrwt>
<pdfrwt beam="2">  1       21 0.13365464E-01 0.12481822E+03</pdfrwt>
<totfact> 0.29622966E+05</totfact>
</mgrwt>
</event>
<event>
 4    1  0.6158309E+003  0.1144492E+03  0.7546771E-02  0.1252546E+00
         21   -1    0    0  504  501  0.00000000000E+00  0.00000000000E+00  0.10753011277E+02  0.10753011277E+02  0.00000000000E+00 0.  1.
         21   -1    0    0  503  502 -0.00000000000E+00 -0.00000000000E+00 -0.12273628975E+04  0.12273628975E+04  0.00000000000E+00 0.  1.
         21    1    1    2  503  501 -0.11262565896E+03  0.20349138466E+02 -0.55462887989E+03  0.56631424219E+03  0.00000000000E+00 0.  1.
         21    1    1    2  504  502  0.11262565896E+03 -0.20349138466E+02 -0.66198100634E+03  0.67180166660E+03  0.00000000000E+00 0.  1.
<mgrwt>
<rscale>  2 0.11444923E+03</rscale>
<asrwt>0</asrwt>
<pdfrwt beam="1">  1       21 0.16543099E-02 0.11444923E+03</pdfrwt>
<pdfrwt beam="2">  1       21 0.18882501E+00 0.11444923E+03</pdfrwt>
<totfact> 0.27555435E+05</totfact>
</mgrwt>
</event>
<event>
 4    1  0.6158309E+003  0.1493599E+03  0.7546771E-02  0.1201262E+00
         21   -1    0    0  503  501  0.00000000000E+00  0.00000000000E+00  0.84010212151E+03  0.84010212151E+03  0.00000000000E+00 0.  1.
         21   -1    0    0  501  502 -0.00000000000E+00 -0.00000000000E+00 -0.26791143258E+02  0.26791143258E+02  0.00000000000E+00 0. -1.
         21    1    1    2  503  504 -0.37012206070E+01  0.14931399982E+03  0.44740482365E+03  0.47167726870E+03  0.00000000000E+00 0. -1.
         21    1    1    2  504  502  0.37012206070E+01 -0.14931399982E+03  0.36590615460E+03  0.39521599607E+03  0.00000000000E+00 0.  1.
<mgrwt>
<rscale>  2 0.14935987E+03</rscale>
<asrwt>0</asrwt>
<pdfrwt beam="1">  1       21 0.12924646E+00 0.14935987E+03</pdfrwt>
<pdfrwt beam="2">  1       21 0.41217150E-02 0.14935987E+03</pdfrwt>
<totfact> 0.16622870E+05</totfact>
</mgrwt>
</event>
<event>
 4    1  0.6158309E+003  0.1112763E+03  0.7546771E-02  0.1258224E+00
         21   -1    0    0  502  501  0.00000000000E+00  0.00000000000E+00  0.15652142910E+03  0.15652142910E+03  0.00000000000E+00 0. -1.
         21   -1    0    0  503  502 -0.00000000000E+00 -0.00000000000E+00 -0.96770428428E+03  0.96770428428E+03  0.00000000000E+00 0.  1.
         21    1    1    2  503  504 -0.10762148723E+03 -0.28284832433E+02 -0.94423804270E+03  0.95077226376E+03  0.00000000000E+00 0.  1.
         21    1    1    2  504  501  0.10762148723E+03  0.28284832433E+02  0.13305518751E+03  0.17345344962E+03  0.00000000000E+00 0. -1.
<mgrwt>
<rscale>  2 0.11127631E+03</rscale>
<asrwt>0</asrwt>
<pdfrwt beam="1">  1       21 0.24080220E-01 0.11127631E+03</pdfrwt>
<pdfrwt beam="2">  1       21 0.14887758E+00 0.11127631E+03</pdfrwt>
<totfact> 0.53850993E+03</totfact>
</mgrwt>
</event>
<event>
 4    1  0.6158309E+003  0.1527537E+03  0.7546771E-02  0.1197129E+00
         21   -1    0    0  503  501  0.00000000000E+00  0.00000000000E+00  0.19129308965E+03  0.19129308965E+03  0.00000000000E+00 0. -1.
         21   -1    0    0  504  502 -0.00000000000E+00 -0.00000000000E+00 -0.21881063119E+03  0.21881063119E+03  0.00000000000E+00 0.  1.
         21    1    1    2  503  502  0.68014583209E+02 -0.13677618020E+03  0.12264881192E+03  0.19589905070E+03  0.00000000000E+00 0. -1.
         21    1    1    2  504  501 -0.68014583209E+02  0.13677618020E+03 -0.15016635346E+03  0.21420467014E+03  0.00000000000E+00 0.  1.
<mgrwt>
<rscale>  2 0.15275375E+03</rscale>
<asrwt>0</asrwt>
<pdfrwt beam="1">  1       21 0.29429706E-01 0.15275375E+03</pdfrwt>
<pdfrwt beam="2">  1       21 0.33663174E-01 0.15275375E+03</pdfrwt>
<totfact> 0.95513813E+04</totfact>
</mgrwt>
</event>
<event>
 4    1  0.6158309E+003  0.1330505E+03  0.7546771E-02  0.1222998E+00
         21   -1    0    0  502  501  0.00000000000E+00  0.00000000000E+00  0.15658238254E+04  0.15658238254E+04  0.00000000000E+00 0.  1.
         21   -1    0    0  504  502 -0.00000000000E+00 -0.00000000000E+00 -0.40455298101E+02  0.40455298101E+02  0.00000000000E+00 0.  1.
         21    1    1    2  503  501 -0.63122868523E+02  0.11712360830E+03  0.14444277875E+04  0.14505426810E+04  0.00000000000E+00 0.  1.
         21    1    1    2  504  503  0.63122868523E+02 -0.11712360830E+03  0.80940739748E+02  0.15573644243E+03  0.00000000000E+00 0.  1.
<mgrwt>
<rscale>  2 0.13305050E+03</rscale>
<asrwt>0</asrwt>
<pdfrwt beam="1">  1       21 0.24089593E+00 0.13305050E+03</pdfrwt>
<pdfrwt beam="2">  1       21 0.62238932E-02 0.13305050E+03</pdfrwt>
<totfact> 0.14795536E+04</totfact>
</mgrwt>
</event>
<event>
 4    1  0.6158309E+003  0.1115983E+03  0.7546771E-02  0.1257638E+00
         21   -1    0    0  504  501  0.00000000000E+00  0.00000000000E+00  0.44077017024E+03  0.44077017024E+03  0.00000000000E+00 0. -1.
         21   -1    0    0  503  502 -0.00000000000E+00 -0.00000000000E+00 -0.28256186798E+02  0.28256186798E+02  0.00000000000E+00 0. -1.
         21    1    1    2  503  501 -0.25691355473E+02  0.10860078339E+03  0.20509008146E+03  0.23348686775E+03  0.00000000000E+00 0. -1.
         21    1    1    2  504  502  0.25691355473E+02 -0.10860078339E+03  0.20742390198E+03  0.23553948928E+03  0.00000000000E+00 0. -1.
<mgrwt>
<rscale>  2 0.11159828E+03</rscale>
<asrwt>0</asrwt>
<pdfrwt beam="1">  1       21 0.67810790E-01 0.11159828E+03</pdfrwt>
<pdfrwt beam="2">  1       21 0.43471060E-02 0.11159828E+03</pdfrwt>
<totfact> 0.68204842E+05</totfact>
</mgrwt>
</event>
<event>
 4    1  0.6158309E+003  0.1108797E+03  0.7546771E-02  0.1258949E+00
         21   -1    0    0  502  501  0.00000000000E+00  0.00000000000E+00  0.21619973843E+02  0.21619973843E+02  0.00000000000E+00 0.  1.
         21   -1    0    0  504  502 -0.00000000000E+00 -0.00000000000E+00 -0.13368093013E+04  0.13368093013E+04  0.00000000000E+00 0. -1.
         21    1    1    2  503  501 -0.69249350476E+02  0.86595856414E+02 -0.14272603895E+03  0.18073471466E+03  0.00000000000E+00 0.  1.
         21    1    1    2  504  503  0.69249350476E+02 -0.86595856414E+02 -0.11724632885E+04  0.11776945605E+04  0.00000000000E+00 0. -1.
<mgrwt>
<rscale>  2 0.11087973E+03</rscale>
<asrwt>0</asrwt>
<pdfrwt beam="1">  1       21 0.33261500E-02 0.11087973E+03</pdfrwt>
<pdfrwt beam="2">  1       21 0.20566296E+00 0.11087973E+03</pdfrwt>
<totfact> 0.69883669E+04</totfact>
</mgrwt>
</event>
<event>
 4    1  0.6158309E+003  0.1435062E+03  0.7546771E-02  0.1208687E+00
         21   -1    0    0  502  501  0.00000000000E+00  0.00000000000E+00  0.29833054473E+02  0.29833054473E+02  0.00000000000E+00 0. -1.
         21   -1    0    0  503  502 -0.00000000000E+00 -0.00000000000E+00 -0.10821094790E+04  0.10821094790E+04  0.00000000000E+00 0. -1.
         21    1    1    2  503  504  0.14011474932E+03  0.31014467120E+02 -0.86067891525E+03  0.87256073445E+03  0.00000000000E+00 0. -1.
         21    1    1    2  504  501 -0.14011474932E+03 -0.31014467120E+02 -0.19159750932E+03  0.23938179907E+03  0.00000000000E+00 0. -1.
<mgrwt>
<rscale>  2 0.14350624E+03</rscale>
<asrwt>0</asrwt>
<pdfrwt beam="1">  1       21 0.45897002E-02 0.14350624E+03</pdfrwt>
<pdfrwt beam="2">  1       21 0.16647840E+00 0.14350624E+03</pdfrwt>
<totfact> 0.72261789E+04</totfact>
</mgrwt>
</event>
<event>
 4    1  0.6158309E+003  0.1031732E+03  0.7546771E-02  0.1273761E+00
         21   -1    0    0  504  501  0.00000000000E+00  0.00000000000E+00  0.71381385758E+02  0.71381385758E+02  0.00000000000E+00 0.  1.
         21   -1    0    0  503  502 -0.00000000000E+00 -0.00000000000E+00 -0.15639170693E+03  0.15639170693E+03  0.00000000000E+00 0.  1.
         21    1    1    2  503  501  0.21110106126E+02 -0.10099041066E+03 -0.67055365278E+02  0.12304926509E+03  0.00000000000E+00 0.  1.
         21    1    1    2  504  502 -0.21110106126E+02  0.10099041066E+03 -0.17954955892E+02  0.10472382760E+03  0.00000000000E+00 0.  1.
<mgrwt>
<rscale>  2 0.10317315E+03</rscale>
<asrwt>0</asrwt>
<pdfrwt beam="1">  1       21 0.10981752E-01 0.10317315E+03</pdfrwt>
<pdfrwt beam="2">  1       21 0.24060262E-01 0.10317315E+03</pdfrwt>
<totfact> 0.11161839E+06</totfact>
</mgrwt>
</event>
<event>
 4    1  0.6158309E+003  0.1002857E+03  0.7546771E-02  0.1279696E+00
         21   -1    0    0  503  501  0.00000000000E+00  0.00000000000E+00  0.98002578138E+02  0.98002578138E+02  0.00000000000E+00 0.  1.
         21   -1    0    0  501  502 -0.00000000000E+00 -0.00000000000E+00 -0.20034922681E+03  0.20034922681E+03  0.00000000000E+00 0.  1.
         21    1    1    2  503  504  0.54356038232E+02 -0.84277174397E+02  0.53013455682E+02  0.11343565357E+03  0.00000000000E+00 0.  1.
         21    1    1    2  504  502 -0.54356038232E+02  0.84277174397E+02 -0.15536010435E+03  0.18491615138E+03  0.00000000000E+00 0.  1.
<mgrwt>
<rscale>  2 0.10028570E+03</rscale>
<asrwt>0</asrwt>
<pdfrwt beam="1">  1       21 0.15077320E-01 0.10028570E+03</pdfrwt>
<pdfrwt beam="2">  1       21 0.30822958E-01 0.10028570E+03</pdfrwt>
<totfact> 0.39821820E+05</totfact>
</mgrwt>
</event>
<event>
 4    1  0.6158309E+003  0.1220954E+03  0.7546771E-02  0.1239680E+00
         21   -1    0    0  504  501  0.00000000000E+00  0.00000000000E+00  0.82634800485E+02  0.82634800485E+02  0.00000000000E+00 0. -1.
         21   -1    0    0  503  502 -0.00000000000E+00 -0.00000000000E+00 -0.18411839126E+03  0.18411839126E+03  0.00000000000E+00 0. -1.
         21    1    1    2  503  501 -0.80748885999E+02  0.91580063547E+02 -0.31786614492E+02  0.12616528639E+03  0.00000000000E+00 0. -1.
         21    1    1    2  504  502  0.80748885999E+02 -0.91580063547E+02 -0.69696976285E+02  0.14058790536E+03  0.00000000000E+00 0. -1.
<mgrwt>
<rscale>  2 0.12209542E+03</rscale>
<asrwt>0</asrwt>
<pdfrwt beam="1">  1       21 0.12713046E-01 0.12209542E+03</pdfrwt>
<pdfrwt beam="2">  1       21 0.28325906E-01 0.12209542E+03</pdfrwt>
<totfact> 0.63404106E+05</totfact>
</mgrwt>
</event>
<event>
 4    1  0.6158309E+003  0.1286891E+03  0.7546771E-02  0.1229414E+00
         21   -1    0    0  503  501  0.00000000000E+00  0.00000000000E+00  0.28621486817E+03  0.28621486817E+03  0.00000000000E+00 0. -1.
         21   -1    0    0  504  502 -0.00000000000E+00 -0.00000000000E+00 -0.22939596431E+03  0.22939596431E+03  0.00000000000E+00 0. -1.
         21    1    1    2  503  502 -0.11403952197E+03  0.59631230828E+02 -0.19452362779E+03  0.23323880044E+03  0.00000000000E+00 0. -1.
         21    1    1    2  504  501  0.11403952197E+03 -0.59631230828E+02  0.25134253165E+03  0.28237203204E+03  0.00000000000E+00 0. -1.
<mgrwt>
<rscale>  2 0.12868915E+03</rscale>
<asrwt>0</asrwt>
<pdfrwt beam="1">  1       21 0.44033057E-01 0.12868915E+03</pdfrwt>
<pdfrwt beam="2">  1       21 0.35291687E-01 0.12868915E+03</pdfrwt>
<totfact> 0.39693518E+04</totfact>
</mgrwt>
</event>
<event>
 4    1  0.6158309E+003  0.1049938E+03  0.7546771E-02  0.1270132E+00
         21   -1    0    0  502  501  0.00000000000E+00  0.00000000000E+00  0.93272691631E+02  0.93272691631E+02  0.00000000000E+00 0. -1.
         21   -1    0    0  504  502 -0.00000000000E+00 -0.00000000000E+00 -0.12306473093E+04  0.12306473093E+04  0.00000000000E+00 0. -1.
         21    1    1    2  503  501  0.92877538296E+02 -0.48963979940E+02  0.60684116083E+02  0.12126941245E+03  0.00000000000E+00 0. -1.
         21    1    1    2  504  503 -0.92877538296E+02  0.48963979940E+02 -0.11980587337E+04  0.12026505885E+04  0.00000000000E+00 0. -1.
<mgrwt>
<rscale>  2 0.10499385E+03</rscale>
<asrwt>0</asrwt>
<pdfrwt beam="1">  1       21 0.14349645E-01 0.10499385E+03</pdfrwt>
<pdfrwt beam="2">  1       21 0.18933035E+00 0.10499385E+03</pdfrwt>
<totfact> 0.73606541E+03</totfact>
</mgrwt>
</event>
<event>
 4    1  0.6158309E+003  0.1163957E+03  0.7546771E-02  0.1249164E+00
         21   -1    0    0  502  501  0.00000000000E+00  0.00000000000E+00  0.16669112858E+02  0.16669112858E+02  0.00000000000E+00 0. -1.
         21   -1    0    0  503  502 -0.00000000000E+00 -0.00000000000E+00 -0.16626769595E+04  0.16626769595E+04  0.00000000000E+00 0.  1.
         21    1    1    2  503  504  0.98318183832E+02 -0.62301546282E+02 -0.14233409531E+04  0.14280922297E+04  0.00000000000E+00 0.  1.
         21    1    1    2  504  501 -0.98318183832E+02  0.62301546282E+02 -0.22266689359E+03  0.25125384264E+03  0.00000000000E+00 0. -1.
<mgrwt>
<rscale>  2 0.11639565E+03</rscale>
<asrwt>0</asrwt>
<pdfrwt beam="1">  1       21 0.25644785E-02 0.11639565E+03</pdfrwt>
<pdfrwt beam="2">  1       21 0.25579650E+00 0.11639565E+03</pdfrwt>
<totfact> 0.54017786E+04</totfact>
</mgrwt>
</event>
<event>
 4    1  0.6158309E+003  0.1010711E+03  0.7546771E-02  0.1278060E+00
         21   -1    0    0  503  501  0.00000000000E+00  0.00000000000E+00  0.11047895747E+03  0.11047895747E+03  0.00000000000E+00 0.  1.
         21   -1    0    0  504  502 -0.00000000000E+00 -0.00000000000E+00 -0.10123088346E+03  0.10123088346E+03  0.00000000000E+00 0.  1.
         21    1    1    2  503  502  0.10068230909E+03  0.88568587188E+01 -0.26526609706E+02  0.10449417368E+03  0.00000000000E+00 0.  1.
         21    1    1    2  504  501 -0.10068230909E+03 -0.88568587188E+01  0.35774683710E+02  0.10721566725E+03  0.00000000000E+00 0.  1.
<mgrwt>
<rscale>  2 0.10107112E+03</rscale>
<asrwt>0</asrwt>
<pdfrwt beam="1">  1       21 0.16996763E-01 0.10107112E+03</pdfrwt>
<pdfrwt beam="2">  1       21 0.15573982E-01 0.10107112E+03</pdfrwt>
<totfact> 0.11382542E+06</totfact>
</mgrwt>
</event>
<event>
 4    1  0.6158309E+003  0.1266333E+03  0.7546771E-02  0.1232539E+00
         21   -1    0    0  504  501  0.00000000000E+00  0.00000000000E+00  0.70680009697E+03  0.70680009697E+03  0.00000000000E+00 0.  1.
         21   -1    0    0  501  502 -0.00000000000E+00 -0.00000000000E+00 -0.23953378159E+02  0.23953378159E+02  0.00000000000E+00 0.  1.
         21    1    1    2  503  502  0.62485283203E+02  0.11014346440E+03  0.25745023843E+03  0.28690872875E+03  0.00000000000E+00 0.  1.
         21    1    1    2  504  503 -0.62485283203E+02 -0.11014346440E+03  0.42539648038E+03  0.44384474638E+03  0.00000000000E+00 0.  1.
<mgrwt>
<rscale>  2 0.12663330E+03</rscale>
<asrwt>0</asrwt>
<pdfrwt beam="1">  1       21 0.10873846E+00 0.12663330E+03</pdfrwt>
<pdfrwt beam="2">  1       21 0.36851356E-02 0.12663330E+03</pdfrwt>
<totfact> 0.30725544E+05</totfact>
</mgrwt>
</event>
<event>
 4    1  0.6158309E+003  0.1481146E+03  0.7546771E-02  0.1202809E+00
         21   -1    0    0  502  501  0.00000000000E+00  0.00000000000E+00  0.81919813562E+03  0.81919813562E+03  0.00000000000E+00 0.  1.
         21   -1    0    0  504  502 -0.00000000000E+00 -0.00000000000E+00 -0.28566613368E+02  0.28566613368E+02  0.00000000000E+00 0.  1.
         21    1    1    2  503  501 -0.43355457684E+01 -0.14805111934E+03  0.50132902982E+03  0.52275111386E+03  0.00000000000E+00 0.  1.
         21    1    1    2  504  503  0.43355457684E+01  0.14805111934E+03  0.28930249243E+03  0.32501363513E+03  0.00000000000E+00 0.  1.
<mgrwt>
<rscale>  2 0.14811459E+03</rscale>
<asrwt>0</asrwt>
<pdfrwt beam="1">  1       21 0.12603046E+00 0.14811459E+03</pdfrwt>
<pdfrwt beam="2">  1       21 0.43948642E-02 0.14811459E+03</pdfrwt>
<totfact> 0.15906214E+05</totfact>
</mgrwt>
</event>
<event>
 4    1  0.6158309E+003  0.1225136E+03  0.7546771E-02  0.1239007E+00
         21   -1    0    0  504  501  0.00000000000E+00  0.00000000000E+00  0.25732679934E+02  0.25732679934E+02  0.00000000000E+00 0.  1.
         21   -1    0    0  503  502 -0.00000000000E+00 -0.00000000000E+00 -0.60542489631E+03  0.60542489631E+03  0.00000000000E+00 0.  1.
         21    1    1    2  503  501 -0.17092070461E+02 -0.12131545945E+03 -0.22950269508E+03  0.26015585064E+03  0.00000000000E+00 0.  1.
         21    1    1    2  504  502  0.17092070461E+02  0.12131545945E+03 -0.35018952130E+03  0.37100172561E+03  0.00000000000E+00 0.  1.
<mgrwt>
<rscale>  2 0.12251359E+03</rscale>
<asrwt>0</asrwt>
<pdfrwt beam="1">  1       21 0.39588741E-02 0.12251359E+03</pdfrwt>
<pdfrwt beam="2">  1       21 0.93142285E-01 0.12251359E+03</pdfrwt>
<totfact> 0.39252546E+05</totfact>
</mgrwt>
</event>
<event>
 4    1  0.6158309E+003  0.1790700E+03  0.7546771E-02  0.1168706E+00
         21   -1    0    0  504  501  0.00000000000E+00  0.00000000000E+00  0.25420602547E+03  0.25420602547E+03  0.00000000000E+00 0. -1.
         21   -1    0    0  503  502 -0.00000000000E+00 -0.00000000000E+00 -0.27133746384E+03  0.27133746384E+03  0.00000000000E+00 0.  1.
         21    1    1    2  503  501  0.17532643658E+03 -0.36424205366E+02  0.18365498205E+03  0.25650581774E+03  0.00000000000E+00 0. -1.
         21    1    1    2  504  502 -0.17532643658E+03  0.36424205366E+02 -0.20078642042E+03  0.26903767157E+03  0.00000000000E+00 0.  1.
<mgrwt>
<rscale>  2 0.17907005E+03</rscale>
<asrwt>0</asrwt>
<pdfrwt beam="1">  1       21 0.39108619E-01 0.17907005E+03</pdfrwt>
<pdfrwt beam="2">  1       21 0.41744226E-01 0.17907005E+03</pdfrwt>
<totfact> 0.35070462E+04</totfact>
</mgrwt>
</event>
<event>
 4    1  0.6158309E+003  0.1024667E+03  0.7546771E-02  0.1275193E+00
         21   -1    0    0  504  501  0.00000000000E+00  0.00000000000E+00  0.21605406708E+03  0.21605406708E+03  0.00000000000E+00 0.  1.
         21   -1    0    0  503  502 -0.00000000000E+00 -0.00000000000E+00 -0.70041043179E+02  0.70041043179E+02  0.00000000000E+00 0. -1.
         21    1    1    2  503  501 -0.98739605863E+02 -0.27384741957E+02 -0.61459265607E+01  0.10265089513E+03  0.00000000000E+00 0. -1.
         21    1    1    2  504  502  0.98739605863E+02  0.27384741957E+02  0.15215895046E+03  0.18344421512E+03  0.00000000000E+00 0.  1.
<mgrwt>
<rscale>  2 0.10246675E+03</rscale>
<asrwt>0</asrwt>
<pdfrwt beam="1">  1       21 0.33239087E-01 0.10246675E+03</pdfrwt>
<pdfrwt beam="2">  1       21 0.10775545E-01 0.10246675E+03</pdfrwt>
<totfact> 0.62350591E+05</totfact>
</mgrwt>
</event>
<event>
 4    1  0.6158309E+003  0.1156118E+03  0.7546771E-02  0.1250517E+00
         21   -1    0    0  503  501  0.00000000000E+00  0.00000000000E+00  0.87834078545E+03  0.87834078545E+03  0.00000000000E+00 0. -1.
         21   -1    0    0  501  502 -0.00000000000E+00 -0.00000000000E+00 -0.23961071662E+02  0.23961071662E+02  0.00000000000E+00 0. -1.
         21    1    1    2  503  504  0.94279198530E+02 -0.66914266446E+02  0.69972028553E+03  0.70920699680E+03  0.00000000000E+00 0. -1.
         21    1    1    2  504  502 -0.94279198530E+02  0.66914266446E+02  0.15465942826E+03  0.19309486032E+03  0.00000000000E+00 0. -1.
<mgrwt>
<rscale>  2 0.11561179E+03</rscale>
<asrwt>0</asrwt>
<pdfrwt beam="1">  1       21 0.13512933E+00 0.11561179E+03</pdfrwt>
<pdfrwt beam="2">  1       21 0.36863194E-02 0.11561179E+03</pdfrwt>
<totfact> 0.18145052E+05</totfact>
</mgrwt>
</event>
<event>
 4    1  0.6158309E+003  0.1252242E+03  0.7546771E-02  0.1234719E+00
         21   -1    0    0  503  501  0.00000000000E+00  0.00000000000E+00  0.50212053738E+03  0.50212053738E+03  0.00000000000E+00 0. -1.
         21   -1    0    0  501  502 -0.00000000000E+00 -0.00000000000E+00 -0.36933034241E+03  0.36933034241E+03  0.00000000000E+00 0.  1.
         21    1    1    2  503  504  0.60028489316E+02 -0.10989852350E+03  0.48329172383E+03  0.49925143497E+03  0.00000000000E+00 0. -1.
         21    1    1    2  504  502 -0.60028489316E+02  0.10989852350E+03 -0.35050152885E+03  0.37219944482E+03  0.00000000000E+00 0.  1.
<mgrwt>
<rscale>  2 0.12522422E+03</rscale>
<asrwt>0</asrwt>
<pdfrwt beam="1">  1       21 0.77249314E-01 0.12522422E+03</pdfrwt>
<pdfrwt beam="2">  1       21 0.56820053E-01 0.12522422E+03</pdfrwt>
<totfact> 0.46076519E+03</totfact>
</mgrwt>
</event>
<event>
 4    1  0.6158309E+003  0.2082263E+03  0.7546771E-02  0.1142978E+00
         21   -1    0    0  504  501  0.00000000000E+00  0.00000000000E+00  0.13739240812E+03  0.13739240812E+03  0.00000000000E+00 0. -1.
         21   -1    0    0  503  502 -0.00000000000E+00 -0.00000000000E+00 -0.38708500253E+03  0.38708500253E+03  0.00000000000E+00 0. -1.
         21    1    1    2  503  501  0.75752531213E+02  0.19395808674E+03 -0.12135821987E+02  0.20857963364E+03  0.00000000000E+00 0. -1.
         21    1    1    2  504  502 -0.75752531213E+02 -0.19395808674E+03 -0.23755677242E+03  0.31589777701E+03  0.00000000000E+00 0. -1.
<mgrwt>
<rscale>  2 0.20822628E+03</rscale>
<asrwt>0</asrwt>
<pdfrwt beam="1">  1       21 0.21137293E-01 0.20822628E+03</pdfrwt>
<pdfrwt beam="2">  1       21 0.59551539E-01 0.20822628E+03</pdfrwt>
<totfact> 0.54396694E+04</totfact>
</mgrwt>
</event>
<event>
 4    1  0.6158309E+003  0.1143708E+03  0.7546771E-02  0.1252683E+00
         21   -1    0    0  504  501  0.00000000000E+00  0.00000000000E+00  0.54798295980E+03  0.54798295980E+03  0.00000000000E+00 0. -1.
         21   -1    0    0  503  502 -0.00000000000E+00 -0.00000000000E+00 -0.63430142449E+02  0.63430142449E+02  0.00000000000E+00 0. -1.
         21    1    1    2  503  501  0.19687509935E+02 -0.11266355557E+03  0.85120604613E+00  0.11437394526E+03  0.00000000000E+00 0. -1.
         21    1    1    2  504  502 -0.19687509935E+02  0.11266355557E+03  0.48370161131E+03  0.49703915699E+03  0.00000000000E+00 0. -1.
<mgrwt>
<rscale>  2 0.11437078E+03</rscale>
<asrwt>0</asrwt>
<pdfrwt beam="1">  1       21 0.84305068E-01 0.11437078E+03</pdfrwt>
<pdfrwt beam="2">  1       21 0.97584838E-02 0.11437078E+03</pdfrwt>
<totfact> 0.10680410E+05</totfact>
</mgrwt>
</event>
<event>
 4    1  0.6158309E+003  0.1039896E+03  0.7546771E-02  0.1272123E+00
         21   -1    0    0  503  501  0.00000000000E+00  0.00000000000E+00  0.40763717668E+03  0.40763717668E+03  0.00000000000E+00 0. -1.
         21   -1    0    0  504  502 -0.00000000000E+00 -0.00000000000E+00 -0.28697485807E+02  0.28697485807E+02  0.00000000000E+00 0. -1.
         21    1    1    2  503  502 -0.23061382359E+02 -0.10140025436E+03  0.12948571059E+03  0.16607344215E+03  0.00000000000E+00 0. -1.
         21    1    1    2  504  501  0.23061382359E+02  0.10140025436E+03  0.24945398028E+03  0.27026122034E+03  0.00000000000E+00 0. -1.
<mgrwt>
<rscale>  2 0.10398961E+03</rscale>
<asrwt>0</asrwt>
<pdfrwt beam="1">  1       21 0.62713408E-01 0.10398961E+03</pdfrwt>
<pdfrwt beam="2">  1       21 0.44149981E-02 0.10398961E+03</pdfrwt>
<totfact> 0.78579106E+05</totfact>
</mgrwt>
</event>
<event>
 4    1  0.6158309E+003  0.1063424E+03  0.7546771E-02  0.1267497E+00
         21   -1    0    0  504  501  0.00000000000E+00  0.00000000000E+00  0.24870935731E+02  0.24870935731E+02  0.00000000000E+00 0.  1.
         21   -1    0    0  503  502 -0.00000000000E+00 -0.00000000000E+00 -0.54369231383E+03  0.54369231383E+03  0.00000000000E+00 0. -1.
         21    1    1    2  503  501 -0.97381147923E+02  0.42727310176E+02 -0.14439460084E+03  0.17932794472E+03  0.00000000000E+00 0.  1.
         21    1    1    2  504  502  0.97381147923E+02 -0.42727310176E+02 -0.37442677726E+03  0.38923530484E+03  0.00000000000E+00 0. -1.
<mgrwt>
<rscale>  2 0.10634242E+03</rscale>
<asrwt>0</asrwt>
<pdfrwt beam="1">  1       21 0.38262975E-02 0.10634242E+03</pdfrwt>
<pdfrwt beam="2">  1       21 0.83644978E-01 0.10634242E+03</pdfrwt>
<totfact> 0.53128408E+05</totfact>
</mgrwt>
</event>
<event>
 4    1  0.6158309E+003  0.1073231E+03  0.7546771E-02  0.1265609E+00
         21   -1    0    0  504  501  0.00000000000E+00  0.00000000000E+00  0.43745514368E+03  0.43745514368E+03  0.00000000000E+00 0. -1.
         21   -1    0    0  503  502 -0.00000000000E+00 -0.00000000000E+00 -0.74082224943E+02  0.74082224943E+02  0.00000000000E+00 0. -1.
         21    1    1    2  503  501  0.10454758644E+03  0.24249676481E+02  0.38703264476E+03  0.40163729003E+03  0.00000000000E+00 0. -1.
         21    1    1    2  504  502 -0.10454758644E+03 -0.24249676481E+02 -0.23659726017E+02  0.10990007859E+03  0.00000000000E+00 0. -1.
<mgrwt>
<rscale>  2 0.10732309E+03</rscale>
<asrwt>0</asrwt>
<pdfrwt beam="1">  1       21 0.67300790E-01 0.10732309E+03</pdfrwt>
<pdfrwt beam="2">  1       21 0.11397266E-01 0.10732309E+03</pdfrwt>
<totfact> 0.13404329E+05</totfact>
</mgrwt>
</event>
<event>
 4    1  0.6158309E+003  0.1052583E+03  0.7546771E-02  0.1269612E+00
         21   -1    0    0  503  501  0.00000000000E+00  0.00000000000E+00  0.18320568034E+02  0.18320568034E+02  0.00000000000E+00 0. -1.
         21   -1    0    0  504  502 -0.00000000000E+00 -0.00000000000E+00 -0.95559172741E+03  0.95559172741E+03  0.00000000000E+00 0.  1.
         21    1    1    2  503  502 -0.23315713193E+02 -0.10264345765E+03 -0.76369627741E+03  0.77091588776E+03  0.00000000000E+00 0.  1.
         21    1    1    2  504  501  0.23315713193E+02  0.10264345765E+03 -0.17357488197E+03  0.20299640768E+03  0.00000000000E+00 0. -1.
<mgrwt>
<rscale>  2 0.10525826E+03</rscale>
<asrwt>0</asrwt>
<pdfrwt beam="1">  1       21 0.28185493E-02 0.10525826E+03</pdfrwt>
<pdfrwt beam="2">  1       21 0.14701409E+00 0.10525826E+03</pdfrwt>
<totfact> 0.22863801E+05</totfact>
</mgrwt>
</event>
<event>
 4    1  0.6158309E+003  0.1235374E+03  0.7546771E-02  0.1237373E+00
         21   -1    0    0  502  501  0.00000000000E+00  0.00000000000E+00  0.22989788200E+03  0.22989788200E+03  0.00000000000E+00 0. -1.
         21   -1    0    0  503  502 -0.00000000000E+00 -0.00000000000E+00 -0.14255845014E+03  0.14255845014E+03  0.00000000000E+00 0.  1.
         21    1    1    2  503  504 -0.59736400296E+02  0.10813441938E+03 -0.92460388620E+02  0.15430623331E+03  0.00000000000E+00 0.  1.
         21    1    1    2  504  501  0.59736400296E+02 -0.10813441938E+03  0.17979982048E+03  0.21815009883E+03  0.00000000000E+00 0. -1.
<mgrwt>
<rscale>  2 0.12353740E+03</rscale>
<asrwt>0</asrwt>
<pdfrwt beam="1">  1       21 0.35368905E-01 0.12353740E+03</pdfrwt>
<pdfrwt beam="2">  1       21 0.21932069E-01 0.12353740E+03</pdfrwt>
<totfact> 0.15296003E+05</totfact>
</mgrwt>
</event>
<event>
 4    1  0.6158309E+003  0.1271693E+03  0.7546771E-02  0.1231717E+00
         21   -1    0    0  503  501  0.00000000000E+00  0.00000000000E+00  0.13132180663E+03  0.13132180663E+03  0.00000000000E+00 0.  1.
         21   -1    0    0  504  502 -0.00000000000E+00 -0.00000000000E+00 -0.12863001516E+03  0.12863001516E+03  0.00000000000E+00 0.  1.
         21    1    1    2  503  502  0.16167824520E+02 -0.12613739757E+03  0.28177995184E+02  0.13025375629E+03  0.00000000000E+00 0.  1.
         21    1    1    2  504  501 -0.16167824520E+02  0.12613739757E+03 -0.25486203717E+02  0.12969806550E+03  0.00000000000E+00 0.  1.
<mgrwt>
<rscale>  2 0.12716934E+03</rscale>
<asrwt>0</asrwt>
<pdfrwt beam="1">  1       21 0.20203355E-01 0.12716934E+03</pdfrwt>
<pdfrwt beam="2">  1       21 0.19789233E-01 0.12716934E+03</pdfrwt>
<totfact> 0.53720202E+05</totfact>
</mgrwt>
</event>
<event>
 4    1  0.6158309E+003  0.1118056E+03  0.7546771E-02  0.1257262E+00
         21   -1    0    0  504  501  0.00000000000E+00  0.00000000000E+00  0.24331955361E+03  0.24331955361E+03  0.00000000000E+00 0.  1.
         21   -1    0    0  503  502 -0.00000000000E+00 -0.00000000000E+00 -0.22220104631E+03  0.22220104631E+03  0.00000000000E+00 0. -1.
         21    1    1    2  503  501  0.16756859993E+02  0.11054278589E+03  0.21464521126E+03  0.24201873189E+03  0.00000000000E+00 0.  1.
         21    1    1    2  504  502 -0.16756859993E+02 -0.11054278589E+03 -0.19352670396E+03  0.22350186804E+03  0.00000000000E+00 0. -1.
<mgrwt>
<rscale>  2 0.11180563E+03</rscale>
<asrwt>0</asrwt>
<pdfrwt beam="1">  1       21 0.37433777E-01 0.11180563E+03</pdfrwt>
<pdfrwt beam="2">  1       21 0.34184776E-01 0.11180563E+03</pdfrwt>
<totfact> 0.59043291E+04</totfact>
</mgrwt>
</event>
<event>
 4    1  0.6158309E+003  0.1518974E+03  0.7546771E-02  0.1198161E+00
         21   -1    0    0  504  501  0.00000000000E+00  0.00000000000E+00  0.10180295451E+03  0.10180295451E+03  0.00000000000E+00 0.  1.
         21   -1    0    0  503  502 -0.00000000000E+00 -0.00000000000E+00 -0.47247142814E+03  0.47247142814E+03  0.00000000000E+00 0.  1.
         21    1    1    2  503  501 -0.15148505228E+03  0.11184733368E+02 -0.39245262574E+03  0.42082286389E+03  0.00000000000E+00 0.  1.
         21    1    1    2  504  502  0.15148505228E+03 -0.11184733368E+02  0.21784152111E+02  0.15345151875E+03  0.00000000000E+00 0.  1.
<mgrwt>
<rscale>  2 0.15189740E+03</rscale>
<asrwt>0</asrwt>
<pdfrwt beam="1">  1       21 0.15661993E-01 0.15189740E+03</pdfrwt>
<pdfrwt beam="2">  1       21 0.72687911E-01 0.15189740E+03</pdfrwt>
<totfact> 0.62992224E+04</totfact>
</mgrwt>
</event>
<event>
 4    1  0.6158309E+003  0.1538452E+03  0.7546771E-02  0.1195826E+00
         21   -1    0    0  504  501  0.00000000000E+00  0.00000000000E+00  0.40224218140E+03  0.40224218140E+03  0.00000000000E+00 0. -1.
         21   -1    0    0  503  502 -0.00000000000E+00 -0.00000000000E+00 -0.82980462925E+02  0.82980462925E+02  0.00000000000E+00 0. -1.
         21    1    1    2  503  501  0.15379969725E+03  0.37408658325E+01  0.29048478118E+03  0.32870921656E+03  0.00000000000E+00 0. -1.
         21    1    1    2  504  502 -0.15379969725E+03 -0.37408658325E+01  0.28776937298E+02  0.15651342777E+03  0.00000000000E+00 0. -1.
<mgrwt>
<rscale>  2 0.15384519E+03</rscale>
<asrwt>0</asrwt>
<pdfrwt beam="1">  1       21 0.61883411E-01 0.15384519E+03</pdfrwt>
<pdfrwt beam="2">  1       21 0.12766225E-01 0.15384519E+03</pdfrwt>
<totfact> 0.12911024E+05</totfact>
</mgrwt>
</event>
<event>
 4    1  0.6158309E+003  0.1187086E+03  0.7546771E-02  0.1245243E+00
         21   -1    0    0  503  501  0.00000000000E+00  0.00000000000E+00  0.22993491266E+03  0.22993491266E+03  0.00000000000E+00 0.  1.
         21   -1    0    0  504  502 -0.00000000000E+00 -0.00000000000E+00 -0.61299023902E+02  0.61299023902E+02  0.00000000000E+00 0.  1.
         21    1    1    2  503  502 -0.11819290433E+03 -0.11052845430E+02  0.86462704679E+02  0.14685886874E+03  0.00000000000E+00 0.  1.
         21    1    1    2  504  501  0.11819290433E+03  0.11052845430E+02  0.82173184082E+02  0.14437506782E+03  0.00000000000E+00 0.  1.
<mgrwt>
<rscale>  2 0.11870858E+03</rscale>
<asrwt>0</asrwt>
<pdfrwt beam="1">  1       21 0.35374601E-01 0.11870858E+03</pdfrwt>
<pdfrwt beam="2">  1       21 0.94306192E-02 0.11870858E+03</pdfrwt>
<totfact> 0.69673986E+05</totfact>
</mgrwt>
</event>
<event>
 4    1  0.6158309E+003  0.1227125E+03  0.7546771E-02  0.1238688E+00
         21   -1    0    0  503  501  0.00000000000E+00  0.00000000000E+00  0.33312737412E+03  0.33312737412E+03  0.00000000000E+00 0. -1.
         21   -1    0    0  504  502 -0.00000000000E+00 -0.00000000000E+00 -0.54601822422E+02  0.54601822422E+02  0.00000000000E+00 0.  1.
         21    1    1    2  503  502 -0.12021719194E+03  0.24620905158E+02  0.58830329113E+02  0.13608589138E+03  0.00000000000E+00 0.  1.
         21    1    1    2  504  501  0.12021719194E+03 -0.24620905158E+02  0.21969522258E+03  0.25164330516E+03  0.00000000000E+00 0. -1.
<mgrwt>
<rscale>  2 0.12271252E+03</rscale>
<asrwt>0</asrwt>
<pdfrwt beam="1">  1       21 0.51250364E-01 0.12271252E+03</pdfrwt>
<pdfrwt beam="2">  1       21 0.84002806E-02 0.12271252E+03</pdfrwt>
<totfact> 0.40353228E+05</totfact>
</mgrwt>
</event>
<event>
 4    1  0.6158309E+003  0.1041998E+03  0.7546771E-02  0.1271704E+00
         21   -1    0    0  504  501  0.00000000000E+00  0.00000000000E+00  0.32122987439E+02  0.32122987439E+02  0.00000000000E+00 0.  1.
         21   -1    0    0  503  502 -0.00000000000E+00 -0.00000000000E+00 -0.35186601959E+03  0.35186601959E+03  0.00000000000E+00 0.  1.
         21    1    1    2  503  501 -0.33482786122E+02  0.98673702053E+02 -0.19798362883E+03  0.22373000185E+03  0.00000000000E+00 0.  1.
         21    1    1    2  504  502  0.33482786122E+02 -0.98673702053E+02 -0.12175940332E+03  0.16025900518E+03  0.00000000000E+00 0.  1.
<mgrwt>
<rscale>  2 0.10419979E+03</rscale>
<asrwt>0</asrwt>
<pdfrwt beam="1">  1       21 0.49419979E-02 0.10419979E+03</pdfrwt>
<pdfrwt beam="2">  1       21 0.54133236E-01 0.10419979E+03</pdfrwt>
<totfact> 0.88711942E+05</totfact>
</mgrwt>
</event>
<event>
 4    1  0.6158309E+003  0.1229016E+03  0.7546771E-02  0.1238386E+00
         21   -1    0    0  504  501  0.00000000000E+00  0.00000000000E+00  0.24097694424E+03  0.24097694424E+03  0.00000000000E+00 0. -1.
         21   -1    0    0  501  502 -0.00000000000E+00 -0.00000000000E+00 -0.13352983289E+03  0.13352983289E+03  0.00000000000E+00 0.  1.
         21    1    1    2  503  502  0.74068600559E+02 -0.98074698958E+02 -0.82673580172E+02  0.14812064347E+03  0.00000000000E+00 0.  1.
         21    1    1    2  504  503 -0.74068600559E+02  0.98074698958E+02  0.19012069152E+03  0.22638613365E+03  0.00000000000E+00 0. -1.
<mgrwt>
<rscale>  2 0.12290160E+03</rscale>
<asrwt>0</asrwt>
<pdfrwt beam="1">  1       21 0.37073376E-01 0.12290160E+03</pdfrwt>
<pdfrwt beam="2">  1       21 0.20543051E-01 0.12290160E+03</pdfrwt>
<totfact> 0.15745801E+05</totfact>
</mgrwt>
</event>
<event>
 4    1  0.6158309E+003  0.1108425E+03  0.7546771E-02  0.1259018E+00
         21   -1    0    0  503  501  0.00000000000E+00  0.00000000000E+00  0.21006002173E+03  0.21006002173E+03  0.00000000000E+00 0.  1.
         21   -1    0    0  501  502 -0.00000000000E+00 -0.00000000000E+00 -0.63701316464E+03  0.63701316464E+03  0.00000000000E+00 0.  1.
         21    1    1    2  503  504 -0.12526619806E+02  0.11013234699E+03  0.19014814794E+03  0.22009627035E+03  0.00000000000E+00 0.  1.
         21    1    1    2  504  502  0.12526619806E+02 -0.11013234699E+03 -0.61710129085E+03  0.62697691602E+03  0.00000000000E+00 0.  1.
<mgrwt>
<rscale>  2 0.11084246E+03</rscale>
<asrwt>0</asrwt>
<pdfrwt beam="1">  1       21 0.32316926E-01 0.11084246E+03</pdfrwt>
<pdfrwt beam="2">  1       21 0.98002026E-01 0.11084246E+03</pdfrwt>
<totfact> 0.85131535E+03</totfact>
</mgrwt>
</event>
<event>
 4    1  0.6158309E+003  0.1017558E+03  0.7546771E-02  0.1276646E+00
         21   -1    0    0  502  501  0.00000000000E+00  0.00000000000E+00  0.33881192692E+03  0.33881192692E+03  0.00000000000E+00 0. -1.
         21   -1    0    0  504  502 -0.00000000000E+00 -0.00000000000E+00 -0.46277407073E+02  0.46277407073E+02  0.00000000000E+00 0. -1.
         21    1    1    2  503  501 -0.44307515096E+02  0.91602914408E+02  0.25847711991E+03  0.27778529720E+03  0.00000000000E+00 0. -1.
         21    1    1    2  504  503  0.44307515096E+02 -0.91602914408E+02  0.34057399935E+02  0.10730403679E+03  0.00000000000E+00 0. -1.
<mgrwt>
<rscale>  2 0.10175583E+03</rscale>
<asrwt>0</asrwt>
<pdfrwt beam="1">  1       21 0.52124910E-01 0.10175583E+03</pdfrwt>
<pdfrwt beam="2">  1       21 0.71196013E-02 0.10175583E+03</pdfrwt>
<totfact> 0.51846985E+05</totfact>
</mgrwt>
</event>
<event>
 4    1  0.6158309E+003  0.1763770E+03  0.7546771E-02  0.1171356E+00
         21   -1    0    0  504  501  0.00000000000E+00  0.00000000000E+00  0.52832560347E+02  0.52832560347E+02  0.00000000000E+00 0. -1.
         21   -1    0    0  503  502 -0.00000000000E+00 -0.00000000000E+00 -0.11525471059E+04  0.11525471059E+04  0.00000000000E+00 0. -1.
         21    1    1    2  503  501 -0.11287856044E+03  0.13552587476E+03 -0.97135888951E+03  0.98724207992E+03  0.00000000000E+00 0. -1.
         21    1    1    2  504  502  0.11287856044E+03 -0.13552587476E+03 -0.12835565607E+03  0.21813758635E+03  0.00000000000E+00 0. -1.
<mgrwt>
<rscale>  2 0.17637696E+03</rscale>
<asrwt>0</asrwt>
<pdfrwt beam="1">  1       21 0.81280861E-02 0.17637696E+03</pdfrwt>
<pdfrwt beam="2">  1       21 0.17731494E+00 0.17637696E+03</pdfrwt>
<totfact> 0.22416870E+04</totfact>
</mgrwt>
</event>
<event>
 4    1  0.6158309E+003  0.1055608E+03  0.7546771E-02  0.1269019E+00
         21   -1    0    0  504  501  0.00000000000E+00  0.00000000000E+00  0.13596716874E+03  0.13596716874E+03  0.00000000000E+00 0.  1.
         21   -1    0    0  503  502 -0.00000000000E+00 -0.00000000000E+00 -0.87056872495E+02  0.87056872495E+02  0.00000000000E+00 0.  1.
         21    1    1    2  503  501  0.10535223234E+03  0.66320003416E+01 -0.25421519056E+01  0.10559137666E+03  0.00000000000E+00 0.  1.
         21    1    1    2  504  502 -0.10535223234E+03 -0.66320003416E+01  0.51452448148E+02  0.11743266457E+03  0.00000000000E+00 0.  1.
<mgrwt>
<rscale>  2 0.10556077E+03</rscale>
<asrwt>0</asrwt>
<pdfrwt beam="1">  1       21 0.20918026E-01 0.10556077E+03</pdfrwt>
<pdfrwt beam="2">  1       21 0.13393365E-01 0.10556077E+03</pdfrwt>
<totfact> 0.10206034E+06</totfact>
</mgrwt>
</event>
<event>
 4    1  0.6158309E+003  0.1196212E+03  0.7546771E-02  0.1243723E+00
         21   -1    0    0  504  501  0.00000000000E+00  0.00000000000E+00  0.85879990947E+03  0.85879990947E+03  0.00000000000E+00 0. -1.
         21   -1    0    0  503  502 -0.00000000000E+00 -0.00000000000E+00 -0.32814053007E+02  0.32814053007E+02  0.00000000000E+00 0.  1.
         21    1    1    2  503  501  0.11278238513E+03  0.39866752308E+02  0.10021769638E+03  0.15605387212E+03  0.00000000000E+00 0.  1.
         21    1    1    2  504  502 -0.11278238513E+03 -0.39866752308E+02  0.72576816008E+03  0.73556009035E+03  0.00000000000E+00 0. -1.
<mgrwt>
<rscale>  2 0.11962117E+03</rscale>
<asrwt>0</asrwt>
<pdfrwt beam="1">  1       21 0.13212305E+00 0.11962117E+03</pdfrwt>
<pdfrwt beam="2">  1       21 0.50483165E-02 0.11962117E+03</pdfrwt>
<totfact> 0.11352940E+05</totfact>
</mgrwt>
</event>
<event>
 4    1  0.6158309E+003  0.1017988E+03  0.7546771E-02  0.1276558E+00
         21   -1    0    0  503  501  0.00000000000E+00  0.00000000000E+00  0.80756788581E+02  0.80756788581E+02  0.00000000000E+00 0. -1.
         21   -1    0    0  504  502 -0.00000000000E+00 -0.00000000000E+00 -0.22513724747E+03  0.22513724747E+03  0.00000000000E+00 0. -1.
         21    1    1    2  503  502 -0.38654127019E+02  0.94174599587E+02  0.28106268892E+02  0.10560757120E+03  0.00000000000E+00 0. -1.
         21    1    1    2  504  501  0.38654127019E+02 -0.94174599587E+02 -0.17248672778E+03  0.20028646485E+03  0.00000000000E+00 0. -1.
<mgrwt>
<rscale>  2 0.10179881E+03</rscale>
<asrwt>0</asrwt>
<pdfrwt beam="1">  1       21 0.12424121E-01 0.10179881E+03</pdfrwt>
<pdfrwt beam="2">  1       21 0.34636500E-01 0.10179881E+03</pdfrwt>
<totfact> 0.44823148E+05</totfact>
</mgrwt>
</event>
<event>
 4    1  0.6158309E+003  0.2245540E+03  0.7546771E-02  0.1130533E+00
         21   -1    0    0  502  501  0.00000000000E+00  0.00000000000E+00  0.22555424517E+03  0.22555424517E+03  0.00000000000E+00 0.  1.
         21   -1    0    0  503  502 -0.00000000000E+00 -0.00000000000E+00 -0.25605116485E+03  0.25605116485E+03  0.00000000000E+00 0. -1.
         21    1    1    2  503  504 -0.14428334119E+02 -0.22408995723E+03 -0.10102985529E+03  0.24623467955E+03  0.00000000000E+00 0. -1.
         21    1    1    2  504  501  0.14428334119E+02  0.22408995723E+03  0.70532935604E+02  0.23537073047E+03  0.00000000000E+00 0.  1.
<mgrwt>
<rscale>  2 0.22455397E+03</rscale>
<asrwt>0</asrwt>
<pdfrwt beam="1">  1       21 0.34700653E-01 0.22455397E+03</pdfrwt>
<pdfrwt beam="2">  1       21 0.39392487E-01 0.22455397E+03</pdfrwt>
<totfact> 0.48987380E+04</totfact>
</mgrwt>
</event>
<event>
 4    1  0.6158309E+003  0.1267333E+03  0.7546771E-02  0.1232385E+00
         21   -1    0    0  502  501  0.00000000000E+00  0.00000000000E+00  0.10573971243E+03  0.10573971243E+03  0.00000000000E+00 0.  1.
         21   -1    0    0  503  502 -0.00000000000E+00 -0.00000000000E+00 -0.30506176833E+03  0.30506176833E+03  0.00000000000E+00 0.  1.
         21    1    1    2  503  504  0.12631513485E+03 -0.10286144714E+02 -0.24520378453E+03  0.27601850303E+03  0.00000000000E+00 0.  1.
         21    1    1    2  504  501 -0.12631513485E+03  0.10286144714E+02  0.45881728631E+02  0.13478297774E+03  0.00000000000E+00 0.  1.
<mgrwt>
<rscale>  2 0.12673326E+03</rscale>
<asrwt>0</asrwt>
<pdfrwt beam="1">  1       21 0.16267649E-01 0.12673326E+03</pdfrwt>
<pdfrwt beam="2">  1       21 0.46932578E-01 0.12673326E+03</pdfrwt>
<totfact> 0.15015235E+05</totfact>
</mgrwt>
</event>
<event>
 4    1  0.6158309E+003  0.1332625E+03  0.7546771E-02  0.1222694E+00
         21   -1    0    0  503  501  0.00000000000E+00  0.00000000000E+00  0.35210805340E+03  0.35210805340E+03  0.00000000000E+00 0. -1.
         21   -1    0    0  504  502 -0.00000000000E+00 -0.00000000000E+00 -0.67245879590E+02  0.67245879590E+02  0.00000000000E+00 0.  1.
         21    1    1    2  503  502  0.11513679983E+03  0.67099951518E+02  0.37597247073E+02  0.13846457726E+03  0.00000000000E+00 0.  1.
         21    1    1    2  504  501 -0.11513679983E+03 -0.67099951518E+02  0.24726492674E+03  0.28088935573E+03  0.00000000000E+00 0. -1.
<mgrwt>
<rscale>  2 0.13326247E+03</rscale>
<asrwt>0</asrwt>
<pdfrwt beam="1">  1       21 0.54170469E-01 0.13326247E+03</pdfrwt>
<pdfrwt beam="2">  1       21 0.10345520E-01 0.13326247E+03</pdfrwt>
<totfact> 0.24978980E+05</totfact>
</mgrwt>
</event>
<event>
 4    1  0.6158309E+003  0.1347197E+03  0.7546771E-02  0.1220616E+00
         21   -1    0    0  502  501  0.00000000000E+00  0.00000000000E+00  0.71303802086E+02  0.71303802086E+02  0.00000000000E+00 0.  1.
         21   -1    0    0  504  502 -0.00000000000E+00 -0.00000000000E+00 -0.26042667064E+03  0.26042667064E+03  0.00000000000E+00 0.  1.
         21    1    1    2  503  501  0.95563832494E+02 -0.94957569037E+02 -0.69615815932E+02  0.15164348923E+03  0.00000000000E+00 0.  1.
         21    1    1    2  504  503 -0.95563832494E+02  0.94957569037E+02 -0.11950705262E+03  0.18008698350E+03  0.00000000000E+00 0.  1.
<mgrwt>
<rscale>  2 0.13471966E+03</rscale>
<asrwt>0</asrwt>
<pdfrwt beam="1">  1       21 0.10969816E-01 0.13471966E+03</pdfrwt>
<pdfrwt beam="2">  1       21 0.40065641E-01 0.13471966E+03</pdfrwt>
<totfact> 0.41740602E+05</totfact>
</mgrwt>
</event>
<event>
 4    1  0.6158309E+003  0.1187309E+03  0.7546771E-02  0.1245205E+00
         21   -1    0    0  504  501  0.00000000000E+00  0.00000000000E+00  0.35538707120E+03  0.35538707120E+03  0.00000000000E+00 0.  1.
         21   -1    0    0  501  502 -0.00000000000E+00 -0.00000000000E+00 -0.83702639968E+02  0.83702639968E+02  0.00000000000E+00 0.  1.
         21    1    1    2  503  502  0.31875818013E+02  0.11437201827E+03 -0.23399704631E+02  0.12101476155E+03  0.00000000000E+00 0.  1.
         21    1    1    2  504  503 -0.31875818013E+02 -0.11437201827E+03  0.29508413586E+03  0.31807494962E+03  0.00000000000E+00 0.  1.
<mgrwt>
<rscale>  2 0.11873090E+03</rscale>
<asrwt>0</asrwt>
<pdfrwt beam="1">  1       21 0.54674933E-01 0.11873090E+03</pdfrwt>
<pdfrwt beam="2">  1       21 0.12877329E-01 0.11873090E+03</pdfrwt>
<totfact> 0.16711268E+05</totfact>
</mgrwt>
</event>
<event>
 4    1  0.6158309E+003  0.1106040E+03  0.7546771E-02  0.1259455E+00
         21   -1    0    0  504  501  0.00000000000E+00  0.00000000000E+00  0.32227460622E+02  0.32227460622E+02  0.00000000000E+00 0.  1.
         21   -1    0    0  503  502 -0.00000000000E+00 -0.00000000000E+00 -0.21133000663E+04  0.21133000663E+04  0.00000000000E+00 0. -1.
         21    1    1    2  503  501 -0.48764912004E+02 -0.99273520877E+02 -0.68882302397E+02  0.13029973206E+03  0.00000000000E+00 0.  1.
         21    1    1    2  504  502  0.48764912004E+02  0.99273520877E+02 -0.20121903033E+04  0.20152277949E+04  0.00000000000E+00 0. -1.
<mgrwt>
<rscale>  2 0.11060402E+03</rscale>
<asrwt>0</asrwt>
<pdfrwt beam="1">  1       21 0.49580704E-02 0.11060402E+03</pdfrwt>
<pdfrwt beam="2">  1       21 0.32512312E+00 0.11060402E+03</pdfrwt>
<totfact> 0.75317208E+03</totfact>
</mgrwt>
</event>
<event>
 4    1  0.6158309E+003  0.1151867E+03  0.7546771E-02  0.1251255E+00
         21   -1    0    0  502  501  0.00000000000E+00  0.00000000000E+00  0.92886775411E+03  0.92886775411E+03  0.00000000000E+00 0.  1.
         21   -1    0    0  503  502 -0.00000000000E+00 -0.00000000000E+00 -0.72944220536E+02  0.72944220536E+02  0.00000000000E+00 0.  1.
         21    1    1    2  503  504  0.11516152114E+03 -0.24102089215E+01 -0.21230708928E+02  0.11712697409E+03  0.00000000000E+00 0.  1.
         21    1    1    2  504  501 -0.11516152114E+03  0.24102089215E+01  0.87715424251E+03  0.88468500055E+03  0.00000000000E+00 0.  1.
<mgrwt>
<rscale>  2 0.11518674E+03</rscale>
<asrwt>0</asrwt>
<pdfrwt beam="1">  1       21 0.14290272E+00 0.11518674E+03</pdfrwt>
<pdfrwt beam="2">  1       21 0.11222188E-01 0.11518674E+03</pdfrwt>
<totfact> 0.23754280E+04</totfact>
</mgrwt>
</event>
<event>
 4    1  0.6158309E+003  0.1077013E+03  0.7546771E-02  0.1264887E+00
         21   -1    0    0  503  501  0.00000000000E+00  0.00000000000E+00  0.16683647812E+03  0.16683647812E+03  0.00000000000E+00 0. -1.
         21   -1    0    0  501  502 -0.00000000000E+00 -0.00000000000E+00 -0.29080533686E+03  0.29080533686E+03  0.00000000000E+00 0.  1.
         21    1    1    2  503  504 -0.41560606074E+02 -0.99359357110E+02  0.13761734698E+03  0.17475153794E+03  0.00000000000E+00 0. -1.
         21    1    1    2  504  502  0.41560606074E+02  0.99359357110E+02 -0.26158620572E+03  0.28289027704E+03  0.00000000000E+00 0.  1.
<mgrwt>
<rscale>  2 0.10770128E+03</rscale>
<asrwt>0</asrwt>
<pdfrwt beam="1">  1       21 0.25667151E-01 0.10770128E+03</pdfrwt>
<pdfrwt beam="2">  1       21 0.44739282E-01 0.10770128E+03</pdfrwt>
<totfact> 0.71826804E+04</totfact>
</mgrwt>
</event>
<event>
 4    1  0.6158309E+003  0.1122986E+03  0.7546771E-02  0.1256371E+00
         21   -1    0    0  503  501  0.00000000000E+00  0.00000000000E+00  0.10503334996E+04  0.10503334996E+04  0.00000000000E+00 0. -1.
         21   -1    0    0  504  502 -0.00000000000E+00 -0.00000000000E+00 -0.22309974005E+02  0.22309974005E+02  0.00000000000E+00 0.  1.
         21    1    1    2  503  502  0.26959326614E+02 -0.10901457349E+03  0.14953937711E+03  0.18701071582E+03  0.00000000000E+00 0.  1.
         21    1    1    2  504  501 -0.26959326614E+02  0.10901457349E+03  0.87848414849E+03  0.88563275779E+03  0.00000000000E+00 0. -1.
<mgrwt>
<rscale>  2 0.11229863E+03</rscale>
<asrwt>0</asrwt>
<pdfrwt beam="1">  1       21 0.16158973E+00 0.11229863E+03</pdfrwt>
<pdfrwt beam="2">  1       21 0.34323045E-02 0.11229863E+03</pdfrwt>
<totfact> 0.12913815E+05</totfact>
</mgrwt>
</event>
<event>
 4    1  0.6158309E+003  0.1116212E+03  0.7546771E-02  0.1257597E+00
         21   -1    0    0  502  501  0.00000000000E+00  0.00000000000E+00  0.16574842571E+03  0.16574842571E+03  0.00000000000E+00 0.  1.
         21   -1    0    0  504  502 -0.00000000000E+00 -0.00000000000E+00 -0.17356988753E+03  0.17356988753E+03  0.00000000000E+00 0.  1.
         21    1    1    2  503  501  0.20748497805E+02  0.10967589176E+03  0.12383238850E+03  0.16671461195E+03  0.00000000000E+00 0.  1.
         21    1    1    2  504  503 -0.20748497805E+02 -0.10967589176E+03 -0.13165385032E+03  0.17260370129E+03  0.00000000000E+00 0.  1.
<mgrwt>
<rscale>  2 0.11162124E+03</rscale>
<asrwt>0</asrwt>
<pdfrwt beam="1">  1       21 0.25499758E-01 0.11162124E+03</pdfrwt>
<pdfrwt beam="2">  1       21 0.26703059E-01 0.11162124E+03</pdfrwt>
<totfact> 0.19907819E+05</totfact>
</mgrwt>
</event>
<event>
 4    1  0.6158309E+003  0.1404016E+03  0.7546771E-02  0.1212790E+00
         21   -1    0    0  503  501  0.00000000000E+00  0.00000000000E+00  0.20659365109E+03  0.20659365109E+03  0.00000000000E+00 0. -1.
         21   -1    0    0  504  502 -0.00000000000E+00 -0.00000000000E+00 -0.95468155916E+02  0.95468155916E+02  0.00000000000E+00 0. -1.
         21    1    1    2  503  502  0.13229934352E+03 -0.47005272201E+02  0.59048001360E+02  0.15231309325E+03  0.00000000000E+00 0. -1.
         21    1    1    2  504  501 -0.13229934352E+03  0.47005272201E+02  0.52077493812E+02  0.14974871376E+03  0.00000000000E+00 0. -1.
<mgrwt>
<rscale>  2 0.14040161E+03</rscale>
<asrwt>0</asrwt>
<pdfrwt beam="1">  1       21 0.31783639E-01 0.14040161E+03</pdfrwt>
<pdfrwt beam="2">  1       21 0.14687409E-01 0.14040161E+03</pdfrwt>
<totfact> 0.39150455E+05</totfact>
</mgrwt>
</event>
<event>
 4    1  0.6158309E+003  0.1415807E+03  0.7546771E-02  0.1211218E+00
         21   -1    0    0  504  501  0.00000000000E+00  0.00000000000E+00  0.56740616288E+03  0.56740616288E+03  0.00000000000E+00 0. -1.
         21   -1    0    0  503  502 -0.00000000000E+00 -0.00000000000E+00 -0.56190416503E+02  0.56190416503E+02  0.00000000000E+00 0. -1.
         21    1    1    2  503  501  0.11529058716E+02  0.14111046929E+03  0.65618489893E+02  0.15604765283E+03  0.00000000000E+00 0. -1.
         21    1    1    2  504  502 -0.11529058716E+02 -0.14111046929E+03  0.44559725648E+03  0.46754892655E+03  0.00000000000E+00 0. -1.
<mgrwt>
<rscale>  2 0.14158066E+03</rscale>
<asrwt>0</asrwt>
<pdfrwt beam="1">  1       21 0.87293252E-01 0.14158066E+03</pdfrwt>
<pdfrwt beam="2">  1       21 0.86446798E-02 0.14158066E+03</pdfrwt>
<totfact> 0.12048848E+05</totfact>
</mgrwt>
</event>
<event>
 4    1  0.6158309E+003  0.1197781E+03  0.7546771E-02  0.1243464E+00
         21   -1    0    0  503  501  0.00000000000E+00  0.00000000000E+00  0.94086466147E+02  0.94086466147E+02  0.00000000000E+00 0.  1.
         21   -1    0    0  504  502 -0.00000000000E+00 -0.00000000000E+00 -0.15596620388E+03  0.15596620388E+03  0.00000000000E+00 0.  1.
         21    1    1    2  503  502 -0.51308104223E+02 -0.10823246975E+03 -0.12261389632E+02  0.12040403125E+03  0.00000000000E+00 0.  1.
         21    1    1    2  504  501  0.51308104223E+02  0.10823246975E+03 -0.49618348096E+02  0.12964863877E+03  0.00000000000E+00 0.  1.
<mgrwt>
<rscale>  2 0.11977808E+03</rscale>
<asrwt>0</asrwt>
<pdfrwt beam="1">  1       21 0.14474841E-01 0.11977808E+03</pdfrwt>
<pdfrwt beam="2">  1       21 0.23994800E-01 0.11977808E+03</pdfrwt>
<totfact> 0.68875215E+05</totfact>
</mgrwt>
</event>
<event>
 4    1  0.6158309E+003  0.1046995E+03  0.7546771E-02  0.1270713E+00
         21   -1    0    0  502  501  0.00000000000E+00  0.00000000000E+00  0.13795549298E+04  0.13795549298E+04  0.00000000000E+00 0. -1.
         21   -1    0    0  503  502 -0.00000000000E+00 -0.00000000000E+00 -0.41619006441E+02  0.41619006441E+02  0.00000000000E+00 0.  1.
         21    1    1    2  503  504 -0.41532257432E+02 -0.96109592694E+02  0.29804191325E+02  0.10885895478E+03  0.00000000000E+00 0.  1.
         21    1    1    2  504  501  0.41532257432E+02  0.96109592694E+02  0.13081317321E+04  0.13123149815E+04  0.00000000000E+00 0. -1.
<mgrwt>
<rscale>  2 0.10469949E+03</rscale>
<asrwt>0</asrwt>
<pdfrwt beam="1">  1       21 0.21223918E+00 0.10469949E+03</pdfrwt>
<pdfrwt beam="2">  1       21 0.64029251E-02 0.10469949E+03</pdfrwt>
<totfact> 0.21551492E+04</totfact>
</mgrwt>
</event>
<event>
 4    1  0.6158309E+003  0.1302817E+03  0.7546771E-02  0.1227038E+00
         21   -1    0    0  502  501  0.00000000000E+00  0.00000000000E+00  0.12725171712E+04  0.12725171712E+04  0.00000000000E+00 0. -1.
         21   -1    0    0  503  502 -0.00000000000E+00 -0.00000000000E+00 -0.33541919134E+03  0.33541919134E+03  0.00000000000E+00 0. -1.
         21    1    1    2  503  504 -0.65469736160E+02 -0.11263670614E+03 -0.31927161427E+03  0.34482992562E+03  0.00000000000E+00 0. -1.
         21    1    1    2  504  501  0.65469736160E+02  0.11263670614E+03  0.12563695941E+04  0.12631064369E+04  0.00000000000E+00 0. -1.
<mgrwt>
<rscale>  2 0.13028167E+03</rscale>
<asrwt>0</asrwt>
<pdfrwt beam="1">  1       21 0.19577187E+00 0.13028167E+03</pdfrwt>
<pdfrwt beam="2">  1       21 0.51602953E-01 0.13028167E+03</pdfrwt>
<totfact> 0.55698567E+02</totfact>
</mgrwt>
</event>
<event>
 4    1  0.6158309E+003  0.1051642E+03  0.7546771E-02  0.1269796E+00
         21   -1    0    0  504  501  0.00000000000E+00  0.00000000000E+00  0.61476537717E+03  0.61476537717E+03  0.00000000000E+00 0. -1.
         21   -1    0    0  501  502 -0.00000000000E+00 -0.00000000000E+00 -0.80158610203E+02  0.80158610203E+02  0.00000000000E+00 0. -1.
         21    1    1    2  503  502  0.32916133609E+01 -0.10511268922E+03 -0.38694527683E+02  0.11205703291E+03  0.00000000000E+00 0. -1.
         21    1    1    2  504  503 -0.32916133609E+01  0.10511268922E+03  0.57330129465E+03  0.58286695446E+03  0.00000000000E+00 0. -1.
<mgrwt>
<rscale>  2 0.10516422E+03</rscale>
<asrwt>0</asrwt>
<pdfrwt beam="1">  1       21 0.94579286E-01 0.10516422E+03</pdfrwt>
<pdfrwt beam="2">  1       21 0.12332094E-01 0.10516422E+03</pdfrwt>
<totfact> 0.54853575E+04</totfact>
</mgrwt>
</event>
<event>
 4    1  0.6158309E+003  0.1796178E+03  0.7546771E-02  0.1168173E+00
         21   -1    0    0  503  501  0.00000000000E+00  0.00000000000E+00  0.82494814763E+02  0.82494814763E+02  0.00000000000E+00 0. -1.
         21   -1    0    0  504  502 -0.00000000000E+00 -0.00000000000E+00 -0.43283306395E+03  0.43283306395E+03  0.00000000000E+00 0. -1.
         21    1    1    2  503  502  0.13286937174E+03  0.12086479266E+03 -0.95147689066E+02  0.20326251693E+03  0.00000000000E+00 0. -1.
         21    1    1    2  504  501 -0.13286937174E+03 -0.12086479266E+03 -0.25519056012E+03  0.31206536179E+03  0.00000000000E+00 0. -1.
<mgrwt>
<rscale>  2 0.17961784E+03</rscale>
<asrwt>0</asrwt>
<pdfrwt beam="1">  1       21 0.12691510E-01 0.17961784E+03</pdfrwt>
<pdfrwt beam="2">  1       21 0.66589704E-01 0.17961784E+03</pdfrwt>
<totfact> 0.11027286E+05</totfact>
</mgrwt>
</event>
<event>
 4    1  0.6158309E+003  0.1680601E+03  0.7546771E-02  0.1179886E+00
         21   -1    0    0  504  501  0.00000000000E+00  0.00000000000E+00  0.37008514676E+03  0.37008514676E+03  0.00000000000E+00 0. -1.
         21   -1    0    0  503  502 -0.00000000000E+00 -0.00000000000E+00 -0.13976156966E+03  0.13976156966E+03  0.00000000000E+00 0. -1.
         21    1    1    2  503  501 -0.16648598933E+03  0.22948298814E+02  0.28691666700E+03  0.33251373334E+03  0.00000000000E+00 0. -1.
         21    1    1    2  504  502  0.16648598933E+03 -0.22948298814E+02 -0.56593089896E+02  0.17733298307E+03  0.00000000000E+00 0. -1.
<mgrwt>
<rscale>  2 0.16806014E+03</rscale>
<asrwt>0</asrwt>
<pdfrwt beam="1">  1       21 0.56936176E-01 0.16806014E+03</pdfrwt>
<pdfrwt beam="2">  1       21 0.21501780E-01 0.16806014E+03</pdfrwt>
<totfact> 0.59084832E+04</totfact>
</mgrwt>
</event>
<event>
 4    1  0.6158309E+003  0.1099259E+03  0.7546771E-02  0.1260707E+00
         21   -1    0    0  503  501  0.00000000000E+00  0.00000000000E+00  0.98243957163E+03  0.98243957163E+03  0.00000000000E+00 0.  1.
         21   -1    0    0  504  502 -0.00000000000E+00 -0.00000000000E+00 -0.21761625528E+02  0.21761625528E+02  0.00000000000E+00 0. -1.
         21    1    1    2  503  502  0.10791185770E+03 -0.20945848946E+02  0.81142066916E+03  0.81883282785E+03  0.00000000000E+00 0.  1.
         21    1    1    2  504  501 -0.10791185770E+03  0.20945848946E+02  0.14925727694E+03  0.18536836930E+03  0.00000000000E+00 0. -1.
<mgrwt>
<rscale>  2 0.10992587E+03</rscale>
<asrwt>0</asrwt>
<pdfrwt beam="1">  1       21 0.15114452E+00 0.10992587E+03</pdfrwt>
<pdfrwt beam="2">  1       21 0.33479432E-02 0.10992587E+03</pdfrwt>
<totfact> 0.16036772E+05</totfact>
</mgrwt>
</event>
<event>
 4    1  0.6158309E+003  0.1358015E+03  0.7546771E-02  0.1219093E+00
         21   -1    0    0  503  501  0.00000000000E+00  0.00000000000E+00  0.40430446560E+02  0.40430446560E+02  0.00000000000E+00 0. -1.
         21   -1    0    0  501  502 -0.00000000000E+00 -0.00000000000E+00 -0.52096445071E+03  0.52096445071E+03  0.00000000000E+00 0. -1.
         21    1    1    2  503  504  0.13214514729E+03  0.31300110528E+02 -0.14125310828E+03  0.19594508789E+03  0.00000000000E+00 0. -1.
         21    1    1    2  504  502 -0.13214514729E+03 -0.31300110528E+02 -0.33928089587E+03  0.36544980938E+03  0.00000000000E+00 0. -1.
<mgrwt>
<rscale>  2 0.13580146E+03</rscale>
<asrwt>0</asrwt>
<pdfrwt beam="1">  1       21 0.62200686E-02 0.13580146E+03</pdfrwt>
<pdfrwt beam="2">  1       21 0.80148379E-01 0.13580146E+03</pdfrwt>
<totfact> 0.25772466E+05</totfact>
</mgrwt>
</event>
<event>
 4    1  0.6158309E+003  0.1981665E+03  0.7546771E-02  0.1151295E+00
         21   -1    0    0  503  501  0.00000000000E+00  0.00000000000E+00  0.15464252443E+03  0.15464252443E+03  0.00000000000E+00 0.  1.
         21   -1    0    0  504  502 -0.00000000000E+00 -0.00000000000E+00 -0.38345725076E+03  0.38345725076E+03  0.00000000000E+00 0.  1.
         21    1    1    2  503  502 -0.53052365303E+02 -0.19093296196E+03 -0.27077175360E+03  0.33554029858E+03  0.00000000000E+00 0.  1.
         21    1    1    2  504  501  0.53052365303E+02  0.19093296196E+03  0.41957027265E+02  0.20255947661E+03  0.00000000000E+00 0.  1.
<mgrwt>
<rscale>  2 0.19816647E+03</rscale>
<asrwt>0</asrwt>
<pdfrwt beam="1">  1       21 0.23791158E-01 0.19816647E+03</pdfrwt>
<pdfrwt beam="2">  1       21 0.58993422E-01 0.19816647E+03</pdfrwt>
<totfact> 0.44602483E+04</totfact>
</mgrwt>
</event>
<event>
 4    1  0.6158309E+003  0.1048960E+03  0.7546771E-02  0.1270325E+00
         21   -1    0    0  503  501  0.00000000000E+00  0.00000000000E+00  0.25107478215E+02  0.25107478215E+02  0.00000000000E+00 0.  1.
         21   -1    0    0  504  502 -0.00000000000E+00 -0.00000000000E+00 -0.46659684451E+03  0.46659684451E+03  0.00000000000E+00 0.  1.
         21    1    1    2  503  502 -0.69706072306E+02 -0.78385137760E+02 -0.28135021004E+03  0.30026839166E+03  0.00000000000E+00 0.  1.
         21    1    1    2  504  501  0.69706072306E+02  0.78385137760E+02 -0.16013915626E+03  0.19143593107E+03  0.00000000000E+00 0.  1.
<mgrwt>
<rscale>  2 0.10489598E+03</rscale>
<asrwt>0</asrwt>
<pdfrwt beam="1">  1       21 0.38626891E-02 0.10489598E+03</pdfrwt>
<pdfrwt beam="2">  1       21 0.71784127E-01 0.10489598E+03</pdfrwt>
<totfact> 0.73313139E+05</totfact>
</mgrwt>
</event>
<event>
 4    1  0.6158309E+003  0.1036541E+03  0.7546771E-02  0.1272794E+00
         21   -1    0    0  504  501  0.00000000000E+00  0.00000000000E+00  0.48723793176E+02  0.48723793176E+02  0.00000000000E+00 0. -1.
         21   -1    0    0  503  502 -0.00000000000E+00 -0.00000000000E+00 -0.64477375403E+03  0.64477375403E+03  0.00000000000E+00 0.  1.
         21    1    1    2  503  501 -0.59212977823E+02  0.85076398397E+02 -0.57929815381E+03  0.58849853128E+03  0.00000000000E+00 0.  1.
         21    1    1    2  504  502  0.59212977823E+02 -0.85076398397E+02 -0.16751807043E+02  0.10499901593E+03  0.00000000000E+00 0. -1.
<mgrwt>
<rscale>  2 0.10365409E+03</rscale>
<asrwt>0</asrwt>
<pdfrwt beam="1">  1       21 0.74959680E-02 0.10365409E+03</pdfrwt>
<pdfrwt beam="2">  1       21 0.99195964E-01 0.10365409E+03</pdfrwt>
<totfact> 0.11670815E+05</totfact>
</mgrwt>
</event>
<event>
 4    1  0.6158309E+003  0.1164242E+03  0.7546771E-02  0.1249115E+00
         21   -1    0    0  503  501  0.00000000000E+00  0.00000000000E+00  0.38007656375E+03  0.38007656375E+03  0.00000000000E+00 0. -1.
         21   -1    0    0  501  502 -0.00000000000E+00 -0.00000000000E+00 -0.22644192902E+03  0.22644192902E+03  0.00000000000E+00 0. -1.
         21    1    1    2  503  504  0.36707066559E+02  0.11048611398E+03  0.35517362844E+03  0.37376850651E+03  0.00000000000E+00 0. -1.
         21    1    1    2  504  502 -0.36707066559E+02 -0.11048611398E+03 -0.20153899371E+03  0.23274998626E+03  0.00000000000E+00 0. -1.
<mgrwt>
<rscale>  2 0.11642418E+03</rscale>
<asrwt>0</asrwt>
<pdfrwt beam="1">  1       21 0.58473318E-01 0.11642418E+03</pdfrwt>
<pdfrwt beam="2">  1       21 0.34837220E-01 0.11642418E+03</pdfrwt>
<totfact> 0.22858982E+04</totfact>
</mgrwt>
</event>
<event>
 4    1  0.6158309E+003  0.1008071E+03  0.7546771E-02  0.1278608E+00
         21   -1    0    0  504  501  0.00000000000E+00  0.00000000000E+00  0.22000216833E+02  0.22000216833E+02  0.00000000000E+00 0. -1.
         21   -1    0    0  503  502 -0.00000000000E+00 -0.00000000000E+00 -0.51767030772E+03  0.51767030772E+03  0.00000000000E+00 0.  1.
         21    1    1    2  503  501 -0.96547937682E+02  0.28992697819E+02 -0.15927422667E+03  0.18849498688E+03  0.00000000000E+00 0. -1.
         21    1    1    2  504  502  0.96547937682E+02 -0.28992697819E+02 -0.33639586422E+03  0.35117553768E+03  0.00000000000E+00 0.  1.
<mgrwt>
<rscale>  2 0.10080715E+03</rscale>
<asrwt>0</asrwt>
<pdfrwt beam="1">  1       21 0.33846487E-02 0.10080715E+03</pdfrwt>
<pdfrwt beam="2">  1       21 0.79641588E-01 0.10080715E+03</pdfrwt>
<totfact> 0.72519992E+05</totfact>
</mgrwt>
</event>
<event>
 4    1  0.6158309E+003  0.1054751E+03  0.7546771E-02  0.1269186E+00
         21   -1    0    0  503  501  0.00000000000E+00  0.00000000000E+00  0.27423455144E+04  0.27423455144E+04  0.00000000000E+00 0.  1.
         21   -1    0    0  504  502 -0.00000000000E+00 -0.00000000000E+00 -0.48142735918E+01  0.48142735918E+01  0.00000000000E+00 0.  1.
         21    1    1    2  503  502 -0.33770489097E+02 -0.99922685548E+02  0.19136305221E+04  0.19165350934E+04  0.00000000000E+00 0.  1.
         21    1    1    2  504  501  0.33770489097E+02  0.99922685548E+02  0.82390071870E+03  0.83062469461E+03  0.00000000000E+00 0.  1.
<mgrwt>
<rscale>  2 0.10547506E+03</rscale>
<asrwt>0</asrwt>
<pdfrwt beam="1">  1       21 0.42189806E+00 0.10547506E+03</pdfrwt>
<pdfrwt beam="2">  1       21 0.74065967E-03 0.10547506E+03</pdfrwt>
<totfact> 0.43644949E+04</totfact>
</mgrwt>
</event>
<event>
 4    1  0.6158309E+003  0.1034397E+03  0.7546771E-02  0.1273225E+00
         21   -1    0    0  503  501  0.00000000000E+00  0.00000000000E+00  0.94965159719E+03  0.94965159719E+03  0.00000000000E+00 0.  1.
         21   -1    0    0  504  502 -0.00000000000E+00 -0.00000000000E+00 -0.11268726703E+02  0.11268726703E+02  0.00000000000E+00 0.  1.
         21    1    1    2  503  502  0.68711058543E+02  0.77321140517E+02  0.46332396664E+03  0.47473030913E+03  0.00000000000E+00 0.  1.
         21    1    1    2  504  501 -0.68711058543E+02 -0.77321140517E+02  0.47505890384E+03  0.48619001476E+03  0.00000000000E+00 0.  1.
<mgrwt>
<rscale>  2 0.10343968E+03</rscale>
<asrwt>0</asrwt>
<pdfrwt beam="1">  1       21 0.14610018E+00 0.10343968E+03</pdfrwt>
<pdfrwt beam="2">  1       21 0.17336510E-02 0.10343968E+03</pdfrwt>
<totfact> 0.50875652E+05</totfact>
</mgrwt>
</event>
<event>
 4    1  0.6158309E+003  0.1315598E+03  0.7546771E-02  0.1225160E+00
         21   -1    0    0  502  501  0.00000000000E+00  0.00000000000E+00  0.18321938963E+04  0.18321938963E+04  0.00000000000E+00 0.  1.
         21   -1    0    0  504  502 -0.00000000000E+00 -0.00000000000E+00 -0.96428255000E+01  0.96428255000E+01  0.00000000000E+00 0.  1.
         21    1    1    2  503  501 -0.48262224229E+02  0.12238760622E+03  0.10426519746E+04  0.10509191732E+04  0.00000000000E+00 0.  1.
         21    1    1    2  504  503  0.48262224229E+02 -0.12238760622E+03  0.77989909617E+03  0.79091754858E+03  0.00000000000E+00 0.  1.
<mgrwt>
<rscale>  2 0.13155975E+03</rscale>
<asrwt>0</asrwt>
<pdfrwt beam="1">  1       21 0.28187571E+00 0.13155975E+03</pdfrwt>
<pdfrwt beam="2">  1       21 0.14835131E-02 0.13155975E+03</pdfrwt>
<totfact> 0.91436659E+04</totfact>
</mgrwt>
</event>
<event>
 4    1  0.6158309E+003  0.1766761E+03  0.7546771E-02  0.1171059E+00
         21   -1    0    0  503  501  0.00000000000E+00  0.00000000000E+00  0.80269959198E+02  0.80269959198E+02  0.00000000000E+00 0.  1.
         21   -1    0    0  501  502 -0.00000000000E+00 -0.00000000000E+00 -0.38946424219E+03  0.38946424219E+03  0.00000000000E+00 0.  1.
         21    1    1    2  503  504  0.17666835515E+03 -0.16548959866E+01 -0.14541015407E+03  0.22881992767E+03  0.00000000000E+00 0.  1.
         21    1    1    2  504  502 -0.17666835515E+03  0.16548959866E+01 -0.16378412892E+03  0.24091427371E+03  0.00000000000E+00 0.  1.
<mgrwt>
<rscale>  2 0.17667611E+03</rscale>
<asrwt>0</asrwt>
<pdfrwt beam="1">  1       21 0.12349225E-01 0.17667611E+03</pdfrwt>
<pdfrwt beam="2">  1       21 0.59917575E-01 0.17667611E+03</pdfrwt>
<totfact> 0.14564841E+05</totfact>
</mgrwt>
</event>
<event>
 4    1  0.6158309E+003  0.1004742E+03  0.7546771E-02  0.1279302E+00
         21   -1    0    0  503  501  0.00000000000E+00  0.00000000000E+00  0.17608848580E+03  0.17608848580E+03  0.00000000000E+00 0.  1.
         21   -1    0    0  504  502 -0.00000000000E+00 -0.00000000000E+00 -0.61823562651E+02  0.61823562651E+02  0.00000000000E+00 0.  1.
         21    1    1    2  503  502 -0.77906994216E+02  0.63447353417E+02  0.25060275667E+02  0.10355232407E+03  0.00000000000E+00 0.  1.
         21    1    1    2  504  501  0.77906994216E+02 -0.63447353417E+02  0.89204647480E+02  0.13435972438E+03  0.00000000000E+00 0.  1.
<mgrwt>
<rscale>  2 0.10047421E+03</rscale>
<asrwt>0</asrwt>
<pdfrwt beam="1">  1       21 0.27090536E-01 0.10047421E+03</pdfrwt>
<pdfrwt beam="2">  1       21 0.95113174E-02 0.10047421E+03</pdfrwt>
<totfact> 0.11462432E+06</totfact>
</mgrwt>
</event>
<event>
 4    1  0.6158309E+003  0.1474859E+03  0.7546771E-02  0.1203597E+00
         21   -1    0    0  502  501  0.00000000000E+00  0.00000000000E+00  0.12442833289E+03  0.12442833289E+03  0.00000000000E+00 0.  1.
         21   -1    0    0  504  502 -0.00000000000E+00 -0.00000000000E+00 -0.26893442326E+03  0.26893442326E+03  0.00000000000E+00 0.  1.
         21    1    1    2  503  501  0.14387660546E+03  0.32428690405E+02  0.44099726697E+02  0.15393792079E+03  0.00000000000E+00 0.  1.
         21    1    1    2  504  503 -0.14387660546E+03 -0.32428690405E+02 -0.18860581706E+03  0.23942483537E+03  0.00000000000E+00 0.  1.
<mgrwt>
<rscale>  2 0.14748592E+03</rscale>
<asrwt>0</asrwt>
<pdfrwt beam="1">  1       21 0.19142821E-01 0.14748592E+03</pdfrwt>
<pdfrwt beam="2">  1       21 0.41374526E-01 0.14748592E+03</pdfrwt>
<totfact> 0.14301593E+05</totfact>
</mgrwt>
</event>
<event>
 4    1  0.6158309E+003  0.1034290E+03  0.7546771E-02  0.1273246E+00
         21   -1    0    0  503  501  0.00000000000E+00  0.00000000000E+00  0.69457027638E+02  0.69457027638E+02  0.00000000000E+00 0. -1.
         21   -1    0    0  504  502 -0.00000000000E+00 -0.00000000000E+00 -0.16135908866E+03  0.16135908866E+03  0.00000000000E+00 0. -1.
         21    1    1    2  503  502 -0.50477935766E+02  0.90274803133E+02 -0.70568852819E+02  0.12520992400E+03  0.00000000000E+00 0. -1.
         21    1    1    2  504  501  0.50477935766E+02 -0.90274803133E+02 -0.21333208207E+02  0.10560619230E+03  0.00000000000E+00 0. -1.
<mgrwt>
<rscale>  2 0.10342902E+03</rscale>
<asrwt>0</asrwt>
<pdfrwt beam="1">  1       21 0.10685697E-01 0.10342902E+03</pdfrwt>
<pdfrwt beam="2">  1       21 0.24824475E-01 0.10342902E+03</pdfrwt>
<totfact> 0.11042366E+06</totfact>
</mgrwt>
</event>
<event>
 4    1  0.6158309E+003  0.1360641E+03  0.7546771E-02  0.1218725E+00
         21   -1    0    0  504  501  0.00000000000E+00  0.00000000000E+00  0.18131805411E+02  0.18131805411E+02  0.00000000000E+00 0.  1.
         21   -1    0    0  503  502 -0.00000000000E+00 -0.00000000000E+00 -0.10234740770E+04  0.10234740770E+04  0.00000000000E+00 0.  1.
         21    1    1    2  503  501  0.95046608698E+02  0.97363185375E+02 -0.52802635398E+03  0.54527541498E+03  0.00000000000E+00 0.  1.
         21    1    1    2  504  502 -0.95046608698E+02 -0.97363185375E+02 -0.47731591760E+03  0.49633046742E+03  0.00000000000E+00 0.  1.
<mgrwt>
<rscale>  2 0.13606413E+03</rscale>
<asrwt>0</asrwt>
<pdfrwt beam="1">  1       21 0.27895081E-02 0.13606413E+03</pdfrwt>
<pdfrwt beam="2">  1       21 0.15745757E+00 0.13606413E+03</pdfrwt>
<totfact> 0.19200965E+05</totfact>
</mgrwt>
</event>
<event>
 4    1  0.6158309E+003  0.1556530E+03  0.7546771E-02  0.1193694E+00
         21   -1    0    0  503  501  0.00000000000E+00  0.00000000000E+00  0.86462497059E+02  0.86462497059E+02  0.00000000000E+00 0.  1.
         21   -1    0    0  504  502 -0.00000000000E+00 -0.00000000000E+00 -0.28058417649E+03  0.28058417649E+03  0.00000000000E+00 0. -1.
         21    1    1    2  503  502  0.15013964326E+03 -0.41060217905E+02 -0.90379445274E+02  0.17998971666E+03  0.00000000000E+00 0. -1.
         21    1    1    2  504  501 -0.15013964326E+03  0.41060217905E+02 -0.10374223415E+03  0.18705695689E+03  0.00000000000E+00 0.  1.
<mgrwt>
<rscale>  2 0.15565299E+03</rscale>
<asrwt>0</asrwt>
<pdfrwt beam="1">  1       21 0.13301923E-01 0.15565299E+03</pdfrwt>
<pdfrwt beam="2">  1       21 0.43166796E-01 0.15565299E+03</pdfrwt>
<totfact> 0.25406077E+05</totfact>
</mgrwt>
</event>
<event>
 4    1  0.6158309E+003  0.1216568E+03  0.7546771E-02  0.1240389E+00
         21   -1    0    0  503  501  0.00000000000E+00  0.00000000000E+00  0.16455803451E+03  0.16455803451E+03  0.00000000000E+00 0. -1.
         21   -1    0    0  504  502 -0.00000000000E+00 -0.00000000000E+00 -0.90008441490E+02  0.90008441490E+02  0.00000000000E+00 0. -1.
         21    1    1    2  503  502 -0.11976153872E+03 -0.21390491055E+02  0.40780031098E+02  0.12830974320E+03  0.00000000000E+00 0. -1.
         21    1    1    2  504  501  0.11976153872E+03  0.21390491055E+02  0.33769561926E+02  0.12625673280E+03  0.00000000000E+00 0. -1.
<mgrwt>
<rscale>  2 0.12165681E+03</rscale>
<asrwt>0</asrwt>
<pdfrwt beam="1">  1       21 0.25316621E-01 0.12165681E+03</pdfrwt>
<pdfrwt beam="2">  1       21 0.13847453E-01 0.12165681E+03</pdfrwt>
<totfact> 0.67401812E+05</totfact>
</mgrwt>
</event>
<event>
 4    1  0.6158309E+003  0.1136024E+03  0.7546771E-02  0.1254041E+00
         21   -1    0    0  503  501  0.00000000000E+00  0.00000000000E+00  0.19131297577E+03  0.19131297577E+03  0.00000000000E+00 0.  1.
         21   -1    0    0  501  502 -0.00000000000E+00 -0.00000000000E+00 -0.92297771611E+02  0.92297771611E+02  0.00000000000E+00 0. -1.
         21    1    1    2  503  504 -0.89148920572E+02  0.70412826405E+02  0.12307327310E+03  0.16748888534E+03  0.00000000000E+00 0.  1.
         21    1    1    2  504  502  0.89148920572E+02 -0.70412826405E+02 -0.24058068945E+02  0.11612186204E+03  0.00000000000E+00 0. -1.
<mgrwt>
<rscale>  2 0.11360236E+03</rscale>
<asrwt>0</asrwt>
<pdfrwt beam="1">  1       21 0.29432766E-01 0.11360236E+03</pdfrwt>
<pdfrwt beam="2">  1       21 0.14199657E-01 0.11360236E+03</pdfrwt>
<totfact> 0.48391283E+05</totfact>
</mgrwt>
</event>
<event>
 4    1  0.6158309E+003  0.1062392E+03  0.7546771E-02  0.1267697E+00
         21   -1    0    0  504  501  0.00000000000E+00  0.00000000000E+00  0.46843204816E+02  0.46843204816E+02  0.00000000000E+00 0. -1.
         21   -1    0    0  503  502 -0.00000000000E+00 -0.00000000000E+00 -0.76216887128E+03  0.76216887128E+03  0.00000000000E+00 0.  1.
         21    1    1    2  503  501 -0.10079817612E+03  0.33563421589E+02 -0.23151903524E+02  0.10873263639E+03  0.00000000000E+00 0. -1.
         21    1    1    2  504  502  0.10079817612E+03 -0.33563421589E+02 -0.69217376294E+03  0.70027943971E+03  0.00000000000E+00 0.  1.
<mgrwt>
<rscale>  2 0.10623924E+03</rscale>
<asrwt>0</asrwt>
<pdfrwt beam="1">  1       21 0.72066476E-02 0.10623924E+03</pdfrwt>
<pdfrwt beam="2">  1       21 0.11725674E+00 0.10623924E+03</pdfrwt>
<totfact> 0.83949219E+04</totfact>
</mgrwt>
</event>
<event>
 4    1  0.6158309E+003  0.1198402E+03  0.7546771E-02  0.1243361E+00
         21   -1    0    0  503  501  0.00000000000E+00  0.00000000000E+00  0.63528402585E+01  0.63528402585E+01  0.00000000000E+00 0.  1.
         21   -1    0    0  504  502 -0.00000000000E+00 -0.00000000000E+00 -0.23414889882E+04  0.23414889882E+04  0.00000000000E+00 0.  1.
         21    1    1    2  503  502 -0.92465016244E+02  0.76235708756E+02 -0.94946844477E+03  0.95700156224E+03  0.00000000000E+00 0.  1.
         21    1    1    2  504  501  0.92465016244E+02 -0.76235708756E+02 -0.13856677032E+04  0.13908402662E+04  0.00000000000E+00 0.  1.
<mgrwt>
<rscale>  2 0.11984015E+03</rscale>
<asrwt>0</asrwt>
<pdfrwt beam="1">  1       21 0.97736094E-03 0.11984015E+03</pdfrwt>
<pdfrwt beam="2">  1       21 0.36022874E+00 0.11984015E+03</pdfrwt>
<totfact> 0.64681651E+04</totfact>
</mgrwt>
</event>
<event>
 4    1  0.6158309E+003  0.1077977E+03  0.7546771E-02  0.1264703E+00
         21   -1    0    0  502  501  0.00000000000E+00  0.00000000000E+00  0.10559602387E+02  0.10559602387E+02  0.00000000000E+00 0. -1.
         21   -1    0    0  503  502 -0.00000000000E+00 -0.00000000000E+00 -0.30150183404E+04  0.30150183404E+04  0.00000000000E+00 0. -1.
         21    1    1    2  503  504 -0.10693023944E+03 -0.13647760969E+02 -0.27077331023E+04  0.27098780214E+04  0.00000000000E+00 0. -1.
         21    1    1    2  504  501  0.10693023944E+03  0.13647760969E+02 -0.29672563576E+03  0.31569992146E+03  0.00000000000E+00 0. -1.
<mgrwt>
<rscale>  2 0.10779767E+03</rscale>
<asrwt>0</asrwt>
<pdfrwt beam="1">  1       21 0.16245531E-02 0.10779767E+03</pdfrwt>
<pdfrwt beam="2">  1       21 0.46384929E+00 0.10779767E+03</pdfrwt>
<totfact> 0.67729005E+03</totfact>
</mgrwt>
</event>
<event>
 4    1  0.6158309E+003  0.1849012E+03  0.7546771E-02  0.1163142E+00
         21   -1    0    0  504  501  0.00000000000E+00  0.00000000000E+00  0.38784822022E+03  0.38784822022E+03  0.00000000000E+00 0. -1.
         21   -1    0    0  503  502 -0.00000000000E+00 -0.00000000000E+00 -0.11283162826E+03  0.11283162826E+03  0.00000000000E+00 0. -1.
         21    1    1    2  503  501  0.15574744338E+03 -0.99655285310E+02  0.25459570082E+03  0.31465443408E+03  0.00000000000E+00 0. -1.
         21    1    1    2  504  502 -0.15574744338E+03  0.99655285310E+02  0.20420891142E+02  0.18602541440E+03  0.00000000000E+00 0. -1.
<mgrwt>
<rscale>  2 0.18490117E+03</rscale>
<asrwt>0</asrwt>
<pdfrwt beam="1">  1       21 0.59668956E-01 0.18490117E+03</pdfrwt>
<pdfrwt beam="2">  1       21 0.17358712E-01 0.18490117E+03</pdfrwt>
<totfact> 0.78969059E+04</totfact>
</mgrwt>
</event>
<event>
 4    1  0.6158309E+003  0.1427693E+03  0.7546771E-02  0.1209650E+00
         21   -1    0    0  502  501  0.00000000000E+00  0.00000000000E+00  0.13642885733E+03  0.13642885733E+03  0.00000000000E+00 0. -1.
         21   -1    0    0  504  502 -0.00000000000E+00 -0.00000000000E+00 -0.95224885716E+03  0.95224885716E+03  0.00000000000E+00 0. -1.
         21    1    1    2  503  501  0.54313983216E+02  0.13203437407E+03  0.91905578004E+02  0.16979316823E+03  0.00000000000E+00 0. -1.
         21    1    1    2  504  503 -0.54313983216E+02 -0.13203437407E+03 -0.90772557783E+03  0.91888454626E+03  0.00000000000E+00 0. -1.
<mgrwt>
<rscale>  2 0.14276934E+03</rscale>
<asrwt>0</asrwt>
<pdfrwt beam="1">  1       21 0.20989055E-01 0.14276934E+03</pdfrwt>
<pdfrwt beam="2">  1       21 0.14649982E+00 0.14276934E+03</pdfrwt>
<totfact> 0.70050062E+03</totfact>
</mgrwt>
</event>
<event>
 4    1  0.6158309E+003  0.1268099E+03  0.7546771E-02  0.1232268E+00
         21   -1    0    0  504  501  0.00000000000E+00  0.00000000000E+00  0.20102620468E+03  0.20102620468E+03  0.00000000000E+00 0.  1.
         21   -1    0    0  503  502 -0.00000000000E+00 -0.00000000000E+00 -0.95079790266E+02  0.95079790266E+02  0.00000000000E+00 0.  1.
         21    1    1    2  503  501 -0.18329793247E+02 -0.12547816799E+03 -0.60016677861E+01  0.12695184906E+03  0.00000000000E+00 0.  1.
         21    1    1    2  504  502  0.18329793247E+02  0.12547816799E+03  0.11194808220E+03  0.16915414589E+03  0.00000000000E+00 0.  1.
<mgrwt>
<rscale>  2 0.12680990E+03</rscale>
<asrwt>0</asrwt>
<pdfrwt beam="1">  1       21 0.30927108E-01 0.12680990E+03</pdfrwt>
<pdfrwt beam="2">  1       21 0.14627660E-01 0.12680990E+03</pdfrwt>
<totfact> 0.41655028E+05</totfact>
</mgrwt>
</event>
<event>
 4    1  0.6158309E+003  0.1770013E+03  0.7546771E-02  0.1170737E+00
         21   -1    0    0  503  501  0.00000000000E+00  0.00000000000E+00  0.18792507278E+03  0.18792507278E+03  0.00000000000E+00 0.  1.
         21   -1    0    0  504  502 -0.00000000000E+00 -0.00000000000E+00 -0.19671667069E+03  0.19671667069E+03  0.00000000000E+00 0.  1.
         21    1    1    2  503  502 -0.11531354503E+01  0.17699750774E+03 -0.79505681391E+02  0.19403762738E+03  0.00000000000E+00 0.  1.
         21    1    1    2  504  501  0.11531354503E+01 -0.17699750774E+03  0.70714083485E+02  0.19060411609E+03  0.00000000000E+00 0.  1.
<mgrwt>
<rscale>  2 0.17700126E+03</rscale>
<asrwt>0</asrwt>
<pdfrwt beam="1">  1       21 0.28911550E-01 0.17700126E+03</pdfrwt>
<pdfrwt beam="2">  1       21 0.30264103E-01 0.17700126E+03</pdfrwt>
<totfact> 0.12061153E+05</totfact>
</mgrwt>
</event>
<event>
 4    1  0.6158309E+003  0.1075243E+03  0.7546771E-02  0.1265224E+00
         21   -1    0    0  503  501  0.00000000000E+00  0.00000000000E+00  0.51611625025E+02  0.51611625025E+02  0.00000000000E+00 0.  1.
         21   -1    0    0  504  502 -0.00000000000E+00 -0.00000000000E+00 -0.22422641945E+03  0.22422641945E+03  0.00000000000E+00 0.  1.
         21    1    1    2  503  502 -0.92012965295E+02  0.55633614141E+02 -0.90598949672E+02  0.14060460336E+03  0.00000000000E+00 0.  1.
         21    1    1    2  504  501  0.92012965295E+02 -0.55633614141E+02 -0.82015844749E+02  0.13523344111E+03  0.00000000000E+00 0.  1.
<mgrwt>
<rscale>  2 0.10752435E+03</rscale>
<asrwt>0</asrwt>
<pdfrwt beam="1">  1       21 0.79402500E-02 0.10752435E+03</pdfrwt>
<pdfrwt beam="2">  1       21 0.34496372E-01 0.10752435E+03</pdfrwt>
<totfact> 0.98445060E+05</totfact>
</mgrwt>
</event>
<event>
 4    1  0.6158309E+003  0.1344704E+03  0.7546771E-02  0.1220969E+00
         21   -1    0    0  504  501  0.00000000000E+00  0.00000000000E+00  0.16881380743E+03  0.16881380743E+03  0.00000000000E+00 0.  1.
         21   -1    0    0  503  502 -0.00000000000E+00 -0.00000000000E+00 -0.87713301167E+03  0.87713301167E+03  0.00000000000E+00 0. -1.
         21    1    1    2  503  501 -0.27215268461E+02 -0.13168758127E+03 -0.84416138199E+03  0.85480449738E+03  0.00000000000E+00 0. -1.
         21    1    1    2  504  502  0.27215268461E+02  0.13168758127E+03  0.13584217774E+03  0.19114232172E+03  0.00000000000E+00 0.  1.
<mgrwt>
<rscale>  2 0.13447041E+03</rscale>
<asrwt>0</asrwt>
<pdfrwt beam="1">  1       21 0.25971356E-01 0.13447041E+03</pdfrwt>
<pdfrwt beam="2">  1       21 0.13494354E+00 0.13447041E+03</pdfrwt>
<totfact> 0.58358925E+03</totfact>
</mgrwt>
</event>
<event>
 4    1  0.6158309E+003  0.1065977E+03  0.7546771E-02  0.1267003E+00
         21   -1    0    0  503  501  0.00000000000E+00  0.00000000000E+00  0.20430173751E+02  0.20430173751E+02  0.00000000000E+00 0. -1.
         21   -1    0    0  504  502 -0.00000000000E+00 -0.00000000000E+00 -0.16463700377E+04  0.16463700377E+04  0.00000000000E+00 0. -1.
         21    1    1    2  503  502  0.75409702793E+01  0.10633062255E+03 -0.14911403588E+04  0.14949456971E+04  0.00000000000E+00 0. -1.
         21    1    1    2  504  501 -0.75409702793E+01 -0.10633062255E+03 -0.13479950512E+03  0.17185451436E+03  0.00000000000E+00 0. -1.
<mgrwt>
<rscale>  2 0.10659769E+03</rscale>
<asrwt>0</asrwt>
<pdfrwt beam="1">  1       21 0.31431031E-02 0.10659769E+03</pdfrwt>
<pdfrwt beam="2">  1       21 0.25328774E+00 0.10659769E+03</pdfrwt>
<totfact> 0.40532304E+04</totfact>
</mgrwt>
</event>
<event>
 4    1  0.6158309E+003  0.1558669E+03  0.7546771E-02  0.1193444E+00
         21   -1    0    0  503  501  0.00000000000E+00  0.00000000000E+00  0.47447561448E+03  0.47447561448E+03  0.00000000000E+00 0.  1.
         21   -1    0    0  504  502 -0.00000000000E+00 -0.00000000000E+00 -0.41726887515E+03  0.41726887515E+03  0.00000000000E+00 0.  1.
         21    1    1    2  503  502 -0.94263560113E+02 -0.12413249179E+03 -0.38901747434E+03  0.41908124465E+03  0.00000000000E+00 0.  1.
         21    1    1    2  504  501  0.94263560113E+02  0.12413249179E+03  0.44622421367E+03  0.47266324498E+03  0.00000000000E+00 0.  1.
<mgrwt>
<rscale>  2 0.15586691E+03</rscale>
<asrwt>0</asrwt>
<pdfrwt beam="1">  1       21 0.72996248E-01 0.15586691E+03</pdfrwt>
<pdfrwt beam="2">  1       21 0.64195212E-01 0.15586691E+03</pdfrwt>
<totfact> 0.39056964E+03</totfact>
</mgrwt>
</event>
