<event>
 4    1  0.5045766E+003  0.1061664E+03  0.7546771E-02  0.1267838E+00
         -2   -1    0    0    0  501 -0.00000000000E+00  0.00000000000E+00  0.18788407418E+04  0.18788407418E+04  0.00000000000E+00 0.  1.
         21   -1    0    0  503  502  0.00000000000E+00 -0.00000000000E+00 -0.23899678028E+02  0.23899678028E+02  0.00000000000E+00 0.  1.
         21    1    1    2  503  501  0.94239319953E+02  0.48890336914E+02  0.10411519922E+03  0.14869865224E+03  0.00000000000E+00 0.  1.
         -2    1    1    2    0  502 -0.94239319953E+02 -0.48890336914E+02  0.17508258646E+04  0.17540417676E+04  0.00000000000E+00 0.  1.
<mgrwt>
<rscale>  2 0.10616645E+03</rscale>
<asrwt>0</asrwt>
<pdfrwt beam="2">  1       21 0.36768750E-02 0.10616645E+03</pdfrwt>
<pdfrwt beam="1">  1       -2 0.28905231E+00 0.10616645E+03</pdfrwt>
<totfact> 0.16488991E+03</totfact>
</mgrwt>
</event>
<event>
 4    1  0.5045766E+003  0.1695469E+03  0.7546771E-02  0.1178321E+00
          2   -1    0    0  503    0 -0.00000000000E+00  0.00000000000E+00  0.16351885440E+04  0.16351885440E+04  0.00000000000E+00 0.  1.
         21   -1    0    0  501  502  0.00000000000E+00 -0.00000000000E+00 -0.29027504584E+02  0.29027504584E+02  0.00000000000E+00 0.  1.
         21    1    1    2  503  502 -0.68589824789E+02  0.15505345296E+03  0.28052094647E+03  0.32777757511E+03  0.00000000000E+00 0.  1.
          2    1    1    2  501    0  0.68589824789E+02 -0.15505345296E+03  0.13256400929E+04  0.13364384734E+04  0.00000000000E+00 0.  1.
<mgrwt>
<rscale>  2 0.16954686E+03</rscale>
<asrwt>0</asrwt>
<pdfrwt beam="2">  1       21 0.44657712E-02 0.16954686E+03</pdfrwt>
<pdfrwt beam="1">  1        2 0.25156740E+00 0.16954686E+03</pdfrwt>
<totfact> 0.48745469E+04</totfact>
</mgrwt>
</event>
<event>
 4    1  0.5045766E+003  0.1163831E+03  0.7546771E-02  0.1249186E+00
         21   -1    0    0  501  502  0.00000000000E+00  0.00000000000E+00  0.29845073895E+02  0.29845073895E+02  0.00000000000E+00 0.  1.
          2   -1    0    0  503    0 -0.00000000000E+00 -0.00000000000E+00 -0.65662166940E+03  0.65662166940E+03  0.00000000000E+00 0. -1.
         21    1    1    2  503  502 -0.95885278518E+02  0.65962469619E+02 -0.12264863064E+03  0.16907903664E+03  0.00000000000E+00 0.  1.
          2    1    1    2  501    0  0.95885278518E+02 -0.65962469619E+02 -0.50412796487E+03  0.51738770665E+03  0.00000000000E+00 0. -1.
<mgrwt>
<rscale>  2 0.11638313E+03</rscale>
<asrwt>0</asrwt>
<pdfrwt beam="1">  1       21 0.45915495E-02 0.11638313E+03</pdfrwt>
<pdfrwt beam="2">  1        2 0.10101873E+00 0.11638313E+03</pdfrwt>
<totfact> 0.17481789E+05</totfact>
</mgrwt>
</event>
<event>
 4    1  0.5045766E+003  0.1086740E+03  0.7546771E-02  0.1263045E+00
         21   -1    0    0  501  502  0.00000000000E+00  0.00000000000E+00  0.19519633753E+02  0.19519633753E+02  0.00000000000E+00 0.  1.
          2   -1    0    0  503    0 -0.00000000000E+00 -0.00000000000E+00 -0.77612426501E+03  0.77612426501E+03  0.00000000000E+00 0. -1.
         21    1    1    2  503  502 -0.10852177630E+03  0.57499169586E+01 -0.19151986905E+03  0.22020421821E+03  0.00000000000E+00 0.  1.
          2    1    1    2  501    0  0.10852177630E+03 -0.57499169586E+01 -0.56508476221E+03  0.57543968055E+03  0.00000000000E+00 0. -1.
<mgrwt>
<rscale>  2 0.10867400E+03</rscale>
<asrwt>0</asrwt>
<pdfrwt beam="1">  1       21 0.30030214E-02 0.10867400E+03</pdfrwt>
<pdfrwt beam="2">  1        2 0.11940370E+00 0.10867400E+03</pdfrwt>
<totfact> 0.28808878E+05</totfact>
</mgrwt>
</event>
<event>
 4    1  0.5045766E+003  0.1179433E+03  0.7546771E-02  0.1246529E+00
         -1   -1    0    0    0  501 -0.00000000000E+00  0.00000000000E+00  0.81289872040E+02  0.81289872040E+02  0.00000000000E+00 0.  1.
         21   -1    0    0  503  502  0.00000000000E+00 -0.00000000000E+00 -0.37358098127E+03  0.37358098127E+03  0.00000000000E+00 0.  1.
         21    1    1    2  503  501 -0.10889336025E+03  0.45308567913E+02 -0.31357519651E+03  0.33502243820E+03  0.00000000000E+00 0.  1.
         -1    1    1    2    0  502  0.10889336025E+03 -0.45308567913E+02  0.21284087280E+02  0.11984841511E+03  0.00000000000E+00 0.  1.
<mgrwt>
<rscale>  2 0.11794333E+03</rscale>
<asrwt>0</asrwt>
<pdfrwt beam="2">  1       21 0.57473996E-01 0.11794333E+03</pdfrwt>
<pdfrwt beam="1">  1       -1 0.12506134E-01 0.11794333E+03</pdfrwt>
<totfact> 0.11013834E+04</totfact>
</mgrwt>
</event>
<event>
 4    1  0.5045766E+003  0.1177596E+03  0.7546771E-02  0.1246839E+00
         -4   -1    0    0    0  501 -0.00000000000E+00  0.00000000000E+00  0.25743244761E+03  0.25743244761E+03  0.00000000000E+00 0.  1.
         21   -1    0    0  503  502  0.00000000000E+00 -0.00000000000E+00 -0.14162317756E+03  0.14162317756E+03  0.00000000000E+00 0.  1.
         21    1    1    2  503  501  0.10490242071E+03 -0.53505108135E+02 -0.99158113509E+02  0.15394689325E+03  0.00000000000E+00 0.  1.
         -4    1    1    2    0  502 -0.10490242071E+03  0.53505108135E+02  0.21496738356E+03  0.24510873192E+03  0.00000000000E+00 0.  1.
<mgrwt>
<rscale>  2 0.11775956E+03</rscale>
<asrwt>0</asrwt>
<pdfrwt beam="2">  1       21 0.21788181E-01 0.11775956E+03</pdfrwt>
<pdfrwt beam="1">  1       -4 0.39604992E-01 0.11775956E+03</pdfrwt>
<totfact> 0.49761478E+03</totfact>
</mgrwt>
</event>
<event>
 4    1  0.5045766E+003  0.1175410E+03  0.7546771E-02  0.1247210E+00
         21   -1    0    0  501  502  0.00000000000E+00  0.00000000000E+00  0.24365929203E+04  0.24365929203E+04  0.00000000000E+00 0. -1.
         -1   -1    0    0    0  501 -0.00000000000E+00 -0.00000000000E+00 -0.25245864579E+02  0.25245864579E+02  0.00000000000E+00 0. -1.
         21    1    1    2  503  502  0.11682219492E+03 -0.12979030322E+02  0.22895833481E+04  0.22925984795E+04  0.00000000000E+00 0. -1.
         -1    1    1    2    0  503 -0.11682219492E+03  0.12979030322E+02  0.12176370756E+03  0.16924030529E+03  0.00000000000E+00 0. -1.
<mgrwt>
<rscale>  2 0.11754097E+03</rscale>
<asrwt>0</asrwt>
<pdfrwt beam="1">  1       21 0.37486026E+00 0.11754097E+03</pdfrwt>
<pdfrwt beam="2">  1       -1 0.38839811E-02 0.11754097E+03</pdfrwt>
<totfact> 0.31302979E+02</totfact>
</mgrwt>
</event>
<event>
 4    1  0.5045766E+003  0.1050451E+03  0.7546771E-02  0.1270031E+00
         21   -1    0    0  501  502  0.00000000000E+00  0.00000000000E+00  0.51350502448E+02  0.51350502448E+02  0.00000000000E+00 0.  1.
         -2   -1    0    0    0  501 -0.00000000000E+00 -0.00000000000E+00 -0.26212294292E+03  0.26212294292E+03  0.00000000000E+00 0.  1.
         21    1    1    2  503  502 -0.60348461382E+02  0.85979851561E+02 -0.38849400915E+02  0.11199887328E+03  0.00000000000E+00 0.  1.
         -2    1    1    2    0  503  0.60348461382E+02 -0.85979851561E+02 -0.17192303956E+03  0.20147457209E+03  0.00000000000E+00 0.  1.
<mgrwt>
<rscale>  2 0.10504509E+03</rscale>
<asrwt>0</asrwt>
<pdfrwt beam="1">  1       21 0.79000772E-02 0.10504509E+03</pdfrwt>
<pdfrwt beam="2">  1       -2 0.40326607E-01 0.10504509E+03</pdfrwt>
<totfact> 0.56639371E+04</totfact>
</mgrwt>
</event>
<event>
 4    1  0.5045766E+003  0.1121769E+03  0.7546771E-02  0.1256591E+00
         21   -1    0    0  501  502  0.00000000000E+00  0.00000000000E+00  0.26871410816E+02  0.26871410816E+02  0.00000000000E+00 0. -1.
          2   -1    0    0  503    0 -0.00000000000E+00 -0.00000000000E+00 -0.24010562996E+04  0.24010562996E+04  0.00000000000E+00 0.  1.
         21    1    1    2  503  502  0.10965128900E+03 -0.23669830358E+02 -0.97926547066E+02  0.14890693291E+03  0.00000000000E+00 0. -1.
          2    1    1    2  501    0 -0.10965128900E+03  0.23669830358E+02 -0.22762583417E+04  0.22790207775E+04  0.00000000000E+00 0.  1.
<mgrwt>
<rscale>  2 0.11217694E+03</rscale>
<asrwt>0</asrwt>
<pdfrwt beam="1">  1       21 0.41340617E-02 0.11217694E+03</pdfrwt>
<pdfrwt beam="2">  1        2 0.36939342E+00 0.11217694E+03</pdfrwt>
<totfact> 0.22749277E+04</totfact>
</mgrwt>
</event>
<event>
 4    1  0.5045766E+003  0.1171516E+03  0.7546771E-02  0.1247871E+00
         21   -1    0    0  503  502  0.00000000000E+00  0.00000000000E+00  0.24024210121E+03  0.24024210121E+03  0.00000000000E+00 0. -1.
          2   -1    0    0  502    0 -0.00000000000E+00 -0.00000000000E+00 -0.81806971041E+02  0.81806971041E+02  0.00000000000E+00 0. -1.
         21    1    1    2  503  501  0.38241828033E+02  0.11073419612E+03  0.16766032735E+03  0.20453480136E+03  0.00000000000E+00 0. -1.
          2    1    1    2  501    0 -0.38241828033E+02 -0.11073419612E+03 -0.92251971723E+01  0.11751427090E+03  0.00000000000E+00 0. -1.
<mgrwt>
<rscale>  2 0.11715161E+03</rscale>
<asrwt>0</asrwt>
<pdfrwt beam="1">  1       21 0.36960323E-01 0.11715161E+03</pdfrwt>
<pdfrwt beam="2">  1        2 0.12585688E-01 0.11715161E+03</pdfrwt>
<totfact> 0.41128749E+04</totfact>
</mgrwt>
</event>
<event>
 4    1  0.5045766E+003  0.1176673E+03  0.7546771E-02  0.1246996E+00
          3   -1    0    0  503    0 -0.00000000000E+00  0.00000000000E+00  0.12097423801E+03  0.12097423801E+03  0.00000000000E+00 0.  1.
         21   -1    0    0  501  502  0.00000000000E+00 -0.00000000000E+00 -0.15103506939E+03  0.15103506939E+03  0.00000000000E+00 0. -1.
         21    1    1    2  503  502  0.27523166001E+02 -0.11440307659E+03 -0.81966844674E+02  0.14340206493E+03  0.00000000000E+00 0. -1.
          3    1    1    2  501    0 -0.27523166001E+02  0.11440307659E+03  0.51906013290E+02  0.12860724247E+03  0.00000000000E+00 0.  1.
<mgrwt>
<rscale>  2 0.11766728E+03</rscale>
<asrwt>0</asrwt>
<pdfrwt beam="2">  1       21 0.23236165E-01 0.11766728E+03</pdfrwt>
<pdfrwt beam="1">  1        3 0.18611421E-01 0.11766728E+03</pdfrwt>
<totfact> 0.21166774E+04</totfact>
</mgrwt>
</event>
<event>
 4    1  0.5045766E+003  0.1527847E+03  0.7546771E-02  0.1197092E+00
          2   -1    0    0  502    0 -0.00000000000E+00  0.00000000000E+00  0.30027840849E+03  0.30027840849E+03  0.00000000000E+00 0.  1.
         21   -1    0    0  503  502  0.00000000000E+00 -0.00000000000E+00 -0.10129068247E+04  0.10129068247E+04  0.00000000000E+00 0.  1.
         21    1    1    2  503  501  0.14992334053E+03 -0.29430495792E+02 -0.98720786974E+03  0.99896073006E+03  0.00000000000E+00 0.  1.
          2    1    1    2  501    0 -0.14992334053E+03  0.29430495792E+02  0.27457945348E+03  0.31422450317E+03  0.00000000000E+00 0.  1.
<mgrwt>
<rscale>  2 0.15278469E+03</rscale>
<asrwt>0</asrwt>
<pdfrwt beam="2">  1       21 0.15583182E+00 0.15278469E+03</pdfrwt>
<pdfrwt beam="1">  1        2 0.46196678E-01 0.15278469E+03</pdfrwt>
<totfact> 0.37782459E+02</totfact>
</mgrwt>
</event>
<event>
 4    1  0.5045766E+003  0.1198542E+03  0.7546771E-02  0.1243338E+00
         21   -1    0    0  501  502  0.00000000000E+00  0.00000000000E+00  0.26065018431E+03  0.26065018431E+03  0.00000000000E+00 0. -1.
          2   -1    0    0  503    0 -0.00000000000E+00 -0.00000000000E+00 -0.10520302864E+04  0.10520302864E+04  0.00000000000E+00 0. -1.
         21    1    1    2  503  502 -0.10548389699E+03  0.56904970606E+02  0.24322721610E+03  0.27115402792E+03  0.00000000000E+00 0. -1.
          2    1    1    2  501    0  0.10548389699E+03 -0.56904970606E+02 -0.10346073182E+04  0.10415264428E+04  0.00000000000E+00 0. -1.
<mgrwt>
<rscale>  2 0.11985420E+03</rscale>
<asrwt>0</asrwt>
<pdfrwt beam="1">  1       21 0.40100029E-01 0.11985420E+03</pdfrwt>
<pdfrwt beam="2">  1        2 0.16185081E+00 0.11985420E+03</pdfrwt>
<totfact> 0.19487514E+03</totfact>
</mgrwt>
</event>
<event>
 4    1  0.5045766E+003  0.1278097E+03  0.7546771E-02  0.1230742E+00
         21   -1    0    0  503  502  0.00000000000E+00  0.00000000000E+00  0.21200288387E+02  0.21200288387E+02  0.00000000000E+00 0.  1.
          2   -1    0    0  502    0 -0.00000000000E+00 -0.00000000000E+00 -0.90898855663E+03  0.90898855663E+03  0.00000000000E+00 0.  1.
         21    1    1    2  503  501 -0.43724769043E+02  0.12009771278E+03 -0.26237084994E+03  0.29184547100E+03  0.00000000000E+00 0.  1.
          2    1    1    2  501    0  0.43724769043E+02 -0.12009771278E+03 -0.62541741831E+03  0.63834337403E+03  0.00000000000E+00 0.  1.
<mgrwt>
<rscale>  2 0.12780969E+03</rscale>
<asrwt>0</asrwt>
<pdfrwt beam="1">  1       21 0.32615825E-02 0.12780969E+03</pdfrwt>
<pdfrwt beam="2">  1        2 0.13984441E+00 0.12780969E+03</pdfrwt>
<totfact> 0.20746345E+05</totfact>
</mgrwt>
</event>
<event>
 4    1  0.5045766E+003  0.1274246E+03  0.7546771E-02  0.1231328E+00
          2   -1    0    0  503    0 -0.00000000000E+00  0.00000000000E+00  0.44896585387E+03  0.44896585387E+03  0.00000000000E+00 0.  1.
         21   -1    0    0  501  502  0.00000000000E+00 -0.00000000000E+00 -0.13356128536E+03  0.13356128536E+03  0.00000000000E+00 0.  1.
         21    1    1    2  503  502  0.16569250422E+02  0.12634278966E+03 -0.91020816753E+02  0.15659447513E+03  0.00000000000E+00 0.  1.
          2    1    1    2  501    0 -0.16569250422E+02 -0.12634278966E+03  0.40642538527E+03  0.42593266410E+03  0.00000000000E+00 0.  1.
<mgrwt>
<rscale>  2 0.12742465E+03</rscale>
<asrwt>0</asrwt>
<pdfrwt beam="2">  1       21 0.20547890E-01 0.12742465E+03</pdfrwt>
<pdfrwt beam="1">  1        2 0.69071669E-01 0.12742465E+03</pdfrwt>
<totfact> 0.19431873E+04</totfact>
</mgrwt>
</event>
<event>
 4    1  0.5045766E+003  0.1680784E+03  0.7546771E-02  0.1179867E+00
         21   -1    0    0  503  502  0.00000000000E+00  0.00000000000E+00  0.94614742113E+02  0.94614742113E+02  0.00000000000E+00 0. -1.
         -2   -1    0    0    0  501 -0.00000000000E+00 -0.00000000000E+00 -0.49228570057E+03  0.49228570057E+03  0.00000000000E+00 0.  1.
         21    1    1    2  503  501  0.12879318291E+03  0.10799388165E+03 -0.14761007262E+02  0.16872536791E+03  0.00000000000E+00 0. -1.
         -2    1    1    2    0  502 -0.12879318291E+03 -0.10799388165E+03 -0.38290995120E+03  0.41817507478E+03  0.00000000000E+00 0.  1.
<mgrwt>
<rscale>  2 0.16807844E+03</rscale>
<asrwt>0</asrwt>
<pdfrwt beam="1">  1       21 0.14556114E-01 0.16807844E+03</pdfrwt>
<pdfrwt beam="2">  1       -2 0.75736261E-01 0.16807844E+03</pdfrwt>
<totfact> 0.54552342E+03</totfact>
</mgrwt>
</event>
<event>
 4    1  0.5045766E+003  0.1285573E+03  0.7546771E-02  0.1229612E+00
         21   -1    0    0  503  502  0.00000000000E+00  0.00000000000E+00  0.50431118848E+03  0.50431118848E+03  0.00000000000E+00 0. -1.
         -1   -1    0    0    0  501 -0.00000000000E+00 -0.00000000000E+00 -0.25246609188E+03  0.25246609188E+03  0.00000000000E+00 0. -1.
         21    1    1    2  503  501  0.92898173059E+02 -0.88864522443E+02  0.47889951134E+03  0.49585453096E+03  0.00000000000E+00 0. -1.
         -1    1    1    2    0  502 -0.92898173059E+02  0.88864522443E+02 -0.22705441474E+03  0.26092274941E+03  0.00000000000E+00 0. -1.
<mgrwt>
<rscale>  2 0.12855728E+03</rscale>
<asrwt>0</asrwt>
<pdfrwt beam="1">  1       21 0.77586336E-01 0.12855728E+03</pdfrwt>
<pdfrwt beam="2">  1       -1 0.38840937E-01 0.12855728E+03</pdfrwt>
<totfact> 0.91028958E+02</totfact>
</mgrwt>
</event>
<event>
 4    1  0.5045766E+003  0.1658818E+03  0.7546771E-02  0.1182212E+00
          1   -1    0    0  502    0 -0.00000000000E+00  0.00000000000E+00  0.25720707017E+04  0.25720707017E+04  0.00000000000E+00 0.  1.
         21   -1    0    0  503  502  0.00000000000E+00 -0.00000000000E+00 -0.22891447906E+02  0.22891447906E+02  0.00000000000E+00 0. -1.
         21    1    1    2  503  501 -0.16204524713E+03 -0.35470015151E+02  0.32764993545E+03  0.36724823252E+03  0.00000000000E+00 0. -1.
          1    1    1    2  501    0  0.16204524713E+03  0.35470015151E+02  0.22215293184E+04  0.22277139171E+04  0.00000000000E+00 0.  1.
<mgrwt>
<rscale>  2 0.16588184E+03</rscale>
<asrwt>0</asrwt>
<pdfrwt beam="2">  1       21 0.35217633E-02 0.16588184E+03</pdfrwt>
<pdfrwt beam="1">  1        1 0.39570296E+00 0.16588184E+03</pdfrwt>
<totfact> 0.80455017E+03</totfact>
</mgrwt>
</event>
<event>
 4    1  0.5045766E+003  0.1157079E+03  0.7546771E-02  0.1250350E+00
         21   -1    0    0  503  502  0.00000000000E+00  0.00000000000E+00  0.13172357484E+03  0.13172357484E+03  0.00000000000E+00 0.  1.
          1   -1    0    0  502    0 -0.00000000000E+00 -0.00000000000E+00 -0.40780596265E+03  0.40780596265E+03  0.00000000000E+00 0. -1.
         21    1    1    2  503  501 -0.10051046413E+03 -0.57323286334E+02  0.95701090205E+02  0.15015662231E+03  0.00000000000E+00 0.  1.
          1    1    1    2  501    0  0.10051046413E+03  0.57323286334E+02 -0.37178347801E+03  0.38937291518E+03  0.00000000000E+00 0. -1.
<mgrwt>
<rscale>  2 0.11570788E+03</rscale>
<asrwt>0</asrwt>
<pdfrwt beam="1">  1       21 0.20265166E-01 0.11570788E+03</pdfrwt>
<pdfrwt beam="2">  1        1 0.62739378E-01 0.11570788E+03</pdfrwt>
<totfact> 0.14814210E+04</totfact>
</mgrwt>
</event>
<event>
 4    1  0.5045766E+003  0.1952535E+03  0.7546771E-02  0.1153807E+00
          2   -1    0    0  503    0 -0.00000000000E+00  0.00000000000E+00  0.25321900860E+04  0.25321900860E+04  0.00000000000E+00 0.  1.
         21   -1    0    0  501  502  0.00000000000E+00 -0.00000000000E+00 -0.17303011553E+02  0.17303011553E+02  0.00000000000E+00 0.  1.
         21    1    1    2  503  502 -0.33883828270E+02  0.19229094110E+03  0.79804071108E+03  0.82157951312E+03  0.00000000000E+00 0.  1.
          2    1    1    2  501    0  0.33883828270E+02 -0.19229094110E+03  0.17168463633E+04  0.17279135844E+04  0.00000000000E+00 0.  1.
<mgrwt>
<rscale>  2 0.19525348E+03</rscale>
<asrwt>0</asrwt>
<pdfrwt beam="2">  1       21 0.26620038E-02 0.19525348E+03</pdfrwt>
<pdfrwt beam="1">  1        2 0.38956741E+00 0.19525348E+03</pdfrwt>
<totfact> 0.38796328E+04</totfact>
</mgrwt>
</event>
<event>
 4    1  0.5045766E+003  0.1037012E+03  0.7546771E-02  0.1272700E+00
         -2   -1    0    0    0  501 -0.00000000000E+00  0.00000000000E+00  0.43770115414E+03  0.43770115414E+03  0.00000000000E+00 0. -1.
         21   -1    0    0  503  502  0.00000000000E+00 -0.00000000000E+00 -0.42601423400E+02  0.42601423400E+02  0.00000000000E+00 0.  1.
         21    1    1    2  503  501 -0.30914296427E+02  0.98986053768E+02  0.41307624527E+02  0.11162550071E+03  0.00000000000E+00 0.  1.
         -2    1    1    2    0  502  0.30914296427E+02 -0.98986053768E+02  0.35379210622E+03  0.36867707684E+03  0.00000000000E+00 0. -1.
<mgrwt>
<rscale>  2 0.10370117E+03</rscale>
<asrwt>0</asrwt>
<pdfrwt beam="2">  1       21 0.65540655E-02 0.10370117E+03</pdfrwt>
<pdfrwt beam="1">  1       -2 0.67338636E-01 0.10370117E+03</pdfrwt>
<totfact> 0.28108037E+04</totfact>
</mgrwt>
</event>
<event>
 4    1  0.5045766E+003  0.1074597E+03  0.7546771E-02  0.1265348E+00
          1   -1    0    0  503    0 -0.00000000000E+00  0.00000000000E+00  0.10907839562E+03  0.10907839562E+03  0.00000000000E+00 0. -1.
         21   -1    0    0  501  502  0.00000000000E+00 -0.00000000000E+00 -0.21783490152E+03  0.21783490152E+03  0.00000000000E+00 0.  1.
         21    1    1    2  503  502  0.81232905618E+02  0.70347661420E+02 -0.17156799864E+03  0.20244297118E+03  0.00000000000E+00 0.  1.
          1    1    1    2  501    0 -0.81232905618E+02 -0.70347661420E+02  0.62811492740E+02  0.12447032595E+03  0.00000000000E+00 0. -1.
<mgrwt>
<rscale>  2 0.10745966E+03</rscale>
<asrwt>0</asrwt>
<pdfrwt beam="2">  1       21 0.33513062E-01 0.10745966E+03</pdfrwt>
<pdfrwt beam="1">  1        1 0.16781292E-01 0.10745966E+03</pdfrwt>
<totfact> 0.29489598E+04</totfact>
</mgrwt>
</event>
<event>
 4    1  0.5045766E+003  0.1939519E+03  0.7546771E-02  0.1154945E+00
         21   -1    0    0  501  502  0.00000000000E+00  0.00000000000E+00  0.75851941468E+02  0.75851941468E+02  0.00000000000E+00 0.  1.
          2   -1    0    0  503    0 -0.00000000000E+00 -0.00000000000E+00 -0.14682983302E+04  0.14682983302E+04  0.00000000000E+00 0. -1.
         21    1    1    2  503  502  0.14813790949E+03 -0.12518978031E+03 -0.67922388626E+02  0.20550127055E+03  0.00000000000E+00 0.  1.
          2    1    1    2  501    0 -0.14813790949E+03  0.12518978031E+03 -0.13245240001E+04  0.13386490011E+04  0.00000000000E+00 0. -1.
<mgrwt>
<rscale>  2 0.19395185E+03</rscale>
<asrwt>0</asrwt>
<pdfrwt beam="1">  1       21 0.11669531E-01 0.19395185E+03</pdfrwt>
<pdfrwt beam="2">  1        2 0.22589202E+00 0.19395185E+03</pdfrwt>
<totfact> 0.11248085E+04</totfact>
</mgrwt>
</event>
<event>
 4    1  0.5045766E+003  0.1414203E+03  0.7546771E-02  0.1211431E+00
         21   -1    0    0  501  502  0.00000000000E+00  0.00000000000E+00  0.49399896524E+02  0.49399896524E+02  0.00000000000E+00 0. -1.
          2   -1    0    0  503    0 -0.00000000000E+00 -0.00000000000E+00 -0.84140408618E+03  0.84140408618E+03  0.00000000000E+00 0. -1.
         21    1    1    2  503  502  0.13804355162E+03 -0.30719225559E+02 -0.75177675982E+02  0.16016046931E+03  0.00000000000E+00 0. -1.
          2    1    1    2  501    0 -0.13804355162E+03  0.30719225559E+02 -0.71682651368E+03  0.73064351340E+03  0.00000000000E+00 0. -1.
<mgrwt>
<rscale>  2 0.14142027E+03</rscale>
<asrwt>0</asrwt>
<pdfrwt beam="1">  1       21 0.75999842E-02 0.14142027E+03</pdfrwt>
<pdfrwt beam="2">  1        2 0.12944678E+00 0.14142027E+03</pdfrwt>
<totfact> 0.55330554E+04</totfact>
</mgrwt>
</event>
<event>
 4    1  0.5045766E+003  0.1551577E+03  0.7546771E-02  0.1194275E+00
          4   -1    0    0  502    0 -0.00000000000E+00  0.00000000000E+00  0.53754827016E+02  0.53754827016E+02  0.00000000000E+00 0. -1.
         21   -1    0    0  503  502  0.00000000000E+00 -0.00000000000E+00 -0.53714940644E+03  0.53714940644E+03  0.00000000000E+00 0. -1.
         21    1    1    2  503  501 -0.12693487176E+03 -0.89227030590E+02 -0.36216530099E+03  0.39400206839E+03  0.00000000000E+00 0. -1.
          4    1    1    2  501    0  0.12693487176E+03  0.89227030590E+02 -0.12122927843E+03  0.19690216506E+03  0.00000000000E+00 0. -1.
<mgrwt>
<rscale>  2 0.15515774E+03</rscale>
<asrwt>0</asrwt>
<pdfrwt beam="2">  1       21 0.82638372E-01 0.15515774E+03</pdfrwt>
<pdfrwt beam="1">  1        4 0.82699732E-02 0.15515774E+03</pdfrwt>
<totfact> 0.55724701E+03</totfact>
</mgrwt>
</event>
<event>
 4    1  0.5045766E+003  0.1387513E+03  0.7546771E-02  0.1215019E+00
         21   -1    0    0  503  502  0.00000000000E+00  0.00000000000E+00  0.11541213156E+03  0.11541213156E+03  0.00000000000E+00 0. -1.
         -2   -1    0    0    0  501 -0.00000000000E+00 -0.00000000000E+00 -0.28834286060E+03  0.28834286060E+03  0.00000000000E+00 0.  1.
         21    1    1    2  503  501  0.13761865007E+03 -0.17692335609E+02  0.44597589648E+02  0.14574243235E+03  0.00000000000E+00 0. -1.
         -2    1    1    2    0  502 -0.13761865007E+03  0.17692335609E+02 -0.21752831869E+03  0.25801255981E+03  0.00000000000E+00 0.  1.
<mgrwt>
<rscale>  2 0.13875126E+03</rscale>
<asrwt>0</asrwt>
<pdfrwt beam="1">  1       21 0.17755713E-01 0.13875126E+03</pdfrwt>
<pdfrwt beam="2">  1       -2 0.44360439E-01 0.13875126E+03</pdfrwt>
<totfact> 0.11359187E+04</totfact>
</mgrwt>
</event>
<event>
 4    1  0.5045766E+003  0.1134825E+03  0.7546771E-02  0.1254253E+00
         21   -1    0    0  503  502  0.00000000000E+00  0.00000000000E+00  0.95452333917E+01  0.95452333917E+01  0.00000000000E+00 0.  1.
          2   -1    0    0  502    0 -0.00000000000E+00 -0.00000000000E+00 -0.15173192820E+04  0.15173192820E+04  0.00000000000E+00 0.  1.
         21    1    1    2  503  501 -0.11259569130E+03  0.14159184825E+02 -0.49975348712E+03  0.51247616540E+03  0.00000000000E+00 0.  1.
          2    1    1    2  501    0  0.11259569130E+03 -0.14159184825E+02 -0.10080205615E+04  0.10143883500E+04  0.00000000000E+00 0.  1.
<mgrwt>
<rscale>  2 0.11348248E+03</rscale>
<asrwt>0</asrwt>
<pdfrwt beam="1">  1       21 0.14684983E-02 0.11348248E+03</pdfrwt>
<pdfrwt beam="2">  1        2 0.23343360E+00 0.11348248E+03</pdfrwt>
<totfact> 0.34507767E+05</totfact>
</mgrwt>
</event>
<event>
 4    1  0.5045766E+003  0.1079990E+03  0.7546771E-02  0.1264321E+00
         21   -1    0    0  501  502  0.00000000000E+00  0.00000000000E+00  0.41533841253E+02  0.41533841253E+02  0.00000000000E+00 0.  1.
          1   -1    0    0  503    0 -0.00000000000E+00 -0.00000000000E+00 -0.11045157591E+04  0.11045157591E+04  0.00000000000E+00 0.  1.
         21    1    1    2  503  502  0.30487573604E+02 -0.10360638466E+03 -0.36645783566E+02  0.11404686992E+03  0.00000000000E+00 0.  1.
          1    1    1    2  501    0 -0.30487573604E+02  0.10360638466E+03 -0.10263361343E+04  0.10320027304E+04  0.00000000000E+00 0.  1.
<mgrwt>
<rscale>  2 0.10799896E+03</rscale>
<asrwt>0</asrwt>
<pdfrwt beam="1">  1       21 0.63898221E-02 0.10799896E+03</pdfrwt>
<pdfrwt beam="2">  1        1 0.16992549E+00 0.10799896E+03</pdfrwt>
<totfact> 0.27099014E+04</totfact>
</mgrwt>
</event>
<event>
 4    1  0.5045766E+003  0.1041333E+03  0.7546771E-02  0.1271837E+00
          2   -1    0    0  503    0 -0.00000000000E+00  0.00000000000E+00  0.23107508974E+04  0.23107508974E+04  0.00000000000E+00 0.  1.
         21   -1    0    0  501  502  0.00000000000E+00 -0.00000000000E+00 -0.53609544871E+01  0.53609544871E+01  0.00000000000E+00 0.  1.
         21    1    1    2  503  502 -0.84806386727E+02  0.60428624178E+02  0.74384120009E+03  0.75109484940E+03  0.00000000000E+00 0.  1.
          2    1    1    2  501    0  0.84806386727E+02 -0.60428624178E+02  0.15615487429E+04  0.15650170025E+04  0.00000000000E+00 0.  1.
<mgrwt>
<rscale>  2 0.10413329E+03</rscale>
<asrwt>0</asrwt>
<pdfrwt beam="2">  1       21 0.82476407E-03 0.10413329E+03</pdfrwt>
<pdfrwt beam="1">  1        2 0.35549934E+00 0.10413329E+03</pdfrwt>
<totfact> 0.33709330E+05</totfact>
</mgrwt>
</event>
<event>
 4    1  0.5045766E+003  0.1522275E+03  0.7546771E-02  0.1197762E+00
         21   -1    0    0  501  502  0.00000000000E+00  0.00000000000E+00  0.59795320016E+03  0.59795320016E+03  0.00000000000E+00 0. -1.
          2   -1    0    0  503    0 -0.00000000000E+00 -0.00000000000E+00 -0.32778871126E+03  0.32778871126E+03  0.00000000000E+00 0.  1.
         21    1    1    2  503  502  0.52003231088E+02  0.14306946421E+03  0.56973033150E+03  0.58971676105E+03  0.00000000000E+00 0. -1.
          2    1    1    2  501    0 -0.52003231088E+02 -0.14306946421E+03 -0.29956584259E+03  0.33602515037E+03  0.00000000000E+00 0.  1.
<mgrwt>
<rscale>  2 0.15222749E+03</rscale>
<asrwt>0</asrwt>
<pdfrwt beam="1">  1       21 0.91992800E-01 0.15222749E+03</pdfrwt>
<pdfrwt beam="2">  1        2 0.50429032E-01 0.15222749E+03</pdfrwt>
<totfact> 0.12590866E+03</totfact>
</mgrwt>
</event>
<event>
 4    1  0.5045766E+003  0.1804041E+03  0.7546771E-02  0.1167413E+00
          1   -1    0    0  502    0 -0.00000000000E+00  0.00000000000E+00  0.13657920974E+04  0.13657920974E+04  0.00000000000E+00 0. -1.
         21   -1    0    0  503  502  0.00000000000E+00 -0.00000000000E+00 -0.28349774158E+03  0.28349774158E+03  0.00000000000E+00 0. -1.
         21    1    1    2  503  501  0.15530000502E+03 -0.91801711690E+02 -0.24807977550E+03  0.30673966297E+03  0.00000000000E+00 0. -1.
          1    1    1    2  501    0 -0.15530000502E+03  0.91801711690E+02  0.13303741313E+04  0.13425501760E+04  0.00000000000E+00 0. -1.
<mgrwt>
<rscale>  2 0.18040412E+03</rscale>
<asrwt>0</asrwt>
<pdfrwt beam="2">  1       21 0.43615038E-01 0.18040412E+03</pdfrwt>
<pdfrwt beam="1">  1        1 0.21012186E+00 0.18040412E+03</pdfrwt>
<totfact> 0.50841780E+02</totfact>
</mgrwt>
</event>
<event>
 4    1  0.5045766E+003  0.2127353E+03  0.7546771E-02  0.1139418E+00
         21   -1    0    0  503  502  0.00000000000E+00  0.00000000000E+00  0.50830897856E+02  0.50830897856E+02  0.00000000000E+00 0. -1.
          2   -1    0    0  502    0 -0.00000000000E+00 -0.00000000000E+00 -0.21743004111E+04  0.21743004111E+04  0.00000000000E+00 0. -1.
         21    1    1    2  503  501  0.25207161113E+02 -0.21123659285E+03 -0.20677967747E+03  0.29667176163E+03  0.00000000000E+00 0. -1.
          2    1    1    2  501    0 -0.25207161113E+02  0.21123659285E+03 -0.19166898357E+04  0.19284595473E+04  0.00000000000E+00 0. -1.
<mgrwt>
<rscale>  2 0.21273528E+03</rscale>
<asrwt>0</asrwt>
<pdfrwt beam="1">  1       21 0.78201392E-02 0.21273528E+03</pdfrwt>
<pdfrwt beam="2">  1        2 0.33450771E+00 0.21273528E+03</pdfrwt>
<totfact> 0.96716631E+03</totfact>
</mgrwt>
</event>
<event>
 4    1  0.5045766E+003  0.1091579E+03  0.7546771E-02  0.1262137E+00
         21   -1    0    0  503  502  0.00000000000E+00  0.00000000000E+00  0.34719085060E+03  0.34719085060E+03  0.00000000000E+00 0. -1.
          2   -1    0    0  502    0 -0.00000000000E+00 -0.00000000000E+00 -0.12218406004E+04  0.12218406004E+04  0.00000000000E+00 0. -1.
         21    1    1    2  503  501 -0.91354795799E+02  0.59747284670E+02  0.33609447643E+03  0.35337647606E+03  0.00000000000E+00 0. -1.
          2    1    1    2  501    0  0.91354795799E+02 -0.59747284670E+02 -0.12107442262E+04  0.12156549749E+04  0.00000000000E+00 0. -1.
<mgrwt>
<rscale>  2 0.10915785E+03</rscale>
<asrwt>0</asrwt>
<pdfrwt beam="1">  1       21 0.53413977E-01 0.10915785E+03</pdfrwt>
<pdfrwt beam="2">  1        2 0.18797548E+00 0.10915785E+03</pdfrwt>
<totfact> 0.88220199E+02</totfact>
</mgrwt>
</event>
<event>
 4    1  0.5045766E+003  0.1124977E+03  0.7546771E-02  0.1256013E+00
         21   -1    0    0  501  502  0.00000000000E+00  0.00000000000E+00  0.42969609670E+02  0.42969609670E+02  0.00000000000E+00 0. -1.
          2   -1    0    0  503    0 -0.00000000000E+00 -0.00000000000E+00 -0.34459230771E+03  0.34459230771E+03  0.00000000000E+00 0. -1.
         21    1    1    2  503  502 -0.49526386163E+02 -0.10100922599E+03 -0.76948662973E+02  0.13629682093E+03  0.00000000000E+00 0. -1.
          2    1    1    2  501    0  0.49526386163E+02  0.10100922599E+03 -0.22467403507E+03  0.25126509646E+03  0.00000000000E+00 0. -1.
<mgrwt>
<rscale>  2 0.11249767E+03</rscale>
<asrwt>0</asrwt>
<pdfrwt beam="1">  1       21 0.66107093E-02 0.11249767E+03</pdfrwt>
<pdfrwt beam="2">  1        2 0.53014200E-01 0.11249767E+03</pdfrwt>
<totfact> 0.19088999E+05</totfact>
</mgrwt>
</event>
<event>
 4    1  0.5045766E+003  0.1370285E+03  0.7546771E-02  0.1217384E+00
          2   -1    0    0  503    0 -0.00000000000E+00  0.00000000000E+00  0.30844565006E+03  0.30844565006E+03  0.00000000000E+00 0.  1.
         21   -1    0    0  501  502  0.00000000000E+00 -0.00000000000E+00 -0.85333065591E+02  0.85333065591E+02  0.00000000000E+00 0.  1.
         21    1    1    2  503  502  0.12109865285E+03  0.64124359078E+02  0.61493526888E+01  0.13716643790E+03  0.00000000000E+00 0.  1.
          2    1    1    2  501    0 -0.12109865285E+03 -0.64124359078E+02  0.21696323178E+03  0.25661227775E+03  0.00000000000E+00 0.  1.
<mgrwt>
<rscale>  2 0.13702853E+03</rscale>
<asrwt>0</asrwt>
<pdfrwt beam="2">  1       21 0.13128164E-01 0.13702853E+03</pdfrwt>
<pdfrwt beam="1">  1        2 0.47453176E-01 0.13702853E+03</pdfrwt>
<totfact> 0.65471101E+04</totfact>
</mgrwt>
</event>
<event>
 4    1  0.5045766E+003  0.1155416E+03  0.7546771E-02  0.1250639E+00
         21   -1    0    0  503  502  0.00000000000E+00  0.00000000000E+00  0.14712485078E+02  0.14712485078E+02  0.00000000000E+00 0.  1.
          2   -1    0    0  502    0 -0.00000000000E+00 -0.00000000000E+00 -0.10140301119E+04  0.10140301119E+04  0.00000000000E+00 0.  1.
         21    1    1    2  503  501 -0.15462997472E+02  0.11450217606E+03 -0.33284703448E+03  0.35233081185E+03  0.00000000000E+00 0.  1.
          2    1    1    2  501    0  0.15462997472E+02 -0.11450217606E+03 -0.66647059230E+03  0.67641178510E+03  0.00000000000E+00 0.  1.
<mgrwt>
<rscale>  2 0.11554156E+03</rscale>
<asrwt>0</asrwt>
<pdfrwt beam="1">  1       21 0.22634589E-02 0.11554156E+03</pdfrwt>
<pdfrwt beam="2">  1        2 0.15600466E+00 0.11554156E+03</pdfrwt>
<totfact> 0.32389333E+05</totfact>
</mgrwt>
</event>
<event>
 4    1  0.5045766E+003  0.1059539E+03  0.7546771E-02  0.1268252E+00
         21   -1    0    0  501  502  0.00000000000E+00  0.00000000000E+00  0.95493572203E+01  0.95493572203E+01  0.00000000000E+00 0. -1.
          2   -1    0    0  503    0 -0.00000000000E+00 -0.00000000000E+00 -0.11760526645E+04  0.11760526645E+04  0.00000000000E+00 0. -1.
         21    1    1    2  503  502 -0.59402885669E+02  0.87735551055E+02 -0.57162880721E+03  0.58136539540E+03  0.00000000000E+00 0. -1.
          2    1    1    2  501    0  0.59402885669E+02 -0.87735551055E+02 -0.59487450006E+03  0.60423662630E+03  0.00000000000E+00 0. -1.
<mgrwt>
<rscale>  2 0.10595390E+03</rscale>
<asrwt>0</asrwt>
<pdfrwt beam="1">  1       21 0.14691328E-02 0.10595390E+03</pdfrwt>
<pdfrwt beam="2">  1        2 0.18093106E+00 0.10595390E+03</pdfrwt>
<totfact> 0.52157610E+05</totfact>
</mgrwt>
</event>
<event>
 4    1  0.5045766E+003  0.1329251E+03  0.7546771E-02  0.1223179E+00
          2   -1    0    0  502    0 -0.00000000000E+00  0.00000000000E+00  0.77220123828E+03  0.77220123828E+03  0.00000000000E+00 0.  1.
         21   -1    0    0  503  502  0.00000000000E+00 -0.00000000000E+00 -0.48876165347E+02  0.48876165347E+02  0.00000000000E+00 0.  1.
         21    1    1    2  503  501  0.12165183491E+03 -0.53571580225E+02  0.62265095104E+02  0.14678564375E+03  0.00000000000E+00 0.  1.
          2    1    1    2  501    0 -0.12165183491E+03  0.53571580225E+02  0.66105997783E+03  0.67429175987E+03  0.00000000000E+00 0.  1.
<mgrwt>
<rscale>  2 0.13292510E+03</rscale>
<asrwt>0</asrwt>
<pdfrwt beam="2">  1       21 0.75194106E-02 0.13292510E+03</pdfrwt>
<pdfrwt beam="1">  1        2 0.11880018E+00 0.13292510E+03</pdfrwt>
<totfact> 0.62722498E+04</totfact>
</mgrwt>
</event>
<event>
 4    1  0.5045766E+003  0.1252711E+03  0.7546771E-02  0.1234646E+00
          1   -1    0    0  502    0 -0.00000000000E+00  0.00000000000E+00  0.24303703377E+03  0.24303703377E+03  0.00000000000E+00 0. -1.
         21   -1    0    0  503  502  0.00000000000E+00 -0.00000000000E+00 -0.14248066798E+03  0.14248066798E+03  0.00000000000E+00 0.  1.
         21    1    1    2  503  501 -0.12504882009E+03 -0.74599089077E+01 -0.92261346803E+02  0.15557960587E+03  0.00000000000E+00 0.  1.
          1    1    1    2  501    0  0.12504882009E+03  0.74599089077E+01  0.19281771259E+03  0.22993809588E+03  0.00000000000E+00 0. -1.
<mgrwt>
<rscale>  2 0.12527114E+03</rscale>
<asrwt>0</asrwt>
<pdfrwt beam="2">  1       21 0.21920103E-01 0.12527114E+03</pdfrwt>
<pdfrwt beam="1">  1        1 0.37390313E-01 0.12527114E+03</pdfrwt>
<totfact> 0.24294010E+04</totfact>
</mgrwt>
</event>
<event>
 4    1  0.5045766E+003  0.1517342E+03  0.7546771E-02  0.1198358E+00
          1   -1    0    0  502    0 -0.00000000000E+00  0.00000000000E+00  0.26010940900E+03  0.26010940900E+03  0.00000000000E+00 0. -1.
         21   -1    0    0  503  502  0.00000000000E+00 -0.00000000000E+00 -0.22015833957E+03  0.22015833957E+03  0.00000000000E+00 0. -1.
         21    1    1    2  503  501  0.13762608190E+03 -0.63893194415E+02 -0.16571391999E+03  0.22468729824E+03  0.00000000000E+00 0. -1.
          1    1    1    2  501    0 -0.13762608190E+03  0.63893194415E+02  0.20566498943E+03  0.25558045033E+03  0.00000000000E+00 0. -1.
<mgrwt>
<rscale>  2 0.15173424E+03</rscale>
<asrwt>0</asrwt>
<pdfrwt beam="2">  1       21 0.33870514E-01 0.15173424E+03</pdfrwt>
<pdfrwt beam="1">  1        1 0.40016832E-01 0.15173424E+03</pdfrwt>
<totfact> 0.96930213E+03</totfact>
</mgrwt>
</event>
<event>
 4    1  0.5045766E+003  0.1046219E+03  0.7546771E-02  0.1270866E+00
         21   -1    0    0  501  502  0.00000000000E+00  0.00000000000E+00  0.27337655690E+03  0.27337655690E+03  0.00000000000E+00 0.  1.
          2   -1    0    0  503    0 -0.00000000000E+00 -0.00000000000E+00 -0.42177400355E+02  0.42177400355E+02  0.00000000000E+00 0.  1.
         21    1    1    2  503  502 -0.56342865683E+02  0.88154543673E+02  0.15112518540E+03  0.18380577724E+03  0.00000000000E+00 0.  1.
          2    1    1    2  501    0  0.56342865683E+02 -0.88154543673E+02  0.80073971150E+02  0.13174818002E+03  0.00000000000E+00 0.  1.
<mgrwt>
<rscale>  2 0.10462190E+03</rscale>
<asrwt>0</asrwt>
<pdfrwt beam="1">  1       21 0.42057931E-01 0.10462190E+03</pdfrwt>
<pdfrwt beam="2">  1        2 0.64888310E-02 0.10462190E+03</pdfrwt>
<totfact> 0.71738343E+04</totfact>
</mgrwt>
</event>
<event>
 4    1  0.5045766E+003  0.1531089E+03  0.7546771E-02  0.1196704E+00
         21   -1    0    0  503  502  0.00000000000E+00  0.00000000000E+00  0.13966079572E+02  0.13966079572E+02  0.00000000000E+00 0. -1.
          2   -1    0    0  502    0 -0.00000000000E+00 -0.00000000000E+00 -0.18775667010E+04  0.18775667010E+04  0.00000000000E+00 0. -1.
         21    1    1    2  503  501 -0.15270060315E+03  0.11173849531E+02 -0.62386121178E+03  0.64237461086E+03  0.00000000000E+00 0. -1.
          2    1    1    2  501    0  0.15270060315E+03 -0.11173849531E+02 -0.12397394097E+04  0.12491581697E+04  0.00000000000E+00 0. -1.
<mgrwt>
<rscale>  2 0.15310888E+03</rscale>
<asrwt>0</asrwt>
<pdfrwt beam="1">  1       21 0.21486271E-02 0.15310888E+03</pdfrwt>
<pdfrwt beam="2">  1        2 0.28885648E+00 0.15310888E+03</pdfrwt>
<totfact> 0.12265800E+05</totfact>
</mgrwt>
</event>
<event>
 4    1  0.5045766E+003  0.1227378E+03  0.7546771E-02  0.1238648E+00
          2   -1    0    0  502    0 -0.00000000000E+00  0.00000000000E+00  0.99150879662E+03  0.99150879662E+03  0.00000000000E+00 0. -1.
         21   -1    0    0  503  502  0.00000000000E+00 -0.00000000000E+00 -0.84261529624E+02  0.84261529624E+02  0.00000000000E+00 0. -1.
         21    1    1    2  503  501  0.11668287062E+03 -0.38074675261E+02 -0.33358649837E+02  0.12719030117E+03  0.00000000000E+00 0. -1.
          2    1    1    2  501    0 -0.11668287062E+03  0.38074675261E+02  0.94060591683E+03  0.94858002508E+03  0.00000000000E+00 0. -1.
<mgrwt>
<rscale>  2 0.12273782E+03</rscale>
<asrwt>0</asrwt>
<pdfrwt beam="2">  1       21 0.12963313E-01 0.12273782E+03</pdfrwt>
<pdfrwt beam="1">  1        2 0.15253981E+00 0.12273782E+03</pdfrwt>
<totfact> 0.17555869E+04</totfact>
</mgrwt>
</event>
<event>
 4    1  0.5045766E+003  0.1225289E+03  0.7546771E-02  0.1238982E+00
         21   -1    0    0  501  502  0.00000000000E+00  0.00000000000E+00  0.25900628022E+02  0.25900628022E+02  0.00000000000E+00 0. -1.
          2   -1    0    0  503    0 -0.00000000000E+00 -0.00000000000E+00 -0.60648383982E+03  0.60648383982E+03  0.00000000000E+00 0. -1.
         21    1    1    2  503  502 -0.10729108271E+03  0.59177338208E+02 -0.35679933742E+03  0.37725203906E+03  0.00000000000E+00 0. -1.
          2    1    1    2  501    0  0.10729108271E+03 -0.59177338208E+02 -0.22378387438E+03  0.25513242879E+03  0.00000000000E+00 0. -1.
<mgrwt>
<rscale>  2 0.12252891E+03</rscale>
<asrwt>0</asrwt>
<pdfrwt beam="1">  1       21 0.39847120E-02 0.12252891E+03</pdfrwt>
<pdfrwt beam="2">  1        2 0.93305205E-01 0.12252891E+03</pdfrwt>
<totfact> 0.24292098E+05</totfact>
</mgrwt>
</event>
<event>
 4    1  0.5045766E+003  0.1373576E+03  0.7546771E-02  0.1216929E+00
         21   -1    0    0  501  502  0.00000000000E+00  0.00000000000E+00  0.22063050333E+03  0.22063050333E+03  0.00000000000E+00 0.  1.
          2   -1    0    0  503    0 -0.00000000000E+00 -0.00000000000E+00 -0.99163598784E+02  0.99163598784E+02  0.00000000000E+00 0.  1.
         21    1    1    2  503  502  0.12482124611E+03 -0.57330278720E+02  0.12005555103E+03  0.18242927307E+03  0.00000000000E+00 0.  1.
          2    1    1    2  501    0 -0.12482124611E+03  0.57330278720E+02  0.14113535153E+01  0.13736482904E+03  0.00000000000E+00 0.  1.
<mgrwt>
<rscale>  2 0.13735758E+03</rscale>
<asrwt>0</asrwt>
<pdfrwt beam="1">  1       21 0.33943154E-01 0.13735758E+03</pdfrwt>
<pdfrwt beam="2">  1        2 0.15255938E-01 0.13735758E+03</pdfrwt>
<totfact> 0.38836474E+04</totfact>
</mgrwt>
</event>
<event>
 4    1  0.5045766E+003  0.1020370E+03  0.7546771E-02  0.1276070E+00
         -1   -1    0    0    0  501 -0.00000000000E+00  0.00000000000E+00  0.21980551166E+03  0.21980551166E+03  0.00000000000E+00 0. -1.
         21   -1    0    0  501  502  0.00000000000E+00 -0.00000000000E+00 -0.10535492755E+04  0.10535492755E+04  0.00000000000E+00 0.  1.
         21    1    1    2  503  502  0.29989708022E+02 -0.97530305522E+02 -0.10390723300E+04  0.10440703281E+04  0.00000000000E+00 0.  1.
         -1    1    1    2    0  503 -0.29989708022E+02  0.97530305522E+02  0.20532856615E+03  0.22928445905E+03  0.00000000000E+00 0. -1.
<mgrwt>
<rscale>  2 0.10203697E+03</rscale>
<asrwt>0</asrwt>
<pdfrwt beam="2">  1       21 0.16208451E+00 0.10203697E+03</pdfrwt>
<pdfrwt beam="1">  1       -1 0.33816232E-01 0.10203697E+03</pdfrwt>
<totfact> 0.20153487E+02</totfact>
</mgrwt>
</event>
<event>
 4    1  0.5045766E+003  0.1197827E+03  0.7546771E-02  0.1243456E+00
          1   -1    0    0  503    0 -0.00000000000E+00  0.00000000000E+00  0.30833154271E+03  0.30833154271E+03  0.00000000000E+00 0.  1.
         21   -1    0    0  501  502  0.00000000000E+00 -0.00000000000E+00 -0.49671170114E+02  0.49671170114E+02  0.00000000000E+00 0.  1.
         21    1    1    2  503  502  0.22170772738E+02  0.11771303378E+03  0.17431571504E+03  0.21150382974E+03  0.00000000000E+00 0.  1.
          1    1    1    2  501    0 -0.22170772738E+02 -0.11771303378E+03  0.84344657557E+02  0.14649888308E+03  0.00000000000E+00 0.  1.
<mgrwt>
<rscale>  2 0.11978273E+03</rscale>
<asrwt>0</asrwt>
<pdfrwt beam="2">  1       21 0.76417186E-02 0.11978273E+03</pdfrwt>
<pdfrwt beam="1">  1        1 0.47435621E-01 0.11978273E+03</pdfrwt>
<totfact> 0.11848984E+05</totfact>
</mgrwt>
</event>
<event>
 4    1  0.5045766E+003  0.1126156E+03  0.7546771E-02  0.1255802E+00
         21   -1    0    0  501  502  0.00000000000E+00  0.00000000000E+00  0.29875119244E+02  0.29875119244E+02  0.00000000000E+00 0.  1.
          1   -1    0    0  503    0 -0.00000000000E+00 -0.00000000000E+00 -0.24229924370E+04  0.24229924370E+04  0.00000000000E+00 0.  1.
         21    1    1    2  503  502  0.26348061713E+02 -0.10948994262E+03 -0.82730197876E+02  0.13973744499E+03  0.00000000000E+00 0.  1.
          1    1    1    2  501    0 -0.26348061713E+02  0.10948994262E+03 -0.23103871198E+04  0.23131301112E+04  0.00000000000E+00 0.  1.
<mgrwt>
<rscale>  2 0.11261558E+03</rscale>
<asrwt>0</asrwt>
<pdfrwt beam="1">  1       21 0.45961720E-02 0.11261558E+03</pdfrwt>
<pdfrwt beam="2">  1        1 0.37276808E+00 0.11261558E+03</pdfrwt>
<totfact> 0.66579001E+03</totfact>
</mgrwt>
</event>
<event>
 4    1  0.5045766E+003  0.1067088E+03  0.7546771E-02  0.1266789E+00
          2   -1    0    0  502    0 -0.00000000000E+00  0.00000000000E+00  0.16276657860E+03  0.16276657860E+03  0.00000000000E+00 0.  1.
         21   -1    0    0  503  502  0.00000000000E+00 -0.00000000000E+00 -0.89788194377E+03  0.89788194377E+03  0.00000000000E+00 0.  1.
         21    1    1    2  503  501 -0.54576980711E+02  0.91695848677E+02 -0.87680315511E+03  0.88327263532E+03  0.00000000000E+00 0.  1.
          2    1    1    2  501    0  0.54576980711E+02 -0.91695848677E+02  0.14168778994E+03  0.17737588705E+03  0.00000000000E+00 0.  1.
<mgrwt>
<rscale>  2 0.10670884E+03</rscale>
<asrwt>0</asrwt>
<pdfrwt beam="2">  1       21 0.13813569E+00 0.10670884E+03</pdfrwt>
<pdfrwt beam="1">  1        2 0.25041012E-01 0.10670884E+03</pdfrwt>
<totfact> 0.10365122E+03</totfact>
</mgrwt>
</event>
<event>
 4    1  0.5045766E+003  0.1236031E+03  0.7546771E-02  0.1237269E+00
         21   -1    0    0  503  502  0.00000000000E+00  0.00000000000E+00  0.11365301944E+03  0.11365301944E+03  0.00000000000E+00 0.  1.
          1   -1    0    0  502    0 -0.00000000000E+00 -0.00000000000E+00 -0.48180027036E+03  0.48180027036E+03  0.00000000000E+00 0.  1.
         21    1    1    2  503  501 -0.77244420581E+02 -0.96493676564E+02  0.68730441388E+02  0.14142702606E+03  0.00000000000E+00 0.  1.
          1    1    1    2  501    0  0.77244420581E+02  0.96493676564E+02 -0.43687769231E+03  0.45402626374E+03  0.00000000000E+00 0.  1.
<mgrwt>
<rscale>  2 0.12360312E+03</rscale>
<asrwt>0</asrwt>
<pdfrwt beam="1">  1       21 0.17485080E-01 0.12360312E+03</pdfrwt>
<pdfrwt beam="2">  1        1 0.74123120E-01 0.12360312E+03</pdfrwt>
<totfact> 0.15689167E+04</totfact>
</mgrwt>
</event>
<event>
 4    1  0.5045766E+003  0.1197751E+03  0.7546771E-02  0.1243469E+00
         -2   -1    0    0    0  501 -0.00000000000E+00  0.00000000000E+00  0.57970257589E+03  0.57970257589E+03  0.00000000000E+00 0.  1.
         21   -1    0    0  503  502  0.00000000000E+00 -0.00000000000E+00 -0.37554484521E+02  0.37554484521E+02  0.00000000000E+00 0.  1.
         21    1    1    2  503  501  0.98754483174E+02 -0.67776311332E+02  0.90842038053E+02  0.15032748319E+03  0.00000000000E+00 0.  1.
         -2    1    1    2    0  502 -0.98754483174E+02  0.67776311332E+02  0.45130605332E+03  0.46692957722E+03  0.00000000000E+00 0.  1.
<mgrwt>
<rscale>  2 0.11977511E+03</rscale>
<asrwt>0</asrwt>
<pdfrwt beam="2">  1       21 0.57776134E-02 0.11977511E+03</pdfrwt>
<pdfrwt beam="1">  1       -2 0.89185005E-01 0.11977511E+03</pdfrwt>
<totfact> 0.19036257E+04</totfact>
</mgrwt>
</event>
<event>
 4    1  0.5045766E+003  0.1040644E+03  0.7546771E-02  0.1271974E+00
         21   -1    0    0  503  502  0.00000000000E+00  0.00000000000E+00  0.47974649918E+01  0.47974649918E+01  0.00000000000E+00 0.  1.
          2   -1    0    0  502    0 -0.00000000000E+00 -0.00000000000E+00 -0.23133296487E+04  0.23133296487E+04  0.00000000000E+00 0.  1.
         21    1    1    2  503  501 -0.35121653300E+02 -0.97958513650E+02 -0.13346219343E+04  0.13386728908E+04  0.00000000000E+00 0.  1.
          2    1    1    2  501    0  0.35121653300E+02  0.97958513650E+02 -0.97391024942E+03  0.97945422295E+03  0.00000000000E+00 0.  1.
<mgrwt>
<rscale>  2 0.10406441E+03</rscale>
<asrwt>0</asrwt>
<pdfrwt beam="1">  1       21 0.73806935E-03 0.10406441E+03</pdfrwt>
<pdfrwt beam="2">  1        2 0.35589793E+00 0.10406441E+03</pdfrwt>
<totfact> 0.39946874E+05</totfact>
</mgrwt>
</event>
<event>
 4    1  0.5045766E+003  0.1274402E+03  0.7546771E-02  0.1231304E+00
         21   -1    0    0  501  502  0.00000000000E+00  0.00000000000E+00  0.35184920250E+02  0.35184920250E+02  0.00000000000E+00 0.  1.
         -1   -1    0    0    0  501 -0.00000000000E+00 -0.00000000000E+00 -0.53702601995E+03  0.53702601995E+03  0.00000000000E+00 0.  1.
         21    1    1    2  503  502 -0.12094227329E+03  0.40174146750E+02 -0.14368992275E+03  0.19206194166E+03  0.00000000000E+00 0.  1.
         -1    1    1    2    0  503  0.12094227329E+03 -0.40174146750E+02 -0.35815117696E+03  0.38014899854E+03  0.00000000000E+00 0.  1.
<mgrwt>
<rscale>  2 0.12744016E+03</rscale>
<asrwt>0</asrwt>
<pdfrwt beam="1">  1       21 0.54130645E-02 0.12744016E+03</pdfrwt>
<pdfrwt beam="2">  1       -1 0.82619390E-01 0.12744016E+03</pdfrwt>
<totfact> 0.33288798E+04</totfact>
</mgrwt>
</event>
<event>
 4    1  0.5045766E+003  0.1007774E+03  0.7546771E-02  0.1278670E+00
         21   -1    0    0  503  502  0.00000000000E+00  0.00000000000E+00  0.12437779423E+02  0.12437779423E+02  0.00000000000E+00 0. -1.
         -1   -1    0    0    0  501 -0.00000000000E+00 -0.00000000000E+00 -0.15234357777E+04  0.15234357777E+04  0.00000000000E+00 0.  1.
         21    1    1    2  503  501 -0.88109524263E+02  0.48916165984E+02 -0.23239535182E+03  0.25330550548E+03  0.00000000000E+00 0. -1.
         -1    1    1    2    0  502  0.88109524263E+02 -0.48916165984E+02 -0.12786026465E+04  0.12825680516E+04  0.00000000000E+00 0.  1.
<mgrwt>
<rscale>  2 0.10077738E+03</rscale>
<asrwt>0</asrwt>
<pdfrwt beam="1">  1       21 0.19135049E-02 0.10077738E+03</pdfrwt>
<pdfrwt beam="2">  1       -1 0.23437469E+00 0.10077738E+03</pdfrwt>
<totfact> 0.12666677E+04</totfact>
</mgrwt>
</event>
<event>
 4    1  0.5045766E+003  0.1149899E+03  0.7546771E-02  0.1251599E+00
         21   -1    0    0  503  502  0.00000000000E+00  0.00000000000E+00  0.30281181217E+02  0.30281181217E+02  0.00000000000E+00 0. -1.
         -1   -1    0    0    0  501 -0.00000000000E+00 -0.00000000000E+00 -0.10158629652E+04  0.10158629652E+04  0.00000000000E+00 0.  1.
         21    1    1    2  503  501  0.27300798496E+02 -0.11170202989E+03 -0.97826300032E+02  0.15097238839E+03  0.00000000000E+00 0. -1.
         -1    1    1    2    0  502 -0.27300798496E+02  0.11170202989E+03 -0.88775548398E+03  0.89517175805E+03  0.00000000000E+00 0.  1.
<mgrwt>
<rscale>  2 0.11498990E+03</rscale>
<asrwt>0</asrwt>
<pdfrwt beam="1">  1       21 0.46586440E-02 0.11498990E+03</pdfrwt>
<pdfrwt beam="2">  1       -1 0.15628659E+00 0.11498990E+03</pdfrwt>
<totfact> 0.97974467E+03</totfact>
</mgrwt>
</event>
<event>
 4    1  0.5045766E+003  0.1180838E+03  0.7546771E-02  0.1246292E+00
         -3   -1    0    0    0  501 -0.00000000000E+00  0.00000000000E+00  0.50727444274E+02  0.50727444274E+02  0.00000000000E+00 0. -1.
         21   -1    0    0  503  502  0.00000000000E+00 -0.00000000000E+00 -0.70467173407E+03  0.70467173407E+03  0.00000000000E+00 0.  1.
         21    1    1    2  503  501 -0.10089566907E+03  0.61350252396E+02 -0.62194619621E+03  0.63305675929E+03  0.00000000000E+00 0.  1.
         -3    1    1    2    0  502  0.10089566907E+03 -0.61350252396E+02 -0.31998093583E+02  0.12234241905E+03  0.00000000000E+00 0. -1.
<mgrwt>
<rscale>  2 0.11808382E+03</rscale>
<asrwt>0</asrwt>
<pdfrwt beam="2">  1       21 0.10841103E+00 0.11808382E+03</pdfrwt>
<pdfrwt beam="1">  1       -3 0.78042223E-02 0.11808382E+03</pdfrwt>
<totfact> 0.36852945E+03</totfact>
</mgrwt>
</event>
<event>
 4    1  0.5045766E+003  0.1116322E+03  0.7546771E-02  0.1257577E+00
         -2   -1    0    0    0  501 -0.00000000000E+00  0.00000000000E+00  0.13613986653E+03  0.13613986653E+03  0.00000000000E+00 0.  1.
         21   -1    0    0  503  502  0.00000000000E+00 -0.00000000000E+00 -0.12888838753E+03  0.12888838753E+03  0.00000000000E+00 0. -1.
         21    1    1    2  503  501  0.67621622806E+02 -0.88820363948E+02 -0.67710903839E+02  0.13056227411E+03  0.00000000000E+00 0. -1.
         -2    1    1    2    0  502 -0.67621622806E+02  0.88820363948E+02  0.74962382835E+02  0.13446597995E+03  0.00000000000E+00 0.  1.
<mgrwt>
<rscale>  2 0.11163217E+03</rscale>
<asrwt>0</asrwt>
<pdfrwt beam="2">  1       21 0.19828983E-01 0.11163217E+03</pdfrwt>
<pdfrwt beam="1">  1       -2 0.20944595E-01 0.11163217E+03</pdfrwt>
<totfact> 0.35769661E+04</totfact>
</mgrwt>
</event>
<event>
 4    1  0.5045766E+003  0.1126141E+03  0.7546771E-02  0.1255804E+00
          2   -1    0    0  502    0 -0.00000000000E+00  0.00000000000E+00  0.75433590572E+03  0.75433590572E+03  0.00000000000E+00 0. -1.
         21   -1    0    0  503  502  0.00000000000E+00 -0.00000000000E+00 -0.23103731006E+02  0.23103731006E+02  0.00000000000E+00 0.  1.
         21    1    1    2  503  501  0.14000157544E+02 -0.11174047157E+03  0.16276433295E+03  0.19792464596E+03  0.00000000000E+00 0.  1.
          2    1    1    2  501    0 -0.14000157544E+02  0.11174047157E+03  0.56846784177E+03  0.57951499077E+03  0.00000000000E+00 0. -1.
<mgrwt>
<rscale>  2 0.11261411E+03</rscale>
<asrwt>0</asrwt>
<pdfrwt beam="2">  1       21 0.35544207E-02 0.11261411E+03</pdfrwt>
<pdfrwt beam="1">  1        2 0.11605166E+00 0.11261411E+03</pdfrwt>
<totfact> 0.22653557E+05</totfact>
</mgrwt>
</event>
<event>
 4    1  0.5045766E+003  0.1002154E+03  0.7546771E-02  0.1279844E+00
          2   -1    0    0  502    0 -0.00000000000E+00  0.00000000000E+00  0.97876217740E+02  0.97876217740E+02  0.00000000000E+00 0.  1.
         21   -1    0    0  503  502  0.00000000000E+00 -0.00000000000E+00 -0.23512504149E+03  0.23512504149E+03  0.00000000000E+00 0. -1.
         21    1    1    2  503  501 -0.46234186229E+02 -0.88913008695E+02 -0.19362103569E+03  0.21801887201E+03  0.00000000000E+00 0. -1.
          2    1    1    2  501    0  0.46234186229E+02  0.88913008695E+02  0.56372211940E+02  0.11498238722E+03  0.00000000000E+00 0.  1.
<mgrwt>
<rscale>  2 0.10021538E+03</rscale>
<asrwt>0</asrwt>
<pdfrwt beam="2">  1       21 0.36173083E-01 0.10021538E+03</pdfrwt>
<pdfrwt beam="1">  1        2 0.15057880E-01 0.10021538E+03</pdfrwt>
<totfact> 0.34674949E+04</totfact>
</mgrwt>
</event>
<event>
 4    1  0.5045766E+003  0.1187323E+03  0.7546771E-02  0.1245203E+00
         21   -1    0    0  501  502  0.00000000000E+00  0.00000000000E+00  0.12474621245E+02  0.12474621245E+02  0.00000000000E+00 0. -1.
          1   -1    0    0  503    0 -0.00000000000E+00 -0.00000000000E+00 -0.15874397515E+04  0.15874397515E+04  0.00000000000E+00 0. -1.
         21    1    1    2  503  502 -0.13278174981E+02 -0.11798746326E+03 -0.35809852950E+03  0.37726901310E+03  0.00000000000E+00 0. -1.
          1    1    1    2  501    0  0.13278174981E+02  0.11798746326E+03 -0.12168666008E+04  0.12226453596E+04  0.00000000000E+00 0. -1.
<mgrwt>
<rscale>  2 0.11873227E+03</rscale>
<asrwt>0</asrwt>
<pdfrwt beam="1">  1       21 0.19191724E-02 0.11873227E+03</pdfrwt>
<pdfrwt beam="2">  1        1 0.24422151E+00 0.11873227E+03</pdfrwt>
<totfact> 0.94152949E+04</totfact>
</mgrwt>
</event>
<event>
 4    1  0.5045766E+003  0.1053409E+03  0.7546771E-02  0.1269449E+00
         21   -1    0    0  503  502  0.00000000000E+00  0.00000000000E+00  0.82143323836E+02  0.82143323836E+02  0.00000000000E+00 0. -1.
         -2   -1    0    0    0  501 -0.00000000000E+00 -0.00000000000E+00 -0.73915161527E+03  0.73915161527E+03  0.00000000000E+00 0. -1.
         21    1    1    2  503  501  0.35814251232E+02  0.99065877846E+02  0.42725926228E+02  0.11367591441E+03  0.00000000000E+00 0. -1.
         -2    1    1    2    0  502 -0.35814251232E+02 -0.99065877846E+02 -0.69973421766E+03  0.70761902470E+03  0.00000000000E+00 0. -1.
<mgrwt>
<rscale>  2 0.10534092E+03</rscale>
<asrwt>0</asrwt>
<pdfrwt beam="1">  1       21 0.12637434E-01 0.10534092E+03</pdfrwt>
<pdfrwt beam="2">  1       -2 0.11371564E+00 0.10534092E+03</pdfrwt>
<totfact> 0.28164071E+03</totfact>
</mgrwt>
</event>
<event>
 4    1  0.5045766E+003  0.4212664E+03  0.7546771E-02  0.1036655E+00
         21   -1    0    0  503  502  0.00000000000E+00  0.00000000000E+00  0.16586962390E+03  0.16586962390E+03  0.00000000000E+00 0.  1.
         -4   -1    0    0    0  501 -0.00000000000E+00 -0.00000000000E+00 -0.10922053599E+04  0.10922053599E+04  0.00000000000E+00 0.  1.
         21    1    1    2  503  501 -0.29136574640E+03  0.30425548802E+03 -0.37329231928E+03  0.56286104484E+03  0.00000000000E+00 0.  1.
         -4    1    1    2    0  502  0.29136574640E+03 -0.30425548802E+03 -0.55304341675E+03  0.69521393900E+03  0.00000000000E+00 0.  1.
<mgrwt>
<rscale>  2 0.42126642E+03</rscale>
<asrwt>0</asrwt>
<pdfrwt beam="1">  1       21 0.25518404E-01 0.42126642E+03</pdfrwt>
<pdfrwt beam="2">  1       -4 0.16803159E+00 0.42126642E+03</pdfrwt>
<totfact> 0.13890693E+02</totfact>
</mgrwt>
</event>
<event>
 4    1  0.5045766E+003  0.1289252E+03  0.7546771E-02  0.1229059E+00
         21   -1    0    0  503  502  0.00000000000E+00  0.00000000000E+00  0.34162023613E+03  0.34162023613E+03  0.00000000000E+00 0.  1.
          3   -1    0    0  502    0 -0.00000000000E+00 -0.00000000000E+00 -0.14112610982E+03  0.14112610982E+03  0.00000000000E+00 0.  1.
         21    1    1    2  503  501  0.58163931485E+02  0.11505938960E+03  0.29563023557E+03  0.32251967730E+03  0.00000000000E+00 0.  1.
          3    1    1    2  501    0 -0.58163931485E+02 -0.11505938960E+03 -0.95136109261E+02  0.16022666865E+03  0.00000000000E+00 0.  1.
<mgrwt>
<rscale>  2 0.12892520E+03</rscale>
<asrwt>0</asrwt>
<pdfrwt beam="1">  1       21 0.52556959E-01 0.12892520E+03</pdfrwt>
<pdfrwt beam="2">  1        3 0.21711709E-01 0.12892520E+03</pdfrwt>
<totfact> 0.32593515E+03</totfact>
</mgrwt>
</event>
<event>
 4    1  0.5045766E+003  0.1972791E+03  0.7546771E-02  0.1152055E+00
         21   -1    0    0  503  502  0.00000000000E+00  0.00000000000E+00  0.89289191534E+03  0.89289191534E+03  0.00000000000E+00 0.  1.
         -3   -1    0    0    0  501 -0.00000000000E+00 -0.00000000000E+00 -0.20634851328E+03  0.20634851328E+03  0.00000000000E+00 0. -1.
         21    1    1    2  503  501  0.10234584540E+03  0.16865464964E+03  0.83140340233E+03  0.85448854896E+03  0.00000000000E+00 0.  1.
         -3    1    1    2    0  502 -0.10234584540E+03 -0.16865464964E+03 -0.14486000027E+03  0.24475187965E+03  0.00000000000E+00 0. -1.
<mgrwt>
<rscale>  2 0.19727915E+03</rscale>
<asrwt>0</asrwt>
<pdfrwt beam="1">  1       21 0.13736798E+00 0.19727915E+03</pdfrwt>
<pdfrwt beam="2">  1       -3 0.31745926E-01 0.19727915E+03</pdfrwt>
<totfact> 0.17865354E+02</totfact>
</mgrwt>
</event>
<event>
 4    1  0.5045766E+003  0.1040802E+03  0.7546771E-02  0.1271943E+00
         21   -1    0    0  503  502  0.00000000000E+00  0.00000000000E+00  0.16167445970E+02  0.16167445970E+02  0.00000000000E+00 0.  1.
          2   -1    0    0  502    0 -0.00000000000E+00 -0.00000000000E+00 -0.72336169630E+03  0.72336169630E+03  0.00000000000E+00 0.  1.
         21    1    1    2  503  501  0.10243900143E+03  0.18410214393E+02 -0.25319626707E+03  0.27375360211E+03  0.00000000000E+00 0.  1.
          2    1    1    2  501    0 -0.10243900143E+03 -0.18410214393E+02 -0.45399798326E+03  0.46577554016E+03  0.00000000000E+00 0.  1.
<mgrwt>
<rscale>  2 0.10408019E+03</rscale>
<asrwt>0</asrwt>
<pdfrwt beam="1">  1       21 0.24872997E-02 0.10408019E+03</pdfrwt>
<pdfrwt beam="2">  1        2 0.11128640E+00 0.10408019E+03</pdfrwt>
<totfact> 0.42487435E+05</totfact>
</mgrwt>
</event>
<event>
 4    1  0.5045766E+003  0.1021019E+03  0.7546771E-02  0.1275937E+00
          2   -1    0    0  502    0 -0.00000000000E+00  0.00000000000E+00  0.12159587526E+04  0.12159587526E+04  0.00000000000E+00 0. -1.
         21   -1    0    0  503  502  0.00000000000E+00 -0.00000000000E+00 -0.12702481354E+02  0.12702481354E+02  0.00000000000E+00 0.  1.
         21    1    1    2  503  501 -0.21182162057E+02 -0.99880535665E+02  0.25136960459E+03  0.27131436288E+03  0.00000000000E+00 0.  1.
          2    1    1    2  501    0  0.21182162057E+02  0.99880535665E+02  0.95188666669E+03  0.95734687111E+03  0.00000000000E+00 0. -1.
<mgrwt>
<rscale>  2 0.10210194E+03</rscale>
<asrwt>0</asrwt>
<pdfrwt beam="2">  1       21 0.19542288E-02 0.10210194E+03</pdfrwt>
<pdfrwt beam="1">  1        2 0.18707049E+00 0.10210194E+03</pdfrwt>
<totfact> 0.31405947E+05</totfact>
</mgrwt>
</event>
<event>
 4    1  0.5045766E+003  0.1036222E+03  0.7546771E-02  0.1272858E+00
          2   -1    0    0  503    0 -0.00000000000E+00  0.00000000000E+00  0.18580006200E+04  0.18580006200E+04  0.00000000000E+00 0.  1.
         21   -1    0    0  501  502  0.00000000000E+00 -0.00000000000E+00 -0.55637768904E+02  0.55637768904E+02  0.00000000000E+00 0. -1.
         21    1    1    2  503  502  0.18099544452E+02 -0.10202927981E+03 -0.45832407860E+01  0.10372354383E+03  0.00000000000E+00 0. -1.
          2    1    1    2  501    0 -0.18099544452E+02  0.10202927981E+03  0.18069460919E+04  0.18099148451E+04  0.00000000000E+00 0.  1.
<mgrwt>
<rscale>  2 0.10362223E+03</rscale>
<asrwt>0</asrwt>
<pdfrwt beam="2">  1       21 0.85596582E-02 0.10362223E+03</pdfrwt>
<pdfrwt beam="1">  1        2 0.28584620E+00 0.10362223E+03</pdfrwt>
<totfact> 0.12679498E+04</totfact>
</mgrwt>
</event>
<event>
 4    1  0.5045766E+003  0.1227762E+03  0.7546771E-02  0.1238586E+00
         21   -1    0    0  501  502  0.00000000000E+00  0.00000000000E+00  0.23609188580E+03  0.23609188580E+03  0.00000000000E+00 0.  1.
         -1   -1    0    0    0  501 -0.00000000000E+00 -0.00000000000E+00 -0.27908818436E+03  0.27908818436E+03  0.00000000000E+00 0.  1.
         21    1    1    2  503  502  0.98868719621E+02  0.72794107076E+02  0.20471610308E+03  0.23871047025E+03  0.00000000000E+00 0.  1.
         -1    1    1    2    0  503 -0.98868719621E+02 -0.72794107076E+02 -0.24771240165E+03  0.27646959991E+03  0.00000000000E+00 0.  1.
<mgrwt>
<rscale>  2 0.12277624E+03</rscale>
<asrwt>0</asrwt>
<pdfrwt beam="1">  1       21 0.36321829E-01 0.12277624E+03</pdfrwt>
<pdfrwt beam="2">  1       -1 0.42936644E-01 0.12277624E+03</pdfrwt>
<totfact> 0.37268281E+03</totfact>
</mgrwt>
</event>
<event>
 4    1  0.5045766E+003  0.1228883E+03  0.7546771E-02  0.1238407E+00
         21   -1    0    0  503  502  0.00000000000E+00  0.00000000000E+00  0.19066416428E+03  0.19066416428E+03  0.00000000000E+00 0.  1.
          2   -1    0    0  502    0 -0.00000000000E+00 -0.00000000000E+00 -0.60448252652E+03  0.60448252652E+03  0.00000000000E+00 0.  1.
         21    1    1    2  503  501  0.26101210806E+02  0.12008436799E+03  0.16370313881E+03  0.20469549652E+03  0.00000000000E+00 0.  1.
          2    1    1    2  501    0 -0.26101210806E+02 -0.12008436799E+03 -0.57752150105E+03  0.59045119427E+03  0.00000000000E+00 0.  1.
<mgrwt>
<rscale>  2 0.12288828E+03</rscale>
<asrwt>0</asrwt>
<pdfrwt beam="1">  1       21 0.29332948E-01 0.12288828E+03</pdfrwt>
<pdfrwt beam="2">  1        2 0.92997312E-01 0.12288828E+03</pdfrwt>
<totfact> 0.71603439E+03</totfact>
</mgrwt>
</event>
<event>
 4    1  0.5045766E+003  0.1661007E+03  0.7546771E-02  0.1181976E+00
         21   -1    0    0  501  502  0.00000000000E+00  0.00000000000E+00  0.39746295839E+03  0.39746295839E+03  0.00000000000E+00 0.  1.
          2   -1    0    0  503    0 -0.00000000000E+00 -0.00000000000E+00 -0.41341286623E+03  0.41341286623E+03  0.00000000000E+00 0.  1.
         21    1    1    2  503  502 -0.48244347844E+02 -0.15893996430E+03  0.36186256809E+03  0.39816321721E+03  0.00000000000E+00 0.  1.
          2    1    1    2  501    0  0.48244347844E+02  0.15893996430E+03 -0.37781247593E+03  0.41271260741E+03  0.00000000000E+00 0.  1.
<mgrwt>
<rscale>  2 0.16610066E+03</rscale>
<asrwt>0</asrwt>
<pdfrwt beam="1">  1       21 0.61148147E-01 0.16610066E+03</pdfrwt>
<pdfrwt beam="2">  1        2 0.63601980E-01 0.16610066E+03</pdfrwt>
<totfact> 0.24172253E+03</totfact>
</mgrwt>
</event>
<event>
 4    1  0.5045766E+003  0.1349864E+03  0.7546771E-02  0.1220239E+00
         21   -1    0    0  503  502  0.00000000000E+00  0.00000000000E+00  0.65387581847E+02  0.65387581847E+02  0.00000000000E+00 0. -1.
          1   -1    0    0  502    0 -0.00000000000E+00 -0.00000000000E+00 -0.43872201540E+03  0.43872201540E+03  0.00000000000E+00 0.  1.
         21    1    1    2  503  501 -0.97264458793E+02  0.93599901783E+02 -0.34424744686E+02  0.13930678234E+03  0.00000000000E+00 0. -1.
          1    1    1    2  501    0  0.97264458793E+02 -0.93599901783E+02 -0.33890968886E+03  0.36480281491E+03  0.00000000000E+00 0.  1.
<mgrwt>
<rscale>  2 0.13498636E+03</rscale>
<asrwt>0</asrwt>
<pdfrwt beam="1">  1       21 0.10059628E-01 0.13498636E+03</pdfrwt>
<pdfrwt beam="2">  1        1 0.67495694E-01 0.13498636E+03</pdfrwt>
<totfact> 0.47473671E+04</totfact>
</mgrwt>
</event>
<event>
 4    1  0.5045766E+003  0.1370431E+03  0.7546771E-02  0.1217364E+00
         21   -1    0    0  503  502  0.00000000000E+00  0.00000000000E+00  0.12586780216E+03  0.12586780216E+03  0.00000000000E+00 0. -1.
         -4   -1    0    0    0  501 -0.00000000000E+00 -0.00000000000E+00 -0.56937600020E+03  0.56937600020E+03  0.00000000000E+00 0. -1.
         21    1    1    2  503  501 -0.11633034819E+03 -0.72443444063E+02  0.76865100459E+02  0.15712748380E+03  0.00000000000E+00 0. -1.
         -4    1    1    2    0  502  0.11633034819E+03  0.72443444063E+02 -0.52037329850E+03  0.53811631855E+03  0.00000000000E+00 0. -1.
<mgrwt>
<rscale>  2 0.13704307E+03</rscale>
<asrwt>0</asrwt>
<pdfrwt beam="1">  1       21 0.19364277E-01 0.13704307E+03</pdfrwt>
<pdfrwt beam="2">  1       -4 0.87596309E-01 0.13704307E+03</pdfrwt>
<totfact> 0.11839315E+03</totfact>
</mgrwt>
</event>
<event>
 4    1  0.5045766E+003  0.1112048E+03  0.7546771E-02  0.1258355E+00
          1   -1    0    0  503    0 -0.00000000000E+00  0.00000000000E+00  0.56725634038E+03  0.56725634038E+03  0.00000000000E+00 0. -1.
         21   -1    0    0  501  502  0.00000000000E+00 -0.00000000000E+00 -0.22162755676E+02  0.22162755676E+02  0.00000000000E+00 0. -1.
         21    1    1    2  503  502  0.11119664832E+03 -0.13444601425E+01  0.23487139142E+03  0.25986741365E+03  0.00000000000E+00 0. -1.
          1    1    1    2  501    0 -0.11119664832E+03  0.13444601425E+01  0.31022219329E+03  0.32955168241E+03  0.00000000000E+00 0. -1.
<mgrwt>
<rscale>  2 0.11120478E+03</rscale>
<asrwt>0</asrwt>
<pdfrwt beam="2">  1       21 0.34096552E-02 0.11120478E+03</pdfrwt>
<pdfrwt beam="1">  1        1 0.87270195E-01 0.11120478E+03</pdfrwt>
<totfact> 0.21115052E+05</totfact>
</mgrwt>
</event>
<event>
 4    1  0.5045766E+003  0.1001032E+03  0.7546771E-02  0.1280079E+00
         21   -1    0    0  503  502  0.00000000000E+00  0.00000000000E+00  0.12324422088E+03  0.12324422088E+03  0.00000000000E+00 0.  1.
         -1   -1    0    0    0  501 -0.00000000000E+00 -0.00000000000E+00 -0.83580790367E+02  0.83580790367E+02  0.00000000000E+00 0.  1.
         21    1    1    2  503  501 -0.64740747717E+02 -0.76349827259E+02  0.36887117566E+02  0.10668326945E+03  0.00000000000E+00 0.  1.
         -1    1    1    2    0  502  0.64740747717E+02  0.76349827259E+02  0.27763129465E+01  0.10014174180E+03  0.00000000000E+00 0.  1.
<mgrwt>
<rscale>  2 0.10010325E+03</rscale>
<asrwt>0</asrwt>
<pdfrwt beam="1">  1       21 0.18960649E-01 0.10010325E+03</pdfrwt>
<pdfrwt beam="2">  1       -1 0.12858583E-01 0.10010325E+03</pdfrwt>
<totfact> 0.91256650E+04</totfact>
</mgrwt>
</event>
<event>
 4    1  0.5045766E+003  0.1154176E+03  0.7546771E-02  0.1250854E+00
         21   -1    0    0  503  502  0.00000000000E+00  0.00000000000E+00  0.69762433611E+02  0.69762433611E+02  0.00000000000E+00 0. -1.
          1   -1    0    0  502    0 -0.00000000000E+00 -0.00000000000E+00 -0.30903201974E+03  0.30903201974E+03  0.00000000000E+00 0.  1.
         21    1    1    2  503  501 -0.11525884088E+03 -0.60509860511E+01 -0.25604574018E+01  0.11544596474E+03  0.00000000000E+00 0. -1.
          1    1    1    2  501    0  0.11525884088E+03  0.60509860511E+01 -0.23670912873E+03  0.26334848862E+03  0.00000000000E+00 0.  1.
<mgrwt>
<rscale>  2 0.11541757E+03</rscale>
<asrwt>0</asrwt>
<pdfrwt beam="1">  1       21 0.10732682E-01 0.11541757E+03</pdfrwt>
<pdfrwt beam="2">  1        1 0.47543388E-01 0.11541757E+03</pdfrwt>
<totfact> 0.65489333E+04</totfact>
</mgrwt>
</event>
<event>
 4    1  0.5045766E+003  0.1139713E+03  0.7546771E-02  0.1253387E+00
          2   -1    0    0  503    0 -0.00000000000E+00  0.00000000000E+00  0.26785228424E+04  0.26785228424E+04  0.00000000000E+00 0. -1.
         21   -1    0    0  501  502  0.00000000000E+00 -0.00000000000E+00 -0.62817058234E+01  0.62817058234E+01  0.00000000000E+00 0. -1.
         21    1    1    2  503  502  0.92510608501E+00 -0.11396755301E+03  0.69513429981E+03  0.70441546955E+03  0.00000000000E+00 0. -1.
          2    1    1    2  501    0 -0.92510608501E+00  0.11396755301E+03  0.19771068367E+04  0.19803890786E+04  0.00000000000E+00 0. -1.
<mgrwt>
<rscale>  2 0.11397131E+03</rscale>
<asrwt>0</asrwt>
<pdfrwt beam="2">  1       21 0.96641842E-03 0.11397131E+03</pdfrwt>
<pdfrwt beam="1">  1        2 0.41207953E+00 0.11397131E+03</pdfrwt>
<totfact> 0.16799898E+05</totfact>
</mgrwt>
</event>
<event>
 4    1  0.5045766E+003  0.1192112E+03  0.7546771E-02  0.1244404E+00
         21   -1    0    0  501  502  0.00000000000E+00  0.00000000000E+00  0.43758965447E+03  0.43758965447E+03  0.00000000000E+00 0.  1.
         -2   -1    0    0    0  501 -0.00000000000E+00 -0.00000000000E+00 -0.62919375306E+02  0.62919375306E+02  0.00000000000E+00 0.  1.
         21    1    1    2  503  502 -0.29163413536E+02 -0.11558892581E+03  0.36140909305E+03  0.38056252705E+03  0.00000000000E+00 0.  1.
         -2    1    1    2    0  503  0.29163413536E+02  0.11558892581E+03  0.13261186114E+02  0.11994650272E+03  0.00000000000E+00 0.  1.
<mgrwt>
<rscale>  2 0.11921118E+03</rscale>
<asrwt>0</asrwt>
<pdfrwt beam="1">  1       21 0.67321483E-01 0.11921118E+03</pdfrwt>
<pdfrwt beam="2">  1       -2 0.96799042E-02 0.11921118E+03</pdfrwt>
<totfact> 0.11134026E+04</totfact>
</mgrwt>
</event>
<event>
 4    1  0.5045766E+003  0.1765661E+03  0.7546771E-02  0.1171168E+00
         21   -1    0    0  501  502  0.00000000000E+00  0.00000000000E+00  0.12667976248E+03  0.12667976248E+03  0.00000000000E+00 0.  1.
          2   -1    0    0  503    0 -0.00000000000E+00 -0.00000000000E+00 -0.11411772446E+04  0.11411772446E+04  0.00000000000E+00 0.  1.
         21    1    1    2  503  502  0.12876094932E+02 -0.17609599424E+03  0.54179886787E+02  0.18469177876E+03  0.00000000000E+00 0.  1.
          2    1    1    2  501    0 -0.12876094932E+02  0.17609599424E+03 -0.10686773690E+04  0.10831652284E+04  0.00000000000E+00 0.  1.
<mgrwt>
<rscale>  2 0.17656612E+03</rscale>
<asrwt>0</asrwt>
<pdfrwt beam="1">  1       21 0.19489194E-01 0.17656612E+03</pdfrwt>
<pdfrwt beam="2">  1        2 0.17556573E+00 0.17656612E+03</pdfrwt>
<totfact> 0.67211766E+03</totfact>
</mgrwt>
</event>
<event>
 4    1  0.5045766E+003  0.1750477E+03  0.7546771E-02  0.1172684E+00
          3   -1    0    0  503    0 -0.00000000000E+00  0.00000000000E+00  0.23080582117E+03  0.23080582117E+03  0.00000000000E+00 0.  1.
         21   -1    0    0  501  502  0.00000000000E+00 -0.00000000000E+00 -0.14041957860E+03  0.14041957860E+03  0.00000000000E+00 0.  1.
         21    1    1    2  503  502  0.64114593519E+02 -0.16288348560E+03  0.18415471867E+01  0.17505742566E+03  0.00000000000E+00 0.  1.
          3    1    1    2  501    0 -0.64114593519E+02  0.16288348560E+03  0.88544695391E+02  0.19616797411E+03  0.00000000000E+00 0.  1.
<mgrwt>
<rscale>  2 0.17504774E+03</rscale>
<asrwt>0</asrwt>
<pdfrwt beam="2">  1       21 0.21603012E-01 0.17504774E+03</pdfrwt>
<pdfrwt beam="1">  1        3 0.35508588E-01 0.17504774E+03</pdfrwt>
<totfact> 0.76738592E+03</totfact>
</mgrwt>
</event>
<event>
 4    1  0.5045766E+003  0.1048836E+03  0.7546771E-02  0.1270349E+00
         21   -1    0    0  501  502  0.00000000000E+00  0.00000000000E+00  0.32367908616E+02  0.32367908616E+02  0.00000000000E+00 0.  1.
          1   -1    0    0  503    0 -0.00000000000E+00 -0.00000000000E+00 -0.46322056060E+03  0.46322056060E+03  0.00000000000E+00 0.  1.
         21    1    1    2  503  502  0.98671818870E+02 -0.35559008679E+02 -0.87551600109E+02  0.13662303473E+03  0.00000000000E+00 0.  1.
          1    1    1    2  501    0 -0.98671818870E+02  0.35559008679E+02 -0.34330105188E+03  0.35896543449E+03  0.00000000000E+00 0.  1.
<mgrwt>
<rscale>  2 0.10488361E+03</rscale>
<asrwt>0</asrwt>
<pdfrwt beam="1">  1       21 0.49796788E-02 0.10488361E+03</pdfrwt>
<pdfrwt beam="2">  1        1 0.71264694E-01 0.10488361E+03</pdfrwt>
<totfact> 0.14633863E+05</totfact>
</mgrwt>
</event>
<event>
 4    1  0.5045766E+003  0.1832158E+03  0.7546771E-02  0.1164727E+00
          1   -1    0    0  503    0 -0.00000000000E+00  0.00000000000E+00  0.10453481491E+04  0.10453481491E+04  0.00000000000E+00 0.  1.
         21   -1    0    0  501  502  0.00000000000E+00 -0.00000000000E+00 -0.46835800442E+02  0.46835800442E+02  0.00000000000E+00 0.  1.
         21    1    1    2  503  502 -0.53405336493E+01 -0.18313792805E+03  0.19306718278E+03  0.26616340668E+03  0.00000000000E+00 0.  1.
          1    1    1    2  501    0  0.53405336493E+01  0.18313792805E+03  0.80544516586E+03  0.82602054284E+03  0.00000000000E+00 0.  1.
<mgrwt>
<rscale>  2 0.18321578E+03</rscale>
<asrwt>0</asrwt>
<pdfrwt beam="2">  1       21 0.72055086E-02 0.18321578E+03</pdfrwt>
<pdfrwt beam="1">  1        1 0.16082277E+00 0.18321578E+03</pdfrwt>
<totfact> 0.23992961E+04</totfact>
</mgrwt>
</event>
<event>
 4    1  0.5045766E+003  0.1020090E+03  0.7546771E-02  0.1276127E+00
          2   -1    0    0  503    0 -0.00000000000E+00  0.00000000000E+00  0.72223689105E+03  0.72223689105E+03  0.00000000000E+00 0.  1.
         21   -1    0    0  501  502  0.00000000000E+00 -0.00000000000E+00 -0.47221767486E+03  0.47221767486E+03  0.00000000000E+00 0.  1.
         21    1    1    2  503  502 -0.80842225561E+02  0.62212347009E+02 -0.46303612103E+03  0.47413952686E+03  0.00000000000E+00 0.  1.
          2    1    1    2  501    0  0.80842225561E+02 -0.62212347009E+02  0.71305533721E+03  0.72031503905E+03  0.00000000000E+00 0.  1.
<mgrwt>
<rscale>  2 0.10200903E+03</rscale>
<asrwt>0</asrwt>
<pdfrwt beam="2">  1       21 0.72648873E-01 0.10200903E+03</pdfrwt>
<pdfrwt beam="1">  1        2 0.11111337E+00 0.10200903E+03</pdfrwt>
<totfact> 0.93101898E+02</totfact>
</mgrwt>
</event>
<event>
 4    1  0.5045766E+003  0.1143988E+03  0.7546771E-02  0.1252634E+00
          2   -1    0    0  503    0 -0.00000000000E+00  0.00000000000E+00  0.50467017164E+03  0.50467017164E+03  0.00000000000E+00 0. -1.
         21   -1    0    0  501  502  0.00000000000E+00 -0.00000000000E+00 -0.10972598698E+03  0.10972598698E+03  0.00000000000E+00 0. -1.
         21    1    1    2  503  502  0.19754343576E+02  0.11268028818E+03 -0.70982171513E+02  0.13463116321E+03  0.00000000000E+00 0. -1.
          2    1    1    2  501    0 -0.19754343576E+02 -0.11268028818E+03  0.46592635617E+03  0.47976499540E+03  0.00000000000E+00 0. -1.
<mgrwt>
<rscale>  2 0.11439878E+03</rscale>
<asrwt>0</asrwt>
<pdfrwt beam="2">  1       21 0.16880921E-01 0.11439878E+03</pdfrwt>
<pdfrwt beam="1">  1        2 0.77641564E-01 0.11439878E+03</pdfrwt>
<totfact> 0.24573613E+04</totfact>
</mgrwt>
</event>
<event>
 4    1  0.5045766E+003  0.1402508E+03  0.7546771E-02  0.1212992E+00
         21   -1    0    0  503  502  0.00000000000E+00  0.00000000000E+00  0.91968520850E+02  0.91968520850E+02  0.00000000000E+00 0.  1.
         -1   -1    0    0    0  501 -0.00000000000E+00 -0.00000000000E+00 -0.23438638264E+03  0.23438638264E+03  0.00000000000E+00 0.  1.
         21    1    1    2  503  501  0.60851678153E+02  0.12636197291E+03 -0.22943854761E+02  0.14211507803E+03  0.00000000000E+00 0.  1.
         -1    1    1    2    0  502 -0.60851678153E+02 -0.12636197291E+03 -0.11947400703E+03  0.18423982546E+03  0.00000000000E+00 0.  1.
<mgrwt>
<rscale>  2 0.14025076E+03</rscale>
<asrwt>0</asrwt>
<pdfrwt beam="1">  1       21 0.14149003E-01 0.14025076E+03</pdfrwt>
<pdfrwt beam="2">  1       -1 0.36059443E-01 0.14025076E+03</pdfrwt>
<totfact> 0.29617102E+04</totfact>
</mgrwt>
</event>
<event>
 4    1  0.5045766E+003  0.1049872E+03  0.7546771E-02  0.1270145E+00
         -2   -1    0    0    0  501 -0.00000000000E+00  0.00000000000E+00  0.63521124648E+02  0.63521124648E+02  0.00000000000E+00 0. -1.
         21   -1    0    0  501  502  0.00000000000E+00 -0.00000000000E+00 -0.39623804347E+03  0.39623804347E+03  0.00000000000E+00 0. -1.
         21    1    1    2  503  502  0.45918275577E+01  0.10488668975E+03 -0.33870327460E+03  0.35460148166E+03  0.00000000000E+00 0. -1.
         -2    1    1    2    0  503 -0.45918275577E+01 -0.10488668975E+03  0.59863557800E+01  0.10515768646E+03  0.00000000000E+00 0. -1.
<mgrwt>
<rscale>  2 0.10498715E+03</rscale>
<asrwt>0</asrwt>
<pdfrwt beam="2">  1       21 0.60959700E-01 0.10498715E+03</pdfrwt>
<pdfrwt beam="1">  1       -2 0.97724805E-02 0.10498715E+03</pdfrwt>
<totfact> 0.13566531E+04</totfact>
</mgrwt>
</event>
<event>
 4    1  0.5045766E+003  0.1056767E+03  0.7546771E-02  0.1268792E+00
          2   -1    0    0  503    0 -0.00000000000E+00  0.00000000000E+00  0.17519767007E+04  0.17519767007E+04  0.00000000000E+00 0.  1.
         21   -1    0    0  501  502  0.00000000000E+00 -0.00000000000E+00 -0.80893458876E+02  0.80893458876E+02  0.00000000000E+00 0. -1.
         21    1    1    2  503  502 -0.10270890551E+03  0.24868678746E+02 -0.44045912096E+02  0.11448848338E+03  0.00000000000E+00 0. -1.
          2    1    1    2  501    0  0.10270890551E+03 -0.24868678746E+02  0.17151291539E+04  0.17183816762E+04  0.00000000000E+00 0.  1.
<mgrwt>
<rscale>  2 0.10567673E+03</rscale>
<asrwt>0</asrwt>
<pdfrwt beam="2">  1       21 0.12445149E-01 0.10567673E+03</pdfrwt>
<pdfrwt beam="1">  1        2 0.26953485E+00 0.10567673E+03</pdfrwt>
<totfact> 0.74579456E+03</totfact>
</mgrwt>
</event>
<event>
 4    1  0.5045766E+003  0.1064351E+03  0.7546771E-02  0.1267318E+00
         21   -1    0    0  501  502  0.00000000000E+00  0.00000000000E+00  0.34272842545E+03  0.34272842545E+03  0.00000000000E+00 0.  1.
         -4   -1    0    0    0  501 -0.00000000000E+00 -0.00000000000E+00 -0.44893937777E+02  0.44893937777E+02  0.00000000000E+00 0. -1.
         21    1    1    2  503  502 -0.80169105101E+02 -0.70009670603E+02  0.24844984652E+03  0.27028830094E+03  0.00000000000E+00 0.  1.
         -4    1    1    2    0  503  0.80169105101E+02  0.70009670603E+02  0.49384641156E+02  0.11733406229E+03  0.00000000000E+00 0. -1.
<mgrwt>
<rscale>  2 0.10643514E+03</rscale>
<asrwt>0</asrwt>
<pdfrwt beam="1">  1       21 0.52727448E-01 0.10643514E+03</pdfrwt>
<pdfrwt beam="2">  1       -4 0.69067599E-02 0.10643514E+03</pdfrwt>
<totfact> 0.19258986E+04</totfact>
</mgrwt>
</event>
<event>
 4    1  0.5045766E+003  0.1079323E+03  0.7546771E-02  0.1264447E+00
         -1   -1    0    0    0  501 -0.00000000000E+00  0.00000000000E+00  0.38178659515E+03  0.38178659515E+03  0.00000000000E+00 0.  1.
         21   -1    0    0  501  502  0.00000000000E+00 -0.00000000000E+00 -0.20124618935E+03  0.20124618935E+03  0.00000000000E+00 0.  1.
         21    1    1    2  503  502  0.70907844436E+02  0.81372399599E+02 -0.17823848319E+03  0.20837069541E+03  0.00000000000E+00 0.  1.
         -1    1    1    2    0  503 -0.70907844436E+02 -0.81372399599E+02  0.35877888899E+03  0.37466208909E+03  0.00000000000E+00 0.  1.
<mgrwt>
<rscale>  2 0.10793234E+03</rscale>
<asrwt>0</asrwt>
<pdfrwt beam="2">  1       21 0.30960952E-01 0.10793234E+03</pdfrwt>
<pdfrwt beam="1">  1       -1 0.58736399E-01 0.10793234E+03</pdfrwt>
<totfact> 0.28888338E+03</totfact>
</mgrwt>
</event>
<event>
 4    1  0.5045766E+003  0.1044309E+03  0.7546771E-02  0.1271245E+00
         21   -1    0    0  503  502  0.00000000000E+00  0.00000000000E+00  0.39454163629E+03  0.39454163629E+03  0.00000000000E+00 0. -1.
          2   -1    0    0  502    0 -0.00000000000E+00 -0.00000000000E+00 -0.26434621266E+04  0.26434621266E+04  0.00000000000E+00 0. -1.
         21    1    1    2  503  501  0.10359011452E+03  0.13225056340E+02  0.38657893802E+03  0.40043612382E+03  0.00000000000E+00 0. -1.
          2    1    1    2  501    0 -0.10359011452E+03 -0.13225056340E+02 -0.26354994283E+04  0.26375676391E+04  0.00000000000E+00 0. -1.
<mgrwt>
<rscale>  2 0.10443091E+03</rscale>
<asrwt>0</asrwt>
<pdfrwt beam="1">  1       21 0.60698715E-01 0.10443091E+03</pdfrwt>
<pdfrwt beam="2">  1        2 0.40668647E+00 0.10443091E+03</pdfrwt>
<totfact> 0.12523676E+02</totfact>
</mgrwt>
</event>
<event>
 4    1  0.5045766E+003  0.1114288E+03  0.7546771E-02  0.1257947E+00
          3   -1    0    0  503    0 -0.00000000000E+00  0.00000000000E+00  0.16099018818E+04  0.16099018818E+04  0.00000000000E+00 0. -1.
         21   -1    0    0  501  502  0.00000000000E+00 -0.00000000000E+00 -0.18139283181E+02  0.18139283181E+02  0.00000000000E+00 0. -1.
         21    1    1    2  503  502  0.27361937841E+02  0.10801716159E+03  0.17871769239E+03  0.21060958291E+03  0.00000000000E+00 0. -1.
          3    1    1    2  501    0 -0.27361937841E+02 -0.10801716159E+03  0.14130449062E+04  0.14174315821E+04  0.00000000000E+00 0. -1.
<mgrwt>
<rscale>  2 0.11142882E+03</rscale>
<asrwt>0</asrwt>
<pdfrwt beam="2">  1       21 0.27906602E-02 0.11142882E+03</pdfrwt>
<pdfrwt beam="1">  1        3 0.24767710E+00 0.11142882E+03</pdfrwt>
<totfact> 0.30123067E+03</totfact>
</mgrwt>
</event>
<event>
 4    1  0.5045766E+003  0.1268444E+03  0.7546771E-02  0.1232215E+00
          2   -1    0    0  502    0 -0.00000000000E+00  0.00000000000E+00  0.11368253003E+04  0.11368253003E+04  0.00000000000E+00 0. -1.
         21   -1    0    0  503  502  0.00000000000E+00 -0.00000000000E+00 -0.19795871324E+02  0.19795871324E+02  0.00000000000E+00 0.  1.
         21    1    1    2  503  501 -0.11618298284E+03  0.50901968445E+02  0.24975285102E+03  0.28011780108E+03  0.00000000000E+00 0.  1.
          2    1    1    2  501    0  0.11618298284E+03 -0.50901968445E+02  0.86727657795E+03  0.87650337053E+03  0.00000000000E+00 0. -1.
<mgrwt>
<rscale>  2 0.12684438E+03</rscale>
<asrwt>0</asrwt>
<pdfrwt beam="2">  1       21 0.30455195E-02 0.12684438E+03</pdfrwt>
<pdfrwt beam="1">  1        2 0.17489615E+00 0.12684438E+03</pdfrwt>
<totfact> 0.17026780E+05</totfact>
</mgrwt>
</event>
<event>
 4    1  0.5045766E+003  0.1600612E+03  0.7546771E-02  0.1188628E+00
         21   -1    0    0  501  502  0.00000000000E+00  0.00000000000E+00  0.24791994467E+02  0.24791994467E+02  0.00000000000E+00 0. -1.
          1   -1    0    0  503    0 -0.00000000000E+00 -0.00000000000E+00 -0.12799593263E+04  0.12799593263E+04  0.00000000000E+00 0.  1.
         21    1    1    2  503  502  0.11795744014E+03  0.10819256987E+03 -0.34124722397E+03  0.37692075788E+03  0.00000000000E+00 0. -1.
          1    1    1    2  501    0 -0.11795744014E+03 -0.10819256987E+03 -0.91392010790E+03  0.92783056291E+03  0.00000000000E+00 0.  1.
<mgrwt>
<rscale>  2 0.16006121E+03</rscale>
<asrwt>0</asrwt>
<pdfrwt beam="1">  1       21 0.38141522E-02 0.16006121E+03</pdfrwt>
<pdfrwt beam="2">  1        1 0.19691686E+00 0.16006121E+03</pdfrwt>
<totfact> 0.48563307E+04</totfact>
</mgrwt>
</event>
<event>
 4    1  0.5045766E+003  0.1310902E+03  0.7546771E-02  0.1225847E+00
         21   -1    0    0  501  502  0.00000000000E+00  0.00000000000E+00  0.99090339338E+02  0.99090339338E+02  0.00000000000E+00 0. -1.
          4   -1    0    0  503    0 -0.00000000000E+00 -0.00000000000E+00 -0.17391186637E+03  0.17391186637E+03  0.00000000000E+00 0. -1.
         21    1    1    2  503  502 -0.95217799444E+02 -0.90101062868E+02 -0.30180126572E+02  0.13451940715E+03  0.00000000000E+00 0. -1.
          4    1    1    2  501    0  0.95217799444E+02  0.90101062868E+02 -0.44641400463E+02  0.13848279856E+03  0.00000000000E+00 0. -1.
<mgrwt>
<rscale>  2 0.13109016E+03</rscale>
<asrwt>0</asrwt>
<pdfrwt beam="1">  1       21 0.15244668E-01 0.13109016E+03</pdfrwt>
<pdfrwt beam="2">  1        4 0.26755671E-01 0.13109016E+03</pdfrwt>
<totfact> 0.20423590E+04</totfact>
</mgrwt>
</event>
<event>
 4    1  0.5045766E+003  0.2097405E+03  0.7546771E-02  0.1141772E+00
         21   -1    0    0  501  502  0.00000000000E+00  0.00000000000E+00  0.51699494299E+03  0.51699494299E+03  0.00000000000E+00 0. -1.
          2   -1    0    0  503    0 -0.00000000000E+00 -0.00000000000E+00 -0.21748966345E+03  0.21748966345E+03  0.00000000000E+00 0.  1.
         21    1    1    2  503  502 -0.14303854793E+03 -0.15339831119E+03  0.43628714794E+03  0.48408423185E+03  0.00000000000E+00 0. -1.
          2    1    1    2  501    0  0.14303854793E+03  0.15339831119E+03 -0.13678186840E+03  0.25040037459E+03  0.00000000000E+00 0.  1.
<mgrwt>
<rscale>  2 0.20974048E+03</rscale>
<asrwt>0</asrwt>
<pdfrwt beam="1">  1       21 0.79537683E-01 0.20974048E+03</pdfrwt>
<pdfrwt beam="2">  1        2 0.33459948E-01 0.20974048E+03</pdfrwt>
<totfact> 0.26541670E+03</totfact>
</mgrwt>
</event>
<event>
 4    1  0.5045766E+003  0.1019118E+03  0.7546771E-02  0.1276326E+00
         21   -1    0    0  503  502  0.00000000000E+00  0.00000000000E+00  0.69422717906E+01  0.69422717906E+01  0.00000000000E+00 0.  1.
          2   -1    0    0  502    0 -0.00000000000E+00 -0.00000000000E+00 -0.20484813651E+04  0.20484813651E+04  0.00000000000E+00 0.  1.
         21    1    1    2  503  501  0.65170627221E+02  0.78350469206E+02 -0.48707431919E+03  0.49762174299E+03  0.00000000000E+00 0.  1.
          2    1    1    2  501    0 -0.65170627221E+02 -0.78350469206E+02 -0.15544647741E+04  0.15578018939E+04  0.00000000000E+00 0.  1.
<mgrwt>
<rscale>  2 0.10191176E+03</rscale>
<asrwt>0</asrwt>
<pdfrwt beam="1">  1       21 0.10680403E-02 0.10191176E+03</pdfrwt>
<pdfrwt beam="2">  1        2 0.31515142E+00 0.10191176E+03</pdfrwt>
<totfact> 0.30620704E+05</totfact>
</mgrwt>
</event>
<event>
 4    1  0.5045766E+003  0.1011579E+03  0.7546771E-02  0.1277880E+00
          2   -1    0    0  503    0 -0.00000000000E+00  0.00000000000E+00  0.17011369785E+04  0.17011369785E+04  0.00000000000E+00 0. -1.
         21   -1    0    0  501  502  0.00000000000E+00 -0.00000000000E+00 -0.12769473167E+02  0.12769473167E+02  0.00000000000E+00 0.  1.
         21    1    1    2  503  502  0.96503507638E+02 -0.30331530746E+02  0.22094389242E+03  0.24300027231E+03  0.00000000000E+00 0.  1.
          2    1    1    2  501    0 -0.96503507638E+02  0.30331530746E+02  0.14674236129E+04  0.14709061793E+04  0.00000000000E+00 0. -1.
<mgrwt>
<rscale>  2 0.10115794E+03</rscale>
<asrwt>0</asrwt>
<pdfrwt beam="2">  1       21 0.19645357E-02 0.10115794E+03</pdfrwt>
<pdfrwt beam="1">  1        2 0.26171320E+00 0.10115794E+03</pdfrwt>
<totfact> 0.17432320E+05</totfact>
</mgrwt>
</event>
<event>
 4    1  0.5045766E+003  0.1020062E+03  0.7546771E-02  0.1276133E+00
          1   -1    0    0  502    0 -0.00000000000E+00  0.00000000000E+00  0.52003218819E+02  0.52003218819E+02  0.00000000000E+00 0.  1.
         21   -1    0    0  503  502  0.00000000000E+00 -0.00000000000E+00 -0.89328134837E+03  0.89328134837E+03  0.00000000000E+00 0.  1.
         21    1    1    2  503  501 -0.10008676334E+03  0.19695364101E+02 -0.83699556188E+03  0.84318849504E+03  0.00000000000E+00 0.  1.
          1    1    1    2  501    0  0.10008676334E+03 -0.19695364101E+02 -0.42825676727E+01  0.10209607215E+03  0.00000000000E+00 0.  1.
<mgrwt>
<rscale>  2 0.10200621E+03</rscale>
<asrwt>0</asrwt>
<pdfrwt beam="2">  1       21 0.13742790E+00 0.10200621E+03</pdfrwt>
<pdfrwt beam="1">  1        1 0.80004954E-02 0.10200621E+03</pdfrwt>
<totfact> 0.35933604E+03</totfact>
</mgrwt>
</event>
<event>
 4    1  0.5045766E+003  0.1076474E+03  0.7546771E-02  0.1264990E+00
         21   -1    0    0  501  502  0.00000000000E+00  0.00000000000E+00  0.47288708364E+02  0.47288708364E+02  0.00000000000E+00 0.  1.
          2   -1    0    0  503    0 -0.00000000000E+00 -0.00000000000E+00 -0.73489596106E+03  0.73489596106E+03  0.00000000000E+00 0.  1.
         21    1    1    2  503  502  0.10216821885E+03  0.33906011473E+02 -0.24504736179E+02  0.11040128918E+03  0.00000000000E+00 0.  1.
          2    1    1    2  501    0 -0.10216821885E+03 -0.33906011473E+02 -0.66310251651E+03  0.67178338024E+03  0.00000000000E+00 0.  1.
<mgrwt>
<rscale>  2 0.10764740E+03</rscale>
<asrwt>0</asrwt>
<pdfrwt beam="1">  1       21 0.72751864E-02 0.10764740E+03</pdfrwt>
<pdfrwt beam="2">  1        2 0.11306091E+00 0.10764740E+03</pdfrwt>
<totfact> 0.70327061E+04</totfact>
</mgrwt>
</event>
<event>
 4    1  0.5045766E+003  0.1051547E+03  0.7546771E-02  0.1269815E+00
          2   -1    0    0  503    0 -0.00000000000E+00  0.00000000000E+00  0.91955444897E+03  0.91955444897E+03  0.00000000000E+00 0. -1.
         21   -1    0    0  501  502  0.00000000000E+00 -0.00000000000E+00 -0.27640242397E+02  0.27640242397E+02  0.00000000000E+00 0. -1.
         21    1    1    2  503  502 -0.10082008002E+03 -0.29879995823E+02  0.89985945037E+02  0.13840149201E+03  0.00000000000E+00 0. -1.
          2    1    1    2  501    0  0.10082008002E+03  0.29879995823E+02  0.80192826153E+03  0.80879319936E+03  0.00000000000E+00 0. -1.
<mgrwt>
<rscale>  2 0.10515466E+03</rscale>
<asrwt>0</asrwt>
<pdfrwt beam="2">  1       21 0.42523457E-02 0.10515466E+03</pdfrwt>
<pdfrwt beam="1">  1        2 0.14146989E+00 0.10515466E+03</pdfrwt>
<totfact> 0.13114170E+05</totfact>
</mgrwt>
</event>
<event>
 4    1  0.5045766E+003  0.1001315E+03  0.7546771E-02  0.1280020E+00
          2   -1    0    0  503    0 -0.00000000000E+00  0.00000000000E+00  0.28386696310E+03  0.28386696310E+03  0.00000000000E+00 0. -1.
         21   -1    0    0  501  502  0.00000000000E+00 -0.00000000000E+00 -0.19429121661E+03  0.19429121661E+03  0.00000000000E+00 0. -1.
         21    1    1    2  503  502 -0.30615155137E+02 -0.95336374269E+02 -0.17147084734E+03  0.19856626972E+03  0.00000000000E+00 0. -1.
          2    1    1    2  501    0  0.30615155137E+02  0.95336374269E+02  0.26104659382E+03  0.27959190999E+03  0.00000000000E+00 0. -1.
<mgrwt>
<rscale>  2 0.10013147E+03</rscale>
<asrwt>0</asrwt>
<pdfrwt beam="2">  1       21 0.29890956E-01 0.10013147E+03</pdfrwt>
<pdfrwt beam="1">  1        2 0.43671841E-01 0.10013147E+03</pdfrwt>
<totfact> 0.15643080E+04</totfact>
</mgrwt>
</event>
<event>
 4    1  0.5045766E+003  0.1058968E+03  0.7546771E-02  0.1268363E+00
         21   -1    0    0  501  502  0.00000000000E+00  0.00000000000E+00  0.11218055614E+03  0.11218055614E+03  0.00000000000E+00 0. -1.
          3   -1    0    0  503    0 -0.00000000000E+00 -0.00000000000E+00 -0.36244299363E+03  0.36244299363E+03  0.00000000000E+00 0.  1.
         21    1    1    2  503  502 -0.10573131716E+03 -0.59172552966E+01  0.76819736179E+02  0.13082582775E+03  0.00000000000E+00 0. -1.
          3    1    1    2  501    0  0.10573131716E+03  0.59172552966E+01 -0.32708217367E+03  0.34379772203E+03  0.00000000000E+00 0.  1.
<mgrwt>
<rscale>  2 0.10589677E+03</rscale>
<asrwt>0</asrwt>
<pdfrwt beam="1">  1       21 0.17258547E-01 0.10589677E+03</pdfrwt>
<pdfrwt beam="2">  1        3 0.55760460E-01 0.10589677E+03</pdfrwt>
<totfact> 0.46932416E+03</totfact>
</mgrwt>
</event>
<event>
 4    1  0.5045766E+003  0.1712515E+03  0.7546771E-02  0.1176549E+00
         21   -1    0    0  503  502  0.00000000000E+00  0.00000000000E+00  0.37321776847E+02  0.37321776847E+02  0.00000000000E+00 0. -1.
          1   -1    0    0  502    0 -0.00000000000E+00 -0.00000000000E+00 -0.17545537814E+04  0.17545537814E+04  0.00000000000E+00 0. -1.
         21    1    1    2  503  501  0.87149263899E+02 -0.14741807421E+03 -0.19287787246E+03  0.25793207727E+03  0.00000000000E+00 0. -1.
          1    1    1    2  501    0 -0.87149263899E+02  0.14741807421E+03 -0.15243541321E+04  0.15339434809E+04  0.00000000000E+00 0. -1.
<mgrwt>
<rscale>  2 0.17125152E+03</rscale>
<asrwt>0</asrwt>
<pdfrwt beam="1">  1       21 0.57418110E-02 0.17125152E+03</pdfrwt>
<pdfrwt beam="2">  1        1 0.26993139E+00 0.17125152E+03</pdfrwt>
<totfact> 0.11898658E+04</totfact>
</mgrwt>
</event>
<event>
 4    1  0.5045766E+003  0.1101304E+03  0.7546771E-02  0.1260329E+00
          2   -1    0    0  503    0 -0.00000000000E+00  0.00000000000E+00  0.44060551589E+03  0.44060551589E+03  0.00000000000E+00 0.  1.
         21   -1    0    0  501  502  0.00000000000E+00 -0.00000000000E+00 -0.38175949524E+02  0.38175949524E+02  0.00000000000E+00 0.  1.
         21    1    1    2  503  502  0.39385036565E+02  0.10284710594E+03  0.74782384670E+02  0.13312067218E+03  0.00000000000E+00 0.  1.
          2    1    1    2  501    0 -0.39385036565E+02 -0.10284710594E+03  0.32764718169E+03  0.34566079323E+03  0.00000000000E+00 0.  1.
<mgrwt>
<rscale>  2 0.11013041E+03</rscale>
<asrwt>0</asrwt>
<pdfrwt beam="2">  1       21 0.58732233E-02 0.11013041E+03</pdfrwt>
<pdfrwt beam="1">  1        2 0.67785460E-01 0.11013041E+03</pdfrwt>
<totfact> 0.17952411E+05</totfact>
</mgrwt>
</event>
<event>
 4    1  0.5045766E+003  0.1689980E+03  0.7546771E-02  0.1178897E+00
         21   -1    0    0  503  502  0.00000000000E+00  0.00000000000E+00  0.16215327617E+03  0.16215327617E+03  0.00000000000E+00 0. -1.
          2   -1    0    0  502    0 -0.00000000000E+00 -0.00000000000E+00 -0.17189779139E+04  0.17189779139E+04  0.00000000000E+00 0. -1.
         21    1    1    2  503  501  0.10949050767E+03  0.12873293404E+03  0.11266472088E+03  0.20311001676E+03  0.00000000000E+00 0. -1.
          2    1    1    2  501    0 -0.10949050767E+03 -0.12873293404E+03 -0.16694893586E+04  0.16780211733E+04  0.00000000000E+00 0. -1.
<mgrwt>
<rscale>  2 0.16899805E+03</rscale>
<asrwt>0</asrwt>
<pdfrwt beam="1">  1       21 0.24946660E-01 0.16899805E+03</pdfrwt>
<pdfrwt beam="2">  1        2 0.26445812E+00 0.16899805E+03</pdfrwt>
<totfact> 0.20802997E+03</totfact>
</mgrwt>
</event>
<event>
 4    1  0.5045766E+003  0.1297527E+03  0.7546771E-02  0.1227823E+00
         -1   -1    0    0    0  501 -0.00000000000E+00  0.00000000000E+00  0.87118195286E+02  0.87118195286E+02  0.00000000000E+00 0. -1.
         21   -1    0    0  501  502  0.00000000000E+00 -0.00000000000E+00 -0.68251044169E+03  0.68251044169E+03  0.00000000000E+00 0.  1.
         21    1    1    2  503  502  0.93978748461E+02  0.89463653528E+02 -0.62350717628E+03  0.63686493807E+03  0.00000000000E+00 0.  1.
         -1    1    1    2    0  503 -0.93978748461E+02 -0.89463653528E+02  0.28114929880E+02  0.13276369891E+03  0.00000000000E+00 0. -1.
<mgrwt>
<rscale>  2 0.12975265E+03</rscale>
<asrwt>0</asrwt>
<pdfrwt beam="2">  1       21 0.10500160E+00 0.12975265E+03</pdfrwt>
<pdfrwt beam="1">  1       -1 0.13402800E-01 0.12975265E+03</pdfrwt>
<totfact> 0.25821981E+03</totfact>
</mgrwt>
</event>
<event>
 4    1  0.5045766E+003  0.1482400E+03  0.7546771E-02  0.1202652E+00
          2   -1    0    0  503    0 -0.00000000000E+00  0.00000000000E+00  0.61881337229E+02  0.61881337229E+02  0.00000000000E+00 0.  1.
         21   -1    0    0  501  502  0.00000000000E+00 -0.00000000000E+00 -0.35512639230E+03  0.35512639230E+03  0.00000000000E+00 0. -1.
         21    1    1    2  503  502  0.57863401062E+02 -0.13648049044E+03 -0.14553433194E+03  0.20773863200E+03  0.00000000000E+00 0. -1.
          2    1    1    2  501    0 -0.57863401062E+02  0.13648049044E+03 -0.14771072313E+03  0.20926909753E+03  0.00000000000E+00 0.  1.
<mgrwt>
<rscale>  2 0.14824000E+03</rscale>
<asrwt>0</asrwt>
<pdfrwt beam="2">  1       21 0.54634829E-01 0.14824000E+03</pdfrwt>
<pdfrwt beam="1">  1        2 0.95202058E-02 0.14824000E+03</pdfrwt>
<totfact> 0.26114477E+04</totfact>
</mgrwt>
</event>
<event>
 4    1  0.5045766E+003  0.1567059E+03  0.7546771E-02  0.1192467E+00
         21   -1    0    0  501  502  0.00000000000E+00  0.00000000000E+00  0.24955571709E+03  0.24955571709E+03  0.00000000000E+00 0. -1.
          1   -1    0    0  503    0 -0.00000000000E+00 -0.00000000000E+00 -0.10263882327E+04  0.10263882327E+04  0.00000000000E+00 0.  1.
         21    1    1    2  503  502 -0.44662585474E+02  0.15020652669E+03  0.21820352335E+03  0.26864386240E+03  0.00000000000E+00 0. -1.
          1    1    1    2  501    0  0.44662585474E+02 -0.15020652669E+03 -0.99503603892E+03  0.10073000873E+04  0.00000000000E+00 0.  1.
<mgrwt>
<rscale>  2 0.15670593E+03</rscale>
<asrwt>0</asrwt>
<pdfrwt beam="1">  1       21 0.38393187E-01 0.15670593E+03</pdfrwt>
<pdfrwt beam="2">  1        1 0.15790588E+00 0.15670593E+03</pdfrwt>
<totfact> 0.11494594E+03</totfact>
</mgrwt>
</event>
<event>
 4    1  0.5045766E+003  0.1063051E+03  0.7546771E-02  0.1267569E+00
         -2   -1    0    0    0  501 -0.00000000000E+00  0.00000000000E+00  0.74385912638E+03  0.74385912638E+03  0.00000000000E+00 0.  1.
         21   -1    0    0  501  502  0.00000000000E+00 -0.00000000000E+00 -0.23444065044E+03  0.23444065044E+03  0.00000000000E+00 0. -1.
         21    1    1    2  503  502  0.68764018101E+02  0.81069560601E+02 -0.21832643114E+03  0.24283161733E+03  0.00000000000E+00 0. -1.
         -2    1    1    2    0  503 -0.68764018101E+02 -0.81069560601E+02  0.72774490708E+03  0.73546815949E+03  0.00000000000E+00 0.  1.
<mgrwt>
<rscale>  2 0.10630505E+03</rscale>
<asrwt>0</asrwt>
<pdfrwt beam="2">  1       21 0.36067793E-01 0.10630505E+03</pdfrwt>
<pdfrwt beam="1">  1       -2 0.11443986E+00 0.10630505E+03</pdfrwt>
<totfact> 0.39633435E+02</totfact>
</mgrwt>
</event>
<event>
 4    1  0.5045766E+003  0.1021887E+03  0.7546771E-02  0.1275760E+00
         21   -1    0    0  503  502  0.00000000000E+00  0.00000000000E+00  0.34180080771E+03  0.34180080771E+03  0.00000000000E+00 0.  1.
         -2   -1    0    0    0  501 -0.00000000000E+00 -0.00000000000E+00 -0.39730920582E+02  0.39730920582E+02  0.00000000000E+00 0. -1.
         21    1    1    2  503  501  0.73305192800E+02 -0.71196075968E+02  0.24272951570E+03  0.26336315292E+03  0.00000000000E+00 0.  1.
         -2    1    1    2    0  502 -0.73305192800E+02  0.71196075968E+02  0.59340371433E+02  0.11816857538E+03  0.00000000000E+00 0. -1.
<mgrwt>
<rscale>  2 0.10218871E+03</rscale>
<asrwt>0</asrwt>
<pdfrwt beam="1">  1       21 0.52584738E-01 0.10218871E+03</pdfrwt>
<pdfrwt beam="2">  1       -2 0.61124495E-02 0.10218871E+03</pdfrwt>
<totfact> 0.37877391E+04</totfact>
</mgrwt>
</event>
<event>
 4    1  0.5045766E+003  0.2165653E+03  0.7546771E-02  0.1136470E+00
         21   -1    0    0  501  502  0.00000000000E+00  0.00000000000E+00  0.27169105733E+02  0.27169105733E+02  0.00000000000E+00 0. -1.
          2   -1    0    0  503    0 -0.00000000000E+00 -0.00000000000E+00 -0.22822896330E+04  0.22822896330E+04  0.00000000000E+00 0. -1.
         21    1    1    2  503  502 -0.96942110157E+02  0.19365623718E+03 -0.55759291663E+03  0.59817252661E+03  0.00000000000E+00 0. -1.
          2    1    1    2  501    0  0.96942110157E+02 -0.19365623718E+03 -0.16975276107E+04  0.17112862121E+04  0.00000000000E+00 0. -1.
<mgrwt>
<rscale>  2 0.21656526E+03</rscale>
<asrwt>0</asrwt>
<pdfrwt beam="1">  1       21 0.41798613E-02 0.21656526E+03</pdfrwt>
<pdfrwt beam="2">  1        2 0.35112158E+00 0.21656526E+03</pdfrwt>
<totfact> 0.24751385E+04</totfact>
</mgrwt>
</event>
<event>
 4    1  0.5045766E+003  0.1018035E+03  0.7546771E-02  0.1276548E+00
         21   -1    0    0  503  502  0.00000000000E+00  0.00000000000E+00  0.13221609494E+03  0.13221609494E+03  0.00000000000E+00 0.  1.
          1   -1    0    0  502    0 -0.00000000000E+00 -0.00000000000E+00 -0.33649240370E+04  0.33649240370E+04  0.00000000000E+00 0. -1.
         21    1    1    2  503  501 -0.86946007547E+02  0.52956077367E+02  0.11172946271E+03  0.15115365426E+03  0.00000000000E+00 0.  1.
          1    1    1    2  501    0  0.86946007547E+02 -0.52956077367E+02 -0.33444374048E+04  0.33459864777E+04  0.00000000000E+00 0. -1.
<mgrwt>
<rscale>  2 0.10180351E+03</rscale>
<asrwt>0</asrwt>
<pdfrwt beam="1">  1       21 0.20340938E-01 0.10180351E+03</pdfrwt>
<pdfrwt beam="2">  1        1 0.51768062E+00 0.10180351E+03</pdfrwt>
<totfact> 0.11657727E+02</totfact>
</mgrwt>
</event>
<event>
 4    1  0.5045766E+003  0.1378685E+03  0.7546771E-02  0.1216226E+00
          3   -1    0    0  502    0 -0.00000000000E+00  0.00000000000E+00  0.46638615664E+03  0.46638615664E+03  0.00000000000E+00 0. -1.
         21   -1    0    0  503  502  0.00000000000E+00 -0.00000000000E+00 -0.64546865120E+03  0.64546865120E+03  0.00000000000E+00 0.  1.
         21    1    1    2  503  501  0.15317655032E+02  0.13701494987E+03 -0.62763167863E+03  0.64259571355E+03  0.00000000000E+00 0.  1.
          3    1    1    2  501    0 -0.15317655032E+02 -0.13701494987E+03  0.44854918407E+03  0.46925909429E+03  0.00000000000E+00 0. -1.
<mgrwt>
<rscale>  2 0.13786851E+03</rscale>
<asrwt>0</asrwt>
<pdfrwt beam="2">  1       21 0.99302869E-01 0.13786851E+03</pdfrwt>
<pdfrwt beam="1">  1        3 0.71751716E-01 0.13786851E+03</pdfrwt>
<totfact> 0.79877059E+01</totfact>
</mgrwt>
</event>
<event>
 4    1  0.5045766E+003  0.1261772E+03  0.7546771E-02  0.1233241E+00
          2   -1    0    0  503    0 -0.00000000000E+00  0.00000000000E+00  0.55196728285E+03  0.55196728285E+03  0.00000000000E+00 0. -1.
         21   -1    0    0  501  502  0.00000000000E+00 -0.00000000000E+00 -0.31188327851E+03  0.31188327851E+03  0.00000000000E+00 0. -1.
         21    1    1    2  503  502  0.12323493166E+03  0.27089534550E+02 -0.29142620536E+03  0.31756877118E+03  0.00000000000E+00 0. -1.
          2    1    1    2  501    0 -0.12323493166E+03 -0.27089534550E+02  0.53151020970E+03  0.54628179017E+03  0.00000000000E+00 0. -1.
<mgrwt>
<rscale>  2 0.12617722E+03</rscale>
<asrwt>0</asrwt>
<pdfrwt beam="2">  1       21 0.47982043E-01 0.12617722E+03</pdfrwt>
<pdfrwt beam="1">  1        2 0.84918043E-01 0.12617722E+03</pdfrwt>
<totfact> 0.29859314E+03</totfact>
</mgrwt>
</event>
<event>
 4    1  0.5045766E+003  0.1099259E+03  0.7546771E-02  0.1260707E+00
         21   -1    0    0  501  502  0.00000000000E+00  0.00000000000E+00  0.34941811591E+03  0.34941811591E+03  0.00000000000E+00 0.  1.
         -4   -1    0    0    0  501 -0.00000000000E+00 -0.00000000000E+00 -0.23561491687E+03  0.23561491687E+03  0.00000000000E+00 0.  1.
         21    1    1    2  503  502 -0.43685647712E+02  0.10087253974E+03  0.32709963899E+03  0.34507662760E+03  0.00000000000E+00 0.  1.
         -4    1    1    2    0  503  0.43685647712E+02 -0.10087253974E+03 -0.21329643995E+03  0.23995640517E+03  0.00000000000E+00 0.  1.
<mgrwt>
<rscale>  2 0.10992591E+03</rscale>
<asrwt>0</asrwt>
<pdfrwt beam="1">  1       21 0.53756633E-01 0.10992591E+03</pdfrwt>
<pdfrwt beam="2">  1       -4 0.36248449E-01 0.10992591E+03</pdfrwt>
<totfact> 0.10054734E+03</totfact>
</mgrwt>
</event>
<event>
 4    1  0.5045766E+003  0.1226778E+03  0.7546771E-02  0.1238744E+00
         21   -1    0    0  503  502  0.00000000000E+00  0.00000000000E+00  0.14084546764E+02  0.14084546764E+02  0.00000000000E+00 0.  1.
          2   -1    0    0  502    0 -0.00000000000E+00 -0.00000000000E+00 -0.36911709018E+04  0.36911709018E+04  0.00000000000E+00 0.  1.
         21    1    1    2  503  501  0.12249208271E+03  0.67474241884E+01 -0.27692432733E+03  0.30288103461E+03  0.00000000000E+00 0.  1.
          2    1    1    2  501    0 -0.12249208271E+03 -0.67474241884E+01 -0.34001620277E+04  0.34023744139E+04  0.00000000000E+00 0.  1.
<mgrwt>
<rscale>  2 0.12267778E+03</rscale>
<asrwt>0</asrwt>
<pdfrwt beam="1">  1       21 0.21668539E-02 0.12267778E+03</pdfrwt>
<pdfrwt beam="2">  1        2 0.56787230E+00 0.12267778E+03</pdfrwt>
<totfact> 0.11359362E+04</totfact>
</mgrwt>
</event>
<event>
 4    1  0.5045766E+003  0.1277238E+03  0.7546771E-02  0.1230873E+00
         21   -1    0    0  503  502  0.00000000000E+00  0.00000000000E+00  0.15826600018E+03  0.15826600018E+03  0.00000000000E+00 0.  1.
          1   -1    0    0  502    0 -0.00000000000E+00 -0.00000000000E+00 -0.21212621013E+03  0.21212621013E+03  0.00000000000E+00 0.  1.
         21    1    1    2  503  501 -0.12697363610E+03  0.13822178499E+02  0.10585483094E+03  0.16588731753E+03  0.00000000000E+00 0.  1.
          1    1    1    2  501    0  0.12697363610E+03 -0.13822178499E+02 -0.15971504090E+03  0.20450489278E+03  0.00000000000E+00 0.  1.
<mgrwt>
<rscale>  2 0.12772375E+03</rscale>
<asrwt>0</asrwt>
<pdfrwt beam="1">  1       21 0.24348615E-01 0.12772375E+03</pdfrwt>
<pdfrwt beam="2">  1        1 0.32634801E-01 0.12772375E+03</pdfrwt>
<totfact> 0.23604912E+04</totfact>
</mgrwt>
</event>
<event>
 4    1  0.5045766E+003  0.1660860E+03  0.7546771E-02  0.1181992E+00
          1   -1    0    0  502    0 -0.00000000000E+00  0.00000000000E+00  0.22230178070E+03  0.22230178070E+03  0.00000000000E+00 0. -1.
         21   -1    0    0  503  502  0.00000000000E+00 -0.00000000000E+00 -0.45940513785E+03  0.45940513785E+03  0.00000000000E+00 0. -1.
         21    1    1    2  503  501  0.12263463641E+03 -0.11200579362E+03 -0.40975673673E+03  0.44213700948E+03  0.00000000000E+00 0. -1.
          1    1    1    2  501    0 -0.12263463641E+03  0.11200579362E+03  0.17265337958E+03  0.23956990907E+03  0.00000000000E+00 0. -1.
<mgrwt>
<rscale>  2 0.16608598E+03</rscale>
<asrwt>0</asrwt>
<pdfrwt beam="2">  1       21 0.70677713E-01 0.16608598E+03</pdfrwt>
<pdfrwt beam="1">  1        1 0.34200274E-01 0.16608598E+03</pdfrwt>
<totfact> 0.25538149E+03</totfact>
</mgrwt>
</event>
<event>
 4    1  0.5045766E+003  0.1362607E+03  0.7546771E-02  0.1218451E+00
          2   -1    0    0  502    0 -0.00000000000E+00  0.00000000000E+00  0.15563753284E+04  0.15563753284E+04  0.00000000000E+00 0. -1.
         21   -1    0    0  503  502  0.00000000000E+00 -0.00000000000E+00 -0.62074946936E+02  0.62074946936E+02  0.00000000000E+00 0. -1.
         21    1    1    2  503  501 -0.65834308033E+02 -0.11930138642E+03  0.19828749601E+02  0.13769588311E+03  0.00000000000E+00 0. -1.
          2    1    1    2  501    0  0.65834308033E+02  0.11930138642E+03  0.14744716319E+04  0.14807543922E+04  0.00000000000E+00 0. -1.
<mgrwt>
<rscale>  2 0.13626069E+03</rscale>
<asrwt>0</asrwt>
<pdfrwt beam="2">  1       21 0.95499930E-02 0.13626069E+03</pdfrwt>
<pdfrwt beam="1">  1        2 0.23944233E+00 0.13626069E+03</pdfrwt>
<totfact> 0.14712864E+04</totfact>
</mgrwt>
</event>
<event>
 4    1  0.5045766E+003  0.1160238E+03  0.7546771E-02  0.1249805E+00
         21   -1    0    0  501  502  0.00000000000E+00  0.00000000000E+00  0.53942086358E+02  0.53942086358E+02  0.00000000000E+00 0.  1.
          1   -1    0    0  503    0 -0.00000000000E+00 -0.00000000000E+00 -0.65459959356E+03  0.65459959356E+03  0.00000000000E+00 0.  1.
         21    1    1    2  503  502  0.83413242048E+02  0.80645845904E+02 -0.21653168937E+02  0.11802703561E+03  0.00000000000E+00 0.  1.
          1    1    1    2  501    0 -0.83413242048E+02 -0.80645845904E+02 -0.57900433826E+03  0.59051464430E+03  0.00000000000E+00 0.  1.
<mgrwt>
<rscale>  2 0.11602380E+03</rscale>
<asrwt>0</asrwt>
<pdfrwt beam="1">  1       21 0.82987818E-02 0.11602380E+03</pdfrwt>
<pdfrwt beam="2">  1        1 0.10070764E+00 0.11602380E+03</pdfrwt>
<totfact> 0.39016135E+04</totfact>
</mgrwt>
</event>
<event>
 4    1  0.5045766E+003  0.1098399E+03  0.7546771E-02  0.1260867E+00
          2   -1    0    0  503    0 -0.00000000000E+00  0.00000000000E+00  0.64491251967E+03  0.64491251967E+03  0.00000000000E+00 0.  1.
         21   -1    0    0  501  502  0.00000000000E+00 -0.00000000000E+00 -0.20912834457E+02  0.20912834457E+02  0.00000000000E+00 0. -1.
         21    1    1    2  503  502 -0.75811402277E+02 -0.79482288597E+02  0.20389490063E+03  0.23159864728E+03  0.00000000000E+00 0. -1.
          2    1    1    2  501    0  0.75811402277E+02  0.79482288597E+02  0.42010478458E+03  0.43422670685E+03  0.00000000000E+00 0.  1.
<mgrwt>
<rscale>  2 0.10983990E+03</rscale>
<asrwt>0</asrwt>
<pdfrwt beam="2">  1       21 0.32173596E-02 0.10983990E+03</pdfrwt>
<pdfrwt beam="1">  1        2 0.99217295E-01 0.10983990E+03</pdfrwt>
<totfact> 0.32047533E+05</totfact>
</mgrwt>
</event>
<event>
 4    1  0.5045766E+003  0.1202139E+03  0.7546771E-02  0.1242745E+00
         21   -1    0    0  501  502  0.00000000000E+00  0.00000000000E+00  0.43363225625E+02  0.43363225625E+02  0.00000000000E+00 0.  1.
          1   -1    0    0  503    0 -0.00000000000E+00 -0.00000000000E+00 -0.37960897845E+03  0.37960897845E+03  0.00000000000E+00 0.  1.
         21    1    1    2  503  502  0.10800988695E+03  0.52775463239E+02 -0.94227586873E+02  0.15274234294E+03  0.00000000000E+00 0.  1.
          1    1    1    2  501    0 -0.10800988695E+03 -0.52775463239E+02 -0.24201816596E+03  0.27022986114E+03  0.00000000000E+00 0.  1.
<mgrwt>
<rscale>  2 0.12021391E+03</rscale>
<asrwt>0</asrwt>
<pdfrwt beam="1">  1       21 0.66712656E-02 0.12021391E+03</pdfrwt>
<pdfrwt beam="2">  1        1 0.58401380E-01 0.12021391E+03</pdfrwt>
<totfact> 0.11547964E+05</totfact>
</mgrwt>
</event>
<event>
 4    1  0.5045766E+003  0.1658355E+03  0.7546771E-02  0.1182262E+00
         21   -1    0    0  503  502  0.00000000000E+00  0.00000000000E+00  0.34384292683E+02  0.34384292683E+02  0.00000000000E+00 0.  1.
          2   -1    0    0  502    0 -0.00000000000E+00 -0.00000000000E+00 -0.10315136237E+04  0.10315136237E+04  0.00000000000E+00 0.  1.
         21    1    1    2  503  501  0.56029211673E+02  0.15608377989E+03 -0.24598380788E+03  0.29666387148E+03  0.00000000000E+00 0.  1.
          2    1    1    2  501    0 -0.56029211673E+02 -0.15608377989E+03 -0.75114552311E+03  0.76923404487E+03  0.00000000000E+00 0.  1.
<mgrwt>
<rscale>  2 0.16583552E+03</rscale>
<asrwt>0</asrwt>
<pdfrwt beam="1">  1       21 0.52898915E-02 0.16583552E+03</pdfrwt>
<pdfrwt beam="2">  1        2 0.15869440E+00 0.16583552E+03</pdfrwt>
<totfact> 0.78230410E+04</totfact>
</mgrwt>
</event>
<event>
 4    1  0.5045766E+003  0.1261965E+03  0.7546771E-02  0.1233211E+00
          2   -1    0    0  502    0 -0.00000000000E+00  0.00000000000E+00  0.12906223222E+04  0.12906223222E+04  0.00000000000E+00 0. -1.
         21   -1    0    0  503  502  0.00000000000E+00 -0.00000000000E+00 -0.14138909173E+02  0.14138909173E+02  0.00000000000E+00 0.  1.
         21    1    1    2  503  501  0.89828437595E+02 -0.88636335076E+02  0.40550434492E+03  0.42468732245E+03  0.00000000000E+00 0.  1.
          2    1    1    2  501    0 -0.89828437595E+02  0.88636335076E+02  0.87097906815E+03  0.88007390897E+03  0.00000000000E+00 0. -1.
<mgrwt>
<rscale>  2 0.12619647E+03</rscale>
<asrwt>0</asrwt>
<pdfrwt beam="2">  1       21 0.21752178E-02 0.12619647E+03</pdfrwt>
<pdfrwt beam="1">  1        2 0.19855719E+00 0.12619647E+03</pdfrwt>
<totfact> 0.24243191E+05</totfact>
</mgrwt>
</event>
<event>
 4    1  0.5045766E+003  0.1050049E+03  0.7546771E-02  0.1270110E+00
         -2   -1    0    0    0  501 -0.00000000000E+00  0.00000000000E+00  0.79698989237E+03  0.79698989237E+03  0.00000000000E+00 0.  1.
         21   -1    0    0  503  502  0.00000000000E+00 -0.00000000000E+00 -0.13543011033E+03  0.13543011033E+03  0.00000000000E+00 0.  1.
         21    1    1    2  503  501  0.76350734241E+02 -0.72087339649E+02 -0.11097643591E+03  0.15278019664E+03  0.00000000000E+00 0.  1.
         -2    1    1    2    0  502 -0.76350734241E+02  0.72087339649E+02  0.77253621795E+03  0.77963980607E+03  0.00000000000E+00 0.  1.
<mgrwt>
<rscale>  2 0.10500485E+03</rscale>
<asrwt>0</asrwt>
<pdfrwt beam="2">  1       21 0.20835402E-01 0.10500485E+03</pdfrwt>
<pdfrwt beam="1">  1       -2 0.12261383E+00 0.10500485E+03</pdfrwt>
<totfact> 0.95456630E+02</totfact>
</mgrwt>
</event>
<event>
 4    1  0.5045766E+003  0.1494740E+03  0.7546771E-02  0.1201121E+00
         -1   -1    0    0    0  501 -0.00000000000E+00  0.00000000000E+00  0.53161610507E+02  0.53161610507E+02  0.00000000000E+00 0.  1.
         21   -1    0    0  503  502  0.00000000000E+00 -0.00000000000E+00 -0.13469142236E+04  0.13469142236E+04  0.00000000000E+00 0. -1.
         21    1    1    2  503  501  0.14946196598E+03  0.18931480249E+01 -0.12275164760E+04  0.12365836656E+04  0.00000000000E+00 0. -1.
         -1    1    1    2    0  502 -0.14946196598E+03 -0.18931480249E+01 -0.66236137052E+02  0.16349216842E+03  0.00000000000E+00 0.  1.
<mgrwt>
<rscale>  2 0.14947396E+03</rscale>
<asrwt>0</asrwt>
<pdfrwt beam="2">  1       21 0.20721758E+00 0.14947396E+03</pdfrwt>
<pdfrwt beam="1">  1       -1 0.81787091E-02 0.14947396E+03</pdfrwt>
<totfact> 0.92147462E+02</totfact>
</mgrwt>
</event>
<event>
 4    1  0.5045766E+003  0.1102762E+03  0.7546771E-02  0.1260059E+00
          2   -1    0    0  502    0 -0.00000000000E+00  0.00000000000E+00  0.18202397284E+04  0.18202397284E+04  0.00000000000E+00 0.  1.
         21   -1    0    0  503  502  0.00000000000E+00 -0.00000000000E+00 -0.68691752090E+01  0.68691752090E+01  0.00000000000E+00 0.  1.
         21    1    1    2  503  501  0.57738804194E+02  0.93952489454E+02  0.75544112341E+03  0.76344752977E+03  0.00000000000E+00 0.  1.
          2    1    1    2  501    0 -0.57738804194E+02 -0.93952489454E+02  0.10579294298E+04  0.10636613738E+04  0.00000000000E+00 0.  1.
<mgrwt>
<rscale>  2 0.11027620E+03</rscale>
<asrwt>0</asrwt>
<pdfrwt beam="2">  1       21 0.10567976E-02 0.11027620E+03</pdfrwt>
<pdfrwt beam="1">  1        2 0.28003650E+00 0.11027620E+03</pdfrwt>
<totfact> 0.40675354E+05</totfact>
</mgrwt>
</event>
<event>
 4    1  0.5045766E+003  0.1117527E+03  0.7546771E-02  0.1257358E+00
          1   -1    0    0  502    0 -0.00000000000E+00  0.00000000000E+00  0.10504619341E+04  0.10504619341E+04  0.00000000000E+00 0.  1.
         21   -1    0    0  503  502  0.00000000000E+00 -0.00000000000E+00 -0.30331513753E+02  0.30331513753E+02  0.00000000000E+00 0.  1.
         21    1    1    2  503  501 -0.32575573346E+02 -0.10689947214E+03  0.88680449250E+02  0.14266354545E+03  0.00000000000E+00 0.  1.
          1    1    1    2  501    0  0.32575573346E+02  0.10689947214E+03  0.93144997109E+03  0.93812990239E+03  0.00000000000E+00 0.  1.
<mgrwt>
<rscale>  2 0.11175270E+03</rscale>
<asrwt>0</asrwt>
<pdfrwt beam="2">  1       21 0.46663875E-02 0.11175270E+03</pdfrwt>
<pdfrwt beam="1">  1        1 0.16160950E+00 0.11175270E+03</pdfrwt>
<totfact> 0.50150472E+04</totfact>
</mgrwt>
</event>
<event>
 4    1  0.5045766E+003  0.1202920E+03  0.7546771E-02  0.1242616E+00
         21   -1    0    0  503  502  0.00000000000E+00  0.00000000000E+00  0.34369627617E+03  0.34369627617E+03  0.00000000000E+00 0. -1.
          1   -1    0    0  502    0 -0.00000000000E+00 -0.00000000000E+00 -0.97611179816E+02  0.97611179816E+02  0.00000000000E+00 0.  1.
         21    1    1    2  503  501 -0.10121366894E+03  0.65007359740E+02  0.28943953322E+03  0.31344123372E+03  0.00000000000E+00 0. -1.
          1    1    1    2  501    0  0.10121366894E+03 -0.65007359740E+02 -0.43354436871E+02  0.12786622227E+03  0.00000000000E+00 0.  1.
<mgrwt>
<rscale>  2 0.12029199E+03</rscale>
<asrwt>0</asrwt>
<pdfrwt beam="1">  1       21 0.52876350E-01 0.12029199E+03</pdfrwt>
<pdfrwt beam="2">  1        1 0.15017105E-01 0.12029199E+03</pdfrwt>
<totfact> 0.13613654E+04</totfact>
</mgrwt>
</event>
<event>
 4    1  0.5045766E+003  0.1012505E+03  0.7546771E-02  0.1277688E+00
         21   -1    0    0  501  502  0.00000000000E+00  0.00000000000E+00  0.18039123612E+03  0.18039123612E+03  0.00000000000E+00 0. -1.
         -1   -1    0    0    0  501 -0.00000000000E+00 -0.00000000000E+00 -0.12762791485E+03  0.12762791485E+03  0.00000000000E+00 0. -1.
         21    1    1    2  503  502 -0.99736827960E+02  0.17442137227E+02  0.14108726205E+03  0.17365851121E+03  0.00000000000E+00 0. -1.
         -1    1    1    2    0  503  0.99736827960E+02 -0.17442137227E+02 -0.88323940777E+02  0.13436063976E+03  0.00000000000E+00 0. -1.
<mgrwt>
<rscale>  2 0.10125050E+03</rscale>
<asrwt>0</asrwt>
<pdfrwt beam="1">  1       21 0.27752498E-01 0.10125050E+03</pdfrwt>
<pdfrwt beam="2">  1       -1 0.19635064E-01 0.10125050E+03</pdfrwt>
<totfact> 0.23187807E+04</totfact>
</mgrwt>
</event>
<event>
 4    1  0.5045766E+003  0.1193129E+03  0.7546771E-02  0.1244235E+00
         21   -1    0    0  503  502  0.00000000000E+00  0.00000000000E+00  0.12384758931E+03  0.12384758931E+03  0.00000000000E+00 0. -1.
          2   -1    0    0  502    0 -0.00000000000E+00 -0.00000000000E+00 -0.11056111992E+04  0.11056111992E+04  0.00000000000E+00 0. -1.
         21    1    1    2  503  501  0.82588153619E+02  0.86109097442E+02  0.91015816826E+02  0.15006484829E+03  0.00000000000E+00 0. -1.
          2    1    1    2  501    0 -0.82588153619E+02 -0.86109097442E+02 -0.10727794267E+04  0.10793939402E+04  0.00000000000E+00 0. -1.
<mgrwt>
<rscale>  2 0.11931295E+03</rscale>
<asrwt>0</asrwt>
<pdfrwt beam="1">  1       21 0.19053476E-01 0.11931295E+03</pdfrwt>
<pdfrwt beam="2">  1        2 0.17009403E+00 0.11931295E+03</pdfrwt>
<totfact> 0.75224885E+03</totfact>
</mgrwt>
</event>
<event>
 4    1  0.5045766E+003  0.1093223E+03  0.7546771E-02  0.1261830E+00
          1   -1    0    0  503    0 -0.00000000000E+00  0.00000000000E+00  0.15807248950E+03  0.15807248950E+03  0.00000000000E+00 0. -1.
         21   -1    0    0  501  502  0.00000000000E+00 -0.00000000000E+00 -0.97140783624E+02  0.97140783624E+02  0.00000000000E+00 0. -1.
         21    1    1    2  503  502 -0.20100032788E+02  0.10745863976E+03 -0.29614664214E+02  0.11326252211E+03  0.00000000000E+00 0. -1.
          1    1    1    2  501    0  0.20100032788E+02 -0.10745863976E+03  0.90546370092E+02  0.14195075102E+03  0.00000000000E+00 0. -1.
<mgrwt>
<rscale>  2 0.10932232E+03</rscale>
<asrwt>0</asrwt>
<pdfrwt beam="2">  1       21 0.14944736E-01 0.10932232E+03</pdfrwt>
<pdfrwt beam="1">  1        1 0.24318844E-01 0.10932232E+03</pdfrwt>
<totfact> 0.83170811E+04</totfact>
</mgrwt>
</event>
<event>
 4    1  0.5045766E+003  0.1111399E+03  0.7546771E-02  0.1258473E+00
         21   -1    0    0  501  502  0.00000000000E+00  0.00000000000E+00  0.58908208837E+02  0.58908208837E+02  0.00000000000E+00 0.  1.
          1   -1    0    0  503    0 -0.00000000000E+00 -0.00000000000E+00 -0.21550788632E+03  0.21550788632E+03  0.00000000000E+00 0.  1.
         21    1    1    2  503  502 -0.85403679728E+02  0.71121690865E+02 -0.55743399326E+02  0.12433587572E+03  0.00000000000E+00 0.  1.
          1    1    1    2  501    0  0.85403679728E+02 -0.71121690865E+02 -0.10085627816E+03  0.15008021944E+03  0.00000000000E+00 0.  1.
<mgrwt>
<rscale>  2 0.11113993E+03</rscale>
<asrwt>0</asrwt>
<pdfrwt beam="1">  1       21 0.90628014E-02 0.11113993E+03</pdfrwt>
<pdfrwt beam="2">  1        1 0.33155059E-01 0.11113993E+03</pdfrwt>
<totfact> 0.13679045E+05</totfact>
</mgrwt>
</event>
<event>
 4    1  0.5045766E+003  0.1034119E+03  0.7546771E-02  0.1273280E+00
         21   -1    0    0  501  502  0.00000000000E+00  0.00000000000E+00  0.13063018432E+03  0.13063018432E+03  0.00000000000E+00 0. -1.
          3   -1    0    0  503    0 -0.00000000000E+00 -0.00000000000E+00 -0.18457270423E+03  0.18457270423E+03  0.00000000000E+00 0.  1.
         21    1    1    2  503  502  0.10340522596E+03  0.11753493352E+01  0.90593796043E+02  0.13748184638E+03  0.00000000000E+00 0. -1.
          3    1    1    2  501    0 -0.10340522596E+03 -0.11753493352E+01 -0.14453631595E+03  0.17772104218E+03  0.00000000000E+00 0.  1.
<mgrwt>
<rscale>  2 0.10341191E+03</rscale>
<asrwt>0</asrwt>
<pdfrwt beam="1">  1       21 0.20096951E-01 0.10341191E+03</pdfrwt>
<pdfrwt beam="2">  1        3 0.28395801E-01 0.10341191E+03</pdfrwt>
<totfact> 0.12929634E+04</totfact>
</mgrwt>
</event>
<event>
 4    1  0.5045766E+003  0.1035570E+03  0.7546771E-02  0.1272989E+00
         -3   -1    0    0    0  501 -0.00000000000E+00  0.00000000000E+00  0.17189068279E+03  0.17189068279E+03  0.00000000000E+00 0.  1.
         21   -1    0    0  503  502  0.00000000000E+00 -0.00000000000E+00 -0.21030245410E+03  0.21030245410E+03  0.00000000000E+00 0.  1.
         21    1    1    2  503  501 -0.10349602584E+03  0.35541080678E+01 -0.17946945211E+03  0.20720362760E+03  0.00000000000E+00 0.  1.
         -3    1    1    2    0  502  0.10349602584E+03 -0.35541080678E+01  0.14105768080E+03  0.17498950929E+03  0.00000000000E+00 0.  1.
<mgrwt>
<rscale>  2 0.10355703E+03</rscale>
<asrwt>0</asrwt>
<pdfrwt beam="2">  1       21 0.32354224E-01 0.10355703E+03</pdfrwt>
<pdfrwt beam="1">  1       -3 0.26444721E-01 0.10355703E+03</pdfrwt>
<totfact> 0.60005888E+03</totfact>
</mgrwt>
</event>
<event>
 4    1  0.5045766E+003  0.1097424E+03  0.7546771E-02  0.1261048E+00
          2   -1    0    0  503    0 -0.00000000000E+00  0.00000000000E+00  0.20426990268E+04  0.20426990268E+04  0.00000000000E+00 0. -1.
         21   -1    0    0  501  502  0.00000000000E+00 -0.00000000000E+00 -0.34914072158E+02  0.34914072158E+02  0.00000000000E+00 0.  1.
         21    1    1    2  503  502  0.10673686121E+03 -0.25507701079E+02  0.56848823384E+02  0.12359283586E+03  0.00000000000E+00 0.  1.
          2    1    1    2  501    0 -0.10673686121E+03  0.25507701079E+02  0.19509361313E+04  0.19540202631E+04  0.00000000000E+00 0. -1.
<mgrwt>
<rscale>  2 0.10974243E+03</rscale>
<asrwt>0</asrwt>
<pdfrwt beam="2">  1       21 0.53713973E-02 0.10974243E+03</pdfrwt>
<pdfrwt beam="1">  1        2 0.31426130E+00 0.10974243E+03</pdfrwt>
<totfact> 0.22501959E+04</totfact>
</mgrwt>
</event>
<event>
 4    1  0.5045766E+003  0.1145060E+03  0.7546771E-02  0.1252446E+00
         21   -1    0    0  501  502  0.00000000000E+00  0.00000000000E+00  0.33277576784E+03  0.33277576784E+03  0.00000000000E+00 0. -1.
          2   -1    0    0  503    0 -0.00000000000E+00 -0.00000000000E+00 -0.15185191754E+03  0.15185191754E+03  0.00000000000E+00 0.  1.
         21    1    1    2  503  502  0.10566869849E+03 -0.44110579163E+02  0.29898304870E+03  0.32016008565E+03  0.00000000000E+00 0. -1.
          2    1    1    2  501    0 -0.10566869849E+03  0.44110579163E+02 -0.11805919839E+03  0.16446759973E+03  0.00000000000E+00 0.  1.
<mgrwt>
<rscale>  2 0.11450597E+03</rscale>
<asrwt>0</asrwt>
<pdfrwt beam="1">  1       21 0.51196272E-01 0.11450597E+03</pdfrwt>
<pdfrwt beam="2">  1        2 0.23361834E-01 0.11450597E+03</pdfrwt>
<totfact> 0.10489239E+04</totfact>
</mgrwt>
</event>
<event>
 4    1  0.5045766E+003  0.1244018E+03  0.7546771E-02  0.1236007E+00
          2   -1    0    0  503    0 -0.00000000000E+00  0.00000000000E+00  0.99963903928E+02  0.99963903928E+02  0.00000000000E+00 0. -1.
         21   -1    0    0  501  502  0.00000000000E+00 -0.00000000000E+00 -0.16873962867E+03  0.16873962867E+03  0.00000000000E+00 0. -1.
         21    1    1    2  503  502  0.99938749761E+02  0.74081410182E+02 -0.72983895937E+02  0.14423057271E+03  0.00000000000E+00 0. -1.
          2    1    1    2  501    0 -0.99938749761E+02 -0.74081410182E+02  0.42081711941E+01  0.12447295989E+03  0.00000000000E+00 0. -1.
<mgrwt>
<rscale>  2 0.12440180E+03</rscale>
<asrwt>0</asrwt>
<pdfrwt beam="2">  1       21 0.25959943E-01 0.12440180E+03</pdfrwt>
<pdfrwt beam="1">  1        2 0.15379062E-01 0.12440180E+03</pdfrwt>
<totfact> 0.64388801E+04</totfact>
</mgrwt>
</event>
<event>
 4    1  0.5045766E+003  0.1021890E+03  0.7546771E-02  0.1275759E+00
         21   -1    0    0  503  502  0.00000000000E+00  0.00000000000E+00  0.29786214756E+02  0.29786214756E+02  0.00000000000E+00 0. -1.
         -1   -1    0    0    0  501 -0.00000000000E+00 -0.00000000000E+00 -0.36574593770E+03  0.36574593770E+03  0.00000000000E+00 0. -1.
         21    1    1    2  503  501  0.85675581274E+02  0.55698251434E+02 -0.12771512048E+03  0.16356574347E+03  0.00000000000E+00 0. -1.
         -1    1    1    2    0  502 -0.85675581274E+02 -0.55698251434E+02 -0.20824460246E+03  0.23196640898E+03  0.00000000000E+00 0. -1.
<mgrwt>
<rscale>  2 0.10218904E+03</rscale>
<asrwt>0</asrwt>
<pdfrwt beam="1">  1       21 0.45824947E-02 0.10218904E+03</pdfrwt>
<pdfrwt beam="2">  1       -1 0.56268605E-01 0.10218904E+03</pdfrwt>
<totfact> 0.92380400E+04</totfact>
</mgrwt>
</event>
<event>
 4    1  0.5045766E+003  0.2201867E+03  0.7546771E-02  0.1133744E+00
          3   -1    0    0  503    0 -0.00000000000E+00  0.00000000000E+00  0.51738479647E+03  0.51738479647E+03  0.00000000000E+00 0. -1.
         21   -1    0    0  501  502  0.00000000000E+00 -0.00000000000E+00 -0.38997219075E+03  0.38997219075E+03  0.00000000000E+00 0.  1.
         21    1    1    2  503  502  0.16406671596E+03 -0.14684789830E+03 -0.33172608001E+03  0.39815120832E+03  0.00000000000E+00 0.  1.
          3    1    1    2  501    0 -0.16406671596E+03  0.14684789830E+03  0.45913868574E+03  0.50920577890E+03  0.00000000000E+00 0. -1.
<mgrwt>
<rscale>  2 0.22018672E+03</rscale>
<asrwt>0</asrwt>
<pdfrwt beam="2">  1       21 0.59995721E-01 0.22018672E+03</pdfrwt>
<pdfrwt beam="1">  1        3 0.79597661E-01 0.22018672E+03</pdfrwt>
<totfact> 0.19171935E+02</totfact>
</mgrwt>
</event>
<event>
 4    1  0.5045766E+003  0.1582962E+03  0.7546771E-02  0.1190634E+00
          2   -1    0    0  503    0 -0.00000000000E+00  0.00000000000E+00  0.73921301371E+03  0.73921301371E+03  0.00000000000E+00 0.  1.
         21   -1    0    0  501  502  0.00000000000E+00 -0.00000000000E+00 -0.35188988317E+02  0.35188988317E+02  0.00000000000E+00 0.  1.
         21    1    1    2  503  502  0.75251083101E+02  0.13926575613E+03  0.27784136071E+03  0.31977100878E+03  0.00000000000E+00 0.  1.
          2    1    1    2  501    0 -0.75251083101E+02 -0.13926575613E+03  0.42618266468E+03  0.45463099324E+03  0.00000000000E+00 0.  1.
<mgrwt>
<rscale>  2 0.15829617E+03</rscale>
<asrwt>0</asrwt>
<pdfrwt beam="2">  1       21 0.54136911E-02 0.15829617E+03</pdfrwt>
<pdfrwt beam="1">  1        2 0.11372507E+00 0.15829617E+03</pdfrwt>
<totfact> 0.11613382E+05</totfact>
</mgrwt>
</event>
<event>
 4    1  0.5045766E+003  0.1371441E+03  0.7546771E-02  0.1217224E+00
          1   -1    0    0  503    0 -0.00000000000E+00  0.00000000000E+00  0.20766423183E+03  0.20766423183E+03  0.00000000000E+00 0.  1.
         21   -1    0    0  501  502  0.00000000000E+00 -0.00000000000E+00 -0.15581791493E+04  0.15581791493E+04  0.00000000000E+00 0. -1.
         21    1    1    2  503  502 -0.90285660342E+02 -0.10323271452E+03 -0.15321343917E+04  0.15382601497E+04  0.00000000000E+00 0. -1.
          1    1    1    2  501    0  0.90285660342E+02  0.10323271452E+03  0.18161947425E+03  0.22758323145E+03  0.00000000000E+00 0.  1.
<mgrwt>
<rscale>  2 0.13714406E+03</rscale>
<asrwt>0</asrwt>
<pdfrwt beam="2">  1       21 0.23971988E+00 0.13714406E+03</pdfrwt>
<pdfrwt beam="1">  1        1 0.31948342E-01 0.13714406E+03</pdfrwt>
<totfact> 0.12381923E+02</totfact>
</mgrwt>
</event>
<event>
 4    1  0.5045766E+003  0.1264412E+03  0.7546771E-02  0.1232834E+00
         21   -1    0    0  503  502  0.00000000000E+00  0.00000000000E+00  0.16470188266E+04  0.16470188266E+04  0.00000000000E+00 0. -1.
         -1   -1    0    0    0  501 -0.00000000000E+00 -0.00000000000E+00 -0.11398102966E+03  0.11398102966E+03  0.00000000000E+00 0.  1.
         21    1    1    2  503  501 -0.96318379469E+02 -0.81915415149E+02  0.16086921176E+04  0.16136535237E+04  0.00000000000E+00 0. -1.
         -1    1    1    2    0  502  0.96318379469E+02  0.81915415149E+02 -0.75654320678E+02  0.14734633250E+03  0.00000000000E+00 0.  1.
<mgrwt>
<rscale>  2 0.12644115E+03</rscale>
<asrwt>0</asrwt>
<pdfrwt beam="1">  1       21 0.25338749E+00 0.12644115E+03</pdfrwt>
<pdfrwt beam="2">  1       -1 0.17535544E-01 0.12644115E+03</pdfrwt>
<totfact> 0.15459617E+02</totfact>
</mgrwt>
</event>
<event>
 4    1  0.5045766E+003  0.1213823E+03  0.7546771E-02  0.1240834E+00
          1   -1    0    0  503    0 -0.00000000000E+00  0.00000000000E+00  0.11616542983E+03  0.11616542983E+03  0.00000000000E+00 0. -1.
         21   -1    0    0  501  502  0.00000000000E+00 -0.00000000000E+00 -0.29056161738E+03  0.29056161738E+03  0.00000000000E+00 0.  1.
         21    1    1    2  503  502  0.79236150281E+02 -0.91952684741E+02 -0.23985470562E+03  0.26881953715E+03  0.00000000000E+00 0.  1.
          1    1    1    2  501    0 -0.79236150281E+02  0.91952684741E+02  0.65458518071E+02  0.13790751006E+03  0.00000000000E+00 0. -1.
<mgrwt>
<rscale>  2 0.12138230E+03</rscale>
<asrwt>0</asrwt>
<pdfrwt beam="2">  1       21 0.44701787E-01 0.12138230E+03</pdfrwt>
<pdfrwt beam="1">  1        1 0.17871605E-01 0.12138230E+03</pdfrwt>
<totfact> 0.15366300E+04</totfact>
</mgrwt>
</event>
<event>
 4    1  0.5045766E+003  0.1379844E+03  0.7546771E-02  0.1216067E+00
         21   -1    0    0  503  502  0.00000000000E+00  0.00000000000E+00  0.27103321277E+03  0.27103321277E+03  0.00000000000E+00 0. -1.
          1   -1    0    0  502    0 -0.00000000000E+00 -0.00000000000E+00 -0.16153676097E+03  0.16153676097E+03  0.00000000000E+00 0.  1.
         21    1    1    2  503  501 -0.31685371767E+02  0.13429716958E+03  0.21733979294E+03  0.25744179563E+03  0.00000000000E+00 0. -1.
          1    1    1    2  501    0  0.31685371767E+02 -0.13429716958E+03 -0.10784334113E+03  0.17512817811E+03  0.00000000000E+00 0.  1.
<mgrwt>
<rscale>  2 0.13798439E+03</rscale>
<asrwt>0</asrwt>
<pdfrwt beam="1">  1       21 0.41697417E-01 0.13798439E+03</pdfrwt>
<pdfrwt beam="2">  1        1 0.24851809E-01 0.13798439E+03</pdfrwt>
<totfact> 0.11630043E+04</totfact>
</mgrwt>
</event>
<event>
 4    1  0.5045766E+003  0.1948269E+03  0.7546771E-02  0.1154178E+00
         21   -1    0    0  503  502  0.00000000000E+00  0.00000000000E+00  0.11548540289E+03  0.11548540289E+03  0.00000000000E+00 0.  1.
          2   -1    0    0  502    0 -0.00000000000E+00 -0.00000000000E+00 -0.22746988929E+04  0.22746988929E+04  0.00000000000E+00 0. -1.
         21    1    1    2  503  501  0.18071110191E+03 -0.72808008535E+02  0.25777287599E+02  0.19652474912E+03  0.00000000000E+00 0.  1.
          2    1    1    2  501    0 -0.18071110191E+03  0.72808008535E+02 -0.21849907776E+04  0.21936595467E+04  0.00000000000E+00 0. -1.
<mgrwt>
<rscale>  2 0.19482687E+03</rscale>
<asrwt>0</asrwt>
<pdfrwt beam="1">  1       21 0.17766986E-01 0.19482687E+03</pdfrwt>
<pdfrwt beam="2">  1        2 0.34995366E+00 0.19482687E+03</pdfrwt>
<totfact> 0.19875151E+03</totfact>
</mgrwt>
</event>
<event>
 4    1  0.5045766E+003  0.1207580E+03  0.7546771E-02  0.1241852E+00
         -4   -1    0    0    0  501 -0.00000000000E+00  0.00000000000E+00  0.36464605362E+03  0.36464605362E+03  0.00000000000E+00 0. -1.
         21   -1    0    0  501  502  0.00000000000E+00 -0.00000000000E+00 -0.69467840855E+02  0.69467840855E+02  0.00000000000E+00 0. -1.
         21    1    1    2  503  502  0.43727105336E+02  0.11256301376E+03  0.61974953241E+01  0.12091691674E+03  0.00000000000E+00 0. -1.
         -4    1    1    2    0  503 -0.43727105336E+02 -0.11256301376E+03  0.28898071744E+03  0.31319697773E+03  0.00000000000E+00 0. -1.
<mgrwt>
<rscale>  2 0.12075799E+03</rscale>
<asrwt>0</asrwt>
<pdfrwt beam="2">  1       21 0.10687360E-01 0.12075799E+03</pdfrwt>
<pdfrwt beam="1">  1       -4 0.56099392E-01 0.12075799E+03</pdfrwt>
<totfact> 0.89371530E+03</totfact>
</mgrwt>
</event>
<event>
 4    1  0.5045766E+003  0.1032505E+03  0.7546771E-02  0.1273605E+00
          1   -1    0    0  502    0 -0.00000000000E+00  0.00000000000E+00  0.18657922968E+03  0.18657922968E+03  0.00000000000E+00 0. -1.
         21   -1    0    0  503  502  0.00000000000E+00 -0.00000000000E+00 -0.17663710686E+03  0.17663710686E+03  0.00000000000E+00 0.  1.
         21    1    1    2  503  501 -0.84200531560E+02  0.59757260961E+02 -0.14440388136E+03  0.17751940937E+03  0.00000000000E+00 0.  1.
          1    1    1    2  501    0  0.84200531560E+02 -0.59757260961E+02  0.15434600418E+03  0.18569692717E+03  0.00000000000E+00 0. -1.
<mgrwt>
<rscale>  2 0.10325047E+03</rscale>
<asrwt>0</asrwt>
<pdfrwt beam="2">  1       21 0.27174939E-01 0.10325047E+03</pdfrwt>
<pdfrwt beam="1">  1        1 0.28704497E-01 0.10325047E+03</pdfrwt>
<totfact> 0.22477856E+04</totfact>
</mgrwt>
</event>
<event>
 4    1  0.5045766E+003  0.1411839E+03  0.7546771E-02  0.1211745E+00
          2   -1    0    0  503    0 -0.00000000000E+00  0.00000000000E+00  0.20781336498E+04  0.20781336498E+04  0.00000000000E+00 0.  1.
         21   -1    0    0  501  502  0.00000000000E+00 -0.00000000000E+00 -0.21257333670E+02  0.21257333670E+02  0.00000000000E+00 0.  1.
         21    1    1    2  503  502 -0.14118098263E+03 -0.90855251668E+00  0.25082686374E+03  0.28783156689E+03  0.00000000000E+00 0.  1.
          2    1    1    2  501    0  0.14118098263E+03  0.90855251668E+00  0.18060494524E+04  0.18115594166E+04  0.00000000000E+00 0.  1.
<mgrwt>
<rscale>  2 0.14118391E+03</rscale>
<asrwt>0</asrwt>
<pdfrwt beam="2">  1       21 0.32703607E-02 0.14118391E+03</pdfrwt>
<pdfrwt beam="1">  1        2 0.31971271E+00 0.14118391E+03</pdfrwt>
<totfact> 0.48747037E+04</totfact>
</mgrwt>
</event>
<event>
 4    1  0.5045766E+003  0.1129508E+03  0.7546771E-02  0.1255201E+00
         -4   -1    0    0    0  501 -0.00000000000E+00  0.00000000000E+00  0.10474433744E+04  0.10474433744E+04  0.00000000000E+00 0. -1.
         21   -1    0    0  503  502  0.00000000000E+00 -0.00000000000E+00 -0.18528863923E+02  0.18528863923E+02  0.00000000000E+00 0. -1.
         21    1    1    2  503  501  0.12870446267E+02  0.11221509765E+03  0.20246847065E+03  0.23184339140E+03  0.00000000000E+00 0. -1.
         -4    1    1    2    0  502 -0.12870446267E+02 -0.11221509765E+03  0.82644603982E+03  0.83412884692E+03  0.00000000000E+00 0. -1.
<mgrwt>
<rscale>  2 0.11295077E+03</rscale>
<asrwt>0</asrwt>
<pdfrwt beam="2">  1       21 0.28505953E-02 0.11295077E+03</pdfrwt>
<pdfrwt beam="1">  1       -4 0.16114509E+00 0.11295077E+03</pdfrwt>
<totfact> 0.73377357E+03</totfact>
</mgrwt>
</event>
<event>
 4    1  0.5045766E+003  0.1054049E+03  0.7546771E-02  0.1269324E+00
          2   -1    0    0  502    0 -0.00000000000E+00  0.00000000000E+00  0.50345288181E+03  0.50345288181E+03  0.00000000000E+00 0. -1.
         21   -1    0    0  503  502  0.00000000000E+00 -0.00000000000E+00 -0.74895547584E+02  0.74895547584E+02  0.00000000000E+00 0.  1.
         21    1    1    2  503  501  0.10444407991E+03  0.14199570470E+02 -0.28584596547E+02  0.10921205423E+03  0.00000000000E+00 0.  1.
          2    1    1    2  501    0 -0.10444407991E+03 -0.14199570470E+02  0.45714193078E+03  0.46913637517E+03  0.00000000000E+00 0. -1.
<mgrwt>
<rscale>  2 0.10540490E+03</rscale>
<asrwt>0</asrwt>
<pdfrwt beam="2">  1       21 0.11522392E-01 0.10540490E+03</pdfrwt>
<pdfrwt beam="1">  1        2 0.77454288E-01 0.10540490E+03</pdfrwt>
<totfact> 0.48709359E+04</totfact>
</mgrwt>
</event>
<event>
 4    1  0.5045766E+003  0.1618986E+03  0.7546771E-02  0.1186570E+00
         21   -1    0    0  501  502  0.00000000000E+00  0.00000000000E+00  0.16745618573E+02  0.16745618573E+02  0.00000000000E+00 0.  1.
          2   -1    0    0  503    0 -0.00000000000E+00 -0.00000000000E+00 -0.21902152384E+04  0.21902152384E+04  0.00000000000E+00 0. -1.
         21    1    1    2  503  502  0.11886292869E+03  0.10992160510E+03 -0.49728395932E+03  0.52297465644E+03  0.00000000000E+00 0.  1.
          2    1    1    2  501    0 -0.11886292869E+03 -0.10992160510E+03 -0.16761856605E+04  0.16839862005E+04  0.00000000000E+00 0. -1.
<mgrwt>
<rscale>  2 0.16189860E+03</rscale>
<asrwt>0</asrwt>
<pdfrwt beam="1">  1       21 0.25762474E-02 0.16189860E+03</pdfrwt>
<pdfrwt beam="2">  1        2 0.33695640E+00 0.16189860E+03</pdfrwt>
<totfact> 0.62821391E+04</totfact>
</mgrwt>
</event>
<event>
 4    1  0.5045766E+003  0.1155971E+03  0.7546771E-02  0.1250542E+00
         -1   -1    0    0    0  501 -0.00000000000E+00  0.00000000000E+00  0.15734956198E+04  0.15734956198E+04  0.00000000000E+00 0. -1.
         21   -1    0    0  503  502  0.00000000000E+00 -0.00000000000E+00 -0.14119121039E+02  0.14119121039E+02  0.00000000000E+00 0.  1.
         21    1    1    2  503  501 -0.10609831295E+03 -0.45889297226E+02  0.27856930882E+03  0.30160162372E+03  0.00000000000E+00 0.  1.
         -1    1    1    2    0  502  0.10609831295E+03  0.45889297226E+02  0.12808071899E+04  0.12860131171E+04  0.00000000000E+00 0. -1.
<mgrwt>
<rscale>  2 0.11559706E+03</rscale>
<asrwt>0</asrwt>
<pdfrwt beam="2">  1       21 0.21721737E-02 0.11559706E+03</pdfrwt>
<pdfrwt beam="1">  1       -1 0.24207611E+00 0.11559706E+03</pdfrwt>
<totfact> 0.92507602E+03</totfact>
</mgrwt>
</event>
<event>
 4    1  0.5045766E+003  0.1247919E+03  0.7546771E-02  0.1235395E+00
         -4   -1    0    0    0  501 -0.00000000000E+00  0.00000000000E+00  0.40302607952E+02  0.40302607952E+02  0.00000000000E+00 0.  1.
         21   -1    0    0  503  502  0.00000000000E+00 -0.00000000000E+00 -0.59177749233E+03  0.59177749233E+03  0.00000000000E+00 0.  1.
         21    1    1    2  503  501  0.63138810583E+02  0.10764068746E+03 -0.46191902545E+03  0.47847906231E+03  0.00000000000E+00 0.  1.
         -4    1    1    2    0  502 -0.63138810583E+02 -0.10764068746E+03 -0.89555858933E+02  0.15360103798E+03  0.00000000000E+00 0.  1.
<mgrwt>
<rscale>  2 0.12479193E+03</rscale>
<asrwt>0</asrwt>
<pdfrwt beam="2">  1       21 0.91042682E-01 0.12479193E+03</pdfrwt>
<pdfrwt beam="1">  1       -4 0.62004019E-02 0.12479193E+03</pdfrwt>
<totfact> 0.70977015E+03</totfact>
</mgrwt>
</event>
<event>
 4    1  0.5045766E+003  0.1009622E+03  0.7546771E-02  0.1278286E+00
         21   -1    0    0  503  502  0.00000000000E+00  0.00000000000E+00  0.13543389220E+03  0.13543389220E+03  0.00000000000E+00 0.  1.
         -4   -1    0    0    0  501 -0.00000000000E+00 -0.00000000000E+00 -0.75694667096E+02  0.75694667096E+02  0.00000000000E+00 0.  1.
         21    1    1    2  503  501 -0.15693839316E+02 -0.99734955925E+02  0.21911210497E+02  0.10331243474E+03  0.00000000000E+00 0.  1.
         -4    1    1    2    0  502  0.15693839316E+02  0.99734955925E+02  0.37828014607E+02  0.10781612456E+03  0.00000000000E+00 0.  1.
<mgrwt>
<rscale>  2 0.10096216E+03</rscale>
<asrwt>0</asrwt>
<pdfrwt beam="1">  1       21 0.20835983E-01 0.10096216E+03</pdfrwt>
<pdfrwt beam="2">  1       -4 0.11645333E-01 0.10096216E+03</pdfrwt>
<totfact> 0.48891059E+04</totfact>
</mgrwt>
</event>
<event>
 4    1  0.5045766E+003  0.1566541E+03  0.7546771E-02  0.1192527E+00
         21   -1    0    0  503  502  0.00000000000E+00  0.00000000000E+00  0.12570067938E+03  0.12570067938E+03  0.00000000000E+00 0. -1.
          2   -1    0    0  502    0 -0.00000000000E+00 -0.00000000000E+00 -0.42746955213E+03  0.42746955213E+03  0.00000000000E+00 0.  1.
         21    1    1    2  503  501  0.13600765789E+03 -0.77732950740E+02  0.52981501356E+02  0.16537089865E+03  0.00000000000E+00 0. -1.
          2    1    1    2  501    0 -0.13600765789E+03  0.77732950740E+02 -0.35475037410E+03  0.38779933285E+03  0.00000000000E+00 0.  1.
<mgrwt>
<rscale>  2 0.15665406E+03</rscale>
<asrwt>0</asrwt>
<pdfrwt beam="1">  1       21 0.19338566E-01 0.15665406E+03</pdfrwt>
<pdfrwt beam="2">  1        2 0.65764546E-01 0.15665406E+03</pdfrwt>
<totfact> 0.22859427E+04</totfact>
</mgrwt>
</event>
<event>
 4    1  0.5045766E+003  0.1655415E+03  0.7546771E-02  0.1182579E+00
          2   -1    0    0  503    0 -0.00000000000E+00  0.00000000000E+00  0.15475553531E+04  0.15475553531E+04  0.00000000000E+00 0.  1.
         21   -1    0    0  501  502  0.00000000000E+00 -0.00000000000E+00 -0.30163522534E+02  0.30163522534E+02  0.00000000000E+00 0.  1.
         21    1    1    2  503  502 -0.15689772015E+03 -0.52792949370E+02  0.25177416489E+03  0.30132079284E+03  0.00000000000E+00 0.  1.
          2    1    1    2  501    0  0.15689772015E+03  0.52792949370E+02  0.12656176657E+04  0.12763980828E+04  0.00000000000E+00 0.  1.
<mgrwt>
<rscale>  2 0.16554151E+03</rscale>
<asrwt>0</asrwt>
<pdfrwt beam="2">  1       21 0.46405431E-02 0.16554151E+03</pdfrwt>
<pdfrwt beam="1">  1        2 0.23808538E+00 0.16554151E+03</pdfrwt>
<totfact> 0.50800381E+04</totfact>
</mgrwt>
</event>
<event>
 4    1  0.5045766E+003  0.1039550E+03  0.7546771E-02  0.1272192E+00
         -1   -1    0    0    0  501 -0.00000000000E+00  0.00000000000E+00  0.68231277993E+02  0.68231277993E+02  0.00000000000E+00 0. -1.
         21   -1    0    0  503  502  0.00000000000E+00 -0.00000000000E+00 -0.15416581653E+04  0.15416581653E+04  0.00000000000E+00 0.  1.
         21    1    1    2  503  501  0.75043703825E+02  0.71938092866E+02 -0.14991897752E+04  0.15027896156E+04  0.00000000000E+00 0.  1.
         -1    1    1    2    0  502 -0.75043703825E+02 -0.71938092866E+02  0.25762887932E+02  0.10709982765E+03  0.00000000000E+00 0. -1.
<mgrwt>
<rscale>  2 0.10395502E+03</rscale>
<asrwt>0</asrwt>
<pdfrwt beam="2">  1       21 0.23717818E+00 0.10395502E+03</pdfrwt>
<pdfrwt beam="1">  1       -1 0.10497120E-01 0.10395502E+03</pdfrwt>
<totfact> 0.43762022E+02</totfact>
</mgrwt>
</event>
<event>
 4    1  0.5045766E+003  0.1221910E+03  0.7546771E-02  0.1239526E+00
         21   -1    0    0  501  502  0.00000000000E+00  0.00000000000E+00  0.24238468789E+02  0.24238468789E+02  0.00000000000E+00 0. -1.
          2   -1    0    0  503    0 -0.00000000000E+00 -0.00000000000E+00 -0.14714694266E+04  0.14714694266E+04  0.00000000000E+00 0.  1.
         21    1    1    2  503  502 -0.72145045022E+02 -0.98619087919E+02 -0.15339056531E+03  0.19611042183E+03  0.00000000000E+00 0. -1.
          2    1    1    2  501    0  0.72145045022E+02  0.98619087919E+02 -0.12938403925E+04  0.12995974736E+04  0.00000000000E+00 0.  1.
<mgrwt>
<rscale>  2 0.12219097E+03</rscale>
<asrwt>0</asrwt>
<pdfrwt beam="1">  1       21 0.37289944E-02 0.12219097E+03</pdfrwt>
<pdfrwt beam="2">  1        2 0.22637996E+00 0.12219097E+03</pdfrwt>
<totfact> 0.80556188E+04</totfact>
</mgrwt>
</event>
<event>
 4    1  0.5045766E+003  0.1856927E+03  0.7546771E-02  0.1162405E+00
          2   -1    0    0  503    0 -0.00000000000E+00  0.00000000000E+00  0.74792411651E+03  0.74792411651E+03  0.00000000000E+00 0. -1.
         21   -1    0    0  501  502  0.00000000000E+00 -0.00000000000E+00 -0.76887983526E+02  0.76887983526E+02  0.00000000000E+00 0.  1.
         21    1    1    2  503  502  0.13562966360E+03  0.12683207505E+03  0.74564621139E+02  0.20010413198E+03  0.00000000000E+00 0.  1.
          2    1    1    2  501    0 -0.13562966360E+03 -0.12683207505E+03  0.59647151185E+03  0.62470796806E+03  0.00000000000E+00 0. -1.
<mgrwt>
<rscale>  2 0.18569271E+03</rscale>
<asrwt>0</asrwt>
<pdfrwt beam="2">  1       21 0.11828921E-01 0.18569271E+03</pdfrwt>
<pdfrwt beam="1">  1        2 0.11506524E+00 0.18569271E+03</pdfrwt>
<totfact> 0.29408230E+04</totfact>
</mgrwt>
</event>
<event>
 4    1  0.5045766E+003  0.1138925E+03  0.7546771E-02  0.1253527E+00
         21   -1    0    0  501  502  0.00000000000E+00  0.00000000000E+00  0.33305270266E+02  0.33305270266E+02  0.00000000000E+00 0. -1.
          1   -1    0    0  503    0 -0.00000000000E+00 -0.00000000000E+00 -0.39745867737E+03  0.39745867737E+03  0.00000000000E+00 0.  1.
         21    1    1    2  503  502  0.99718617487E+02  0.55024447396E+02 -0.15154660152E+03  0.18957284858E+03  0.00000000000E+00 0. -1.
          1    1    1    2  501    0 -0.99718617487E+02 -0.55024447396E+02 -0.21260680558E+03  0.24119109905E+03  0.00000000000E+00 0.  1.
<mgrwt>
<rscale>  2 0.11389246E+03</rscale>
<asrwt>0</asrwt>
<pdfrwt beam="1">  1       21 0.51238874E-02 0.11389246E+03</pdfrwt>
<pdfrwt beam="2">  1        1 0.61147493E-01 0.11389246E+03</pdfrwt>
<totfact> 0.16989954E+05</totfact>
</mgrwt>
</event>
<event>
 4    1  0.5045766E+003  0.1413214E+03  0.7546771E-02  0.1211562E+00
          2   -1    0    0  503    0 -0.00000000000E+00  0.00000000000E+00  0.95093941745E+03  0.95093941745E+03  0.00000000000E+00 0. -1.
         21   -1    0    0  501  502  0.00000000000E+00 -0.00000000000E+00 -0.36154562978E+02  0.36154562978E+02  0.00000000000E+00 0. -1.
         21    1    1    2  503  502  0.33654988368E+02  0.13725554976E+03  0.13787961891E+03  0.19743994908E+03  0.00000000000E+00 0. -1.
          2    1    1    2  501    0 -0.33654988368E+02 -0.13725554976E+03  0.77690523556E+03  0.78965403135E+03  0.00000000000E+00 0. -1.
<mgrwt>
<rscale>  2 0.14132142E+03</rscale>
<asrwt>0</asrwt>
<pdfrwt beam="2">  1       21 0.55622412E-02 0.14132142E+03</pdfrwt>
<pdfrwt beam="1">  1        2 0.14629835E+00 0.14132142E+03</pdfrwt>
<totfact> 0.80354486E+04</totfact>
</mgrwt>
</event>
<event>
 4    1  0.5045766E+003  0.1717957E+03  0.7546771E-02  0.1175988E+00
          2   -1    0    0  503    0 -0.00000000000E+00  0.00000000000E+00  0.50891447640E+03  0.50891447640E+03  0.00000000000E+00 0.  1.
         21   -1    0    0  501  502  0.00000000000E+00 -0.00000000000E+00 -0.68138832685E+02  0.68138832685E+02  0.00000000000E+00 0.  1.
         21    1    1    2  503  502 -0.17164321562E+03 -0.72371862092E+01  0.10905579474E+03  0.20348694479E+03  0.00000000000E+00 0.  1.
          2    1    1    2  501    0  0.17164321562E+03  0.72371862092E+01  0.33171984897E+03  0.37356636430E+03  0.00000000000E+00 0.  1.
<mgrwt>
<rscale>  2 0.17179572E+03</rscale>
<asrwt>0</asrwt>
<pdfrwt beam="2">  1       21 0.10482898E-01 0.17179572E+03</pdfrwt>
<pdfrwt beam="1">  1        2 0.78294532E-01 0.17179572E+03</pdfrwt>
<totfact> 0.57067244E+04</totfact>
</mgrwt>
</event>
<event>
 4    1  0.5045766E+003  0.1386374E+03  0.7546771E-02  0.1215174E+00
          1   -1    0    0  502    0 -0.00000000000E+00  0.00000000000E+00  0.27745898803E+03  0.27745898803E+03  0.00000000000E+00 0.  1.
         21   -1    0    0  503  502  0.00000000000E+00 -0.00000000000E+00 -0.10221831221E+03  0.10221831221E+03  0.00000000000E+00 0.  1.
         21    1    1    2  503  501 -0.94582884977E+02  0.10136269853E+03 -0.20155006339E+02  0.14009476458E+03  0.00000000000E+00 0.  1.
          1    1    1    2  501    0  0.94582884977E+02 -0.10136269853E+03  0.19539568216E+03  0.23958253566E+03  0.00000000000E+00 0.  1.
<mgrwt>
<rscale>  2 0.13863736E+03</rscale>
<asrwt>0</asrwt>
<pdfrwt beam="2">  1       21 0.15725894E-01 0.13863736E+03</pdfrwt>
<pdfrwt beam="1">  1        1 0.42685998E-01 0.13863736E+03</pdfrwt>
<totfact> 0.37987567E+04</totfact>
</mgrwt>
</event>
<event>
 4    1  0.5045766E+003  0.1141820E+03  0.7546771E-02  0.1253016E+00
         21   -1    0    0  501  502  0.00000000000E+00  0.00000000000E+00  0.12584062588E+02  0.12584062588E+02  0.00000000000E+00 0. -1.
          2   -1    0    0  503    0 -0.00000000000E+00 -0.00000000000E+00 -0.11550294656E+04  0.11550294656E+04  0.00000000000E+00 0.  1.
         21    1    1    2  503  502  0.11311120376E+03 -0.15600668990E+02 -0.38383695568E+03  0.40046015262E+03  0.00000000000E+00 0. -1.
          2    1    1    2  501    0 -0.11311120376E+03  0.15600668990E+02 -0.75860844737E+03  0.76715337561E+03  0.00000000000E+00 0.  1.
<mgrwt>
<rscale>  2 0.11418198E+03</rscale>
<asrwt>0</asrwt>
<pdfrwt beam="1">  1       21 0.19360095E-02 0.11418198E+03</pdfrwt>
<pdfrwt beam="2">  1        2 0.17769685E+00 0.11418198E+03</pdfrwt>
<totfact> 0.34590982E+05</totfact>
</mgrwt>
</event>
<event>
 4    1  0.5045766E+003  0.1115427E+03  0.7546771E-02  0.1257739E+00
         -2   -1    0    0    0  501 -0.00000000000E+00  0.00000000000E+00  0.19616743012E+02  0.19616743012E+02  0.00000000000E+00 0. -1.
         21   -1    0    0  503  502  0.00000000000E+00 -0.00000000000E+00 -0.81380837377E+03  0.81380837377E+03  0.00000000000E+00 0. -1.
         21    1    1    2  503  501  0.79286514824E+02  0.78456465021E+02 -0.59283944957E+03  0.60324156131E+03  0.00000000000E+00 0. -1.
         -2    1    1    2    0  502 -0.79286514824E+02 -0.78456465021E+02 -0.20135218120E+03  0.23018355547E+03  0.00000000000E+00 0. -1.
<mgrwt>
<rscale>  2 0.11154267E+03</rscale>
<asrwt>0</asrwt>
<pdfrwt beam="2">  1       21 0.12520126E+00 0.11154267E+03</pdfrwt>
<pdfrwt beam="1">  1       -2 0.30179612E-02 0.11154267E+03</pdfrwt>
<totfact> 0.15494588E+04</totfact>
</mgrwt>
</event>
<event>
 4    1  0.5045766E+003  0.1145929E+03  0.7546771E-02  0.1252293E+00
          2   -1    0    0  503    0 -0.00000000000E+00  0.00000000000E+00  0.36979113907E+04  0.36979113907E+04  0.00000000000E+00 0.  1.
         21   -1    0    0  501  502  0.00000000000E+00 -0.00000000000E+00 -0.20131297671E+02  0.20131297671E+02  0.00000000000E+00 0. -1.
         21    1    1    2  503  502 -0.68376555111E+02 -0.91957509644E+02  0.15177866755E+03  0.19017965399E+03  0.00000000000E+00 0. -1.
          2    1    1    2  501    0  0.68376555111E+02  0.91957509644E+02  0.35260014255E+04  0.35278630344E+04  0.00000000000E+00 0.  1.
<mgrwt>
<rscale>  2 0.11459292E+03</rscale>
<asrwt>0</asrwt>
<pdfrwt beam="2">  1       21 0.30971256E-02 0.11459292E+03</pdfrwt>
<pdfrwt beam="1">  1        2 0.56890891E+00 0.11459292E+03</pdfrwt>
<totfact> 0.63325378E+03</totfact>
</mgrwt>
</event>
<event>
 4    1  0.5045766E+003  0.1581186E+03  0.7546771E-02  0.1190837E+00
          2   -1    0    0  502    0 -0.00000000000E+00  0.00000000000E+00  0.18373114876E+03  0.18373114876E+03  0.00000000000E+00 0. -1.
         21   -1    0    0  503  502  0.00000000000E+00 -0.00000000000E+00 -0.68641142758E+03  0.68641142758E+03  0.00000000000E+00 0. -1.
         21    1    1    2  503  501 -0.46238461032E+00 -0.15811793501E+03 -0.64090672764E+03  0.66012341930E+03  0.00000000000E+00 0. -1.
          2    1    1    2  501    0  0.46238461032E+00  0.15811793501E+03  0.13822644882E+03  0.21001915704E+03  0.00000000000E+00 0. -1.
<mgrwt>
<rscale>  2 0.15811861E+03</rscale>
<asrwt>0</asrwt>
<pdfrwt beam="2">  1       21 0.10560176E+00 0.15811861E+03</pdfrwt>
<pdfrwt beam="1">  1        2 0.28266330E-01 0.15811861E+03</pdfrwt>
<totfact> 0.16896769E+03</totfact>
</mgrwt>
</event>
<event>
 4    1  0.5045766E+003  0.1561758E+03  0.7546771E-02  0.1193083E+00
         21   -1    0    0  501  502  0.00000000000E+00  0.00000000000E+00  0.45223265485E+02  0.45223265485E+02  0.00000000000E+00 0.  1.
          2   -1    0    0  503    0 -0.00000000000E+00 -0.00000000000E+00 -0.13969051349E+04  0.13969051349E+04  0.00000000000E+00 0.  1.
         21    1    1    2  503  502 -0.14569903381E+03  0.56237580163E+02 -0.11087384366E+03  0.19153037118E+03  0.00000000000E+00 0.  1.
          2    1    1    2  501    0  0.14569903381E+03 -0.56237580163E+02 -0.12408080258E+04  0.12505980292E+04  0.00000000000E+00 0.  1.
<mgrwt>
<rscale>  2 0.15617578E+03</rscale>
<asrwt>0</asrwt>
<pdfrwt beam="1">  1       21 0.69574267E-02 0.15617578E+03</pdfrwt>
<pdfrwt beam="2">  1        2 0.21490844E+00 0.15617578E+03</pdfrwt>
<totfact> 0.30693386E+04</totfact>
</mgrwt>
</event>
<event>
 4    1  0.5045766E+003  0.1333263E+03  0.7546771E-02  0.1222602E+00
          2   -1    0    0  503    0 -0.00000000000E+00  0.00000000000E+00  0.91694811582E+03  0.91694811582E+03  0.00000000000E+00 0. -1.
         21   -1    0    0  501  502  0.00000000000E+00 -0.00000000000E+00 -0.17774925720E+03  0.17774925720E+03  0.00000000000E+00 0.  1.
         21    1    1    2  503  502 -0.13263275075E+03 -0.13581732078E+02 -0.14703990114E+03  0.19848587492E+03  0.00000000000E+00 0.  1.
          2    1    1    2  501    0  0.13263275075E+03  0.13581732078E+02  0.88623875976E+03  0.89621149809E+03  0.00000000000E+00 0. -1.
<mgrwt>
<rscale>  2 0.13332633E+03</rscale>
<asrwt>0</asrwt>
<pdfrwt beam="2">  1       21 0.27346040E-01 0.13332633E+03</pdfrwt>
<pdfrwt beam="1">  1        2 0.14106894E+00 0.13332633E+03</pdfrwt>
<totfact> 0.49162150E+03</totfact>
</mgrwt>
</event>
<event>
 4    1  0.5045766E+003  0.1037222E+03  0.7546771E-02  0.1272658E+00
          1   -1    0    0  503    0 -0.00000000000E+00  0.00000000000E+00  0.87123583290E+03  0.87123583290E+03  0.00000000000E+00 0.  1.
         21   -1    0    0  501  502  0.00000000000E+00 -0.00000000000E+00 -0.15237138551E+02  0.15237138551E+02  0.00000000000E+00 0.  1.
         21    1    1    2  503  502  0.51764543746E+02 -0.89881732790E+02  0.23500510318E+03  0.25687680393E+03  0.00000000000E+00 0.  1.
          1    1    1    2  501    0 -0.51764543746E+02  0.89881732790E+02  0.62099359117E+03  0.62959616752E+03  0.00000000000E+00 0.  1.
<mgrwt>
<rscale>  2 0.10372220E+03</rscale>
<asrwt>0</asrwt>
<pdfrwt beam="2">  1       21 0.23441758E-02 0.10372220E+03</pdfrwt>
<pdfrwt beam="1">  1        1 0.13403624E+00 0.10372220E+03</pdfrwt>
<totfact> 0.21016456E+05</totfact>
</mgrwt>
</event>
<event>
 4    1  0.5045766E+003  0.1175429E+03  0.7546771E-02  0.1247206E+00
         21   -1    0    0  503  502  0.00000000000E+00  0.00000000000E+00  0.35720343236E+02  0.35720343236E+02  0.00000000000E+00 0.  1.
          2   -1    0    0  502    0 -0.00000000000E+00 -0.00000000000E+00 -0.58476988273E+03  0.58476988273E+03  0.00000000000E+00 0. -1.
         21    1    1    2  503  501 -0.11749004497E+03 -0.35235445291E+01 -0.94006438851E+02  0.15051091847E+03  0.00000000000E+00 0.  1.
          2    1    1    2  501    0  0.11749004497E+03  0.35235445291E+01 -0.45504310064E+03  0.46997930749E+03  0.00000000000E+00 0. -1.
<mgrwt>
<rscale>  2 0.11754287E+03</rscale>
<asrwt>0</asrwt>
<pdfrwt beam="1">  1       21 0.54954373E-02 0.11754287E+03</pdfrwt>
<pdfrwt beam="2">  1        2 0.89964600E-01 0.11754287E+03</pdfrwt>
<totfact> 0.14768590E+05</totfact>
</mgrwt>
</event>
<event>
 4    1  0.5045766E+003  0.1266049E+03  0.7546771E-02  0.1232582E+00
         21   -1    0    0  501  502  0.00000000000E+00  0.00000000000E+00  0.40639073491E+02  0.40639073491E+02  0.00000000000E+00 0. -1.
          1   -1    0    0  503    0 -0.00000000000E+00 -0.00000000000E+00 -0.74842494580E+03  0.74842494580E+03  0.00000000000E+00 0. -1.
         21    1    1    2  503  502 -0.90411140394E+02  0.88626273296E+02 -0.82552899003E+02  0.15114156199E+03  0.00000000000E+00 0. -1.
          1    1    1    2  501    0  0.90411140394E+02 -0.88626273296E+02 -0.62523297330E+03  0.63792245730E+03  0.00000000000E+00 0. -1.
<mgrwt>
<rscale>  2 0.12660486E+03</rscale>
<asrwt>0</asrwt>
<pdfrwt beam="1">  1       21 0.62521653E-02 0.12660486E+03</pdfrwt>
<pdfrwt beam="2">  1        1 0.11514230E+00 0.12660486E+03</pdfrwt>
<totfact> 0.52355936E+04</totfact>
</mgrwt>
</event>
<event>
 4    1  0.5045766E+003  0.1264389E+03  0.7546771E-02  0.1232838E+00
         21   -1    0    0  503  502  0.00000000000E+00  0.00000000000E+00  0.19075418382E+03  0.19075418382E+03  0.00000000000E+00 0. -1.
          1   -1    0    0  502    0 -0.00000000000E+00 -0.00000000000E+00 -0.13213196994E+03  0.13213196994E+03  0.00000000000E+00 0. -1.
         21    1    1    2  503  501 -0.81365968824E+02  0.96779993292E+02  0.12694381345E+03  0.17916896985E+03  0.00000000000E+00 0. -1.
          1    1    1    2  501    0  0.81365968824E+02 -0.96779993292E+02 -0.68321599564E+02  0.14371718391E+03  0.00000000000E+00 0. -1.
<mgrwt>
<rscale>  2 0.12643887E+03</rscale>
<asrwt>0</asrwt>
<pdfrwt beam="1">  1       21 0.29346798E-01 0.12643887E+03</pdfrwt>
<pdfrwt beam="2">  1        1 0.20327995E-01 0.12643887E+03</pdfrwt>
<totfact> 0.29914712E+04</totfact>
</mgrwt>
</event>
<event>
 4    1  0.5045766E+003  0.1546044E+03  0.7546771E-02  0.1194927E+00
         21   -1    0    0  501  502  0.00000000000E+00  0.00000000000E+00  0.27319987546E+02  0.27319987546E+02  0.00000000000E+00 0.  1.
          2   -1    0    0  503    0 -0.00000000000E+00 -0.00000000000E+00 -0.12407638082E+04  0.12407638082E+04  0.00000000000E+00 0. -1.
         21    1    1    2  503  502  0.12995011042E+03 -0.83758557808E+02 -0.26242965302E+03  0.30458471726E+03  0.00000000000E+00 0.  1.
          2    1    1    2  501    0 -0.12995011042E+03  0.83758557808E+02 -0.95101416767E+03  0.96349907852E+03  0.00000000000E+00 0. -1.
<mgrwt>
<rscale>  2 0.15460442E+03</rscale>
<asrwt>0</asrwt>
<pdfrwt beam="1">  1       21 0.42030752E-02 0.15460442E+03</pdfrwt>
<pdfrwt beam="2">  1        2 0.19088673E+00 0.15460442E+03</pdfrwt>
<totfact> 0.87574209E+04</totfact>
</mgrwt>
</event>
<event>
 4    1  0.5045766E+003  0.1112349E+03  0.7546771E-02  0.1258300E+00
          1   -1    0    0  503    0 -0.00000000000E+00  0.00000000000E+00  0.62658720063E+03  0.62658720063E+03  0.00000000000E+00 0.  1.
         21   -1    0    0  501  502  0.00000000000E+00 -0.00000000000E+00 -0.27382990077E+02  0.27382990077E+02  0.00000000000E+00 0.  1.
         21    1    1    2  503  502  0.36638532648E+02  0.10502770912E+03  0.12693050559E+03  0.16877367984E+03  0.00000000000E+00 0.  1.
          1    1    1    2  501    0 -0.36638532648E+02 -0.10502770912E+03  0.47227370495E+03  0.48519651086E+03  0.00000000000E+00 0.  1.
<mgrwt>
<rscale>  2 0.11123489E+03</rscale>
<asrwt>0</asrwt>
<pdfrwt beam="2">  1       21 0.42127682E-02 0.11123489E+03</pdfrwt>
<pdfrwt beam="1">  1        1 0.96398020E-01 0.11123489E+03</pdfrwt>
<totfact> 0.13021745E+05</totfact>
</mgrwt>
</event>
<event>
 4    1  0.5045766E+003  0.2788695E+03  0.7546771E-02  0.1096308E+00
         21   -1    0    0  503  502  0.00000000000E+00  0.00000000000E+00  0.31436183957E+02  0.31436183957E+02  0.00000000000E+00 0.  1.
          2   -1    0    0  502    0 -0.00000000000E+00 -0.00000000000E+00 -0.35455765021E+04  0.35455765021E+04  0.00000000000E+00 0. -1.
         21    1    1    2  503  501  0.24248866424E+02  0.27781319663E+03 -0.77376009768E+03  0.82247970705E+03  0.00000000000E+00 0.  1.
          2    1    1    2  501    0 -0.24248866424E+02 -0.27781319663E+03 -0.27403802205E+04  0.27545329790E+04  0.00000000000E+00 0. -1.
<mgrwt>
<rscale>  2 0.27886947E+03</rscale>
<asrwt>0</asrwt>
<pdfrwt beam="1">  1       21 0.48363368E-02 0.27886947E+03</pdfrwt>
<pdfrwt beam="2">  1        2 0.54547322E+00 0.27886947E+03</pdfrwt>
<totfact> 0.34045260E+03</totfact>
</mgrwt>
</event>
<event>
 4    1  0.5045766E+003  0.1677946E+03  0.7546771E-02  0.1180167E+00
         21   -1    0    0  503  502  0.00000000000E+00  0.00000000000E+00  0.36351982510E+02  0.36351982510E+02  0.00000000000E+00 0. -1.
          2   -1    0    0  502    0 -0.00000000000E+00 -0.00000000000E+00 -0.24882366548E+04  0.24882366548E+04  0.00000000000E+00 0.  1.
         21    1    1    2  503  501 -0.70397551457E+02  0.15231288477E+03 -0.17836675641E+03  0.24488717792E+03  0.00000000000E+00 0. -1.
          2    1    1    2  501    0  0.70397551457E+02 -0.15231288477E+03 -0.22735179159E+04  0.22797014594E+04  0.00000000000E+00 0.  1.
<mgrwt>
<rscale>  2 0.16779461E+03</rscale>
<asrwt>0</asrwt>
<pdfrwt beam="1">  1       21 0.55926128E-02 0.16779461E+03</pdfrwt>
<pdfrwt beam="2">  1        2 0.38280563E+00 0.16779461E+03</pdfrwt>
<totfact> 0.11974061E+04</totfact>
</mgrwt>
</event>
<event>
 4    1  0.5045766E+003  0.1755144E+03  0.7546771E-02  0.1172216E+00
         21   -1    0    0  501  502  0.00000000000E+00  0.00000000000E+00  0.36383298358E+03  0.36383298358E+03  0.00000000000E+00 0.  1.
          4   -1    0    0  503    0 -0.00000000000E+00 -0.00000000000E+00 -0.15697657483E+03  0.15697657483E+03  0.00000000000E+00 0.  1.
         21    1    1    2  503  502  0.12662812501E+02 -0.17505699302E+03  0.28016381381E+03  0.33060105897E+03  0.00000000000E+00 0.  1.
          4    1    1    2  501    0 -0.12662812501E+02  0.17505699302E+03 -0.73307405058E+02  0.19020849945E+03  0.00000000000E+00 0.  1.
<mgrwt>
<rscale>  2 0.17551438E+03</rscale>
<asrwt>0</asrwt>
<pdfrwt beam="1">  1       21 0.55974305E-01 0.17551438E+03</pdfrwt>
<pdfrwt beam="2">  1        4 0.24150242E-01 0.17551438E+03</pdfrwt>
<totfact> 0.20148391E+03</totfact>
</mgrwt>
</event>
<event>
 4    1  0.5045766E+003  0.1078729E+03  0.7546771E-02  0.1264560E+00
         21   -1    0    0  501  502  0.00000000000E+00  0.00000000000E+00  0.82928280894E+02  0.82928280894E+02  0.00000000000E+00 0. -1.
         -3   -1    0    0    0  501 -0.00000000000E+00 -0.00000000000E+00 -0.19482866962E+03  0.19482866962E+03  0.00000000000E+00 0. -1.
         21    1    1    2  503  502 -0.73211942631E+02  0.79224864329E+02  0.17507598205E+02  0.10928441639E+03  0.00000000000E+00 0. -1.
         -3    1    1    2    0  503  0.73211942631E+02 -0.79224864329E+02 -0.12940798693E+03  0.16847253412E+03  0.00000000000E+00 0. -1.
<mgrwt>
<rscale>  2 0.10787292E+03</rscale>
<asrwt>0</asrwt>
<pdfrwt beam="1">  1       21 0.12758197E-01 0.10787292E+03</pdfrwt>
<pdfrwt beam="2">  1       -3 0.29973642E-01 0.10787292E+03</pdfrwt>
<totfact> 0.26669470E+04</totfact>
</mgrwt>
</event>
<event>
 4    1  0.5045766E+003  0.1440883E+03  0.7546771E-02  0.1207931E+00
          1   -1    0    0  503    0 -0.00000000000E+00  0.00000000000E+00  0.48109818361E+03  0.48109818361E+03  0.00000000000E+00 0. -1.
         21   -1    0    0  501  502  0.00000000000E+00 -0.00000000000E+00 -0.84443409436E+02  0.84443409436E+02  0.00000000000E+00 0. -1.
         21    1    1    2  503  502 -0.32832725367E+02 -0.14029773682E+03  0.59875123166E+00  0.14408956005E+03  0.00000000000E+00 0. -1.
          1    1    1    2  501    0  0.32832725367E+02  0.14029773682E+03  0.39605602295E+03  0.42145203300E+03  0.00000000000E+00 0. -1.
<mgrwt>
<rscale>  2 0.14408832E+03</rscale>
<asrwt>0</asrwt>
<pdfrwt beam="2">  1       21 0.12991294E-01 0.14408832E+03</pdfrwt>
<pdfrwt beam="1">  1        1 0.74015103E-01 0.14408832E+03</pdfrwt>
<totfact> 0.26821327E+04</totfact>
</mgrwt>
</event>
<event>
 4    1  0.5045766E+003  0.1777600E+03  0.7546771E-02  0.1169989E+00
         -1   -1    0    0    0  501 -0.00000000000E+00  0.00000000000E+00  0.99597953069E+03  0.99597953069E+03  0.00000000000E+00 0. -1.
         21   -1    0    0  501  502  0.00000000000E+00 -0.00000000000E+00 -0.56691059189E+02  0.56691059189E+02  0.00000000000E+00 0.  1.
         21    1    1    2  503  502  0.13925901376E+03 -0.11047871071E+03  0.12036722016E+03  0.21467856466E+03  0.00000000000E+00 0.  1.
         -1    1    1    2    0  503 -0.13925901376E+03  0.11047871071E+03  0.81892125134E+03  0.83799202522E+03  0.00000000000E+00 0. -1.
<mgrwt>
<rscale>  2 0.17776000E+03</rscale>
<asrwt>0</asrwt>
<pdfrwt beam="2">  1       21 0.87217022E-02 0.17776000E+03</pdfrwt>
<pdfrwt beam="1">  1       -1 0.15322761E+00 0.17776000E+03</pdfrwt>
<totfact> 0.35056686E+03</totfact>
</mgrwt>
</event>
<event>
 4    1  0.5045766E+003  0.3123567E+03  0.7546771E-02  0.1079222E+00
         21   -1    0    0  503  502  0.00000000000E+00  0.00000000000E+00  0.91832600483E+03  0.91832600483E+03  0.00000000000E+00 0.  1.
         -2   -1    0    0    0  501 -0.00000000000E+00 -0.00000000000E+00 -0.49427696934E+03  0.49427696934E+03  0.00000000000E+00 0. -1.
         21    1    1    2  503  501  0.23227333297E+03 -0.20884395841E+03  0.83782976845E+03  0.89416185396E+03  0.00000000000E+00 0.  1.
         -2    1    1    2    0  502 -0.23227333297E+03  0.20884395841E+03 -0.41378073296E+03  0.51844112022E+03  0.00000000000E+00 0. -1.
<mgrwt>
<rscale>  2 0.31235669E+03</rscale>
<asrwt>0</asrwt>
<pdfrwt beam="1">  1       21 0.14128092E+00 0.31235669E+03</pdfrwt>
<pdfrwt beam="2">  1       -2 0.76042611E-01 0.31235669E+03</pdfrwt>
<totfact> 0.42280328E+01</totfact>
</mgrwt>
</event>
<event>
 4    1  0.5045766E+003  0.1031551E+03  0.7546771E-02  0.1273798E+00
          2   -1    0    0  502    0 -0.00000000000E+00  0.00000000000E+00  0.64309657542E+03  0.64309657542E+03  0.00000000000E+00 0.  1.
         21   -1    0    0  503  502  0.00000000000E+00 -0.00000000000E+00 -0.14241452142E+03  0.14241452142E+03  0.00000000000E+00 0.  1.
         21    1    1    2  503  501  0.21649755943E+02 -0.10085764827E+03 -0.11889404741E+03  0.15740639014E+03  0.00000000000E+00 0.  1.
          2    1    1    2  501    0 -0.21649755943E+02  0.10085764827E+03  0.61957610141E+03  0.62810470671E+03  0.00000000000E+00 0.  1.
<mgrwt>
<rscale>  2 0.10315511E+03</rscale>
<asrwt>0</asrwt>
<pdfrwt beam="2">  1       21 0.21909927E-01 0.10315511E+03</pdfrwt>
<pdfrwt beam="1">  1        2 0.98937933E-01 0.10315511E+03</pdfrwt>
<totfact> 0.11647573E+04</totfact>
</mgrwt>
</event>
<event>
 4    1  0.5045766E+003  0.1154680E+03  0.7546771E-02  0.1250766E+00
         21   -1    0    0  501  502  0.00000000000E+00  0.00000000000E+00  0.20859816656E+02  0.20859816656E+02  0.00000000000E+00 0.  1.
          2   -1    0    0  503    0 -0.00000000000E+00 -0.00000000000E+00 -0.97512319199E+03  0.97512319199E+03  0.00000000000E+00 0.  1.
         21    1    1    2  503  502 -0.91979059846E+02 -0.69804891616E+02 -0.18482777130E+03  0.21793158419E+03  0.00000000000E+00 0.  1.
          2    1    1    2  501    0  0.91979059846E+02  0.69804891616E+02 -0.76943560404E+03  0.77805142446E+03  0.00000000000E+00 0.  1.
<mgrwt>
<rscale>  2 0.11546805E+03</rscale>
<asrwt>0</asrwt>
<pdfrwt beam="1">  1       21 0.32092029E-02 0.11546805E+03</pdfrwt>
<pdfrwt beam="2">  1        2 0.15001894E+00 0.11546805E+03</pdfrwt>
<totfact> 0.19347131E+05</totfact>
</mgrwt>
</event>
<event>
 4    1  0.5045766E+003  0.1287737E+03  0.7546771E-02  0.1229287E+00
         -1   -1    0    0    0  501 -0.00000000000E+00  0.00000000000E+00  0.70796943847E+03  0.70796943847E+03  0.00000000000E+00 0.  1.
         21   -1    0    0  503  502  0.00000000000E+00 -0.00000000000E+00 -0.48830619635E+02  0.48830619635E+02  0.00000000000E+00 0.  1.
         21    1    1    2  503  501 -0.10311065147E+02  0.12836027299E+03  0.56616250734E+02  0.14067010199E+03  0.00000000000E+00 0.  1.
         -1    1    1    2    0  502  0.10311065147E+02 -0.12836027299E+03  0.60252256810E+03  0.61612995611E+03  0.00000000000E+00 0.  1.
<mgrwt>
<rscale>  2 0.12877375E+03</rscale>
<asrwt>0</asrwt>
<pdfrwt beam="2">  1       21 0.75124036E-02 0.12877375E+03</pdfrwt>
<pdfrwt beam="1">  1       -1 0.10891837E+00 0.12877375E+03</pdfrwt>
<totfact> 0.10497614E+04</totfact>
</mgrwt>
</event>
<event>
 4    1  0.5045766E+003  0.1146033E+03  0.7546771E-02  0.1252275E+00
         -3   -1    0    0    0  501 -0.00000000000E+00  0.00000000000E+00  0.89186682752E+02  0.89186682752E+02  0.00000000000E+00 0.  1.
         21   -1    0    0  503  502  0.00000000000E+00 -0.00000000000E+00 -0.70739099195E+03  0.70739099195E+03  0.00000000000E+00 0. -1.
         21    1    1    2  503  501  0.11154195040E+03  0.26311806539E+02 -0.66351701744E+03  0.67334148120E+03  0.00000000000E+00 0. -1.
         -3    1    1    2    0  502 -0.11154195040E+03 -0.26311806539E+02  0.45312708246E+02  0.12323619351E+03  0.00000000000E+00 0.  1.
<mgrwt>
<rscale>  2 0.11460331E+03</rscale>
<asrwt>0</asrwt>
<pdfrwt beam="2">  1       21 0.10882938E+00 0.11460331E+03</pdfrwt>
<pdfrwt beam="1">  1       -3 0.13721028E-01 0.11460331E+03</pdfrwt>
<totfact> 0.14373515E+03</totfact>
</mgrwt>
</event>
<event>
 4    1  0.5045766E+003  0.1204631E+03  0.7546771E-02  0.1242335E+00
         21   -1    0    0  501  502  0.00000000000E+00  0.00000000000E+00  0.22911607211E+02  0.22911607211E+02  0.00000000000E+00 0.  1.
          1   -1    0    0  503    0 -0.00000000000E+00 -0.00000000000E+00 -0.74174513548E+03  0.74174513548E+03  0.00000000000E+00 0. -1.
         21    1    1    2  503  502 -0.12009782211E+03 -0.93735480513E+01 -0.21326998473E+03  0.24493965923E+03  0.00000000000E+00 0.  1.
          1    1    1    2  501    0  0.12009782211E+03  0.93735480513E+01 -0.50556354354E+03  0.51971708346E+03  0.00000000000E+00 0. -1.
<mgrwt>
<rscale>  2 0.12046307E+03</rscale>
<asrwt>0</asrwt>
<pdfrwt beam="1">  1       21 0.35248629E-02 0.12046307E+03</pdfrwt>
<pdfrwt beam="2">  1        1 0.11411463E+00 0.12046307E+03</pdfrwt>
<totfact> 0.13822882E+05</totfact>
</mgrwt>
</event>
<event>
 4    1  0.5045766E+003  0.1931890E+03  0.7546771E-02  0.1155616E+00
          1   -1    0    0  502    0 -0.00000000000E+00  0.00000000000E+00  0.61918109724E+03  0.61918109724E+03  0.00000000000E+00 0.  1.
         21   -1    0    0  503  502  0.00000000000E+00 -0.00000000000E+00 -0.28088201609E+03  0.28088201609E+03  0.00000000000E+00 0.  1.
         21    1    1    2  503  501  0.17006738937E+03  0.91646431883E+02 -0.22968183687E+03  0.30012619278E+03  0.00000000000E+00 0.  1.
          1    1    1    2  501    0 -0.17006738937E+03 -0.91646431883E+02  0.56798091802E+03  0.59993692055E+03  0.00000000000E+00 0.  1.
<mgrwt>
<rscale>  2 0.19318899E+03</rscale>
<asrwt>0</asrwt>
<pdfrwt beam="2">  1       21 0.43212618E-01 0.19318899E+03</pdfrwt>
<pdfrwt beam="1">  1        1 0.95258630E-01 0.19318899E+03</pdfrwt>
<totfact> 0.19237035E+03</totfact>
</mgrwt>
</event>
<event>
 4    1  0.5045766E+003  0.1095310E+03  0.7546771E-02  0.1261441E+00
          2   -1    0    0  503    0 -0.00000000000E+00  0.00000000000E+00  0.34878632077E+03  0.34878632077E+03  0.00000000000E+00 0. -1.
         21   -1    0    0  501  502  0.00000000000E+00 -0.00000000000E+00 -0.39470429269E+02  0.39470429269E+02  0.00000000000E+00 0. -1.
         21    1    1    2  503  502  0.10791107625E+03 -0.18767894190E+02  0.85055481152E+02  0.13867757246E+03  0.00000000000E+00 0. -1.
          2    1    1    2  501    0 -0.10791107625E+03  0.18767894190E+02  0.22426041034E+03  0.24957917757E+03  0.00000000000E+00 0. -1.
<mgrwt>
<rscale>  2 0.10953097E+03</rscale>
<asrwt>0</asrwt>
<pdfrwt beam="2">  1       21 0.60723740E-02 0.10953097E+03</pdfrwt>
<pdfrwt beam="1">  1        2 0.53659432E-01 0.10953097E+03</pdfrwt>
<totfact> 0.21735423E+05</totfact>
</mgrwt>
</event>
<event>
 4    1  0.5045766E+003  0.1731856E+03  0.7546771E-02  0.1174566E+00
         21   -1    0    0  503  502  0.00000000000E+00  0.00000000000E+00  0.99215108943E+02  0.99215108943E+02  0.00000000000E+00 0.  1.
         -2   -1    0    0    0  501 -0.00000000000E+00 -0.00000000000E+00 -0.15530748158E+04  0.15530748158E+04  0.00000000000E+00 0. -1.
         21    1    1    2  503  501  0.17035231675E+03 -0.31198470045E+02  0.14463535159E+02  0.17378852150E+03  0.00000000000E+00 0.  1.
         -2    1    1    2    0  502 -0.17035231675E+03  0.31198470045E+02 -0.14683232420E+04  0.14785014032E+04  0.00000000000E+00 0. -1.
<mgrwt>
<rscale>  2 0.17318561E+03</rscale>
<asrwt>0</asrwt>
<pdfrwt beam="1">  1       21 0.15263864E-01 0.17318561E+03</pdfrwt>
<pdfrwt beam="2">  1       -2 0.23893457E+00 0.17318561E+03</pdfrwt>
<totfact> 0.26725259E+02</totfact>
</mgrwt>
</event>
<event>
 4    1  0.5045766E+003  0.1087089E+03  0.7546771E-02  0.1262980E+00
         21   -1    0    0  503  502  0.00000000000E+00  0.00000000000E+00  0.17917016476E+03  0.17917016476E+03  0.00000000000E+00 0. -1.
         -4   -1    0    0    0  501 -0.00000000000E+00 -0.00000000000E+00 -0.68203856741E+02  0.68203856741E+02  0.00000000000E+00 0. -1.
         21    1    1    2  503  501 -0.90319661417E+02  0.60497711078E+02  0.77930241169E+02  0.13375625882E+03  0.00000000000E+00 0. -1.
         -4    1    1    2    0  502  0.90319661417E+02 -0.60497711078E+02  0.33036066849E+02  0.11361776268E+03  0.00000000000E+00 0. -1.
<mgrwt>
<rscale>  2 0.10870885E+03</rscale>
<asrwt>0</asrwt>
<pdfrwt beam="1">  1       21 0.27564641E-01 0.10870885E+03</pdfrwt>
<pdfrwt beam="2">  1       -4 0.10492901E-01 0.10870885E+03</pdfrwt>
<totfact> 0.34860855E+04</totfact>
</mgrwt>
</event>
<event>
 4    1  0.5045766E+003  0.1328296E+03  0.7546771E-02  0.1223317E+00
         21   -1    0    0  503  502  0.00000000000E+00  0.00000000000E+00  0.96856000707E+02  0.96856000707E+02  0.00000000000E+00 0.  1.
         -4   -1    0    0    0  501 -0.00000000000E+00 -0.00000000000E+00 -0.59249587175E+03  0.59249587175E+03  0.00000000000E+00 0.  1.
         21    1    1    2  503  501  0.66203375548E+02  0.11515559605E+03  0.39017483807E+02  0.13844154824E+03  0.00000000000E+00 0.  1.
         -4    1    1    2    0  502 -0.66203375548E+02 -0.11515559605E+03 -0.53465735485E+03  0.55091032422E+03  0.00000000000E+00 0.  1.
<mgrwt>
<rscale>  2 0.13282958E+03</rscale>
<asrwt>0</asrwt>
<pdfrwt beam="1">  1       21 0.14900923E-01 0.13282958E+03</pdfrwt>
<pdfrwt beam="2">  1       -4 0.91153213E-01 0.13282958E+03</pdfrwt>
<totfact> 0.17430881E+03</totfact>
</mgrwt>
</event>
<event>
 4    1  0.5045766E+003  0.1139819E+03  0.7546771E-02  0.1253369E+00
          2   -1    0    0  502    0 -0.00000000000E+00  0.00000000000E+00  0.10536542470E+04  0.10536542470E+04  0.00000000000E+00 0. -1.
         21   -1    0    0  503  502  0.00000000000E+00 -0.00000000000E+00 -0.24901918757E+02  0.24901918757E+02  0.00000000000E+00 0.  1.
         21    1    1    2  503  501  0.49718099690E+02 -0.10256694032E+03  0.13120566180E+03  0.17380101373E+03  0.00000000000E+00 0.  1.
          2    1    1    2  501    0 -0.49718099690E+02  0.10256694032E+03  0.89754666641E+03  0.90475515200E+03  0.00000000000E+00 0. -1.
<mgrwt>
<rscale>  2 0.11398187E+03</rscale>
<asrwt>0</asrwt>
<pdfrwt beam="2">  1       21 0.38310652E-02 0.11398187E+03</pdfrwt>
<pdfrwt beam="1">  1        2 0.16210062E+00 0.11398187E+03</pdfrwt>
<totfact> 0.12988977E+05</totfact>
</mgrwt>
</event>
<event>
 4    1  0.5045766E+003  0.1012151E+03  0.7546771E-02  0.1277761E+00
         21   -1    0    0  501  502  0.00000000000E+00  0.00000000000E+00  0.52783464710E+02  0.52783464710E+02  0.00000000000E+00 0. -1.
          1   -1    0    0  503    0 -0.00000000000E+00 -0.00000000000E+00 -0.43387500291E+03  0.43387500291E+03  0.00000000000E+00 0.  1.
         21    1    1    2  503  502  0.12238771001E+02  0.10047245874E+03 -0.96505441068E+01  0.10167416330E+03  0.00000000000E+00 0. -1.
          1    1    1    2  501    0 -0.12238771001E+02 -0.10047245874E+03 -0.37144099409E+03  0.38498430432E+03  0.00000000000E+00 0.  1.
<mgrwt>
<rscale>  2 0.10121513E+03</rscale>
<asrwt>0</asrwt>
<pdfrwt beam="1">  1       21 0.81205330E-02 0.10121513E+03</pdfrwt>
<pdfrwt beam="2">  1        1 0.66750001E-01 0.10121513E+03</pdfrwt>
<totfact> 0.69420449E+04</totfact>
</mgrwt>
</event>
<event>
 4    1  0.5045766E+003  0.1017306E+03  0.7546771E-02  0.1276698E+00
         21   -1    0    0  503  502  0.00000000000E+00  0.00000000000E+00  0.22754444072E+03  0.22754444072E+03  0.00000000000E+00 0. -1.
          1   -1    0    0  502    0 -0.00000000000E+00 -0.00000000000E+00 -0.75693680499E+02  0.75693680499E+02  0.00000000000E+00 0. -1.
         21    1    1    2  503  501  0.93015144605E+02 -0.41198335234E+02  0.17171384431E+03  0.19958648321E+03  0.00000000000E+00 0. -1.
          1    1    1    2  501    0 -0.93015144605E+02  0.41198335234E+02 -0.19863084093E+02  0.10365163801E+03  0.00000000000E+00 0. -1.
<mgrwt>
<rscale>  2 0.10173062E+03</rscale>
<asrwt>0</asrwt>
<pdfrwt beam="1">  1       21 0.35006837E-01 0.10173062E+03</pdfrwt>
<pdfrwt beam="2">  1        1 0.11645182E-01 0.10173062E+03</pdfrwt>
<totfact> 0.43352189E+04</totfact>
</mgrwt>
</event>
<event>
 4    1  0.5045766E+003  0.1063013E+03  0.7546771E-02  0.1267577E+00
          2   -1    0    0  503    0 -0.00000000000E+00  0.00000000000E+00  0.14906705988E+04  0.14906705988E+04  0.00000000000E+00 0. -1.
         21   -1    0    0  501  502  0.00000000000E+00 -0.00000000000E+00 -0.38378100217E+02  0.38378100217E+02  0.00000000000E+00 0. -1.
         21    1    1    2  503  502 -0.21865397779E+01  0.10627885825E+03  0.41276049964E+02  0.11403371855E+03  0.00000000000E+00 0. -1.
          2    1    1    2  501    0  0.21865397779E+01 -0.10627885825E+03  0.14110164486E+04  0.14150149805E+04  0.00000000000E+00 0. -1.
<mgrwt>
<rscale>  2 0.10630135E+03</rscale>
<asrwt>0</asrwt>
<pdfrwt beam="2">  1       21 0.59043243E-02 0.10630135E+03</pdfrwt>
<pdfrwt beam="1">  1        2 0.22933389E+00 0.10630135E+03</pdfrwt>
<totfact> 0.36636860E+04</totfact>
</mgrwt>
</event>
<event>
 4    1  0.5045766E+003  0.1030032E+03  0.7546771E-02  0.1274104E+00
         21   -1    0    0  501  502  0.00000000000E+00  0.00000000000E+00  0.18848520181E+02  0.18848520181E+02  0.00000000000E+00 0.  1.
          2   -1    0    0  503    0 -0.00000000000E+00 -0.00000000000E+00 -0.73821985522E+03  0.73821985522E+03  0.00000000000E+00 0.  1.
         21    1    1    2  503  502 -0.16744651439E+02 -0.10163307830E+03 -0.17521016098E+03  0.20324435162E+03  0.00000000000E+00 0.  1.
          2    1    1    2  501    0  0.16744651439E+02  0.10163307830E+03 -0.54416117406E+03  0.55382402377E+03  0.00000000000E+00 0.  1.
<mgrwt>
<rscale>  2 0.10300323E+03</rscale>
<asrwt>0</asrwt>
<pdfrwt beam="1">  1       21 0.28997725E-02 0.10300323E+03</pdfrwt>
<pdfrwt beam="2">  1        2 0.11357228E+00 0.10300323E+03</pdfrwt>
<totfact> 0.32307456E+05</totfact>
</mgrwt>
</event>
<event>
 4    1  0.5045766E+003  0.1021268E+03  0.7546771E-02  0.1275886E+00
         -4   -1    0    0    0  501 -0.00000000000E+00  0.00000000000E+00  0.11089571229E+04  0.11089571229E+04  0.00000000000E+00 0.  1.
         21   -1    0    0  501  502  0.00000000000E+00 -0.00000000000E+00 -0.13695198614E+03  0.13695198614E+03  0.00000000000E+00 0. -1.
         21    1    1    2  503  502  0.42421178250E+02  0.92899520779E+02 -0.11518098383E+03  0.15393679340E+03  0.00000000000E+00 0. -1.
         -4    1    1    2    0  503 -0.42421178250E+02 -0.92899520779E+02  0.10871861206E+04  0.10919723157E+04  0.00000000000E+00 0.  1.
<mgrwt>
<rscale>  2 0.10212677E+03</rscale>
<asrwt>0</asrwt>
<pdfrwt beam="2">  1       21 0.21069537E-01 0.10212677E+03</pdfrwt>
<pdfrwt beam="1">  1       -4 0.17060878E+00 0.10212677E+03</pdfrwt>
<totfact> 0.20113461E+02</totfact>
</mgrwt>
</event>
<event>
 4    1  0.5045766E+003  0.1097621E+03  0.7546771E-02  0.1261011E+00
          1   -1    0    0  503    0 -0.00000000000E+00  0.00000000000E+00  0.60635411886E+03  0.60635411886E+03  0.00000000000E+00 0.  1.
         21   -1    0    0  501  502  0.00000000000E+00 -0.00000000000E+00 -0.96200145693E+02  0.96200145693E+02  0.00000000000E+00 0.  1.
         21    1    1    2  503  502 -0.10900036399E+03 -0.12909301156E+02 -0.57828034124E+02  0.12406373740E+03  0.00000000000E+00 0.  1.
          1    1    1    2  501    0  0.10900036399E+03  0.12909301156E+02  0.56798200729E+03  0.57849052716E+03  0.00000000000E+00 0.  1.
<mgrwt>
<rscale>  2 0.10976215E+03</rscale>
<asrwt>0</asrwt>
<pdfrwt beam="2">  1       21 0.14800023E-01 0.10976215E+03</pdfrwt>
<pdfrwt beam="1">  1        1 0.93285246E-01 0.10976215E+03</pdfrwt>
<totfact> 0.15695178E+04</totfact>
</mgrwt>
</event>
<event>
 4    1  0.5045766E+003  0.1977483E+03  0.7546771E-02  0.1151653E+00
         -1   -1    0    0    0  501 -0.00000000000E+00  0.00000000000E+00  0.48015260002E+03  0.48015260002E+03  0.00000000000E+00 0. -1.
         21   -1    0    0  503  502  0.00000000000E+00 -0.00000000000E+00 -0.97420278808E+03  0.97420278808E+03  0.00000000000E+00 0. -1.
         21    1    1    2  503  501  0.88825847501E+02  0.17667585633E+03 -0.94314414362E+03  0.96365204562E+03  0.00000000000E+00 0. -1.
         -1    1    1    2    0  502 -0.88825847501E+02 -0.17667585633E+03  0.44909395556E+03  0.49070334247E+03  0.00000000000E+00 0. -1.
<mgrwt>
<rscale>  2 0.19774830E+03</rscale>
<asrwt>0</asrwt>
<pdfrwt beam="2">  1       21 0.14987735E+00 0.19774830E+03</pdfrwt>
<pdfrwt beam="1">  1       -1 0.73869632E-01 0.19774830E+03</pdfrwt>
<totfact> 0.53482112E+01</totfact>
</mgrwt>
</event>
<event>
 4    1  0.5045766E+003  0.1300007E+03  0.7546771E-02  0.1227455E+00
          2   -1    0    0  503    0 -0.00000000000E+00  0.00000000000E+00  0.85362632401E+03  0.85362632401E+03  0.00000000000E+00 0.  1.
         21   -1    0    0  501  502  0.00000000000E+00 -0.00000000000E+00 -0.32256971471E+02  0.32256971471E+02  0.00000000000E+00 0. -1.
         21    1    1    2  503  502  0.12131810116E+03 -0.46712904335E+02  0.13540501829E+03  0.18770907298E+03  0.00000000000E+00 0. -1.
          2    1    1    2  501    0 -0.12131810116E+03  0.46712904335E+02  0.68596433425E+03  0.69817422250E+03  0.00000000000E+00 0.  1.
<mgrwt>
<rscale>  2 0.13000068E+03</rscale>
<asrwt>0</asrwt>
<pdfrwt beam="2">  1       21 0.49626116E-02 0.13000068E+03</pdfrwt>
<pdfrwt beam="1">  1        2 0.13132711E+00 0.13000068E+03</pdfrwt>
<totfact> 0.11205670E+05</totfact>
</mgrwt>
</event>
<event>
 4    1  0.5045766E+003  0.2272782E+03  0.7546771E-02  0.1128570E+00
          2   -1    0    0  503    0 -0.00000000000E+00  0.00000000000E+00  0.13614455532E+03  0.13614455532E+03  0.00000000000E+00 0.  1.
         21   -1    0    0  501  502  0.00000000000E+00 -0.00000000000E+00 -0.53879794313E+03  0.53879794313E+03  0.00000000000E+00 0.  1.
         21    1    1    2  503  502 -0.10210941580E+03  0.20304942497E+03 -0.38487212641E+03  0.44696974782E+03  0.00000000000E+00 0.  1.
          2    1    1    2  501    0  0.10210941580E+03 -0.20304942497E+03 -0.17781261394E+02  0.22797275063E+03  0.00000000000E+00 0.  1.
<mgrwt>
<rscale>  2 0.22727825E+03</rscale>
<asrwt>0</asrwt>
<pdfrwt beam="2">  1       21 0.82891993E-01 0.22727825E+03</pdfrwt>
<pdfrwt beam="1">  1        2 0.20945316E-01 0.22727825E+03</pdfrwt>
<totfact> 0.40447693E+03</totfact>
</mgrwt>
</event>
<event>
 4    1  0.5045766E+003  0.1171610E+03  0.7546771E-02  0.1247855E+00
          1   -1    0    0  503    0 -0.00000000000E+00  0.00000000000E+00  0.28304654765E+02  0.28304654765E+02  0.00000000000E+00 0. -1.
         21   -1    0    0  501  502  0.00000000000E+00 -0.00000000000E+00 -0.52972139487E+03  0.52972139487E+03  0.00000000000E+00 0. -1.
         21    1    1    2  503  502  0.59630711620E+02 -0.10085073252E+03 -0.33181215153E+03  0.35188918131E+03  0.00000000000E+00 0. -1.
          1    1    1    2  501    0 -0.59630711620E+02  0.10085073252E+03 -0.16960458858E+03  0.20613686833E+03  0.00000000000E+00 0. -1.
<mgrwt>
<rscale>  2 0.11716097E+03</rscale>
<asrwt>0</asrwt>
<pdfrwt beam="2">  1       21 0.81495594E-01 0.11716097E+03</pdfrwt>
<pdfrwt beam="1">  1        1 0.43545625E-02 0.11716097E+03</pdfrwt>
<totfact> 0.27933601E+04</totfact>
</mgrwt>
</event>
<event>
 4    1  0.5045766E+003  0.1361386E+03  0.7546771E-02  0.1218621E+00
         -1   -1    0    0    0  501 -0.00000000000E+00  0.00000000000E+00  0.62665619166E+03  0.62665619166E+03  0.00000000000E+00 0.  1.
         21   -1    0    0  501  502  0.00000000000E+00 -0.00000000000E+00 -0.51182170155E+02  0.51182170155E+02  0.00000000000E+00 0.  1.
         21    1    1    2  503  502  0.86623994193E+02 -0.10502378338E+03  0.67530548629E+02  0.15196738612E+03  0.00000000000E+00 0.  1.
         -1    1    1    2    0  503 -0.86623994193E+02  0.10502378338E+03  0.50794347288E+03  0.52587097570E+03  0.00000000000E+00 0.  1.
<mgrwt>
<rscale>  2 0.13613857E+03</rscale>
<asrwt>0</asrwt>
<pdfrwt beam="2">  1       21 0.78741804E-02 0.13613857E+03</pdfrwt>
<pdfrwt beam="1">  1       -1 0.96408640E-01 0.13613857E+03</pdfrwt>
<totfact> 0.12686644E+04</totfact>
</mgrwt>
</event>
<event>
 4    1  0.5045766E+003  0.1085829E+03  0.7546771E-02  0.1263217E+00
         21   -1    0    0  503  502  0.00000000000E+00  0.00000000000E+00  0.11761613779E+02  0.11761613779E+02  0.00000000000E+00 0. -1.
         -2   -1    0    0    0  501 -0.00000000000E+00 -0.00000000000E+00 -0.24926290268E+04  0.24926290268E+04  0.00000000000E+00 0. -1.
         21    1    1    2  503  501  0.49708093728E+02 -0.96536835723E+02 -0.27223468892E+03  0.29309039747E+03  0.00000000000E+00 0. -1.
         -2    1    1    2    0  502 -0.49708093728E+02  0.96536835723E+02 -0.22086327241E+04  0.22113002431E+04  0.00000000000E+00 0. -1.
<mgrwt>
<rscale>  2 0.10858294E+03</rscale>
<asrwt>0</asrwt>
<pdfrwt beam="1">  1       21 0.18094789E-02 0.10858294E+03</pdfrwt>
<pdfrwt beam="2">  1       -2 0.38348142E+00 0.10858294E+03</pdfrwt>
<totfact> 0.14581964E+03</totfact>
</mgrwt>
</event>
<event>
 4    1  0.5045766E+003  0.1109862E+03  0.7546771E-02  0.1258754E+00
          2   -1    0    0  503    0 -0.00000000000E+00  0.00000000000E+00  0.66240563890E+03  0.66240563890E+03  0.00000000000E+00 0. -1.
         21   -1    0    0  501  502  0.00000000000E+00 -0.00000000000E+00 -0.10165352976E+03  0.10165352976E+03  0.00000000000E+00 0.  1.
         21    1    1    2  503  502  0.10985657164E+03 -0.15794964157E+02 -0.64947222551E+02  0.12859272508E+03  0.00000000000E+00 0.  1.
          2    1    1    2  501    0 -0.10985657164E+03  0.15794964157E+02  0.62569933170E+03  0.63546644358E+03  0.00000000000E+00 0. -1.
<mgrwt>
<rscale>  2 0.11098625E+03</rscale>
<asrwt>0</asrwt>
<pdfrwt beam="2">  1       21 0.15639005E-01 0.11098625E+03</pdfrwt>
<pdfrwt beam="1">  1        2 0.10190856E+00 0.11098625E+03</pdfrwt>
<totfact> 0.20805373E+04</totfact>
</mgrwt>
</event>
<event>
 4    1  0.5045766E+003  0.1026295E+03  0.7546771E-02  0.1274862E+00
         21   -1    0    0  503  502  0.00000000000E+00  0.00000000000E+00  0.38713560434E+01  0.38713560434E+01  0.00000000000E+00 0. -1.
          2   -1    0    0  502    0 -0.00000000000E+00 -0.00000000000E+00 -0.29896704178E+04  0.29896704178E+04  0.00000000000E+00 0.  1.
         21    1    1    2  503  501  0.47216235411E+02 -0.91123261366E+02 -0.10439566614E+04  0.10489891956E+04  0.00000000000E+00 0. -1.
          2    1    1    2  501    0 -0.47216235411E+02  0.91123261366E+02 -0.19418424004E+04  0.19445525783E+04  0.00000000000E+00 0.  1.
<mgrwt>
<rscale>  2 0.10262954E+03</rscale>
<asrwt>0</asrwt>
<pdfrwt beam="1">  1       21 0.59559392E-03 0.10262954E+03</pdfrwt>
<pdfrwt beam="2">  1        2 0.45994877E+00 0.10262954E+03</pdfrwt>
<totfact> 0.23993088E+05</totfact>
</mgrwt>
</event>
<event>
 4    1  0.5045766E+003  0.1126841E+03  0.7546771E-02  0.1255679E+00
         21   -1    0    0  503  502  0.00000000000E+00  0.00000000000E+00  0.10585506314E+02  0.10585506314E+02  0.00000000000E+00 0. -1.
          2   -1    0    0  502    0 -0.00000000000E+00 -0.00000000000E+00 -0.13942775465E+04  0.13942775465E+04  0.00000000000E+00 0. -1.
         21    1    1    2  503  501 -0.33733207545E+01 -0.11263357100E+03 -0.42932856237E+03  0.44387015565E+03  0.00000000000E+00 0. -1.
          2    1    1    2  501    0  0.33733207545E+01  0.11263357100E+03 -0.95436347777E+03  0.96099289712E+03  0.00000000000E+00 0. -1.
<mgrwt>
<rscale>  2 0.11268407E+03</rscale>
<asrwt>0</asrwt>
<pdfrwt beam="1">  1       21 0.16285405E-02 0.11268407E+03</pdfrwt>
<pdfrwt beam="2">  1        2 0.21450409E+00 0.11268407E+03</pdfrwt>
<totfact> 0.33896589E+05</totfact>
</mgrwt>
</event>
<event>
 4    1  0.5045766E+003  0.1123260E+03  0.7546771E-02  0.1256322E+00
          1   -1    0    0  502    0 -0.00000000000E+00  0.00000000000E+00  0.43665028743E+03  0.43665028743E+03  0.00000000000E+00 0.  1.
         21   -1    0    0  503  502  0.00000000000E+00 -0.00000000000E+00 -0.37808799463E+02  0.37808799463E+02  0.00000000000E+00 0.  1.
         21    1    1    2  503  501 -0.67403367984E+02  0.89854998880E+02  0.84235513107E+02  0.14040212430E+03  0.00000000000E+00 0.  1.
          1    1    1    2  501    0  0.67403367984E+02 -0.89854998880E+02  0.31460597486E+03  0.33405696259E+03  0.00000000000E+00 0.  1.
<mgrwt>
<rscale>  2 0.11232602E+03</rscale>
<asrwt>0</asrwt>
<pdfrwt beam="2">  1       21 0.58167387E-02 0.11232602E+03</pdfrwt>
<pdfrwt beam="1">  1        1 0.67176964E-01 0.11232602E+03</pdfrwt>
<totfact> 0.12187526E+05</totfact>
</mgrwt>
</event>
<event>
 4    1  0.5045766E+003  0.1032177E+03  0.7546771E-02  0.1273672E+00
          2   -1    0    0  502    0 -0.00000000000E+00  0.00000000000E+00  0.54832358736E+03  0.54832358736E+03  0.00000000000E+00 0.  1.
         21   -1    0    0  503  502  0.00000000000E+00 -0.00000000000E+00 -0.20497015068E+02  0.20497015068E+02  0.00000000000E+00 0.  1.
         21    1    1    2  503  501 -0.81207008662E+02  0.63712690705E+02  0.19901982934E+03  0.22419361651E+03  0.00000000000E+00 0.  1.
          2    1    1    2  501    0  0.81207008662E+02 -0.63712690705E+02  0.32880674295E+03  0.34462698592E+03  0.00000000000E+00 0.  1.
<mgrwt>
<rscale>  2 0.10321766E+03</rscale>
<asrwt>0</asrwt>
<pdfrwt beam="2">  1       21 0.31533874E-02 0.10321766E+03</pdfrwt>
<pdfrwt beam="1">  1        2 0.84357464E-01 0.10321766E+03</pdfrwt>
<totfact> 0.39597597E+05</totfact>
</mgrwt>
</event>
<event>
 4    1  0.5045766E+003  0.1968351E+03  0.7546771E-02  0.1152437E+00
          2   -1    0    0  503    0 -0.00000000000E+00  0.00000000000E+00  0.31354342690E+04  0.31354342690E+04  0.00000000000E+00 0.  1.
         21   -1    0    0  501  502  0.00000000000E+00 -0.00000000000E+00 -0.14495565176E+02  0.14495565176E+02  0.00000000000E+00 0.  1.
         21    1    1    2  503  502  0.16322763356E+02  0.19615717729E+03  0.95550409270E+03  0.97556759990E+03  0.00000000000E+00 0.  1.
          2    1    1    2  501    0 -0.16322763356E+02 -0.19615717729E+03  0.21654346111E+04  0.21743622342E+04  0.00000000000E+00 0.  1.
<mgrwt>
<rscale>  2 0.19683514E+03</rscale>
<asrwt>0</asrwt>
<pdfrwt beam="2">  1       21 0.22300894E-02 0.19683514E+03</pdfrwt>
<pdfrwt beam="1">  1        2 0.48237396E+00 0.19683514E+03</pdfrwt>
<totfact> 0.23478712E+04</totfact>
</mgrwt>
</event>
<event>
 4    1  0.5045766E+003  0.1003284E+03  0.7546771E-02  0.1279607E+00
         21   -1    0    0  501  502  0.00000000000E+00  0.00000000000E+00  0.27176562052E+03  0.27176562052E+03  0.00000000000E+00 0. -1.
          2   -1    0    0  503    0 -0.00000000000E+00 -0.00000000000E+00 -0.64774036184E+03  0.64774036184E+03  0.00000000000E+00 0.  1.
         21    1    1    2  503  502  0.81486605455E+02  0.58529699572E+02  0.25842755185E+03  0.27721939354E+03  0.00000000000E+00 0. -1.
          2    1    1    2  501    0 -0.81486605455E+02 -0.58529699572E+02 -0.63440229317E+03  0.64228658882E+03  0.00000000000E+00 0.  1.
<mgrwt>
<rscale>  2 0.10032842E+03</rscale>
<asrwt>0</asrwt>
<pdfrwt beam="1">  1       21 0.41810096E-01 0.10032842E+03</pdfrwt>
<pdfrwt beam="2">  1        2 0.99652363E-01 0.10032842E+03</pdfrwt>
<totfact> 0.33446741E+03</totfact>
</mgrwt>
</event>
<event>
 4    1  0.5045766E+003  0.1001263E+03  0.7546771E-02  0.1280031E+00
          1   -1    0    0  503    0 -0.00000000000E+00  0.00000000000E+00  0.25201183610E+03  0.25201183610E+03  0.00000000000E+00 0.  1.
         21   -1    0    0  501  502  0.00000000000E+00 -0.00000000000E+00 -0.55938548188E+02  0.55938548188E+02  0.00000000000E+00 0.  1.
         21    1    1    2  503  502  0.76599255048E+02  0.64481229878E+02  0.15283726378E+02  0.10128606603E+03  0.00000000000E+00 0.  1.
          1    1    1    2  501    0 -0.76599255048E+02 -0.64481229878E+02  0.18078956154E+03  0.20666431826E+03  0.00000000000E+00 0.  1.
<mgrwt>
<rscale>  2 0.10012629E+03</rscale>
<asrwt>0</asrwt>
<pdfrwt beam="2">  1       21 0.86059306E-02 0.10012629E+03</pdfrwt>
<pdfrwt beam="1">  1        1 0.38771051E-01 0.10012629E+03</pdfrwt>
<totfact> 0.12278395E+05</totfact>
</mgrwt>
</event>
<event>
 4    1  0.5045766E+003  0.1196927E+03  0.7546771E-02  0.1243605E+00
          1   -1    0    0  502    0 -0.00000000000E+00  0.00000000000E+00  0.10245705512E+04  0.10245705512E+04  0.00000000000E+00 0.  1.
         21   -1    0    0  503  502  0.00000000000E+00 -0.00000000000E+00 -0.65554350544E+02  0.65554350544E+02  0.00000000000E+00 0. -1.
         21    1    1    2  503  501 -0.29072145196E+02 -0.11610841226E+03 -0.39408808044E+01  0.11975760337E+03  0.00000000000E+00 0. -1.
          1    1    1    2  501    0  0.29072145196E+02  0.11610841226E+03  0.96295708151E+03  0.97036729842E+03  0.00000000000E+00 0.  1.
<mgrwt>
<rscale>  2 0.11969274E+03</rscale>
<asrwt>0</asrwt>
<pdfrwt beam="2">  1       21 0.10085285E-01 0.11969274E+03</pdfrwt>
<pdfrwt beam="1">  1        1 0.15762623E+00 0.11969274E+03</pdfrwt>
<totfact> 0.14047244E+04</totfact>
</mgrwt>
</event>
<event>
 4    1  0.5045766E+003  0.1045194E+03  0.7546771E-02  0.1271069E+00
          3   -1    0    0  502    0 -0.00000000000E+00  0.00000000000E+00  0.10228128659E+04  0.10228128659E+04  0.00000000000E+00 0.  1.
         21   -1    0    0  503  502  0.00000000000E+00 -0.00000000000E+00 -0.55437367994E+02  0.55437367994E+02  0.00000000000E+00 0.  1.
         21    1    1    2  503  501  0.27202595594E+02  0.10091740154E+03 -0.72704130936E+00  0.10452191985E+03  0.00000000000E+00 0.  1.
          3    1    1    2  501    0 -0.27202595594E+02 -0.10091740154E+03  0.96810253921E+03  0.97372831404E+03  0.00000000000E+00 0.  1.
<mgrwt>
<rscale>  2 0.10451939E+03</rscale>
<asrwt>0</asrwt>
<pdfrwt beam="2">  1       21 0.85288266E-02 0.10451939E+03</pdfrwt>
<pdfrwt beam="1">  1        3 0.15735581E+00 0.10451939E+03</pdfrwt>
<totfact> 0.16041428E+03</totfact>
</mgrwt>
</event>
<event>
 4    1  0.5045766E+003  0.1034780E+03  0.7546771E-02  0.1273148E+00
         21   -1    0    0  503  502  0.00000000000E+00  0.00000000000E+00  0.58369543018E+02  0.58369543018E+02  0.00000000000E+00 0.  1.
          2   -1    0    0  502    0 -0.00000000000E+00 -0.00000000000E+00 -0.33180908932E+04  0.33180908932E+04  0.00000000000E+00 0.  1.
         21    1    1    2  503  501 -0.10304515700E+03 -0.94542929683E+01  0.11037645739E+02  0.10406496846E+03  0.00000000000E+00 0.  1.
          2    1    1    2  501    0  0.10304515700E+03  0.94542929683E+01 -0.32707589959E+04  0.32723954677E+04  0.00000000000E+00 0.  1.
<mgrwt>
<rscale>  2 0.10347796E+03</rscale>
<asrwt>0</asrwt>
<pdfrwt beam="1">  1       21 0.89799262E-02 0.10347796E+03</pdfrwt>
<pdfrwt beam="2">  1        2 0.51047572E+00 0.10347796E+03</pdfrwt>
<totfact> 0.18871456E+03</totfact>
</mgrwt>
</event>
<event>
 4    1  0.5045766E+003  0.3045506E+03  0.7546771E-02  0.1082988E+00
         21   -1    0    0  501  502  0.00000000000E+00  0.00000000000E+00  0.98420683900E+03  0.98420683900E+03  0.00000000000E+00 0. -1.
          1   -1    0    0  503    0 -0.00000000000E+00 -0.00000000000E+00 -0.30868580553E+03  0.30868580553E+03  0.00000000000E+00 0.  1.
         21    1    1    2  503  502  0.26732340713E+02 -0.30337508011E+03  0.87656788942E+03  0.92796676774E+03  0.00000000000E+00 0. -1.
          1    1    1    2  501    0 -0.26732340713E+02  0.30337508011E+03 -0.20104685594E+03  0.36492587680E+03  0.00000000000E+00 0.  1.
<mgrwt>
<rscale>  2 0.30455058E+03</rscale>
<asrwt>0</asrwt>
<pdfrwt beam="1">  1       21 0.15141644E+00 0.30455058E+03</pdfrwt>
<pdfrwt beam="2">  1        1 0.47490124E-01 0.30455058E+03</pdfrwt>
<totfact> 0.25226887E+02</totfact>
</mgrwt>
</event>
<event>
 4    1  0.5045766E+003  0.1142938E+03  0.7546771E-02  0.1252819E+00
          2   -1    0    0  503    0 -0.00000000000E+00  0.00000000000E+00  0.13615047482E+04  0.13615047482E+04  0.00000000000E+00 0. -1.
         21   -1    0    0  501  502  0.00000000000E+00 -0.00000000000E+00 -0.15233737913E+02  0.15233737913E+02  0.00000000000E+00 0. -1.
         21    1    1    2  503  502 -0.12703602097E+02 -0.11358563381E+03  0.25431781147E+03  0.27882006195E+03  0.00000000000E+00 0. -1.
          2    1    1    2  501    0  0.12703602097E+02  0.11358563381E+03  0.10919531988E+04  0.10979184242E+04  0.00000000000E+00 0. -1.
<mgrwt>
<rscale>  2 0.11429382E+03</rscale>
<asrwt>0</asrwt>
<pdfrwt beam="2">  1       21 0.23436531E-02 0.11429382E+03</pdfrwt>
<pdfrwt beam="1">  1        2 0.20946217E+00 0.11429382E+03</pdfrwt>
<totfact> 0.19653124E+05</totfact>
</mgrwt>
</event>
<event>
 4    1  0.5045766E+003  0.1022308E+03  0.7546771E-02  0.1275674E+00
          1   -1    0    0  503    0 -0.00000000000E+00  0.00000000000E+00  0.63634304151E+03  0.63634304151E+03  0.00000000000E+00 0. -1.
         21   -1    0    0  501  502  0.00000000000E+00 -0.00000000000E+00 -0.18501213738E+02  0.18501213738E+02  0.00000000000E+00 0. -1.
         21    1    1    2  503  502 -0.34144220500E+02 -0.96360318301E+02  0.19920372043E+03  0.22390458006E+03  0.00000000000E+00 0. -1.
          1    1    1    2  501    0  0.34144220500E+02  0.96360318301E+02  0.41863810734E+03  0.43093967519E+03  0.00000000000E+00 0. -1.
<mgrwt>
<rscale>  2 0.10223081E+03</rscale>
<asrwt>0</asrwt>
<pdfrwt beam="2">  1       21 0.28463411E-02 0.10223081E+03</pdfrwt>
<pdfrwt beam="1">  1        1 0.97898913E-01 0.10223081E+03</pdfrwt>
<totfact> 0.24188562E+05</totfact>
</mgrwt>
</event>
<event>
 4    1  0.5045766E+003  0.1570221E+03  0.7546771E-02  0.1192100E+00
          2   -1    0    0  502    0 -0.00000000000E+00  0.00000000000E+00  0.11513901851E+04  0.11513901851E+04  0.00000000000E+00 0. -1.
         21   -1    0    0  503  502  0.00000000000E+00 -0.00000000000E+00 -0.33352960391E+02  0.33352960391E+02  0.00000000000E+00 0.  1.
         21    1    1    2  503  501 -0.13479003755E+03  0.80545635180E+02  0.20460618519E+03  0.25791402558E+03  0.00000000000E+00 0.  1.
          2    1    1    2  501    0  0.13479003755E+03 -0.80545635180E+02  0.91343103956E+03  0.92682911996E+03  0.00000000000E+00 0. -1.
<mgrwt>
<rscale>  2 0.15702214E+03</rscale>
<asrwt>0</asrwt>
<pdfrwt beam="2">  1       21 0.51312256E-02 0.15702214E+03</pdfrwt>
<pdfrwt beam="1">  1        2 0.17713692E+00 0.15702214E+03</pdfrwt>
<totfact> 0.70230504E+04</totfact>
</mgrwt>
</event>
<event>
 4    1  0.5045766E+003  0.1507880E+03  0.7546771E-02  0.1199508E+00
         21   -1    0    0  503  502  0.00000000000E+00  0.00000000000E+00  0.10402747593E+03  0.10402747593E+03  0.00000000000E+00 0. -1.
          2   -1    0    0  502    0 -0.00000000000E+00 -0.00000000000E+00 -0.33840933969E+04  0.33840933969E+04  0.00000000000E+00 0.  1.
         21    1    1    2  503  501 -0.59018860267E+02  0.13875805802E+03  0.46765888526E+02  0.15787359774E+03  0.00000000000E+00 0. -1.
          2    1    1    2  501    0  0.59018860267E+02 -0.13875805802E+03 -0.33268318095E+04  0.33302472751E+04  0.00000000000E+00 0.  1.
<mgrwt>
<rscale>  2 0.15078801E+03</rscale>
<asrwt>0</asrwt>
<pdfrwt beam="1">  1       21 0.16004230E-01 0.15078801E+03</pdfrwt>
<pdfrwt beam="2">  1        2 0.52062967E+00 0.15078801E+03</pdfrwt>
<totfact> 0.58223607E+02</totfact>
</mgrwt>
</event>
<event>
 4    1  0.5045766E+003  0.1552022E+03  0.7546771E-02  0.1194222E+00
         21   -1    0    0  501  502  0.00000000000E+00  0.00000000000E+00  0.17672225213E+03  0.17672225213E+03  0.00000000000E+00 0.  1.
          2   -1    0    0  503    0 -0.00000000000E+00 -0.00000000000E+00 -0.28359709364E+04  0.28359709364E+04  0.00000000000E+00 0.  1.
         21    1    1    2  503  502 -0.17360843795E+01 -0.15519249320E+03  0.14007743268E+03  0.20906795805E+03  0.00000000000E+00 0.  1.
          2    1    1    2  501    0  0.17360843795E+01  0.15519249320E+03 -0.27993261169E+04  0.28036252304E+04  0.00000000000E+00 0.  1.
<mgrwt>
<rscale>  2 0.15520220E+03</rscale>
<asrwt>0</asrwt>
<pdfrwt beam="1">  1       21 0.27188040E-01 0.15520220E+03</pdfrwt>
<pdfrwt beam="2">  1        2 0.43630320E+00 0.15520220E+03</pdfrwt>
<totfact> 0.45698141E+02</totfact>
</mgrwt>
</event>
<event>
 4    1  0.5045766E+003  0.1217709E+03  0.7546771E-02  0.1240204E+00
          1   -1    0    0  503    0 -0.00000000000E+00  0.00000000000E+00  0.84110002196E+03  0.84110002196E+03  0.00000000000E+00 0. -1.
         21   -1    0    0  501  502  0.00000000000E+00 -0.00000000000E+00 -0.36884479303E+02  0.36884479303E+02  0.00000000000E+00 0.  1.
         21    1    1    2  503  502  0.11998821891E+03  0.20760000230E+02  0.84926996408E+02  0.14846125760E+03  0.00000000000E+00 0.  1.
          1    1    1    2  501    0 -0.11998821891E+03 -0.20760000230E+02  0.71928854624E+03  0.72952324366E+03  0.00000000000E+00 0. -1.
<mgrwt>
<rscale>  2 0.12177089E+03</rscale>
<asrwt>0</asrwt>
<pdfrwt beam="2">  1       21 0.56745359E-02 0.12177089E+03</pdfrwt>
<pdfrwt beam="1">  1        1 0.12939999E+00 0.12177089E+03</pdfrwt>
<totfact> 0.51796906E+04</totfact>
</mgrwt>
</event>
<event>
 4    1  0.5045766E+003  0.1086448E+03  0.7546771E-02  0.1263100E+00
         21   -1    0    0  503  502  0.00000000000E+00  0.00000000000E+00  0.32460162593E+03  0.32460162593E+03  0.00000000000E+00 0.  1.
          2   -1    0    0  502    0 -0.00000000000E+00 -0.00000000000E+00 -0.60993335529E+03  0.60993335529E+03  0.00000000000E+00 0.  1.
         21    1    1    2  503  501 -0.73837024086E+02 -0.79698080877E+02  0.31045857652E+03  0.32891977435E+03  0.00000000000E+00 0.  1.
          2    1    1    2  501    0  0.73837024086E+02  0.79698080877E+02 -0.59579030588E+03  0.60561520688E+03  0.00000000000E+00 0.  1.
<mgrwt>
<rscale>  2 0.10864479E+03</rscale>
<asrwt>0</asrwt>
<pdfrwt beam="1">  1       21 0.49938712E-01 0.10864479E+03</pdfrwt>
<pdfrwt beam="2">  1        2 0.93835900E-01 0.10864479E+03</pdfrwt>
<totfact> 0.24856961E+03</totfact>
</mgrwt>
</event>
<event>
 4    1  0.5045766E+003  0.1453521E+03  0.7546771E-02  0.1206303E+00
          2   -1    0    0  502    0 -0.00000000000E+00  0.00000000000E+00  0.10978800602E+04  0.10978800602E+04  0.00000000000E+00 0. -1.
         21   -1    0    0  503  502  0.00000000000E+00 -0.00000000000E+00 -0.57163237794E+02  0.57163237794E+02  0.00000000000E+00 0.  1.
         21    1    1    2  503  501 -0.14535117334E+03  0.52432405308E+00  0.49986299800E+02  0.15370708726E+03  0.00000000000E+00 0.  1.
          2    1    1    2  501    0  0.14535117334E+03 -0.52432405308E+00  0.99073052263E+03  0.10013362108E+04  0.00000000000E+00 0. -1.
<mgrwt>
<rscale>  2 0.14535212E+03</rscale>
<asrwt>0</asrwt>
<pdfrwt beam="2">  1       21 0.87943451E-02 0.14535212E+03</pdfrwt>
<pdfrwt beam="1">  1        2 0.16890461E+00 0.14535212E+03</pdfrwt>
<totfact> 0.29960769E+04</totfact>
</mgrwt>
</event>
<event>
 4    1  0.5045766E+003  0.1066901E+03  0.7546771E-02  0.1266825E+00
          2   -1    0    0  503    0 -0.00000000000E+00  0.00000000000E+00  0.71897891365E+03  0.71897891365E+03  0.00000000000E+00 0.  1.
         21   -1    0    0  501  502  0.00000000000E+00 -0.00000000000E+00 -0.33361975127E+02  0.33361975127E+02  0.00000000000E+00 0. -1.
         21    1    1    2  503  502 -0.10659427526E+03  0.45198911782E+01  0.70129743469E+02  0.12767517321E+03  0.00000000000E+00 0. -1.
          2    1    1    2  501    0  0.10659427526E+03 -0.45198911782E+01  0.61548719505E+03  0.62466571557E+03  0.00000000000E+00 0.  1.
<mgrwt>
<rscale>  2 0.10669006E+03</rscale>
<asrwt>0</asrwt>
<pdfrwt beam="2">  1       21 0.51326121E-02 0.10669006E+03</pdfrwt>
<pdfrwt beam="1">  1        2 0.11061213E+00 0.10669006E+03</pdfrwt>
<totfact> 0.13011961E+05</totfact>
</mgrwt>
</event>
<event>
 4    1  0.5045766E+003  0.2591318E+03  0.7546771E-02  0.1107666E+00
          2   -1    0    0  502    0 -0.00000000000E+00  0.00000000000E+00  0.51856454574E+03  0.51856454574E+03  0.00000000000E+00 0. -1.
         21   -1    0    0  503  502  0.00000000000E+00 -0.00000000000E+00 -0.59347388479E+03  0.59347388479E+03  0.00000000000E+00 0. -1.
         21    1    1    2  503  501 -0.25405284595E+03 -0.51053511535E+02 -0.52908661339E+03  0.58913661747E+03  0.00000000000E+00 0. -1.
          2    1    1    2  501    0  0.25405284595E+03  0.51053511535E+02  0.45417727434E+03  0.52290181306E+03  0.00000000000E+00 0. -1.
<mgrwt>
<rscale>  2 0.25913184E+03</rscale>
<asrwt>0</asrwt>
<pdfrwt beam="2">  1       21 0.91303674E-01 0.25913184E+03</pdfrwt>
<pdfrwt beam="1">  1        2 0.79779161E-01 0.25913184E+03</pdfrwt>
<totfact> 0.73482101E+02</totfact>
</mgrwt>
</event>
<event>
 4    1  0.5045766E+003  0.1164339E+03  0.7546771E-02  0.1249099E+00
          2   -1    0    0  502    0 -0.00000000000E+00  0.00000000000E+00  0.15922399616E+03  0.15922399616E+03  0.00000000000E+00 0. -1.
         21   -1    0    0  503  502  0.00000000000E+00 -0.00000000000E+00 -0.23439352747E+03  0.23439352747E+03  0.00000000000E+00 0.  1.
         21    1    1    2  503  501 -0.10241854319E+03  0.55383211286E+02 -0.19463157149E+03  0.22680014705E+03  0.00000000000E+00 0.  1.
          2    1    1    2  501    0  0.10241854319E+03 -0.55383211286E+02  0.11946204018E+03  0.16681737657E+03  0.00000000000E+00 0. -1.
<mgrwt>
<rscale>  2 0.11643392E+03</rscale>
<asrwt>0</asrwt>
<pdfrwt beam="2">  1       21 0.36060542E-01 0.11643392E+03</pdfrwt>
<pdfrwt beam="1">  1        2 0.24496000E-01 0.11643392E+03</pdfrwt>
<totfact> 0.20153825E+04</totfact>
</mgrwt>
</event>
<event>
 4    1  0.5045766E+003  0.1442840E+03  0.7546771E-02  0.1207678E+00
         21   -1    0    0  503  502  0.00000000000E+00  0.00000000000E+00  0.64920849268E+02  0.64920849268E+02  0.00000000000E+00 0. -1.
          2   -1    0    0  502    0 -0.00000000000E+00 -0.00000000000E+00 -0.83484263107E+03  0.83484263107E+03  0.00000000000E+00 0.  1.
         21    1    1    2  503  501 -0.71339553899E+02  0.12541342888E+03 -0.31897617873E+02  0.14776778445E+03  0.00000000000E+00 0. -1.
          2    1    1    2  501    0  0.71339553899E+02 -0.12541342888E+03 -0.73802416393E+03  0.75199569589E+03  0.00000000000E+00 0.  1.
<mgrwt>
<rscale>  2 0.14428396E+03</rscale>
<asrwt>0</asrwt>
<pdfrwt beam="1">  1       21 0.99878231E-02 0.14428396E+03</pdfrwt>
<pdfrwt beam="2">  1        2 0.12843733E+00 0.14428396E+03</pdfrwt>
<totfact> 0.34752893E+04</totfact>
</mgrwt>
</event>
<event>
 4    1  0.5045766E+003  0.1275901E+03  0.7546771E-02  0.1231076E+00
          1   -1    0    0  502    0 -0.00000000000E+00  0.00000000000E+00  0.92874658058E+03  0.92874658058E+03  0.00000000000E+00 0. -1.
         21   -1    0    0  503  502  0.00000000000E+00 -0.00000000000E+00 -0.31673791498E+02  0.31673791498E+02  0.00000000000E+00 0. -1.
         21    1    1    2  503  501  0.51887798606E+02  0.11656286439E+03  0.12761987312E+03  0.18046073538E+03  0.00000000000E+00 0. -1.
          1    1    1    2  501    0 -0.51887798606E+02 -0.11656286439E+03  0.76945291596E+03  0.77995963670E+03  0.00000000000E+00 0. -1.
<mgrwt>
<rscale>  2 0.12759014E+03</rscale>
<asrwt>0</asrwt>
<pdfrwt beam="2">  1       21 0.48728917E-02 0.12759014E+03</pdfrwt>
<pdfrwt beam="1">  1        1 0.14288407E+00 0.12759014E+03</pdfrwt>
<totfact> 0.57268452E+04</totfact>
</mgrwt>
</event>
<event>
 4    1  0.5045766E+003  0.1292059E+03  0.7546771E-02  0.1228639E+00
         21   -1    0    0  503  502  0.00000000000E+00  0.00000000000E+00  0.23982418680E+03  0.23982418680E+03  0.00000000000E+00 0.  1.
         -3   -1    0    0    0  501 -0.00000000000E+00 -0.00000000000E+00 -0.25868631491E+03  0.25868631491E+03  0.00000000000E+00 0.  1.
         21    1    1    2  503  501 -0.85621790051E+01 -0.12892190793E+03  0.20366533803E+03  0.24119232817E+03  0.00000000000E+00 0.  1.
         -3    1    1    2    0  502  0.85621790051E+01  0.12892190793E+03 -0.22252746613E+03  0.25731817355E+03  0.00000000000E+00 0.  1.
<mgrwt>
<rscale>  2 0.12920592E+03</rscale>
<asrwt>0</asrwt>
<pdfrwt beam="1">  1       21 0.36896029E-01 0.12920592E+03</pdfrwt>
<pdfrwt beam="2">  1       -3 0.39797894E-01 0.12920592E+03</pdfrwt>
<totfact> 0.21836752E+03</totfact>
</mgrwt>
</event>
<event>
 4    1  0.5045766E+003  0.1420330E+03  0.7546771E-02  0.1210619E+00
          1   -1    0    0  503    0 -0.00000000000E+00  0.00000000000E+00  0.66713960785E+03  0.66713960785E+03  0.00000000000E+00 0.  1.
         21   -1    0    0  501  502  0.00000000000E+00 -0.00000000000E+00 -0.34884271522E+02  0.34884271522E+02  0.00000000000E+00 0.  1.
         21    1    1    2  503  502  0.89990122523E+02  0.10988703285E+03  0.18803322173E+03  0.23564777660E+03  0.00000000000E+00 0.  1.
          1    1    1    2  501    0 -0.89990122523E+02 -0.10988703285E+03  0.44422211460E+03  0.46637610277E+03  0.00000000000E+00 0.  1.
<mgrwt>
<rscale>  2 0.14203303E+03</rscale>
<asrwt>0</asrwt>
<pdfrwt beam="2">  1       21 0.53668115E-02 0.14203303E+03</pdfrwt>
<pdfrwt beam="1">  1        1 0.10263685E+00 0.14203303E+03</pdfrwt>
<totfact> 0.80053542E+04</totfact>
</mgrwt>
</event>
<event>
 4    1  0.5045766E+003  0.1584514E+03  0.7546771E-02  0.1190456E+00
         21   -1    0    0  501  502  0.00000000000E+00  0.00000000000E+00  0.75847054267E+02  0.75847054267E+02  0.00000000000E+00 0. -1.
          3   -1    0    0  503    0 -0.00000000000E+00 -0.00000000000E+00 -0.83292581586E+03  0.83292581586E+03  0.00000000000E+00 0. -1.
         21    1    1    2  503  502 -0.10234926566E+03  0.12096062818E+03 -0.25816548084E+02  0.16054077334E+03  0.00000000000E+00 0. -1.
          3    1    1    2  501    0  0.10234926566E+03 -0.12096062818E+03 -0.73126221351E+03  0.74823209678E+03  0.00000000000E+00 0. -1.
<mgrwt>
<rscale>  2 0.15845140E+03</rscale>
<asrwt>0</asrwt>
<pdfrwt beam="1">  1       21 0.11668777E-01 0.15845140E+03</pdfrwt>
<pdfrwt beam="2">  1        3 0.12814244E+00 0.15845140E+03</pdfrwt>
<totfact> 0.15444246E+03</totfact>
</mgrwt>
</event>
<event>
 4    1  0.5045766E+003  0.1137994E+03  0.7546771E-02  0.1253691E+00
          1   -1    0    0  503    0 -0.00000000000E+00  0.00000000000E+00  0.81283570563E+03  0.81283570563E+03  0.00000000000E+00 0.  1.
         21   -1    0    0  501  502  0.00000000000E+00 -0.00000000000E+00 -0.44093990642E+03  0.44093990642E+03  0.00000000000E+00 0. -1.
         21    1    1    2  503  502 -0.10356971776E+03 -0.47155341715E+02 -0.42951019702E+03  0.44433019482E+03  0.00000000000E+00 0. -1.
          1    1    1    2  501    0  0.10356971776E+03  0.47155341715E+02  0.80140599622E+03  0.80944541723E+03  0.00000000000E+00 0.  1.
<mgrwt>
<rscale>  2 0.11379944E+03</rscale>
<asrwt>0</asrwt>
<pdfrwt beam="2">  1       21 0.67836909E-01 0.11379944E+03</pdfrwt>
<pdfrwt beam="1">  1        1 0.12505165E+00 0.11379944E+03</pdfrwt>
<totfact> 0.53182264E+02</totfact>
</mgrwt>
</event>
<event>
 4    1  0.5045766E+003  0.1053698E+03  0.7546771E-02  0.1269393E+00
          1   -1    0    0  503    0 -0.00000000000E+00  0.00000000000E+00  0.14558201758E+04  0.14558201758E+04  0.00000000000E+00 0.  1.
         21   -1    0    0  501  502  0.00000000000E+00 -0.00000000000E+00 -0.17429625154E+02  0.17429625154E+02  0.00000000000E+00 0. -1.
         21    1    1    2  503  502  0.66204593280E+02 -0.81974042534E+02  0.16675547304E+03  0.19725663388E+03  0.00000000000E+00 0. -1.
          1    1    1    2  501    0 -0.66204593280E+02  0.81974042534E+02  0.12716350777E+04  0.12759931671E+04  0.00000000000E+00 0.  1.
<mgrwt>
<rscale>  2 0.10536979E+03</rscale>
<asrwt>0</asrwt>
<pdfrwt beam="2">  1       21 0.26814819E-02 0.10536979E+03</pdfrwt>
<pdfrwt beam="1">  1        1 0.22397224E+00 0.10536979E+03</pdfrwt>
<totfact> 0.66634154E+04</totfact>
</mgrwt>
</event>
<event>
 4    1  0.5045766E+003  0.1494732E+03  0.7546771E-02  0.1201122E+00
          2   -1    0    0  503    0 -0.00000000000E+00  0.00000000000E+00  0.76336414205E+03  0.76336414205E+03  0.00000000000E+00 0. -1.
         21   -1    0    0  501  502  0.00000000000E+00 -0.00000000000E+00 -0.63180262900E+02  0.63180262900E+02  0.00000000000E+00 0. -1.
         21    1    1    2  503  502 -0.10381206104E+03 -0.10754205885E+03  0.47314819221E+02  0.15678306846E+03  0.00000000000E+00 0. -1.
          2    1    1    2  501    0  0.10381206104E+03  0.10754205885E+03  0.65286905993E+03  0.66976133649E+03  0.00000000000E+00 0. -1.
<mgrwt>
<rscale>  2 0.14947320E+03</rscale>
<asrwt>0</asrwt>
<pdfrwt beam="2">  1       21 0.97200410E-02 0.14947320E+03</pdfrwt>
<pdfrwt beam="1">  1        2 0.11744063E+00 0.14947320E+03</pdfrwt>
<totfact> 0.40739434E+04</totfact>
</mgrwt>
</event>
<event>
 4    1  0.5045766E+003  0.1117336E+03  0.7546771E-02  0.1257393E+00
         21   -1    0    0  503  502  0.00000000000E+00  0.00000000000E+00  0.47275076389E+02  0.47275076389E+02  0.00000000000E+00 0. -1.
         -4   -1    0    0    0  501 -0.00000000000E+00 -0.00000000000E+00 -0.59333475110E+03  0.59333475110E+03  0.00000000000E+00 0. -1.
         21    1    1    2  503  501  0.10707105811E+03 -0.31940289131E+02 -0.34424664932E+02  0.11691642789E+03  0.00000000000E+00 0. -1.
         -4    1    1    2    0  502 -0.10707105811E+03  0.31940289131E+02 -0.51163500978E+03  0.52369339960E+03  0.00000000000E+00 0. -1.
<mgrwt>
<rscale>  2 0.11173358E+03</rscale>
<asrwt>0</asrwt>
<pdfrwt beam="1">  1       21 0.72730884E-02 0.11173358E+03</pdfrwt>
<pdfrwt beam="2">  1       -4 0.91282272E-01 0.11173358E+03</pdfrwt>
<totfact> 0.60361866E+03</totfact>
</mgrwt>
</event>
<event>
 4    1  0.5045766E+003  0.1296488E+03  0.7546771E-02  0.1227978E+00
         -1   -1    0    0    0  501 -0.00000000000E+00  0.00000000000E+00  0.19298042890E+04  0.19298042890E+04  0.00000000000E+00 0.  1.
         21   -1    0    0  503  502  0.00000000000E+00 -0.00000000000E+00 -0.17147128388E+02  0.17147128388E+02  0.00000000000E+00 0. -1.
         21    1    1    2  503  501  0.99987171008E+02 -0.82531051648E+02  0.27348080198E+03  0.30265584069E+03  0.00000000000E+00 0. -1.
         -1    1    1    2    0  502 -0.99987171008E+02  0.82531051648E+02  0.16391763586E+04  0.16442955767E+04  0.00000000000E+00 0.  1.
<mgrwt>
<rscale>  2 0.12964879E+03</rscale>
<asrwt>0</asrwt>
<pdfrwt beam="2">  1       21 0.26380213E-02 0.12964879E+03</pdfrwt>
<pdfrwt beam="1">  1       -1 0.29689280E+00 0.12964879E+03</pdfrwt>
<totfact> 0.31014223E+03</totfact>
</mgrwt>
</event>
<event>
 4    1  0.5045766E+003  0.1197975E+03  0.7546771E-02  0.1243432E+00
         21   -1    0    0  501  502  0.00000000000E+00  0.00000000000E+00  0.56171127287E+02  0.56171127287E+02  0.00000000000E+00 0. -1.
          2   -1    0    0  503    0 -0.00000000000E+00 -0.00000000000E+00 -0.25794547417E+03  0.25794547417E+03  0.00000000000E+00 0. -1.
         21    1    1    2  503  502 -0.75434106240E+02  0.93065215440E+02 -0.85578856116E+02  0.14722492766E+03  0.00000000000E+00 0. -1.
          2    1    1    2  501    0  0.75434106240E+02 -0.93065215440E+02 -0.11619549077E+03  0.16689167380E+03  0.00000000000E+00 0. -1.
<mgrwt>
<rscale>  2 0.11979749E+03</rscale>
<asrwt>0</asrwt>
<pdfrwt beam="1">  1       21 0.86417120E-02 0.11979749E+03</pdfrwt>
<pdfrwt beam="2">  1        2 0.39683919E-01 0.11979749E+03</pdfrwt>
<totfact> 0.16418760E+05</totfact>
</mgrwt>
</event>
<event>
 4    1  0.5045766E+003  0.1269276E+03  0.7546771E-02  0.1232087E+00
          1   -1    0    0  503    0 -0.00000000000E+00  0.00000000000E+00  0.16102368191E+04  0.16102368191E+04  0.00000000000E+00 0. -1.
         21   -1    0    0  501  502  0.00000000000E+00 -0.00000000000E+00 -0.10101644072E+02  0.10101644072E+02  0.00000000000E+00 0. -1.
         21    1    1    2  503  502 -0.67165947741E+02 -0.10770026456E+03  0.87926282052E+03  0.88837701403E+03  0.00000000000E+00 0. -1.
          1    1    1    2  501    0  0.67165947741E+02  0.10770026456E+03  0.72087235450E+03  0.73196144913E+03  0.00000000000E+00 0. -1.
<mgrwt>
<rscale>  2 0.12692758E+03</rscale>
<asrwt>0</asrwt>
<pdfrwt beam="2">  1       21 0.15541004E-02 0.12692758E+03</pdfrwt>
<pdfrwt beam="1">  1        1 0.24772854E+00 0.12692758E+03</pdfrwt>
<totfact> 0.12770581E+05</totfact>
</mgrwt>
</event>
<event>
 4    1  0.5045766E+003  0.1031520E+03  0.7546771E-02  0.1273804E+00
         21   -1    0    0  503  502  0.00000000000E+00  0.00000000000E+00  0.40479223634E+02  0.40479223634E+02  0.00000000000E+00 0.  1.
          2   -1    0    0  502    0 -0.00000000000E+00 -0.00000000000E+00 -0.16676793251E+04  0.16676793251E+04  0.00000000000E+00 0.  1.
         21    1    1    2  503  501 -0.19358238872E+02 -0.10131928158E+03 -0.29715213952E+02  0.10734678464E+03  0.00000000000E+00 0.  1.
          2    1    1    2  501    0  0.19358238872E+02  0.10131928158E+03 -0.15974848876E+04  0.16008117641E+04  0.00000000000E+00 0.  1.
<mgrwt>
<rscale>  2 0.10315202E+03</rscale>
<asrwt>0</asrwt>
<pdfrwt beam="1">  1       21 0.62275707E-02 0.10315202E+03</pdfrwt>
<pdfrwt beam="2">  1        2 0.25656614E+00 0.10315202E+03</pdfrwt>
<totfact> 0.27218790E+04</totfact>
</mgrwt>
</event>
<event>
 4    1  0.5045766E+003  0.1192546E+03  0.7546771E-02  0.1244332E+00
         21   -1    0    0  501  502  0.00000000000E+00  0.00000000000E+00  0.13618300078E+02  0.13618300078E+02  0.00000000000E+00 0.  1.
          2   -1    0    0  503    0 -0.00000000000E+00 -0.00000000000E+00 -0.15747178619E+04  0.15747178619E+04  0.00000000000E+00 0.  1.
         21    1    1    2  503  502 -0.84186244354E+02  0.84465023401E+02 -0.31963787928E+03  0.34115984199E+03  0.00000000000E+00 0.  1.
          2    1    1    2  501    0  0.84186244354E+02 -0.84465023401E+02 -0.12414616826E+04  0.12471763200E+04  0.00000000000E+00 0.  1.
<mgrwt>
<rscale>  2 0.11925462E+03</rscale>
<asrwt>0</asrwt>
<pdfrwt beam="1">  1       21 0.20951241E-02 0.11925462E+03</pdfrwt>
<pdfrwt beam="2">  1        2 0.24226417E+00 0.11925462E+03</pdfrwt>
<totfact> 0.18262693E+05</totfact>
</mgrwt>
</event>
<event>
 4    1  0.5045766E+003  0.1004441E+03  0.7546771E-02  0.1279365E+00
          1   -1    0    0  503    0 -0.00000000000E+00  0.00000000000E+00  0.32382573976E+03  0.32382573976E+03  0.00000000000E+00 0.  1.
         21   -1    0    0  501  502  0.00000000000E+00 -0.00000000000E+00 -0.18754320961E+03  0.18754320961E+03  0.00000000000E+00 0. -1.
         21    1    1    2  503  502  0.21812492560E+02 -0.98047126914E+02 -0.16534142631E+03  0.19346010230E+03  0.00000000000E+00 0. -1.
          1    1    1    2  501    0 -0.21812492560E+02  0.98047126914E+02  0.30162395647E+03  0.31790884707E+03  0.00000000000E+00 0.  1.
<mgrwt>
<rscale>  2 0.10044413E+03</rscale>
<asrwt>0</asrwt>
<pdfrwt beam="2">  1       21 0.28852802E-01 0.10044413E+03</pdfrwt>
<pdfrwt beam="1">  1        1 0.49819344E-01 0.10044413E+03</pdfrwt>
<totfact> 0.10198169E+04</totfact>
</mgrwt>
</event>
<event>
 4    1  0.5045766E+003  0.1345633E+03  0.7546771E-02  0.1220838E+00
          2   -1    0    0  502    0 -0.00000000000E+00  0.00000000000E+00  0.37624003595E+04  0.37624003595E+04  0.00000000000E+00 0. -1.
         21   -1    0    0  503  502  0.00000000000E+00 -0.00000000000E+00 -0.14429486363E+02  0.14429486363E+02  0.00000000000E+00 0. -1.
         21    1    1    2  503  501  0.82074119771E+02  0.10663544708E+03  0.33233070960E+03  0.35854006785E+03  0.00000000000E+00 0. -1.
          2    1    1    2  501    0 -0.82074119771E+02 -0.10663544708E+03  0.34156401636E+04  0.34182897780E+04  0.00000000000E+00 0. -1.
<mgrwt>
<rscale>  2 0.13456329E+03</rscale>
<asrwt>0</asrwt>
<pdfrwt beam="2">  1       21 0.22199240E-02 0.13456329E+03</pdfrwt>
<pdfrwt beam="1">  1        2 0.57883004E+00 0.13456329E+03</pdfrwt>
<totfact> 0.96642352E+03</totfact>
</mgrwt>
</event>
<event>
 4    1  0.5045766E+003  0.1359349E+03  0.7546771E-02  0.1218906E+00
         21   -1    0    0  501  502  0.00000000000E+00  0.00000000000E+00  0.14563685999E+02  0.14563685999E+02  0.00000000000E+00 0. -1.
          2   -1    0    0  503    0 -0.00000000000E+00 -0.00000000000E+00 -0.13245288230E+04  0.13245288230E+04  0.00000000000E+00 0. -1.
         21    1    1    2  503  502  0.60905296123E+02 -0.12152707685E+03 -0.51763476208E+03  0.53518597928E+03  0.00000000000E+00 0. -1.
          2    1    1    2  501    0 -0.60905296123E+02  0.12152707685E+03 -0.79233037493E+03  0.80390652973E+03  0.00000000000E+00 0. -1.
<mgrwt>
<rscale>  2 0.13593486E+03</rscale>
<asrwt>0</asrwt>
<pdfrwt beam="1">  1       21 0.22405669E-02 0.13593486E+03</pdfrwt>
<pdfrwt beam="2">  1        2 0.20377368E+00 0.13593486E+03</pdfrwt>
<totfact> 0.22194903E+05</totfact>
</mgrwt>
</event>
<event>
 4    1  0.5045766E+003  0.1023423E+03  0.7546771E-02  0.1275446E+00
          3   -1    0    0  503    0 -0.00000000000E+00  0.00000000000E+00  0.61961086541E+02  0.61961086541E+02  0.00000000000E+00 0.  1.
         21   -1    0    0  501  502  0.00000000000E+00 -0.00000000000E+00 -0.25131306434E+04  0.25131306434E+04  0.00000000000E+00 0.  1.
         21    1    1    2  503  502  0.20409438245E+02  0.10028658785E+03 -0.24690748220E+04  0.24711949379E+04  0.00000000000E+00 0.  1.
          3    1    1    2  501    0 -0.20409438245E+02 -0.10028658785E+03  0.17905265086E+02  0.10389679201E+03  0.00000000000E+00 0.  1.
<mgrwt>
<rscale>  2 0.10234229E+03</rscale>
<asrwt>0</asrwt>
<pdfrwt beam="2">  1       21 0.38663540E+00 0.10234229E+03</pdfrwt>
<pdfrwt beam="1">  1        3 0.95324770E-02 0.10234229E+03</pdfrwt>
<totfact> 0.47422611E+01</totfact>
</mgrwt>
</event>
<event>
 4    1  0.5045766E+003  0.1111335E+03  0.7546771E-02  0.1258485E+00
          3   -1    0    0  502    0 -0.00000000000E+00  0.00000000000E+00  0.11819599428E+02  0.11819599428E+02  0.00000000000E+00 0.  1.
         21   -1    0    0  503  502  0.00000000000E+00 -0.00000000000E+00 -0.19730482494E+04  0.19730482494E+04  0.00000000000E+00 0.  1.
         21    1    1    2  503  501  0.74320754556E+01 -0.11088471830E+03 -0.16612807922E+04  0.16649938519E+04  0.00000000000E+00 0.  1.
          3    1    1    2  501    0 -0.74320754556E+01  0.11088471830E+03 -0.29994785776E+03  0.31987399687E+03  0.00000000000E+00 0.  1.
<mgrwt>
<rscale>  2 0.11113351E+03</rscale>
<asrwt>0</asrwt>
<pdfrwt beam="2">  1       21 0.30354562E+00 0.11113351E+03</pdfrwt>
<pdfrwt beam="1">  1        3 0.18184015E-02 0.11113351E+03</pdfrwt>
<totfact> 0.18598517E+03</totfact>
</mgrwt>
</event>
<event>
 4    1  0.5045766E+003  0.1112169E+03  0.7546771E-02  0.1258333E+00
         21   -1    0    0  503  502  0.00000000000E+00  0.00000000000E+00  0.66825392504E+02  0.66825392504E+02  0.00000000000E+00 0.  1.
          2   -1    0    0  502    0 -0.00000000000E+00 -0.00000000000E+00 -0.12691770386E+04  0.12691770386E+04  0.00000000000E+00 0. -1.
         21    1    1    2  503  501  0.88059688410E+02 -0.67931542505E+02  0.16195926933E+02  0.11238999617E+03  0.00000000000E+00 0.  1.
          2    1    1    2  501    0 -0.88059688410E+02  0.67931542505E+02 -0.12185475730E+04  0.12236124349E+04  0.00000000000E+00 0. -1.
<mgrwt>
<rscale>  2 0.11121692E+03</rscale>
<asrwt>0</asrwt>
<pdfrwt beam="1">  1       21 0.10280830E-01 0.11121692E+03</pdfrwt>
<pdfrwt beam="2">  1        2 0.19525799E+00 0.11121692E+03</pdfrwt>
<totfact> 0.18482352E+04</totfact>
</mgrwt>
</event>
<event>
 4    1  0.5045766E+003  0.1044357E+03  0.7546771E-02  0.1271235E+00
         21   -1    0    0  503  502  0.00000000000E+00  0.00000000000E+00  0.24234808030E+03  0.24234808030E+03  0.00000000000E+00 0. -1.
          1   -1    0    0  502    0 -0.00000000000E+00 -0.00000000000E+00 -0.51127718753E+03  0.51127718753E+03  0.00000000000E+00 0.  1.
         21    1    1    2  503  501 -0.80267039139E+02  0.66813336317E+02  0.22538180370E+03  0.24840244951E+03  0.00000000000E+00 0. -1.
          1    1    1    2  501    0  0.80267039139E+02 -0.66813336317E+02 -0.49431091093E+03  0.50522281832E+03  0.00000000000E+00 0.  1.
<mgrwt>
<rscale>  2 0.10443572E+03</rscale>
<asrwt>0</asrwt>
<pdfrwt beam="1">  1       21 0.37284320E-01 0.10443572E+03</pdfrwt>
<pdfrwt beam="2">  1        1 0.78658029E-01 0.10443572E+03</pdfrwt>
<totfact> 0.34934935E+03</totfact>
</mgrwt>
</event>
<event>
 4    1  0.5045766E+003  0.1100754E+03  0.7546771E-02  0.1260430E+00
         -2   -1    0    0    0  501 -0.00000000000E+00  0.00000000000E+00  0.13620850310E+02  0.13620850310E+02  0.00000000000E+00 0.  1.
         21   -1    0    0  501  502  0.00000000000E+00 -0.00000000000E+00 -0.13328761927E+04  0.13328761927E+04  0.00000000000E+00 0.  1.
         21    1    1    2  503  502 -0.10847639247E+03 -0.18694154141E+02 -0.10478996266E+04  0.10536651397E+04  0.00000000000E+00 0.  1.
         -2    1    1    2    0  503  0.10847639247E+03  0.18694154141E+02 -0.27135571574E+03  0.29283190330E+03  0.00000000000E+00 0.  1.
<mgrwt>
<rscale>  2 0.11007542E+03</rscale>
<asrwt>0</asrwt>
<pdfrwt beam="2">  1       21 0.20505791E+00 0.11007542E+03</pdfrwt>
<pdfrwt beam="1">  1       -2 0.20955151E-02 0.11007542E+03</pdfrwt>
<totfact> 0.71398714E+03</totfact>
</mgrwt>
</event>
<event>
 4    1  0.5045766E+003  0.1147182E+03  0.7546771E-02  0.1252074E+00
          1   -1    0    0  503    0 -0.00000000000E+00  0.00000000000E+00  0.13655693837E+03  0.13655693837E+03  0.00000000000E+00 0.  1.
         21   -1    0    0  501  502  0.00000000000E+00 -0.00000000000E+00 -0.13332012268E+03  0.13332012268E+03  0.00000000000E+00 0. -1.
         21    1    1    2  503  502 -0.53791659278E+02  0.10132482431E+03 -0.69418561694E+02  0.13408653674E+03  0.00000000000E+00 0. -1.
          1    1    1    2  501    0  0.53791659278E+02 -0.10132482431E+03  0.72655377382E+02  0.13579052431E+03  0.00000000000E+00 0.  1.
<mgrwt>
<rscale>  2 0.11471819E+03</rscale>
<asrwt>0</asrwt>
<pdfrwt beam="2">  1       21 0.20510788E-01 0.11471819E+03</pdfrwt>
<pdfrwt beam="1">  1        1 0.21008760E-01 0.11471819E+03</pdfrwt>
<totfact> 0.56250292E+04</totfact>
</mgrwt>
</event>
<event>
 4    1  0.5045766E+003  0.1171644E+03  0.7546771E-02  0.1247850E+00
          2   -1    0    0  503    0 -0.00000000000E+00  0.00000000000E+00  0.18253531368E+04  0.18253531368E+04  0.00000000000E+00 0. -1.
         21   -1    0    0  501  502  0.00000000000E+00 -0.00000000000E+00 -0.79163469354E+01  0.79163469354E+01  0.00000000000E+00 0. -1.
         21    1    1    2  503  502  0.92351856445E+02 -0.72101524728E+02  0.70373461973E+03  0.71342127124E+03  0.00000000000E+00 0. -1.
          2    1    1    2  501    0 -0.92351856445E+02  0.72101524728E+02  0.11137021701E+04  0.11198482125E+04  0.00000000000E+00 0. -1.
<mgrwt>
<rscale>  2 0.11716439E+03</rscale>
<asrwt>0</asrwt>
<pdfrwt beam="2">  1       21 0.12179010E-02 0.11716439E+03</pdfrwt>
<pdfrwt beam="1">  1        2 0.28082322E+00 0.11716439E+03</pdfrwt>
<totfact> 0.32366540E+05</totfact>
</mgrwt>
</event>
<event>
 4    1  0.5045766E+003  0.1172978E+03  0.7546771E-02  0.1247623E+00
         21   -1    0    0  501  502  0.00000000000E+00  0.00000000000E+00  0.79478860989E+01  0.79478860989E+01  0.00000000000E+00 0. -1.
          2   -1    0    0  503    0 -0.00000000000E+00 -0.00000000000E+00 -0.19108805479E+04  0.19108805479E+04  0.00000000000E+00 0. -1.
         21    1    1    2  503  502  0.23835972176E+02  0.11485041907E+03 -0.65720556950E+03  0.66759114202E+03  0.00000000000E+00 0. -1.
          2    1    1    2  501    0 -0.23835972176E+02 -0.11485041907E+03 -0.12457270923E+04  0.12512372920E+04  0.00000000000E+00 0. -1.
<mgrwt>
<rscale>  2 0.11729779E+03</rscale>
<asrwt>0</asrwt>
<pdfrwt beam="1">  1       21 0.12227503E-02 0.11729779E+03</pdfrwt>
<pdfrwt beam="2">  1        2 0.29398196E+00 0.11729779E+03</pdfrwt>
<totfact> 0.29106474E+05</totfact>
</mgrwt>
</event>
<event>
 4    1  0.5045766E+003  0.1129275E+03  0.7546771E-02  0.1255243E+00
         -1   -1    0    0    0  501 -0.00000000000E+00  0.00000000000E+00  0.71685554549E+03  0.71685554549E+03  0.00000000000E+00 0.  1.
         21   -1    0    0  503  502  0.00000000000E+00 -0.00000000000E+00 -0.34105462677E+02  0.34105462677E+02  0.00000000000E+00 0.  1.
         21    1    1    2  503  501  0.12008267630E+02 -0.11228718387E+03  0.81670372094E+02  0.13936520309E+03  0.00000000000E+00 0.  1.
         -1    1    1    2    0  502 -0.12008267630E+02  0.11228718387E+03  0.60107971072E+03  0.61159580508E+03  0.00000000000E+00 0.  1.
<mgrwt>
<rscale>  2 0.11292746E+03</rscale>
<asrwt>0</asrwt>
<pdfrwt beam="2">  1       21 0.52469948E-02 0.11292746E+03</pdfrwt>
<pdfrwt beam="1">  1       -1 0.11028546E+00 0.11292746E+03</pdfrwt>
<totfact> 0.18758241E+04</totfact>
</mgrwt>
</event>
<event>
 4    1  0.5045766E+003  0.1548099E+03  0.7546771E-02  0.1194684E+00
         21   -1    0    0  503  502  0.00000000000E+00  0.00000000000E+00  0.16054932370E+03  0.16054932370E+03  0.00000000000E+00 0.  1.
          2   -1    0    0  502    0 -0.00000000000E+00 -0.00000000000E+00 -0.86677601774E+03  0.86677601774E+03  0.00000000000E+00 0.  1.
         21    1    1    2  503  501 -0.50062241564E+02  0.14649186561E+03  0.11422954842E+03  0.19239148747E+03  0.00000000000E+00 0.  1.
          2    1    1    2  501    0  0.50062241564E+02 -0.14649186561E+03 -0.82045624245E+03  0.83493385397E+03  0.00000000000E+00 0.  1.
<mgrwt>
<rscale>  2 0.15480987E+03</rscale>
<asrwt>0</asrwt>
<pdfrwt beam="1">  1       21 0.24699897E-01 0.15480987E+03</pdfrwt>
<pdfrwt beam="2">  1        2 0.13335015E+00 0.15480987E+03</pdfrwt>
<totfact> 0.63632082E+03</totfact>
</mgrwt>
</event>
<event>
 4    1  0.5045766E+003  0.1371475E+03  0.7546771E-02  0.1217220E+00
          2   -1    0    0  502    0 -0.00000000000E+00  0.00000000000E+00  0.46629634836E+03  0.46629634836E+03  0.00000000000E+00 0.  1.
         21   -1    0    0  503  502  0.00000000000E+00 -0.00000000000E+00 -0.81328906256E+02  0.81328906256E+02  0.00000000000E+00 0.  1.
         21    1    1    2  503  501 -0.13520881159E+03 -0.22978642216E+02 -0.19067666644E+01  0.13716076877E+03  0.00000000000E+00 0.  1.
          2    1    1    2  501    0  0.13520881159E+03  0.22978642216E+02  0.38687420877E+03  0.41046448585E+03  0.00000000000E+00 0.  1.
<mgrwt>
<rscale>  2 0.13714751E+03</rscale>
<asrwt>0</asrwt>
<pdfrwt beam="2">  1       21 0.12512140E-01 0.13714751E+03</pdfrwt>
<pdfrwt beam="1">  1        2 0.71737898E-01 0.13714751E+03</pdfrwt>
<totfact> 0.45866916E+04</totfact>
</mgrwt>
</event>
<event>
 4    1  0.5045766E+003  0.1428658E+03  0.7546771E-02  0.1209524E+00
         21   -1    0    0  501  502  0.00000000000E+00  0.00000000000E+00  0.18175775745E+04  0.18175775745E+04  0.00000000000E+00 0. -1.
          3   -1    0    0  503    0 -0.00000000000E+00 -0.00000000000E+00 -0.16362436243E+02  0.16362436243E+02  0.00000000000E+00 0.  1.
         21    1    1    2  503  502 -0.14256724226E+03 -0.92315597287E+01  0.14141904305E+04  0.14213884810E+04  0.00000000000E+00 0. -1.
          3    1    1    2  501    0  0.14256724226E+03  0.92315597287E+01  0.38702470773E+03  0.41255152969E+03  0.00000000000E+00 0.  1.
<mgrwt>
<rscale>  2 0.14286581E+03</rscale>
<asrwt>0</asrwt>
<pdfrwt beam="1">  1       21 0.27962716E+00 0.14286581E+03</pdfrwt>
<pdfrwt beam="2">  1        3 0.25172993E-02 0.14286581E+03</pdfrwt>
<totfact> 0.15111120E+03</totfact>
</mgrwt>
</event>
<event>
 4    1  0.5045766E+003  0.1284841E+03  0.7546771E-02  0.1229723E+00
         21   -1    0    0  501  502  0.00000000000E+00  0.00000000000E+00  0.28550347820E+02  0.28550347820E+02  0.00000000000E+00 0.  1.
          1   -1    0    0  503    0 -0.00000000000E+00 -0.00000000000E+00 -0.19768567198E+04  0.19768567198E+04  0.00000000000E+00 0.  1.
         21    1    1    2  503  502 -0.12649712929E+03 -0.22508803947E+02 -0.13074353648E+03  0.18330859856E+03  0.00000000000E+00 0.  1.
          1    1    1    2  501    0  0.12649712929E+03  0.22508803947E+02 -0.18175628355E+04  0.18220984691E+04  0.00000000000E+00 0.  1.
<mgrwt>
<rscale>  2 0.12848412E+03</rscale>
<asrwt>0</asrwt>
<pdfrwt beam="1">  1       21 0.43923597E-02 0.12848412E+03</pdfrwt>
<pdfrwt beam="2">  1        1 0.30413190E+00 0.12848412E+03</pdfrwt>
<totfact> 0.13709824E+04</totfact>
</mgrwt>
</event>
<event>
 4    1  0.5045766E+003  0.1145054E+03  0.7546771E-02  0.1252447E+00
         -3   -1    0    0    0  501 -0.00000000000E+00  0.00000000000E+00  0.51695814506E+02  0.51695814506E+02  0.00000000000E+00 0.  1.
         21   -1    0    0  501  502  0.00000000000E+00 -0.00000000000E+00 -0.83464463679E+03  0.83464463679E+03  0.00000000000E+00 0. -1.
         21    1    1    2  503  502 -0.11395758350E+03 -0.11187733277E+02 -0.76122947143E+03  0.76979335174E+03  0.00000000000E+00 0. -1.
         -3    1    1    2    0  503  0.11395758350E+03  0.11187733277E+02 -0.21719350859E+02  0.11654709956E+03  0.00000000000E+00 0.  1.
<mgrwt>
<rscale>  2 0.11450544E+03</rscale>
<asrwt>0</asrwt>
<pdfrwt beam="2">  1       21 0.12840686E+00 0.11450544E+03</pdfrwt>
<pdfrwt beam="1">  1       -3 0.79532025E-02 0.11450544E+03</pdfrwt>
<totfact> 0.23722310E+03</totfact>
</mgrwt>
</event>
<event>
 4    1  0.5045766E+003  0.1042831E+03  0.7546771E-02  0.1271539E+00
         21   -1    0    0  501  502  0.00000000000E+00  0.00000000000E+00  0.69808269043E+03  0.69808269043E+03  0.00000000000E+00 0. -1.
          2   -1    0    0  503    0 -0.00000000000E+00 -0.00000000000E+00 -0.23194986983E+02  0.23194986983E+02  0.00000000000E+00 0.  1.
         21    1    1    2  503  502  0.10195689882E+03 -0.21903094329E+02  0.54410457501E+03  0.55400789102E+03  0.00000000000E+00 0. -1.
          2    1    1    2  501    0 -0.10195689882E+03  0.21903094329E+02  0.13078312844E+03  0.16726978640E+03  0.00000000000E+00 0.  1.
<mgrwt>
<rscale>  2 0.10428305E+03</rscale>
<asrwt>0</asrwt>
<pdfrwt beam="1">  1       21 0.10739732E+00 0.10428305E+03</pdfrwt>
<pdfrwt beam="2">  1        2 0.35684601E-02 0.10428305E+03</pdfrwt>
<totfact> 0.20554898E+04</totfact>
</mgrwt>
</event>
<event>
 4    1  0.5045766E+003  0.1044406E+03  0.7546771E-02  0.1271226E+00
          1   -1    0    0  503    0 -0.00000000000E+00  0.00000000000E+00  0.20311774322E+04  0.20311774322E+04  0.00000000000E+00 0. -1.
         21   -1    0    0  501  502  0.00000000000E+00 -0.00000000000E+00 -0.13406278447E+02  0.13406278447E+02  0.00000000000E+00 0. -1.
         21    1    1    2  503  502  0.97390373682E+02  0.37722053260E+02  0.21740047373E+03  0.24118624373E+03  0.00000000000E+00 0. -1.
          1    1    1    2  501    0 -0.97390373682E+02 -0.37722053260E+02  0.18003706800E+04  0.18033974669E+04  0.00000000000E+00 0. -1.
<mgrwt>
<rscale>  2 0.10444060E+03</rscale>
<asrwt>0</asrwt>
<pdfrwt beam="2">  1       21 0.20625060E-02 0.10444060E+03</pdfrwt>
<pdfrwt beam="1">  1        1 0.31248859E+00 0.10444060E+03</pdfrwt>
<totfact> 0.44007410E+04</totfact>
</mgrwt>
</event>
<event>
 4    1  0.5045766E+003  0.1013555E+03  0.7546771E-02  0.1277471E+00
          2   -1    0    0  503    0 -0.00000000000E+00  0.00000000000E+00  0.77692700863E+03  0.77692700863E+03  0.00000000000E+00 0.  1.
         21   -1    0    0  501  502  0.00000000000E+00 -0.00000000000E+00 -0.13403357147E+02  0.13403357147E+02  0.00000000000E+00 0. -1.
         21    1    1    2  503  502 -0.85573040064E+02  0.54315716283E+02  0.33586302799E+03  0.35082319734E+03  0.00000000000E+00 0. -1.
          2    1    1    2  501    0  0.85573040064E+02 -0.54315716283E+02  0.42766062349E+03  0.43950716843E+03  0.00000000000E+00 0.  1.
<mgrwt>
<rscale>  2 0.10135552E+03</rscale>
<asrwt>0</asrwt>
<pdfrwt beam="2">  1       21 0.20620556E-02 0.10135552E+03</pdfrwt>
<pdfrwt beam="1">  1        2 0.11952720E+00 0.10135552E+03</pdfrwt>
<totfact> 0.52675617E+05</totfact>
</mgrwt>
</event>
<event>
 4    1  0.5045766E+003  0.1126281E+03  0.7546771E-02  0.1255779E+00
          1   -1    0    0  503    0 -0.00000000000E+00  0.00000000000E+00  0.50042196772E+03  0.50042196772E+03  0.00000000000E+00 0.  1.
         21   -1    0    0  501  502  0.00000000000E+00 -0.00000000000E+00 -0.55657707882E+02  0.55657707882E+02  0.00000000000E+00 0. -1.
         21    1    1    2  503  502  0.81432301939E+02  0.77806552365E+02  0.17204619911E+02  0.11393453531E+03  0.00000000000E+00 0. -1.
          1    1    1    2  501    0 -0.81432301939E+02 -0.77806552365E+02  0.42755963993E+03  0.44214514029E+03  0.00000000000E+00 0.  1.
<mgrwt>
<rscale>  2 0.11262806E+03</rscale>
<asrwt>0</asrwt>
<pdfrwt beam="2">  1       21 0.85627246E-02 0.11262806E+03</pdfrwt>
<pdfrwt beam="1">  1        1 0.76987992E-01 0.11262806E+03</pdfrwt>
<totfact> 0.52933735E+04</totfact>
</mgrwt>
</event>
<event>
 4    1  0.5045766E+003  0.1202686E+03  0.7546771E-02  0.1242655E+00
          4   -1    0    0  503    0 -0.00000000000E+00  0.00000000000E+00  0.31330940824E+03  0.31330940824E+03  0.00000000000E+00 0.  1.
         21   -1    0    0  501  502  0.00000000000E+00 -0.00000000000E+00 -0.55049296784E+02  0.55049296784E+02  0.00000000000E+00 0.  1.
         21    1    1    2  503  502  0.11953589305E+03  0.13255592155E+02  0.55147579263E+02  0.13230947036E+03  0.00000000000E+00 0.  1.
          4    1    1    2  501    0 -0.11953589305E+03 -0.13255592155E+02  0.20311253220E+03  0.23604923466E+03  0.00000000000E+00 0.  1.
<mgrwt>
<rscale>  2 0.12026862E+03</rscale>
<asrwt>0</asrwt>
<pdfrwt beam="2">  1       21 0.84691228E-02 0.12026862E+03</pdfrwt>
<pdfrwt beam="1">  1        4 0.48201446E-01 0.12026862E+03</pdfrwt>
<totfact> 0.18265561E+04</totfact>
</mgrwt>
</event>
<event>
 4    1  0.5045766E+003  0.1093469E+03  0.7546771E-02  0.1261784E+00
          2   -1    0    0  503    0 -0.00000000000E+00  0.00000000000E+00  0.37074268060E+03  0.37074268060E+03  0.00000000000E+00 0. -1.
         21   -1    0    0  501  502  0.00000000000E+00 -0.00000000000E+00 -0.64981872814E+02  0.64981872814E+02  0.00000000000E+00 0. -1.
         21    1    1    2  503  502 -0.88264513279E+02  0.64545526302E+02 -0.17397225435E+01  0.10936076035E+03  0.00000000000E+00 0. -1.
          2    1    1    2  501    0  0.88264513279E+02 -0.64545526302E+02  0.30750053033E+03  0.32636379307E+03  0.00000000000E+00 0. -1.
<mgrwt>
<rscale>  2 0.10934692E+03</rscale>
<asrwt>0</asrwt>
<pdfrwt beam="2">  1       21 0.99972114E-02 0.10934692E+03</pdfrwt>
<pdfrwt beam="1">  1        2 0.57037334E-01 0.10934692E+03</pdfrwt>
<totfact> 0.86668209E+04</totfact>
</mgrwt>
</event>
<event>
 4    1  0.5045766E+003  0.1018010E+03  0.7546771E-02  0.1276554E+00
          4   -1    0    0  503    0 -0.00000000000E+00  0.00000000000E+00  0.69500593412E+01  0.69500593412E+01  0.00000000000E+00 0. -1.
         21   -1    0    0  501  502  0.00000000000E+00 -0.00000000000E+00 -0.15416760652E+04  0.15416760652E+04  0.00000000000E+00 0. -1.
         21    1    1    2  503  502 -0.75865993898E+02  0.67880778904E+02 -0.62715937442E+03  0.63536786989E+03  0.00000000000E+00 0. -1.
          4    1    1    2  501    0  0.75865993898E+02 -0.67880778904E+02 -0.90756663148E+03  0.91325825469E+03  0.00000000000E+00 0. -1.
<mgrwt>
<rscale>  2 0.10180103E+03</rscale>
<asrwt>0</asrwt>
<pdfrwt beam="2">  1       21 0.23718112E+00 0.10180103E+03</pdfrwt>
<pdfrwt beam="1">  1        4 0.10692391E-02 0.10180103E+03</pdfrwt>
<totfact> 0.88843286E+03</totfact>
</mgrwt>
</event>
<event>
 4    1  0.5045766E+003  0.1015310E+03  0.7546771E-02  0.1277109E+00
         21   -1    0    0  501  502  0.00000000000E+00  0.00000000000E+00  0.11759777761E+04  0.11759777761E+04  0.00000000000E+00 0.  1.
          2   -1    0    0  503    0 -0.00000000000E+00 -0.00000000000E+00 -0.75046309770E+03  0.75046309770E+03  0.00000000000E+00 0. -1.
         21    1    1    2  503  502 -0.66182308708E+02 -0.76996383325E+02  0.11703357090E+04  0.11747315493E+04  0.00000000000E+00 0.  1.
          2    1    1    2  501    0  0.66182308708E+02  0.76996383325E+02 -0.74482103059E+03  0.75170932457E+03  0.00000000000E+00 0. -1.
<mgrwt>
<rscale>  2 0.10153099E+03</rscale>
<asrwt>0</asrwt>
<pdfrwt beam="1">  1       21 0.18091966E+00 0.10153099E+03</pdfrwt>
<pdfrwt beam="2">  1        2 0.11545586E+00 0.10153099E+03</pdfrwt>
<totfact> 0.98524373E+01</totfact>
</mgrwt>
</event>
<event>
 4    1  0.5045766E+003  0.1028709E+03  0.7546771E-02  0.1274372E+00
          1   -1    0    0  503    0 -0.00000000000E+00  0.00000000000E+00  0.15504571774E+04  0.15504571774E+04  0.00000000000E+00 0. -1.
         21   -1    0    0  501  502  0.00000000000E+00 -0.00000000000E+00 -0.13252961788E+02  0.13252961788E+02  0.00000000000E+00 0.  1.
         21    1    1    2  503  502  0.10284206227E+03 -0.24343347266E+01  0.22410629979E+03  0.24658882652E+03  0.00000000000E+00 0.  1.
          1    1    1    2  501    0 -0.10284206227E+03  0.24343347266E+01  0.13130979158E+04  0.13171213127E+04  0.00000000000E+00 0. -1.
<mgrwt>
<rscale>  2 0.10287087E+03</rscale>
<asrwt>0</asrwt>
<pdfrwt beam="2">  1       21 0.20389184E-02 0.10287087E+03</pdfrwt>
<pdfrwt beam="1">  1        1 0.23853173E+00 0.10287087E+03</pdfrwt>
<totfact> 0.90185906E+04</totfact>
</mgrwt>
</event>
<event>
 4    1  0.5045766E+003  0.1508672E+03  0.7546771E-02  0.1199411E+00
         21   -1    0    0  503  502  0.00000000000E+00  0.00000000000E+00  0.11982073059E+03  0.11982073059E+03  0.00000000000E+00 0. -1.
         -3   -1    0    0    0  501 -0.00000000000E+00 -0.00000000000E+00 -0.24183804090E+03  0.24183804090E+03  0.00000000000E+00 0. -1.
         21    1    1    2  503  501  0.14923916120E+03 -0.22104143154E+02  0.22745500283E+02  0.15257220639E+03  0.00000000000E+00 0. -1.
         -3    1    1    2    0  502 -0.14923916120E+03  0.22104143154E+02 -0.14476281059E+03  0.20908656511E+03  0.00000000000E+00 0. -1.
<mgrwt>
<rscale>  2 0.15086723E+03</rscale>
<asrwt>0</asrwt>
<pdfrwt beam="1">  1       21 0.18433959E-01 0.15086723E+03</pdfrwt>
<pdfrwt beam="2">  1       -3 0.37205852E-01 0.15086723E+03</pdfrwt>
<totfact> 0.93695783E+03</totfact>
</mgrwt>
</event>
<event>
 4    1  0.5045766E+003  0.1174326E+03  0.7546771E-02  0.1247394E+00
         21   -1    0    0  501  502  0.00000000000E+00  0.00000000000E+00  0.33213660919E+02  0.33213660919E+02  0.00000000000E+00 0. -1.
          2   -1    0    0  503    0 -0.00000000000E+00 -0.00000000000E+00 -0.69404077480E+03  0.69404077480E+03  0.00000000000E+00 0.  1.
         21    1    1    2  503  502  0.10183066596E+03  0.58488671579E+02 -0.99930104289E+02  0.15419609261E+03  0.00000000000E+00 0. -1.
          2    1    1    2  501    0 -0.10183066596E+03 -0.58488671579E+02 -0.56089700959E+03  0.57305834311E+03  0.00000000000E+00 0.  1.
<mgrwt>
<rscale>  2 0.11743257E+03</rscale>
<asrwt>0</asrwt>
<pdfrwt beam="1">  1       21 0.51097941E-02 0.11743257E+03</pdfrwt>
<pdfrwt beam="2">  1        2 0.10677550E+00 0.11743257E+03</pdfrwt>
<totfact> 0.13706690E+05</totfact>
</mgrwt>
</event>
<event>
 4    1  0.5045766E+003  0.1076362E+03  0.7546771E-02  0.1265011E+00
          1   -1    0    0  503    0 -0.00000000000E+00  0.00000000000E+00  0.33752743460E+03  0.33752743460E+03  0.00000000000E+00 0. -1.
         21   -1    0    0  501  502  0.00000000000E+00 -0.00000000000E+00 -0.82342336125E+02  0.82342336125E+02  0.00000000000E+00 0. -1.
         21    1    1    2  503  502  0.62910103978E+02 -0.87337705179E+02 -0.32722035075E+02  0.11250016670E+03  0.00000000000E+00 0. -1.
          1    1    1    2  501    0 -0.62910103978E+02  0.87337705179E+02  0.28790713355E+03  0.30736960402E+03  0.00000000000E+00 0. -1.
<mgrwt>
<rscale>  2 0.10763622E+03</rscale>
<asrwt>0</asrwt>
<pdfrwt beam="2">  1       21 0.12668052E-01 0.10763622E+03</pdfrwt>
<pdfrwt beam="1">  1        1 0.51927297E-01 0.10763622E+03</pdfrwt>
<totfact> 0.43803843E+04</totfact>
</mgrwt>
</event>
<event>
 4    1  0.5045766E+003  0.1267020E+03  0.7546771E-02  0.1232433E+00
         21   -1    0    0  501  502  0.00000000000E+00  0.00000000000E+00  0.18372923716E+03  0.18372923716E+03  0.00000000000E+00 0.  1.
          1   -1    0    0  503    0 -0.00000000000E+00 -0.00000000000E+00 -0.93447289043E+02  0.93447289043E+02  0.00000000000E+00 0. -1.
         21    1    1    2  503  502 -0.10261562336E+03  0.74319757258E+02  0.80468197954E+02  0.15009504774E+03  0.00000000000E+00 0.  1.
          1    1    1    2  501    0  0.10261562336E+03 -0.74319757258E+02  0.98137501660E+01  0.12708147846E+03  0.00000000000E+00 0. -1.
<mgrwt>
<rscale>  2 0.12670198E+03</rscale>
<asrwt>0</asrwt>
<pdfrwt beam="1">  1       21 0.28266036E-01 0.12670198E+03</pdfrwt>
<pdfrwt beam="2">  1        1 0.14376506E-01 0.12670198E+03</pdfrwt>
<totfact> 0.50108234E+04</totfact>
</mgrwt>
</event>
<event>
 4    1  0.5045766E+003  0.1473607E+03  0.7546771E-02  0.1203754E+00
          1   -1    0    0  502    0 -0.00000000000E+00  0.00000000000E+00  0.23310505152E+04  0.23310505152E+04  0.00000000000E+00 0.  1.
         21   -1    0    0  503  502  0.00000000000E+00 -0.00000000000E+00 -0.11641953900E+02  0.11641953900E+02  0.00000000000E+00 0.  1.
         21    1    1    2  503  501 -0.21215203190E+02 -0.14582558350E+03  0.63609398354E+03  0.65294007501E+03  0.00000000000E+00 0.  1.
          1    1    1    2  501    0  0.21215203190E+02  0.14582558350E+03  0.16833145777E+04  0.16897523941E+04  0.00000000000E+00 0.  1.
<mgrwt>
<rscale>  2 0.14736073E+03</rscale>
<asrwt>0</asrwt>
<pdfrwt beam="2">  1       21 0.17910717E-02 0.14736073E+03</pdfrwt>
<pdfrwt beam="1">  1        1 0.35862279E+00 0.14736073E+03</pdfrwt>
<totfact> 0.35174814E+04</totfact>
</mgrwt>
</event>
<event>
 4    1  0.5045766E+003  0.1072825E+03  0.7546771E-02  0.1265687E+00
          2   -1    0    0  503    0 -0.00000000000E+00  0.00000000000E+00  0.64131851301E+03  0.64131851301E+03  0.00000000000E+00 0.  1.
         21   -1    0    0  501  502  0.00000000000E+00 -0.00000000000E+00 -0.66849649804E+02  0.66849649804E+02  0.00000000000E+00 0.  1.
         21    1    1    2  503  502  0.72571282288E+02 -0.79012311345E+02 -0.15613396606E+02  0.10841270456E+03  0.00000000000E+00 0.  1.
          2    1    1    2  501    0 -0.72571282288E+02  0.79012311345E+02  0.59008225982E+03  0.59975545825E+03  0.00000000000E+00 0.  1.
<mgrwt>
<rscale>  2 0.10728251E+03</rscale>
<asrwt>0</asrwt>
<pdfrwt beam="2">  1       21 0.10284562E-01 0.10728251E+03</pdfrwt>
<pdfrwt beam="1">  1        2 0.98664382E-01 0.10728251E+03</pdfrwt>
<totfact> 0.45388984E+04</totfact>
</mgrwt>
</event>
<event>
 4    1  0.5045766E+003  0.1156781E+03  0.7546771E-02  0.1250402E+00
         21   -1    0    0  503  502  0.00000000000E+00  0.00000000000E+00  0.17227690820E+02  0.17227690820E+02  0.00000000000E+00 0. -1.
          2   -1    0    0  502    0 -0.00000000000E+00 -0.00000000000E+00 -0.10233700511E+04  0.10233700511E+04  0.00000000000E+00 0. -1.
         21    1    1    2  503  501  0.11370518588E+03 -0.21273109986E+02 -0.24764779525E+03  0.27333284654E+03  0.00000000000E+00 0. -1.
          2    1    1    2  501    0 -0.11370518588E+03  0.21273109986E+02 -0.75849456504E+03  0.76726489540E+03  0.00000000000E+00 0. -1.
<mgrwt>
<rscale>  2 0.11567806E+03</rscale>
<asrwt>0</asrwt>
<pdfrwt beam="1">  1       21 0.26504140E-02 0.11567806E+03</pdfrwt>
<pdfrwt beam="2">  1        2 0.15744154E+00 0.11567806E+03</pdfrwt>
<totfact> 0.24760144E+05</totfact>
</mgrwt>
</event>
<event>
 4    1  0.5045766E+003  0.1807922E+03  0.7546771E-02  0.1167039E+00
         -3   -1    0    0    0  501 -0.00000000000E+00  0.00000000000E+00  0.54507771186E+03  0.54507771186E+03  0.00000000000E+00 0.  1.
         21   -1    0    0  501  502  0.00000000000E+00 -0.00000000000E+00 -0.66263761580E+02  0.66263761580E+02  0.00000000000E+00 0.  1.
         21    1    1    2  503  502  0.10976177904E+03 -0.14365993786E+03  0.14516851753E+03  0.23186143354E+03  0.00000000000E+00 0.  1.
         -3    1    1    2    0  503 -0.10976177904E+03  0.14365993786E+03  0.33364543275E+03  0.37948003989E+03  0.00000000000E+00 0.  1.
<mgrwt>
<rscale>  2 0.18079222E+03</rscale>
<asrwt>0</asrwt>
<pdfrwt beam="2">  1       21 0.10194425E-01 0.18079222E+03</pdfrwt>
<pdfrwt beam="1">  1       -3 0.83858107E-01 0.18079222E+03</pdfrwt>
<totfact> 0.51989741E+03</totfact>
</mgrwt>
</event>
<event>
 4    1  0.5045766E+003  0.1006663E+03  0.7546771E-02  0.1278901E+00
          1   -1    0    0  503    0 -0.00000000000E+00  0.00000000000E+00  0.13562169497E+04  0.13562169497E+04  0.00000000000E+00 0.  1.
         21   -1    0    0  501  502  0.00000000000E+00 -0.00000000000E+00 -0.97624188780E+01  0.97624188780E+01  0.00000000000E+00 0.  1.
         21    1    1    2  503  502  0.62940526757E+02  0.78563316153E+02  0.34240915097E+03  0.35690016983E+03  0.00000000000E+00 0.  1.
          1    1    1    2  501    0 -0.62940526757E+02 -0.78563316153E+02  0.10040453799E+04  0.10090791988E+04  0.00000000000E+00 0.  1.
<mgrwt>
<rscale>  2 0.10066630E+03</rscale>
<asrwt>0</asrwt>
<pdfrwt beam="2">  1       21 0.15019117E-02 0.10066630E+03</pdfrwt>
<pdfrwt beam="1">  1        1 0.20864861E+00 0.10066630E+03</pdfrwt>
<totfact> 0.19600339E+05</totfact>
</mgrwt>
</event>
<event>
 4    1  0.5045766E+003  0.1026583E+03  0.7546771E-02  0.1274803E+00
         21   -1    0    0  501  502  0.00000000000E+00  0.00000000000E+00  0.14275520295E+02  0.14275520295E+02  0.00000000000E+00 0. -1.
          1   -1    0    0  503    0 -0.00000000000E+00 -0.00000000000E+00 -0.14583081416E+04  0.14583081416E+04  0.00000000000E+00 0.  1.
         21    1    1    2  503  502  0.55155722650E+02  0.86582738424E+02 -0.20463243975E+03  0.22893920532E+03  0.00000000000E+00 0. -1.
          1    1    1    2  501    0 -0.55155722650E+02 -0.86582738424E+02 -0.12394001816E+04  0.12436444566E+04  0.00000000000E+00 0.  1.
<mgrwt>
<rscale>  2 0.10265829E+03</rscale>
<asrwt>0</asrwt>
<pdfrwt beam="1">  1       21 0.21962344E-02 0.10265829E+03</pdfrwt>
<pdfrwt beam="2">  1        1 0.22435505E+00 0.10265829E+03</pdfrwt>
<totfact> 0.91683841E+04</totfact>
</mgrwt>
</event>
<event>
 4    1  0.5045766E+003  0.1273137E+03  0.7546771E-02  0.1231497E+00
          2   -1    0    0  502    0 -0.00000000000E+00  0.00000000000E+00  0.10122707972E+04  0.10122707972E+04  0.00000000000E+00 0.  1.
         21   -1    0    0  503  502  0.00000000000E+00 -0.00000000000E+00 -0.23960229161E+02  0.23960229161E+02  0.00000000000E+00 0. -1.
         21    1    1    2  503  501 -0.59721564439E+02 -0.11243711852E+03  0.19574866528E+03  0.23350869543E+03  0.00000000000E+00 0. -1.
          2    1    1    2  501    0  0.59721564439E+02  0.11243711852E+03  0.79256190273E+03  0.80272233091E+03  0.00000000000E+00 0.  1.
<mgrwt>
<rscale>  2 0.12731367E+03</rscale>
<asrwt>0</asrwt>
<pdfrwt beam="2">  1       21 0.36861899E-02 0.12731367E+03</pdfrwt>
<pdfrwt beam="1">  1        2 0.15573394E+00 0.12731367E+03</pdfrwt>
<totfact> 0.14669220E+05</totfact>
</mgrwt>
</event>
<event>
 4    1  0.5045766E+003  0.1086617E+03  0.7546771E-02  0.1263068E+00
         21   -1    0    0  503  502  0.00000000000E+00  0.00000000000E+00  0.39124117986E+03  0.39124117986E+03  0.00000000000E+00 0. -1.
          2   -1    0    0  502    0 -0.00000000000E+00 -0.00000000000E+00 -0.19196731971E+03  0.19196731971E+03  0.00000000000E+00 0.  1.
         21    1    1    2  503  501  0.10865662524E+03 -0.10496680402E+01  0.36734006059E+03  0.38307451511E+03  0.00000000000E+00 0. -1.
          2    1    1    2  501    0 -0.10865662524E+03  0.10496680402E+01 -0.16806620043E+03  0.20013398447E+03  0.00000000000E+00 0.  1.
<mgrwt>
<rscale>  2 0.10866170E+03</rscale>
<asrwt>0</asrwt>
<pdfrwt beam="1">  1       21 0.60190950E-01 0.10866170E+03</pdfrwt>
<pdfrwt beam="2">  1        2 0.29533434E-01 0.10866170E+03</pdfrwt>
<totfact> 0.58029866E+03</totfact>
</mgrwt>
</event>
<event>
 4    1  0.5045766E+003  0.1034711E+03  0.7546771E-02  0.1273161E+00
         21   -1    0    0  501  502  0.00000000000E+00  0.00000000000E+00  0.37742031463E+02  0.37742031463E+02  0.00000000000E+00 0.  1.
          2   -1    0    0  503    0 -0.00000000000E+00 -0.00000000000E+00 -0.47208403776E+03  0.47208403776E+03  0.00000000000E+00 0. -1.
         21    1    1    2  503  502 -0.17786851458E+02  0.10193085444E+03 -0.56128932516E+02  0.11771460503E+03  0.00000000000E+00 0.  1.
          2    1    1    2  501    0  0.17786851458E+02 -0.10193085444E+03 -0.37821307378E+03  0.39211146419E+03  0.00000000000E+00 0. -1.
<mgrwt>
<rscale>  2 0.10347111E+03</rscale>
<asrwt>0</asrwt>
<pdfrwt beam="1">  1       21 0.58064669E-02 0.10347111E+03</pdfrwt>
<pdfrwt beam="2">  1        2 0.72628307E-01 0.10347111E+03</pdfrwt>
<totfact> 0.16944086E+05</totfact>
</mgrwt>
</event>
<event>
 4    1  0.5045766E+003  0.1147404E+03  0.7546771E-02  0.1252035E+00
          4   -1    0    0  503    0 -0.00000000000E+00  0.00000000000E+00  0.10327225769E+04  0.10327225769E+04  0.00000000000E+00 0. -1.
         21   -1    0    0  501  502  0.00000000000E+00 -0.00000000000E+00 -0.63865809564E+02  0.63865809564E+02  0.00000000000E+00 0. -1.
         21    1    1    2  503  502  0.88878274805E+01  0.11439561938E+03 -0.61006471414E+01  0.11490243299E+03  0.00000000000E+00 0. -1.
          4    1    1    2  501    0 -0.88878274805E+01 -0.11439561938E+03  0.97495741447E+03  0.98168595347E+03  0.00000000000E+00 0. -1.
<mgrwt>
<rscale>  2 0.11474036E+03</rscale>
<asrwt>0</asrwt>
<pdfrwt beam="2">  1       21 0.98255100E-02 0.11474036E+03</pdfrwt>
<pdfrwt beam="1">  1        4 0.15888038E+00 0.11474036E+03</pdfrwt>
<totfact> 0.95095805E+02</totfact>
</mgrwt>
</event>
<event>
 4    1  0.5045766E+003  0.1130666E+03  0.7546771E-02  0.1254994E+00
         21   -1    0    0  501  502  0.00000000000E+00  0.00000000000E+00  0.60259747590E+02  0.60259747590E+02  0.00000000000E+00 0.  1.
          2   -1    0    0  503    0 -0.00000000000E+00 -0.00000000000E+00 -0.26693102081E+03  0.26693102081E+03  0.00000000000E+00 0. -1.
         21    1    1    2  503  502  0.13079508177E+02 -0.11230752187E+03 -0.29223380742E+02  0.11678210045E+03  0.00000000000E+00 0.  1.
          2    1    1    2  501    0 -0.13079508177E+02  0.11230752187E+03 -0.17744789248E+03  0.21040866795E+03  0.00000000000E+00 0. -1.
<mgrwt>
<rscale>  2 0.11306659E+03</rscale>
<asrwt>0</asrwt>
<pdfrwt beam="1">  1       21 0.92707304E-02 0.11306659E+03</pdfrwt>
<pdfrwt beam="2">  1        2 0.41066311E-01 0.11306659E+03</pdfrwt>
<totfact> 0.13984733E+05</totfact>
</mgrwt>
</event>
<event>
 4    1  0.5045766E+003  0.1527200E+03  0.7546771E-02  0.1197170E+00
          3   -1    0    0  503    0 -0.00000000000E+00  0.00000000000E+00  0.34719425940E+03  0.34719425940E+03  0.00000000000E+00 0.  1.
         21   -1    0    0  501  502  0.00000000000E+00 -0.00000000000E+00 -0.95687495105E+02  0.95687495105E+02  0.00000000000E+00 0.  1.
         21    1    1    2  503  502 -0.14646413994E+03  0.43262617854E+02  0.48790399324E+01  0.15279791694E+03  0.00000000000E+00 0.  1.
          3    1    1    2  501    0  0.14646413994E+03 -0.43262617854E+02  0.24662772436E+03  0.29008383756E+03  0.00000000000E+00 0.  1.
<mgrwt>
<rscale>  2 0.15272000E+03</rscale>
<asrwt>0</asrwt>
<pdfrwt beam="2">  1       21 0.14721153E-01 0.15272000E+03</pdfrwt>
<pdfrwt beam="1">  1        3 0.53414501E-01 0.15272000E+03</pdfrwt>
<totfact> 0.69478030E+03</totfact>
</mgrwt>
</event>
<event>
 4    1  0.5045766E+003  0.1639288E+03  0.7546771E-02  0.1184331E+00
          1   -1    0    0  503    0 -0.00000000000E+00  0.00000000000E+00  0.56405826303E+03  0.56405826303E+03  0.00000000000E+00 0.  1.
         21   -1    0    0  501  502  0.00000000000E+00 -0.00000000000E+00 -0.10898443861E+03  0.10898443861E+03  0.00000000000E+00 0.  1.
         21    1    1    2  503  502 -0.95463952471E+01 -0.16365060053E+03 -0.24934506691E+02  0.16581430077E+03  0.00000000000E+00 0.  1.
          1    1    1    2  501    0  0.95463952471E+01  0.16365060053E+03  0.48000833111E+03  0.50722840087E+03  0.00000000000E+00 0.  1.
<mgrwt>
<rscale>  2 0.16392880E+03</rscale>
<asrwt>0</asrwt>
<pdfrwt beam="2">  1       21 0.16766837E-01 0.16392880E+03</pdfrwt>
<pdfrwt beam="1">  1        1 0.86778192E-01 0.16392880E+03</pdfrwt>
<totfact> 0.13669174E+04</totfact>
</mgrwt>
</event>
<event>
 4    1  0.5045766E+003  0.1026799E+03  0.7546771E-02  0.1274759E+00
         -4   -1    0    0    0  501 -0.00000000000E+00  0.00000000000E+00  0.11987576542E+03  0.11987576542E+03  0.00000000000E+00 0.  1.
         21   -1    0    0  501  502  0.00000000000E+00 -0.00000000000E+00 -0.14795186140E+03  0.14795186140E+03  0.00000000000E+00 0.  1.
         21    1    1    2  503  502  0.98254209031E+02  0.29820752830E+02 -0.99317559705E+02  0.14285357734E+03  0.00000000000E+00 0.  1.
         -4    1    1    2    0  503 -0.98254209031E+02 -0.29820752830E+02  0.71241463727E+02  0.12497404949E+03  0.00000000000E+00 0.  1.
<mgrwt>
<rscale>  2 0.10267992E+03</rscale>
<asrwt>0</asrwt>
<pdfrwt beam="2">  1       21 0.22761825E-01 0.10267992E+03</pdfrwt>
<pdfrwt beam="1">  1       -4 0.18442426E-01 0.10267992E+03</pdfrwt>
<totfact> 0.18759023E+04</totfact>
</mgrwt>
</event>
<event>
 4    1  0.5045766E+003  0.1459843E+03  0.7546771E-02  0.1205496E+00
         21   -1    0    0  503  502  0.00000000000E+00  0.00000000000E+00  0.68047871680E+02  0.68047871680E+02  0.00000000000E+00 0. -1.
          2   -1    0    0  502    0 -0.00000000000E+00 -0.00000000000E+00 -0.86666563424E+03  0.86666563424E+03  0.00000000000E+00 0.  1.
         21    1    1    2  503  501  0.66652445111E+02  0.12988024148E+03 -0.25822476648E+02  0.14825055098E+03  0.00000000000E+00 0. -1.
          2    1    1    2  501    0 -0.66652445111E+02 -0.12988024148E+03 -0.77279528591E+03  0.78646295494E+03  0.00000000000E+00 0.  1.
<mgrwt>
<rscale>  2 0.14598433E+03</rscale>
<asrwt>0</asrwt>
<pdfrwt beam="1">  1       21 0.10468904E-01 0.14598433E+03</pdfrwt>
<pdfrwt beam="2">  1        2 0.13333317E+00 0.14598433E+03</pdfrwt>
<totfact> 0.30496077E+04</totfact>
</mgrwt>
</event>
<event>
 4    1  0.5045766E+003  0.1655175E+03  0.7546771E-02  0.1182605E+00
         21   -1    0    0  501  502  0.00000000000E+00  0.00000000000E+00  0.52950255076E+02  0.52950255076E+02  0.00000000000E+00 0.  1.
          4   -1    0    0  503    0 -0.00000000000E+00 -0.00000000000E+00 -0.51926701418E+03  0.51926701418E+03  0.00000000000E+00 0.  1.
         21    1    1    2  503  502 -0.27539491531E+02 -0.16321030850E+03 -0.25035169774E+03  0.30011997760E+03  0.00000000000E+00 0.  1.
          4    1    1    2  501    0  0.27539491531E+02  0.16321030850E+03 -0.21596506136E+03  0.27209729165E+03  0.00000000000E+00 0.  1.
<mgrwt>
<rscale>  2 0.16551746E+03</rscale>
<asrwt>0</asrwt>
<pdfrwt beam="1">  1       21 0.81461930E-02 0.16551746E+03</pdfrwt>
<pdfrwt beam="2">  1        4 0.79887234E-01 0.16551746E+03</pdfrwt>
<totfact> 0.69034423E+03</totfact>
</mgrwt>
</event>
<event>
 4    1  0.5045766E+003  0.1184669E+03  0.7546771E-02  0.1245648E+00
         21   -1    0    0  503  502  0.00000000000E+00  0.00000000000E+00  0.14723796046E+03  0.14723796046E+03  0.00000000000E+00 0. -1.
          2   -1    0    0  502    0 -0.00000000000E+00 -0.00000000000E+00 -0.93092385313E+03  0.93092385313E+03  0.00000000000E+00 0.  1.
         21    1    1    2  503  501  0.63270265650E+02 -0.10015624838E+03  0.11889444734E+03  0.16784007333E+03  0.00000000000E+00 0. -1.
          2    1    1    2  501    0 -0.63270265650E+02  0.10015624838E+03 -0.90258034002E+03  0.91032174026E+03  0.00000000000E+00 0.  1.
<mgrwt>
<rscale>  2 0.11846688E+03</rscale>
<asrwt>0</asrwt>
<pdfrwt beam="1">  1       21 0.22651994E-01 0.11846688E+03</pdfrwt>
<pdfrwt beam="2">  1        2 0.14321905E+00 0.11846688E+03</pdfrwt>
<totfact> 0.69250020E+03</totfact>
</mgrwt>
</event>
<event>
 4    1  0.5045766E+003  0.1237601E+03  0.7546771E-02  0.1237020E+00
          2   -1    0    0  503    0 -0.00000000000E+00  0.00000000000E+00  0.49023858787E+03  0.49023858787E+03  0.00000000000E+00 0.  1.
         21   -1    0    0  501  502  0.00000000000E+00 -0.00000000000E+00 -0.31408577578E+02  0.31408577578E+02  0.00000000000E+00 0.  1.
         21    1    1    2  503  502 -0.12115192115E+03  0.25273913406E+02  0.21048149301E+03  0.24417005876E+03  0.00000000000E+00 0.  1.
          2    1    1    2  501    0  0.12115192115E+03 -0.25273913406E+02  0.24834851729E+03  0.27747710669E+03  0.00000000000E+00 0.  1.
<mgrwt>
<rscale>  2 0.12376009E+03</rscale>
<asrwt>0</asrwt>
<pdfrwt beam="2">  1       21 0.48320892E-02 0.12376009E+03</pdfrwt>
<pdfrwt beam="1">  1        2 0.75421315E-01 0.12376009E+03</pdfrwt>
<totfact> 0.22325407E+05</totfact>
</mgrwt>
</event>
<event>
 4    1  0.5045766E+003  0.1281229E+03  0.7546771E-02  0.1230268E+00
          2   -1    0    0  503    0 -0.00000000000E+00  0.00000000000E+00  0.40821193243E+04  0.40821193243E+04  0.00000000000E+00 0.  1.
         21   -1    0    0  501  502  0.00000000000E+00 -0.00000000000E+00 -0.16487315778E+02  0.16487315778E+02  0.00000000000E+00 0.  1.
         21    1    1    2  503  502  0.10173696231E+03  0.77878594301E+02  0.25086871985E+03  0.28169238461E+03  0.00000000000E+00 0.  1.
          2    1    1    2  501    0 -0.10173696231E+03 -0.77878594301E+02  0.38147632887E+04  0.38169142555E+04  0.00000000000E+00 0.  1.
<mgrwt>
<rscale>  2 0.12812293E+03</rscale>
<asrwt>0</asrwt>
<pdfrwt beam="2">  1       21 0.25365134E-02 0.12812293E+03</pdfrwt>
<pdfrwt beam="1">  1        2 0.62801755E+00 0.12812293E+03</pdfrwt>
<totfact> 0.45693214E+03</totfact>
</mgrwt>
</event>
<event>
 4    1  0.5045766E+003  0.1189257E+03  0.7546771E-02  0.1244880E+00
         -2   -1    0    0    0  501 -0.00000000000E+00  0.00000000000E+00  0.22994961769E+03  0.22994961769E+03  0.00000000000E+00 0. -1.
         21   -1    0    0  503  502  0.00000000000E+00 -0.00000000000E+00 -0.11830097038E+03  0.11830097038E+03  0.00000000000E+00 0.  1.
         21    1    1    2  503  501  0.11293015927E+03 -0.37284024153E+02 -0.64824200518E+02  0.13544554737E+03  0.00000000000E+00 0.  1.
         -2    1    1    2    0  502 -0.11293015927E+03  0.37284024153E+02  0.17647284783E+03  0.21280504071E+03  0.00000000000E+00 0. -1.
<mgrwt>
<rscale>  2 0.11892569E+03</rscale>
<asrwt>0</asrwt>
<pdfrwt beam="2">  1       21 0.18200149E-01 0.11892569E+03</pdfrwt>
<pdfrwt beam="1">  1       -2 0.35376864E-01 0.11892569E+03</pdfrwt>
<totfact> 0.16615777E+04</totfact>
</mgrwt>
</event>
<event>
 4    1  0.5045766E+003  0.1100712E+03  0.7546771E-02  0.1260438E+00
         21   -1    0    0  501  502  0.00000000000E+00  0.00000000000E+00  0.28304886814E+03  0.28304886814E+03  0.00000000000E+00 0.  1.
          2   -1    0    0  503    0 -0.00000000000E+00 -0.00000000000E+00 -0.12194771273E+04  0.12194771273E+04  0.00000000000E+00 0.  1.
         21    1    1    2  503  502 -0.52489265606E+02 -0.96749883724E+02  0.26974627684E+03  0.29133952165E+03  0.00000000000E+00 0.  1.
          2    1    1    2  501    0  0.52489265606E+02  0.96749883724E+02 -0.12061745360E+04  0.12111864738E+04  0.00000000000E+00 0.  1.
<mgrwt>
<rscale>  2 0.11007117E+03</rscale>
<asrwt>0</asrwt>
<pdfrwt beam="1">  1       21 0.43545980E-01 0.11007117E+03</pdfrwt>
<pdfrwt beam="2">  1        2 0.18761187E+00 0.11007117E+03</pdfrwt>
<totfact> 0.13417837E+03</totfact>
</mgrwt>
</event>
<event>
 4    1  0.5045766E+003  0.1000574E+03  0.7546771E-02  0.1280175E+00
          1   -1    0    0  502    0 -0.00000000000E+00  0.00000000000E+00  0.50225512541E+03  0.50225512541E+03  0.00000000000E+00 0. -1.
         21   -1    0    0  503  502  0.00000000000E+00 -0.00000000000E+00 -0.49462328050E+02  0.49462328050E+02  0.00000000000E+00 0.  1.
         21    1    1    2  503  501  0.79400369394E+02  0.60885607572E+02  0.13251042628E+02  0.10093099623E+03  0.00000000000E+00 0.  1.
          1    1    1    2  501    0 -0.79400369394E+02 -0.60885607572E+02  0.43954175474E+03  0.45078645723E+03  0.00000000000E+00 0. -1.
<mgrwt>
<rscale>  2 0.10005736E+03</rscale>
<asrwt>0</asrwt>
<pdfrwt beam="2">  1       21 0.76095893E-02 0.10005736E+03</pdfrwt>
<pdfrwt beam="1">  1        1 0.77270016E-01 0.10005736E+03</pdfrwt>
<totfact> 0.64367014E+04</totfact>
</mgrwt>
</event>
<event>
 4    1  0.5045766E+003  0.1316407E+03  0.7546771E-02  0.1225041E+00
         21   -1    0    0  503  502  0.00000000000E+00  0.00000000000E+00  0.91453131266E+02  0.91453131266E+02  0.00000000000E+00 0.  1.
         -4   -1    0    0    0  501 -0.00000000000E+00 -0.00000000000E+00 -0.12200611898E+04  0.12200611898E+04  0.00000000000E+00 0.  1.
         21    1    1    2  503  501  0.10871333527E+03  0.74233940066E+02  0.38382749278E+02  0.13712221762E+03  0.00000000000E+00 0.  1.
         -4    1    1    2    0  502 -0.10871333527E+03 -0.74233940066E+02 -0.11669908078E+04  0.11743921034E+04  0.00000000000E+00 0.  1.
<mgrwt>
<rscale>  2 0.13164067E+03</rscale>
<asrwt>0</asrwt>
<pdfrwt beam="1">  1       21 0.14069713E-01 0.13164067E+03</pdfrwt>
<pdfrwt beam="2">  1       -4 0.18770171E+00 0.13164067E+03</pdfrwt>
<totfact> 0.32381591E+02</totfact>
</mgrwt>
</event>
<event>
 4    1  0.5045766E+003  0.1124097E+03  0.7546771E-02  0.1256171E+00
          1   -1    0    0  502    0 -0.00000000000E+00  0.00000000000E+00  0.21981287782E+03  0.21981287782E+03  0.00000000000E+00 0. -1.
         21   -1    0    0  503  502  0.00000000000E+00 -0.00000000000E+00 -0.83063442812E+02  0.83063442812E+02  0.00000000000E+00 0.  1.
         21    1    1    2  503  501  0.10427031514E+01 -0.11240485370E+03 -0.15661713916E+02  0.11349549615E+03  0.00000000000E+00 0.  1.
          1    1    1    2  501    0 -0.10427031514E+01  0.11240485370E+03  0.15241114893E+03  0.18938082448E+03  0.00000000000E+00 0. -1.
<mgrwt>
<rscale>  2 0.11240969E+03</rscale>
<asrwt>0</asrwt>
<pdfrwt beam="2">  1       21 0.12778991E-01 0.11240969E+03</pdfrwt>
<pdfrwt beam="1">  1        1 0.33817366E-01 0.11240969E+03</pdfrwt>
<totfact> 0.73153622E+04</totfact>
</mgrwt>
</event>
<event>
 4    1  0.5045766E+003  0.1188130E+03  0.7546771E-02  0.1245068E+00
         21   -1    0    0  503  502  0.00000000000E+00  0.00000000000E+00  0.15980485161E+03  0.15980485161E+03  0.00000000000E+00 0. -1.
          1   -1    0    0  502    0 -0.00000000000E+00 -0.00000000000E+00 -0.54150555444E+03  0.54150555444E+03  0.00000000000E+00 0. -1.
         21    1    1    2  503  501 -0.11851004024E+03 -0.84794476755E+01  0.12993103786E+03  0.17606420781E+03  0.00000000000E+00 0. -1.
          1    1    1    2  501    0  0.11851004024E+03  0.84794476755E+01 -0.51163174070E+03  0.52524619824E+03  0.00000000000E+00 0. -1.
<mgrwt>
<rscale>  2 0.11881301E+03</rscale>
<asrwt>0</asrwt>
<pdfrwt beam="1">  1       21 0.24585362E-01 0.11881301E+03</pdfrwt>
<pdfrwt beam="2">  1        1 0.83308547E-01 0.11881301E+03</pdfrwt>
<totfact> 0.71738679E+03</totfact>
</mgrwt>
</event>
<event>
 4    1  0.5045766E+003  0.1153472E+03  0.7546771E-02  0.1250976E+00
         21   -1    0    0  501  502  0.00000000000E+00  0.00000000000E+00  0.10874345301E+02  0.10874345301E+02  0.00000000000E+00 0.  1.
          2   -1    0    0  503    0 -0.00000000000E+00 -0.00000000000E+00 -0.25156572592E+04  0.25156572592E+04  0.00000000000E+00 0. -1.
         21    1    1    2  503  502  0.10324680039E+03  0.51430272793E+02 -0.34702709789E+03  0.36569492944E+03  0.00000000000E+00 0.  1.
          2    1    1    2  501    0 -0.10324680039E+03 -0.51430272793E+02 -0.21577558160E+04  0.21608366750E+04  0.00000000000E+00 0. -1.
<mgrwt>
<rscale>  2 0.11534719E+03</rscale>
<asrwt>0</asrwt>
<pdfrwt beam="1">  1       21 0.16729781E-02 0.11534719E+03</pdfrwt>
<pdfrwt beam="2">  1        2 0.38702376E+00 0.11534719E+03</pdfrwt>
<totfact> 0.86136897E+04</totfact>
</mgrwt>
</event>
<event>
 4    1  0.5045766E+003  0.1017479E+03  0.7546771E-02  0.1276663E+00
         -4   -1    0    0    0  501 -0.00000000000E+00  0.00000000000E+00  0.45577562898E+03  0.45577562898E+03  0.00000000000E+00 0.  1.
         21   -1    0    0  501  502  0.00000000000E+00 -0.00000000000E+00 -0.11276335288E+03  0.11276335288E+03  0.00000000000E+00 0. -1.
         21    1    1    2  503  502 -0.74960595359E+02  0.68800771031E+02 -0.82524307286E+02  0.13100724501E+03  0.00000000000E+00 0. -1.
         -4    1    1    2    0  503  0.74960595359E+02 -0.68800771031E+02  0.42553658339E+03  0.43753173685E+03  0.00000000000E+00 0.  1.
<mgrwt>
<rscale>  2 0.10174791E+03</rscale>
<asrwt>0</asrwt>
<pdfrwt beam="2">  1       21 0.17348208E-01 0.10174791E+03</pdfrwt>
<pdfrwt beam="1">  1       -4 0.70119327E-01 0.10174791E+03</pdfrwt>
<totfact> 0.23239457E+03</totfact>
</mgrwt>
</event>
<event>
 4    1  0.5045766E+003  0.1023020E+03  0.7546771E-02  0.1275528E+00
          2   -1    0    0  502    0 -0.00000000000E+00  0.00000000000E+00  0.31098858364E+04  0.31098858364E+04  0.00000000000E+00 0. -1.
         21   -1    0    0  503  502  0.00000000000E+00 -0.00000000000E+00 -0.12173181462E+02  0.12173181462E+02  0.00000000000E+00 0. -1.
         21    1    1    2  503  501  0.93515869366E+02 -0.41478669454E+02  0.22101921424E+03  0.24354710203E+03  0.00000000000E+00 0. -1.
          2    1    1    2  501    0 -0.93515869366E+02  0.41478669454E+02  0.28766934407E+04  0.28785119158E+04  0.00000000000E+00 0. -1.
<mgrwt>
<rscale>  2 0.10230199E+03</rscale>
<asrwt>0</asrwt>
<pdfrwt beam="2">  1       21 0.18727996E-02 0.10230199E+03</pdfrwt>
<pdfrwt beam="1">  1        2 0.47844334E+00 0.10230199E+03</pdfrwt>
<totfact> 0.33810730E+04</totfact>
</mgrwt>
</event>
<event>
 4    1  0.5045766E+003  0.1471962E+03  0.7546771E-02  0.1203961E+00
         21   -1    0    0  501  502  0.00000000000E+00  0.00000000000E+00  0.93969410626E+03  0.93969410626E+03  0.00000000000E+00 0. -1.
          2   -1    0    0  503    0 -0.00000000000E+00 -0.00000000000E+00 -0.78162345619E+02  0.78162345619E+02  0.00000000000E+00 0. -1.
         21    1    1    2  503  502  0.53192041090E+02  0.13724913841E+03  0.85808645666E+03  0.87061994368E+03  0.00000000000E+00 0. -1.
          2    1    1    2  501    0 -0.53192041090E+02 -0.13724913841E+03  0.34453039870E+01  0.14723650821E+03  0.00000000000E+00 0. -1.
<mgrwt>
<rscale>  2 0.14719619E+03</rscale>
<asrwt>0</asrwt>
<pdfrwt beam="1">  1       21 0.14456832E+00 0.14719619E+03</pdfrwt>
<pdfrwt beam="2">  1        2 0.12024977E-01 0.14719619E+03</pdfrwt>
<totfact> 0.20823577E+03</totfact>
</mgrwt>
</event>
<event>
 4    1  0.5045766E+003  0.1129194E+03  0.7546771E-02  0.1255257E+00
          2   -1    0    0  502    0 -0.00000000000E+00  0.00000000000E+00  0.10286428738E+04  0.10286428738E+04  0.00000000000E+00 0. -1.
         21   -1    0    0  503  502  0.00000000000E+00 -0.00000000000E+00 -0.26777482641E+02  0.26777482641E+02  0.00000000000E+00 0. -1.
         21    1    1    2  503  501  0.33511674786E+02 -0.10783212638E+03  0.11419526808E+03  0.16059688377E+03  0.00000000000E+00 0. -1.
          2    1    1    2  501    0 -0.33511674786E+02  0.10783212638E+03  0.88767012313E+03  0.89482347272E+03  0.00000000000E+00 0. -1.
<mgrwt>
<rscale>  2 0.11291944E+03</rscale>
<asrwt>0</asrwt>
<pdfrwt beam="2">  1       21 0.41196135E-02 0.11291944E+03</pdfrwt>
<pdfrwt beam="1">  1        2 0.15825272E+00 0.11291944E+03</pdfrwt>
<totfact> 0.11908168E+05</totfact>
</mgrwt>
</event>
<event>
 4    1  0.5045766E+003  0.1484813E+03  0.7546771E-02  0.1202352E+00
         21   -1    0    0  501  502  0.00000000000E+00  0.00000000000E+00  0.12698501228E+03  0.12698501228E+03  0.00000000000E+00 0. -1.
          2   -1    0    0  503    0 -0.00000000000E+00 -0.00000000000E+00 -0.11512211753E+04  0.11512211753E+04  0.00000000000E+00 0. -1.
         21    1    1    2  503  502  0.12893176405E+03 -0.73643023555E+02  0.76824787790E+02  0.16717877472E+03  0.00000000000E+00 0. -1.
          2    1    1    2  501    0 -0.12893176405E+03  0.73643023555E+02 -0.11010609509E+04  0.11110274129E+04  0.00000000000E+00 0. -1.
<mgrwt>
<rscale>  2 0.14848129E+03</rscale>
<asrwt>0</asrwt>
<pdfrwt beam="1">  1       21 0.19536155E-01 0.14848129E+03</pdfrwt>
<pdfrwt beam="2">  1        2 0.17711095E+00 0.14848129E+03</pdfrwt>
<totfact> 0.66805685E+03</totfact>
</mgrwt>
</event>
<event>
 4    1  0.5045766E+003  0.1225943E+03  0.7546771E-02  0.1238878E+00
         21   -1    0    0  501  502  0.00000000000E+00  0.00000000000E+00  0.49379415058E+02  0.49379415058E+02  0.00000000000E+00 0.  1.
          4   -1    0    0  503    0 -0.00000000000E+00 -0.00000000000E+00 -0.34878033594E+03  0.34878033594E+03  0.00000000000E+00 0. -1.
         21    1    1    2  503  502 -0.11758151147E+03 -0.34697820032E+02 -0.78657780461E+02  0.14565849437E+03  0.00000000000E+00 0.  1.
          4    1    1    2  501    0  0.11758151147E+03  0.34697820032E+02 -0.22074314042E+03  0.25250125663E+03  0.00000000000E+00 0. -1.
<mgrwt>
<rscale>  2 0.12259425E+03</rscale>
<asrwt>0</asrwt>
<pdfrwt beam="1">  1       21 0.75968331E-02 0.12259425E+03</pdfrwt>
<pdfrwt beam="2">  1        4 0.53658513E-01 0.12259425E+03</pdfrwt>
<totfact> 0.17737485E+04</totfact>
</mgrwt>
</event>
<event>
 4    1  0.5045766E+003  0.1046014E+03  0.7546771E-02  0.1270907E+00
          2   -1    0    0  503    0 -0.00000000000E+00  0.00000000000E+00  0.23187160094E+04  0.23187160094E+04  0.00000000000E+00 0. -1.
         21   -1    0    0  501  502  0.00000000000E+00 -0.00000000000E+00 -0.47227417237E+01  0.47227417237E+01  0.00000000000E+00 0. -1.
         21    1    1    2  503  502 -0.84239250518E+02 -0.62009666165E+02  0.11232386507E+04  0.11280986289E+04  0.00000000000E+00 0. -1.
          2    1    1    2  501    0  0.84239250518E+02  0.62009666165E+02  0.11907546169E+04  0.11953401222E+04  0.00000000000E+00 0. -1.
<mgrwt>
<rscale>  2 0.10460139E+03</rscale>
<asrwt>0</asrwt>
<pdfrwt beam="2">  1       21 0.72657750E-03 0.10460139E+03</pdfrwt>
<pdfrwt beam="1">  1        2 0.35672463E+00 0.10460139E+03</pdfrwt>
<totfact> 0.40674615E+05</totfact>
</mgrwt>
</event>
<event>
 4    1  0.5045766E+003  0.1524974E+03  0.7546771E-02  0.1197437E+00
         21   -1    0    0  501  502  0.00000000000E+00  0.00000000000E+00  0.74138935870E+02  0.74138935870E+02  0.00000000000E+00 0. -1.
          1   -1    0    0  503    0 -0.00000000000E+00 -0.00000000000E+00 -0.50824688808E+03  0.50824688808E+03  0.00000000000E+00 0.  1.
         21    1    1    2  503  502  0.64658779250E+02  0.13811115496E+03 -0.36883048680E+02  0.15689425783E+03  0.00000000000E+00 0. -1.
          1    1    1    2  501    0 -0.64658779250E+02 -0.13811115496E+03 -0.39722490353E+03  0.42549156613E+03  0.00000000000E+00 0.  1.
<mgrwt>
<rscale>  2 0.15249737E+03</rscale>
<asrwt>0</asrwt>
<pdfrwt beam="1">  1       21 0.11405990E-01 0.15249737E+03</pdfrwt>
<pdfrwt beam="2">  1        1 0.78191830E-01 0.15249737E+03</pdfrwt>
<totfact> 0.31463414E+04</totfact>
</mgrwt>
</event>
<event>
 4    1  0.5045766E+003  0.1217878E+03  0.7546771E-02  0.1240177E+00
         21   -1    0    0  503  502  0.00000000000E+00  0.00000000000E+00  0.61777562050E+02  0.61777562050E+02  0.00000000000E+00 0.  1.
          2   -1    0    0  502    0 -0.00000000000E+00 -0.00000000000E+00 -0.12380685059E+04  0.12380685059E+04  0.00000000000E+00 0.  1.
         21    1    1    2  503  501 -0.37985494253E+02 -0.11571246400E+03 -0.46334038471E+01  0.12187592268E+03  0.00000000000E+00 0.  1.
          2    1    1    2  501    0  0.37985494253E+02  0.11571246400E+03 -0.11716575400E+04  0.11779701453E+04  0.00000000000E+00 0.  1.
<mgrwt>
<rscale>  2 0.12178782E+03</rscale>
<asrwt>0</asrwt>
<pdfrwt beam="1">  1       21 0.95042408E-02 0.12178782E+03</pdfrwt>
<pdfrwt beam="2">  1        2 0.19047207E+00 0.12178782E+03</pdfrwt>
<totfact> 0.21962853E+04</totfact>
</mgrwt>
</event>
<event>
 4    1  0.5045766E+003  0.1617241E+03  0.7546771E-02  0.1186764E+00
          2   -1    0    0  502    0 -0.00000000000E+00  0.00000000000E+00  0.11482446581E+04  0.11482446581E+04  0.00000000000E+00 0. -1.
         21   -1    0    0  503  502  0.00000000000E+00 -0.00000000000E+00 -0.43083553732E+02  0.43083553732E+02  0.00000000000E+00 0. -1.
         21    1    1    2  503  501 -0.93787224979E+02 -0.13175218636E+03  0.14364637138E+03  0.21630756388E+03  0.00000000000E+00 0. -1.
          2    1    1    2  501    0  0.93787224979E+02  0.13175218636E+03  0.96151473297E+03  0.97502064793E+03  0.00000000000E+00 0. -1.
<mgrwt>
<rscale>  2 0.16172409E+03</rscale>
<asrwt>0</asrwt>
<pdfrwt beam="2">  1       21 0.66282399E-02 0.16172409E+03</pdfrwt>
<pdfrwt beam="1">  1        2 0.17665300E+00 0.16172409E+03</pdfrwt>
<totfact> 0.45596742E+04</totfact>
</mgrwt>
</event>
<event>
 4    1  0.5045766E+003  0.1033960E+03  0.7546771E-02  0.1273312E+00
          4   -1    0    0  503    0 -0.00000000000E+00  0.00000000000E+00  0.21841700494E+03  0.21841700494E+03  0.00000000000E+00 0.  1.
         21   -1    0    0  501  502  0.00000000000E+00 -0.00000000000E+00 -0.82474350642E+02  0.82474350642E+02  0.00000000000E+00 0.  1.
         21    1    1    2  503  502  0.91008327172E+02 -0.49073590749E+02 -0.27951852100E+02  0.10710760458E+03  0.00000000000E+00 0.  1.
          4    1    1    2  501    0 -0.91008327172E+02  0.49073590749E+02  0.16389450640E+03  0.19378375100E+03  0.00000000000E+00 0.  1.
<mgrwt>
<rscale>  2 0.10339600E+03</rscale>
<asrwt>0</asrwt>
<pdfrwt beam="2">  1       21 0.12688362E-01 0.10339600E+03</pdfrwt>
<pdfrwt beam="1">  1        4 0.33602616E-01 0.10339600E+03</pdfrwt>
<totfact> 0.17988232E+04</totfact>
</mgrwt>
</event>
<event>
 4    1  0.5045766E+003  0.1103740E+03  0.7546771E-02  0.1259879E+00
          2   -1    0    0  503    0 -0.00000000000E+00  0.00000000000E+00  0.10163484083E+04  0.10163484083E+04  0.00000000000E+00 0.  1.
         21   -1    0    0  501  502  0.00000000000E+00 -0.00000000000E+00 -0.10171657248E+03  0.10171657248E+03  0.00000000000E+00 0. -1.
         21    1    1    2  503  502 -0.93551069268E+02  0.58571557913E+02 -0.67745699365E+02  0.12950640810E+03  0.00000000000E+00 0. -1.
          2    1    1    2  501    0  0.93551069268E+02 -0.58571557913E+02  0.98237753521E+03  0.98855857269E+03  0.00000000000E+00 0.  1.
<mgrwt>
<rscale>  2 0.11037405E+03</rscale>
<asrwt>0</asrwt>
<pdfrwt beam="2">  1       21 0.15648704E-01 0.11037405E+03</pdfrwt>
<pdfrwt beam="1">  1        2 0.15636129E+00 0.11037405E+03</pdfrwt>
<totfact> 0.12162221E+04</totfact>
</mgrwt>
</event>
<event>
 4    1  0.5045766E+003  0.1029625E+03  0.7546771E-02  0.1274187E+00
         21   -1    0    0  503  502  0.00000000000E+00  0.00000000000E+00  0.62036451494E+02  0.62036451494E+02  0.00000000000E+00 0. -1.
          4   -1    0    0  502    0 -0.00000000000E+00 -0.00000000000E+00 -0.99692685458E+03  0.99692685458E+03  0.00000000000E+00 0. -1.
         21    1    1    2  503  501  0.62303185212E+02  0.81973154998E+02  0.14524243889E+02  0.10398191520E+03  0.00000000000E+00 0. -1.
          4    1    1    2  501    0 -0.62303185212E+02 -0.81973154998E+02 -0.94941464697E+03  0.95498139087E+03  0.00000000000E+00 0. -1.
<mgrwt>
<rscale>  2 0.10296254E+03</rscale>
<asrwt>0</asrwt>
<pdfrwt beam="1">  1       21 0.95440695E-02 0.10296254E+03</pdfrwt>
<pdfrwt beam="2">  1        4 0.15337336E+00 0.10296254E+03</pdfrwt>
<totfact> 0.10900149E+03</totfact>
</mgrwt>
</event>
<event>
 4    1  0.5045766E+003  0.1188512E+03  0.7546771E-02  0.1245004E+00
          1   -1    0    0  502    0 -0.00000000000E+00  0.00000000000E+00  0.29353549934E+04  0.29353549934E+04  0.00000000000E+00 0.  1.
         21   -1    0    0  503  502  0.00000000000E+00 -0.00000000000E+00 -0.31614434044E+03  0.31614434044E+03  0.00000000000E+00 0. -1.
         21    1    1    2  503  501 -0.51983904041E+02  0.10687977022E+03 -0.30372361172E+03  0.32614972616E+03  0.00000000000E+00 0. -1.
          1    1    1    2  501    0  0.51983904041E+02 -0.10687977022E+03  0.29229342647E+04  0.29253496077E+04  0.00000000000E+00 0.  1.
<mgrwt>
<rscale>  2 0.11885122E+03</rscale>
<asrwt>0</asrwt>
<pdfrwt beam="2">  1       21 0.48637593E-01 0.11885122E+03</pdfrwt>
<pdfrwt beam="1">  1        1 0.45159306E+00 0.11885122E+03</pdfrwt>
<totfact> 0.41695985E+01</totfact>
</mgrwt>
</event>
<event>
 4    1  0.5045766E+003  0.2222803E+03  0.7546771E-02  0.1132194E+00
         21   -1    0    0  503  502  0.00000000000E+00  0.00000000000E+00  0.20767723594E+02  0.20767723594E+02  0.00000000000E+00 0. -1.
          1   -1    0    0  502    0 -0.00000000000E+00 -0.00000000000E+00 -0.23904747646E+04  0.23904747646E+04  0.00000000000E+00 0. -1.
         21    1    1    2  503  501 -0.21099955386E+03  0.69912249248E+02 -0.11016962209E+04  0.11238963909E+04  0.00000000000E+00 0. -1.
          1    1    1    2  501    0  0.21099955386E+03 -0.69912249248E+02 -0.12680108200E+04  0.12873460972E+04  0.00000000000E+00 0. -1.
<mgrwt>
<rscale>  2 0.22228031E+03</rscale>
<asrwt>0</asrwt>
<pdfrwt beam="1">  1       21 0.31950361E-02 0.22228031E+03</pdfrwt>
<pdfrwt beam="2">  1        1 0.36776516E+00 0.22228031E+03</pdfrwt>
<totfact> 0.12166490E+04</totfact>
</mgrwt>
</event>
<event>
 4    1  0.5045766E+003  0.1195616E+03  0.7546771E-02  0.1243822E+00
         21   -1    0    0  501  502  0.00000000000E+00  0.00000000000E+00  0.51291796882E+03  0.51291796882E+03  0.00000000000E+00 0. -1.
          3   -1    0    0  503    0 -0.00000000000E+00 -0.00000000000E+00 -0.39422784802E+02  0.39422784802E+02  0.00000000000E+00 0. -1.
         21    1    1    2  503  502  0.98123519265E+02  0.68313682189E+02  0.38625001633E+03  0.40433162048E+03  0.00000000000E+00 0. -1.
          3    1    1    2  501    0 -0.98123519265E+02 -0.68313682189E+02  0.87245167684E+02  0.14800913313E+03  0.00000000000E+00 0. -1.
<mgrwt>
<rscale>  2 0.11956163E+03</rscale>
<asrwt>0</asrwt>
<pdfrwt beam="1">  1       21 0.78910452E-01 0.11956163E+03</pdfrwt>
<pdfrwt beam="2">  1        3 0.60650442E-02 0.11956163E+03</pdfrwt>
<totfact> 0.11462812E+04</totfact>
</mgrwt>
</event>
<event>
 4    1  0.5045766E+003  0.1299254E+03  0.7546771E-02  0.1227566E+00
         21   -1    0    0  501  502  0.00000000000E+00  0.00000000000E+00  0.14875486518E+02  0.14875486518E+02  0.00000000000E+00 0. -1.
          2   -1    0    0  503    0 -0.00000000000E+00 -0.00000000000E+00 -0.12560124638E+04  0.12560124638E+04  0.00000000000E+00 0.  1.
         21    1    1    2  503  502  0.96306964524E+02  0.87210026018E+02 -0.42316091435E+03  0.44265763236E+03  0.00000000000E+00 0. -1.
          2    1    1    2  501    0 -0.96306964524E+02 -0.87210026018E+02 -0.81797606292E+03  0.82823031795E+03  0.00000000000E+00 0.  1.
<mgrwt>
<rscale>  2 0.12992544E+03</rscale>
<asrwt>0</asrwt>
<pdfrwt beam="1">  1       21 0.22885361E-02 0.12992544E+03</pdfrwt>
<pdfrwt beam="2">  1        2 0.19323271E+00 0.12992544E+03</pdfrwt>
<totfact> 0.23329038E+05</totfact>
</mgrwt>
</event>
<event>
 4    1  0.5045766E+003  0.2086324E+03  0.7546771E-02  0.1142654E+00
         21   -1    0    0  503  502  0.00000000000E+00  0.00000000000E+00  0.43342743273E+03  0.43342743273E+03  0.00000000000E+00 0.  1.
          2   -1    0    0  502    0 -0.00000000000E+00 -0.00000000000E+00 -0.28118363984E+03  0.28118363984E+03  0.00000000000E+00 0. -1.
         21    1    1    2  503  501 -0.78762506221E+02 -0.19319404944E+03  0.36260090399E+03  0.41833824676E+03  0.00000000000E+00 0.  1.
          2    1    1    2  501    0  0.78762506221E+02  0.19319404944E+03 -0.21035711110E+03  0.29627282582E+03  0.00000000000E+00 0. -1.
<mgrwt>
<rscale>  2 0.20863239E+03</rscale>
<asrwt>0</asrwt>
<pdfrwt beam="1">  1       21 0.66681144E-01 0.20863239E+03</pdfrwt>
<pdfrwt beam="2">  1        2 0.43259021E-01 0.20863239E+03</pdfrwt>
<totfact> 0.29786623E+03</totfact>
</mgrwt>
</event>
<event>
 4    1  0.5045766E+003  0.1334321E+03  0.7546771E-02  0.1222450E+00
         21   -1    0    0  503  502  0.00000000000E+00  0.00000000000E+00  0.10562143972E+02  0.10562143972E+02  0.00000000000E+00 0. -1.
          1   -1    0    0  502    0 -0.00000000000E+00 -0.00000000000E+00 -0.24730827004E+04  0.24730827004E+04  0.00000000000E+00 0.  1.
         21    1    1    2  503  501  0.13157445191E+03  0.22187535826E+02 -0.53053832882E+03  0.54706036366E+03  0.00000000000E+00 0. -1.
          1    1    1    2  501    0 -0.13157445191E+03 -0.22187535826E+02 -0.19319822277E+04  0.19365844808E+04  0.00000000000E+00 0.  1.
<mgrwt>
<rscale>  2 0.13343209E+03</rscale>
<asrwt>0</asrwt>
<pdfrwt beam="1">  1       21 0.16249449E-02 0.13343209E+03</pdfrwt>
<pdfrwt beam="2">  1        1 0.38047433E+00 0.13343209E+03</pdfrwt>
<totfact> 0.33405781E+04</totfact>
</mgrwt>
</event>
<event>
 4    1  0.5045766E+003  0.2550158E+03  0.7546771E-02  0.1110175E+00
         -1   -1    0    0    0  501 -0.00000000000E+00  0.00000000000E+00  0.41922057981E+04  0.41922057981E+04  0.00000000000E+00 0.  1.
         21   -1    0    0  501  502  0.00000000000E+00 -0.00000000000E+00 -0.20417674526E+03  0.20417674526E+03  0.00000000000E+00 0.  1.
         21    1    1    2  503  502 -0.87661983821E+02  0.23947531747E+03 -0.11902072138E+03  0.28142313907E+03  0.00000000000E+00 0.  1.
         -1    1    1    2    0  503  0.87661983821E+02 -0.23947531747E+03  0.41070497742E+04  0.41149594043E+04  0.00000000000E+00 0.  1.
<mgrwt>
<rscale>  2 0.25501579E+03</rscale>
<asrwt>0</asrwt>
<pdfrwt beam="2">  1       21 0.31411810E-01 0.25501579E+03</pdfrwt>
<pdfrwt beam="1">  1       -1 0.64495467E+00 0.25501579E+03</pdfrwt>
<totfact> 0.32210045E-01</totfact>
</mgrwt>
</event>
<event>
 4    1  0.5045766E+003  0.1656153E+03  0.7546771E-02  0.1182499E+00
         21   -1    0    0  501  502  0.00000000000E+00  0.00000000000E+00  0.34674423405E+03  0.34674423405E+03  0.00000000000E+00 0. -1.
         -1   -1    0    0    0  501 -0.00000000000E+00 -0.00000000000E+00 -0.96165903726E+03  0.96165903726E+03  0.00000000000E+00 0. -1.
         21    1    1    2  503  502 -0.16370358692E+03 -0.25090957973E+02  0.31926075232E+03  0.35966074085E+03  0.00000000000E+00 0. -1.
         -1    1    1    2    0  503  0.16370358692E+03  0.25090957973E+02 -0.93417555553E+03  0.94874253046E+03  0.00000000000E+00 0. -1.
<mgrwt>
<rscale>  2 0.16561528E+03</rscale>
<asrwt>0</asrwt>
<pdfrwt beam="1">  1       21 0.53345267E-01 0.16561528E+03</pdfrwt>
<pdfrwt beam="2">  1       -1 0.14794754E+00 0.16561528E+03</pdfrwt>
<totfact> 0.12578799E+02</totfact>
</mgrwt>
</event>
<event>
 4    1  0.5045766E+003  0.1191264E+03  0.7546771E-02  0.1244545E+00
         21   -1    0    0  501  502  0.00000000000E+00  0.00000000000E+00  0.12675065199E+02  0.12675065199E+02  0.00000000000E+00 0. -1.
          2   -1    0    0  503    0 -0.00000000000E+00 -0.00000000000E+00 -0.17836780990E+04  0.17836780990E+04  0.00000000000E+00 0. -1.
         21    1    1    2  503  502 -0.89463202532E+02 -0.78660313437E+02 -0.33746396390E+03  0.35787293338E+03  0.00000000000E+00 0. -1.
          2    1    1    2  501    0  0.89463202532E+02  0.78660313437E+02 -0.14335390699E+04  0.14384802309E+04  0.00000000000E+00 0. -1.
<mgrwt>
<rscale>  2 0.11912644E+03</rscale>
<asrwt>0</asrwt>
<pdfrwt beam="1">  1       21 0.19500095E-02 0.11912644E+03</pdfrwt>
<pdfrwt beam="2">  1        2 0.27441209E+00 0.11912644E+03</pdfrwt>
<totfact> 0.16039831E+05</totfact>
</mgrwt>
</event>
<event>
 4    1  0.5045766E+003  0.1443445E+03  0.7546771E-02  0.1207600E+00
         -1   -1    0    0    0  501 -0.00000000000E+00  0.00000000000E+00  0.98715487682E+02  0.98715487682E+02  0.00000000000E+00 0. -1.
         21   -1    0    0  501  502  0.00000000000E+00 -0.00000000000E+00 -0.26944842756E+03  0.26944842756E+03  0.00000000000E+00 0.  1.
         21    1    1    2  503  502 -0.14275761545E+03  0.21344975966E+02 -0.17105440652E+03  0.22381902233E+03  0.00000000000E+00 0.  1.
         -1    1    1    2    0  503  0.14275761545E+03 -0.21344975966E+02  0.32146664478E+00  0.14434489291E+03  0.00000000000E+00 0. -1.
<mgrwt>
<rscale>  2 0.14434453E+03</rscale>
<asrwt>0</asrwt>
<pdfrwt beam="2">  1       21 0.41453603E-01 0.14434453E+03</pdfrwt>
<pdfrwt beam="1">  1       -1 0.15186998E-01 0.14434453E+03</pdfrwt>
<totfact> 0.15934812E+04</totfact>
</mgrwt>
</event>
<event>
 4    1  0.5045766E+003  0.1122875E+03  0.7546771E-02  0.1256392E+00
         21   -1    0    0  501  502  0.00000000000E+00  0.00000000000E+00  0.19621561122E+02  0.19621561122E+02  0.00000000000E+00 0. -1.
          2   -1    0    0  503    0 -0.00000000000E+00 -0.00000000000E+00 -0.15181433709E+04  0.15181433709E+04  0.00000000000E+00 0. -1.
         21    1    1    2  503  502  0.66688139413E+01  0.11208927131E+03 -0.16534990116E+03  0.19987262853E+03  0.00000000000E+00 0. -1.
          2    1    1    2  501    0 -0.66688139413E+01 -0.11208927131E+03 -0.13331719086E+04  0.13378923035E+04  0.00000000000E+00 0. -1.
<mgrwt>
<rscale>  2 0.11228748E+03</rscale>
<asrwt>0</asrwt>
<pdfrwt beam="1">  1       21 0.30187018E-02 0.11228748E+03</pdfrwt>
<pdfrwt beam="2">  1        2 0.23356052E+00 0.11228748E+03</pdfrwt>
<totfact> 0.10787783E+05</totfact>
</mgrwt>
</event>
<event>
 4    1  0.5045766E+003  0.1198573E+03  0.7546771E-02  0.1243333E+00
          2   -1    0    0  503    0 -0.00000000000E+00  0.00000000000E+00  0.81157736729E+03  0.81157736729E+03  0.00000000000E+00 0. -1.
         21   -1    0    0  501  502  0.00000000000E+00 -0.00000000000E+00 -0.24241977457E+02  0.24241977457E+02  0.00000000000E+00 0.  1.
         21    1    1    2  503  502 -0.88673706534E+02 -0.80639624864E+02  0.17658864441E+03  0.21342287755E+03  0.00000000000E+00 0.  1.
          2    1    1    2  501    0  0.88673706534E+02  0.80639624864E+02  0.61074674543E+03  0.62239646720E+03  0.00000000000E+00 0. -1.
<mgrwt>
<rscale>  2 0.11985731E+03</rscale>
<asrwt>0</asrwt>
<pdfrwt beam="2">  1       21 0.37295356E-02 0.11985731E+03</pdfrwt>
<pdfrwt beam="1">  1        2 0.12485804E+00 0.11985731E+03</pdfrwt>
<totfact> 0.19176511E+05</totfact>
</mgrwt>
</event>
<event>
 4    1  0.5045766E+003  0.1183832E+03  0.7546771E-02  0.1245788E+00
          1   -1    0    0  503    0 -0.00000000000E+00  0.00000000000E+00  0.14758976339E+04  0.14758976339E+04  0.00000000000E+00 0.  1.
         21   -1    0    0  501  502  0.00000000000E+00 -0.00000000000E+00 -0.10085295213E+02  0.10085295213E+02  0.00000000000E+00 0.  1.
         21    1    1    2  503  502  0.34188331233E+02 -0.11333905685E+03  0.55325055803E+03  0.56577448136E+03  0.00000000000E+00 0.  1.
          1    1    1    2  501    0 -0.34188331233E+02  0.11333905685E+03  0.91256178067E+03  0.92020844777E+03  0.00000000000E+00 0.  1.
<mgrwt>
<rscale>  2 0.11838321E+03</rscale>
<asrwt>0</asrwt>
<pdfrwt beam="2">  1       21 0.15515851E-02 0.11838321E+03</pdfrwt>
<pdfrwt beam="1">  1        1 0.22706100E+00 0.11838321E+03</pdfrwt>
<totfact> 0.15611066E+05</totfact>
</mgrwt>
</event>
<event>
 4    1  0.5045766E+003  0.1402960E+03  0.7546771E-02  0.1212931E+00
         21   -1    0    0  501  502  0.00000000000E+00  0.00000000000E+00  0.10887707570E+03  0.10887707570E+03  0.00000000000E+00 0.  1.
          2   -1    0    0  503    0 -0.00000000000E+00 -0.00000000000E+00 -0.32853067233E+03  0.32853067233E+03  0.00000000000E+00 0.  1.
         21    1    1    2  503  502  0.14022638288E+03 -0.44192721810E+01  0.36839706924E+02  0.14505217140E+03  0.00000000000E+00 0.  1.
          2    1    1    2  501    0 -0.14022638288E+03  0.44192721810E+01 -0.25649330355E+03  0.29235557663E+03  0.00000000000E+00 0.  1.
<mgrwt>
<rscale>  2 0.14029600E+03</rscale>
<asrwt>0</asrwt>
<pdfrwt beam="1">  1       21 0.16750319E-01 0.14029600E+03</pdfrwt>
<pdfrwt beam="2">  1        2 0.50543181E-01 0.14029600E+03</pdfrwt>
<totfact> 0.39458489E+04</totfact>
</mgrwt>
</event>
<event>
 4    1  0.5045766E+003  0.1005939E+03  0.7546771E-02  0.1279052E+00
          2   -1    0    0  502    0 -0.00000000000E+00  0.00000000000E+00  0.34824151415E+03  0.34824151415E+03  0.00000000000E+00 0.  1.
         21   -1    0    0  503  502  0.00000000000E+00 -0.00000000000E+00 -0.87806561953E+02  0.87806561953E+02  0.00000000000E+00 0.  1.
         21    1    1    2  503  501 -0.86177950251E+02 -0.51889329264E+02 -0.48118988596E+02  0.11151044195E+03  0.00000000000E+00 0.  1.
          2    1    1    2  501    0  0.86177950251E+02  0.51889329264E+02  0.30855394080E+03  0.32453763415E+03  0.00000000000E+00 0.  1.
<mgrwt>
<rscale>  2 0.10059394E+03</rscale>
<asrwt>0</asrwt>
<pdfrwt beam="2">  1       21 0.13508702E-01 0.10059394E+03</pdfrwt>
<pdfrwt beam="1">  1        2 0.53575617E-01 0.10059394E+03</pdfrwt>
<totfact> 0.54415585E+04</totfact>
</mgrwt>
</event>
<event>
 4    1  0.5045766E+003  0.1140677E+03  0.7546771E-02  0.1253217E+00
          2   -1    0    0  503    0 -0.00000000000E+00  0.00000000000E+00  0.13374592231E+04  0.13374592231E+04  0.00000000000E+00 0.  1.
         21   -1    0    0  501  502  0.00000000000E+00 -0.00000000000E+00 -0.15076382299E+02  0.15076382299E+02  0.00000000000E+00 0.  1.
         21    1    1    2  503  502  0.77865238286E+02  0.83357281538E+02  0.25841662573E+03  0.28247227151E+03  0.00000000000E+00 0.  1.
          2    1    1    2  501    0 -0.77865238286E+02 -0.83357281538E+02  0.10639662150E+04  0.10700633339E+04  0.00000000000E+00 0.  1.
<mgrwt>
<rscale>  2 0.11406766E+03</rscale>
<asrwt>0</asrwt>
<pdfrwt beam="2">  1       21 0.23194445E-02 0.11406766E+03</pdfrwt>
<pdfrwt beam="1">  1        2 0.20576286E+00 0.11406766E+03</pdfrwt>
<totfact> 0.20579636E+05</totfact>
</mgrwt>
</event>
<event>
 4    1  0.5045766E+003  0.1230986E+03  0.7546771E-02  0.1238071E+00
         21   -1    0    0  501  502  0.00000000000E+00  0.00000000000E+00  0.78521676588E+03  0.78521676588E+03  0.00000000000E+00 0.  1.
          2   -1    0    0  503    0 -0.00000000000E+00 -0.00000000000E+00 -0.18860670689E+03  0.18860670689E+03  0.00000000000E+00 0.  1.
         21    1    1    2  503  502  0.10614576879E+03 -0.62340591441E+02  0.75963435345E+03  0.76954377687E+03  0.00000000000E+00 0.  1.
          2    1    1    2  501    0 -0.10614576879E+03  0.62340591441E+02 -0.16302429446E+03  0.20427969590E+03  0.00000000000E+00 0.  1.
<mgrwt>
<rscale>  2 0.12309863E+03</rscale>
<asrwt>0</asrwt>
<pdfrwt beam="1">  1       21 0.12080258E+00 0.12309863E+03</pdfrwt>
<pdfrwt beam="2">  1        2 0.29016417E-01 0.12309863E+03</pdfrwt>
<totfact> 0.12135253E+03</totfact>
</mgrwt>
</event>
<event>
 4    1  0.5045766E+003  0.1060691E+03  0.7546771E-02  0.1268028E+00
         21   -1    0    0  501  502  0.00000000000E+00  0.00000000000E+00  0.22296414480E+02  0.22296414480E+02  0.00000000000E+00 0. -1.
          1   -1    0    0  503    0 -0.00000000000E+00 -0.00000000000E+00 -0.25329406107E+04  0.25329406107E+04  0.00000000000E+00 0.  1.
         21    1    1    2  503  502  0.10394163165E+03  0.21137204996E+02 -0.11202331031E+03  0.15427205281E+03  0.00000000000E+00 0. -1.
          1    1    1    2  501    0 -0.10394163165E+03 -0.21137204996E+02 -0.23986208859E+04  0.24009649724E+04  0.00000000000E+00 0.  1.
<mgrwt>
<rscale>  2 0.10606905E+03</rscale>
<asrwt>0</asrwt>
<pdfrwt beam="1">  1       21 0.34302196E-02 0.10606905E+03</pdfrwt>
<pdfrwt beam="2">  1        1 0.38968294E+00 0.10606905E+03</pdfrwt>
<totfact> 0.92114598E+03</totfact>
</mgrwt>
</event>
<event>
 4    1  0.5045766E+003  0.1052007E+03  0.7546771E-02  0.1269725E+00
         21   -1    0    0  501  502  0.00000000000E+00  0.00000000000E+00  0.75113232949E+01  0.75113232949E+01  0.00000000000E+00 0.  1.
          2   -1    0    0  503    0 -0.00000000000E+00 -0.00000000000E+00 -0.15998566695E+04  0.15998566695E+04  0.00000000000E+00 0.  1.
         21    1    1    2  503  502 -0.53939516969E+02 -0.90320128009E+02 -0.57022253139E+03  0.57984561076E+03  0.00000000000E+00 0.  1.
          2    1    1    2  501    0  0.53939516969E+02  0.90320128009E+02 -0.10221228148E+04  0.10275223820E+04  0.00000000000E+00 0.  1.
<mgrwt>
<rscale>  2 0.10520075E+03</rscale>
<asrwt>0</asrwt>
<pdfrwt beam="1">  1       21 0.11555874E-02 0.10520075E+03</pdfrwt>
<pdfrwt beam="2">  1        2 0.24613196E+00 0.10520075E+03</pdfrwt>
<totfact> 0.45638301E+05</totfact>
</mgrwt>
</event>
<event>
 4    1  0.5045766E+003  0.1146916E+03  0.7546771E-02  0.1252120E+00
         21   -1    0    0  501  502  0.00000000000E+00  0.00000000000E+00  0.15262043113E+02  0.15262043113E+02  0.00000000000E+00 0.  1.
          1   -1    0    0  503    0 -0.00000000000E+00 -0.00000000000E+00 -0.89084804951E+03  0.89084804951E+03  0.00000000000E+00 0.  1.
         21    1    1    2  503  502 -0.18352486576E+02  0.11321369018E+03 -0.35610508116E+03  0.37411894129E+03  0.00000000000E+00 0.  1.
          1    1    1    2  501    0  0.18352486576E+02 -0.11321369018E+03 -0.51948092524E+03  0.53199115133E+03  0.00000000000E+00 0.  1.
<mgrwt>
<rscale>  2 0.11469156E+03</rscale>
<asrwt>0</asrwt>
<pdfrwt beam="1">  1       21 0.23480069E-02 0.11469156E+03</pdfrwt>
<pdfrwt beam="2">  1        1 0.13705353E+00 0.11469156E+03</pdfrwt>
<totfact> 0.20323636E+05</totfact>
</mgrwt>
</event>
<event>
 4    1  0.5045766E+003  0.1033301E+03  0.7546771E-02  0.1273445E+00
         -3   -1    0    0    0  501 -0.00000000000E+00  0.00000000000E+00  0.48282174861E+03  0.48282174861E+03  0.00000000000E+00 0. -1.
         21   -1    0    0  503  502  0.00000000000E+00 -0.00000000000E+00 -0.45769626246E+02  0.45769626246E+02  0.00000000000E+00 0.  1.
         21    1    1    2  503  501 -0.74573344363E+02  0.71525737097E+02  0.28519446124E+02  0.10719362651E+03  0.00000000000E+00 0.  1.
         -3    1    1    2    0  502  0.74573344363E+02 -0.71525737097E+02  0.40853267624E+03  0.42139774835E+03  0.00000000000E+00 0. -1.
<mgrwt>
<rscale>  2 0.10333013E+03</rscale>
<asrwt>0</asrwt>
<pdfrwt beam="2">  1       21 0.70414813E-02 0.10333013E+03</pdfrwt>
<pdfrwt beam="1">  1       -3 0.74280265E-01 0.10333013E+03</pdfrwt>
<totfact> 0.12444408E+04</totfact>
</mgrwt>
</event>
<event>
 4    1  0.5045766E+003  0.1202849E+03  0.7546771E-02  0.1242628E+00
          2   -1    0    0  503    0 -0.00000000000E+00  0.00000000000E+00  0.14450366231E+03  0.14450366231E+03  0.00000000000E+00 0.  1.
         21   -1    0    0  501  502  0.00000000000E+00 -0.00000000000E+00 -0.26483240408E+03  0.26483240408E+03  0.00000000000E+00 0.  1.
         21    1    1    2  503  502  0.89146574611E+02  0.80754792809E+02 -0.22157080437E+03  0.25211519129E+03  0.00000000000E+00 0.  1.
          2    1    1    2  501    0 -0.89146574611E+02 -0.80754792809E+02  0.10124206260E+03  0.15722087510E+03  0.00000000000E+00 0.  1.
<mgrwt>
<rscale>  2 0.12028486E+03</rscale>
<asrwt>0</asrwt>
<pdfrwt beam="2">  1       21 0.40743446E-01 0.12028486E+03</pdfrwt>
<pdfrwt beam="1">  1        2 0.22231333E-01 0.12028486E+03</pdfrwt>
<totfact> 0.17608787E+04</totfact>
</mgrwt>
</event>
<event>
 4    1  0.5045766E+003  0.1014681E+03  0.7546771E-02  0.1277239E+00
          1   -1    0    0  502    0 -0.00000000000E+00  0.00000000000E+00  0.10538657371E+03  0.10538657371E+03  0.00000000000E+00 0. -1.
         21   -1    0    0  503  502  0.00000000000E+00 -0.00000000000E+00 -0.99034752234E+02  0.99034752234E+02  0.00000000000E+00 0. -1.
         21    1    1    2  503  501  0.93269315769E+02 -0.39957655558E+02 -0.87106416323E+01  0.10184132157E+03  0.00000000000E+00 0. -1.
          1    1    1    2  501    0 -0.93269315769E+02  0.39957655558E+02  0.15062463104E+02  0.10258000437E+03  0.00000000000E+00 0. -1.
<mgrwt>
<rscale>  2 0.10146812E+03</rscale>
<asrwt>0</asrwt>
<pdfrwt beam="2">  1       21 0.15236116E-01 0.10146812E+03</pdfrwt>
<pdfrwt beam="1">  1        1 0.16213319E-01 0.10146812E+03</pdfrwt>
<totfact> 0.13354643E+05</totfact>
</mgrwt>
</event>
<event>
 4    1  0.5045766E+003  0.1631923E+03  0.7546771E-02  0.1185139E+00
         21   -1    0    0  501  502  0.00000000000E+00  0.00000000000E+00  0.62390909729E+02  0.62390909729E+02  0.00000000000E+00 0. -1.
          2   -1    0    0  503    0 -0.00000000000E+00 -0.00000000000E+00 -0.44092328011E+03  0.44092328011E+03  0.00000000000E+00 0. -1.
         21    1    1    2  503  502 -0.30771844316E+02  0.16026488850E+03 -0.14431092194E+03  0.21784715532E+03  0.00000000000E+00 0. -1.
          2    1    1    2  501    0  0.30771844316E+02 -0.16026488850E+03 -0.23422144843E+03  0.28546703451E+03  0.00000000000E+00 0. -1.
<mgrwt>
<rscale>  2 0.16319234E+03</rscale>
<asrwt>0</asrwt>
<pdfrwt beam="1">  1       21 0.95986015E-02 0.16319234E+03</pdfrwt>
<pdfrwt beam="2">  1        2 0.67834351E-01 0.16319234E+03</pdfrwt>
<totfact> 0.77999365E+04</totfact>
</mgrwt>
</event>
<event>
 4    1  0.5045766E+003  0.1157570E+03  0.7546771E-02  0.1250265E+00
          1   -1    0    0  503    0 -0.00000000000E+00  0.00000000000E+00  0.12835626059E+04  0.12835626059E+04  0.00000000000E+00 0. -1.
         21   -1    0    0  501  502  0.00000000000E+00 -0.00000000000E+00 -0.12516439737E+02  0.12516439737E+02  0.00000000000E+00 0.  1.
         21    1    1    2  503  502  0.95625745807E+02 -0.65233480499E+02  0.37153881194E+03  0.38915392716E+03  0.00000000000E+00 0.  1.
          1    1    1    2  501    0 -0.95625745807E+02  0.65233480499E+02  0.89950735426E+03  0.90692511852E+03  0.00000000000E+00 0. -1.
<mgrwt>
<rscale>  2 0.11575703E+03</rscale>
<asrwt>0</asrwt>
<pdfrwt beam="2">  1       21 0.19256071E-02 0.11575703E+03</pdfrwt>
<pdfrwt beam="1">  1        1 0.19747107E+00 0.11575703E+03</pdfrwt>
<totfact> 0.14762988E+05</totfact>
</mgrwt>
</event>
<event>
 4    1  0.5045766E+003  0.1856954E+03  0.7546771E-02  0.1162402E+00
          2   -1    0    0  503    0 -0.00000000000E+00  0.00000000000E+00  0.96379899872E+03  0.96379899872E+03  0.00000000000E+00 0.  1.
         21   -1    0    0  501  502  0.00000000000E+00 -0.00000000000E+00 -0.15682134734E+03  0.15682134734E+03  0.00000000000E+00 0.  1.
         21    1    1    2  503  502 -0.71520356816E+02  0.17136982876E+03 -0.88773295497E+02  0.20582389959E+03  0.00000000000E+00 0.  1.
          2    1    1    2  501    0  0.71520356816E+02 -0.17136982876E+03  0.89575094688E+03  0.91479644647E+03  0.00000000000E+00 0.  1.
<mgrwt>
<rscale>  2 0.18569539E+03</rscale>
<asrwt>0</asrwt>
<pdfrwt beam="2">  1       21 0.24126362E-01 0.18569539E+03</pdfrwt>
<pdfrwt beam="1">  1        2 0.14827677E+00 0.18569539E+03</pdfrwt>
<totfact> 0.57101224E+03</totfact>
</mgrwt>
</event>
<event>
 4    1  0.5045766E+003  0.1656198E+03  0.7546771E-02  0.1182494E+00
         21   -1    0    0  501  502  0.00000000000E+00  0.00000000000E+00  0.40771799074E+03  0.40771799074E+03  0.00000000000E+00 0. -1.
          2   -1    0    0  503    0 -0.00000000000E+00 -0.00000000000E+00 -0.96461331540E+03  0.96461331540E+03  0.00000000000E+00 0.  1.
         21    1    1    2  503  502  0.12489682062E+03  0.10876898442E+03  0.38335734878E+03  0.41760359749E+03  0.00000000000E+00 0. -1.
          2    1    1    2  501    0 -0.12489682062E+03 -0.10876898442E+03 -0.94025267343E+03  0.95472770865E+03  0.00000000000E+00 0.  1.
<mgrwt>
<rscale>  2 0.16561977E+03</rscale>
<asrwt>0</asrwt>
<pdfrwt beam="1">  1       21 0.62725846E-01 0.16561977E+03</pdfrwt>
<pdfrwt beam="2">  1        2 0.14840205E+00 0.16561977E+03</pdfrwt>
<totfact> 0.84133965E+02</totfact>
</mgrwt>
</event>
<event>
 4    1  0.5045766E+003  0.2479718E+03  0.7546771E-02  0.1114593E+00
          2   -1    0    0  502    0 -0.00000000000E+00  0.00000000000E+00  0.33399383246E+04  0.33399383246E+04  0.00000000000E+00 0.  1.
         21   -1    0    0  503  502  0.00000000000E+00 -0.00000000000E+00 -0.21686981519E+02  0.21686981519E+02  0.00000000000E+00 0.  1.
         21    1    1    2  503  501 -0.24452435206E+03  0.41204965885E+02  0.10058113807E+04  0.10359278651E+04  0.00000000000E+00 0.  1.
          2    1    1    2  501    0  0.24452435206E+03 -0.41204965885E+02  0.23124399623E+04  0.23256974410E+04  0.00000000000E+00 0.  1.
<mgrwt>
<rscale>  2 0.24797179E+03</rscale>
<asrwt>0</asrwt>
<pdfrwt beam="2">  1       21 0.33364613E-02 0.24797179E+03</pdfrwt>
<pdfrwt beam="1">  1        2 0.51383626E+00 0.24797179E+03</pdfrwt>
<totfact> 0.88074451E+03</totfact>
</mgrwt>
</event>
<event>
 4    1  0.5045766E+003  0.1253752E+03  0.7546771E-02  0.1234484E+00
         21   -1    0    0  501  502  0.00000000000E+00  0.00000000000E+00  0.66703654871E+03  0.66703654871E+03  0.00000000000E+00 0.  1.
         -2   -1    0    0    0  501 -0.00000000000E+00 -0.00000000000E+00 -0.37072242666E+02  0.37072242666E+02  0.00000000000E+00 0.  1.
         21    1    1    2  503  502  0.56233645914E+02  0.11205680751E+03  0.52748415917E+03  0.54217938841E+03  0.00000000000E+00 0.  1.
         -2    1    1    2    0  503 -0.56233645914E+02 -0.11205680751E+03  0.10248014688E+03  0.16192940297E+03  0.00000000000E+00 0.  1.
<mgrwt>
<rscale>  2 0.12537524E+03</rscale>
<asrwt>0</asrwt>
<pdfrwt beam="1">  1       21 0.10262100E+00 0.12537524E+03</pdfrwt>
<pdfrwt beam="2">  1       -2 0.57034224E-02 0.12537524E+03</pdfrwt>
<totfact> 0.96998944E+03</totfact>
</mgrwt>
</event>
<event>
 4    1  0.5045766E+003  0.1544607E+03  0.7546771E-02  0.1195096E+00
         21   -1    0    0  501  502  0.00000000000E+00  0.00000000000E+00  0.51282293503E+03  0.51282293503E+03  0.00000000000E+00 0. -1.
          4   -1    0    0  503    0 -0.00000000000E+00 -0.00000000000E+00 -0.48033356263E+02  0.48033356263E+02  0.00000000000E+00 0. -1.
         21    1    1    2  503  502 -0.60251198458E+02  0.14222477571E+03  0.28212047368E+03  0.32163652686E+03  0.00000000000E+00 0. -1.
          4    1    1    2  501    0  0.60251198458E+02 -0.14222477571E+03  0.18266910509E+03  0.23921976443E+03  0.00000000000E+00 0. -1.
<mgrwt>
<rscale>  2 0.15446065E+03</rscale>
<asrwt>0</asrwt>
<pdfrwt beam="1">  1       21 0.78895832E-01 0.15446065E+03</pdfrwt>
<pdfrwt beam="2">  1        4 0.73897475E-02 0.15446065E+03</pdfrwt>
<totfact> 0.74524273E+03</totfact>
</mgrwt>
</event>
<event>
 4    1  0.5045766E+003  0.1010913E+03  0.7546771E-02  0.1278018E+00
         21   -1    0    0  503  502  0.00000000000E+00  0.00000000000E+00  0.96978694201E+01  0.96978694201E+01  0.00000000000E+00 0.  1.
          2   -1    0    0  502    0 -0.00000000000E+00 -0.00000000000E+00 -0.26406807095E+04  0.26406807095E+04  0.00000000000E+00 0. -1.
         21    1    1    2  503  501 -0.78175931183E+02  0.64093427765E+02 -0.28819795536E+03  0.30541366239E+03  0.00000000000E+00 0.  1.
          2    1    1    2  501    0  0.78175931183E+02 -0.64093427765E+02 -0.23427848847E+04  0.23449649165E+04  0.00000000000E+00 0. -1.
<mgrwt>
<rscale>  2 0.10109126E+03</rscale>
<asrwt>0</asrwt>
<pdfrwt beam="1">  1       21 0.14919773E-02 0.10109126E+03</pdfrwt>
<pdfrwt beam="2">  1        2 0.40625929E+00 0.10109126E+03</pdfrwt>
<totfact> 0.88971231E+04</totfact>
</mgrwt>
</event>
<event>
 4    1  0.5045766E+003  0.1253066E+03  0.7546771E-02  0.1234591E+00
         21   -1    0    0  503  502  0.00000000000E+00  0.00000000000E+00  0.29926257667E+02  0.29926257667E+02  0.00000000000E+00 0.  1.
          2   -1    0    0  502    0 -0.00000000000E+00 -0.00000000000E+00 -0.32196066408E+04  0.32196066408E+04  0.00000000000E+00 0. -1.
         21    1    1    2  503  501 -0.11760574559E+03  0.43250859047E+02 -0.10834707265E+03  0.16565275837E+03  0.00000000000E+00 0.  1.
          2    1    1    2  501    0  0.11760574559E+03 -0.43250859047E+02 -0.30813333105E+04  0.30838801401E+04  0.00000000000E+00 0. -1.
<mgrwt>
<rscale>  2 0.12530662E+03</rscale>
<asrwt>0</asrwt>
<pdfrwt beam="1">  1       21 0.46040429E-02 0.12530662E+03</pdfrwt>
<pdfrwt beam="2">  1        2 0.49532374E+00 0.12530662E+03</pdfrwt>
<totfact> 0.65775883E+03</totfact>
</mgrwt>
</event>
<event>
 4    1  0.5045766E+003  0.1141434E+03  0.7546771E-02  0.1253084E+00
         21   -1    0    0  503  502  0.00000000000E+00  0.00000000000E+00  0.11598008897E+04  0.11598008897E+04  0.00000000000E+00 0. -1.
         -3   -1    0    0    0  501 -0.00000000000E+00 -0.00000000000E+00 -0.14087970503E+02  0.14087970503E+02  0.00000000000E+00 0.  1.
         21    1    1    2  503  501 -0.11136407940E+03  0.25035080459E+02  0.83705452689E+03  0.84480115673E+03  0.00000000000E+00 0. -1.
         -3    1    1    2    0  502  0.11136407940E+03 -0.25035080459E+02  0.30865839234E+03  0.32908770350E+03  0.00000000000E+00 0.  1.
<mgrwt>
<rscale>  2 0.11414339E+03</rscale>
<asrwt>0</asrwt>
<pdfrwt beam="1">  1       21 0.17843083E+00 0.11414339E+03</pdfrwt>
<pdfrwt beam="2">  1       -3 0.21673810E-02 0.11414339E+03</pdfrwt>
<totfact> 0.77281646E+03</totfact>
</mgrwt>
</event>
<event>
 4    1  0.5045766E+003  0.1490715E+03  0.7546771E-02  0.1201619E+00
         21   -1    0    0  501  502  0.00000000000E+00  0.00000000000E+00  0.48538354963E+02  0.48538354963E+02  0.00000000000E+00 0.  1.
          2   -1    0    0  503    0 -0.00000000000E+00 -0.00000000000E+00 -0.81835415673E+03  0.81835415673E+03  0.00000000000E+00 0.  1.
         21    1    1    2  503  502 -0.69606487789E+02  0.13182277082E+03 -0.97213171221E+02  0.17796827444E+03  0.00000000000E+00 0.  1.
          2    1    1    2  501    0  0.69606487789E+02 -0.13182277082E+03 -0.67260263055E+03  0.68892423725E+03  0.00000000000E+00 0.  1.
<mgrwt>
<rscale>  2 0.14907148E+03</rscale>
<asrwt>0</asrwt>
<pdfrwt beam="1">  1       21 0.74674404E-02 0.14907148E+03</pdfrwt>
<pdfrwt beam="2">  1        2 0.12590062E+00 0.14907148E+03</pdfrwt>
<totfact> 0.59072838E+04</totfact>
</mgrwt>
</event>
<event>
 4    1  0.5045766E+003  0.1284285E+03  0.7546771E-02  0.1229806E+00
          4   -1    0    0  503    0 -0.00000000000E+00  0.00000000000E+00  0.19329568696E+04  0.19329568696E+04  0.00000000000E+00 0.  1.
         21   -1    0    0  501  502  0.00000000000E+00 -0.00000000000E+00 -0.79971327753E+02  0.79971327753E+02  0.00000000000E+00 0.  1.
         21    1    1    2  503  502 -0.73562490882E+02 -0.10527320370E+03 -0.24761954576E+02  0.13079389083E+03  0.00000000000E+00 0.  1.
          4    1    1    2  501    0  0.73562490882E+02  0.10527320370E+03  0.18777474964E+04  0.18821343065E+04  0.00000000000E+00 0.  1.
<mgrwt>
<rscale>  2 0.12842853E+03</rscale>
<asrwt>0</asrwt>
<pdfrwt beam="2">  1       21 0.12303283E-01 0.12842853E+03</pdfrwt>
<pdfrwt beam="1">  1        4 0.29737795E+00 0.12842853E+03</pdfrwt>
<totfact> 0.93037894E+01</totfact>
</mgrwt>
</event>
<event>
 4    1  0.5045766E+003  0.2289670E+03  0.7546771E-02  0.1127369E+00
         21   -1    0    0  503  502  0.00000000000E+00  0.00000000000E+00  0.34845426958E+03  0.34845426958E+03  0.00000000000E+00 0. -1.
          1   -1    0    0  502    0 -0.00000000000E+00 -0.00000000000E+00 -0.79656286960E+03  0.79656286960E+03  0.00000000000E+00 0.  1.
         21    1    1    2  503  501 -0.22262566408E+03 -0.53513388602E+02  0.29156037201E+03  0.37072000161E+03  0.00000000000E+00 0. -1.
          1    1    1    2  501    0  0.22262566408E+03  0.53513388602E+02 -0.73966897203E+03  0.77429713757E+03  0.00000000000E+00 0.  1.
<mgrwt>
<rscale>  2 0.22896696E+03</rscale>
<asrwt>0</asrwt>
<pdfrwt beam="1">  1       21 0.53608349E-01 0.22896696E+03</pdfrwt>
<pdfrwt beam="2">  1        1 0.12254813E+00 0.22896696E+03</pdfrwt>
<totfact> 0.83673705E+02</totfact>
</mgrwt>
</event>
<event>
 4    1  0.5045766E+003  0.1006695E+03  0.7546771E-02  0.1278894E+00
         21   -1    0    0  503  502  0.00000000000E+00  0.00000000000E+00  0.37860268902E+02  0.37860268902E+02  0.00000000000E+00 0. -1.
          2   -1    0    0  502    0 -0.00000000000E+00 -0.00000000000E+00 -0.45411258100E+03  0.45411258100E+03  0.00000000000E+00 0. -1.
         21    1    1    2  503  501  0.57060131368E+02 -0.82936692676E+02 -0.50512864361E+02  0.11263171423E+03  0.00000000000E+00 0. -1.
          2    1    1    2  501    0 -0.57060131368E+02  0.82936692676E+02 -0.36573944774E+03  0.37934113567E+03  0.00000000000E+00 0. -1.
<mgrwt>
<rscale>  2 0.10066953E+03</rscale>
<asrwt>0</asrwt>
<pdfrwt beam="1">  1       21 0.58246568E-02 0.10066953E+03</pdfrwt>
<pdfrwt beam="2">  1        2 0.69863474E-01 0.10066953E+03</pdfrwt>
<totfact> 0.17549645E+05</totfact>
</mgrwt>
</event>
<event>
 4    1  0.5045766E+003  0.2000960E+03  0.7546771E-02  0.1149658E+00
         21   -1    0    0  501  502  0.00000000000E+00  0.00000000000E+00  0.59506587269E+02  0.59506587269E+02  0.00000000000E+00 0. -1.
          2   -1    0    0  503    0 -0.00000000000E+00 -0.00000000000E+00 -0.98124437733E+03  0.98124437733E+03  0.00000000000E+00 0.  1.
         21    1    1    2  503  502  0.80024676367E+02  0.18339696610E+03 -0.16913378849E+03  0.26200121071E+03  0.00000000000E+00 0. -1.
          2    1    1    2  501    0 -0.80024676367E+02 -0.18339696610E+03 -0.75260400158E+03  0.77874975390E+03  0.00000000000E+00 0.  1.
<mgrwt>
<rscale>  2 0.20009597E+03</rscale>
<asrwt>0</asrwt>
<pdfrwt beam="1">  1       21 0.91548604E-02 0.20009597E+03</pdfrwt>
<pdfrwt beam="2">  1        2 0.15096066E+00 0.20009597E+03</pdfrwt>
<totfact> 0.32456037E+04</totfact>
</mgrwt>
</event>
<event>
 4    1  0.5045766E+003  0.1138579E+03  0.7546771E-02  0.1253588E+00
          2   -1    0    0  502    0 -0.00000000000E+00  0.00000000000E+00  0.62102015810E+02  0.62102015810E+02  0.00000000000E+00 0.  1.
         21   -1    0    0  503  502  0.00000000000E+00 -0.00000000000E+00 -0.64840092696E+03  0.64840092696E+03  0.00000000000E+00 0.  1.
         21    1    1    2  503  501  0.99096468279E+02 -0.56066946726E+02 -0.58567885930E+03  0.59664339331E+03  0.00000000000E+00 0.  1.
          2    1    1    2  501    0 -0.99096468279E+02  0.56066946726E+02 -0.62005184889E+00  0.11385954947E+03  0.00000000000E+00 0.  1.
<mgrwt>
<rscale>  2 0.11385786E+03</rscale>
<asrwt>0</asrwt>
<pdfrwt beam="2">  1       21 0.99753990E-01 0.11385786E+03</pdfrwt>
<pdfrwt beam="1">  1        2 0.95541561E-02 0.11385786E+03</pdfrwt>
<totfact> 0.69230662E+03</totfact>
</mgrwt>
</event>
<event>
 4    1  0.5045766E+003  0.2123465E+03  0.7546771E-02  0.1139721E+00
         21   -1    0    0  503  502  0.00000000000E+00  0.00000000000E+00  0.66349717244E+02  0.66349717244E+02  0.00000000000E+00 0.  1.
          2   -1    0    0  502    0 -0.00000000000E+00 -0.00000000000E+00 -0.91269583777E+03  0.91269583777E+03  0.00000000000E+00 0.  1.
         21    1    1    2  503  501 -0.11722181040E+03 -0.17705952357E+03 -0.17578399478E+03  0.27566472488E+03  0.00000000000E+00 0.  1.
          2    1    1    2  501    0  0.11722181040E+03  0.17705952357E+03 -0.67056212575E+03  0.70338083014E+03  0.00000000000E+00 0.  1.
<mgrwt>
<rscale>  2 0.21234648E+03</rscale>
<asrwt>0</asrwt>
<pdfrwt beam="1">  1       21 0.10207649E-01 0.21234648E+03</pdfrwt>
<pdfrwt beam="2">  1        2 0.14041475E+00 0.21234648E+03</pdfrwt>
<totfact> 0.29496264E+04</totfact>
</mgrwt>
</event>
<event>
 4    1  0.5045766E+003  0.1185833E+03  0.7546771E-02  0.1245453E+00
         21   -1    0    0  501  502  0.00000000000E+00  0.00000000000E+00  0.60056486597E+03  0.60056486597E+03  0.00000000000E+00 0.  1.
          1   -1    0    0  503    0 -0.00000000000E+00 -0.00000000000E+00 -0.34498365038E+03  0.34498365038E+03  0.00000000000E+00 0.  1.
         21    1    1    2  503  502 -0.11130490504E+03  0.40904908699E+02  0.58423899673E+03  0.59615199298E+03  0.00000000000E+00 0.  1.
          1    1    1    2  501    0  0.11130490504E+03 -0.40904908699E+02 -0.32865778114E+03  0.34939652337E+03  0.00000000000E+00 0.  1.
<mgrwt>
<rscale>  2 0.11858328E+03</rscale>
<asrwt>0</asrwt>
<pdfrwt beam="1">  1       21 0.92394595E-01 0.11858328E+03</pdfrwt>
<pdfrwt beam="2">  1        1 0.53074408E-01 0.11858328E+03</pdfrwt>
<totfact> 0.83417541E+02</totfact>
</mgrwt>
</event>
<event>
 4    1  0.5045766E+003  0.1073371E+03  0.7546771E-02  0.1265582E+00
         21   -1    0    0  503  502  0.00000000000E+00  0.00000000000E+00  0.18504007040E+04  0.18504007040E+04  0.00000000000E+00 0.  1.
          4   -1    0    0  502    0 -0.00000000000E+00 -0.00000000000E+00 -0.20464466385E+02  0.20464466385E+02  0.00000000000E+00 0. -1.
         21    1    1    2  503  501  0.10506762396E+03 -0.21955791785E+02  0.16952263996E+04  0.16986211491E+04  0.00000000000E+00 0.  1.
          4    1    1    2  501    0 -0.10506762396E+03  0.21955791785E+02  0.13470983802E+03  0.17224402125E+03  0.00000000000E+00 0. -1.
<mgrwt>
<rscale>  2 0.10733714E+03</rscale>
<asrwt>0</asrwt>
<pdfrwt beam="1">  1       21 0.28467690E+00 0.10733714E+03</pdfrwt>
<pdfrwt beam="2">  1        4 0.31483809E-02 0.10733714E+03</pdfrwt>
<totfact> 0.92106069E+02</totfact>
</mgrwt>
</event>
<event>
 4    1  0.5045766E+003  0.1330203E+03  0.7546771E-02  0.1223042E+00
         -2   -1    0    0    0  501 -0.00000000000E+00  0.00000000000E+00  0.45412423325E+02  0.45412423325E+02  0.00000000000E+00 0. -1.
         21   -1    0    0  503  502  0.00000000000E+00 -0.00000000000E+00 -0.11526058260E+04  0.11526058260E+04  0.00000000000E+00 0. -1.
         21    1    1    2  503  501  0.78943886119E+02 -0.10706200605E+03 -0.10409524765E+04  0.10494172043E+04  0.00000000000E+00 0. -1.
         -2    1    1    2    0  502 -0.78943886119E+02  0.10706200605E+03 -0.66240926201E+02  0.14860104508E+03  0.00000000000E+00 0. -1.
<mgrwt>
<rscale>  2 0.13302034E+03</rscale>
<asrwt>0</asrwt>
<pdfrwt beam="2">  1       21 0.17732397E+00 0.13302034E+03</pdfrwt>
<pdfrwt beam="1">  1       -2 0.69865267E-02 0.13302034E+03</pdfrwt>
<totfact> 0.17853529E+03</totfact>
</mgrwt>
</event>
<event>
 4    1  0.5045766E+003  0.1202933E+03  0.7546771E-02  0.1242614E+00
         21   -1    0    0  503  502  0.00000000000E+00  0.00000000000E+00  0.49951638384E+02  0.49951638384E+02  0.00000000000E+00 0. -1.
          1   -1    0    0  502    0 -0.00000000000E+00 -0.00000000000E+00 -0.20450785211E+04  0.20450785211E+04  0.00000000000E+00 0.  1.
         21    1    1    2  503  501 -0.46032624076E+02 -0.11113723977E+03 -0.27071528185E+02  0.12330189042E+03  0.00000000000E+00 0. -1.
          1    1    1    2  501    0  0.46032624076E+02  0.11113723977E+03 -0.19680553545E+04  0.19717282691E+04  0.00000000000E+00 0.  1.
<mgrwt>
<rscale>  2 0.12029334E+03</rscale>
<asrwt>0</asrwt>
<pdfrwt beam="1">  1       21 0.76848695E-02 0.12029334E+03</pdfrwt>
<pdfrwt beam="2">  1        1 0.31462738E+00 0.12029334E+03</pdfrwt>
<totfact> 0.48386793E+03</totfact>
</mgrwt>
</event>
<event>
 4    1  0.5045766E+003  0.1006786E+03  0.7546771E-02  0.1278875E+00
         21   -1    0    0  503  502  0.00000000000E+00  0.00000000000E+00  0.68536797378E+03  0.68536797378E+03  0.00000000000E+00 0.  1.
         -4   -1    0    0    0  501 -0.00000000000E+00 -0.00000000000E+00 -0.18147913154E+02  0.18147913154E+02  0.00000000000E+00 0.  1.
         21    1    1    2  503  501  0.86438268548E+02 -0.51619838439E+02  0.48493270580E+03  0.49527357203E+03  0.00000000000E+00 0.  1.
         -4    1    1    2    0  502 -0.86438268548E+02  0.51619838439E+02  0.18228735483E+03  0.20824231491E+03  0.00000000000E+00 0.  1.
<mgrwt>
<rscale>  2 0.10067861E+03</rscale>
<asrwt>0</asrwt>
<pdfrwt beam="1">  1       21 0.10544121E+00 0.10067861E+03</pdfrwt>
<pdfrwt beam="2">  1       -4 0.27919872E-02 0.10067861E+03</pdfrwt>
<totfact> 0.17621843E+04</totfact>
</mgrwt>
</event>
<event>
 4    1  0.5045766E+003  0.1200349E+03  0.7546771E-02  0.1243040E+00
          2   -1    0    0  502    0 -0.00000000000E+00  0.00000000000E+00  0.76621132551E+03  0.76621132551E+03  0.00000000000E+00 0.  1.
         21   -1    0    0  503  502  0.00000000000E+00 -0.00000000000E+00 -0.59123505731E+02  0.59123505731E+02  0.00000000000E+00 0.  1.
         21    1    1    2  503  501  0.31090657854E+02  0.11593850961E+03  0.12764011577E+02  0.12071158606E+03  0.00000000000E+00 0.  1.
          2    1    1    2  501    0 -0.31090657854E+02 -0.11593850961E+03  0.69432380820E+03  0.70462324518E+03  0.00000000000E+00 0.  1.
<mgrwt>
<rscale>  2 0.12003486E+03</rscale>
<asrwt>0</asrwt>
<pdfrwt beam="2">  1       21 0.90959245E-02 0.12003486E+03</pdfrwt>
<pdfrwt beam="1">  1        2 0.11787866E+00 0.12003486E+03</pdfrwt>
<totfact> 0.45570234E+04</totfact>
</mgrwt>
</event>
<event>
 4    1  0.5045766E+003  0.1005977E+03  0.7546771E-02  0.1279044E+00
         -1   -1    0    0    0  501 -0.00000000000E+00  0.00000000000E+00  0.90966292751E+03  0.90966292751E+03  0.00000000000E+00 0. -1.
         21   -1    0    0  503  502  0.00000000000E+00 -0.00000000000E+00 -0.40717214663E+03  0.40717214663E+03  0.00000000000E+00 0. -1.
         21    1    1    2  503  501  0.18388743767E+02  0.98902708803E+02 -0.39811511161E+03  0.41062821846E+03  0.00000000000E+00 0. -1.
         -1    1    1    2    0  502 -0.18388743767E+02 -0.98902708803E+02  0.90060589248E+03  0.90620685568E+03  0.00000000000E+00 0. -1.
<mgrwt>
<rscale>  2 0.10059767E+03</rscale>
<asrwt>0</asrwt>
<pdfrwt beam="2">  1       21 0.62641869E-01 0.10059767E+03</pdfrwt>
<pdfrwt beam="1">  1       -1 0.13994814E+00 0.10059767E+03</pdfrwt>
<totfact> 0.10973485E+02</totfact>
</mgrwt>
</event>
<event>
 4    1  0.5045766E+003  0.2406846E+03  0.7546771E-02  0.1119338E+00
         21   -1    0    0  501  502  0.00000000000E+00  0.00000000000E+00  0.23263825092E+03  0.23263825092E+03  0.00000000000E+00 0. -1.
          3   -1    0    0  503    0 -0.00000000000E+00 -0.00000000000E+00 -0.31366378055E+03  0.31366378055E+03  0.00000000000E+00 0.  1.
         21    1    1    2  503  502 -0.13231136974E+03 -0.20105414023E+03  0.83501106978E+02  0.25475772949E+03  0.00000000000E+00 0. -1.
          3    1    1    2  501    0  0.13231136974E+03  0.20105414023E+03 -0.16452663660E+03  0.29154430198E+03  0.00000000000E+00 0.  1.
<mgrwt>
<rscale>  2 0.24068458E+03</rscale>
<asrwt>0</asrwt>
<pdfrwt beam="1">  1       21 0.35790500E-01 0.24068458E+03</pdfrwt>
<pdfrwt beam="2">  1        3 0.48255966E-01 0.24068458E+03</pdfrwt>
<totfact> 0.15902449E+03</totfact>
</mgrwt>
</event>
<event>
 4    1  0.5045766E+003  0.1080784E+03  0.7546771E-02  0.1264170E+00
          1   -1    0    0  503    0 -0.00000000000E+00  0.00000000000E+00  0.67614127219E+03  0.67614127219E+03  0.00000000000E+00 0. -1.
         21   -1    0    0  501  502  0.00000000000E+00 -0.00000000000E+00 -0.21532489177E+02  0.21532489177E+02  0.00000000000E+00 0. -1.
         21    1    1    2  503  502 -0.99828191958E+02  0.41415847688E+02  0.17220617752E+03  0.20331234081E+03  0.00000000000E+00 0. -1.
          1    1    1    2  501    0  0.99828191958E+02 -0.41415847688E+02  0.48240260550E+03  0.49436142056E+03  0.00000000000E+00 0. -1.
<mgrwt>
<rscale>  2 0.10807840E+03</rscale>
<asrwt>0</asrwt>
<pdfrwt beam="2">  1       21 0.33126912E-02 0.10807840E+03</pdfrwt>
<pdfrwt beam="1">  1        1 0.10402172E+00 0.10807840E+03</pdfrwt>
<totfact> 0.17403502E+05</totfact>
</mgrwt>
</event>
<event>
 4    1  0.5045766E+003  0.1808887E+03  0.7546771E-02  0.1166946E+00
          2   -1    0    0  503    0 -0.00000000000E+00  0.00000000000E+00  0.24149773537E+04  0.24149773537E+04  0.00000000000E+00 0. -1.
         21   -1    0    0  501  502  0.00000000000E+00 -0.00000000000E+00 -0.14479356025E+02  0.14479356025E+02  0.00000000000E+00 0. -1.
         21    1    1    2  503  502  0.26280656762E+02  0.17896945080E+03  0.89234954008E+03  0.91049900545E+03  0.00000000000E+00 0. -1.
          2    1    1    2  501    0 -0.26280656762E+02 -0.17896945080E+03  0.15081484576E+04  0.15189577043E+04  0.00000000000E+00 0. -1.
<mgrwt>
<rscale>  2 0.18088874E+03</rscale>
<asrwt>0</asrwt>
<pdfrwt beam="2">  1       21 0.22275952E-02 0.18088874E+03</pdfrwt>
<pdfrwt beam="1">  1        2 0.37153466E+00 0.18088874E+03</pdfrwt>
<totfact> 0.60351535E+04</totfact>
</mgrwt>
</event>
<event>
 4    1  0.5045766E+003  0.1815060E+03  0.7546771E-02  0.1166353E+00
         21   -1    0    0  503  502  0.00000000000E+00  0.00000000000E+00  0.40127681778E+03  0.40127681778E+03  0.00000000000E+00 0.  1.
         -3   -1    0    0    0  501 -0.00000000000E+00 -0.00000000000E+00 -0.70548854913E+03  0.70548854913E+03  0.00000000000E+00 0.  1.
         21    1    1    2  503  501  0.70316698276E+02  0.16733201278E+03  0.36808213021E+03  0.41040089563E+03  0.00000000000E+00 0.  1.
         -3    1    1    2    0  502 -0.70316698276E+02 -0.16733201278E+03 -0.67229386156E+03  0.69636447127E+03  0.00000000000E+00 0.  1.
<mgrwt>
<rscale>  2 0.18150603E+03</rscale>
<asrwt>0</asrwt>
<pdfrwt beam="1">  1       21 0.61734895E-01 0.18150603E+03</pdfrwt>
<pdfrwt beam="2">  1       -3 0.10853670E+00 0.18150603E+03</pdfrwt>
<totfact> 0.90577364E+01</totfact>
</mgrwt>
</event>
<event>
 4    1  0.5045766E+003  0.1059915E+03  0.7546771E-02  0.1268178E+00
         21   -1    0    0  503  502  0.00000000000E+00  0.00000000000E+00  0.65439835940E+02  0.65439835940E+02  0.00000000000E+00 0.  1.
         -2   -1    0    0    0  501 -0.00000000000E+00 -0.00000000000E+00 -0.30039576885E+03  0.30039576885E+03  0.00000000000E+00 0.  1.
         21    1    1    2  503  501 -0.14070774824E+02 -0.10505332380E+03  0.22618097469E+01  0.10601558059E+03  0.00000000000E+00 0.  1.
         -2    1    1    2    0  502  0.14070774824E+02  0.10505332380E+03 -0.23721774266E+03  0.25982002420E+03  0.00000000000E+00 0.  1.
<mgrwt>
<rscale>  2 0.10599145E+03</rscale>
<asrwt>0</asrwt>
<pdfrwt beam="1">  1       21 0.10067667E-01 0.10599145E+03</pdfrwt>
<pdfrwt beam="2">  1       -2 0.46214732E-01 0.10599145E+03</pdfrwt>
<totfact> 0.28730283E+04</totfact>
</mgrwt>
</event>
<event>
 4    1  0.5045766E+003  0.1102657E+03  0.7546771E-02  0.1260079E+00
          2   -1    0    0  502    0 -0.00000000000E+00  0.00000000000E+00  0.24739164321E+03  0.24739164321E+03  0.00000000000E+00 0. -1.
         21   -1    0    0  503  502  0.00000000000E+00 -0.00000000000E+00 -0.46226081734E+03  0.46226081734E+03  0.00000000000E+00 0. -1.
         21    1    1    2  503  501  0.57615000249E+01  0.11011502894E+03 -0.44286862238E+03  0.45638923210E+03  0.00000000000E+00 0. -1.
          2    1    1    2  501    0 -0.57615000249E+01 -0.11011502894E+03  0.22799944826E+03  0.25326322845E+03  0.00000000000E+00 0. -1.
<mgrwt>
<rscale>  2 0.11026565E+03</rscale>
<asrwt>0</asrwt>
<pdfrwt beam="2">  1       21 0.71117048E-01 0.11026565E+03</pdfrwt>
<pdfrwt beam="1">  1        2 0.38060253E-01 0.11026565E+03</pdfrwt>
<totfact> 0.30930887E+03</totfact>
</mgrwt>
</event>
<event>
 4    1  0.5045766E+003  0.1371775E+03  0.7546771E-02  0.1217178E+00
         21   -1    0    0  501  502  0.00000000000E+00  0.00000000000E+00  0.62030218245E+01  0.62030218245E+01  0.00000000000E+00 0. -1.
          2   -1    0    0  503    0 -0.00000000000E+00 -0.00000000000E+00 -0.32729569590E+04  0.32729569590E+04  0.00000000000E+00 0.  1.
         21    1    1    2  503  502  0.91648237963E+02  0.10206996950E+03 -0.11900159279E+04  0.11978963172E+04  0.00000000000E+00 0. -1.
          2    1    1    2  501    0 -0.91648237963E+02 -0.10206996950E+03 -0.20767380093E+04  0.20812636636E+04  0.00000000000E+00 0.  1.
<mgrwt>
<rscale>  2 0.13717754E+03</rscale>
<asrwt>0</asrwt>
<pdfrwt beam="1">  1       21 0.95431137E-03 0.13717754E+03</pdfrwt>
<pdfrwt beam="2">  1        2 0.50353167E+00 0.13717754E+03</pdfrwt>
<totfact> 0.77483529E+04</totfact>
</mgrwt>
</event>
<event>
 4    1  0.5045766E+003  0.1126923E+03  0.7546771E-02  0.1255664E+00
         21   -1    0    0  501  502  0.00000000000E+00  0.00000000000E+00  0.17775026494E+02  0.17775026494E+02  0.00000000000E+00 0. -1.
          1   -1    0    0  503    0 -0.00000000000E+00 -0.00000000000E+00 -0.80122544229E+03  0.80122544229E+03  0.00000000000E+00 0. -1.
         21    1    1    2  503  502 -0.10637417571E+03 -0.37203327048E+02 -0.25696888766E+03  0.28059323232E+03  0.00000000000E+00 0. -1.
          1    1    1    2  501    0  0.10637417571E+03  0.37203327048E+02 -0.52648152814E+03  0.53840723646E+03  0.00000000000E+00 0. -1.
<mgrwt>
<rscale>  2 0.11269229E+03</rscale>
<asrwt>0</asrwt>
<pdfrwt beam="1">  1       21 0.27346195E-02 0.11269229E+03</pdfrwt>
<pdfrwt beam="2">  1        1 0.12326545E+00 0.11269229E+03</pdfrwt>
<totfact> 0.18658797E+05</totfact>
</mgrwt>
</event>
<event>
 4    1  0.5045766E+003  0.1056635E+03  0.7546771E-02  0.1268818E+00
          2   -1    0    0  502    0 -0.00000000000E+00  0.00000000000E+00  0.25293245545E+04  0.25293245545E+04  0.00000000000E+00 0. -1.
         21   -1    0    0  503  502  0.00000000000E+00 -0.00000000000E+00 -0.21795335977E+02  0.21795335977E+02  0.00000000000E+00 0.  1.
         21    1    1    2  503  501  0.96289713683E+02  0.43509434458E+02  0.11467213977E+03  0.15593100875E+03  0.00000000000E+00 0.  1.
          2    1    1    2  501    0 -0.96289713683E+02 -0.43509434458E+02  0.23928570787E+04  0.23951888817E+04  0.00000000000E+00 0. -1.
<mgrwt>
<rscale>  2 0.10566352E+03</rscale>
<asrwt>0</asrwt>
<pdfrwt beam="2">  1       21 0.33531306E-02 0.10566352E+03</pdfrwt>
<pdfrwt beam="1">  1        2 0.38912662E+00 0.10566352E+03</pdfrwt>
<totfact> 0.27592836E+04</totfact>
</mgrwt>
</event>
<event>
 4    1  0.5045766E+003  0.1276517E+03  0.7546771E-02  0.1230982E+00
          2   -1    0    0  503    0 -0.00000000000E+00  0.00000000000E+00  0.64297269198E+03  0.64297269198E+03  0.00000000000E+00 0. -1.
         21   -1    0    0  501  502  0.00000000000E+00 -0.00000000000E+00 -0.34656485702E+02  0.34656485702E+02  0.00000000000E+00 0.  1.
         21    1    1    2  503  502  0.12639156011E+03 -0.17892039784E+02  0.12851846397E+03  0.18114068327E+03  0.00000000000E+00 0.  1.
          2    1    1    2  501    0 -0.12639156011E+03  0.17892039784E+02  0.47979774231E+03  0.49648849441E+03  0.00000000000E+00 0. -1.
<mgrwt>
<rscale>  2 0.12765168E+03</rscale>
<asrwt>0</asrwt>
<pdfrwt beam="2">  1       21 0.53317675E-02 0.12765168E+03</pdfrwt>
<pdfrwt beam="1">  1        2 0.98918867E-01 0.12765168E+03</pdfrwt>
<totfact> 0.13985472E+05</totfact>
</mgrwt>
</event>
<event>
 4    1  0.5045766E+003  0.1173276E+03  0.7546771E-02  0.1247572E+00
         21   -1    0    0  503  502  0.00000000000E+00  0.00000000000E+00  0.10790165873E+03  0.10790165873E+03  0.00000000000E+00 0.  1.
         -1   -1    0    0    0  501 -0.00000000000E+00 -0.00000000000E+00 -0.27488833310E+03  0.27488833310E+03  0.00000000000E+00 0.  1.
         21    1    1    2  503  501 -0.10020744176E+03  0.61026409959E+02  0.56617175073E+02  0.13027378328E+03  0.00000000000E+00 0.  1.
         -1    1    1    2    0  502  0.10020744176E+03 -0.61026409959E+02 -0.22360384944E+03  0.25251620855E+03  0.00000000000E+00 0.  1.
<mgrwt>
<rscale>  2 0.11732755E+03</rscale>
<asrwt>0</asrwt>
<pdfrwt beam="1">  1       21 0.16600255E-01 0.11732755E+03</pdfrwt>
<pdfrwt beam="2">  1       -1 0.42290513E-01 0.11732755E+03</pdfrwt>
<totfact> 0.16771440E+04</totfact>
</mgrwt>
</event>
<event>
 4    1  0.5045766E+003  0.1773938E+03  0.7546771E-02  0.1170349E+00
         21   -1    0    0  501  502  0.00000000000E+00  0.00000000000E+00  0.80438306620E+03  0.80438306620E+03  0.00000000000E+00 0.  1.
         -2   -1    0    0    0  501 -0.00000000000E+00 -0.00000000000E+00 -0.18802039948E+03  0.18802039948E+03  0.00000000000E+00 0.  1.
         21    1    1    2  503  502  0.10545497345E+03  0.14264569650E+03  0.74975357363E+03  0.77045374119E+03  0.00000000000E+00 0.  1.
         -2    1    1    2    0  503 -0.10545497345E+03 -0.14264569650E+03 -0.13339090690E+03  0.22194972448E+03  0.00000000000E+00 0.  1.
<mgrwt>
<rscale>  2 0.17739376E+03</rscale>
<asrwt>0</asrwt>
<pdfrwt beam="1">  1       21 0.12375124E+00 0.17739376E+03</pdfrwt>
<pdfrwt beam="2">  1       -2 0.28926216E-01 0.17739376E+03</pdfrwt>
<totfact> 0.43235207E+02</totfact>
</mgrwt>
</event>
<event>
 4    1  0.5045766E+003  0.1207398E+03  0.7546771E-02  0.1241882E+00
          1   -1    0    0  502    0 -0.00000000000E+00  0.00000000000E+00  0.60942210680E+03  0.60942210680E+03  0.00000000000E+00 0. -1.
         21   -1    0    0  503  502  0.00000000000E+00 -0.00000000000E+00 -0.45365583071E+02  0.45365583071E+02  0.00000000000E+00 0.  1.
         21    1    1    2  503  501  0.96500491989E+02 -0.72565445857E+02  0.56934033525E+02  0.13348997363E+03  0.00000000000E+00 0.  1.
          1    1    1    2  501    0 -0.96500491989E+02  0.72565445857E+02  0.50712249021E+03  0.52129771624E+03  0.00000000000E+00 0. -1.
<mgrwt>
<rscale>  2 0.12073976E+03</rscale>
<asrwt>0</asrwt>
<pdfrwt beam="2">  1       21 0.69793209E-02 0.12073976E+03</pdfrwt>
<pdfrwt beam="1">  1        1 0.93757242E-01 0.12073976E+03</pdfrwt>
<totfact> 0.57947751E+04</totfact>
</mgrwt>
</event>
<event>
 4    1  0.5045766E+003  0.1127467E+03  0.7546771E-02  0.1255566E+00
          2   -1    0    0  503    0 -0.00000000000E+00  0.00000000000E+00  0.19219294710E+03  0.19219294710E+03  0.00000000000E+00 0. -1.
         21   -1    0    0  501  502  0.00000000000E+00 -0.00000000000E+00 -0.74809062301E+02  0.74809062301E+02  0.00000000000E+00 0. -1.
         21    1    1    2  503  502  0.96417479791E+02 -0.58442148168E+02  0.13248537081E+02  0.11352241552E+03  0.00000000000E+00 0. -1.
          2    1    1    2  501    0 -0.96417479791E+02  0.58442148168E+02  0.10413534772E+03  0.15347959387E+03  0.00000000000E+00 0. -1.
<mgrwt>
<rscale>  2 0.11274669E+03</rscale>
<asrwt>0</asrwt>
<pdfrwt beam="2">  1       21 0.11509087E-01 0.11274669E+03</pdfrwt>
<pdfrwt beam="1">  1        2 0.29568146E-01 0.11274669E+03</pdfrwt>
<totfact> 0.13599325E+05</totfact>
</mgrwt>
</event>
<event>
 4    1  0.5045766E+003  0.1081297E+03  0.7546771E-02  0.1264073E+00
          2   -1    0    0  503    0 -0.00000000000E+00  0.00000000000E+00  0.15928059812E+04  0.15928059812E+04  0.00000000000E+00 0.  1.
         21   -1    0    0  501  502  0.00000000000E+00 -0.00000000000E+00 -0.85429099919E+01  0.85429099919E+01  0.00000000000E+00 0. -1.
         21    1    1    2  503  502  0.62778369227E+02 -0.88039301636E+02  0.49174969445E+03  0.50349757126E+03  0.00000000000E+00 0. -1.
          2    1    1    2  501    0 -0.62778369227E+02  0.88039301636E+02  0.10925133767E+04  0.10978513199E+04  0.00000000000E+00 0.  1.
<mgrwt>
<rscale>  2 0.10812975E+03</rscale>
<asrwt>0</asrwt>
<pdfrwt beam="2">  1       21 0.13142951E-02 0.10812975E+03</pdfrwt>
<pdfrwt beam="1">  1        2 0.24504684E+00 0.10812975E+03</pdfrwt>
<totfact> 0.37588467E+05</totfact>
</mgrwt>
</event>
<event>
 4    1  0.5045766E+003  0.1005772E+03  0.7546771E-02  0.1279087E+00
         -1   -1    0    0    0  501 -0.00000000000E+00  0.00000000000E+00  0.39458130170E+02  0.39458130170E+02  0.00000000000E+00 0.  1.
         21   -1    0    0  501  502  0.00000000000E+00 -0.00000000000E+00 -0.73341122027E+03  0.73341122027E+03  0.00000000000E+00 0. -1.
         21    1    1    2  503  502 -0.99624382807E+02  0.13811739943E+02 -0.65863679187E+03  0.66627187050E+03  0.00000000000E+00 0. -1.
         -1    1    1    2    0  503  0.99624382807E+02 -0.13811739943E+02 -0.35316298231E+02  0.10659747995E+03  0.00000000000E+00 0.  1.
<mgrwt>
<rscale>  2 0.10057724E+03</rscale>
<asrwt>0</asrwt>
<pdfrwt beam="2">  1       21 0.11283250E+00 0.10057724E+03</pdfrwt>
<pdfrwt beam="1">  1       -1 0.60704815E-02 0.10057724E+03</pdfrwt>
<totfact> 0.72805579E+03</totfact>
</mgrwt>
</event>
<event>
 4    1  0.5045766E+003  0.1136311E+03  0.7546771E-02  0.1253990E+00
         21   -1    0    0  501  502  0.00000000000E+00  0.00000000000E+00  0.11659377972E+02  0.11659377972E+02  0.00000000000E+00 0.  1.
          2   -1    0    0  503    0 -0.00000000000E+00 -0.00000000000E+00 -0.14840989262E+04  0.14840989262E+04  0.00000000000E+00 0.  1.
         21    1    1    2  503  502 -0.41575425517E+01  0.11355497460E+03 -0.35944977399E+03  0.37698296704E+03  0.00000000000E+00 0.  1.
          2    1    1    2  501    0  0.41575425517E+01 -0.11355497460E+03 -0.11129897742E+04  0.11187753371E+04  0.00000000000E+00 0.  1.
<mgrwt>
<rscale>  2 0.11363106E+03</rscale>
<asrwt>0</asrwt>
<pdfrwt beam="1">  1       21 0.17937516E-02 0.11363106E+03</pdfrwt>
<pdfrwt beam="2">  1        2 0.22832277E+00 0.11363106E+03</pdfrwt>
<totfact> 0.26082939E+05</totfact>
</mgrwt>
</event>
<event>
 4    1  0.5045766E+003  0.1092228E+03  0.7546771E-02  0.1262016E+00
          2   -1    0    0  502    0 -0.00000000000E+00  0.00000000000E+00  0.26274851076E+03  0.26274851076E+03  0.00000000000E+00 0.  1.
         21   -1    0    0  503  502  0.00000000000E+00 -0.00000000000E+00 -0.16145802366E+04  0.16145802366E+04  0.00000000000E+00 0.  1.
         21    1    1    2  503  501  0.99203463611E+02 -0.45697769777E+02 -0.16012881644E+04  0.16050088470E+04  0.00000000000E+00 0.  1.
          2    1    1    2  501    0 -0.99203463611E+02  0.45697769777E+02  0.24945643862E+03  0.27231990035E+03  0.00000000000E+00 0.  1.
<mgrwt>
<rscale>  2 0.10922277E+03</rscale>
<asrwt>0</asrwt>
<pdfrwt beam="2">  1       21 0.24839696E+00 0.10922277E+03</pdfrwt>
<pdfrwt beam="1">  1        2 0.40422848E-01 0.10922277E+03</pdfrwt>
<totfact> 0.11908071E+02</totfact>
</mgrwt>
</event>
<event>
 4    1  0.5045766E+003  0.1919012E+03  0.7546771E-02  0.1156758E+00
         -1   -1    0    0    0  501 -0.00000000000E+00  0.00000000000E+00  0.44478200818E+03  0.44478200818E+03  0.00000000000E+00 0. -1.
         21   -1    0    0  501  502  0.00000000000E+00 -0.00000000000E+00 -0.48813942747E+03  0.48813942747E+03  0.00000000000E+00 0.  1.
         21    1    1    2  503  502 -0.57340892477E+02  0.18313410058E+03 -0.44674318846E+03  0.48621554190E+03  0.00000000000E+00 0.  1.
         -1    1    1    2    0  503  0.57340892477E+02 -0.18313410058E+03  0.40338576917E+03  0.44670589375E+03  0.00000000000E+00 0. -1.
<mgrwt>
<rscale>  2 0.19190122E+03</rscale>
<asrwt>0</asrwt>
<pdfrwt beam="2">  1       21 0.75098373E-01 0.19190122E+03</pdfrwt>
<pdfrwt beam="1">  1       -1 0.68428001E-01 0.19190122E+03</pdfrwt>
<totfact> 0.33136015E+02</totfact>
</mgrwt>
</event>
<event>
 4    1  0.5045766E+003  0.1105852E+03  0.7546771E-02  0.1259490E+00
         21   -1    0    0  503  502  0.00000000000E+00  0.00000000000E+00  0.18060291276E+03  0.18060291276E+03  0.00000000000E+00 0.  1.
         -3   -1    0    0    0  501 -0.00000000000E+00 -0.00000000000E+00 -0.23710259681E+03  0.23710259681E+03  0.00000000000E+00 0. -1.
         21    1    1    2  503  501 -0.10088631020E+03 -0.45288305880E+02  0.14827914780E+03  0.18497508996E+03  0.00000000000E+00 0.  1.
         -3    1    1    2    0  502  0.10088631020E+03  0.45288305880E+02 -0.20477883185E+03  0.23273041960E+03  0.00000000000E+00 0. -1.
<mgrwt>
<rscale>  2 0.11058516E+03</rscale>
<asrwt>0</asrwt>
<pdfrwt beam="1">  1       21 0.27785063E-01 0.11058516E+03</pdfrwt>
<pdfrwt beam="2">  1       -3 0.36477323E-01 0.11058516E+03</pdfrwt>
<totfact> 0.44487855E+03</totfact>
</mgrwt>
</event>
<event>
 4    1  0.5045766E+003  0.1178783E+03  0.7546771E-02  0.1246639E+00
          1   -1    0    0  503    0 -0.00000000000E+00  0.00000000000E+00  0.29871962328E+03  0.29871962328E+03  0.00000000000E+00 0.  1.
         21   -1    0    0  501  502  0.00000000000E+00 -0.00000000000E+00 -0.11342854536E+03  0.11342854536E+03  0.00000000000E+00 0. -1.
         21    1    1    2  503  502 -0.42401311890E+02  0.10998825597E+03 -0.65630610546E+02  0.13491725146E+03  0.00000000000E+00 0. -1.
          1    1    1    2  501    0  0.42401311890E+02 -0.10998825597E+03  0.25092168847E+03  0.27723091719E+03  0.00000000000E+00 0.  1.
<mgrwt>
<rscale>  2 0.11787827E+03</rscale>
<asrwt>0</asrwt>
<pdfrwt beam="2">  1       21 0.17450546E-01 0.11787827E+03</pdfrwt>
<pdfrwt beam="1">  1        1 0.45956865E-01 0.11787827E+03</pdfrwt>
<totfact> 0.28677589E+04</totfact>
</mgrwt>
</event>
<event>
 4    1  0.5045766E+003  0.1002541E+03  0.7546771E-02  0.1279762E+00
         21   -1    0    0  503  502  0.00000000000E+00  0.00000000000E+00  0.11507746877E+04  0.11507746877E+04  0.00000000000E+00 0. -1.
          3   -1    0    0  502    0 -0.00000000000E+00 -0.00000000000E+00 -0.17329268911E+02  0.17329268911E+02  0.00000000000E+00 0. -1.
         21    1    1    2  503  501 -0.33785768452E+02  0.94389673370E+02  0.97805293128E+03  0.98317771790E+03  0.00000000000E+00 0. -1.
          3    1    1    2  501    0  0.33785768452E+02 -0.94389673370E+02  0.15539248749E+03  0.18492623870E+03  0.00000000000E+00 0. -1.
<mgrwt>
<rscale>  2 0.10025412E+03</rscale>
<asrwt>0</asrwt>
<pdfrwt beam="1">  1       21 0.17704220E+00 0.10025412E+03</pdfrwt>
<pdfrwt beam="2">  1        3 0.26660423E-02 0.10025412E+03</pdfrwt>
<totfact> 0.57490930E+03</totfact>
</mgrwt>
</event>
<event>
 4    1  0.5045766E+003  0.1425933E+03  0.7546771E-02  0.1209882E+00
         21   -1    0    0  501  502  0.00000000000E+00  0.00000000000E+00  0.12534700037E+04  0.12534700037E+04  0.00000000000E+00 0. -1.
         -1   -1    0    0    0  501 -0.00000000000E+00 -0.00000000000E+00 -0.11727226821E+03  0.11727226821E+03  0.00000000000E+00 0.  1.
         21    1    1    2  503  502  0.92037363766E+02  0.10891264629E+03  0.12043059671E+04  0.12127183116E+04  0.00000000000E+00 0. -1.
         -1    1    1    2    0  503 -0.92037363766E+02 -0.10891264629E+03 -0.68108231547E+02  0.15802396038E+03  0.00000000000E+00 0.  1.
<mgrwt>
<rscale>  2 0.14259327E+03</rscale>
<asrwt>0</asrwt>
<pdfrwt beam="1">  1       21 0.19284153E+00 0.14259327E+03</pdfrwt>
<pdfrwt beam="2">  1       -1 0.18041888E-01 0.14259327E+03</pdfrwt>
<totfact> 0.33547585E+02</totfact>
</mgrwt>
</event>
<event>
 4    1  0.5045766E+003  0.3900068E+03  0.7546771E-02  0.1047296E+00
          2   -1    0    0  502    0 -0.00000000000E+00  0.00000000000E+00  0.90872765699E+03  0.90872765699E+03  0.00000000000E+00 0. -1.
         21   -1    0    0  503  502  0.00000000000E+00 -0.00000000000E+00 -0.26243781179E+03  0.26243781179E+03  0.00000000000E+00 0. -1.
         21    1    1    2  503  501  0.13978067671E+03  0.36409709723E+03 -0.29276812171E+02  0.39110416199E+03  0.00000000000E+00 0. -1.
          2    1    1    2  501    0 -0.13978067671E+03 -0.36409709723E+03  0.67556665737E+03  0.78006130679E+03  0.00000000000E+00 0. -1.
<mgrwt>
<rscale>  2 0.39000684E+03</rscale>
<asrwt>0</asrwt>
<pdfrwt beam="2">  1       21 0.40375048E-01 0.39000684E+03</pdfrwt>
<pdfrwt beam="1">  1        2 0.13980425E+00 0.39000684E+03</pdfrwt>
<totfact> 0.21013570E+03</totfact>
</mgrwt>
</event>
<event>
 4    1  0.5045766E+003  0.1082505E+03  0.7546771E-02  0.1263844E+00
         21   -1    0    0  501  502  0.00000000000E+00  0.00000000000E+00  0.11732930120E+03  0.11732930120E+03  0.00000000000E+00 0. -1.
          1   -1    0    0  503    0 -0.00000000000E+00 -0.00000000000E+00 -0.47847065633E+03  0.47847065633E+03  0.00000000000E+00 0. -1.
         21    1    1    2  503  502  0.15571117451E+02  0.10712471224E+03  0.84420321013E+02  0.13727692549E+03  0.00000000000E+00 0. -1.
          1    1    1    2  501    0 -0.15571117451E+02 -0.10712471224E+03 -0.44556167614E+03  0.45852303204E+03  0.00000000000E+00 0. -1.
<mgrwt>
<rscale>  2 0.10825047E+03</rscale>
<asrwt>0</asrwt>
<pdfrwt beam="1">  1       21 0.18050661E-01 0.10825047E+03</pdfrwt>
<pdfrwt beam="2">  1        1 0.73610872E-01 0.10825047E+03</pdfrwt>
<totfact> 0.14973939E+04</totfact>
</mgrwt>
</event>
<event>
 4    1  0.5045766E+003  0.1066568E+03  0.7546771E-02  0.1266889E+00
         -3   -1    0    0    0  501 -0.00000000000E+00  0.00000000000E+00  0.65474669239E+03  0.65474669239E+03  0.00000000000E+00 0. -1.
         21   -1    0    0  501  502  0.00000000000E+00 -0.00000000000E+00 -0.34225054293E+02  0.34225054293E+02  0.00000000000E+00 0. -1.
         21    1    1    2  503  502 -0.61920291579E+02  0.86842158356E+02  0.68541901600E+02  0.12678199893E+03  0.00000000000E+00 0. -1.
         -3    1    1    2    0  503  0.61920291579E+02 -0.86842158356E+02  0.55197973650E+03  0.56218974776E+03  0.00000000000E+00 0. -1.
<mgrwt>
<rscale>  2 0.10665685E+03</rscale>
<asrwt>0</asrwt>
<pdfrwt beam="2">  1       21 0.52653935E-02 0.10665685E+03</pdfrwt>
<pdfrwt beam="1">  1       -3 0.10073025E+00 0.10665685E+03</pdfrwt>
<totfact> 0.10455135E+04</totfact>
</mgrwt>
</event>
<event>
 4    1  0.5045766E+003  0.1057816E+03  0.7546771E-02  0.1268587E+00
         21   -1    0    0  501  502  0.00000000000E+00  0.00000000000E+00  0.98194986262E+03  0.98194986262E+03  0.00000000000E+00 0.  1.
          1   -1    0    0  503    0 -0.00000000000E+00 -0.00000000000E+00 -0.11765136010E+03  0.11765136010E+03  0.00000000000E+00 0. -1.
         21    1    1    2  503  502  0.10449744950E+03  0.16432685997E+02  0.95464566244E+03  0.96048846476E+03  0.00000000000E+00 0.  1.
          1    1    1    2  501    0 -0.10449744950E+03 -0.16432685997E+02 -0.90347159919E+02  0.13911275796E+03  0.00000000000E+00 0. -1.
<mgrwt>
<rscale>  2 0.10578162E+03</rscale>
<asrwt>0</asrwt>
<pdfrwt beam="1">  1       21 0.15106920E+00 0.10578162E+03</pdfrwt>
<pdfrwt beam="2">  1        1 0.18100210E-01 0.10578162E+03</pdfrwt>
<totfact> 0.97422513E+02</totfact>
</mgrwt>
</event>
<event>
 4    1  0.5045766E+003  0.1063965E+03  0.7546771E-02  0.1267392E+00
          2   -1    0    0  503    0 -0.00000000000E+00  0.00000000000E+00  0.22273075394E+03  0.22273075394E+03  0.00000000000E+00 0.  1.
         21   -1    0    0  501  502  0.00000000000E+00 -0.00000000000E+00 -0.18240618006E+04  0.18240618006E+04  0.00000000000E+00 0. -1.
         21    1    1    2  503  502  0.92821486128E+02  0.52003762297E+02 -0.18097033923E+04  0.18128283393E+04  0.00000000000E+00 0. -1.
          2    1    1    2  501    0 -0.92821486128E+02 -0.52003762297E+02  0.20837234566E+03  0.23396421524E+03  0.00000000000E+00 0.  1.
<mgrwt>
<rscale>  2 0.10639652E+03</rscale>
<asrwt>0</asrwt>
<pdfrwt beam="2">  1       21 0.28062488E+00 0.10639652E+03</pdfrwt>
<pdfrwt beam="1">  1        2 0.34266271E-01 0.10639652E+03</pdfrwt>
<totfact> 0.94110716E+01</totfact>
</mgrwt>
</event>
<event>
 4    1  0.5045766E+003  0.1046709E+03  0.7546771E-02  0.1270769E+00
          1   -1    0    0  503    0 -0.00000000000E+00  0.00000000000E+00  0.75071713438E+03  0.75071713438E+03  0.00000000000E+00 0.  1.
         21   -1    0    0  501  502  0.00000000000E+00 -0.00000000000E+00 -0.81135500256E+02  0.81135500256E+02  0.00000000000E+00 0.  1.
         21    1    1    2  503  502 -0.48685206129E+02  0.92659362361E+02 -0.41875736336E+02  0.11273679090E+03  0.00000000000E+00 0.  1.
          1    1    1    2  501    0  0.48685206129E+02 -0.92659362361E+02  0.71145737046E+03  0.71911584374E+03  0.00000000000E+00 0.  1.
<mgrwt>
<rscale>  2 0.10467095E+03</rscale>
<asrwt>0</asrwt>
<pdfrwt beam="2">  1       21 0.12482385E-01 0.10467095E+03</pdfrwt>
<pdfrwt beam="1">  1        1 0.11549494E+00 0.10467095E+03</pdfrwt>
<totfact> 0.15776810E+04</totfact>
</mgrwt>
</event>
<event>
 4    1  0.5045766E+003  0.1350850E+03  0.7546771E-02  0.1220100E+00
          2   -1    0    0  502    0 -0.00000000000E+00  0.00000000000E+00  0.12001489974E+04  0.12001489974E+04  0.00000000000E+00 0.  1.
         21   -1    0    0  503  502  0.00000000000E+00 -0.00000000000E+00 -0.10972113928E+03  0.10972113928E+03  0.00000000000E+00 0. -1.
         21    1    1    2  503  501  0.13496696578E+03  0.56453581149E+01 -0.62650427230E+02  0.14890610448E+03  0.00000000000E+00 0. -1.
          2    1    1    2  501    0 -0.13496696578E+03 -0.56453581149E+01  0.11530782853E+04  0.11609640322E+04  0.00000000000E+00 0.  1.
<mgrwt>
<rscale>  2 0.13508498E+03</rscale>
<asrwt>0</asrwt>
<pdfrwt beam="2">  1       21 0.16880176E-01 0.13508498E+03</pdfrwt>
<pdfrwt beam="1">  1        2 0.18463830E+00 0.13508498E+03</pdfrwt>
<totfact> 0.82512516E+03</totfact>
</mgrwt>
</event>
<event>
 4    1  0.5045766E+003  0.1088734E+03  0.7546771E-02  0.1262671E+00
         21   -1    0    0  501  502  0.00000000000E+00  0.00000000000E+00  0.13578670618E+03  0.13578670618E+03  0.00000000000E+00 0.  1.
          1   -1    0    0  503    0 -0.00000000000E+00 -0.00000000000E+00 -0.65195681097E+03  0.65195681097E+03  0.00000000000E+00 0.  1.
         21    1    1    2  503  502 -0.10645628819E+03  0.22813889827E+02  0.10847056523E+03  0.15368564795E+03  0.00000000000E+00 0.  1.
          1    1    1    2  501    0  0.10645628819E+03 -0.22813889827E+02 -0.62464067001E+03  0.63405786920E+03  0.00000000000E+00 0.  1.
<mgrwt>
<rscale>  2 0.10887339E+03</rscale>
<asrwt>0</asrwt>
<pdfrwt beam="1">  1       21 0.20890262E-01 0.10887339E+03</pdfrwt>
<pdfrwt beam="2">  1        1 0.10030105E+00 0.10887339E+03</pdfrwt>
<totfact> 0.75934537E+03</totfact>
</mgrwt>
</event>
<event>
 4    1  0.5045766E+003  0.1131759E+03  0.7546771E-02  0.1254799E+00
          2   -1    0    0  502    0 -0.00000000000E+00  0.00000000000E+00  0.14105317571E+04  0.14105317571E+04  0.00000000000E+00 0. -1.
         21   -1    0    0  503  502  0.00000000000E+00 -0.00000000000E+00 -0.10379671371E+02  0.10379671371E+02  0.00000000000E+00 0. -1.
         21    1    1    2  503  501  0.10002307086E+03  0.52954320401E+02  0.44875656331E+03  0.46280798164E+03  0.00000000000E+00 0. -1.
          2    1    1    2  501    0 -0.10002307086E+03 -0.52954320401E+02  0.95139552242E+03  0.95810344684E+03  0.00000000000E+00 0. -1.
<mgrwt>
<rscale>  2 0.11317586E+03</rscale>
<asrwt>0</asrwt>
<pdfrwt beam="2">  1       21 0.15968736E-02 0.11317586E+03</pdfrwt>
<pdfrwt beam="1">  1        2 0.21700473E+00 0.11317586E+03</pdfrwt>
<totfact> 0.34301525E+05</totfact>
</mgrwt>
</event>
<event>
 4    1  0.5045766E+003  0.1310485E+03  0.7546771E-02  0.1225908E+00
         -1   -1    0    0    0  501 -0.00000000000E+00  0.00000000000E+00  0.34089244191E+03  0.34089244191E+03  0.00000000000E+00 0. -1.
         21   -1    0    0  503  502  0.00000000000E+00 -0.00000000000E+00 -0.51564317752E+02  0.51564317752E+02  0.00000000000E+00 0. -1.
         21    1    1    2  503  501 -0.12785903145E+03  0.28736373907E+02  0.17441928881E+03  0.21816461541E+03  0.00000000000E+00 0. -1.
         -1    1    1    2    0  502  0.12785903145E+03 -0.28736373907E+02  0.11490883535E+03  0.17429214426E+03  0.00000000000E+00 0. -1.
<mgrwt>
<rscale>  2 0.13104851E+03</rscale>
<asrwt>0</asrwt>
<pdfrwt beam="2">  1       21 0.79329722E-02 0.13104851E+03</pdfrwt>
<pdfrwt beam="1">  1       -1 0.52444990E-01 0.13104851E+03</pdfrwt>
<totfact> 0.42014097E+04</totfact>
</mgrwt>
</event>
<event>
 4    1  0.5045766E+003  0.1865341E+03  0.7546771E-02  0.1161625E+00
          2   -1    0    0  503    0 -0.00000000000E+00  0.00000000000E+00  0.12411386165E+04  0.12411386165E+04  0.00000000000E+00 0.  1.
         21   -1    0    0  501  502  0.00000000000E+00 -0.00000000000E+00 -0.43318433693E+02  0.43318433693E+02  0.00000000000E+00 0. -1.
         21    1    1    2  503  502  0.23372427894E+02 -0.18506405730E+03  0.21743372134E+03  0.28648280728E+03  0.00000000000E+00 0. -1.
          2    1    1    2  501    0 -0.23372427894E+02  0.18506405730E+03  0.98038646145E+03  0.99797424290E+03  0.00000000000E+00 0.  1.
<mgrwt>
<rscale>  2 0.18653411E+03</rscale>
<asrwt>0</asrwt>
<pdfrwt beam="2">  1       21 0.66643753E-02 0.18653411E+03</pdfrwt>
<pdfrwt beam="1">  1        2 0.19094438E+00 0.18653411E+03</pdfrwt>
<totfact> 0.39917266E+04</totfact>
</mgrwt>
</event>
<event>
 4    1  0.5045766E+003  0.1094793E+03  0.7546771E-02  0.1261537E+00
          1   -1    0    0  503    0 -0.00000000000E+00  0.00000000000E+00  0.83044039390E+02  0.83044039390E+02  0.00000000000E+00 0.  1.
         21   -1    0    0  501  502  0.00000000000E+00 -0.00000000000E+00 -0.38528655478E+03  0.38528655478E+03  0.00000000000E+00 0. -1.
         21    1    1    2  503  502 -0.10454774299E+03  0.32488224952E+02 -0.33630391614E+03  0.35367504766E+03  0.00000000000E+00 0. -1.
          1    1    1    2  501    0  0.10454774299E+03 -0.32488224952E+02  0.34061400755E+02  0.11465554651E+03  0.00000000000E+00 0.  1.
<mgrwt>
<rscale>  2 0.10947929E+03</rscale>
<asrwt>0</asrwt>
<pdfrwt beam="2">  1       21 0.59274854E-01 0.10947929E+03</pdfrwt>
<pdfrwt beam="1">  1        1 0.12776006E-01 0.10947929E+03</pdfrwt>
<totfact> 0.13228851E+04</totfact>
</mgrwt>
</event>
<event>
 4    1  0.5045766E+003  0.1345408E+03  0.7546771E-02  0.1220869E+00
          2   -1    0    0  502    0 -0.00000000000E+00  0.00000000000E+00  0.56712194220E+03  0.56712194220E+03  0.00000000000E+00 0.  1.
         21   -1    0    0  503  502  0.00000000000E+00 -0.00000000000E+00 -0.33676480039E+02  0.33676480039E+02  0.00000000000E+00 0.  1.
         21    1    1    2  503  501  0.17935209944E+02  0.13333998383E+03  0.19807245500E+03  0.23944502599E+03  0.00000000000E+00 0.  1.
          2    1    1    2  501    0 -0.17935209944E+02 -0.13333998383E+03  0.33537300717E+03  0.36135339625E+03  0.00000000000E+00 0.  1.
<mgrwt>
<rscale>  2 0.13454079E+03</rscale>
<asrwt>0</asrwt>
<pdfrwt beam="2">  1       21 0.51809974E-02 0.13454079E+03</pdfrwt>
<pdfrwt beam="1">  1        2 0.87249522E-01 0.13454079E+03</pdfrwt>
<totfact> 0.16962289E+05</totfact>
</mgrwt>
</event>
<event>
 4    1  0.5045766E+003  0.1252476E+03  0.7546771E-02  0.1234683E+00
          1   -1    0    0  502    0 -0.00000000000E+00  0.00000000000E+00  0.45355157948E+03  0.45355157948E+03  0.00000000000E+00 0.  1.
         21   -1    0    0  503  502  0.00000000000E+00 -0.00000000000E+00 -0.10275809458E+03  0.10275809458E+03  0.00000000000E+00 0. -1.
         21    1    1    2  503  501 -0.88865395362E+02  0.88260429400E+02 -0.51161003728E+02  0.13529379215E+03  0.00000000000E+00 0. -1.
          1    1    1    2  501    0  0.88865395362E+02 -0.88260429400E+02  0.40195448863E+03  0.42101588191E+03  0.00000000000E+00 0.  1.
<mgrwt>
<rscale>  2 0.12524760E+03</rscale>
<asrwt>0</asrwt>
<pdfrwt beam="2">  1       21 0.15808938E-01 0.12524760E+03</pdfrwt>
<pdfrwt beam="1">  1        1 0.69777165E-01 0.12524760E+03</pdfrwt>
<totfact> 0.20356650E+04</totfact>
</mgrwt>
</event>
<event>
 4    1  0.5045766E+003  0.3185882E+03  0.7546771E-02  0.1076301E+00
          2   -1    0    0  502    0 -0.00000000000E+00  0.00000000000E+00  0.12869360407E+04  0.12869360407E+04  0.00000000000E+00 0. -1.
         21   -1    0    0  503  502  0.00000000000E+00 -0.00000000000E+00 -0.20970384383E+03  0.20970384383E+03  0.00000000000E+00 0. -1.
         21    1    1    2  503  501  0.23048955150E+03 -0.21993858462E+03 -0.52464972397E+02  0.32287921531E+03  0.00000000000E+00 0. -1.
          2    1    1    2  501    0 -0.23048955150E+03  0.21993858462E+03  0.11296971692E+04  0.11737606692E+04  0.00000000000E+00 0. -1.
<mgrwt>
<rscale>  2 0.31858816E+03</rscale>
<asrwt>0</asrwt>
<pdfrwt beam="2">  1       21 0.32262131E-01 0.31858816E+03</pdfrwt>
<pdfrwt beam="1">  1        2 0.19799015E+00 0.31858816E+03</pdfrwt>
<totfact> 0.20019400E+03</totfact>
</mgrwt>
</event>
<event>
 4    1  0.5045766E+003  0.1448432E+03  0.7546771E-02  0.1206957E+00
         -1   -1    0    0    0  501 -0.00000000000E+00  0.00000000000E+00  0.26593604769E+03  0.26593604769E+03  0.00000000000E+00 0. -1.
         21   -1    0    0  503  502  0.00000000000E+00 -0.00000000000E+00 -0.93812096781E+02  0.93812096781E+02  0.00000000000E+00 0. -1.
         21    1    1    2  503  501 -0.31082233665E+02 -0.14146892705E+03  0.14321986201E+02  0.14554958557E+03  0.00000000000E+00 0. -1.
         -1    1    1    2    0  502  0.31082233665E+02  0.14146892705E+03  0.15780196470E+03  0.21419855890E+03  0.00000000000E+00 0. -1.
<mgrwt>
<rscale>  2 0.14484323E+03</rscale>
<asrwt>0</asrwt>
<pdfrwt beam="2">  1       21 0.14432630E-01 0.14484323E+03</pdfrwt>
<pdfrwt beam="1">  1       -1 0.40913238E-01 0.14484323E+03</pdfrwt>
<totfact> 0.22941172E+04</totfact>
</mgrwt>
</event>
<event>
 4    1  0.5045766E+003  0.1294236E+03  0.7546771E-02  0.1228314E+00
         21   -1    0    0  503  502  0.00000000000E+00  0.00000000000E+00  0.49662259322E+03  0.49662259322E+03  0.00000000000E+00 0. -1.
          1   -1    0    0  502    0 -0.00000000000E+00 -0.00000000000E+00 -0.66364557527E+02  0.66364557527E+02  0.00000000000E+00 0. -1.
         21    1    1    2  503  501 -0.12914330215E+03 -0.85127465987E+01  0.41252920792E+03  0.43235495456E+03  0.00000000000E+00 0. -1.
          1    1    1    2  501    0  0.12914330215E+03  0.85127465987E+01  0.17728827770E+02  0.13063219618E+03  0.00000000000E+00 0. -1.
<mgrwt>
<rscale>  2 0.12942357E+03</rscale>
<asrwt>0</asrwt>
<pdfrwt beam="1">  1       21 0.76403474E-01 0.12942357E+03</pdfrwt>
<pdfrwt beam="2">  1        1 0.10209932E-01 0.12942357E+03</pdfrwt>
<totfact> 0.10226374E+04</totfact>
</mgrwt>
</event>
<event>
 4    1  0.5045766E+003  0.1521825E+03  0.7546771E-02  0.1197817E+00
         21   -1    0    0  503  502  0.00000000000E+00  0.00000000000E+00  0.35738285021E+02  0.35738285021E+02  0.00000000000E+00 0.  1.
          2   -1    0    0  502    0 -0.00000000000E+00 -0.00000000000E+00 -0.32620017775E+04  0.32620017775E+04  0.00000000000E+00 0. -1.
         21    1    1    2  503  501 -0.12370100563E+03  0.88642941566E+02 -0.13710336716E+03  0.20483369637E+03  0.00000000000E+00 0.  1.
          2    1    1    2  501    0  0.12370100563E+03 -0.88642941566E+02 -0.30891601253E+04  0.30929063662E+04  0.00000000000E+00 0. -1.
<mgrwt>
<rscale>  2 0.15218249E+03</rscale>
<asrwt>0</asrwt>
<pdfrwt beam="1">  1       21 0.54981967E-02 0.15218249E+03</pdfrwt>
<pdfrwt beam="2">  1        2 0.50184651E+00 0.15218249E+03</pdfrwt>
<totfact> 0.45000432E+03</totfact>
</mgrwt>
</event>
<event>
 4    1  0.5045766E+003  0.1329170E+03  0.7546771E-02  0.1223191E+00
         21   -1    0    0  503  502  0.00000000000E+00  0.00000000000E+00  0.18118076069E+03  0.18118076069E+03  0.00000000000E+00 0.  1.
          2   -1    0    0  502    0 -0.00000000000E+00 -0.00000000000E+00 -0.14201981966E+03  0.14201981966E+03  0.00000000000E+00 0.  1.
         21    1    1    2  503  501 -0.88292442999E+02  0.99354750302E+02  0.11004867151E+03  0.17256196568E+03  0.00000000000E+00 0.  1.
          2    1    1    2  501    0  0.88292442999E+02 -0.99354750302E+02 -0.70887730476E+02  0.15063861467E+03  0.00000000000E+00 0.  1.
<mgrwt>
<rscale>  2 0.13291697E+03</rscale>
<asrwt>0</asrwt>
<pdfrwt beam="1">  1       21 0.27873963E-01 0.13291697E+03</pdfrwt>
<pdfrwt beam="2">  1        2 0.21849203E-01 0.13291697E+03</pdfrwt>
<totfact> 0.37713773E+04</totfact>
</mgrwt>
</event>
<event>
 4    1  0.5045766E+003  0.1504989E+03  0.7546771E-02  0.1199861E+00
          2   -1    0    0  503    0 -0.00000000000E+00  0.00000000000E+00  0.16276717683E+04  0.16276717683E+04  0.00000000000E+00 0.  1.
         21   -1    0    0  501  502  0.00000000000E+00 -0.00000000000E+00 -0.13990677564E+02  0.13990677564E+02  0.00000000000E+00 0. -1.
         21    1    1    2  503  502 -0.12620460111E+02 -0.14996879479E+03  0.74668277029E+03  0.76169880850E+03  0.00000000000E+00 0. -1.
          2    1    1    2  501    0  0.12620460111E+02  0.14996879479E+03  0.86699832040E+03  0.87996363732E+03  0.00000000000E+00 0.  1.
<mgrwt>
<rscale>  2 0.15049889E+03</rscale>
<asrwt>0</asrwt>
<pdfrwt beam="2">  1       21 0.21524132E-02 0.15049889E+03</pdfrwt>
<pdfrwt beam="1">  1        2 0.25041089E+00 0.15049889E+03</pdfrwt>
<totfact> 0.16443145E+05</totfact>
</mgrwt>
</event>
<event>
 4    1  0.5045766E+003  0.1093824E+03  0.7546771E-02  0.1261718E+00
          4   -1    0    0  503    0 -0.00000000000E+00  0.00000000000E+00  0.37635607398E+03  0.37635607398E+03  0.00000000000E+00 0.  1.
         21   -1    0    0  501  502  0.00000000000E+00 -0.00000000000E+00 -0.10597901756E+03  0.10597901756E+03  0.00000000000E+00 0.  1.
         21    1    1    2  503  502 -0.28862646456E+02  0.10550573965E+03 -0.66591199931E+02  0.12805819524E+03  0.00000000000E+00 0.  1.
          4    1    1    2  501    0  0.28862646456E+02 -0.10550573965E+03  0.33696825636E+03  0.35427689630E+03  0.00000000000E+00 0.  1.
<mgrwt>
<rscale>  2 0.10938242E+03</rscale>
<asrwt>0</asrwt>
<pdfrwt beam="2">  1       21 0.16304464E-01 0.10938242E+03</pdfrwt>
<pdfrwt beam="1">  1        4 0.57900934E-01 0.10938242E+03</pdfrwt>
<totfact> 0.39154161E+03</totfact>
</mgrwt>
</event>
<event>
 4    1  0.5045766E+003  0.1004906E+03  0.7546771E-02  0.1279268E+00
         21   -1    0    0  501  502  0.00000000000E+00  0.00000000000E+00  0.40421061712E+03  0.40421061712E+03  0.00000000000E+00 0.  1.
          4   -1    0    0  503    0 -0.00000000000E+00 -0.00000000000E+00 -0.76166884357E+02  0.76166884357E+02  0.00000000000E+00 0.  1.
         21    1    1    2  503  502 -0.25836392378E+02 -0.97112501490E+02  0.36091772163E+03  0.37464644520E+03  0.00000000000E+00 0.  1.
          4    1    1    2  501    0  0.25836392378E+02  0.97112501490E+02 -0.32873988867E+02  0.10573105627E+03  0.00000000000E+00 0.  1.
<mgrwt>
<rscale>  2 0.10049058E+03</rscale>
<asrwt>0</asrwt>
<pdfrwt beam="1">  1       21 0.62186247E-01 0.10049058E+03</pdfrwt>
<pdfrwt beam="2">  1        4 0.11717982E-01 0.10049058E+03</pdfrwt>
<totfact> 0.56346011E+03</totfact>
</mgrwt>
</event>
<event>
 4    1  0.5045766E+003  0.1104775E+03  0.7546771E-02  0.1259688E+00
          2   -1    0    0  502    0 -0.00000000000E+00  0.00000000000E+00  0.19143126997E+04  0.19143126997E+04  0.00000000000E+00 0. -1.
         21   -1    0    0  503  502  0.00000000000E+00 -0.00000000000E+00 -0.17437537219E+02  0.17437537219E+02  0.00000000000E+00 0. -1.
         21    1    1    2  503  501  0.85125631069E+02  0.70419509231E+02  0.17914770431E+03  0.21047370455E+03  0.00000000000E+00 0. -1.
          2    1    1    2  501    0 -0.85125631069E+02 -0.70419509231E+02  0.17177274582E+04  0.17212765324E+04  0.00000000000E+00 0. -1.
<mgrwt>
<rscale>  2 0.11047751E+03</rscale>
<asrwt>0</asrwt>
<pdfrwt beam="2">  1       21 0.26826995E-02 0.11047751E+03</pdfrwt>
<pdfrwt beam="1">  1        2 0.29450948E+00 0.11047751E+03</pdfrwt>
<totfact> 0.82247510E+04</totfact>
</mgrwt>
</event>
<event>
 4    1  0.5045766E+003  0.1061831E+03  0.7546771E-02  0.1267806E+00
         21   -1    0    0  501  502  0.00000000000E+00  0.00000000000E+00  0.11379998129E+03  0.11379998129E+03  0.00000000000E+00 0.  1.
         -2   -1    0    0    0  501 -0.00000000000E+00 -0.00000000000E+00 -0.10264073093E+03  0.10264073093E+03  0.00000000000E+00 0.  1.
         21    1    1    2  503  502  0.83765533649E+02 -0.65254748155E+02  0.25747612270E+02  0.10926017720E+03  0.00000000000E+00 0.  1.
         -2    1    1    2    0  503 -0.83765533649E+02  0.65254748155E+02 -0.14588361901E+02  0.10718053502E+03  0.00000000000E+00 0.  1.
<mgrwt>
<rscale>  2 0.10618308E+03</rscale>
<asrwt>0</asrwt>
<pdfrwt beam="1">  1       21 0.17507689E-01 0.10618308E+03</pdfrwt>
<pdfrwt beam="2">  1       -2 0.15790882E-01 0.10618308E+03</pdfrwt>
<totfact> 0.71686045E+04</totfact>
</mgrwt>
</event>
<event>
 4    1  0.5045766E+003  0.1838634E+03  0.7546771E-02  0.1164116E+00
          2   -1    0    0  502    0 -0.00000000000E+00  0.00000000000E+00  0.88998962318E+03  0.88998962318E+03  0.00000000000E+00 0. -1.
         21   -1    0    0  503  502  0.00000000000E+00 -0.00000000000E+00 -0.12238361692E+03  0.12238361692E+03  0.00000000000E+00 0.  1.
         21    1    1    2  503  501 -0.91761137571E+02  0.15932876772E+03 -0.36553828560E+02  0.18746184938E+03  0.00000000000E+00 0.  1.
          2    1    1    2  501    0  0.91761137571E+02 -0.15932876772E+03  0.80415983483E+03  0.82491139072E+03  0.00000000000E+00 0. -1.
<mgrwt>
<rscale>  2 0.18386343E+03</rscale>
<asrwt>0</asrwt>
<pdfrwt beam="2">  1       21 0.18828249E-01 0.18386343E+03</pdfrwt>
<pdfrwt beam="1">  1        2 0.13692148E+00 0.18386343E+03</pdfrwt>
<totfact> 0.10127686E+04</totfact>
</mgrwt>
</event>
<event>
 4    1  0.5045766E+003  0.1450375E+03  0.7546771E-02  0.1206707E+00
         21   -1    0    0  503  502  0.00000000000E+00  0.00000000000E+00  0.12272581497E+04  0.12272581497E+04  0.00000000000E+00 0. -1.
         -2   -1    0    0    0  501 -0.00000000000E+00 -0.00000000000E+00 -0.37534793805E+02  0.37534793805E+02  0.00000000000E+00 0.  1.
         21    1    1    2  503  501 -0.14472698529E+03  0.94855121068E+01  0.10610122947E+04  0.10708795286E+04  0.00000000000E+00 0. -1.
         -2    1    1    2    0  502  0.14472698529E+03 -0.94855121068E+01  0.12871106114E+03  0.19391341488E+03  0.00000000000E+00 0.  1.
<mgrwt>
<rscale>  2 0.14503750E+03</rscale>
<asrwt>0</asrwt>
<pdfrwt beam="1">  1       21 0.18880892E+00 0.14503750E+03</pdfrwt>
<pdfrwt beam="2">  1       -2 0.57745846E-02 0.14503750E+03</pdfrwt>
<totfact> 0.19886981E+03</totfact>
</mgrwt>
</event>
<event>
 4    1  0.5045766E+003  0.1048598E+03  0.7546771E-02  0.1270396E+00
         21   -1    0    0  501  502  0.00000000000E+00  0.00000000000E+00  0.85693940322E+03  0.85693940322E+03  0.00000000000E+00 0. -1.
          1   -1    0    0  503    0 -0.00000000000E+00 -0.00000000000E+00 -0.64732412586E+02  0.64732412586E+02  0.00000000000E+00 0.  1.
         21    1    1    2  503  502 -0.16675687266E+02 -0.10352532108E+03  0.80874615051E+03  0.81551573045E+03  0.00000000000E+00 0. -1.
          1    1    1    2  501    0  0.16675687266E+02  0.10352532108E+03 -0.16539159869E+02  0.10615608536E+03  0.00000000000E+00 0.  1.
<mgrwt>
<rscale>  2 0.10485977E+03</rscale>
<asrwt>0</asrwt>
<pdfrwt beam="1">  1       21 0.13183682E+00 0.10485977E+03</pdfrwt>
<pdfrwt beam="2">  1        1 0.99588333E-02 0.10485977E+03</pdfrwt>
<totfact> 0.29772501E+03</totfact>
</mgrwt>
</event>
<event>
 4    1  0.5045766E+003  0.1688623E+03  0.7546771E-02  0.1179040E+00
         21   -1    0    0  501  502  0.00000000000E+00  0.00000000000E+00  0.29637178449E+02  0.29637178449E+02  0.00000000000E+00 0.  1.
          2   -1    0    0  503    0 -0.00000000000E+00 -0.00000000000E+00 -0.27571367752E+04  0.27571367752E+04  0.00000000000E+00 0.  1.
         21    1    1    2  503  502 -0.50855646861E+02  0.16102227315E+03 -0.23946312405E+03  0.29301374891E+03  0.00000000000E+00 0.  1.
          2    1    1    2  501    0  0.50855646861E+02 -0.16102227315E+03 -0.24880364727E+04  0.24937602047E+04  0.00000000000E+00 0.  1.
<mgrwt>
<rscale>  2 0.16886228E+03</rscale>
<asrwt>0</asrwt>
<pdfrwt beam="1">  1       21 0.45595625E-02 0.16886228E+03</pdfrwt>
<pdfrwt beam="2">  1        2 0.42417521E+00 0.16886228E+03</pdfrwt>
<totfact> 0.12042749E+04</totfact>
</mgrwt>
</event>
<event>
 4    1  0.5045766E+003  0.1374081E+03  0.7546771E-02  0.1216860E+00
          2   -1    0    0  502    0 -0.00000000000E+00  0.00000000000E+00  0.77827614590E+03  0.77827614590E+03  0.00000000000E+00 0.  1.
         21   -1    0    0  503  502  0.00000000000E+00 -0.00000000000E+00 -0.65739570204E+02  0.65739570204E+02  0.00000000000E+00 0.  1.
         21    1    1    2  503  501  0.11065893570E+03  0.81459100428E+02  0.21052710006E+02  0.13901151640E+03  0.00000000000E+00 0.  1.
          2    1    1    2  501    0 -0.11065893570E+03 -0.81459100428E+02  0.69148386569E+03  0.70500419970E+03  0.00000000000E+00 0.  1.
<mgrwt>
<rscale>  2 0.13740810E+03</rscale>
<asrwt>0</asrwt>
<pdfrwt beam="2">  1       21 0.10113781E-01 0.13740810E+03</pdfrwt>
<pdfrwt beam="1">  1        2 0.11973479E+00 0.13740810E+03</pdfrwt>
<totfact> 0.37132456E+04</totfact>
</mgrwt>
</event>
<event>
 4    1  0.5045766E+003  0.1171542E+03  0.7546771E-02  0.1247867E+00
          3   -1    0    0  503    0 -0.00000000000E+00  0.00000000000E+00  0.10838138114E+04  0.10838138114E+04  0.00000000000E+00 0.  1.
         21   -1    0    0  501  502  0.00000000000E+00 -0.00000000000E+00 -0.28344328414E+03  0.28344328414E+03  0.00000000000E+00 0.  1.
         21    1    1    2  503  502  0.99264966354E+02  0.62221975113E+02 -0.26799716712E+03  0.29248519503E+03  0.00000000000E+00 0.  1.
          3    1    1    2  501    0 -0.99264966354E+02 -0.62221975113E+02  0.10683676944E+04  0.10747719005E+04  0.00000000000E+00 0.  1.
<mgrwt>
<rscale>  2 0.11715420E+03</rscale>
<asrwt>0</asrwt>
<pdfrwt beam="2">  1       21 0.43606660E-01 0.11715420E+03</pdfrwt>
<pdfrwt beam="1">  1        3 0.16674058E+00 0.11715420E+03</pdfrwt>
<totfact> 0.67981114E+01</totfact>
</mgrwt>
</event>
<event>
 4    1  0.5045766E+003  0.1223660E+03  0.7546771E-02  0.1239244E+00
         21   -1    0    0  501  502  0.00000000000E+00  0.00000000000E+00  0.10133622305E+03  0.10133622305E+03  0.00000000000E+00 0.  1.
          2   -1    0    0  503    0 -0.00000000000E+00 -0.00000000000E+00 -0.14317247363E+04  0.14317247363E+04  0.00000000000E+00 0.  1.
         21    1    1    2  503  502 -0.14187781452E+02 -0.12154067004E+03  0.60704802509E+02  0.13659612243E+03  0.00000000000E+00 0.  1.
          2    1    1    2  501    0  0.14187781452E+02  0.12154067004E+03 -0.13910933158E+04  0.13964648369E+04  0.00000000000E+00 0.  1.
<mgrwt>
<rscale>  2 0.12236596E+03</rscale>
<asrwt>0</asrwt>
<pdfrwt beam="1">  1       21 0.15590189E-01 0.12236596E+03</pdfrwt>
<pdfrwt beam="2">  1        2 0.22026534E+00 0.12236596E+03</pdfrwt>
<totfact> 0.72035914E+03</totfact>
</mgrwt>
</event>
<event>
 4    1  0.5045766E+003  0.1155817E+03  0.7546771E-02  0.1250569E+00
         21   -1    0    0  503  502  0.00000000000E+00  0.00000000000E+00  0.73321739060E+02  0.73321739060E+02  0.00000000000E+00 0. -1.
          2   -1    0    0  502    0 -0.00000000000E+00 -0.00000000000E+00 -0.88630214484E+03  0.88630214484E+03  0.00000000000E+00 0.  1.
         21    1    1    2  503  501  0.11316740097E+02  0.11502632379E+03  0.21169563799E+02  0.11750435823E+03  0.00000000000E+00 0. -1.
          2    1    1    2  501    0 -0.11316740097E+02 -0.11502632379E+03 -0.83414996958E+03  0.84211952567E+03  0.00000000000E+00 0.  1.
<mgrwt>
<rscale>  2 0.11558168E+03</rscale>
<asrwt>0</asrwt>
<pdfrwt beam="1">  1       21 0.11280268E-01 0.11558168E+03</pdfrwt>
<pdfrwt beam="2">  1        2 0.13635417E+00 0.11558168E+03</pdfrwt>
<totfact> 0.26087580E+04</totfact>
</mgrwt>
</event>
<event>
 4    1  0.5045766E+003  0.1647834E+03  0.7546771E-02  0.1183400E+00
         21   -1    0    0  503  502  0.00000000000E+00  0.00000000000E+00  0.11133947218E+03  0.11133947218E+03  0.00000000000E+00 0.  1.
          3   -1    0    0  502    0 -0.00000000000E+00 -0.00000000000E+00 -0.98371825267E+03  0.98371825267E+03  0.00000000000E+00 0. -1.
         21    1    1    2  503  501  0.33496186515E+01  0.16474939923E+03  0.38642351634E+02  0.16925370256E+03  0.00000000000E+00 0.  1.
          3    1    1    2  501    0 -0.33496186515E+01 -0.16474939923E+03 -0.91102113213E+03  0.92580402229E+03  0.00000000000E+00 0. -1.
<mgrwt>
<rscale>  2 0.16478345E+03</rscale>
<asrwt>0</asrwt>
<pdfrwt beam="1">  1       21 0.17129150E-01 0.16478345E+03</pdfrwt>
<pdfrwt beam="2">  1        3 0.15134127E+00 0.16478345E+03</pdfrwt>
<totfact> 0.51378865E+02</totfact>
</mgrwt>
</event>
<event>
 4    1  0.5045766E+003  0.1265932E+03  0.7546771E-02  0.1232600E+00
         21   -1    0    0  501  502  0.00000000000E+00  0.00000000000E+00  0.10189125308E+04  0.10189125308E+04  0.00000000000E+00 0.  1.
         -4   -1    0    0    0  501 -0.00000000000E+00 -0.00000000000E+00 -0.59207292736E+02  0.59207292736E+02  0.00000000000E+00 0. -1.
         21    1    1    2  503  502  0.12591013053E+03 -0.13133512979E+02  0.94179599000E+03  0.95026603481E+03  0.00000000000E+00 0.  1.
         -4    1    1    2    0  503 -0.12591013053E+03  0.13133512979E+02  0.17909248100E+02  0.12785378876E+03  0.00000000000E+00 0. -1.
<mgrwt>
<rscale>  2 0.12659325E+03</rscale>
<asrwt>0</asrwt>
<pdfrwt beam="1">  1       21 0.15675576E+00 0.12659325E+03</pdfrwt>
<pdfrwt beam="2">  1       -4 0.91088150E-02 0.12659325E+03</pdfrwt>
<totfact> 0.99978844E+02</totfact>
</mgrwt>
</event>
<event>
 4    1  0.5045766E+003  0.1416188E+03  0.7546771E-02  0.1211167E+00
          2   -1    0    0  502    0 -0.00000000000E+00  0.00000000000E+00  0.89795619266E+03  0.89795619266E+03  0.00000000000E+00 0.  1.
         21   -1    0    0  503  502  0.00000000000E+00 -0.00000000000E+00 -0.22349105145E+02  0.22349105145E+02  0.00000000000E+00 0.  1.
         21    1    1    2  503  501  0.41022435830E+02 -0.13554722452E+03  0.44934591955E+03  0.47113442427E+03  0.00000000000E+00 0.  1.
          2    1    1    2  501    0 -0.41022435830E+02  0.13554722452E+03  0.42626116797E+03  0.44917087354E+03  0.00000000000E+00 0.  1.
<mgrwt>
<rscale>  2 0.14161882E+03</rscale>
<asrwt>0</asrwt>
<pdfrwt beam="2">  1       21 0.34383246E-02 0.14161882E+03</pdfrwt>
<pdfrwt beam="1">  1        2 0.13814708E+00 0.14161882E+03</pdfrwt>
<totfact> 0.19381065E+05</totfact>
</mgrwt>
</event>
<event>
 4    1  0.5045766E+003  0.1187788E+03  0.7546771E-02  0.1245125E+00
         21   -1    0    0  501  502  0.00000000000E+00  0.00000000000E+00  0.12276834070E+02  0.12276834070E+02  0.00000000000E+00 0.  1.
          1   -1    0    0  503    0 -0.00000000000E+00 -0.00000000000E+00 -0.14837217699E+04  0.14837217699E+04  0.00000000000E+00 0.  1.
         21    1    1    2  503  502  0.97278380727E+02 -0.68156563587E+02 -0.38054581923E+03  0.39865213037E+03  0.00000000000E+00 0.  1.
          1    1    1    2  501    0 -0.97278380727E+02  0.68156563587E+02 -0.10908991166E+04  0.10973464736E+04  0.00000000000E+00 0.  1.
<mgrwt>
<rscale>  2 0.11877879E+03</rscale>
<asrwt>0</asrwt>
<pdfrwt beam="1">  1       21 0.18887435E-02 0.11877879E+03</pdfrwt>
<pdfrwt beam="2">  1        1 0.22826491E+00 0.11877879E+03</pdfrwt>
<totfact> 0.11262816E+05</totfact>
</mgrwt>
</event>
<event>
 4    1  0.5045766E+003  0.1358186E+03  0.7546771E-02  0.1219069E+00
          2   -1    0    0  503    0 -0.00000000000E+00  0.00000000000E+00  0.63296464457E+03  0.63296464457E+03  0.00000000000E+00 0. -1.
         21   -1    0    0  501  502  0.00000000000E+00 -0.00000000000E+00 -0.44312840541E+02  0.44312840541E+02  0.00000000000E+00 0.  1.
         21    1    1    2  503  502 -0.12843817885E+03  0.44162552039E+02  0.96192522052E+02  0.16643226276E+03  0.00000000000E+00 0.  1.
          2    1    1    2  501    0  0.12843817885E+03 -0.44162552039E+02  0.49245928198E+03  0.51084522235E+03  0.00000000000E+00 0. -1.
<mgrwt>
<rscale>  2 0.13581862E+03</rscale>
<asrwt>0</asrwt>
<pdfrwt beam="2">  1       21 0.68173605E-02 0.13581862E+03</pdfrwt>
<pdfrwt beam="1">  1        2 0.97379170E-01 0.13581862E+03</pdfrwt>
<totfact> 0.93981978E+04</totfact>
</mgrwt>
</event>
<event>
 4    1  0.5045766E+003  0.1456160E+03  0.7546771E-02  0.1205966E+00
          2   -1    0    0  503    0 -0.00000000000E+00  0.00000000000E+00  0.18182160309E+03  0.18182160309E+03  0.00000000000E+00 0. -1.
         21   -1    0    0  501  502  0.00000000000E+00 -0.00000000000E+00 -0.14752941539E+03  0.14752941539E+03  0.00000000000E+00 0. -1.
         21    1    1    2  503  502  0.13578290833E+03 -0.52602385523E+02 -0.58230431199E+02  0.15682726892E+03  0.00000000000E+00 0. -1.
          2    1    1    2  501    0 -0.13578290833E+03  0.52602385523E+02  0.92522618894E+02  0.17252374957E+03  0.00000000000E+00 0. -1.
<mgrwt>
<rscale>  2 0.14561596E+03</rscale>
<asrwt>0</asrwt>
<pdfrwt beam="2">  1       21 0.22696833E-01 0.14561596E+03</pdfrwt>
<pdfrwt beam="1">  1        2 0.27972555E-01 0.14561596E+03</pdfrwt>
<totfact> 0.42399029E+04</totfact>
</mgrwt>
</event>
<event>
 4    1  0.5045766E+003  0.1426150E+03  0.7546771E-02  0.1209853E+00
         21   -1    0    0  501  502  0.00000000000E+00  0.00000000000E+00  0.20668355716E+03  0.20668355716E+03  0.00000000000E+00 0. -1.
         -4   -1    0    0    0  501 -0.00000000000E+00 -0.00000000000E+00 -0.30543273373E+03  0.30543273373E+03  0.00000000000E+00 0.  1.
         21    1    1    2  503  502 -0.96630549655E+02  0.10488840126E+03  0.16143643789E+03  0.21540836410E+03  0.00000000000E+00 0. -1.
         -4    1    1    2    0  503  0.96630549655E+02 -0.10488840126E+03 -0.26018561446E+03  0.29670792679E+03  0.00000000000E+00 0.  1.
<mgrwt>
<rscale>  2 0.14261501E+03</rscale>
<asrwt>0</asrwt>
<pdfrwt beam="1">  1       21 0.31797470E-01 0.14261501E+03</pdfrwt>
<pdfrwt beam="2">  1       -4 0.46989651E-01 0.14261501E+03</pdfrwt>
<totfact> 0.17447979E+03</totfact>
</mgrwt>
</event>
<event>
 4    1  0.5045766E+003  0.1018535E+03  0.7546771E-02  0.1276446E+00
         21   -1    0    0  503  502  0.00000000000E+00  0.00000000000E+00  0.59859081598E+03  0.59859081598E+03  0.00000000000E+00 0. -1.
         -3   -1    0    0    0  501 -0.00000000000E+00 -0.00000000000E+00 -0.17093864079E+03  0.17093864079E+03  0.00000000000E+00 0.  1.
         21    1    1    2  503  501 -0.10106920546E+03  0.12615630508E+02  0.57856460765E+03  0.58746161036E+03  0.00000000000E+00 0. -1.
         -3    1    1    2    0  502  0.10106920546E+03 -0.12615630508E+02 -0.15091243246E+03  0.18206784641E+03  0.00000000000E+00 0.  1.
<mgrwt>
<rscale>  2 0.10185351E+03</rscale>
<asrwt>0</asrwt>
<pdfrwt beam="1">  1       21 0.92090894E-01 0.10185351E+03</pdfrwt>
<pdfrwt beam="2">  1       -3 0.26298253E-01 0.10185351E+03</pdfrwt>
<totfact> 0.68261812E+02</totfact>
</mgrwt>
</event>
<event>
 4    1  0.5045766E+003  0.1253579E+03  0.7546771E-02  0.1234511E+00
         21   -1    0    0  501  502  0.00000000000E+00  0.00000000000E+00  0.31470661231E+03  0.31470661231E+03  0.00000000000E+00 0. -1.
         -4   -1    0    0    0  501 -0.00000000000E+00 -0.00000000000E+00 -0.52726322866E+02  0.52726322866E+02  0.00000000000E+00 0.  1.
         21    1    1    2  503  502 -0.82731402198E+02 -0.94181315168E+02  0.17326732620E+03  0.21386016778E+03  0.00000000000E+00 0. -1.
         -4    1    1    2    0  503  0.82731402198E+02  0.94181315168E+02  0.88712963245E+02  0.15357276739E+03  0.00000000000E+00 0.  1.
<mgrwt>
<rscale>  2 0.12535791E+03</rscale>
<asrwt>0</asrwt>
<pdfrwt beam="1">  1       21 0.48416401E-01 0.12535791E+03</pdfrwt>
<pdfrwt beam="2">  1       -4 0.81117422E-02 0.12535791E+03</pdfrwt>
<totfact> 0.17899074E+04</totfact>
</mgrwt>
</event>
<event>
 4    1  0.5045766E+003  0.1071126E+03  0.7546771E-02  0.1266012E+00
         21   -1    0    0  501  502  0.00000000000E+00  0.00000000000E+00  0.14413548520E+03  0.14413548520E+03  0.00000000000E+00 0.  1.
          2   -1    0    0  503    0 -0.00000000000E+00 -0.00000000000E+00 -0.54951332804E+03  0.54951332804E+03  0.00000000000E+00 0.  1.
         21    1    1    2  503  502 -0.91763713389E+02 -0.55249643758E+02  0.11803376603E+03  0.15938968647E+03  0.00000000000E+00 0.  1.
          2    1    1    2  501    0  0.91763713389E+02  0.55249643758E+02 -0.52341160888E+03  0.53425912677E+03  0.00000000000E+00 0.  1.
<mgrwt>
<rscale>  2 0.10711257E+03</rscale>
<asrwt>0</asrwt>
<pdfrwt beam="1">  1       21 0.22174690E-01 0.10711257E+03</pdfrwt>
<pdfrwt beam="2">  1        2 0.84540513E-01 0.10711257E+03</pdfrwt>
<totfact> 0.13579137E+04</totfact>
</mgrwt>
</event>
<event>
 4    1  0.5045766E+003  0.1027474E+03  0.7546771E-02  0.1274622E+00
         21   -1    0    0  503  502  0.00000000000E+00  0.00000000000E+00  0.46638808416E+03  0.46638808416E+03  0.00000000000E+00 0.  1.
          4   -1    0    0  502    0 -0.00000000000E+00 -0.00000000000E+00 -0.21895124141E+03  0.21895124141E+03  0.00000000000E+00 0. -1.
         21    1    1    2  503  501  0.10198450842E+03 -0.12497719275E+02  0.44819194376E+03  0.45981849832E+03  0.00000000000E+00 0.  1.
          4    1    1    2  501    0 -0.10198450842E+03  0.12497719275E+02 -0.20075510100E+03  0.22552082725E+03  0.00000000000E+00 0. -1.
<mgrwt>
<rscale>  2 0.10274742E+03</rscale>
<asrwt>0</asrwt>
<pdfrwt beam="1">  1       21 0.71752013E-01 0.10274742E+03</pdfrwt>
<pdfrwt beam="2">  1        4 0.33684807E-01 0.10274742E+03</pdfrwt>
<totfact> 0.62561948E+02</totfact>
</mgrwt>
</event>
<event>
 4    1  0.5045766E+003  0.1059373E+03  0.7546771E-02  0.1268284E+00
          2   -1    0    0  502    0 -0.00000000000E+00  0.00000000000E+00  0.46161049475E+03  0.46161049475E+03  0.00000000000E+00 0.  1.
         21   -1    0    0  503  502  0.00000000000E+00 -0.00000000000E+00 -0.10344347985E+03  0.10344347985E+03  0.00000000000E+00 0.  1.
         21    1    1    2  503  501 -0.91850842471E+02  0.52783810989E+02 -0.68022225593E+02  0.12589571534E+03  0.00000000000E+00 0.  1.
          2    1    1    2  501    0  0.91850842471E+02 -0.52783810989E+02  0.42618924050E+03  0.43915825926E+03  0.00000000000E+00 0.  1.
<mgrwt>
<rscale>  2 0.10593728E+03</rscale>
<asrwt>0</asrwt>
<pdfrwt beam="2">  1       21 0.15914382E-01 0.10593728E+03</pdfrwt>
<pdfrwt beam="1">  1        2 0.71016998E-01 0.10593728E+03</pdfrwt>
<totfact> 0.30122703E+04</totfact>
</mgrwt>
</event>
<event>
 4    1  0.5045766E+003  0.1066430E+03  0.7546771E-02  0.1266916E+00
         21   -1    0    0  501  502  0.00000000000E+00  0.00000000000E+00  0.17468427760E+02  0.17468427760E+02  0.00000000000E+00 0.  1.
          1   -1    0    0  503    0 -0.00000000000E+00 -0.00000000000E+00 -0.73120568466E+03  0.73120568466E+03  0.00000000000E+00 0. -1.
         21    1    1    2  503  502 -0.84993003414E+02  0.64412111829E+02 -0.23292505171E+03  0.25617730284E+03  0.00000000000E+00 0.  1.
          1    1    1    2  501    0  0.84993003414E+02 -0.64412111829E+02 -0.48081220520E+03  0.49249680958E+03  0.00000000000E+00 0. -1.
<mgrwt>
<rscale>  2 0.10664301E+03</rscale>
<asrwt>0</asrwt>
<pdfrwt beam="1">  1       21 0.26874507E-02 0.10664301E+03</pdfrwt>
<pdfrwt beam="2">  1        1 0.11249317E+00 0.10664301E+03</pdfrwt>
<totfact> 0.21899264E+05</totfact>
</mgrwt>
</event>
<event>
 4    1  0.5045766E+003  0.1043978E+03  0.7546771E-02  0.1271311E+00
         21   -1    0    0  503  502  0.00000000000E+00  0.00000000000E+00  0.26962160345E+02  0.26962160345E+02  0.00000000000E+00 0. -1.
          1   -1    0    0  502    0 -0.00000000000E+00 -0.00000000000E+00 -0.10075484974E+04  0.10075484974E+04  0.00000000000E+00 0. -1.
         21    1    1    2  503  501  0.27313405771E+02  0.10076152165E+03 -0.90030195525E+02  0.13785623847E+03  0.00000000000E+00 0. -1.
          1    1    1    2  501    0 -0.27313405771E+02 -0.10076152165E+03 -0.89055614151E+03  0.89665441925E+03  0.00000000000E+00 0. -1.
<mgrwt>
<rscale>  2 0.10439783E+03</rscale>
<asrwt>0</asrwt>
<pdfrwt beam="1">  1       21 0.41480239E-02 0.10439783E+03</pdfrwt>
<pdfrwt beam="2">  1        1 0.15500749E+00 0.10439783E+03</pdfrwt>
<totfact> 0.65449954E+04</totfact>
</mgrwt>
</event>
<event>
 4    1  0.5045766E+003  0.1109601E+03  0.7546771E-02  0.1258802E+00
          2   -1    0    0  503    0 -0.00000000000E+00  0.00000000000E+00  0.19620311421E+04  0.19620311421E+04  0.00000000000E+00 0.  1.
         21   -1    0    0  501  502  0.00000000000E+00 -0.00000000000E+00 -0.10547415914E+02  0.10547415914E+02  0.00000000000E+00 0. -1.
         21    1    1    2  503  502 -0.67967149362E+02 -0.87707466851E+02  0.34803338472E+03  0.36529353952E+03  0.00000000000E+00 0. -1.
          2    1    1    2  501    0  0.67967149362E+02  0.87707466851E+02  0.16034503415E+04  0.16072850185E+04  0.00000000000E+00 0.  1.
<mgrwt>
<rscale>  2 0.11096005E+03</rscale>
<asrwt>0</asrwt>
<pdfrwt beam="2">  1       21 0.16226809E-02 0.11096005E+03</pdfrwt>
<pdfrwt beam="1">  1        2 0.30185065E+00 0.11096005E+03</pdfrwt>
<totfact> 0.17481844E+05</totfact>
</mgrwt>
</event>
<event>
 4    1  0.5045766E+003  0.1414158E+03  0.7546771E-02  0.1211437E+00
          2   -1    0    0  503    0 -0.00000000000E+00  0.00000000000E+00  0.22427548360E+04  0.22427548360E+04  0.00000000000E+00 0.  1.
         21   -1    0    0  501  502  0.00000000000E+00 -0.00000000000E+00 -0.89270104760E+01  0.89270104760E+01  0.00000000000E+00 0. -1.
         21    1    1    2  503  502  0.41948345015E+02  0.13505094656E+03  0.10790262227E+04  0.10882536520E+04  0.00000000000E+00 0. -1.
          2    1    1    2  501    0 -0.41948345015E+02 -0.13505094656E+03  0.11548016029E+04  0.11634281945E+04  0.00000000000E+00 0.  1.
<mgrwt>
<rscale>  2 0.14141578E+03</rscale>
<asrwt>0</asrwt>
<pdfrwt beam="2">  1       21 0.13733880E-02 0.14141578E+03</pdfrwt>
<pdfrwt beam="1">  1        2 0.34503876E+00 0.14141578E+03</pdfrwt>
<totfact> 0.16354707E+05</totfact>
</mgrwt>
</event>
<event>
 4    1  0.5045766E+003  0.1229324E+03  0.7546771E-02  0.1238336E+00
         21   -1    0    0  501  502  0.00000000000E+00  0.00000000000E+00  0.31848041896E+03  0.31848041896E+03  0.00000000000E+00 0. -1.
          4   -1    0    0  503    0 -0.00000000000E+00 -0.00000000000E+00 -0.47835926516E+02  0.47835926516E+02  0.00000000000E+00 0. -1.
         21    1    1    2  503  502  0.38467476638E+02  0.11675885526E+03  0.11890313020E+03  0.17102728265E+03  0.00000000000E+00 0. -1.
          4    1    1    2  501    0 -0.38467476638E+02 -0.11675885526E+03  0.15174136225E+03  0.19528906282E+03  0.00000000000E+00 0. -1.
<mgrwt>
<rscale>  2 0.12293241E+03</rscale>
<asrwt>0</asrwt>
<pdfrwt beam="1">  1       21 0.48996986E-01 0.12293241E+03</pdfrwt>
<pdfrwt beam="2">  1        4 0.73593735E-02 0.12293241E+03</pdfrwt>
<totfact> 0.20471586E+04</totfact>
</mgrwt>
</event>
<event>
 4    1  0.5045766E+003  0.1048366E+03  0.7546771E-02  0.1270442E+00
         -4   -1    0    0    0  501 -0.00000000000E+00  0.00000000000E+00  0.97092961343E+03  0.97092961343E+03  0.00000000000E+00 0.  1.
         21   -1    0    0  501  502  0.00000000000E+00 -0.00000000000E+00 -0.13016538551E+02  0.13016538551E+02  0.00000000000E+00 0.  1.
         21    1    1    2  503  502  0.45141903597E+02 -0.94619883954E+02  0.30133196704E+03  0.31904806575E+03  0.00000000000E+00 0.  1.
         -4    1    1    2    0  503 -0.45141903597E+02  0.94619883954E+02  0.65658110784E+03  0.66489808623E+03  0.00000000000E+00 0.  1.
<mgrwt>
<rscale>  2 0.10483661E+03</rscale>
<asrwt>0</asrwt>
<pdfrwt beam="2">  1       21 0.20025451E-02 0.10483661E+03</pdfrwt>
<pdfrwt beam="1">  1       -4 0.14937373E+00 0.10483661E+03</pdfrwt>
<totfact> 0.15656081E+04</totfact>
</mgrwt>
</event>
<event>
 4    1  0.5045766E+003  0.1039935E+03  0.7546771E-02  0.1272115E+00
         21   -1    0    0  501  502  0.00000000000E+00  0.00000000000E+00  0.60431598898E+02  0.60431598898E+02  0.00000000000E+00 0.  1.
         -1   -1    0    0    0  501 -0.00000000000E+00 -0.00000000000E+00 -0.60955475441E+03  0.60955475441E+03  0.00000000000E+00 0.  1.
         21    1    1    2  503  502  0.62793149068E+02  0.82895537424E+02  0.69949147174E+01  0.10422849191E+03  0.00000000000E+00 0.  1.
         -1    1    1    2    0  503 -0.62793149068E+02 -0.82895537424E+02 -0.55611807023E+03  0.56575786139E+03  0.00000000000E+00 0.  1.
<mgrwt>
<rscale>  2 0.10399351E+03</rscale>
<asrwt>0</asrwt>
<pdfrwt beam="1">  1       21 0.92971689E-02 0.10399351E+03</pdfrwt>
<pdfrwt beam="2">  1       -1 0.93777656E-01 0.10399351E+03</pdfrwt>
<totfact> 0.10110655E+04</totfact>
</mgrwt>
</event>
<event>
 4    1  0.5045766E+003  0.1079097E+03  0.7546771E-02  0.1264491E+00
         21   -1    0    0  501  502  0.00000000000E+00  0.00000000000E+00  0.20470618602E+02  0.20470618602E+02  0.00000000000E+00 0. -1.
         -1   -1    0    0    0  501 -0.00000000000E+00 -0.00000000000E+00 -0.70744227327E+03  0.70744227327E+03  0.00000000000E+00 0. -1.
         21    1    1    2  503  502  0.86055585530E+02  0.65107116312E+02 -0.18238804210E+03  0.21191955619E+03  0.00000000000E+00 0. -1.
         -1    1    1    2    0  503 -0.86055585530E+02 -0.65107116312E+02 -0.50458361257E+03  0.51599333568E+03  0.00000000000E+00 0. -1.
<mgrwt>
<rscale>  2 0.10790969E+03</rscale>
<asrwt>0</asrwt>
<pdfrwt beam="1">  1       21 0.31493263E-02 0.10790969E+03</pdfrwt>
<pdfrwt beam="2">  1       -1 0.10883726E+00 0.10790969E+03</pdfrwt>
<totfact> 0.44970511E+04</totfact>
</mgrwt>
</event>
<event>
 4    1  0.5045766E+003  0.1161319E+03  0.7546771E-02  0.1249618E+00
          3   -1    0    0  503    0 -0.00000000000E+00  0.00000000000E+00  0.18247760040E+03  0.18247760040E+03  0.00000000000E+00 0.  1.
         21   -1    0    0  501  502  0.00000000000E+00 -0.00000000000E+00 -0.83585920578E+02  0.83585920578E+02  0.00000000000E+00 0. -1.
         21    1    1    2  503  502  0.67499866001E+02  0.94500712486E+02  0.41798349368E+01  0.11620708924E+03  0.00000000000E+00 0. -1.
          3    1    1    2  501    0 -0.67499866001E+02 -0.94500712486E+02  0.94711844886E+02  0.14985643173E+03  0.00000000000E+00 0.  1.
<mgrwt>
<rscale>  2 0.11613189E+03</rscale>
<asrwt>0</asrwt>
<pdfrwt beam="2">  1       21 0.12859372E-01 0.11613189E+03</pdfrwt>
<pdfrwt beam="1">  1        3 0.28073477E-01 0.11613189E+03</pdfrwt>
<totfact> 0.29849323E+04</totfact>
</mgrwt>
</event>
<event>
 4    1  0.5045766E+003  0.1417939E+03  0.7546771E-02  0.1210935E+00
          1   -1    0    0  503    0 -0.00000000000E+00  0.00000000000E+00  0.68492571321E+03  0.68492571321E+03  0.00000000000E+00 0.  1.
         21   -1    0    0  501  502  0.00000000000E+00 -0.00000000000E+00 -0.44107566914E+02  0.44107566914E+02  0.00000000000E+00 0.  1.
         21    1    1    2  503  502  0.11897748666E+02  0.14129386100E+03  0.10959238906E+03  0.17920938402E+03  0.00000000000E+00 0.  1.
          1    1    1    2  501    0 -0.11897748666E+02 -0.14129386100E+03  0.53122575723E+03  0.54982389610E+03  0.00000000000E+00 0.  1.
<mgrwt>
<rscale>  2 0.14179391E+03</rscale>
<asrwt>0</asrwt>
<pdfrwt beam="2">  1       21 0.67857800E-02 0.14179391E+03</pdfrwt>
<pdfrwt beam="1">  1        1 0.10537318E+00 0.14179391E+03</pdfrwt>
<totfact> 0.51757662E+04</totfact>
</mgrwt>
</event>
<event>
 4    1  0.5045766E+003  0.1073634E+03  0.7546771E-02  0.1265532E+00
          2   -1    0    0  502    0 -0.00000000000E+00  0.00000000000E+00  0.14651424782E+04  0.14651424782E+04  0.00000000000E+00 0. -1.
         21   -1    0    0  503  502  0.00000000000E+00 -0.00000000000E+00 -0.42881989975E+02  0.42881989975E+02  0.00000000000E+00 0. -1.
         21    1    1    2  503  501 -0.10697233240E+03 -0.91557299101E+01  0.29788092620E+02  0.11141919831E+03  0.00000000000E+00 0. -1.
          2    1    1    2  501    0  0.10697233240E+03  0.91557299101E+01  0.13924723956E+04  0.13966052698E+04  0.00000000000E+00 0. -1.
<mgrwt>
<rscale>  2 0.10736344E+03</rscale>
<asrwt>0</asrwt>
<pdfrwt beam="2">  1       21 0.65972304E-02 0.10736344E+03</pdfrwt>
<pdfrwt beam="1">  1        2 0.22540650E+00 0.10736344E+03</pdfrwt>
<totfact> 0.31295626E+04</totfact>
</mgrwt>
</event>
<event>
 4    1  0.5045766E+003  0.1328412E+03  0.7546771E-02  0.1223300E+00
         21   -1    0    0  503  502  0.00000000000E+00  0.00000000000E+00  0.46135650883E+02  0.46135650883E+02  0.00000000000E+00 0. -1.
         -2   -1    0    0    0  501 -0.00000000000E+00 -0.00000000000E+00 -0.51343805559E+03  0.51343805559E+03  0.00000000000E+00 0. -1.
         21    1    1    2  503  501  0.12326924019E+03  0.49512396962E+02 -0.92358432826E+02  0.16179265479E+03  0.00000000000E+00 0. -1.
         -2    1    1    2    0  502 -0.12326924019E+03 -0.49512396962E+02 -0.37494397188E+03  0.39778105168E+03  0.00000000000E+00 0. -1.
<mgrwt>
<rscale>  2 0.13284119E+03</rscale>
<asrwt>0</asrwt>
<pdfrwt beam="1">  1       21 0.70977924E-02 0.13284119E+03</pdfrwt>
<pdfrwt beam="2">  1       -2 0.78990470E-01 0.13284119E+03</pdfrwt>
<totfact> 0.17587212E+04</totfact>
</mgrwt>
</event>
<event>
 4    1  0.5045766E+003  0.1118048E+03  0.7546771E-02  0.1257264E+00
         21   -1    0    0  503  502  0.00000000000E+00  0.00000000000E+00  0.35857590791E+02  0.35857590791E+02  0.00000000000E+00 0. -1.
         -1   -1    0    0    0  501 -0.00000000000E+00 -0.00000000000E+00 -0.51618766003E+03  0.51618766003E+03  0.00000000000E+00 0. -1.
         21    1    1    2  503  501  0.11135936817E+03 -0.99701647508E+01 -0.82893909306E+02  0.13918230227E+03  0.00000000000E+00 0. -1.
         -1    1    1    2    0  502 -0.11135936817E+03  0.99701647508E+01 -0.39743615993E+03  0.41286294855E+03  0.00000000000E+00 0. -1.
<mgrwt>
<rscale>  2 0.11180480E+03</rscale>
<asrwt>0</asrwt>
<pdfrwt beam="1">  1       21 0.55165521E-02 0.11180480E+03</pdfrwt>
<pdfrwt beam="2">  1       -1 0.79413490E-01 0.11180480E+03</pdfrwt>
<totfact> 0.34848949E+04</totfact>
</mgrwt>
</event>
<event>
 4    1  0.5045766E+003  0.1524805E+03  0.7546771E-02  0.1197458E+00
          1   -1    0    0  503    0 -0.00000000000E+00  0.00000000000E+00  0.19426156153E+04  0.19426156153E+04  0.00000000000E+00 0. -1.
         21   -1    0    0  501  502  0.00000000000E+00 -0.00000000000E+00 -0.35588587478E+02  0.35588587478E+02  0.00000000000E+00 0.  1.
         21    1    1    2  503  502 -0.12636009281E+03 -0.85343046984E+02  0.14771592860E+03  0.21229767848E+03  0.00000000000E+00 0.  1.
          1    1    1    2  501    0  0.12636009281E+03  0.85343046984E+02  0.17593110992E+04  0.17659065243E+04  0.00000000000E+00 0. -1.
<mgrwt>
<rscale>  2 0.15248052E+03</rscale>
<asrwt>0</asrwt>
<pdfrwt beam="2">  1       21 0.54751688E-02 0.15248052E+03</pdfrwt>
<pdfrwt beam="1">  1        1 0.29886386E+00 0.15248052E+03</pdfrwt>
<totfact> 0.98521371E+03</totfact>
</mgrwt>
</event>
<event>
 4    1  0.5045766E+003  0.1045953E+03  0.7546771E-02  0.1270919E+00
         21   -1    0    0  503  502  0.00000000000E+00  0.00000000000E+00  0.57413817611E+03  0.57413817611E+03  0.00000000000E+00 0.  1.
          2   -1    0    0  502    0 -0.00000000000E+00 -0.00000000000E+00 -0.35362672223E+02  0.35362672223E+02  0.00000000000E+00 0. -1.
         21    1    1    2  503  501 -0.22411685683E+01 -0.10457132982E+03  0.47633905448E+03  0.48768748260E+03  0.00000000000E+00 0.  1.
          2    1    1    2  501    0  0.22411685683E+01  0.10457132982E+03  0.62436449400E+02  0.12181336573E+03  0.00000000000E+00 0. -1.
<mgrwt>
<rscale>  2 0.10459534E+03</rscale>
<asrwt>0</asrwt>
<pdfrwt beam="1">  1       21 0.88328943E-01 0.10459534E+03</pdfrwt>
<pdfrwt beam="2">  1        2 0.54404115E-02 0.10459534E+03</pdfrwt>
<totfact> 0.18621812E+04</totfact>
</mgrwt>
</event>
<event>
 4    1  0.5045766E+003  0.1463644E+03  0.7546771E-02  0.1205013E+00
         21   -1    0    0  503  502  0.00000000000E+00  0.00000000000E+00  0.34276283752E+03  0.34276283752E+03  0.00000000000E+00 0. -1.
          2   -1    0    0  502    0 -0.00000000000E+00 -0.00000000000E+00 -0.49214989169E+03  0.49214989169E+03  0.00000000000E+00 0.  1.
         21    1    1    2  503  501 -0.11004112564E+03 -0.96506453328E+02  0.31535616419E+03  0.34766658620E+03  0.00000000000E+00 0. -1.
          2    1    1    2  501    0  0.11004112564E+03  0.96506453328E+02 -0.46474321836E+03  0.48724614301E+03  0.00000000000E+00 0.  1.
<mgrwt>
<rscale>  2 0.14636442E+03</rscale>
<asrwt>0</asrwt>
<pdfrwt beam="1">  1       21 0.52732744E-01 0.14636442E+03</pdfrwt>
<pdfrwt beam="2">  1        2 0.75715368E-01 0.14636442E+03</pdfrwt>
<totfact> 0.27602129E+03</totfact>
</mgrwt>
</event>
<event>
 4    1  0.5045766E+003  0.1034509E+03  0.7546771E-02  0.1273202E+00
         21   -1    0    0  501  502  0.00000000000E+00  0.00000000000E+00  0.64441310626E+03  0.64441310626E+03  0.00000000000E+00 0. -1.
          3   -1    0    0  503    0 -0.00000000000E+00 -0.00000000000E+00 -0.58953868946E+02  0.58953868946E+02  0.00000000000E+00 0. -1.
         21    1    1    2  503  502 -0.17308068081E+02 -0.10199272768E+03  0.59078979195E+03  0.59977884590E+03  0.00000000000E+00 0. -1.
          3    1    1    2  501    0  0.17308068081E+02  0.10199272768E+03 -0.53305546321E+01  0.10358812931E+03  0.00000000000E+00 0. -1.
<mgrwt>
<rscale>  2 0.10345089E+03</rscale>
<asrwt>0</asrwt>
<pdfrwt beam="1">  1       21 0.99140473E-01 0.10345089E+03</pdfrwt>
<pdfrwt beam="2">  1        3 0.90698264E-02 0.10345089E+03</pdfrwt>
<totfact> 0.35521324E+03</totfact>
</mgrwt>
</event>
<event>
 4    1  0.5045766E+003  0.1066143E+03  0.7546771E-02  0.1266971E+00
         21   -1    0    0  501  502  0.00000000000E+00  0.00000000000E+00  0.22496322555E+02  0.22496322555E+02  0.00000000000E+00 0.  1.
          2   -1    0    0  503    0 -0.00000000000E+00 -0.00000000000E+00 -0.67088886028E+03  0.67088886028E+03  0.00000000000E+00 0. -1.
         21    1    1    2  503  502  0.52402092858E+02  0.92847320861E+02 -0.15193774259E+03  0.18561164282E+03  0.00000000000E+00 0.  1.
          2    1    1    2  501    0 -0.52402092858E+02 -0.92847320861E+02 -0.49645479513E+03  0.50777354001E+03  0.00000000000E+00 0. -1.
<mgrwt>
<rscale>  2 0.10661428E+03</rscale>
<asrwt>0</asrwt>
<pdfrwt beam="1">  1       21 0.34609731E-02 0.10661428E+03</pdfrwt>
<pdfrwt beam="2">  1        2 0.10321366E+00 0.10661428E+03</pdfrwt>
<totfact> 0.27119634E+05</totfact>
</mgrwt>
</event>
<event>
 4    1  0.5045766E+003  0.1198132E+03  0.7546771E-02  0.1243406E+00
          2   -1    0    0  502    0 -0.00000000000E+00  0.00000000000E+00  0.90382408795E+02  0.90382408795E+02  0.00000000000E+00 0.  1.
         21   -1    0    0  503  502  0.00000000000E+00 -0.00000000000E+00 -0.17862989610E+03  0.17862989610E+03  0.00000000000E+00 0.  1.
         21    1    1    2  503  501  0.42675683244E+02  0.11195525011E+03 -0.88908104779E+02  0.14919732928E+03  0.00000000000E+00 0.  1.
          2    1    1    2  501    0 -0.42675683244E+02 -0.11195525011E+03  0.66061747270E+00  0.11981497562E+03  0.00000000000E+00 0.  1.
<mgrwt>
<rscale>  2 0.11981315E+03</rscale>
<asrwt>0</asrwt>
<pdfrwt beam="2">  1       21 0.27481522E-01 0.11981315E+03</pdfrwt>
<pdfrwt beam="1">  1        2 0.13904986E-01 0.11981315E+03</pdfrwt>
<totfact> 0.64949972E+04</totfact>
</mgrwt>
</event>
<event>
 4    1  0.5045766E+003  0.1002744E+03  0.7546771E-02  0.1279720E+00
          1   -1    0    0  503    0 -0.00000000000E+00  0.00000000000E+00  0.77672321490E+03  0.77672321490E+03  0.00000000000E+00 0. -1.
         21   -1    0    0  501  502  0.00000000000E+00 -0.00000000000E+00 -0.13210183181E+02  0.13210183181E+02  0.00000000000E+00 0. -1.
         21    1    1    2  503  502  0.89087652983E+02  0.46025436667E+02  0.32583285819E+03  0.34091348200E+03  0.00000000000E+00 0. -1.
          1    1    1    2  501    0 -0.89087652983E+02 -0.46025436667E+02  0.43768017353E+03  0.44901991608E+03  0.00000000000E+00 0. -1.
<mgrwt>
<rscale>  2 0.10027438E+03</rscale>
<asrwt>0</asrwt>
<pdfrwt beam="2">  1       21 0.20323365E-02 0.10027438E+03</pdfrwt>
<pdfrwt beam="1">  1        1 0.11949584E+00 0.10027438E+03</pdfrwt>
<totfact> 0.31398191E+05</totfact>
</mgrwt>
</event>
<event>
 4    1  0.5045766E+003  0.1071528E+03  0.7546771E-02  0.1265935E+00
         21   -1    0    0  503  502  0.00000000000E+00  0.00000000000E+00  0.70249271410E+02  0.70249271410E+02  0.00000000000E+00 0.  1.
         -2   -1    0    0    0  501 -0.00000000000E+00 -0.00000000000E+00 -0.18464182407E+03  0.18464182407E+03  0.00000000000E+00 0.  1.
         21    1    1    2  503  501  0.60246687858E+01  0.10698334129E+03 -0.14012721722E+02  0.10806520401E+03  0.00000000000E+00 0.  1.
         -2    1    1    2    0  502 -0.60246687858E+01 -0.10698334129E+03 -0.10037983094E+03  0.14682589147E+03  0.00000000000E+00 0.  1.
<mgrwt>
<rscale>  2 0.10715284E+03</rscale>
<asrwt>0</asrwt>
<pdfrwt beam="1">  1       21 0.10807580E-01 0.10715284E+03</pdfrwt>
<pdfrwt beam="2">  1       -2 0.28406434E-01 0.10715284E+03</pdfrwt>
<totfact> 0.62508825E+04</totfact>
</mgrwt>
</event>
<event>
 4    1  0.5045766E+003  0.2316222E+03  0.7546771E-02  0.1125503E+00
         21   -1    0    0  503  502  0.00000000000E+00  0.00000000000E+00  0.31321136180E+03  0.31321136180E+03  0.00000000000E+00 0. -1.
         -4   -1    0    0    0  501 -0.00000000000E+00 -0.00000000000E+00 -0.17131284046E+03  0.17131284046E+03  0.00000000000E+00 0. -1.
         21    1    1    2  503  501  0.82468486783E+01 -0.23147535245E+03  0.67940039299E+02  0.24138081582E+03  0.00000000000E+00 0. -1.
         -4    1    1    2    0  502 -0.82468486783E+01  0.23147535245E+03  0.73958482042E+02  0.24314338644E+03  0.00000000000E+00 0. -1.
<mgrwt>
<rscale>  2 0.23162221E+03</rscale>
<asrwt>0</asrwt>
<pdfrwt beam="1">  1       21 0.48186363E-01 0.23162221E+03</pdfrwt>
<pdfrwt beam="2">  1       -4 0.26355822E-01 0.23162221E+03</pdfrwt>
<totfact> 0.23554924E+03</totfact>
</mgrwt>
</event>
<event>
 4    1  0.5045766E+003  0.1089737E+03  0.7546771E-02  0.1262482E+00
          2   -1    0    0  502    0 -0.00000000000E+00  0.00000000000E+00  0.79832995006E+03  0.79832995006E+03  0.00000000000E+00 0.  1.
         21   -1    0    0  503  502  0.00000000000E+00 -0.00000000000E+00 -0.21828777507E+02  0.21828777507E+02  0.00000000000E+00 0. -1.
         21    1    1    2  503  501 -0.50306812380E+02 -0.96666922444E+02  0.15679948512E+03  0.19094854752E+03  0.00000000000E+00 0. -1.
          2    1    1    2  501    0  0.50306812380E+02  0.96666922444E+02  0.61970168743E+03  0.62921018005E+03  0.00000000000E+00 0.  1.
<mgrwt>
<rscale>  2 0.10897371E+03</rscale>
<asrwt>0</asrwt>
<pdfrwt beam="2">  1       21 0.33582741E-02 0.10897371E+03</pdfrwt>
<pdfrwt beam="1">  1        2 0.12281997E+00 0.10897371E+03</pdfrwt>
<totfact> 0.23178030E+05</totfact>
</mgrwt>
</event>
<event>
 4    1  0.5045766E+003  0.1102714E+03  0.7546771E-02  0.1260068E+00
          2   -1    0    0  503    0 -0.00000000000E+00  0.00000000000E+00  0.20752412224E+04  0.20752412224E+04  0.00000000000E+00 0. -1.
         21   -1    0    0  501  502  0.00000000000E+00 -0.00000000000E+00 -0.16883957866E+02  0.16883957866E+02  0.00000000000E+00 0.  1.
         21    1    1    2  503  502  0.10375421071E+03  0.37347565582E+02  0.18389958833E+03  0.21442676018E+03  0.00000000000E+00 0.  1.
          2    1    1    2  501    0 -0.10375421071E+03 -0.37347565582E+02  0.18744576762E+04  0.18776984200E+04  0.00000000000E+00 0. -1.
<mgrwt>
<rscale>  2 0.11027138E+03</rscale>
<asrwt>0</asrwt>
<pdfrwt beam="2">  1       21 0.25975336E-02 0.11027138E+03</pdfrwt>
<pdfrwt beam="1">  1        2 0.31926768E+00 0.11027138E+03</pdfrwt>
<totfact> 0.71824201E+04</totfact>
</mgrwt>
</event>
<event>
 4    1  0.5045766E+003  0.1028219E+03  0.7546771E-02  0.1274471E+00
          2   -1    0    0  503    0 -0.00000000000E+00  0.00000000000E+00  0.27473792231E+04  0.27473792231E+04  0.00000000000E+00 0.  1.
         21   -1    0    0  501  502  0.00000000000E+00 -0.00000000000E+00 -0.48746633924E+01  0.48746633924E+01  0.00000000000E+00 0.  1.
         21    1    1    2  503  502  0.66709116623E+02  0.78244758764E+02  0.73976171974E+03  0.74687331624E+03  0.00000000000E+00 0.  1.
          2    1    1    2  501    0 -0.66709116623E+02 -0.78244758764E+02  0.20027428399E+04  0.20053805702E+04  0.00000000000E+00 0.  1.
<mgrwt>
<rscale>  2 0.10282193E+03</rscale>
<asrwt>0</asrwt>
<pdfrwt beam="2">  1       21 0.74995041E-03 0.10282193E+03</pdfrwt>
<pdfrwt beam="1">  1        2 0.42267249E+00 0.10282193E+03</pdfrwt>
<totfact> 0.22928416E+05</totfact>
</mgrwt>
</event>
<event>
 4    1  0.5045766E+003  0.1056541E+03  0.7546771E-02  0.1268836E+00
         21   -1    0    0  501  502  0.00000000000E+00  0.00000000000E+00  0.78542123481E+02  0.78542123481E+02  0.00000000000E+00 0.  1.
         -2   -1    0    0    0  501 -0.00000000000E+00 -0.00000000000E+00 -0.22315604452E+03  0.22315604452E+03  0.00000000000E+00 0.  1.
         21    1    1    2  503  502 -0.62362011464E+01 -0.10546984839E+03  0.18593222345E+02  0.10727761668E+03  0.00000000000E+00 0.  1.
         -2    1    1    2    0  503  0.62362011464E+01  0.10546984839E+03 -0.16320714338E+03  0.19442055132E+03  0.00000000000E+00 0.  1.
<mgrwt>
<rscale>  2 0.10565405E+03</rscale>
<asrwt>0</asrwt>
<pdfrwt beam="1">  1       21 0.12083404E-01 0.10565405E+03</pdfrwt>
<pdfrwt beam="2">  1       -2 0.34331699E-01 0.10565405E+03</pdfrwt>
<totfact> 0.36504787E+04</totfact>
</mgrwt>
</event>
<event>
 4    1  0.5045766E+003  0.1215088E+03  0.7546771E-02  0.1240629E+00
         21   -1    0    0  501  502  0.00000000000E+00  0.00000000000E+00  0.25112566799E+02  0.25112566799E+02  0.00000000000E+00 0.  1.
          2   -1    0    0  503    0 -0.00000000000E+00 -0.00000000000E+00 -0.14665528554E+04  0.14665528554E+04  0.00000000000E+00 0. -1.
         21    1    1    2  503  502  0.73593302240E+02 -0.96687137567E+02 -0.14342972047E+03  0.18797994951E+03  0.00000000000E+00 0.  1.
          2    1    1    2  501    0 -0.73593302240E+02  0.96687137567E+02 -0.12980105681E+04  0.13036854727E+04  0.00000000000E+00 0. -1.
<mgrwt>
<rscale>  2 0.12150875E+03</rscale>
<asrwt>0</asrwt>
<pdfrwt beam="1">  1       21 0.38634730E-02 0.12150875E+03</pdfrwt>
<pdfrwt beam="2">  1        2 0.22562345E+00 0.12150875E+03</pdfrwt>
<totfact> 0.76421099E+04</totfact>
</mgrwt>
</event>
<event>
 4    1  0.5045766E+003  0.1118304E+03  0.7546771E-02  0.1257217E+00
         21   -1    0    0  503  502  0.00000000000E+00  0.00000000000E+00  0.27798647294E+03  0.27798647294E+03  0.00000000000E+00 0. -1.
         -2   -1    0    0    0  501 -0.00000000000E+00 -0.00000000000E+00 -0.45100748724E+02  0.45100748724E+02  0.00000000000E+00 0. -1.
         21    1    1    2  503  501  0.10823152164E+03 -0.28142150579E+02  0.12452154420E+03  0.16736683628E+03  0.00000000000E+00 0. -1.
         -2    1    1    2    0  502 -0.10823152164E+03  0.28142150579E+02  0.10836418001E+03  0.15572038539E+03  0.00000000000E+00 0. -1.
<mgrwt>
<rscale>  2 0.11183042E+03</rscale>
<asrwt>0</asrwt>
<pdfrwt beam="1">  1       21 0.42767149E-01 0.11183042E+03</pdfrwt>
<pdfrwt beam="2">  1       -2 0.69385769E-02 0.11183042E+03</pdfrwt>
<totfact> 0.47768141E+04</totfact>
</mgrwt>
</event>
<event>
 4    1  0.5045766E+003  0.1516764E+03  0.7546771E-02  0.1198428E+00
         21   -1    0    0  503  502  0.00000000000E+00  0.00000000000E+00  0.43615924979E+03  0.43615924979E+03  0.00000000000E+00 0.  1.
          3   -1    0    0  502    0 -0.00000000000E+00 -0.00000000000E+00 -0.12012735655E+03  0.12012735655E+03  0.00000000000E+00 0.  1.
         21    1    1    2  503  501 -0.63136228331E+02  0.13791139928E+03  0.36632920878E+03  0.39648811658E+03  0.00000000000E+00 0.  1.
          3    1    1    2  501    0  0.63136228331E+02 -0.13791139928E+03 -0.50297315537E+02  0.15979848976E+03  0.00000000000E+00 0.  1.
<mgrwt>
<rscale>  2 0.15167642E+03</rscale>
<asrwt>0</asrwt>
<pdfrwt beam="1">  1       21 0.67101422E-01 0.15167642E+03</pdfrwt>
<pdfrwt beam="2">  1        3 0.18481132E-01 0.15167642E+03</pdfrwt>
<totfact> 0.25832800E+03</totfact>
</mgrwt>
</event>
<event>
 4    1  0.5045766E+003  0.1068995E+03  0.7546771E-02  0.1266422E+00
          2   -1    0    0  502    0 -0.00000000000E+00  0.00000000000E+00  0.16440291889E+04  0.16440291889E+04  0.00000000000E+00 0. -1.
         21   -1    0    0  503  502  0.00000000000E+00 -0.00000000000E+00 -0.22946466123E+02  0.22946466123E+02  0.00000000000E+00 0. -1.
         21    1    1    2  503  501 -0.77014574982E+02 -0.74136796143E+02  0.11465080602E+03  0.15675559519E+03  0.00000000000E+00 0. -1.
          2    1    1    2  501    0  0.77014574982E+02  0.74136796143E+02  0.15064319168E+04  0.15102200598E+04  0.00000000000E+00 0. -1.
<mgrwt>
<rscale>  2 0.10689953E+03</rscale>
<asrwt>0</asrwt>
<pdfrwt beam="2">  1       21 0.35302268E-02 0.10689953E+03</pdfrwt>
<pdfrwt beam="1">  1        2 0.25292748E+00 0.10689953E+03</pdfrwt>
<totfact> 0.71975677E+04</totfact>
</mgrwt>
</event>
<event>
 4    1  0.5045766E+003  0.1455784E+03  0.7546771E-02  0.1206014E+00
         21   -1    0    0  501  502  0.00000000000E+00  0.00000000000E+00  0.32219540462E+03  0.32219540462E+03  0.00000000000E+00 0.  1.
          1   -1    0    0  503    0 -0.00000000000E+00 -0.00000000000E+00 -0.20247921329E+03  0.20247921329E+03  0.00000000000E+00 0. -1.
         21    1    1    2  503  502  0.14555884645E+03 -0.23847394703E+01  0.27541280870E+03  0.31152091416E+03  0.00000000000E+00 0.  1.
          1    1    1    2  501    0 -0.14555884645E+03  0.23847394703E+01 -0.15569661737E+03  0.21315370375E+03  0.00000000000E+00 0. -1.
<mgrwt>
<rscale>  2 0.14557838E+03</rscale>
<asrwt>0</asrwt>
<pdfrwt beam="1">  1       21 0.49568524E-01 0.14557838E+03</pdfrwt>
<pdfrwt beam="2">  1        1 0.31150648E-01 0.14557838E+03</pdfrwt>
<totfact> 0.61524161E+03</totfact>
</mgrwt>
</event>
<event>
 4    1  0.5045766E+003  0.2062674E+03  0.7546771E-02  0.1144556E+00
          2   -1    0    0  503    0 -0.00000000000E+00  0.00000000000E+00  0.77108581399E+03  0.77108581399E+03  0.00000000000E+00 0. -1.
         21   -1    0    0  501  502  0.00000000000E+00 -0.00000000000E+00 -0.66076848479E+02  0.66076848479E+02  0.00000000000E+00 0. -1.
         21    1    1    2  503  502 -0.19170455074E+03  0.76128881687E+02  0.18249842153E+03  0.27541226419E+03  0.00000000000E+00 0. -1.
          2    1    1    2  501    0  0.19170455074E+03 -0.76128881687E+02  0.52251054398E+03  0.56175039828E+03  0.00000000000E+00 0. -1.
<mgrwt>
<rscale>  2 0.20626740E+03</rscale>
<asrwt>0</asrwt>
<pdfrwt beam="2">  1       21 0.10165670E-01 0.20626740E+03</pdfrwt>
<pdfrwt beam="1">  1        2 0.11862858E+00 0.20626740E+03</pdfrwt>
<totfact> 0.36975291E+04</totfact>
</mgrwt>
</event>
<event>
 4    1  0.5045766E+003  0.1171968E+03  0.7546771E-02  0.1247794E+00
         -1   -1    0    0    0  501 -0.00000000000E+00  0.00000000000E+00  0.27805822422E+03  0.27805822422E+03  0.00000000000E+00 0.  1.
         21   -1    0    0  503  502  0.00000000000E+00 -0.00000000000E+00 -0.67420276028E+02  0.67420276028E+02  0.00000000000E+00 0.  1.
         21    1    1    2  503  501  0.60089250153E+02 -0.10061994535E+03  0.16005051392E+02  0.11828462730E+03  0.00000000000E+00 0.  1.
         -1    1    1    2    0  502 -0.60089250153E+02  0.10061994535E+03  0.19463289680E+03  0.22719387294E+03  0.00000000000E+00 0.  1.
<mgrwt>
<rscale>  2 0.11719681E+03</rscale>
<asrwt>0</asrwt>
<pdfrwt beam="2">  1       21 0.10372350E-01 0.11719681E+03</pdfrwt>
<pdfrwt beam="1">  1       -1 0.42778188E-01 0.11719681E+03</pdfrwt>
<totfact> 0.37957435E+04</totfact>
</mgrwt>
</event>
<event>
 4    1  0.5045766E+003  0.1122055E+03  0.7546771E-02  0.1256539E+00
         21   -1    0    0  501  502  0.00000000000E+00  0.00000000000E+00  0.36817513627E+03  0.36817513627E+03  0.00000000000E+00 0.  1.
          1   -1    0    0  503    0 -0.00000000000E+00 -0.00000000000E+00 -0.49367252698E+02  0.49367252698E+02  0.00000000000E+00 0.  1.
         21    1    1    2  503  502 -0.93086827766E+02 -0.62649073136E+02  0.27513871939E+03  0.29713865245E+03  0.00000000000E+00 0.  1.
          1    1    1    2  501    0  0.93086827766E+02  0.62649073136E+02  0.43669164179E+02  0.12040373652E+03  0.00000000000E+00 0.  1.
<mgrwt>
<rscale>  2 0.11220545E+03</rscale>
<asrwt>0</asrwt>
<pdfrwt beam="1">  1       21 0.56642327E-01 0.11220545E+03</pdfrwt>
<pdfrwt beam="2">  1        1 0.75949622E-02 0.11220545E+03</pdfrwt>
<totfact> 0.28894704E+04</totfact>
</mgrwt>
</event>
<event>
 4    1  0.5045766E+003  0.1067942E+03  0.7546771E-02  0.1266624E+00
         21   -1    0    0  503  502  0.00000000000E+00  0.00000000000E+00  0.18446530343E+03  0.18446530343E+03  0.00000000000E+00 0.  1.
          2   -1    0    0  502    0 -0.00000000000E+00 -0.00000000000E+00 -0.71680386509E+03  0.71680386509E+03  0.00000000000E+00 0.  1.
         21    1    1    2  503  501  0.79275360229E+02 -0.71557084992E+02  0.16459255270E+03  0.19620323024E+03  0.00000000000E+00 0.  1.
          2    1    1    2  501    0 -0.79275360229E+02  0.71557084992E+02 -0.69693111436E+03  0.70506593828E+03  0.00000000000E+00 0.  1.
<mgrwt>
<rscale>  2 0.10679419E+03</rscale>
<asrwt>0</asrwt>
<pdfrwt beam="1">  1       21 0.28379277E-01 0.10679419E+03</pdfrwt>
<pdfrwt beam="2">  1        2 0.11027752E+00 0.10679419E+03</pdfrwt>
<totfact> 0.63042914E+03</totfact>
</mgrwt>
</event>
<event>
 4    1  0.5045766E+003  0.1044196E+03  0.7546771E-02  0.1271267E+00
          2   -1    0    0  503    0 -0.00000000000E+00  0.00000000000E+00  0.23190870490E+03  0.23190870490E+03  0.00000000000E+00 0. -1.
         21   -1    0    0  501  502  0.00000000000E+00 -0.00000000000E+00 -0.47019484488E+02  0.47019484488E+02  0.00000000000E+00 0. -1.
         21    1    1    2  503  502  0.80711758674E+02 -0.66249985849E+02  0.91265722148E+02  0.13868266169E+03  0.00000000000E+00 0. -1.
          2    1    1    2  501    0 -0.80711758674E+02  0.66249985849E+02  0.93623498268E+02  0.14024552770E+03  0.00000000000E+00 0. -1.
<mgrwt>
<rscale>  2 0.10441958E+03</rscale>
<asrwt>0</asrwt>
<pdfrwt beam="2">  1       21 0.72337670E-02 0.10441958E+03</pdfrwt>
<pdfrwt beam="1">  1        2 0.35678262E-01 0.10441958E+03</pdfrwt>
<totfact> 0.24753982E+05</totfact>
</mgrwt>
</event>
<event>
 4    1  0.5045766E+003  0.1504926E+03  0.7546771E-02  0.1199869E+00
         21   -1    0    0  501  502  0.00000000000E+00  0.00000000000E+00  0.21204926415E+02  0.21204926415E+02  0.00000000000E+00 0.  1.
          1   -1    0    0  503    0 -0.00000000000E+00 -0.00000000000E+00 -0.12974555853E+04  0.12974555853E+04  0.00000000000E+00 0.  1.
         21    1    1    2  503  502 -0.11514836977E+03  0.96896201093E+02 -0.36088633089E+03  0.39100762738E+03  0.00000000000E+00 0.  1.
          1    1    1    2  501    0  0.11514836977E+03 -0.96896201093E+02 -0.91536432799E+03  0.92765288433E+03  0.00000000000E+00 0.  1.
<mgrwt>
<rscale>  2 0.15049259E+03</rscale>
<asrwt>0</asrwt>
<pdfrwt beam="1">  1       21 0.32622967E-02 0.15049259E+03</pdfrwt>
<pdfrwt beam="2">  1        1 0.19960853E+00 0.15049259E+03</pdfrwt>
<totfact> 0.61295139E+04</totfact>
</mgrwt>
</event>
<event>
 4    1  0.5045766E+003  0.1936358E+03  0.7546771E-02  0.1155222E+00
         21   -1    0    0  501  502  0.00000000000E+00  0.00000000000E+00  0.15078891813E+03  0.15078891813E+03  0.00000000000E+00 0. -1.
          1   -1    0    0  503    0 -0.00000000000E+00 -0.00000000000E+00 -0.75014681958E+03  0.75014681958E+03  0.00000000000E+00 0. -1.
         21    1    1    2  503  502 -0.18842032028E+03 -0.44638699175E+02  0.68637762022E+02  0.20544092322E+03  0.00000000000E+00 0. -1.
          1    1    1    2  501    0  0.18842032028E+03  0.44638699175E+02 -0.66799566347E+03  0.69549481448E+03  0.00000000000E+00 0. -1.
<mgrwt>
<rscale>  2 0.19363582E+03</rscale>
<asrwt>0</asrwt>
<pdfrwt beam="1">  1       21 0.23198295E-01 0.19363582E+03</pdfrwt>
<pdfrwt beam="2">  1        1 0.11540721E+00 0.19363582E+03</pdfrwt>
<totfact> 0.49527729E+03</totfact>
</mgrwt>
</event>
<event>
 4    1  0.5045766E+003  0.1626706E+03  0.7546771E-02  0.1185714E+00
         21   -1    0    0  501  502  0.00000000000E+00  0.00000000000E+00  0.22018266696E+03  0.22018266696E+03  0.00000000000E+00 0. -1.
          2   -1    0    0  503    0 -0.00000000000E+00 -0.00000000000E+00 -0.44147792967E+03  0.44147792967E+03  0.00000000000E+00 0.  1.
         21    1    1    2  503  502  0.11299390268E+03 -0.11702175214E+03  0.17158306778E+03  0.23643701416E+03  0.00000000000E+00 0. -1.
          2    1    1    2  501    0 -0.11299390268E+03  0.11702175214E+03 -0.39287833049E+03  0.42522358247E+03  0.00000000000E+00 0.  1.
<mgrwt>
<rscale>  2 0.16267056E+03</rscale>
<asrwt>0</asrwt>
<pdfrwt beam="1">  1       21 0.33874257E-01 0.16267056E+03</pdfrwt>
<pdfrwt beam="2">  1        2 0.67919681E-01 0.16267056E+03</pdfrwt>
<totfact> 0.75702882E+03</totfact>
</mgrwt>
</event>
<event>
 4    1  0.5045766E+003  0.1040765E+03  0.7546771E-02  0.1271950E+00
          4   -1    0    0  503    0 -0.00000000000E+00  0.00000000000E+00  0.11763662568E+03  0.11763662568E+03  0.00000000000E+00 0.  1.
         21   -1    0    0  501  502  0.00000000000E+00 -0.00000000000E+00 -0.14766053054E+03  0.14766053054E+03  0.00000000000E+00 0. -1.
         21    1    1    2  503  502 -0.40714564245E+02 -0.95782260494E+02 -0.96394978447E+02  0.14185876440E+03  0.00000000000E+00 0. -1.
          4    1    1    2  501    0  0.40714564245E+02  0.95782260494E+02  0.66371073584E+02  0.12343839182E+03  0.00000000000E+00 0.  1.
<mgrwt>
<rscale>  2 0.10407650E+03</rscale>
<asrwt>0</asrwt>
<pdfrwt beam="2">  1       21 0.22717005E-01 0.10407650E+03</pdfrwt>
<pdfrwt beam="1">  1        4 0.18097942E-01 0.10407650E+03</pdfrwt>
<totfact> 0.19496463E+04</totfact>
</mgrwt>
</event>
<event>
 4    1  0.5045766E+003  0.1143687E+03  0.7546771E-02  0.1252687E+00
          2   -1    0    0  503    0 -0.00000000000E+00  0.00000000000E+00  0.13647579307E+03  0.13647579307E+03  0.00000000000E+00 0.  1.
         21   -1    0    0  501  502  0.00000000000E+00 -0.00000000000E+00 -0.38253538599E+03  0.38253538599E+03  0.00000000000E+00 0.  1.
         21    1    1    2  503  502 -0.10668912126E+03  0.41202323792E+02 -0.34768643811E+03  0.36601374200E+03  0.00000000000E+00 0.  1.
          2    1    1    2  501    0  0.10668912126E+03 -0.41202323792E+02  0.10162684519E+03  0.15299743706E+03  0.00000000000E+00 0.  1.
<mgrwt>
<rscale>  2 0.11436870E+03</rscale>
<asrwt>0</asrwt>
<pdfrwt beam="2">  1       21 0.58851597E-01 0.11436870E+03</pdfrwt>
<pdfrwt beam="1">  1        2 0.20996276E-01 0.11436870E+03</pdfrwt>
<totfact> 0.88323116E+03</totfact>
</mgrwt>
</event>
<event>
 4    1  0.5045766E+003  0.1259542E+03  0.7546771E-02  0.1233586E+00
          2   -1    0    0  502    0 -0.00000000000E+00  0.00000000000E+00  0.61378707248E+03  0.61378707248E+03  0.00000000000E+00 0.  1.
         21   -1    0    0  503  502  0.00000000000E+00 -0.00000000000E+00 -0.17069221681E+03  0.17069221681E+03  0.00000000000E+00 0. -1.
         21    1    1    2  503  501  0.89922048401E+02 -0.88195686713E+02 -0.13977669084E+03  0.18815413162E+03  0.00000000000E+00 0. -1.
          2    1    1    2  501    0 -0.89922048401E+02  0.88195686713E+02  0.58287154650E+03  0.59632515767E+03  0.00000000000E+00 0.  1.
<mgrwt>
<rscale>  2 0.12595417E+03</rscale>
<asrwt>0</asrwt>
<pdfrwt beam="2">  1       21 0.26260341E-01 0.12595417E+03</pdfrwt>
<pdfrwt beam="1">  1        2 0.94428779E-01 0.12595417E+03</pdfrwt>
<totfact> 0.86837368E+03</totfact>
</mgrwt>
</event>
<event>
 4    1  0.5045766E+003  0.1505794E+03  0.7546771E-02  0.1199763E+00
         21   -1    0    0  503  502  0.00000000000E+00  0.00000000000E+00  0.88696704729E+02  0.88696704729E+02  0.00000000000E+00 0.  1.
          3   -1    0    0  502    0 -0.00000000000E+00 -0.00000000000E+00 -0.39502531761E+03  0.39502531761E+03  0.00000000000E+00 0. -1.
         21    1    1    2  503  501 -0.21134399998E+02  0.14908887875E+03 -0.94941259189E+01  0.15087841150E+03  0.00000000000E+00 0.  1.
          3    1    1    2  501    0  0.21134399998E+02 -0.14908887875E+03 -0.29683448697E+03  0.33284361085E+03  0.00000000000E+00 0. -1.
<mgrwt>
<rscale>  2 0.15057940E+03</rscale>
<asrwt>0</asrwt>
<pdfrwt beam="1">  1       21 0.13645647E-01 0.15057940E+03</pdfrwt>
<pdfrwt beam="2">  1        3 0.60773126E-01 0.15057940E+03</pdfrwt>
<totfact> 0.61146753E+03</totfact>
</mgrwt>
</event>
<event>
 4    1  0.5045766E+003  0.1095598E+03  0.7546771E-02  0.1261387E+00
         21   -1    0    0  501  502  0.00000000000E+00  0.00000000000E+00  0.18219217811E+03  0.18219217811E+03  0.00000000000E+00 0.  1.
          2   -1    0    0  503    0 -0.00000000000E+00 -0.00000000000E+00 -0.59791962837E+03  0.59791962837E+03  0.00000000000E+00 0. -1.
         21    1    1    2  503  502  0.10949801352E+03  0.36787160800E+01  0.16007564402E+03  0.19397824550E+03  0.00000000000E+00 0.  1.
          2    1    1    2  501    0 -0.10949801352E+03 -0.36787160800E+01 -0.57580309428E+03  0.58613356097E+03  0.00000000000E+00 0. -1.
<mgrwt>
<rscale>  2 0.10955979E+03</rscale>
<asrwt>0</asrwt>
<pdfrwt beam="1">  1       21 0.28029566E-01 0.10955979E+03</pdfrwt>
<pdfrwt beam="2">  1        2 0.91987636E-01 0.10955979E+03</pdfrwt>
<totfact> 0.79480954E+03</totfact>
</mgrwt>
</event>
<event>
 4    1  0.5045766E+003  0.1018450E+03  0.7546771E-02  0.1276463E+00
          2   -1    0    0  502    0 -0.00000000000E+00  0.00000000000E+00  0.26449107573E+04  0.26449107573E+04  0.00000000000E+00 0. -1.
         21   -1    0    0  503  502  0.00000000000E+00 -0.00000000000E+00 -0.54583742078E+02  0.54583742078E+02  0.00000000000E+00 0. -1.
         21    1    1    2  503  501 -0.77005082769E+02  0.66653047021E+02 -0.51927821287E+01  0.10197733295E+03  0.00000000000E+00 0. -1.
          2    1    1    2  501    0  0.77005082769E+02 -0.66653047021E+02  0.25955197973E+04  0.25975171664E+04  0.00000000000E+00 0. -1.
<mgrwt>
<rscale>  2 0.10184504E+03</rscale>
<asrwt>0</asrwt>
<pdfrwt beam="2">  1       21 0.83975008E-02 0.10184504E+03</pdfrwt>
<pdfrwt beam="1">  1        2 0.40690925E+00 0.10184504E+03</pdfrwt>
<totfact> 0.51498767E+03</totfact>
</mgrwt>
</event>
<event>
 4    1  0.5045766E+003  0.1042487E+03  0.7546771E-02  0.1271607E+00
         -3   -1    0    0    0  501 -0.00000000000E+00  0.00000000000E+00  0.11681766482E+04  0.11681766482E+04  0.00000000000E+00 0. -1.
         21   -1    0    0  503  502  0.00000000000E+00 -0.00000000000E+00 -0.14299447047E+02  0.14299447047E+02  0.00000000000E+00 0. -1.
         21    1    1    2  503  501  0.10031260290E+03  0.28375558146E+02  0.22745697496E+03  0.25020884489E+03  0.00000000000E+00 0. -1.
         -3    1    1    2    0  502 -0.10031260290E+03 -0.28375558146E+02  0.92642022616E+03  0.93226725033E+03  0.00000000000E+00 0. -1.
<mgrwt>
<rscale>  2 0.10424870E+03</rscale>
<asrwt>0</asrwt>
<pdfrwt beam="2">  1       21 0.21999158E-02 0.10424870E+03</pdfrwt>
<pdfrwt beam="1">  1       -3 0.17971941E+00 0.10424870E+03</pdfrwt>
<totfact> 0.10794248E+04</totfact>
</mgrwt>
</event>
<event>
 4    1  0.5045766E+003  0.3319706E+03  0.7546771E-02  0.1070268E+00
          2   -1    0    0  503    0 -0.00000000000E+00  0.00000000000E+00  0.17717901250E+04  0.17717901250E+04  0.00000000000E+00 0. -1.
         21   -1    0    0  501  502  0.00000000000E+00 -0.00000000000E+00 -0.39104400099E+03  0.39104400099E+03  0.00000000000E+00 0. -1.
         21    1    1    2  503  502  0.22364759388E+03  0.24532883391E+03 -0.30131637463E+03  0.44832581971E+03  0.00000000000E+00 0. -1.
          2    1    1    2  501    0 -0.22364759388E+03 -0.24532883391E+03  0.16820624987E+04  0.17145083063E+04  0.00000000000E+00 0. -1.
<mgrwt>
<rscale>  2 0.33197061E+03</rscale>
<asrwt>0</asrwt>
<pdfrwt beam="2">  1       21 0.60160617E-01 0.33197061E+03</pdfrwt>
<pdfrwt beam="1">  1        2 0.27258309E+00 0.33197061E+03</pdfrwt>
<totfact> 0.29859454E+02</totfact>
</mgrwt>
</event>
<event>
 4    1  0.5045766E+003  0.1585997E+03  0.7546771E-02  0.1190287E+00
          2   -1    0    0  502    0 -0.00000000000E+00  0.00000000000E+00  0.30204777705E+04  0.30204777705E+04  0.00000000000E+00 0.  1.
         21   -1    0    0  503  502  0.00000000000E+00 -0.00000000000E+00 -0.32045612518E+02  0.32045612518E+02  0.00000000000E+00 0.  1.
         21    1    1    2  503  501 -0.10432932715E+02  0.15825615633E+03  0.18116304795E+03  0.24077771293E+03  0.00000000000E+00 0.  1.
          2    1    1    2  501    0  0.10432932715E+02 -0.15825615633E+03  0.28072691101E+04  0.28117456701E+04  0.00000000000E+00 0.  1.
<mgrwt>
<rscale>  2 0.15859968E+03</rscale>
<asrwt>0</asrwt>
<pdfrwt beam="2">  1       21 0.49300966E-02 0.15859968E+03</pdfrwt>
<pdfrwt beam="1">  1        2 0.46468866E+00 0.15859968E+03</pdfrwt>
<totfact> 0.75135500E+03</totfact>
</mgrwt>
</event>
<event>
 4    1  0.5045766E+003  0.1094178E+03  0.7546771E-02  0.1261652E+00
          2   -1    0    0  503    0 -0.00000000000E+00  0.00000000000E+00  0.11096505009E+04  0.11096505009E+04  0.00000000000E+00 0. -1.
         21   -1    0    0  501  502  0.00000000000E+00 -0.00000000000E+00 -0.13934480678E+02  0.13934480678E+02  0.00000000000E+00 0. -1.
         21    1    1    2  503  502 -0.46673395034E+02 -0.98963925739E+02  0.28095172846E+03  0.30150644790E+03  0.00000000000E+00 0. -1.
          2    1    1    2  501    0  0.46673395034E+02  0.98963925739E+02  0.81476429179E+03  0.82207853370E+03  0.00000000000E+00 0. -1.
<mgrwt>
<rscale>  2 0.10941784E+03</rscale>
<asrwt>0</asrwt>
<pdfrwt beam="2">  1       21 0.21437671E-02 0.10941784E+03</pdfrwt>
<pdfrwt beam="1">  1        2 0.17071539E+00 0.10941784E+03</pdfrwt>
<totfact> 0.31077569E+05</totfact>
</mgrwt>
</event>
<event>
 4    1  0.5045766E+003  0.1109388E+03  0.7546771E-02  0.1258841E+00
          3   -1    0    0  503    0 -0.00000000000E+00  0.00000000000E+00  0.95645460966E+03  0.95645460966E+03  0.00000000000E+00 0.  1.
         21   -1    0    0  501  502  0.00000000000E+00 -0.00000000000E+00 -0.18721381527E+02  0.18721381527E+02  0.00000000000E+00 0.  1.
         21    1    1    2  503  502  0.44932757951E+02 -0.10143208655E+03  0.19622216110E+03  0.22541197268E+03  0.00000000000E+00 0.  1.
          3    1    1    2  501    0 -0.44932757951E+02  0.10143208655E+03  0.74151106703E+03  0.74976401851E+03  0.00000000000E+00 0.  1.
<mgrwt>
<rscale>  2 0.11093882E+03</rscale>
<asrwt>0</asrwt>
<pdfrwt beam="2">  1       21 0.28802133E-02 0.11093882E+03</pdfrwt>
<pdfrwt beam="1">  1        3 0.14714682E+00 0.11093882E+03</pdfrwt>
<totfact> 0.11681582E+04</totfact>
</mgrwt>
</event>
<event>
 4    1  0.5045766E+003  0.1210515E+03  0.7546771E-02  0.1241372E+00
         -3   -1    0    0    0  501 -0.00000000000E+00  0.00000000000E+00  0.33257026825E+03  0.33257026825E+03  0.00000000000E+00 0. -1.
         21   -1    0    0  503  502  0.00000000000E+00 -0.00000000000E+00 -0.83745771554E+02  0.83745771554E+02  0.00000000000E+00 0.  1.
         21    1    1    2  503  501 -0.17702594054E+02 -0.11975011181E+03 -0.18879810894E+02  0.12251497204E+03  0.00000000000E+00 0.  1.
         -3    1    1    2    0  502  0.17702594054E+02  0.11975011181E+03  0.26770430759E+03  0.29380106776E+03  0.00000000000E+00 0. -1.
<mgrwt>
<rscale>  2 0.12105152E+03</rscale>
<asrwt>0</asrwt>
<pdfrwt beam="2">  1       21 0.12883965E-01 0.12105152E+03</pdfrwt>
<pdfrwt beam="1">  1       -3 0.51164656E-01 0.12105152E+03</pdfrwt>
<totfact> 0.94962236E+03</totfact>
</mgrwt>
</event>
<event>
 4    1  0.5045766E+003  0.1429722E+03  0.7546771E-02  0.1209385E+00
         21   -1    0    0  501  502  0.00000000000E+00  0.00000000000E+00  0.69122208414E+02  0.69122208414E+02  0.00000000000E+00 0.  1.
         -2   -1    0    0    0  501 -0.00000000000E+00 -0.00000000000E+00 -0.37373332265E+03  0.37373332265E+03  0.00000000000E+00 0. -1.
         21    1    1    2  503  502 -0.13930989819E+03  0.32152703488E+02 -0.51141436774E+02  0.15184363875E+03  0.00000000000E+00 0.  1.
         -2    1    1    2    0  503  0.13930989819E+03 -0.32152703488E+02 -0.25346967746E+03  0.29101189231E+03  0.00000000000E+00 0. -1.
<mgrwt>
<rscale>  2 0.14297218E+03</rscale>
<asrwt>0</asrwt>
<pdfrwt beam="1">  1       21 0.10634186E-01 0.14297218E+03</pdfrwt>
<pdfrwt beam="2">  1       -2 0.57497435E-01 0.14297218E+03</pdfrwt>
<totfact> 0.17045972E+04</totfact>
</mgrwt>
</event>
<event>
 4    1  0.5045766E+003  0.1346231E+03  0.7546771E-02  0.1220753E+00
          2   -1    0    0  502    0 -0.00000000000E+00  0.00000000000E+00  0.21844486007E+03  0.21844486007E+03  0.00000000000E+00 0. -1.
         21   -1    0    0  503  502  0.00000000000E+00 -0.00000000000E+00 -0.29465166278E+03  0.29465166278E+03  0.00000000000E+00 0. -1.
         21    1    1    2  503  501  0.13376690239E+03  0.15159199311E+02 -0.25555413151E+03  0.28884476736E+03  0.00000000000E+00 0. -1.
          2    1    1    2  501    0 -0.13376690239E+03 -0.15159199311E+02  0.17934732880E+03  0.22425175550E+03  0.00000000000E+00 0. -1.
<mgrwt>
<rscale>  2 0.13462312E+03</rscale>
<asrwt>0</asrwt>
<pdfrwt beam="2">  1       21 0.45331025E-01 0.13462312E+03</pdfrwt>
<pdfrwt beam="1">  1        2 0.33606902E-01 0.13462312E+03</pdfrwt>
<totfact> 0.90227648E+03</totfact>
</mgrwt>
</event>
<event>
 4    1  0.5045766E+003  0.1453662E+03  0.7546771E-02  0.1206285E+00
          2   -1    0    0  502    0 -0.00000000000E+00  0.00000000000E+00  0.86847228506E+03  0.86847228506E+03  0.00000000000E+00 0. -1.
         21   -1    0    0  503  502  0.00000000000E+00 -0.00000000000E+00 -0.19534986032E+03  0.19534986032E+03  0.00000000000E+00 0.  1.
         21    1    1    2  503  501  0.14536043177E+03  0.12968086467E+01 -0.16112280772E+03  0.21700667272E+03  0.00000000000E+00 0.  1.
          2    1    1    2  501    0 -0.14536043177E+03 -0.12968086467E+01  0.83424523247E+03  0.84681547266E+03  0.00000000000E+00 0. -1.
<mgrwt>
<rscale>  2 0.14536622E+03</rscale>
<asrwt>0</asrwt>
<pdfrwt beam="2">  1       21 0.30053825E-01 0.14536622E+03</pdfrwt>
<pdfrwt beam="1">  1        2 0.13361112E+00 0.14536622E+03</pdfrwt>
<totfact> 0.43757970E+03</totfact>
</mgrwt>
</event>
<event>
 4    1  0.5045766E+003  0.1725049E+03  0.7546771E-02  0.1175261E+00
          2   -1    0    0  502    0 -0.00000000000E+00  0.00000000000E+00  0.12185648780E+04  0.12185648780E+04  0.00000000000E+00 0. -1.
         21   -1    0    0  503  502  0.00000000000E+00 -0.00000000000E+00 -0.81933158807E+02  0.81933158807E+02  0.00000000000E+00 0. -1.
         21    1    1    2  503  501 -0.59053121901E+02 -0.16208226637E+03  0.23522662685E+02  0.17410125771E+03  0.00000000000E+00 0. -1.
          2    1    1    2  501    0  0.59053121901E+02  0.16208226637E+03  0.11131090565E+04  0.11263967791E+04  0.00000000000E+00 0. -1.
<mgrwt>
<rscale>  2 0.17250488E+03</rscale>
<asrwt>0</asrwt>
<pdfrwt beam="2">  1       21 0.12605102E-01 0.17250488E+03</pdfrwt>
<pdfrwt beam="1">  1        2 0.18747151E+00 0.17250488E+03</pdfrwt>
<totfact> 0.13477648E+04</totfact>
</mgrwt>
</event>
<event>
 4    1  0.5045766E+003  0.1521444E+03  0.7546771E-02  0.1197863E+00
         21   -1    0    0  501  502  0.00000000000E+00  0.00000000000E+00  0.86325408300E+02  0.86325408300E+02  0.00000000000E+00 0.  1.
          1   -1    0    0  503    0 -0.00000000000E+00 -0.00000000000E+00 -0.34434841101E+03  0.34434841101E+03  0.00000000000E+00 0.  1.
         21    1    1    2  503  502  0.13265755806E+03 -0.74497529721E+02 -0.27713564935E+02  0.15464783000E+03  0.00000000000E+00 0.  1.
          1    1    1    2  501    0 -0.13265755806E+03  0.74497529721E+02 -0.23030943777E+03  0.27602598930E+03  0.00000000000E+00 0.  1.
<mgrwt>
<rscale>  2 0.15214437E+03</rscale>
<asrwt>0</asrwt>
<pdfrwt beam="1">  1       21 0.13280832E-01 0.15214437E+03</pdfrwt>
<pdfrwt beam="2">  1        1 0.52976678E-01 0.15214437E+03</pdfrwt>
<totfact> 0.39418356E+04</totfact>
</mgrwt>
</event>
<event>
 4    1  0.5045766E+003  0.1103790E+03  0.7546771E-02  0.1259870E+00
         21   -1    0    0  501  502  0.00000000000E+00  0.00000000000E+00  0.19726981601E+03  0.19726981601E+03  0.00000000000E+00 0.  1.
         -1   -1    0    0    0  501 -0.00000000000E+00 -0.00000000000E+00 -0.40547467406E+03  0.40547467406E+03  0.00000000000E+00 0. -1.
         21    1    1    2  503  502  0.53426799256E+02  0.96587297067E+02  0.17337007864E+03  0.20552545585E+03  0.00000000000E+00 0.  1.
         -1    1    1    2    0  503 -0.53426799256E+02 -0.96587297067E+02 -0.38157493669E+03  0.39721903422E+03  0.00000000000E+00 0. -1.
<mgrwt>
<rscale>  2 0.11037902E+03</rscale>
<asrwt>0</asrwt>
<pdfrwt beam="1">  1       21 0.30349203E-01 0.11037902E+03</pdfrwt>
<pdfrwt beam="2">  1       -1 0.62380718E-01 0.11037902E+03</pdfrwt>
<totfact> 0.26762620E+03</totfact>
</mgrwt>
</event>
<event>
 4    1  0.5045766E+003  0.1054457E+03  0.7546771E-02  0.1269244E+00
         21   -1    0    0  501  502  0.00000000000E+00  0.00000000000E+00  0.15282979341E+03  0.15282979341E+03  0.00000000000E+00 0.  1.
         -4   -1    0    0    0  501 -0.00000000000E+00 -0.00000000000E+00 -0.97827032725E+03  0.97827032725E+03  0.00000000000E+00 0.  1.
         21    1    1    2  503  502  0.35550171273E+01  0.10538574717E+03  0.13139391495E+03  0.16847300893E+03  0.00000000000E+00 0.  1.
         -4    1    1    2    0  503 -0.35550171273E+01 -0.10538574717E+03 -0.95683444878E+03  0.96262711173E+03  0.00000000000E+00 0.  1.
<mgrwt>
<rscale>  2 0.10544569E+03</rscale>
<asrwt>0</asrwt>
<pdfrwt beam="1">  1       21 0.23512276E-01 0.10544569E+03</pdfrwt>
<pdfrwt beam="2">  1       -4 0.15050313E+00 0.10544569E+03</pdfrwt>
<totfact> 0.22678903E+02</totfact>
</mgrwt>
</event>
<event>
 4    1  0.5045766E+003  0.1241822E+03  0.7546771E-02  0.1236353E+00
         21   -1    0    0  503  502  0.00000000000E+00  0.00000000000E+00  0.87365985888E+01  0.87365985888E+01  0.00000000000E+00 0. -1.
         -2   -1    0    0    0  501 -0.00000000000E+00 -0.00000000000E+00 -0.18676341455E+04  0.18676341455E+04  0.00000000000E+00 0.  1.
         21    1    1    2  503  501  0.10581616724E+03 -0.64993494320E+02 -0.70965391851E+03  0.72043729748E+03  0.00000000000E+00 0. -1.
         -2    1    1    2    0  502 -0.10581616724E+03  0.64993494320E+02 -0.11492436284E+04  0.11559334466E+04  0.00000000000E+00 0.  1.
<mgrwt>
<rscale>  2 0.12418219E+03</rscale>
<asrwt>0</asrwt>
<pdfrwt beam="1">  1       21 0.13440915E-02 0.12418219E+03</pdfrwt>
<pdfrwt beam="2">  1       -2 0.28732846E+00 0.12418219E+03</pdfrwt>
<totfact> 0.85607613E+03</totfact>
</mgrwt>
</event>
<event>
 4    1  0.5045766E+003  0.1207695E+03  0.7546771E-02  0.1241833E+00
          1   -1    0    0  502    0 -0.00000000000E+00  0.00000000000E+00  0.17473636367E+04  0.17473636367E+04  0.00000000000E+00 0. -1.
         21   -1    0    0  503  502  0.00000000000E+00 -0.00000000000E+00 -0.18462312703E+02  0.18462312703E+02  0.00000000000E+00 0.  1.
         21    1    1    2  503  501 -0.76861248856E+02  0.93153791218E+02  0.21092287101E+03  0.24305089572E+03  0.00000000000E+00 0.  1.
          1    1    1    2  501    0  0.76861248856E+02 -0.93153791218E+02  0.15179784529E+04  0.15227750536E+04  0.00000000000E+00 0. -1.
<mgrwt>
<rscale>  2 0.12076953E+03</rscale>
<asrwt>0</asrwt>
<pdfrwt beam="2">  1       21 0.28403572E-02 0.12076953E+03</pdfrwt>
<pdfrwt beam="1">  1        1 0.26882504E+00 0.12076953E+03</pdfrwt>
<totfact> 0.39448897E+04</totfact>
</mgrwt>
</event>
<event>
 4    1  0.5045766E+003  0.1085309E+03  0.7546771E-02  0.1263315E+00
          1   -1    0    0  503    0 -0.00000000000E+00  0.00000000000E+00  0.95006683614E+02  0.95006683614E+02  0.00000000000E+00 0.  1.
         21   -1    0    0  501  502  0.00000000000E+00 -0.00000000000E+00 -0.34358487536E+03  0.34358487536E+03  0.00000000000E+00 0. -1.
         21    1    1    2  503  502 -0.14507205698E+02  0.10755694218E+03 -0.29961010858E+03  0.31866153202E+03  0.00000000000E+00 0. -1.
          1    1    1    2  501    0  0.14507205698E+02 -0.10755694218E+03  0.51031916832E+02  0.11993002695E+03  0.00000000000E+00 0.  1.
<mgrwt>
<rscale>  2 0.10853089E+03</rscale>
<asrwt>0</asrwt>
<pdfrwt beam="2">  1       21 0.52859212E-01 0.10853089E+03</pdfrwt>
<pdfrwt beam="1">  1        1 0.14616413E-01 0.10853089E+03</pdfrwt>
<totfact> 0.14122676E+04</totfact>
</mgrwt>
</event>
<event>
 4    1  0.5045766E+003  0.1369118E+03  0.7546771E-02  0.1217546E+00
         21   -1    0    0  503  502  0.00000000000E+00  0.00000000000E+00  0.12241241464E+03  0.12241241464E+03  0.00000000000E+00 0. -1.
          2   -1    0    0  502    0 -0.00000000000E+00 -0.00000000000E+00 -0.15847491237E+03  0.15847491237E+03  0.00000000000E+00 0.  1.
         21    1    1    2  503  501  0.35856586123E+02 -0.13213307974E+03  0.77644783639E+01  0.13713180759E+03  0.00000000000E+00 0. -1.
          2    1    1    2  501    0 -0.35856586123E+02  0.13213307974E+03 -0.43826976090E+02  0.14375551942E+03  0.00000000000E+00 0.  1.
<mgrwt>
<rscale>  2 0.13691182E+03</rscale>
<asrwt>0</asrwt>
<pdfrwt beam="1">  1       21 0.18832679E-01 0.13691182E+03</pdfrwt>
<pdfrwt beam="2">  1        2 0.24380755E-01 0.13691182E+03</pdfrwt>
<totfact> 0.69699571E+04</totfact>
</mgrwt>
</event>
<event>
 4    1  0.5045766E+003  0.1043228E+03  0.7546771E-02  0.1271460E+00
          2   -1    0    0  502    0 -0.00000000000E+00  0.00000000000E+00  0.59285831204E+03  0.59285831204E+03  0.00000000000E+00 0. -1.
         21   -1    0    0  503  502  0.00000000000E+00 -0.00000000000E+00 -0.34415302623E+02  0.34415302623E+02  0.00000000000E+00 0. -1.
         21    1    1    2  503  501  0.10422480375E+03 -0.45197586130E+01  0.64982815953E+02  0.12290648601E+03  0.00000000000E+00 0. -1.
          2    1    1    2  501    0 -0.10422480375E+03  0.45197586130E+01  0.49346019346E+03  0.50436712865E+03  0.00000000000E+00 0. -1.
<mgrwt>
<rscale>  2 0.10432276E+03</rscale>
<asrwt>0</asrwt>
<pdfrwt beam="2">  1       21 0.52946624E-02 0.10432276E+03</pdfrwt>
<pdfrwt beam="1">  1        2 0.91208963E-01 0.10432276E+03</pdfrwt>
<totfact> 0.15412064E+05</totfact>
</mgrwt>
</event>
<event>
 4    1  0.5045766E+003  0.1551104E+03  0.7546771E-02  0.1194330E+00
         21   -1    0    0  501  502  0.00000000000E+00  0.00000000000E+00  0.60250664060E+02  0.60250664060E+02  0.00000000000E+00 0.  1.
          4   -1    0    0  503    0 -0.00000000000E+00 -0.00000000000E+00 -0.50347774800E+03  0.50347774800E+03  0.00000000000E+00 0.  1.
         21    1    1    2  503  502  0.14071164798E+03  0.65264542832E+02 -0.93410630549E+02  0.18106566303E+03  0.00000000000E+00 0.  1.
          4    1    1    2  501    0 -0.14071164798E+03 -0.65264542832E+02 -0.34981645339E+03  0.38266274902E+03  0.00000000000E+00 0.  1.
<mgrwt>
<rscale>  2 0.15511037E+03</rscale>
<asrwt>0</asrwt>
<pdfrwt beam="1">  1       21 0.92693327E-02 0.15511037E+03</pdfrwt>
<pdfrwt beam="2">  1        4 0.77458117E-01 0.15511037E+03</pdfrwt>
<totfact> 0.58759956E+03</totfact>
</mgrwt>
</event>
<event>
 4    1  0.5045766E+003  0.1355685E+03  0.7546771E-02  0.1219419E+00
         21   -1    0    0  503  502  0.00000000000E+00  0.00000000000E+00  0.18646832407E+03  0.18646832407E+03  0.00000000000E+00 0. -1.
         -4   -1    0    0    0  501 -0.00000000000E+00 -0.00000000000E+00 -0.19813187108E+03  0.19813187108E+03  0.00000000000E+00 0.  1.
         21    1    1    2  503  501  0.55003954889E+02 -0.12390876960E+03  0.13048987145E+03  0.18816595013E+03  0.00000000000E+00 0. -1.
         -4    1    1    2    0  502 -0.55003954889E+02  0.12390876960E+03 -0.14215341846E+03  0.19643424502E+03  0.00000000000E+00 0.  1.
<mgrwt>
<rscale>  2 0.13556850E+03</rscale>
<asrwt>0</asrwt>
<pdfrwt beam="1">  1       21 0.28687435E-01 0.13556850E+03</pdfrwt>
<pdfrwt beam="2">  1       -4 0.30481826E-01 0.13556850E+03</pdfrwt>
<totfact> 0.49474437E+03</totfact>
</mgrwt>
</event>
<event>
 4    1  0.5045766E+003  0.1003783E+03  0.7546771E-02  0.1279502E+00
          2   -1    0    0  502    0 -0.00000000000E+00  0.00000000000E+00  0.15359871300E+02  0.15359871300E+02  0.00000000000E+00 0.  1.
         21   -1    0    0  503  502  0.00000000000E+00 -0.00000000000E+00 -0.22872196674E+04  0.22872196674E+04  0.00000000000E+00 0.  1.
         21    1    1    2  503  501  0.99025345354E+02  0.16424953736E+02 -0.21082053842E+04  0.21105936937E+04  0.00000000000E+00 0.  1.
          2    1    1    2  501    0 -0.99025345354E+02 -0.16424953736E+02 -0.16365441192E+03  0.19198584497E+03  0.00000000000E+00 0.  1.
<mgrwt>
<rscale>  2 0.10037828E+03</rscale>
<asrwt>0</asrwt>
<pdfrwt beam="2">  1       21 0.35187999E+00 0.10037828E+03</pdfrwt>
<pdfrwt beam="1">  1        2 0.23630569E-02 0.10037828E+03</pdfrwt>
<totfact> 0.99457146E+02</totfact>
</mgrwt>
</event>
<event>
 4    1  0.5045766E+003  0.1678143E+03  0.7546771E-02  0.1180147E+00
         -1   -1    0    0    0  501 -0.00000000000E+00  0.00000000000E+00  0.18849166955E+02  0.18849166955E+02  0.00000000000E+00 0. -1.
         21   -1    0    0  503  502  0.00000000000E+00 -0.00000000000E+00 -0.17870517522E+04  0.17870517522E+04  0.00000000000E+00 0. -1.
         21    1    1    2  503  501  0.15900587029E+03 -0.53654152357E+02 -0.12497205094E+04  0.12609373444E+04  0.00000000000E+00 0. -1.
         -1    1    1    2    0  502 -0.15900587029E+03  0.53654152357E+02 -0.51848207581E+03  0.54496357474E+03  0.00000000000E+00 0. -1.
<mgrwt>
<rscale>  2 0.16781429E+03</rscale>
<asrwt>0</asrwt>
<pdfrwt beam="2">  1       21 0.27493093E+00 0.16781429E+03</pdfrwt>
<pdfrwt beam="1">  1       -1 0.28998730E-02 0.16781429E+03</pdfrwt>
<totfact> 0.16880825E+03</totfact>
</mgrwt>
</event>
<event>
 4    1  0.5045766E+003  0.1027656E+03  0.7546771E-02  0.1274586E+00
         -2   -1    0    0    0  501 -0.00000000000E+00  0.00000000000E+00  0.44607227685E+03  0.44607227685E+03  0.00000000000E+00 0. -1.
         21   -1    0    0  501  502  0.00000000000E+00 -0.00000000000E+00 -0.28073577766E+02  0.28073577766E+02  0.00000000000E+00 0.  1.
         21    1    1    2  503  502 -0.53411035429E+02 -0.87795370788E+02  0.11515919822E+03  0.15434508989E+03  0.00000000000E+00 0.  1.
         -2    1    1    2    0  503  0.53411035429E+02  0.87795370788E+02  0.30283950086E+03  0.31980076473E+03  0.00000000000E+00 0. -1.
<mgrwt>
<rscale>  2 0.10276559E+03</rscale>
<asrwt>0</asrwt>
<pdfrwt beam="2">  1       21 0.43190123E-02 0.10276559E+03</pdfrwt>
<pdfrwt beam="1">  1       -2 0.68626499E-01 0.10276559E+03</pdfrwt>
<totfact> 0.54309516E+04</totfact>
</mgrwt>
</event>
<event>
 4    1  0.5045766E+003  0.1404716E+03  0.7546771E-02  0.1212696E+00
         21   -1    0    0  503  502  0.00000000000E+00  0.00000000000E+00  0.17648324191E+03  0.17648324191E+03  0.00000000000E+00 0. -1.
          1   -1    0    0  502    0 -0.00000000000E+00 -0.00000000000E+00 -0.14604344558E+04  0.14604344558E+04  0.00000000000E+00 0.  1.
         21    1    1    2  503  501 -0.85396376111E+02  0.11153351603E+03  0.14452964161E+03  0.20154672797E+03  0.00000000000E+00 0. -1.
          1    1    1    2  501    0  0.85396376111E+02 -0.11153351603E+03 -0.14284808555E+04  0.14353709698E+04  0.00000000000E+00 0.  1.
<mgrwt>
<rscale>  2 0.14047159E+03</rscale>
<asrwt>0</asrwt>
<pdfrwt beam="1">  1       21 0.27151268E-01 0.14047159E+03</pdfrwt>
<pdfrwt beam="2">  1        1 0.22468222E+00 0.14047159E+03</pdfrwt>
<totfact> 0.11565333E+03</totfact>
</mgrwt>
</event>
<event>
 4    1  0.5045766E+003  0.1115340E+03  0.7546771E-02  0.1257755E+00
          1   -1    0    0  503    0 -0.00000000000E+00  0.00000000000E+00  0.26324119920E+03  0.26324119920E+03  0.00000000000E+00 0. -1.
         21   -1    0    0  501  502  0.00000000000E+00 -0.00000000000E+00 -0.22901868727E+03  0.22901868727E+03  0.00000000000E+00 0. -1.
         21    1    1    2  503  502 -0.33937352588E+02  0.10624538300E+03 -0.20215959815E+03  0.23088596413E+03  0.00000000000E+00 0. -1.
          1    1    1    2  501    0  0.33937352588E+02 -0.10624538300E+03  0.23638211008E+03  0.26137392233E+03  0.00000000000E+00 0. -1.
<mgrwt>
<rscale>  2 0.11153396E+03</rscale>
<asrwt>0</asrwt>
<pdfrwt beam="2">  1       21 0.35233644E-01 0.11153396E+03</pdfrwt>
<pdfrwt beam="1">  1        1 0.40498646E-01 0.11153396E+03</pdfrwt>
<totfact> 0.89152965E+03</totfact>
</mgrwt>
</event>
<event>
 4    1  0.5045766E+003  0.1337699E+03  0.7546771E-02  0.1221967E+00
         21   -1    0    0  501  502  0.00000000000E+00  0.00000000000E+00  0.30781451454E+02  0.30781451454E+02  0.00000000000E+00 0. -1.
          2   -1    0    0  503    0 -0.00000000000E+00 -0.00000000000E+00 -0.66346480436E+03  0.66346480436E+03  0.00000000000E+00 0. -1.
         21    1    1    2  503  502 -0.60358765119E+02  0.11937846412E+03 -0.19421245842E+03  0.23582382668E+03  0.00000000000E+00 0. -1.
          2    1    1    2  501    0  0.60358765119E+02 -0.11937846412E+03 -0.43847089448E+03  0.45842242913E+03  0.00000000000E+00 0. -1.
<mgrwt>
<rscale>  2 0.13376995E+03</rscale>
<asrwt>0</asrwt>
<pdfrwt beam="1">  1       21 0.47356082E-02 0.13376995E+03</pdfrwt>
<pdfrwt beam="2">  1        2 0.10207150E+00 0.13376995E+03</pdfrwt>
<totfact> 0.16483119E+05</totfact>
</mgrwt>
</event>
<event>
 4    1  0.5045766E+003  0.1111060E+03  0.7546771E-02  0.1258535E+00
          2   -1    0    0  503    0 -0.00000000000E+00  0.00000000000E+00  0.99845144672E+02  0.99845144672E+02  0.00000000000E+00 0. -1.
         21   -1    0    0  501  502  0.00000000000E+00 -0.00000000000E+00 -0.57706987921E+03  0.57706987921E+03  0.00000000000E+00 0.  1.
         21    1    1    2  503  502 -0.48418195959E+02  0.10000106827E+03 -0.53862984023E+03  0.54996967202E+03  0.00000000000E+00 0.  1.
          2    1    1    2  501    0  0.48418195959E+02 -0.10000106827E+03  0.61405105693E+02  0.12694535186E+03  0.00000000000E+00 0. -1.
<mgrwt>
<rscale>  2 0.11110596E+03</rscale>
<asrwt>0</asrwt>
<pdfrwt beam="2">  1       21 0.88779981E-01 0.11110596E+03</pdfrwt>
<pdfrwt beam="1">  1        2 0.15360792E-01 0.11110596E+03</pdfrwt>
<totfact> 0.51386039E+03</totfact>
</mgrwt>
</event>
<event>
 4    1  0.5045766E+003  0.1147386E+03  0.7546771E-02  0.1252038E+00
         -1   -1    0    0    0  501 -0.00000000000E+00  0.00000000000E+00  0.21166292681E+02  0.21166292681E+02  0.00000000000E+00 0. -1.
         21   -1    0    0  501  502  0.00000000000E+00 -0.00000000000E+00 -0.67305603900E+03  0.67305603900E+03  0.00000000000E+00 0.  1.
         21    1    1    2  503  502 -0.32640242305E+02 -0.10999802345E+03 -0.42156815748E+03  0.43690349275E+03  0.00000000000E+00 0.  1.
         -1    1    1    2    0  503  0.32640242305E+02  0.10999802345E+03 -0.23032158885E+03  0.25731883893E+03  0.00000000000E+00 0. -1.
<mgrwt>
<rscale>  2 0.11473862E+03</rscale>
<asrwt>0</asrwt>
<pdfrwt beam="2">  1       21 0.10354708E+00 0.11473862E+03</pdfrwt>
<pdfrwt beam="1">  1       -1 0.32563527E-02 0.11473862E+03</pdfrwt>
<totfact> 0.22189803E+04</totfact>
</mgrwt>
</event>
<event>
 4    1  0.5045766E+003  0.1237148E+03  0.7546771E-02  0.1237092E+00
         21   -1    0    0  501  502  0.00000000000E+00  0.00000000000E+00  0.27749245173E+02  0.27749245173E+02  0.00000000000E+00 0. -1.
          2   -1    0    0  503    0 -0.00000000000E+00 -0.00000000000E+00 -0.72488883865E+03  0.72488883865E+03  0.00000000000E+00 0.  1.
         21    1    1    2  503  502 -0.89411283129E+02  0.85504231970E+02 -0.16455323398E+03  0.20587160573E+03  0.00000000000E+00 0. -1.
          2    1    1    2  501    0  0.89411283129E+02 -0.85504231970E+02 -0.53258635950E+03  0.54676647809E+03  0.00000000000E+00 0.  1.
<mgrwt>
<rscale>  2 0.12371480E+03</rscale>
<asrwt>0</asrwt>
<pdfrwt beam="1">  1       21 0.42691146E-02 0.12371480E+03</pdfrwt>
<pdfrwt beam="2">  1        2 0.11152136E+00 0.12371480E+03</pdfrwt>
<totfact> 0.17608051E+05</totfact>
</mgrwt>
</event>
<event>
 4    1  0.5045766E+003  0.1194776E+03  0.7546771E-02  0.1243961E+00
         21   -1    0    0  501  502  0.00000000000E+00  0.00000000000E+00  0.56803108652E+03  0.56803108652E+03  0.00000000000E+00 0. -1.
          1   -1    0    0  503    0 -0.00000000000E+00 -0.00000000000E+00 -0.99051331278E+02  0.99051331278E+02  0.00000000000E+00 0.  1.
         21    1    1    2  503  502 -0.71229770367E+02  0.95923032590E+02  0.52262934217E+03  0.53611224354E+03  0.00000000000E+00 0. -1.
          1    1    1    2  501    0  0.71229770367E+02 -0.95923032590E+02 -0.53649586934E+02  0.13097017426E+03  0.00000000000E+00 0.  1.
<mgrwt>
<rscale>  2 0.11947765E+03</rscale>
<asrwt>0</asrwt>
<pdfrwt beam="1">  1       21 0.87389396E-01 0.11947765E+03</pdfrwt>
<pdfrwt beam="2">  1        1 0.15238667E-01 0.11947765E+03</pdfrwt>
<totfact> 0.44983086E+03</totfact>
</mgrwt>
</event>
<event>
 4    1  0.5045766E+003  0.1095947E+03  0.7546771E-02  0.1261322E+00
          3   -1    0    0  503    0 -0.00000000000E+00  0.00000000000E+00  0.44331231543E+03  0.44331231543E+03  0.00000000000E+00 0.  1.
         21   -1    0    0  501  502  0.00000000000E+00 -0.00000000000E+00 -0.28884151102E+02  0.28884151102E+02  0.00000000000E+00 0. -1.
         21    1    1    2  503  502 -0.88653666534E+02  0.64432369222E+02  0.14843328999E+03  0.18450865663E+03  0.00000000000E+00 0. -1.
          3    1    1    2  501    0  0.88653666534E+02 -0.64432369222E+02  0.26599487434E+03  0.28768780990E+03  0.00000000000E+00 0.  1.
<mgrwt>
<rscale>  2 0.10959472E+03</rscale>
<asrwt>0</asrwt>
<pdfrwt beam="2">  1       21 0.44437159E-02 0.10959472E+03</pdfrwt>
<pdfrwt beam="1">  1        3 0.68201890E-01 0.10959472E+03</pdfrwt>
<totfact> 0.32526150E+04</totfact>
</mgrwt>
</event>
<event>
 4    1  0.5045766E+003  0.1176462E+03  0.7546771E-02  0.1247031E+00
         21   -1    0    0  501  502  0.00000000000E+00  0.00000000000E+00  0.49053588703E+02  0.49053588703E+02  0.00000000000E+00 0.  1.
         -4   -1    0    0    0  501 -0.00000000000E+00 -0.00000000000E+00 -0.16801865264E+04  0.16801865264E+04  0.00000000000E+00 0.  1.
         21    1    1    2  503  502  0.59847073551E+02 -0.10128646702E+03 -0.26878275139E+02  0.12067751360E+03  0.00000000000E+00 0.  1.
         -4    1    1    2    0  503 -0.59847073551E+02  0.10128646702E+03 -0.16042546625E+04  0.16085626015E+04  0.00000000000E+00 0.  1.
<mgrwt>
<rscale>  2 0.11764617E+03</rscale>
<asrwt>0</asrwt>
<pdfrwt beam="1">  1       21 0.75467050E-02 0.11764617E+03</pdfrwt>
<pdfrwt beam="2">  1       -4 0.25849027E+00 0.11764617E+03</pdfrwt>
<totfact> 0.36513506E+02</totfact>
</mgrwt>
</event>
<event>
 4    1  0.5045766E+003  0.1123606E+03  0.7546771E-02  0.1256260E+00
          2   -1    0    0  503    0 -0.00000000000E+00  0.00000000000E+00  0.12504049590E+04  0.12504049590E+04  0.00000000000E+00 0. -1.
         21   -1    0    0  501  502  0.00000000000E+00 -0.00000000000E+00 -0.27807708796E+02  0.27807708796E+02  0.00000000000E+00 0. -1.
         21    1    1    2  503  502 -0.62692491559E+02  0.93244565736E+02  0.10124854882E+03  0.15124868983E+03  0.00000000000E+00 0. -1.
          2    1    1    2  501    0  0.62692491559E+02 -0.93244565736E+02  0.11213487014E+04  0.11269639780E+04  0.00000000000E+00 0. -1.
<mgrwt>
<rscale>  2 0.11236057E+03</rscale>
<asrwt>0</asrwt>
<pdfrwt beam="2">  1       21 0.42781100E-02 0.11236057E+03</pdfrwt>
<pdfrwt beam="1">  1        2 0.19236995E+00 0.11236057E+03</pdfrwt>
<totfact> 0.84008148E+04</totfact>
</mgrwt>
</event>
<event>
 4    1  0.5045766E+003  0.1078159E+03  0.7546771E-02  0.1264669E+00
         21   -1    0    0  501  502  0.00000000000E+00  0.00000000000E+00  0.11167661455E+03  0.11167661455E+03  0.00000000000E+00 0. -1.
          3   -1    0    0  503    0 -0.00000000000E+00 -0.00000000000E+00 -0.16968786162E+03  0.16968786162E+03  0.00000000000E+00 0. -1.
         21    1    1    2  503  502 -0.99575800667E+02  0.41339142978E+02  0.58465214216E+02  0.12264765018E+03  0.00000000000E+00 0. -1.
          3    1    1    2  501    0  0.99575800667E+02 -0.41339142978E+02 -0.11647646128E+03  0.15871682599E+03  0.00000000000E+00 0. -1.
<mgrwt>
<rscale>  2 0.10781588E+03</rscale>
<asrwt>0</asrwt>
<pdfrwt beam="1">  1       21 0.17181018E-01 0.10781588E+03</pdfrwt>
<pdfrwt beam="2">  1        3 0.26105825E-01 0.10781588E+03</pdfrwt>
<totfact> 0.20121208E+04</totfact>
</mgrwt>
</event>
<event>
 4    1  0.5045766E+003  0.1239344E+03  0.7546771E-02  0.1236744E+00
         21   -1    0    0  501  502  0.00000000000E+00  0.00000000000E+00  0.42325669739E+03  0.42325669739E+03  0.00000000000E+00 0.  1.
          3   -1    0    0  503    0 -0.00000000000E+00 -0.00000000000E+00 -0.19076749577E+03  0.19076749577E+03  0.00000000000E+00 0. -1.
         21    1    1    2  503  502  0.75445920399E+01  0.12370450568E+03  0.39251653721E+03  0.41161748940E+03  0.00000000000E+00 0.  1.
          3    1    1    2  501    0 -0.75445920399E+01 -0.12370450568E+03 -0.16002733559E+03  0.20240670377E+03  0.00000000000E+00 0. -1.
<mgrwt>
<rscale>  2 0.12393436E+03</rscale>
<asrwt>0</asrwt>
<pdfrwt beam="1">  1       21 0.65116415E-01 0.12393436E+03</pdfrwt>
<pdfrwt beam="2">  1        3 0.29348846E-01 0.12393436E+03</pdfrwt>
<totfact> 0.12016633E+03</totfact>
</mgrwt>
</event>
<event>
 4    1  0.5045766E+003  0.1032126E+03  0.7546771E-02  0.1273682E+00
         -3   -1    0    0    0  501 -0.00000000000E+00  0.00000000000E+00  0.72333393850E+03  0.72333393850E+03  0.00000000000E+00 0.  1.
         21   -1    0    0  503  502  0.00000000000E+00 -0.00000000000E+00 -0.54440787812E+03  0.54440787812E+03  0.00000000000E+00 0. -1.
         21    1    1    2  503  501  0.89108874820E+02  0.52081224961E+02 -0.53577529800E+03  0.54562625992E+03  0.00000000000E+00 0. -1.
         -3    1    1    2    0  502 -0.89108874820E+02 -0.52081224961E+02  0.71470135838E+03  0.72211555671E+03  0.00000000000E+00 0.  1.
<mgrwt>
<rscale>  2 0.10321262E+03</rscale>
<asrwt>0</asrwt>
<pdfrwt beam="2">  1       21 0.83755058E-01 0.10321262E+03</pdfrwt>
<pdfrwt beam="1">  1       -3 0.11128215E+00 0.10321262E+03</pdfrwt>
<totfact> 0.45534252E+01</totfact>
</mgrwt>
</event>
<event>
 4    1  0.5045766E+003  0.1612019E+03  0.7546771E-02  0.1187346E+00
          2   -1    0    0  503    0 -0.00000000000E+00  0.00000000000E+00  0.11570594964E+03  0.11570594964E+03  0.00000000000E+00 0. -1.
         21   -1    0    0  501  502  0.00000000000E+00 -0.00000000000E+00 -0.33030102032E+03  0.33030102032E+03  0.00000000000E+00 0. -1.
         21    1    1    2  503  502 -0.11803435008E+03 -0.10979045734E+03 -0.23345791388E+03  0.28370521651E+03  0.00000000000E+00 0. -1.
          2    1    1    2  501    0  0.11803435008E+03  0.10979045734E+03  0.18862843207E+02  0.16230175345E+03  0.00000000000E+00 0. -1.
<mgrwt>
<rscale>  2 0.16120190E+03</rscale>
<asrwt>0</asrwt>
<pdfrwt beam="2">  1       21 0.50815541E-01 0.16120190E+03</pdfrwt>
<pdfrwt beam="1">  1        2 0.17800916E-01 0.16120190E+03</pdfrwt>
<totfact> 0.14372478E+04</totfact>
</mgrwt>
</event>
<event>
 4    1  0.5045766E+003  0.1221545E+03  0.7546771E-02  0.1239584E+00
         21   -1    0    0  501  502  0.00000000000E+00  0.00000000000E+00  0.53952232333E+02  0.53952232333E+02  0.00000000000E+00 0.  1.
          2   -1    0    0  503    0 -0.00000000000E+00 -0.00000000000E+00 -0.24723657495E+04  0.24723657495E+04  0.00000000000E+00 0.  1.
         21    1    1    2  503  502 -0.11647240713E+03 -0.36822699238E+02 -0.18794671353E+02  0.12359195958E+03  0.00000000000E+00 0.  1.
          2    1    1    2  501    0  0.11647240713E+03  0.36822699238E+02 -0.23996188458E+04  0.24027260223E+04  0.00000000000E+00 0.  1.
<mgrwt>
<rscale>  2 0.12215454E+03</rscale>
<asrwt>0</asrwt>
<pdfrwt beam="1">  1       21 0.83003455E-02 0.12215454E+03</pdfrwt>
<pdfrwt beam="2">  1        2 0.38036387E+00 0.12215454E+03</pdfrwt>
<totfact> 0.63820969E+03</totfact>
</mgrwt>
</event>
<event>
 4    1  0.5045766E+003  0.1071881E+03  0.7546771E-02  0.1265868E+00
          1   -1    0    0  503    0 -0.00000000000E+00  0.00000000000E+00  0.65695694843E+03  0.65695694843E+03  0.00000000000E+00 0.  1.
         21   -1    0    0  501  502  0.00000000000E+00 -0.00000000000E+00 -0.78171637130E+03  0.78171637130E+03  0.00000000000E+00 0.  1.
         21    1    1    2  503  502 -0.66332587148E+02  0.84197825195E+02 -0.77362431728E+03  0.78101464146E+03  0.00000000000E+00 0.  1.
          1    1    1    2  501    0  0.66332587148E+02 -0.84197825195E+02  0.64886489442E+03  0.65765867827E+03  0.00000000000E+00 0.  1.
<mgrwt>
<rscale>  2 0.10718809E+03</rscale>
<asrwt>0</asrwt>
<pdfrwt beam="2">  1       21 0.12026406E+00 0.10718809E+03</pdfrwt>
<pdfrwt beam="1">  1        1 0.10107030E+00 0.10718809E+03</pdfrwt>
<totfact> 0.19726522E+02</totfact>
</mgrwt>
</event>
<event>
 4    1  0.5045766E+003  0.1074285E+03  0.7546771E-02  0.1265407E+00
         21   -1    0    0  503  502  0.00000000000E+00  0.00000000000E+00  0.35512987547E+02  0.35512987547E+02  0.00000000000E+00 0. -1.
          1   -1    0    0  502    0 -0.00000000000E+00 -0.00000000000E+00 -0.62645048099E+03  0.62645048099E+03  0.00000000000E+00 0. -1.
         21    1    1    2  503  501 -0.59629100789E+02 -0.89360248656E+02 -0.65861481241E+02  0.12601039010E+03  0.00000000000E+00 0. -1.
          1    1    1    2  501    0  0.59629100789E+02  0.89360248656E+02 -0.52507601221E+03  0.53595307845E+03  0.00000000000E+00 0. -1.
<mgrwt>
<rscale>  2 0.10742851E+03</rscale>
<asrwt>0</asrwt>
<pdfrwt beam="1">  1       21 0.54635369E-02 0.10742851E+03</pdfrwt>
<pdfrwt beam="2">  1        1 0.96376992E-01 0.10742851E+03</pdfrwt>
<totfact> 0.84309575E+04</totfact>
</mgrwt>
</event>
<event>
 4    1  0.5045766E+003  0.1361678E+03  0.7546771E-02  0.1218581E+00
          1   -1    0    0  502    0 -0.00000000000E+00  0.00000000000E+00  0.12118816885E+03  0.12118816885E+03  0.00000000000E+00 0.  1.
         21   -1    0    0  503  502  0.00000000000E+00 -0.00000000000E+00 -0.21463726751E+03  0.21463726751E+03  0.00000000000E+00 0.  1.
         21    1    1    2  503  501  0.50687383194E+02 -0.12638214432E+03 -0.13670674174E+03  0.19295178272E+03  0.00000000000E+00 0.  1.
          1    1    1    2  501    0 -0.50687383194E+02  0.12638214432E+03  0.43257643074E+02  0.14287365363E+03  0.00000000000E+00 0.  1.
<mgrwt>
<rscale>  2 0.13616775E+03</rscale>
<asrwt>0</asrwt>
<pdfrwt beam="2">  1       21 0.33021118E-01 0.13616775E+03</pdfrwt>
<pdfrwt beam="1">  1        1 0.18644334E-01 0.13616775E+03</pdfrwt>
<totfact> 0.26578545E+04</totfact>
</mgrwt>
</event>
<event>
 4    1  0.5045766E+003  0.1315147E+03  0.7546771E-02  0.1225225E+00
         21   -1    0    0  501  502  0.00000000000E+00  0.00000000000E+00  0.31906261218E+03  0.31906261218E+03  0.00000000000E+00 0.  1.
         -1   -1    0    0    0  501 -0.00000000000E+00 -0.00000000000E+00 -0.98692549084E+02  0.98692549084E+02  0.00000000000E+00 0.  1.
         21    1    1    2  503  502  0.12015342119E+03 -0.53472071894E+02  0.25041754508E+03  0.28285164659E+03  0.00000000000E+00 0.  1.
         -1    1    1    2    0  503 -0.12015342119E+03  0.53472071894E+02 -0.30047481982E+02  0.13490351467E+03  0.00000000000E+00 0.  1.
<mgrwt>
<rscale>  2 0.13151466E+03</rscale>
<asrwt>0</asrwt>
<pdfrwt beam="1">  1       21 0.49086555E-01 0.13151466E+03</pdfrwt>
<pdfrwt beam="2">  1       -1 0.15183469E-01 0.13151466E+03</pdfrwt>
<totfact> 0.11302854E+04</totfact>
</mgrwt>
</event>
<event>
 4    1  0.5045766E+003  0.1184699E+03  0.7546771E-02  0.1245643E+00
          1   -1    0    0  503    0 -0.00000000000E+00  0.00000000000E+00  0.15031655169E+04  0.15031655169E+04  0.00000000000E+00 0.  1.
         21   -1    0    0  501  502  0.00000000000E+00 -0.00000000000E+00 -0.42269428156E+02  0.42269428156E+02  0.00000000000E+00 0. -1.
         21    1    1    2  503  502  0.11829911910E+03  0.63597495853E+01  0.48393496826E+02  0.12797288201E+03  0.00000000000E+00 0. -1.
          1    1    1    2  501    0 -0.11829911910E+03 -0.63597495853E+01  0.14125025919E+04  0.14174620630E+04  0.00000000000E+00 0.  1.
<mgrwt>
<rscale>  2 0.11846995E+03</rscale>
<asrwt>0</asrwt>
<pdfrwt beam="2">  1       21 0.65029901E-02 0.11846995E+03</pdfrwt>
<pdfrwt beam="1">  1        1 0.23125619E+00 0.11846995E+03</pdfrwt>
<totfact> 0.14234948E+04</totfact>
</mgrwt>
</event>
<event>
 4    1  0.5045766E+003  0.1286289E+03  0.7546771E-02  0.1229504E+00
         21   -1    0    0  503  502  0.00000000000E+00  0.00000000000E+00  0.92031454413E+02  0.92031454413E+02  0.00000000000E+00 0. -1.
          1   -1    0    0  502    0 -0.00000000000E+00 -0.00000000000E+00 -0.70589060686E+03  0.70589060686E+03  0.00000000000E+00 0. -1.
         21    1    1    2  503  501 -0.12854638308E+03 -0.46078379285E+01  0.37499930602E+02  0.13398376606E+03  0.00000000000E+00 0. -1.
          1    1    1    2  501    0  0.12854638308E+03  0.46078379285E+01 -0.65135908305E+03  0.66393829521E+03  0.00000000000E+00 0. -1.
<mgrwt>
<rscale>  2 0.12862894E+03</rscale>
<asrwt>0</asrwt>
<pdfrwt beam="1">  1       21 0.14158686E-01 0.12862894E+03</pdfrwt>
<pdfrwt beam="2">  1        1 0.10859855E+00 0.12862894E+03</pdfrwt>
<totfact> 0.13701890E+04</totfact>
</mgrwt>
</event>
<event>
 4    1  0.5045766E+003  0.1009916E+03  0.7546771E-02  0.1278224E+00
         -4   -1    0    0    0  501 -0.00000000000E+00  0.00000000000E+00  0.18562627554E+03  0.18562627554E+03  0.00000000000E+00 0. -1.
         21   -1    0    0  503  502  0.00000000000E+00 -0.00000000000E+00 -0.16703581483E+03  0.16703581483E+03  0.00000000000E+00 0.  1.
         21    1    1    2  503  501 -0.10097148639E+03 -0.20166318562E+01 -0.13515167497E+03  0.16871657629E+03  0.00000000000E+00 0.  1.
         -4    1    1    2    0  502  0.10097148639E+03  0.20166318562E+01  0.15374213568E+03  0.18394551408E+03  0.00000000000E+00 0. -1.
<mgrwt>
<rscale>  2 0.10099162E+03</rscale>
<asrwt>0</asrwt>
<pdfrwt beam="2">  1       21 0.25697818E-01 0.10099162E+03</pdfrwt>
<pdfrwt beam="1">  1       -4 0.28557889E-01 0.10099162E+03</pdfrwt>
<totfact> 0.67428206E+03</totfact>
</mgrwt>
</event>
<event>
 4    1  0.5045766E+003  0.1950326E+03  0.7546771E-02  0.1153999E+00
         21   -1    0    0  501  502  0.00000000000E+00  0.00000000000E+00  0.96737824775E+02  0.96737824775E+02  0.00000000000E+00 0.  1.
          1   -1    0    0  503    0 -0.00000000000E+00 -0.00000000000E+00 -0.50011325279E+03  0.50011325279E+03  0.00000000000E+00 0.  1.
         21    1    1    2  503  502  0.18735780575E+03  0.54173611753E+02 -0.63710025351E+02  0.20517479113E+03  0.00000000000E+00 0.  1.
          1    1    1    2  501    0 -0.18735780575E+03 -0.54173611753E+02 -0.33966540266E+03  0.39167628643E+03  0.00000000000E+00 0.  1.
<mgrwt>
<rscale>  2 0.19503263E+03</rscale>
<asrwt>0</asrwt>
<pdfrwt beam="1">  1       21 0.14882742E-01 0.19503263E+03</pdfrwt>
<pdfrwt beam="2">  1        1 0.76940500E-01 0.19503263E+03</pdfrwt>
<totfact> 0.19846071E+04</totfact>
</mgrwt>
</event>
<event>
 4    1  0.5045766E+003  0.1888288E+03  0.7546771E-02  0.1159522E+00
         21   -1    0    0  501  502  0.00000000000E+00  0.00000000000E+00  0.90030766096E+02  0.90030766096E+02  0.00000000000E+00 0. -1.
          2   -1    0    0  503    0 -0.00000000000E+00 -0.00000000000E+00 -0.12473035400E+04  0.12473035400E+04  0.00000000000E+00 0.  1.
         21    1    1    2  503  502  0.65469352874E+02 -0.17711598004E+03 -0.26235394813E+02  0.19064260409E+03  0.00000000000E+00 0. -1.
          2    1    1    2  501    0 -0.65469352874E+02  0.17711598004E+03 -0.11310373791E+04  0.11466917020E+04  0.00000000000E+00 0.  1.
<mgrwt>
<rscale>  2 0.18882878E+03</rscale>
<asrwt>0</asrwt>
<pdfrwt beam="1">  1       21 0.13850887E-01 0.18882878E+03</pdfrwt>
<pdfrwt beam="2">  1        2 0.19189285E+00 0.18882878E+03</pdfrwt>
<totfact> 0.10907723E+04</totfact>
</mgrwt>
</event>
<event>
 4    1  0.5045766E+003  0.1165521E+03  0.7546771E-02  0.1248896E+00
          2   -1    0    0  502    0 -0.00000000000E+00  0.00000000000E+00  0.20419654070E+04  0.20419654070E+04  0.00000000000E+00 0.  1.
         21   -1    0    0  503  502  0.00000000000E+00 -0.00000000000E+00 -0.15772125744E+02  0.15772125744E+02  0.00000000000E+00 0.  1.
         21    1    1    2  503  501  0.35412405658E+02 -0.11104213428E+03  0.23074712140E+03  0.25851233644E+03  0.00000000000E+00 0.  1.
          2    1    1    2  501    0 -0.35412405658E+02  0.11104213428E+03  0.17954461598E+04  0.17992251963E+04  0.00000000000E+00 0.  1.
<mgrwt>
<rscale>  2 0.11655211E+03</rscale>
<asrwt>0</asrwt>
<pdfrwt beam="2">  1       21 0.24264825E-02 0.11655211E+03</pdfrwt>
<pdfrwt beam="1">  1        2 0.31414831E+00 0.11655211E+03</pdfrwt>
<totfact> 0.83316230E+04</totfact>
</mgrwt>
</event>
<event>
 4    1  0.5045766E+003  0.1518915E+03  0.7546771E-02  0.1198168E+00
          2   -1    0    0  503    0 -0.00000000000E+00  0.00000000000E+00  0.51431695205E+03  0.51431695205E+03  0.00000000000E+00 0. -1.
         21   -1    0    0  501  502  0.00000000000E+00 -0.00000000000E+00 -0.53089949943E+02  0.53089949943E+02  0.00000000000E+00 0.  1.
         21    1    1    2  503  502  0.14387590095E+03 -0.48690307019E+02  0.11889617345E+03  0.19289199291E+03  0.00000000000E+00 0.  1.
          2    1    1    2  501    0 -0.14387590095E+03  0.48690307019E+02  0.34233082866E+03  0.37451490908E+03  0.00000000000E+00 0. -1.
<mgrwt>
<rscale>  2 0.15189148E+03</rscale>
<asrwt>0</asrwt>
<pdfrwt beam="2">  1       21 0.81676849E-02 0.15189148E+03</pdfrwt>
<pdfrwt beam="1">  1        2 0.79125682E-01 0.15189148E+03</pdfrwt>
<totfact> 0.87206500E+04</totfact>
</mgrwt>
</event>
<event>
 4    1  0.5045766E+003  0.1469301E+03  0.7546771E-02  0.1204297E+00
         21   -1    0    0  501  502  0.00000000000E+00  0.00000000000E+00  0.27314191951E+03  0.27314191951E+03  0.00000000000E+00 0. -1.
         -1   -1    0    0    0  501 -0.00000000000E+00 -0.00000000000E+00 -0.23479316704E+04  0.23479316704E+04  0.00000000000E+00 0. -1.
         21    1    1    2  503  502  0.83038598792E+02 -0.12121490545E+03  0.25089504467E+03  0.29075210340E+03  0.00000000000E+00 0. -1.
         -1    1    1    2    0  503 -0.83038598792E+02  0.12121490545E+03 -0.23256847955E+04  0.23303214865E+04  0.00000000000E+00 0. -1.
<mgrwt>
<rscale>  2 0.14693013E+03</rscale>
<asrwt>0</asrwt>
<pdfrwt beam="1">  1       21 0.42021836E-01 0.14693013E+03</pdfrwt>
<pdfrwt beam="2">  1       -1 0.36122024E+00 0.14693013E+03</pdfrwt>
<totfact> 0.88072481E+00</totfact>
</mgrwt>
</event>
<event>
 4    1  0.5045766E+003  0.1259259E+03  0.7546771E-02  0.1233629E+00
          1   -1    0    0  503    0 -0.00000000000E+00  0.00000000000E+00  0.92877849917E+03  0.92877849917E+03  0.00000000000E+00 0. -1.
         21   -1    0    0  501  502  0.00000000000E+00 -0.00000000000E+00 -0.35041786634E+02  0.35041786634E+02  0.00000000000E+00 0. -1.
         21    1    1    2  503  502 -0.12332616959E+03 -0.25455623034E+02  0.10178147370E+03  0.16191603144E+03  0.00000000000E+00 0. -1.
          1    1    1    2  501    0  0.12332616959E+03  0.25455623034E+02  0.79195523883E+03  0.80190425436E+03  0.00000000000E+00 0. -1.
<mgrwt>
<rscale>  2 0.12592590E+03</rscale>
<asrwt>0</asrwt>
<pdfrwt beam="2">  1       21 0.53910448E-02 0.12592590E+03</pdfrwt>
<pdfrwt beam="1">  1        1 0.14288898E+00 0.12592590E+03</pdfrwt>
<totfact> 0.48319116E+04</totfact>
</mgrwt>
</event>
<event>
 4    1  0.5045766E+003  0.1633367E+03  0.7546771E-02  0.1184980E+00
         -3   -1    0    0    0  501 -0.00000000000E+00  0.00000000000E+00  0.16581175761E+04  0.16581175761E+04  0.00000000000E+00 0. -1.
         21   -1    0    0  503  502  0.00000000000E+00 -0.00000000000E+00 -0.14419446887E+03  0.14419446887E+03  0.00000000000E+00 0. -1.
         21    1    1    2  503  501 -0.16323773740E+03 -0.56853795695E+01 -0.92430244765E+02  0.18767587112E+03  0.00000000000E+00 0. -1.
         -3    1    1    2    0  502  0.16323773740E+03  0.56853795695E+01  0.16063533520E+04  0.16146361739E+04  0.00000000000E+00 0. -1.
<mgrwt>
<rscale>  2 0.16333671E+03</rscale>
<asrwt>0</asrwt>
<pdfrwt beam="2">  1       21 0.22183766E-01 0.16333671E+03</pdfrwt>
<pdfrwt beam="1">  1       -3 0.25509500E+00 0.16333671E+03</pdfrwt>
<totfact> 0.73985266E+01</totfact>
</mgrwt>
</event>
<event>
 4    1  0.5045766E+003  0.1285228E+03  0.7546771E-02  0.1229664E+00
          1   -1    0    0  502    0 -0.00000000000E+00  0.00000000000E+00  0.18669280328E+03  0.18669280328E+03  0.00000000000E+00 0.  1.
         21   -1    0    0  503  502  0.00000000000E+00 -0.00000000000E+00 -0.11929838249E+03  0.11929838249E+03  0.00000000000E+00 0.  1.
         21    1    1    2  503  501 -0.23340829214E+02  0.12638559225E+03 -0.44067791706E+02  0.13586788621E+03  0.00000000000E+00 0.  1.
          1    1    1    2  501    0  0.23340829214E+02 -0.12638559225E+03  0.11146221250E+03  0.17012329956E+03  0.00000000000E+00 0.  1.
<mgrwt>
<rscale>  2 0.12852281E+03</rscale>
<asrwt>0</asrwt>
<pdfrwt beam="2">  1       21 0.18353597E-01 0.12852281E+03</pdfrwt>
<pdfrwt beam="1">  1        1 0.28721970E-01 0.12852281E+03</pdfrwt>
<totfact> 0.46772468E+04</totfact>
</mgrwt>
</event>
<event>
 4    1  0.5045766E+003  0.1090395E+03  0.7546771E-02  0.1262359E+00
         21   -1    0    0  503  502  0.00000000000E+00  0.00000000000E+00  0.84067075687E+01  0.84067075687E+01  0.00000000000E+00 0.  1.
          1   -1    0    0  502    0 -0.00000000000E+00 -0.00000000000E+00 -0.17176722956E+04  0.17176722956E+04  0.00000000000E+00 0.  1.
         21    1    1    2  503  501 -0.10873733857E+03 -0.81115086783E+01 -0.49193194298E+03  0.50387165220E+03  0.00000000000E+00 0.  1.
          1    1    1    2  501    0  0.10873733857E+03  0.81115086783E+01 -0.12173336451E+04  0.12222073510E+04  0.00000000000E+00 0.  1.
<mgrwt>
<rscale>  2 0.10903947E+03</rscale>
<asrwt>0</asrwt>
<pdfrwt beam="1">  1       21 0.12933374E-02 0.10903947E+03</pdfrwt>
<pdfrwt beam="2">  1        1 0.26425773E+00 0.10903947E+03</pdfrwt>
<totfact> 0.14596732E+05</totfact>
</mgrwt>
</event>
<event>
 4    1  0.5045766E+003  0.1013544E+03  0.7546771E-02  0.1277473E+00
          2   -1    0    0  503    0 -0.00000000000E+00  0.00000000000E+00  0.25484404290E+04  0.25484404290E+04  0.00000000000E+00 0.  1.
         21   -1    0    0  501  502  0.00000000000E+00 -0.00000000000E+00 -0.60175126806E+02  0.60175126806E+02  0.00000000000E+00 0. -1.
         21    1    1    2  503  502 -0.13492416667E+02 -0.10045235619E+03 -0.15731756743E+02  0.10256807175E+03  0.00000000000E+00 0. -1.
          2    1    1    2  501    0  0.13492416667E+02  0.10045235619E+03  0.25039970590E+04  0.25060474841E+04  0.00000000000E+00 0.  1.
<mgrwt>
<rscale>  2 0.10135443E+03</rscale>
<asrwt>0</asrwt>
<pdfrwt beam="2">  1       21 0.92577138E-02 0.10135443E+03</pdfrwt>
<pdfrwt beam="1">  1        2 0.39206767E+00 0.10135443E+03</pdfrwt>
<totfact> 0.49039764E+03</totfact>
</mgrwt>
</event>
<event>
 4    1  0.5045766E+003  0.1803303E+03  0.7546771E-02  0.1167484E+00
         21   -1    0    0  503  502  0.00000000000E+00  0.00000000000E+00  0.28751031352E+03  0.28751031352E+03  0.00000000000E+00 0.  1.
          4   -1    0    0  502    0 -0.00000000000E+00 -0.00000000000E+00 -0.12832579231E+04  0.12832579231E+04  0.00000000000E+00 0. -1.
         21    1    1    2  503  501 -0.17565284125E+03 -0.40805513613E+02  0.25210043698E+03  0.30995748242E+03  0.00000000000E+00 0.  1.
          4    1    1    2  501    0  0.17565284125E+03  0.40805513613E+02 -0.12478480466E+04  0.12608107542E+04  0.00000000000E+00 0. -1.
<mgrwt>
<rscale>  2 0.18033028E+03</rscale>
<asrwt>0</asrwt>
<pdfrwt beam="1">  1       21 0.44232357E-01 0.18033028E+03</pdfrwt>
<pdfrwt beam="2">  1        4 0.19742429E+00 0.18033028E+03</pdfrwt>
<totfact> 0.31280494E+01</totfact>
</mgrwt>
</event>
<event>
 4    1  0.5045766E+003  0.1133733E+03  0.7546771E-02  0.1254448E+00
          3   -1    0    0  503    0 -0.00000000000E+00  0.00000000000E+00  0.57479277886E+02  0.57479277886E+02  0.00000000000E+00 0. -1.
         21   -1    0    0  501  502  0.00000000000E+00 -0.00000000000E+00 -0.49518902328E+03  0.49518902328E+03  0.00000000000E+00 0.  1.
         21    1    1    2  503  502  0.11131519364E+03 -0.21504386088E+02 -0.42349426744E+03  0.43840723706E+03  0.00000000000E+00 0.  1.
          3    1    1    2  501    0 -0.11131519364E+03  0.21504386088E+02 -0.14215477955E+02  0.11426106410E+03  0.00000000000E+00 0. -1.
<mgrwt>
<rscale>  2 0.11337333E+03</rscale>
<asrwt>0</asrwt>
<pdfrwt beam="2">  1       21 0.76182928E-01 0.11337333E+03</pdfrwt>
<pdfrwt beam="1">  1        3 0.88429656E-02 0.11337333E+03</pdfrwt>
<totfact> 0.67316844E+03</totfact>
</mgrwt>
</event>
<event>
 4    1  0.5045766E+003  0.1008495E+03  0.7546771E-02  0.1278520E+00
         21   -1    0    0  501  502  0.00000000000E+00  0.00000000000E+00  0.87819820743E+01  0.87819820743E+01  0.00000000000E+00 0.  1.
          2   -1    0    0  503    0 -0.00000000000E+00 -0.00000000000E+00 -0.22054915368E+04  0.22054915368E+04  0.00000000000E+00 0. -1.
         21    1    1    2  503  502 -0.49754796777E+01  0.10072666681E+03 -0.33540086932E+03  0.35023472122E+03  0.00000000000E+00 0.  1.
          2    1    1    2  501    0  0.49754796777E+01 -0.10072666681E+03 -0.18613086854E+04  0.18640387977E+04  0.00000000000E+00 0. -1.
<mgrwt>
<rscale>  2 0.10084948E+03</rscale>
<asrwt>0</asrwt>
<pdfrwt beam="1">  1       21 0.13510750E-02 0.10084948E+03</pdfrwt>
<pdfrwt beam="2">  1        2 0.33930617E+00 0.10084948E+03</pdfrwt>
<totfact> 0.17587386E+05</totfact>
</mgrwt>
</event>
<event>
 4    1  0.5045766E+003  0.1370280E+03  0.7546771E-02  0.1217385E+00
         21   -1    0    0  503  502  0.00000000000E+00  0.00000000000E+00  0.80922932815E+02  0.80922932815E+02  0.00000000000E+00 0. -1.
          2   -1    0    0  502    0 -0.00000000000E+00 -0.00000000000E+00 -0.31635758112E+03  0.31635758112E+03  0.00000000000E+00 0. -1.
         21    1    1    2  503  501  0.27182866750E+02  0.13430476298E+03 -0.15161850246E+02  0.13786427857E+03  0.00000000000E+00 0. -1.
          2    1    1    2  501    0 -0.27182866750E+02 -0.13430476298E+03 -0.22027279806E+03  0.25941623536E+03  0.00000000000E+00 0. -1.
<mgrwt>
<rscale>  2 0.13702802E+03</rscale>
<asrwt>0</asrwt>
<pdfrwt beam="1">  1       21 0.12449682E-01 0.13702802E+03</pdfrwt>
<pdfrwt beam="2">  1        2 0.48670398E-01 0.13702802E+03</pdfrwt>
<totfact> 0.70060957E+04</totfact>
</mgrwt>
</event>
<event>
 4    1  0.5045766E+003  0.1349107E+03  0.7546771E-02  0.1220346E+00
          2   -1    0    0  503    0 -0.00000000000E+00  0.00000000000E+00  0.84122428879E+03  0.84122428879E+03  0.00000000000E+00 0. -1.
         21   -1    0    0  501  502  0.00000000000E+00 -0.00000000000E+00 -0.24582047986E+03  0.24582047986E+03  0.00000000000E+00 0.  1.
         21    1    1    2  503  502  0.13434300237E+03  0.12363800152E+02 -0.22135021814E+03  0.25922350378E+03  0.00000000000E+00 0.  1.
          2    1    1    2  501    0 -0.13434300237E+03 -0.12363800152E+02  0.81675402707E+03  0.82782126487E+03  0.00000000000E+00 0. -1.
<mgrwt>
<rscale>  2 0.13491073E+03</rscale>
<asrwt>0</asrwt>
<pdfrwt beam="2">  1       21 0.37818536E-01 0.13491073E+03</pdfrwt>
<pdfrwt beam="1">  1        2 0.12941912E+00 0.13491073E+03</pdfrwt>
<totfact> 0.29205105E+03</totfact>
</mgrwt>
</event>
<event>
 4    1  0.5045766E+003  0.1274898E+03  0.7546771E-02  0.1231229E+00
         21   -1    0    0  501  502  0.00000000000E+00  0.00000000000E+00  0.28553989037E+04  0.28553989037E+04  0.00000000000E+00 0.  1.
         -3   -1    0    0    0  501 -0.00000000000E+00 -0.00000000000E+00 -0.22026886523E+02  0.22026886523E+02  0.00000000000E+00 0. -1.
         21    1    1    2  503  502  0.66320314223E+02  0.10888194037E+03  0.26556316129E+04  0.26586900768E+04  0.00000000000E+00 0.  1.
         -3    1    1    2    0  503 -0.66320314223E+02 -0.10888194037E+03  0.17774040429E+03  0.21873571344E+03  0.00000000000E+00 0. -1.
<mgrwt>
<rscale>  2 0.12748985E+03</rscale>
<asrwt>0</asrwt>
<pdfrwt beam="1">  1       21 0.43929185E+00 0.12748985E+03</pdfrwt>
<pdfrwt beam="2">  1       -3 0.33887540E-02 0.12748985E+03</pdfrwt>
<totfact> 0.11058110E+02</totfact>
</mgrwt>
</event>
<event>
 4    1  0.5045766E+003  0.1117296E+03  0.7546771E-02  0.1257400E+00
          2   -1    0    0  502    0 -0.00000000000E+00  0.00000000000E+00  0.18463912864E+04  0.18463912864E+04  0.00000000000E+00 0.  1.
         21   -1    0    0  503  502  0.00000000000E+00 -0.00000000000E+00 -0.35857552872E+02  0.35857552872E+02  0.00000000000E+00 0. -1.
         21    1    1    2  503  501  0.87847821547E+01  0.11138371258E+03  0.57498363891E+02  0.12565653853E+03  0.00000000000E+00 0. -1.
          2    1    1    2  501    0 -0.87847821547E+01 -0.11138371258E+03  0.17530353697E+04  0.17565923008E+04  0.00000000000E+00 0.  1.
<mgrwt>
<rscale>  2 0.11172960E+03</rscale>
<asrwt>0</asrwt>
<pdfrwt beam="2">  1       21 0.55165480E-02 0.11172960E+03</pdfrwt>
<pdfrwt beam="1">  1        2 0.28406012E+00 0.11172960E+03</pdfrwt>
<totfact> 0.27031051E+04</totfact>
</mgrwt>
</event>
<event>
 4    1  0.5045766E+003  0.1128023E+03  0.7546771E-02  0.1255467E+00
         21   -1    0    0  501  502  0.00000000000E+00  0.00000000000E+00  0.15481424852E+02  0.15481424852E+02  0.00000000000E+00 0.  1.
          2   -1    0    0  503    0 -0.00000000000E+00 -0.00000000000E+00 -0.82660086539E+03  0.82660086539E+03  0.00000000000E+00 0.  1.
         21    1    1    2  503  502  0.10754780725E+03 -0.34026707690E+02 -0.37384405311E+03  0.39049164360E+03  0.00000000000E+00 0.  1.
          2    1    1    2  501    0 -0.10754780725E+03  0.34026707690E+02 -0.43727538744E+03  0.45159064665E+03  0.00000000000E+00 0.  1.
<mgrwt>
<rscale>  2 0.11280225E+03</rscale>
<asrwt>0</asrwt>
<pdfrwt beam="1">  1       21 0.23817573E-02 0.11280225E+03</pdfrwt>
<pdfrwt beam="2">  1        2 0.12716939E+00 0.11280225E+03</pdfrwt>
<totfact> 0.38928348E+05</totfact>
</mgrwt>
</event>
<event>
 4    1  0.5045766E+003  0.1309511E+03  0.7546771E-02  0.1226051E+00
          1   -1    0    0  503    0 -0.00000000000E+00  0.00000000000E+00  0.40671650343E+04  0.40671650343E+04  0.00000000000E+00 0.  1.
         21   -1    0    0  501  502  0.00000000000E+00 -0.00000000000E+00 -0.51055143041E+01  0.51055143041E+01  0.00000000000E+00 0.  1.
         21    1    1    2  503  502  0.81855123884E+02  0.10221516967E+03  0.11812600437E+04  0.11884963160E+04  0.00000000000E+00 0.  1.
          1    1    1    2  501    0 -0.81855123884E+02 -0.10221516967E+03  0.28807994763E+04  0.28837742327E+04  0.00000000000E+00 0.  1.
<mgrwt>
<rscale>  2 0.13095114E+03</rscale>
<asrwt>0</asrwt>
<pdfrwt beam="2">  1       21 0.78546699E-03 0.13095114E+03</pdfrwt>
<pdfrwt beam="1">  1        1 0.62571511E+00 0.13095114E+03</pdfrwt>
<totfact> 0.74036318E+03</totfact>
</mgrwt>
</event>
<event>
 4    1  0.5045766E+003  0.1092247E+03  0.7546771E-02  0.1262012E+00
         -1   -1    0    0    0  501 -0.00000000000E+00  0.00000000000E+00  0.20790832799E+03  0.20790832799E+03  0.00000000000E+00 0.  1.
         21   -1    0    0  503  502  0.00000000000E+00 -0.00000000000E+00 -0.26138458919E+03  0.26138458919E+03  0.00000000000E+00 0. -1.
         21    1    1    2  503  501 -0.39973102182E+02  0.10164735598E+03 -0.23403497105E+03  0.25826808078E+03  0.00000000000E+00 0. -1.
         -1    1    1    2    0  502  0.39973102182E+02 -0.10164735598E+03  0.18055870985E+03  0.21102483640E+03  0.00000000000E+00 0.  1.
<mgrwt>
<rscale>  2 0.10922469E+03</rscale>
<asrwt>0</asrwt>
<pdfrwt beam="2">  1       21 0.40213014E-01 0.10922469E+03</pdfrwt>
<pdfrwt beam="1">  1       -1 0.31985897E-01 0.10922469E+03</pdfrwt>
<totfact> 0.50804074E+03</totfact>
</mgrwt>
</event>
<event>
 4    1  0.5045766E+003  0.1425902E+03  0.7546771E-02  0.1209886E+00
          3   -1    0    0  502    0 -0.00000000000E+00  0.00000000000E+00  0.32427377533E+03  0.32427377533E+03  0.00000000000E+00 0.  1.
         21   -1    0    0  503  502  0.00000000000E+00 -0.00000000000E+00 -0.74575320369E+03  0.74575320369E+03  0.00000000000E+00 0. -1.
         21    1    1    2  503  501  0.14258784298E+03  0.81903234891E+00 -0.72276856982E+03  0.73669964660E+03  0.00000000000E+00 0. -1.
          3    1    1    2  501    0 -0.14258784298E+03 -0.81903234891E+00  0.30128914146E+03  0.33332733242E+03  0.00000000000E+00 0.  1.
<mgrwt>
<rscale>  2 0.14259020E+03</rscale>
<asrwt>0</asrwt>
<pdfrwt beam="2">  1       21 0.11473126E+00 0.14259020E+03</pdfrwt>
<pdfrwt beam="1">  1        3 0.49888274E-01 0.14259020E+03</pdfrwt>
<totfact> 0.11939190E+02</totfact>
</mgrwt>
</event>
<event>
 4    1  0.5045766E+003  0.1137603E+03  0.7546771E-02  0.1253761E+00
          2   -1    0    0  502    0 -0.00000000000E+00  0.00000000000E+00  0.53453490727E+03  0.53453490727E+03  0.00000000000E+00 0. -1.
         21   -1    0    0  503  502  0.00000000000E+00 -0.00000000000E+00 -0.53194794289E+02  0.53194794289E+02  0.00000000000E+00 0.  1.
         21    1    1    2  503  501 -0.94361727912E+02 -0.63539560358E+02  0.23753009265E+02  0.11621366905E+03  0.00000000000E+00 0.  1.
          2    1    1    2  501    0  0.94361727912E+02  0.63539560358E+02  0.45758710372E+03  0.47151603251E+03  0.00000000000E+00 0. -1.
<mgrwt>
<rscale>  2 0.11376032E+03</rscale>
<asrwt>0</asrwt>
<pdfrwt beam="2">  1       21 0.81838149E-02 0.11376032E+03</pdfrwt>
<pdfrwt beam="1">  1        2 0.82236136E-01 0.11376032E+03</pdfrwt>
<totfact> 0.82796476E+04</totfact>
</mgrwt>
</event>
<event>
 4    1  0.5045766E+003  0.1987252E+03  0.7546771E-02  0.1150819E+00
          2   -1    0    0  502    0 -0.00000000000E+00  0.00000000000E+00  0.10392375884E+04  0.10392375884E+04  0.00000000000E+00 0. -1.
         21   -1    0    0  503  502  0.00000000000E+00 -0.00000000000E+00 -0.11360064672E+03  0.11360064672E+03  0.00000000000E+00 0. -1.
         21    1    1    2  503  501  0.11333386066E+03  0.16323949624E+03 -0.74099573484E+01  0.19886328111E+03  0.00000000000E+00 0. -1.
          2    1    1    2  501    0 -0.11333386066E+03 -0.16323949624E+03  0.93304689905E+03  0.95397495404E+03  0.00000000000E+00 0. -1.
<mgrwt>
<rscale>  2 0.19872518E+03</rscale>
<asrwt>0</asrwt>
<pdfrwt beam="2">  1       21 0.17477023E-01 0.19872518E+03</pdfrwt>
<pdfrwt beam="1">  1        2 0.15988270E+00 0.19872518E+03</pdfrwt>
<totfact> 0.93572738E+03</totfact>
</mgrwt>
</event>
<event>
 4    1  0.5045766E+003  0.1046023E+03  0.7546771E-02  0.1270905E+00
          4   -1    0    0  503    0 -0.00000000000E+00  0.00000000000E+00  0.19606087117E+02  0.19606087117E+02  0.00000000000E+00 0. -1.
         21   -1    0    0  501  502  0.00000000000E+00 -0.00000000000E+00 -0.56558382901E+03  0.56558382901E+03  0.00000000000E+00 0. -1.
         21    1    1    2  503  502  0.84203077194E+02 -0.62060382964E+02 -0.30670444796E+03  0.32405133504E+03  0.00000000000E+00 0. -1.
          4    1    1    2  501    0 -0.84203077194E+02  0.62060382964E+02 -0.23927329394E+03  0.26113858109E+03  0.00000000000E+00 0. -1.
<mgrwt>
<rscale>  2 0.10460234E+03</rscale>
<asrwt>0</asrwt>
<pdfrwt beam="2">  1       21 0.87012890E-01 0.10460234E+03</pdfrwt>
<pdfrwt beam="1">  1        4 0.30163213E-02 0.10460234E+03</pdfrwt>
<totfact> 0.24402070E+04</totfact>
</mgrwt>
</event>
<event>
 4    1  0.5045766E+003  0.1860660E+03  0.7546771E-02  0.1162058E+00
         21   -1    0    0  501  502  0.00000000000E+00  0.00000000000E+00  0.18154877919E+03  0.18154877919E+03  0.00000000000E+00 0. -1.
          2   -1    0    0  503    0 -0.00000000000E+00 -0.00000000000E+00 -0.25200775843E+03  0.25200775843E+03  0.00000000000E+00 0. -1.
         21    1    1    2  503  502  0.60175014085E+02  0.17606684476E+03  0.71696146248E+02  0.19940136291E+03  0.00000000000E+00 0. -1.
          2    1    1    2  501    0 -0.60175014085E+02 -0.17606684476E+03 -0.14215512549E+03  0.23415517472E+03  0.00000000000E+00 0. -1.
<mgrwt>
<rscale>  2 0.18606603E+03</rscale>
<asrwt>0</asrwt>
<pdfrwt beam="1">  1       21 0.27930581E-01 0.18606603E+03</pdfrwt>
<pdfrwt beam="2">  1        2 0.38770424E-01 0.18606603E+03</pdfrwt>
<totfact> 0.20030732E+04</totfact>
</mgrwt>
</event>
<event>
 4    1  0.5045766E+003  0.1181146E+03  0.7546771E-02  0.1246240E+00
         -3   -1    0    0    0  501 -0.00000000000E+00  0.00000000000E+00  0.19354494801E+03  0.19354494801E+03  0.00000000000E+00 0.  1.
         21   -1    0    0  501  502  0.00000000000E+00 -0.00000000000E+00 -0.11173394178E+03  0.11173394178E+03  0.00000000000E+00 0.  1.
         21    1    1    2  503  502  0.65507191601E+02  0.98284585131E+02 -0.50024667776E+02  0.12827127197E+03  0.00000000000E+00 0.  1.
         -3    1    1    2    0  503 -0.65507191601E+02 -0.98284585131E+02  0.13183567401E+03  0.17700761782E+03  0.00000000000E+00 0.  1.
<mgrwt>
<rscale>  2 0.11811457E+03</rscale>
<asrwt>0</asrwt>
<pdfrwt beam="2">  1       21 0.17189837E-01 0.11811457E+03</pdfrwt>
<pdfrwt beam="1">  1       -3 0.29776146E-01 0.11811457E+03</pdfrwt>
<totfact> 0.15925519E+04</totfact>
</mgrwt>
</event>
<event>
 4    1  0.5045766E+003  0.1626267E+03  0.7546771E-02  0.1185763E+00
          1   -1    0    0  503    0 -0.00000000000E+00  0.00000000000E+00  0.23831093337E+03  0.23831093337E+03  0.00000000000E+00 0. -1.
         21   -1    0    0  501  502  0.00000000000E+00 -0.00000000000E+00 -0.15461172346E+03  0.15461172346E+03  0.00000000000E+00 0. -1.
         21    1    1    2  503  502  0.88568797361E+02 -0.13639290085E+03 -0.62517383050E+02  0.17422938458E+03  0.00000000000E+00 0. -1.
          1    1    1    2  501    0 -0.88568797361E+02  0.13639290085E+03  0.14621659297E+03  0.21869327225E+03  0.00000000000E+00 0. -1.
<mgrwt>
<rscale>  2 0.16262674E+03</rscale>
<asrwt>0</asrwt>
<pdfrwt beam="2">  1       21 0.23786419E-01 0.16262674E+03</pdfrwt>
<pdfrwt beam="1">  1        1 0.36663220E-01 0.16262674E+03</pdfrwt>
<totfact> 0.21325023E+04</totfact>
</mgrwt>
</event>
<event>
 4    1  0.5045766E+003  0.1664308E+03  0.7546771E-02  0.1181622E+00
         21   -1    0    0  501  502  0.00000000000E+00  0.00000000000E+00  0.32396292873E+02  0.32396292873E+02  0.00000000000E+00 0. -1.
          1   -1    0    0  503    0 -0.00000000000E+00 -0.00000000000E+00 -0.10879904529E+04  0.10879904529E+04  0.00000000000E+00 0. -1.
         21    1    1    2  503  502 -0.15803473441E+03 -0.52194247179E+02 -0.26856820609E+03  0.31595584825E+03  0.00000000000E+00 0. -1.
          1    1    1    2  501    0  0.15803473441E+03  0.52194247179E+02 -0.78702595389E+03  0.80443089748E+03  0.00000000000E+00 0. -1.
<mgrwt>
<rscale>  2 0.16643082E+03</rscale>
<asrwt>0</asrwt>
<pdfrwt beam="1">  1       21 0.49840455E-02 0.16643082E+03</pdfrwt>
<pdfrwt beam="2">  1        1 0.16738313E+00 0.16643082E+03</pdfrwt>
<totfact> 0.42071219E+04</totfact>
</mgrwt>
</event>
<event>
 4    1  0.5045766E+003  0.1045099E+03  0.7546771E-02  0.1271088E+00
         21   -1    0    0  501  502  0.00000000000E+00  0.00000000000E+00  0.19346524079E+03  0.19346524079E+03  0.00000000000E+00 0. -1.
          2   -1    0    0  503    0 -0.00000000000E+00 -0.00000000000E+00 -0.17285421606E+03  0.17285421606E+03  0.00000000000E+00 0.  1.
         21    1    1    2  503  502  0.96517490738E+02 -0.40083464737E+02  0.16060683848E+03  0.19161645735E+03  0.00000000000E+00 0. -1.
          2    1    1    2  501    0 -0.96517490738E+02  0.40083464737E+02 -0.13999581375E+03  0.17470299949E+03  0.00000000000E+00 0.  1.
<mgrwt>
<rscale>  2 0.10450986E+03</rscale>
<asrwt>0</asrwt>
<pdfrwt beam="1">  1       21 0.29763883E-01 0.10450986E+03</pdfrwt>
<pdfrwt beam="2">  1        2 0.26592956E-01 0.10450986E+03</pdfrwt>
<totfact> 0.26737743E+04</totfact>
</mgrwt>
</event>
<event>
 4    1  0.5045766E+003  0.1231919E+03  0.7546771E-02  0.1237922E+00
          2   -1    0    0  503    0 -0.00000000000E+00  0.00000000000E+00  0.43589146847E+02  0.43589146847E+02  0.00000000000E+00 0. -1.
         21   -1    0    0  501  502  0.00000000000E+00 -0.00000000000E+00 -0.71712231714E+03  0.71712231714E+03  0.00000000000E+00 0.  1.
         21    1    1    2  503  502  0.11108936291E+03 -0.53248433754E+02 -0.60958962684E+03  0.62191298057E+03  0.00000000000E+00 0.  1.
          2    1    1    2  501    0 -0.11108936291E+03  0.53248433754E+02 -0.63943543446E+02  0.13879848341E+03  0.00000000000E+00 0. -1.
<mgrwt>
<rscale>  2 0.12319189E+03</rscale>
<asrwt>0</asrwt>
<pdfrwt beam="2">  1       21 0.11032651E+00 0.12319189E+03</pdfrwt>
<pdfrwt beam="1">  1        2 0.67060224E-02 0.12319189E+03</pdfrwt>
<totfact> 0.84707593E+03</totfact>
</mgrwt>
</event>
<event>
 4    1  0.5045766E+003  0.1117809E+03  0.7546771E-02  0.1257307E+00
         21   -1    0    0  503  502  0.00000000000E+00  0.00000000000E+00  0.14286549767E+02  0.14286549767E+02  0.00000000000E+00 0.  1.
          2   -1    0    0  502    0 -0.00000000000E+00 -0.00000000000E+00 -0.12906586903E+04  0.12906586903E+04  0.00000000000E+00 0.  1.
         21    1    1    2  503  501 -0.45313229258E+02 -0.10218452943E+03 -0.26773086738E+03  0.29012890954E+03  0.00000000000E+00 0.  1.
          2    1    1    2  501    0  0.45313229258E+02  0.10218452943E+03 -0.10086412732E+04  0.10148163305E+04  0.00000000000E+00 0.  1.
<mgrwt>
<rscale>  2 0.11178089E+03</rscale>
<asrwt>0</asrwt>
<pdfrwt beam="1">  1       21 0.21979297E-02 0.11178089E+03</pdfrwt>
<pdfrwt beam="2">  1        2 0.19856297E+00 0.11178089E+03</pdfrwt>
<totfact> 0.23764947E+05</totfact>
</mgrwt>
</event>
<event>
 4    1  0.5045766E+003  0.2217071E+03  0.7546771E-02  0.1132617E+00
         21   -1    0    0  501  502  0.00000000000E+00  0.00000000000E+00  0.29760428081E+03  0.29760428081E+03  0.00000000000E+00 0. -1.
         -1   -1    0    0    0  501 -0.00000000000E+00 -0.00000000000E+00 -0.22112052452E+03  0.22112052452E+03  0.00000000000E+00 0. -1.
         21    1    1    2  503  502  0.10680736051E+03 -0.19428385428E+03  0.16871202325E+03  0.27859966813E+03  0.00000000000E+00 0. -1.
         -1    1    1    2    0  503 -0.10680736051E+03  0.19428385428E+03 -0.92228266955E+02  0.24012513720E+03  0.00000000000E+00 0. -1.
<mgrwt>
<rscale>  2 0.22170708E+03</rscale>
<asrwt>0</asrwt>
<pdfrwt beam="1">  1       21 0.45785275E-01 0.22170708E+03</pdfrwt>
<pdfrwt beam="2">  1       -1 0.34018542E-01 0.22170708E+03</pdfrwt>
<totfact> 0.34209041E+03</totfact>
</mgrwt>
</event>
<event>
 4    1  0.5045766E+003  0.1045702E+03  0.7546771E-02  0.1270969E+00
         21   -1    0    0  501  502  0.00000000000E+00  0.00000000000E+00  0.11324913262E+02  0.11324913262E+02  0.00000000000E+00 0. -1.
          2   -1    0    0  503    0 -0.00000000000E+00 -0.00000000000E+00 -0.23296601020E+04  0.23296601020E+04  0.00000000000E+00 0. -1.
         21    1    1    2  503  502 -0.14537674589E+02 -0.10355475542E+03 -0.26350424820E+03  0.28349500908E+03  0.00000000000E+00 0. -1.
          2    1    1    2  501    0  0.14537674589E+02  0.10355475542E+03 -0.20548309405E+04  0.20574900062E+04  0.00000000000E+00 0. -1.
<mgrwt>
<rscale>  2 0.10457022E+03</rscale>
<asrwt>0</asrwt>
<pdfrwt beam="1">  1       21 0.17422923E-02 0.10457022E+03</pdfrwt>
<pdfrwt beam="2">  1        2 0.35840967E+00 0.10457022E+03</pdfrwt>
<totfact> 0.10129100E+05</totfact>
</mgrwt>
</event>
<event>
 4    1  0.5045766E+003  0.1564800E+03  0.7546771E-02  0.1192729E+00
         21   -1    0    0  501  502  0.00000000000E+00  0.00000000000E+00  0.88717181251E+02  0.88717181251E+02  0.00000000000E+00 0.  1.
          2   -1    0    0  503    0 -0.00000000000E+00 -0.00000000000E+00 -0.13962180322E+04  0.13962180322E+04  0.00000000000E+00 0.  1.
         21    1    1    2  503  502  0.15083004839E+03 -0.41668614871E+02  0.11296197413E+02  0.15688716020E+03  0.00000000000E+00 0.  1.
          2    1    1    2  501    0 -0.15083004839E+03  0.41668614871E+02 -0.13187970484E+04  0.13280480533E+04  0.00000000000E+00 0.  1.
<mgrwt>
<rscale>  2 0.15647996E+03</rscale>
<asrwt>0</asrwt>
<pdfrwt beam="1">  1       21 0.13648796E-01 0.15647996E+03</pdfrwt>
<pdfrwt beam="2">  1        2 0.21480278E+00 0.15647996E+03</pdfrwt>
<totfact> 0.94100856E+03</totfact>
</mgrwt>
</event>
<event>
 4    1  0.5045766E+003  0.1099598E+03  0.7546771E-02  0.1260644E+00
          2   -1    0    0  502    0 -0.00000000000E+00  0.00000000000E+00  0.31916710757E+03  0.31916710757E+03  0.00000000000E+00 0.  1.
         21   -1    0    0  503  502  0.00000000000E+00 -0.00000000000E+00 -0.65578280326E+02  0.65578280326E+02  0.00000000000E+00 0.  1.
         21    1    1    2  503  501  0.58243622598E+02 -0.93267555774E+02  0.17792662248E+01  0.10997418934E+03  0.00000000000E+00 0.  1.
          2    1    1    2  501    0 -0.58243622598E+02  0.93267555774E+02  0.25180956102E+03  0.27477119855E+03  0.00000000000E+00 0.  1.
<mgrwt>
<rscale>  2 0.10995980E+03</rscale>
<asrwt>0</asrwt>
<pdfrwt beam="2">  1       21 0.10088966E-01 0.10995980E+03</pdfrwt>
<pdfrwt beam="1">  1        2 0.49102631E-01 0.10995980E+03</pdfrwt>
<totfact> 0.99908949E+04</totfact>
</mgrwt>
</event>
<event>
 4    1  0.5045766E+003  0.1534828E+03  0.7546771E-02  0.1196258E+00
          2   -1    0    0  502    0 -0.00000000000E+00  0.00000000000E+00  0.23399307368E+04  0.23399307368E+04  0.00000000000E+00 0.  1.
         21   -1    0    0  503  502  0.00000000000E+00 -0.00000000000E+00 -0.28320613093E+02  0.28320613093E+02  0.00000000000E+00 0.  1.
         21    1    1    2  503  501 -0.15310529413E+03  0.10757548557E+02  0.20516425340E+03  0.25622124583E+03  0.00000000000E+00 0.  1.
          2    1    1    2  501    0  0.15310529413E+03 -0.10757548557E+02  0.21064458703E+04  0.21120301041E+04  0.00000000000E+00 0.  1.
<mgrwt>
<rscale>  2 0.15348275E+03</rscale>
<asrwt>0</asrwt>
<pdfrwt beam="2">  1       21 0.43570192E-02 0.15348275E+03</pdfrwt>
<pdfrwt beam="1">  1        2 0.35998919E+00 0.15348275E+03</pdfrwt>
<totfact> 0.22026258E+04</totfact>
</mgrwt>
</event>
<event>
 4    1  0.5045766E+003  0.1006302E+03  0.7546771E-02  0.1278976E+00
         21   -1    0    0  501  502  0.00000000000E+00  0.00000000000E+00  0.63636256553E+03  0.63636256553E+03  0.00000000000E+00 0. -1.
          1   -1    0    0  503    0 -0.00000000000E+00 -0.00000000000E+00 -0.35313072205E+03  0.35313072205E+03  0.00000000000E+00 0. -1.
         21    1    1    2  503  502  0.18536524919E+02  0.98908258969E+02  0.62508676892E+03  0.63313498966E+03  0.00000000000E+00 0. -1.
          1    1    1    2  501    0 -0.18536524919E+02 -0.98908258969E+02 -0.34185492545E+03  0.35635829793E+03  0.00000000000E+00 0. -1.
<mgrwt>
<rscale>  2 0.10063025E+03</rscale>
<asrwt>0</asrwt>
<pdfrwt beam="1">  1       21 0.97901933E-01 0.10063025E+03</pdfrwt>
<pdfrwt beam="2">  1        1 0.54327803E-01 0.10063025E+03</pdfrwt>
<totfact> 0.72119972E+02</totfact>
</mgrwt>
</event>
<event>
 4    1  0.5045766E+003  0.1049167E+03  0.7546771E-02  0.1270284E+00
         21   -1    0    0  501  502  0.00000000000E+00  0.00000000000E+00  0.23222605325E+02  0.23222605325E+02  0.00000000000E+00 0.  1.
          3   -1    0    0  503    0 -0.00000000000E+00 -0.00000000000E+00 -0.14952733265E+04  0.14952733265E+04  0.00000000000E+00 0.  1.
         21    1    1    2  503  502 -0.10491254457E+03  0.93767293957E+00 -0.10855346184E+03  0.15096812682E+03  0.00000000000E+00 0.  1.
          3    1    1    2  501    0  0.10491254457E+03 -0.93767293957E+00 -0.13634972594E+04  0.13675278050E+04  0.00000000000E+00 0.  1.
<mgrwt>
<rscale>  2 0.10491673E+03</rscale>
<asrwt>0</asrwt>
<pdfrwt beam="1">  1       21 0.35727081E-02 0.10491673E+03</pdfrwt>
<pdfrwt beam="2">  1        3 0.23004208E+00 0.10491673E+03</pdfrwt>
<totfact> 0.25021772E+03</totfact>
</mgrwt>
</event>
<event>
 4    1  0.5045766E+003  0.1195604E+03  0.7546771E-02  0.1243824E+00
          1   -1    0    0  502    0 -0.00000000000E+00  0.00000000000E+00  0.11177674438E+03  0.11177674438E+03  0.00000000000E+00 0.  1.
         21   -1    0    0  503  502  0.00000000000E+00 -0.00000000000E+00 -0.48735542517E+03  0.48735542517E+03  0.00000000000E+00 0.  1.
         21    1    1    2  503  501 -0.94814177298E+02  0.72835217443E+02 -0.44506614371E+03  0.46084549406E+03  0.00000000000E+00 0.  1.
          1    1    1    2  501    0  0.94814177298E+02 -0.72835217443E+02  0.69487462924E+02  0.13828667550E+03  0.00000000000E+00 0.  1.
<mgrwt>
<rscale>  2 0.11956043E+03</rscale>
<asrwt>0</asrwt>
<pdfrwt beam="2">  1       21 0.74977759E-01 0.11956043E+03</pdfrwt>
<pdfrwt beam="1">  1        1 0.17196422E-01 0.11956043E+03</pdfrwt>
<totfact> 0.54238592E+03</totfact>
</mgrwt>
</event>
<event>
 4    1  0.5045766E+003  0.1171166E+03  0.7546771E-02  0.1247931E+00
         21   -1    0    0  501  502  0.00000000000E+00  0.00000000000E+00  0.80972289258E+01  0.80972289258E+01  0.00000000000E+00 0.  1.
         -2   -1    0    0    0  501 -0.00000000000E+00 -0.00000000000E+00 -0.16945015932E+04  0.16945015932E+04  0.00000000000E+00 0.  1.
         21    1    1    2  503  502 -0.87236203081E+02 -0.78141882843E+02 -0.82785674055E+03  0.83609992934E+03  0.00000000000E+00 0.  1.
         -2    1    1    2    0  503  0.87236203081E+02  0.78141882843E+02 -0.85854762374E+03  0.86649889279E+03  0.00000000000E+00 0.  1.
<mgrwt>
<rscale>  2 0.11711665E+03</rscale>
<asrwt>0</asrwt>
<pdfrwt beam="1">  1       21 0.12457269E-02 0.11711665E+03</pdfrwt>
<pdfrwt beam="2">  1       -2 0.26069268E+00 0.11711665E+03</pdfrwt>
<totfact> 0.13680678E+04</totfact>
</mgrwt>
</event>
<event>
 4    1  0.5045766E+003  0.1737743E+03  0.7546771E-02  0.1173968E+00
          2   -1    0    0  503    0 -0.00000000000E+00  0.00000000000E+00  0.11179580153E+04  0.11179580153E+04  0.00000000000E+00 0.  1.
         21   -1    0    0  501  502  0.00000000000E+00 -0.00000000000E+00 -0.43724857460E+02  0.43724857460E+02  0.00000000000E+00 0.  1.
         21    1    1    2  503  502  0.14891426193E+02 -0.17313511517E+03  0.17800652207E+03  0.24876463691E+03  0.00000000000E+00 0.  1.
          2    1    1    2  501    0 -0.14891426193E+02  0.17313511517E+03  0.89622663574E+03  0.91291823582E+03  0.00000000000E+00 0.  1.
<mgrwt>
<rscale>  2 0.17377434E+03</rscale>
<asrwt>0</asrwt>
<pdfrwt beam="2">  1       21 0.67269020E-02 0.17377434E+03</pdfrwt>
<pdfrwt beam="1">  1        2 0.17199352E+00 0.17377434E+03</pdfrwt>
<totfact> 0.46183171E+04</totfact>
</mgrwt>
</event>
<event>
 4    1  0.5045766E+003  0.1296718E+03  0.7546771E-02  0.1227944E+00
         21   -1    0    0  501  502  0.00000000000E+00  0.00000000000E+00  0.58827657925E+02  0.58827657925E+02  0.00000000000E+00 0. -1.
          2   -1    0    0  503    0 -0.00000000000E+00 -0.00000000000E+00 -0.33331862826E+03  0.33331862826E+03  0.00000000000E+00 0.  1.
         21    1    1    2  503  502 -0.11465227180E+03  0.60577449615E+02 -0.63237537611E+02  0.14426973693E+03  0.00000000000E+00 0. -1.
          2    1    1    2  501    0  0.11465227180E+03 -0.60577449615E+02 -0.21125343272E+03  0.24787654925E+03  0.00000000000E+00 0.  1.
<mgrwt>
<rscale>  2 0.12967178E+03</rscale>
<asrwt>0</asrwt>
<pdfrwt beam="1">  1       21 0.90504090E-02 0.12967178E+03</pdfrwt>
<pdfrwt beam="2">  1        2 0.51279789E-01 0.12967178E+03</pdfrwt>
<totfact> 0.11595268E+05</totfact>
</mgrwt>
</event>
<event>
 4    1  0.5045766E+003  0.1196713E+03  0.7546771E-02  0.1243640E+00
          2   -1    0    0  503    0 -0.00000000000E+00  0.00000000000E+00  0.14024733408E+04  0.14024733408E+04  0.00000000000E+00 0. -1.
         21   -1    0    0  501  502  0.00000000000E+00 -0.00000000000E+00 -0.16964921016E+02  0.16964921016E+02  0.00000000000E+00 0. -1.
         21    1    1    2  503  502  0.12694524667E+02 -0.11899608712E+03  0.24496292166E+03  0.27263171623E+03  0.00000000000E+00 0. -1.
          2    1    1    2  501    0 -0.12694524667E+02  0.11899608712E+03  0.11405454982E+04  0.11468065456E+04  0.00000000000E+00 0. -1.
<mgrwt>
<rscale>  2 0.11967130E+03</rscale>
<asrwt>0</asrwt>
<pdfrwt beam="2">  1       21 0.26099890E-02 0.11967130E+03</pdfrwt>
<pdfrwt beam="1">  1        2 0.21576504E+00 0.11967130E+03</pdfrwt>
<totfact> 0.15714532E+05</totfact>
</mgrwt>
</event>
<event>
 4    1  0.5045766E+003  0.1098760E+03  0.7546771E-02  0.1260800E+00
         21   -1    0    0  501  502  0.00000000000E+00  0.00000000000E+00  0.83568193841E+02  0.83568193841E+02  0.00000000000E+00 0.  1.
          4   -1    0    0  503    0 -0.00000000000E+00 -0.00000000000E+00 -0.18753137625E+03  0.18753137625E+03  0.00000000000E+00 0. -1.
         21    1    1    2  503  502 -0.10472365525E+03  0.33251920943E+02  0.12975669776E+02  0.11063951473E+03  0.00000000000E+00 0.  1.
          4    1    1    2  501    0  0.10472365525E+03 -0.33251920943E+02 -0.11693885218E+03  0.16046005536E+03  0.00000000000E+00 0. -1.
<mgrwt>
<rscale>  2 0.10987599E+03</rscale>
<asrwt>0</asrwt>
<pdfrwt beam="1">  1       21 0.12856645E-01 0.10987599E+03</pdfrwt>
<pdfrwt beam="2">  1        4 0.28850981E-01 0.10987599E+03</pdfrwt>
<totfact> 0.23610130E+04</totfact>
</mgrwt>
</event>
<event>
 4    1  0.5045766E+003  0.1555839E+03  0.7546771E-02  0.1193775E+00
         21   -1    0    0  501  502  0.00000000000E+00  0.00000000000E+00  0.55524799892E+03  0.55524799892E+03  0.00000000000E+00 0. -1.
         -2   -1    0    0    0  501 -0.00000000000E+00 -0.00000000000E+00 -0.63555885573E+02  0.63555885573E+02  0.00000000000E+00 0. -1.
         21    1    1    2  503  502 -0.12708731827E+03  0.89750587964E+02  0.41923796269E+03  0.44717650191E+03  0.00000000000E+00 0. -1.
         -2    1    1    2    0  503  0.12708731827E+03 -0.89750587964E+02  0.72454150661E+02  0.17162738258E+03  0.00000000000E+00 0. -1.
<mgrwt>
<rscale>  2 0.15558391E+03</rscale>
<asrwt>0</asrwt>
<pdfrwt beam="1">  1       21 0.85422766E-01 0.15558391E+03</pdfrwt>
<pdfrwt beam="2">  1       -2 0.97778289E-02 0.15558391E+03</pdfrwt>
<totfact> 0.64389508E+03</totfact>
</mgrwt>
</event>
<event>
 4    1  0.5045766E+003  0.1188185E+03  0.7546771E-02  0.1245059E+00
         21   -1    0    0  503  502  0.00000000000E+00  0.00000000000E+00  0.12518944130E+03  0.12518944130E+03  0.00000000000E+00 0.  1.
          2   -1    0    0  502    0 -0.00000000000E+00 -0.00000000000E+00 -0.85626226498E+03  0.85626226498E+03  0.00000000000E+00 0. -1.
         21    1    1    2  503  501  0.59917022759E+02  0.10260495818E+03  0.91734172544E+02  0.15010991130E+03  0.00000000000E+00 0.  1.
          2    1    1    2  501    0 -0.59917022759E+02 -0.10260495818E+03 -0.82280699622E+03  0.83134179498E+03  0.00000000000E+00 0. -1.
<mgrwt>
<rscale>  2 0.11881846E+03</rscale>
<asrwt>0</asrwt>
<pdfrwt beam="1">  1       21 0.19259915E-01 0.11881846E+03</pdfrwt>
<pdfrwt beam="2">  1        2 0.13173265E+00 0.11881846E+03</pdfrwt>
<totfact> 0.10419900E+04</totfact>
</mgrwt>
</event>
<event>
 4    1  0.5045766E+003  0.1098277E+03  0.7546771E-02  0.1260889E+00
         21   -1    0    0  503  502  0.00000000000E+00  0.00000000000E+00  0.30944463037E+02  0.30944463037E+02  0.00000000000E+00 0. -1.
         -1   -1    0    0    0  501 -0.00000000000E+00 -0.00000000000E+00 -0.45339004815E+03  0.45339004815E+03  0.00000000000E+00 0. -1.
         21    1    1    2  503  501  0.29960389809E+02 -0.10566216774E+03 -0.12052898150E+03  0.16306242372E+03  0.00000000000E+00 0. -1.
         -1    1    1    2    0  502 -0.29960389809E+02  0.10566216774E+03 -0.30191660362E+03  0.32127208747E+03  0.00000000000E+00 0. -1.
<mgrwt>
<rscale>  2 0.10982768E+03</rscale>
<asrwt>0</asrwt>
<pdfrwt beam="1">  1       21 0.47606866E-02 0.10982768E+03</pdfrwt>
<pdfrwt beam="2">  1       -1 0.69752315E-01 0.10982768E+03</pdfrwt>
<totfact> 0.57753219E+04</totfact>
</mgrwt>
</event>
<event>
 4    1  0.5045766E+003  0.1176925E+03  0.7546771E-02  0.1246953E+00
         21   -1    0    0  501  502  0.00000000000E+00  0.00000000000E+00  0.17728213559E+03  0.17728213559E+03  0.00000000000E+00 0. -1.
          3   -1    0    0  503    0 -0.00000000000E+00 -0.00000000000E+00 -0.23434505403E+03  0.23434505403E+03  0.00000000000E+00 0. -1.
         21    1    1    2  503  502  0.10011399784E+03  0.61876664478E+02  0.13950512048E+03  0.18251907520E+03  0.00000000000E+00 0. -1.
          3    1    1    2  501    0 -0.10011399784E+03 -0.61876664478E+02 -0.19656803892E+03  0.22910811443E+03  0.00000000000E+00 0. -1.
<mgrwt>
<rscale>  2 0.11769254E+03</rscale>
<asrwt>0</asrwt>
<pdfrwt beam="1">  1       21 0.27274175E-01 0.11769254E+03</pdfrwt>
<pdfrwt beam="2">  1        3 0.36053085E-01 0.11769254E+03</pdfrwt>
<totfact> 0.47242852E+03</totfact>
</mgrwt>
</event>
<event>
 4    1  0.5045766E+003  0.1351195E+03  0.7546771E-02  0.1220051E+00
         21   -1    0    0  501  502  0.00000000000E+00  0.00000000000E+00  0.70286100191E+02  0.70286100191E+02  0.00000000000E+00 0.  1.
          3   -1    0    0  503    0 -0.00000000000E+00 -0.00000000000E+00 -0.38822577665E+03  0.38822577665E+03  0.00000000000E+00 0.  1.
         21    1    1    2  503  502  0.11789192261E+03  0.66021075608E+02 -0.27090228296E+02  0.13780844789E+03  0.00000000000E+00 0.  1.
          3    1    1    2  501    0 -0.11789192261E+03 -0.66021075608E+02 -0.29084944816E+03  0.32070342894E+03  0.00000000000E+00 0.  1.
<mgrwt>
<rscale>  2 0.13511953E+03</rscale>
<asrwt>0</asrwt>
<pdfrwt beam="1">  1       21 0.10813246E-01 0.13511953E+03</pdfrwt>
<pdfrwt beam="2">  1        3 0.59727042E-01 0.13511953E+03</pdfrwt>
<totfact> 0.95315382E+03</totfact>
</mgrwt>
</event>
<event>
 4    1  0.5045766E+003  0.1179685E+03  0.7546771E-02  0.1246487E+00
         -3   -1    0    0    0  501 -0.00000000000E+00  0.00000000000E+00  0.20156911162E+04  0.20156911162E+04  0.00000000000E+00 0.  1.
         21   -1    0    0  501  502  0.00000000000E+00 -0.00000000000E+00 -0.38092770030E+02  0.38092770030E+02  0.00000000000E+00 0. -1.
         21    1    1    2  503  502 -0.10331166578E+03 -0.56949593558E+02  0.59614974260E+02  0.13217602524E+03  0.00000000000E+00 0. -1.
         -3    1    1    2    0  503  0.10331166578E+03  0.56949593558E+02  0.19179833719E+04  0.19216078610E+04  0.00000000000E+00 0.  1.
<mgrwt>
<rscale>  2 0.11796846E+03</rscale>
<asrwt>0</asrwt>
<pdfrwt beam="2">  1       21 0.58604277E-02 0.11796846E+03</pdfrwt>
<pdfrwt beam="1">  1       -3 0.31010624E+00 0.11796846E+03</pdfrwt>
<totfact> 0.40893907E+02</totfact>
</mgrwt>
</event>
<event>
 4    1  0.5045766E+003  0.1454737E+03  0.7546771E-02  0.1206148E+00
          2   -1    0    0  503    0 -0.00000000000E+00  0.00000000000E+00  0.61034220302E+03  0.61034220302E+03  0.00000000000E+00 0.  1.
         21   -1    0    0  501  502  0.00000000000E+00 -0.00000000000E+00 -0.51245568354E+02  0.51245568354E+02  0.00000000000E+00 0. -1.
         21    1    1    2  503  502  0.14223437953E+03  0.30528552347E+02  0.91434980022E+02  0.17182248631E+03  0.00000000000E+00 0. -1.
          2    1    1    2  501    0 -0.14223437953E+03 -0.30528552347E+02  0.46766165464E+03  0.48976528506E+03  0.00000000000E+00 0.  1.
<mgrwt>
<rscale>  2 0.14547375E+03</rscale>
<asrwt>0</asrwt>
<pdfrwt beam="2">  1       21 0.78839340E-02 0.14547375E+03</pdfrwt>
<pdfrwt beam="1">  1        2 0.93898795E-01 0.14547375E+03</pdfrwt>
<totfact> 0.76411719E+04</totfact>
</mgrwt>
</event>
<event>
 4    1  0.5045766E+003  0.1190012E+03  0.7546771E-02  0.1244754E+00
          2   -1    0    0  502    0 -0.00000000000E+00  0.00000000000E+00  0.12376777039E+04  0.12376777039E+04  0.00000000000E+00 0. -1.
         21   -1    0    0  503  502  0.00000000000E+00 -0.00000000000E+00 -0.74789122804E+02  0.74789122804E+02  0.00000000000E+00 0. -1.
         21    1    1    2  503  501 -0.10523141063E+03  0.55566422820E+02 -0.22508798832E+02  0.12111120160E+03  0.00000000000E+00 0. -1.
          2    1    1    2  501    0  0.10523141063E+03 -0.55566422820E+02  0.11853973799E+04  0.11913556251E+04  0.00000000000E+00 0. -1.
<mgrwt>
<rscale>  2 0.11900116E+03</rscale>
<asrwt>0</asrwt>
<pdfrwt beam="2">  1       21 0.11506020E-01 0.11900116E+03</pdfrwt>
<pdfrwt beam="1">  1        2 0.19041194E+00 0.11900116E+03</pdfrwt>
<totfact> 0.15735415E+04</totfact>
</mgrwt>
</event>
<event>
 4    1  0.5045766E+003  0.1640482E+03  0.7546771E-02  0.1184201E+00
         21   -1    0    0  503  502  0.00000000000E+00  0.00000000000E+00  0.20017539365E+03  0.20017539365E+03  0.00000000000E+00 0. -1.
          1   -1    0    0  502    0 -0.00000000000E+00 -0.00000000000E+00 -0.12584660790E+04  0.12584660790E+04  0.00000000000E+00 0.  1.
         21    1    1    2  503  501  0.92139527569E+02  0.13572807295E+03  0.16011895553E+03  0.22923761089E+03  0.00000000000E+00 0. -1.
          1    1    1    2  501    0 -0.92139527569E+02 -0.13572807295E+03 -0.12184096409E+04  0.12294038618E+04  0.00000000000E+00 0.  1.
<mgrwt>
<rscale>  2 0.16404817E+03</rscale>
<asrwt>0</asrwt>
<pdfrwt beam="1">  1       21 0.30796214E-01 0.16404817E+03</pdfrwt>
<pdfrwt beam="2">  1        1 0.19361017E+00 0.16404817E+03</pdfrwt>
<totfact> 0.12148638E+03</totfact>
</mgrwt>
</event>
<event>
 4    1  0.5045766E+003  0.1080122E+03  0.7546771E-02  0.1264296E+00
         21   -1    0    0  503  502  0.00000000000E+00  0.00000000000E+00  0.21100794484E+02  0.21100794484E+02  0.00000000000E+00 0. -1.
          4   -1    0    0  502    0 -0.00000000000E+00 -0.00000000000E+00 -0.97869445546E+03  0.97869445546E+03  0.00000000000E+00 0.  1.
         21    1    1    2  503  501  0.79930446208E+01  0.10771604397E+03 -0.14906765654E+03  0.18408639579E+03  0.00000000000E+00 0. -1.
          4    1    1    2  501    0 -0.79930446208E+01 -0.10771604397E+03 -0.80852600444E+03  0.81570885415E+03  0.00000000000E+00 0.  1.
<mgrwt>
<rscale>  2 0.10801220E+03</rscale>
<asrwt>0</asrwt>
<pdfrwt beam="1">  1       21 0.32462755E-02 0.10801220E+03</pdfrwt>
<pdfrwt beam="2">  1        4 0.15056840E+00 0.10801220E+03</pdfrwt>
<totfact> 0.70320694E+03</totfact>
</mgrwt>
</event>
<event>
 4    1  0.5045766E+003  0.1118277E+03  0.7546771E-02  0.1257222E+00
         21   -1    0    0  501  502  0.00000000000E+00  0.00000000000E+00  0.19143394659E+03  0.19143394659E+03  0.00000000000E+00 0. -1.
         -1   -1    0    0    0  501 -0.00000000000E+00 -0.00000000000E+00 -0.66020705604E+02  0.66020705604E+02  0.00000000000E+00 0. -1.
         21    1    1    2  503  502 -0.11359115254E+02 -0.11124933355E+03  0.75919848361E+02  0.13516385275E+03  0.00000000000E+00 0. -1.
         -1    1    1    2    0  503  0.11359115254E+02  0.11124933355E+03  0.49493392622E+02  0.12229079944E+03  0.00000000000E+00 0. -1.
<mgrwt>
<rscale>  2 0.11182774E+03</rscale>
<asrwt>0</asrwt>
<pdfrwt beam="1">  1       21 0.29451376E-01 0.11182774E+03</pdfrwt>
<pdfrwt beam="2">  1       -1 0.10157032E-01 0.11182774E+03</pdfrwt>
<totfact> 0.57746035E+04</totfact>
</mgrwt>
</event>
<event>
 4    1  0.5045766E+003  0.1421331E+03  0.7546771E-02  0.1210487E+00
         21   -1    0    0  501  502  0.00000000000E+00  0.00000000000E+00  0.23365355837E+03  0.23365355837E+03  0.00000000000E+00 0.  1.
          1   -1    0    0  503    0 -0.00000000000E+00 -0.00000000000E+00 -0.24211084348E+04  0.24211084348E+04  0.00000000000E+00 0. -1.
         21    1    1    2  503  502  0.13481551962E+03 -0.45017708861E+02  0.20973694456E+03  0.25336022647E+03  0.00000000000E+00 0.  1.
          1    1    1    2  501    0 -0.13481551962E+03  0.45017708861E+02 -0.23971918210E+04  0.24014017667E+04  0.00000000000E+00 0. -1.
<mgrwt>
<rscale>  2 0.14213310E+03</rscale>
<asrwt>0</asrwt>
<pdfrwt beam="1">  1       21 0.35946702E-01 0.14213310E+03</pdfrwt>
<pdfrwt beam="2">  1        1 0.37247821E+00 0.14213310E+03</pdfrwt>
<totfact> 0.16218334E+02</totfact>
</mgrwt>
</event>
<event>
 4    1  0.5045766E+003  0.1069714E+03  0.7546771E-02  0.1266283E+00
          2   -1    0    0  503    0 -0.00000000000E+00  0.00000000000E+00  0.89206425949E+03  0.89206425949E+03  0.00000000000E+00 0.  1.
         21   -1    0    0  501  502  0.00000000000E+00 -0.00000000000E+00 -0.42196683804E+02  0.42196683804E+02  0.00000000000E+00 0. -1.
         21    1    1    2  503  502  0.10482407993E+03 -0.21326076365E+02  0.35220230124E+02  0.11262039725E+03  0.00000000000E+00 0. -1.
          2    1    1    2  501    0 -0.10482407993E+03  0.21326076365E+02  0.81464734556E+03  0.82164054604E+03  0.00000000000E+00 0.  1.
<mgrwt>
<rscale>  2 0.10697144E+03</rscale>
<asrwt>0</asrwt>
<pdfrwt beam="2">  1       21 0.64917982E-02 0.10697144E+03</pdfrwt>
<pdfrwt beam="1">  1        2 0.13724064E+00 0.10697144E+03</pdfrwt>
<totfact> 0.67149587E+04</totfact>
</mgrwt>
</event>
<event>
 4    1  0.5045766E+003  0.1776991E+03  0.7546771E-02  0.1170049E+00
         21   -1    0    0  503  502  0.00000000000E+00  0.00000000000E+00  0.20807927082E+02  0.20807927082E+02  0.00000000000E+00 0. -1.
         -3   -1    0    0    0  501 -0.00000000000E+00 -0.00000000000E+00 -0.20458001502E+04  0.20458001502E+04  0.00000000000E+00 0.  1.
         21    1    1    2  503  501  0.46515251438E+02 -0.17150309889E+03 -0.48742505340E+03  0.51880648052E+03  0.00000000000E+00 0. -1.
         -3    1    1    2    0  502 -0.46515251438E+02  0.17150309889E+03 -0.15375671697E+04  0.15478015968E+04  0.00000000000E+00 0.  1.
<mgrwt>
<rscale>  2 0.17769913E+03</rscale>
<asrwt>0</asrwt>
<pdfrwt beam="1">  1       21 0.32012198E-02 0.17769913E+03</pdfrwt>
<pdfrwt beam="2">  1       -3 0.31473846E+00 0.17769913E+03</pdfrwt>
<totfact> 0.10492686E+03</totfact>
</mgrwt>
</event>
<event>
 4    1  0.5045766E+003  0.1006902E+03  0.7546771E-02  0.1278851E+00
         -3   -1    0    0    0  501 -0.00000000000E+00  0.00000000000E+00  0.12653674675E+04  0.12653674675E+04  0.00000000000E+00 0.  1.
         21   -1    0    0  503  502  0.00000000000E+00 -0.00000000000E+00 -0.80682376205E+01  0.80682376205E+01  0.00000000000E+00 0.  1.
         21    1    1    2  503  501 -0.41155809216E+02  0.91895093355E+02  0.68166405404E+03  0.68906051358E+03  0.00000000000E+00 0.  1.
         -3    1    1    2    0  502  0.41155809216E+02 -0.91895093355E+02  0.57563517580E+03  0.58437519150E+03  0.00000000000E+00 0.  1.
<mgrwt>
<rscale>  2 0.10069016E+03</rscale>
<asrwt>0</asrwt>
<pdfrwt beam="2">  1       21 0.12412683E-02 0.10069016E+03</pdfrwt>
<pdfrwt beam="1">  1       -3 0.19467176E+00 0.10069016E+03</pdfrwt>
<totfact> 0.21672730E+04</totfact>
</mgrwt>
</event>
<event>
 4    1  0.5045766E+003  0.1079643E+03  0.7546771E-02  0.1264387E+00
          2   -1    0    0  502    0 -0.00000000000E+00  0.00000000000E+00  0.38621071456E+04  0.38621071456E+04  0.00000000000E+00 0.  1.
         21   -1    0    0  503  502  0.00000000000E+00 -0.00000000000E+00 -0.49247059570E+01  0.49247059570E+01  0.00000000000E+00 0. -1.
         21    1    1    2  503  501  0.84268254747E+02 -0.67491841093E+02  0.72553408909E+03  0.73352300701E+03  0.00000000000E+00 0. -1.
          2    1    1    2  501    0 -0.84268254747E+02  0.67491841093E+02  0.31316483505E+04  0.31335088445E+04  0.00000000000E+00 0.  1.
<mgrwt>
<rscale>  2 0.10796429E+03</rscale>
<asrwt>0</asrwt>
<pdfrwt beam="2">  1       21 0.75765016E-03 0.10796429E+03</pdfrwt>
<pdfrwt beam="1">  1        2 0.59416791E+00 0.10796429E+03</pdfrwt>
<totfact> 0.46193619E+04</totfact>
</mgrwt>
</event>
<event>
 4    1  0.5045766E+003  0.1019341E+03  0.7546771E-02  0.1276281E+00
          2   -1    0    0  503    0 -0.00000000000E+00  0.00000000000E+00  0.16132883817E+03  0.16132883817E+03  0.00000000000E+00 0.  1.
         21   -1    0    0  501  502  0.00000000000E+00 -0.00000000000E+00 -0.11168601749E+03  0.11168601749E+03  0.00000000000E+00 0. -1.
         21    1    1    2  503  502 -0.31626531521E+02  0.96903671904E+02 -0.63995425556E+02  0.12035769031E+03  0.00000000000E+00 0. -1.
          2    1    1    2  501    0  0.31626531521E+02 -0.96903671904E+02  0.11363824624E+03  0.15265716535E+03  0.00000000000E+00 0.  1.
<mgrwt>
<rscale>  2 0.10193409E+03</rscale>
<asrwt>0</asrwt>
<pdfrwt beam="2">  1       21 0.17182464E-01 0.10193409E+03</pdfrwt>
<pdfrwt beam="1">  1        2 0.24819821E-01 0.10193409E+03</pdfrwt>
<totfact> 0.80093214E+04</totfact>
</mgrwt>
</event>
<event>
 4    1  0.5045766E+003  0.1023862E+03  0.7546771E-02  0.1275357E+00
         21   -1    0    0  501  502  0.00000000000E+00  0.00000000000E+00  0.14273022243E+03  0.14273022243E+03  0.00000000000E+00 0.  1.
          2   -1    0    0  503    0 -0.00000000000E+00 -0.00000000000E+00 -0.14990050975E+03  0.14990050975E+03  0.00000000000E+00 0. -1.
         21    1    1    2  503  502  0.39755897329E+02  0.94352516651E+02  0.10090868372E+03  0.14375496938E+03  0.00000000000E+00 0.  1.
          2    1    1    2  501    0 -0.39755897329E+02 -0.94352516651E+02 -0.10807897104E+03  0.14887576281E+03  0.00000000000E+00 0. -1.
<mgrwt>
<rscale>  2 0.10238617E+03</rscale>
<asrwt>0</asrwt>
<pdfrwt beam="1">  1       21 0.21958496E-01 0.10238617E+03</pdfrwt>
<pdfrwt beam="2">  1        2 0.23061617E-01 0.10238617E+03</pdfrwt>
<totfact> 0.55404433E+04</totfact>
</mgrwt>
</event>
<event>
 4    1  0.5045766E+003  0.1639003E+03  0.7546771E-02  0.1184362E+00
          2   -1    0    0  502    0 -0.00000000000E+00  0.00000000000E+00  0.16852333411E+04  0.16852333411E+04  0.00000000000E+00 0.  1.
         21   -1    0    0  503  502  0.00000000000E+00 -0.00000000000E+00 -0.63126651287E+02  0.63126651287E+02  0.00000000000E+00 0.  1.
         21    1    1    2  503  501  0.15437858036E+03 -0.55050457006E+02  0.55261481759E+02  0.17296569098E+03  0.00000000000E+00 0.  1.
          2    1    1    2  501    0 -0.15437858036E+03  0.55050457006E+02  0.15668452081E+04  0.15753943014E+04  0.00000000000E+00 0.  1.
<mgrwt>
<rscale>  2 0.16390027E+03</rscale>
<asrwt>0</asrwt>
<pdfrwt beam="2">  1       21 0.97117938E-02 0.16390027E+03</pdfrwt>
<pdfrwt beam="1">  1        2 0.25926663E+00 0.16390027E+03</pdfrwt>
<totfact> 0.12124927E+04</totfact>
</mgrwt>
</event>
<event>
 4    1  0.5045766E+003  0.1117434E+03  0.7546771E-02  0.1257375E+00
         -1   -1    0    0    0  501 -0.00000000000E+00  0.00000000000E+00  0.11393162195E+04  0.11393162195E+04  0.00000000000E+00 0.  1.
         21   -1    0    0  501  502  0.00000000000E+00 -0.00000000000E+00 -0.39885983390E+02  0.39885983390E+02  0.00000000000E+00 0.  1.
         21    1    1    2  503  502  0.11056379518E+03 -0.16193753369E+02  0.47610428082E+02  0.12146334144E+03  0.00000000000E+00 0.  1.
         -1    1    1    2    0  503 -0.11056379518E+03  0.16193753369E+02  0.10518198080E+04  0.10577388614E+04  0.00000000000E+00 0.  1.
<mgrwt>
<rscale>  2 0.11174341E+03</rscale>
<asrwt>0</asrwt>
<pdfrwt beam="2">  1       21 0.61363060E-02 0.11174341E+03</pdfrwt>
<pdfrwt beam="1">  1       -1 0.17527939E+00 0.11174341E+03</pdfrwt>
<totfact> 0.45225980E+03</totfact>
</mgrwt>
</event>
<event>
 4    1  0.5045766E+003  0.1408309E+03  0.7546771E-02  0.1212215E+00
         -2   -1    0    0    0  501 -0.00000000000E+00  0.00000000000E+00  0.42012072844E+03  0.42012072844E+03  0.00000000000E+00 0.  1.
         21   -1    0    0  503  502  0.00000000000E+00 -0.00000000000E+00 -0.23406507701E+03  0.23406507701E+03  0.00000000000E+00 0. -1.
         21    1    1    2  503  501  0.56749018905E+02 -0.12889096831E+03 -0.19922372843E+03  0.24397423394E+03  0.00000000000E+00 0. -1.
         -2    1    1    2    0  502 -0.56749018905E+02  0.12889096831E+03  0.38527937985E+03  0.41021157151E+03  0.00000000000E+00 0.  1.
<mgrwt>
<rscale>  2 0.14083087E+03</rscale>
<asrwt>0</asrwt>
<pdfrwt beam="2">  1       21 0.36010012E-01 0.14083087E+03</pdfrwt>
<pdfrwt beam="1">  1       -2 0.64633958E-01 0.14083087E+03</pdfrwt>
<totfact> 0.13927067E+03</totfact>
</mgrwt>
</event>
<event>
 4    1  0.5045766E+003  0.1241593E+03  0.7546771E-02  0.1236389E+00
         21   -1    0    0  501  502  0.00000000000E+00  0.00000000000E+00  0.92828798068E+02  0.92828798068E+02  0.00000000000E+00 0.  1.
          1   -1    0    0  503    0 -0.00000000000E+00 -0.00000000000E+00 -0.29728778304E+03  0.29728778304E+03  0.00000000000E+00 0. -1.
         21    1    1    2  503  502 -0.10592861956E+03 -0.64766248328E+02  0.27363596403E+02  0.12713892312E+03  0.00000000000E+00 0.  1.
          1    1    1    2  501    0  0.10592861956E+03  0.64766248328E+02 -0.23182258138E+03  0.26297765799E+03  0.00000000000E+00 0. -1.
<mgrwt>
<rscale>  2 0.12415933E+03</rscale>
<asrwt>0</asrwt>
<pdfrwt beam="1">  1       21 0.14281354E-01 0.12415933E+03</pdfrwt>
<pdfrwt beam="2">  1        1 0.45736582E-01 0.12415933E+03</pdfrwt>
<totfact> 0.41456451E+04</totfact>
</mgrwt>
</event>
<event>
 4    1  0.5045766E+003  0.1309983E+03  0.7546771E-02  0.1225982E+00
         21   -1    0    0  503  502  0.00000000000E+00  0.00000000000E+00  0.11980726812E+03  0.11980726812E+03  0.00000000000E+00 0.  1.
         -2   -1    0    0    0  501 -0.00000000000E+00 -0.00000000000E+00 -0.62146122341E+03  0.62146122341E+03  0.00000000000E+00 0.  1.
         21    1    1    2  503  501  0.67990549726E+01 -0.13082171871E+03  0.74301784166E+02  0.15060313531E+03  0.00000000000E+00 0.  1.
         -2    1    1    2    0  502 -0.67990549726E+01  0.13082171871E+03 -0.57595573945E+03  0.59066535622E+03  0.00000000000E+00 0.  1.
<mgrwt>
<rscale>  2 0.13099828E+03</rscale>
<asrwt>0</asrwt>
<pdfrwt beam="1">  1       21 0.18431887E-01 0.13099828E+03</pdfrwt>
<pdfrwt beam="2">  1       -2 0.95609420E-01 0.13099828E+03</pdfrwt>
<totfact> 0.21248929E+03</totfact>
</mgrwt>
</event>
<event>
 4    1  0.5045766E+003  0.1088149E+03  0.7546771E-02  0.1262780E+00
         21   -1    0    0  503  502  0.00000000000E+00  0.00000000000E+00  0.26543159323E+02  0.26543159323E+02  0.00000000000E+00 0.  1.
         -1   -1    0    0    0  501 -0.00000000000E+00 -0.00000000000E+00 -0.69904692764E+03  0.69904692764E+03  0.00000000000E+00 0.  1.
         21    1    1    2  503  501 -0.10181877730E+02 -0.10833749534E+03 -0.11801407461E+03  0.16052415811E+03  0.00000000000E+00 0.  1.
         -1    1    1    2    0  502  0.10181877730E+02  0.10833749534E+03 -0.55448969370E+03  0.56506592886E+03  0.00000000000E+00 0.  1.
<mgrwt>
<rscale>  2 0.10881490E+03</rscale>
<asrwt>0</asrwt>
<pdfrwt beam="1">  1       21 0.40835634E-02 0.10881490E+03</pdfrwt>
<pdfrwt beam="2">  1       -1 0.10754567E+00 0.10881490E+03</pdfrwt>
<totfact> 0.30130723E+04</totfact>
</mgrwt>
</event>
<event>
 4    1  0.5045766E+003  0.1018539E+03  0.7546771E-02  0.1276445E+00
          1   -1    0    0  503    0 -0.00000000000E+00  0.00000000000E+00  0.29715267859E+03  0.29715267859E+03  0.00000000000E+00 0. -1.
         21   -1    0    0  501  502  0.00000000000E+00 -0.00000000000E+00 -0.37378057340E+02  0.37378057340E+02  0.00000000000E+00 0.  1.
         21    1    1    2  503  502  0.42316813414E+02  0.92647186170E+02  0.86924421600E+02  0.13390320711E+03  0.00000000000E+00 0.  1.
          1    1    1    2  501    0 -0.42316813414E+02 -0.92647186170E+02  0.17285019965E+03  0.20062752882E+03  0.00000000000E+00 0. -1.
<mgrwt>
<rscale>  2 0.10185388E+03</rscale>
<asrwt>0</asrwt>
<pdfrwt beam="2">  1       21 0.57504706E-02 0.10185388E+03</pdfrwt>
<pdfrwt beam="1">  1        1 0.45715795E-01 0.10185388E+03</pdfrwt>
<totfact> 0.19939575E+05</totfact>
</mgrwt>
</event>
<event>
 4    1  0.5045766E+003  0.1423631E+03  0.7546771E-02  0.1210184E+00
         21   -1    0    0  501  502  0.00000000000E+00  0.00000000000E+00  0.14048220874E+02  0.14048220874E+02  0.00000000000E+00 0.  1.
          2   -1    0    0  503    0 -0.00000000000E+00 -0.00000000000E+00 -0.15447550567E+04  0.15447550567E+04  0.00000000000E+00 0. -1.
         21    1    1    2  503  502 -0.45133771033E+02 -0.13501927057E+03 -0.56501462458E+03  0.58267382531E+03  0.00000000000E+00 0.  1.
          2    1    1    2  501    0  0.45133771033E+02  0.13501927057E+03 -0.96569221122E+03  0.97612945224E+03  0.00000000000E+00 0. -1.
<mgrwt>
<rscale>  2 0.14236313E+03</rscale>
<asrwt>0</asrwt>
<pdfrwt beam="1">  1       21 0.21612648E-02 0.14236313E+03</pdfrwt>
<pdfrwt beam="2">  1        2 0.23765461E+00 0.14236313E+03</pdfrwt>
<totfact> 0.18026875E+05</totfact>
</mgrwt>
</event>
<event>
 4    1  0.5045766E+003  0.1035964E+03  0.7546771E-02  0.1272910E+00
          2   -1    0    0  503    0 -0.00000000000E+00  0.00000000000E+00  0.69636543418E+03  0.69636543418E+03  0.00000000000E+00 0.  1.
         21   -1    0    0  501  502  0.00000000000E+00 -0.00000000000E+00 -0.17206792108E+02  0.17206792108E+02  0.00000000000E+00 0. -1.
         21    1    1    2  503  502 -0.65827997043E+02 -0.79993023536E+02  0.22434138384E+03  0.24710577798E+03  0.00000000000E+00 0. -1.
          2    1    1    2  501    0  0.65827997043E+02  0.79993023536E+02  0.45481725823E+03  0.46646644830E+03  0.00000000000E+00 0.  1.
<mgrwt>
<rscale>  2 0.10359638E+03</rscale>
<asrwt>0</asrwt>
<pdfrwt beam="2">  1       21 0.26471993E-02 0.10359638E+03</pdfrwt>
<pdfrwt beam="1">  1        2 0.10713312E+00 0.10359638E+03</pdfrwt>
<totfact> 0.40156063E+05</totfact>
</mgrwt>
</event>
<event>
 4    1  0.5045766E+003  0.1030452E+03  0.7546771E-02  0.1274020E+00
         -1   -1    0    0    0  501 -0.00000000000E+00  0.00000000000E+00  0.40378387012E+02  0.40378387012E+02  0.00000000000E+00 0. -1.
         21   -1    0    0  501  502  0.00000000000E+00 -0.00000000000E+00 -0.41180020142E+03  0.41180020142E+03  0.00000000000E+00 0.  1.
         21    1    1    2  503  502  0.83010432846E+02  0.61053879285E+02 -0.32163051781E+03  0.33773436030E+03  0.00000000000E+00 0.  1.
         -1    1    1    2    0  503 -0.83010432846E+02 -0.61053879285E+02 -0.49791296599E+02  0.11444422814E+03  0.00000000000E+00 0. -1.
<mgrwt>
<rscale>  2 0.10304518E+03</rscale>
<asrwt>0</asrwt>
<pdfrwt beam="2">  1       21 0.63353875E-01 0.10304518E+03</pdfrwt>
<pdfrwt beam="1">  1       -1 0.62120597E-02 0.10304518E+03</pdfrwt>
<totfact> 0.25737704E+04</totfact>
</mgrwt>
</event>
<event>
 4    1  0.5045766E+003  0.1165127E+03  0.7546771E-02  0.1248963E+00
         21   -1    0    0  503  502  0.00000000000E+00  0.00000000000E+00  0.47767232369E+03  0.47767232369E+03  0.00000000000E+00 0.  1.
          1   -1    0    0  502    0 -0.00000000000E+00 -0.00000000000E+00 -0.81340925851E+03  0.81340925851E+03  0.00000000000E+00 0. -1.
         21    1    1    2  503  501  0.11467307487E+03 -0.20622724081E+02  0.46629486667E+03  0.48063095357E+03  0.00000000000E+00 0.  1.
          1    1    1    2  501    0 -0.11467307487E+03  0.20622724081E+02 -0.80203180149E+03  0.81045062863E+03  0.00000000000E+00 0. -1.
<mgrwt>
<rscale>  2 0.11651271E+03</rscale>
<asrwt>0</asrwt>
<pdfrwt beam="1">  1       21 0.73488051E-01 0.11651271E+03</pdfrwt>
<pdfrwt beam="2">  1        1 0.12513988E+00 0.11651271E+03</pdfrwt>
<totfact> 0.44506594E+02</totfact>
</mgrwt>
</event>
<event>
 4    1  0.5045766E+003  0.1068896E+03  0.7546771E-02  0.1266441E+00
          1   -1    0    0  502    0 -0.00000000000E+00  0.00000000000E+00  0.22269731895E+03  0.22269731895E+03  0.00000000000E+00 0.  1.
         21   -1    0    0  503  502  0.00000000000E+00 -0.00000000000E+00 -0.33785835839E+03  0.33785835839E+03  0.00000000000E+00 0. -1.
         21    1    1    2  503  501 -0.10366393253E+03  0.26061129516E+02 -0.31570220527E+03  0.33330657928E+03  0.00000000000E+00 0. -1.
          1    1    1    2  501    0  0.10366393253E+03 -0.26061129516E+02  0.20054116583E+03  0.22724909806E+03  0.00000000000E+00 0.  1.
<mgrwt>
<rscale>  2 0.10688963E+03</rscale>
<asrwt>0</asrwt>
<pdfrwt beam="2">  1       21 0.51978209E-01 0.10688963E+03</pdfrwt>
<pdfrwt beam="1">  1        1 0.34261126E-01 0.10688963E+03</pdfrwt>
<totfact> 0.50204291E+03</totfact>
</mgrwt>
</event>
<event>
 4    1  0.5045766E+003  0.1080712E+03  0.7546771E-02  0.1264184E+00
         21   -1    0    0  501  502  0.00000000000E+00  0.00000000000E+00  0.15346454990E+03  0.15346454990E+03  0.00000000000E+00 0. -1.
          1   -1    0    0  503    0 -0.00000000000E+00 -0.00000000000E+00 -0.33218050460E+03  0.33218050460E+03  0.00000000000E+00 0. -1.
         21    1    1    2  503  502  0.10409270745E+03  0.29053236300E+02  0.12384149682E+03  0.16436574649E+03  0.00000000000E+00 0. -1.
          1    1    1    2  501    0 -0.10409270745E+03 -0.29053236300E+02 -0.30255745152E+03  0.32127930801E+03  0.00000000000E+00 0. -1.
<mgrwt>
<rscale>  2 0.10807119E+03</rscale>
<asrwt>0</asrwt>
<pdfrwt beam="1">  1       21 0.23609931E-01 0.10807119E+03</pdfrwt>
<pdfrwt beam="2">  1        1 0.51104693E-01 0.10807119E+03</pdfrwt>
<totfact> 0.14411932E+04</totfact>
</mgrwt>
</event>
<event>
 4    1  0.5045766E+003  0.1334056E+03  0.7546771E-02  0.1222488E+00
         -1   -1    0    0    0  501 -0.00000000000E+00  0.00000000000E+00  0.34802023672E+03  0.34802023672E+03  0.00000000000E+00 0.  1.
         21   -1    0    0  503  502  0.00000000000E+00 -0.00000000000E+00 -0.31720922780E+03  0.31720922780E+03  0.00000000000E+00 0.  1.
         21    1    1    2  503  501 -0.27061518033E+02  0.13063207722E+03 -0.28922088035E+03  0.31850554625E+03  0.00000000000E+00 0.  1.
         -1    1    1    2    0  502  0.27061518033E+02 -0.13063207722E+03  0.32003188927E+03  0.34672391828E+03  0.00000000000E+00 0.  1.
<mgrwt>
<rscale>  2 0.13340564E+03</rscale>
<asrwt>0</asrwt>
<pdfrwt beam="2">  1       21 0.48801419E-01 0.13340564E+03</pdfrwt>
<pdfrwt beam="1">  1       -1 0.53541575E-01 0.13340564E+03</pdfrwt>
<totfact> 0.13741603E+03</totfact>
</mgrwt>
</event>
<event>
 4    1  0.5045766E+003  0.1554747E+03  0.7546771E-02  0.1193903E+00
          2   -1    0    0  503    0 -0.00000000000E+00  0.00000000000E+00  0.57098295549E+02  0.57098295549E+02  0.00000000000E+00 0.  1.
         21   -1    0    0  501  502  0.00000000000E+00 -0.00000000000E+00 -0.16123419484E+04  0.16123419484E+04  0.00000000000E+00 0. -1.
         21    1    1    2  503  502 -0.12692608653E+03  0.89789565369E+02 -0.14944289189E+04  0.15024946559E+04  0.00000000000E+00 0. -1.
          2    1    1    2  501    0  0.12692608653E+03 -0.89789565369E+02 -0.60814733957E+02  0.16694558801E+03  0.00000000000E+00 0.  1.
<mgrwt>
<rscale>  2 0.15547475E+03</rscale>
<asrwt>0</asrwt>
<pdfrwt beam="2">  1       21 0.24805260E+00 0.15547475E+03</pdfrwt>
<pdfrwt beam="1">  1        2 0.87843535E-02 0.15547475E+03</pdfrwt>
<totfact> 0.64274749E+02</totfact>
</mgrwt>
</event>
<event>
 4    1  0.5045766E+003  0.1155618E+03  0.7546771E-02  0.1250604E+00
          3   -1    0    0  502    0 -0.00000000000E+00  0.00000000000E+00  0.48620535606E+03  0.48620535606E+03  0.00000000000E+00 0. -1.
         21   -1    0    0  503  502  0.00000000000E+00 -0.00000000000E+00 -0.16279266492E+03  0.16279266492E+03  0.00000000000E+00 0. -1.
         21    1    1    2  503  501 -0.11519793328E+03  0.91631710167E+01 -0.13415368160E+03  0.17706421949E+03  0.00000000000E+00 0. -1.
          3    1    1    2  501    0  0.11519793328E+03 -0.91631710167E+01  0.45756637273E+03  0.47193380149E+03  0.00000000000E+00 0. -1.
<mgrwt>
<rscale>  2 0.11556179E+03</rscale>
<asrwt>0</asrwt>
<pdfrwt beam="2">  1       21 0.25045026E-01 0.11556179E+03</pdfrwt>
<pdfrwt beam="1">  1        3 0.74800824E-01 0.11556179E+03</pdfrwt>
<totfact> 0.12851340E+03</totfact>
</mgrwt>
</event>
<event>
 4    1  0.5045766E+003  0.1017433E+03  0.7546771E-02  0.1276672E+00
         21   -1    0    0  503  502  0.00000000000E+00  0.00000000000E+00  0.10856161650E+02  0.10856161650E+02  0.00000000000E+00 0. -1.
          2   -1    0    0  502    0 -0.00000000000E+00 -0.00000000000E+00 -0.96888452479E+03  0.96888452479E+03  0.00000000000E+00 0. -1.
         21    1    1    2  503  501 -0.34585856145E+01 -0.10168451388E+03 -0.41735056569E+03  0.42957327298E+03  0.00000000000E+00 0. -1.
          2    1    1    2  501    0  0.34585856145E+01  0.10168451388E+03 -0.54067779745E+03  0.55016741346E+03  0.00000000000E+00 0. -1.
<mgrwt>
<rscale>  2 0.10174332E+03</rscale>
<asrwt>0</asrwt>
<pdfrwt beam="1">  1       21 0.16701784E-02 0.10174332E+03</pdfrwt>
<pdfrwt beam="2">  1        2 0.14905919E+00 0.10174332E+03</pdfrwt>
<totfact> 0.55757068E+05</totfact>
</mgrwt>
</event>
<event>
 4    1  0.5045766E+003  0.1033039E+03  0.7546771E-02  0.1273498E+00
          2   -1    0    0  503    0 -0.00000000000E+00  0.00000000000E+00  0.97266463050E+03  0.97266463050E+03  0.00000000000E+00 0. -1.
         21   -1    0    0  501  502  0.00000000000E+00 -0.00000000000E+00 -0.14894860501E+02  0.14894860501E+02  0.00000000000E+00 0. -1.
         21    1    1    2  503  502 -0.45847137311E+02 -0.92572904931E+02  0.22546671864E+03  0.24800593529E+03  0.00000000000E+00 0. -1.
          2    1    1    2  501    0  0.45847137311E+02  0.92572904931E+02  0.73230305136E+03  0.73955355571E+03  0.00000000000E+00 0. -1.
<mgrwt>
<rscale>  2 0.10330393E+03</rscale>
<asrwt>0</asrwt>
<pdfrwt beam="2">  1       21 0.22915178E-02 0.10330393E+03</pdfrwt>
<pdfrwt beam="1">  1        2 0.14964066E+00 0.10330393E+03</pdfrwt>
<totfact> 0.33429907E+05</totfact>
</mgrwt>
</event>
<event>
 4    1  0.5045766E+003  0.1358949E+03  0.7546771E-02  0.1218962E+00
          1   -1    0    0  503    0 -0.00000000000E+00  0.00000000000E+00  0.59504248725E+03  0.59504248725E+03  0.00000000000E+00 0. -1.
         21   -1    0    0  501  502  0.00000000000E+00 -0.00000000000E+00 -0.47668923474E+02  0.47668923474E+02  0.00000000000E+00 0. -1.
         21    1    1    2  503  502 -0.10912588931E+03 -0.80987436941E+02  0.83859108059E+02  0.15968648868E+03  0.00000000000E+00 0. -1.
          1    1    1    2  501    0  0.10912588931E+03  0.80987436941E+02  0.46351445572E+03  0.48302492205E+03  0.00000000000E+00 0. -1.
<mgrwt>
<rscale>  2 0.13589490E+03</rscale>
<asrwt>0</asrwt>
<pdfrwt beam="2">  1       21 0.73336810E-02 0.13589490E+03</pdfrwt>
<pdfrwt beam="1">  1        1 0.91544993E-01 0.13589490E+03</pdfrwt>
<totfact> 0.55063191E+04</totfact>
</mgrwt>
</event>
<event>
 4    1  0.5045766E+003  0.1294356E+03  0.7546771E-02  0.1228296E+00
         21   -1    0    0  503  502  0.00000000000E+00  0.00000000000E+00  0.14574541786E+03  0.14574541786E+03  0.00000000000E+00 0. -1.
          2   -1    0    0  502    0 -0.00000000000E+00 -0.00000000000E+00 -0.43942829574E+03  0.43942829574E+03  0.00000000000E+00 0.  1.
         21    1    1    2  503  501  0.58981549228E+02  0.11521615329E+03  0.10458036869E+03  0.16640504392E+03  0.00000000000E+00 0. -1.
          2    1    1    2  501    0 -0.58981549228E+02 -0.11521615329E+03 -0.39826324657E+03  0.41876866967E+03  0.00000000000E+00 0.  1.
<mgrwt>
<rscale>  2 0.12943564E+03</rscale>
<asrwt>0</asrwt>
<pdfrwt beam="1">  1       21 0.22422373E-01 0.12943564E+03</pdfrwt>
<pdfrwt beam="2">  1        2 0.67604351E-01 0.12943564E+03</pdfrwt>
<totfact> 0.16900156E+04</totfact>
</mgrwt>
</event>
<event>
 4    1  0.5045766E+003  0.1179852E+03  0.7546771E-02  0.1246458E+00
         21   -1    0    0  501  502  0.00000000000E+00  0.00000000000E+00  0.89376232755E+02  0.89376232755E+02  0.00000000000E+00 0. -1.
          1   -1    0    0  503    0 -0.00000000000E+00 -0.00000000000E+00 -0.17083323852E+03  0.17083323852E+03  0.00000000000E+00 0.  1.
         21    1    1    2  503  502  0.16797660787E+02  0.11678331280E+03 -0.20714092460E+01  0.11800336560E+03  0.00000000000E+00 0. -1.
          1    1    1    2  501    0 -0.16797660787E+02 -0.11678331280E+03 -0.79385596521E+02  0.14220610568E+03  0.00000000000E+00 0.  1.
<mgrwt>
<rscale>  2 0.11798518E+03</rscale>
<asrwt>0</asrwt>
<pdfrwt beam="1">  1       21 0.13750190E-01 0.11798518E+03</pdfrwt>
<pdfrwt beam="2">  1        1 0.26282037E-01 0.11798518E+03</pdfrwt>
<totfact> 0.87875495E+04</totfact>
</mgrwt>
</event>
<event>
 4    1  0.5045766E+003  0.1125786E+03  0.7546771E-02  0.1255868E+00
          2   -1    0    0  502    0 -0.00000000000E+00  0.00000000000E+00  0.59336655414E+03  0.59336655414E+03  0.00000000000E+00 0.  1.
         21   -1    0    0  503  502  0.00000000000E+00 -0.00000000000E+00 -0.12109486874E+03  0.12109486874E+03  0.00000000000E+00 0.  1.
         21    1    1    2  503  501  0.72761097936E+02  0.85905531304E+02 -0.88062501926E+02  0.14292984967E+03  0.00000000000E+00 0.  1.
          2    1    1    2  501    0 -0.72761097936E+02 -0.85905531304E+02  0.56033418733E+03  0.57153157320E+03  0.00000000000E+00 0.  1.
<mgrwt>
<rscale>  2 0.11257858E+03</rscale>
<asrwt>0</asrwt>
<pdfrwt beam="2">  1       21 0.18629980E-01 0.11257858E+03</pdfrwt>
<pdfrwt beam="1">  1        2 0.91287161E-01 0.11257858E+03</pdfrwt>
<totfact> 0.17165537E+04</totfact>
</mgrwt>
</event>
<event>
 4    1  0.5045766E+003  0.1042880E+03  0.7546771E-02  0.1271529E+00
         -2   -1    0    0    0  501 -0.00000000000E+00  0.00000000000E+00  0.83563238059E+02  0.83563238059E+02  0.00000000000E+00 0.  1.
         21   -1    0    0  501  502  0.00000000000E+00 -0.00000000000E+00 -0.33730052475E+03  0.33730052475E+03  0.00000000000E+00 0. -1.
         21    1    1    2  503  502  0.85736038568E+02  0.59374348084E+02 -0.29177720828E+03  0.30985467689E+03  0.00000000000E+00 0. -1.
         -2    1    1    2    0  503 -0.85736038568E+02 -0.59374348084E+02  0.38039921596E+02  0.11100908591E+03  0.00000000000E+00 0.  1.
<mgrwt>
<rscale>  2 0.10428797E+03</rscale>
<asrwt>0</asrwt>
<pdfrwt beam="2">  1       21 0.51892389E-01 0.10428797E+03</pdfrwt>
<pdfrwt beam="1">  1       -2 0.12855883E-01 0.10428797E+03</pdfrwt>
<totfact> 0.12323968E+04</totfact>
</mgrwt>
</event>
<event>
 4    1  0.5045766E+003  0.1919630E+03  0.7546771E-02  0.1156703E+00
         21   -1    0    0  501  502  0.00000000000E+00  0.00000000000E+00  0.68020638413E+03  0.68020638413E+03  0.00000000000E+00 0. -1.
          2   -1    0    0  503    0 -0.00000000000E+00 -0.00000000000E+00 -0.36583001833E+03  0.36583001833E+03  0.00000000000E+00 0.  1.
         21    1    1    2  503  502 -0.79868573361E+02  0.17455883165E+03  0.63992965621E+03  0.66810159378E+03  0.00000000000E+00 0. -1.
          2    1    1    2  501    0  0.79868573361E+02 -0.17455883165E+03 -0.32555329041E+03  0.37793480868E+03  0.00000000000E+00 0.  1.
<mgrwt>
<rscale>  2 0.19196295E+03</rscale>
<asrwt>0</asrwt>
<pdfrwt beam="1">  1       21 0.10464714E+00 0.19196295E+03</pdfrwt>
<pdfrwt beam="2">  1        2 0.56281541E-01 0.19196295E+03</pdfrwt>
<totfact> 0.80761585E+02</totfact>
</mgrwt>
</event>
<event>
 4    1  0.5045766E+003  0.1493106E+03  0.7546771E-02  0.1201323E+00
          2   -1    0    0  502    0 -0.00000000000E+00  0.00000000000E+00  0.13523805436E+04  0.13523805436E+04  0.00000000000E+00 0. -1.
         21   -1    0    0  503  502  0.00000000000E+00 -0.00000000000E+00 -0.11770740369E+03  0.11770740369E+03  0.00000000000E+00 0.  1.
         21    1    1    2  503  501  0.14927663584E+03  0.31839758111E+01 -0.64295940544E+02  0.16256573957E+03  0.00000000000E+00 0.  1.
          2    1    1    2  501    0 -0.14927663584E+03 -0.31839758111E+01  0.12989690804E+04  0.13075222077E+04  0.00000000000E+00 0. -1.
<mgrwt>
<rscale>  2 0.14931059E+03</rscale>
<asrwt>0</asrwt>
<pdfrwt beam="2">  1       21 0.18108832E-01 0.14931059E+03</pdfrwt>
<pdfrwt beam="1">  1        2 0.20805853E+00 0.14931059E+03</pdfrwt>
<totfact> 0.59581769E+03</totfact>
</mgrwt>
</event>
<event>
 4    1  0.5045766E+003  0.1088708E+03  0.7546771E-02  0.1262675E+00
         21   -1    0    0  501  502  0.00000000000E+00  0.00000000000E+00  0.51636436966E+01  0.51636436966E+01  0.00000000000E+00 0. -1.
          2   -1    0    0  503    0 -0.00000000000E+00 -0.00000000000E+00 -0.34139490690E+04  0.34139490690E+04  0.00000000000E+00 0. -1.
         21    1    1    2  503  502  0.76162216415E+02 -0.77795683855E+02 -0.72586302607E+03  0.73398227789E+03  0.00000000000E+00 0. -1.
          2    1    1    2  501    0 -0.76162216415E+02  0.77795683855E+02 -0.26829223992E+04  0.26851304348E+04  0.00000000000E+00 0. -1.
<mgrwt>
<rscale>  2 0.10887080E+03</rscale>
<asrwt>0</asrwt>
<pdfrwt beam="1">  1       21 0.79440626E-03 0.10887080E+03</pdfrwt>
<pdfrwt beam="2">  1        2 0.52522324E+00 0.10887080E+03</pdfrwt>
<totfact> 0.85396748E+04</totfact>
</mgrwt>
</event>
<event>
 4    1  0.5045766E+003  0.1000381E+03  0.7546771E-02  0.1280216E+00
         21   -1    0    0  501  502  0.00000000000E+00  0.00000000000E+00  0.87177459470E+02  0.87177459470E+02  0.00000000000E+00 0. -1.
          3   -1    0    0  503    0 -0.00000000000E+00 -0.00000000000E+00 -0.46903933094E+03  0.46903933094E+03  0.00000000000E+00 0.  1.
         21    1    1    2  503  502  0.98298883875E+02 -0.18572808833E+02  0.50759985242E+02  0.11217930246E+03  0.00000000000E+00 0. -1.
          3    1    1    2  501    0 -0.98298883875E+02  0.18572808833E+02 -0.43262185671E+03  0.44403748795E+03  0.00000000000E+00 0.  1.
<mgrwt>
<rscale>  2 0.10003809E+03</rscale>
<asrwt>0</asrwt>
<pdfrwt beam="1">  1       21 0.13411917E-01 0.10003809E+03</pdfrwt>
<pdfrwt beam="2">  1        3 0.72159896E-01 0.10003809E+03</pdfrwt>
<totfact> 0.43191254E+03</totfact>
</mgrwt>
</event>
<event>
 4    1  0.5045766E+003  0.1279672E+03  0.7546771E-02  0.1230504E+00
         21   -1    0    0  501  502  0.00000000000E+00  0.00000000000E+00  0.43487186134E+03  0.43487186134E+03  0.00000000000E+00 0.  1.
          1   -1    0    0  503    0 -0.00000000000E+00 -0.00000000000E+00 -0.39892764320E+03  0.39892764320E+03  0.00000000000E+00 0.  1.
         21    1    1    2  503  502  0.10633848443E+03  0.71187958844E+02  0.41470793543E+03  0.43400261573E+03  0.00000000000E+00 0.  1.
          1    1    1    2  501    0 -0.10633848443E+03 -0.71187958844E+02 -0.37876371730E+03  0.39979688880E+03  0.00000000000E+00 0.  1.
<mgrwt>
<rscale>  2 0.12796718E+03</rscale>
<asrwt>0</asrwt>
<pdfrwt beam="1">  1       21 0.66903363E-01 0.12796718E+03</pdfrwt>
<pdfrwt beam="2">  1        1 0.61373484E-01 0.12796718E+03</pdfrwt>
<totfact> 0.14172757E+03</totfact>
</mgrwt>
</event>
<event>
 4    1  0.5045766E+003  0.1070282E+03  0.7546771E-02  0.1266174E+00
         21   -1    0    0  503  502  0.00000000000E+00  0.00000000000E+00  0.18731362610E+02  0.18731362610E+02  0.00000000000E+00 0. -1.
         -3   -1    0    0    0  501 -0.00000000000E+00 -0.00000000000E+00 -0.67554130455E+03  0.67554130455E+03  0.00000000000E+00 0. -1.
         21    1    1    2  503  501  0.26771029711E+02  0.10362597711E+03 -0.22155883789E+03  0.24605558277E+03  0.00000000000E+00 0. -1.
         -3    1    1    2    0  502 -0.26771029711E+02 -0.10362597711E+03 -0.43525110405E+03  0.44821708439E+03  0.00000000000E+00 0. -1.
<mgrwt>
<rscale>  2 0.10702818E+03</rscale>
<asrwt>0</asrwt>
<pdfrwt beam="1">  1       21 0.28817478E-02 0.10702818E+03</pdfrwt>
<pdfrwt beam="2">  1       -3 0.10392944E+00 0.10702818E+03</pdfrwt>
<totfact> 0.26366004E+04</totfact>
</mgrwt>
</event>
<event>
 4    1  0.5045766E+003  0.1121166E+03  0.7546771E-02  0.1256700E+00
         21   -1    0    0  503  502  0.00000000000E+00  0.00000000000E+00  0.98878088466E+02  0.98878088466E+02  0.00000000000E+00 0.  1.
          2   -1    0    0  502    0 -0.00000000000E+00 -0.00000000000E+00 -0.20731530300E+04  0.20731530300E+04  0.00000000000E+00 0.  1.
         21    1    1    2  503  501 -0.10243285871E+03 -0.45581210630E+02  0.65053617059E+02  0.12962295475E+03  0.00000000000E+00 0.  1.
          2    1    1    2  501    0  0.10243285871E+03  0.45581210630E+02 -0.20393285586E+04  0.20424081637E+04  0.00000000000E+00 0.  1.
<mgrwt>
<rscale>  2 0.11211662E+03</rscale>
<asrwt>0</asrwt>
<pdfrwt beam="1">  1       21 0.15212016E-01 0.11211662E+03</pdfrwt>
<pdfrwt beam="2">  1        2 0.31894658E+00 0.11211662E+03</pdfrwt>
<totfact> 0.35677665E+03</totfact>
</mgrwt>
</event>
<event>
 4    1  0.5045766E+003  0.2740104E+03  0.7546771E-02  0.1099006E+00
          1   -1    0    0  503    0 -0.00000000000E+00  0.00000000000E+00  0.56237773424E+03  0.56237773424E+03  0.00000000000E+00 0.  1.
         21   -1    0    0  501  502  0.00000000000E+00 -0.00000000000E+00 -0.21911729192E+03  0.21911729192E+03  0.00000000000E+00 0. -1.
         21    1    1    2  503  502  0.26703330599E+03 -0.61440238864E+02 -0.72611256349E+02  0.28346795940E+03  0.00000000000E+00 0. -1.
          1    1    1    2  501    0 -0.26703330599E+03  0.61440238864E+02  0.41587169867E+03  0.49802706675E+03  0.00000000000E+00 0.  1.
<mgrwt>
<rscale>  2 0.27401038E+03</rscale>
<asrwt>0</asrwt>
<pdfrwt beam="2">  1       21 0.33710353E-01 0.27401038E+03</pdfrwt>
<pdfrwt beam="1">  1        1 0.86519651E-01 0.27401038E+03</pdfrwt>
<totfact> 0.35218825E+03</totfact>
</mgrwt>
</event>
<event>
 4    1  0.5045766E+003  0.1267353E+03  0.7546771E-02  0.1232382E+00
          2   -1    0    0  503    0 -0.00000000000E+00  0.00000000000E+00  0.37232943752E+03  0.37232943752E+03  0.00000000000E+00 0.  1.
         21   -1    0    0  501  502  0.00000000000E+00 -0.00000000000E+00 -0.61260422100E+02  0.61260422100E+02  0.00000000000E+00 0.  1.
         21    1    1    2  503  502  0.72159891869E+02  0.10418634693E+03  0.37622598404E+02  0.13220175790E+03  0.00000000000E+00 0.  1.
          2    1    1    2  501    0 -0.72159891869E+02 -0.10418634693E+03  0.27344641701E+03  0.30138810172E+03  0.00000000000E+00 0.  1.
<mgrwt>
<rscale>  2 0.12673533E+03</rscale>
<asrwt>0</asrwt>
<pdfrwt beam="2">  1       21 0.94246806E-02 0.12673533E+03</pdfrwt>
<pdfrwt beam="1">  1        2 0.57281450E-01 0.12673533E+03</pdfrwt>
<totfact> 0.96016353E+04</totfact>
</mgrwt>
</event>
<event>
 4    1  0.5045766E+003  0.1039738E+03  0.7546771E-02  0.1272155E+00
          1   -1    0    0  502    0 -0.00000000000E+00  0.00000000000E+00  0.27152107654E+03  0.27152107654E+03  0.00000000000E+00 0.  1.
         21   -1    0    0  503  502  0.00000000000E+00 -0.00000000000E+00 -0.11309273256E+03  0.11309273256E+03  0.00000000000E+00 0. -1.
         21    1    1    2  503  501  0.18041717461E+02  0.10239655622E+03 -0.75583392061E+02  0.12854340687E+03  0.00000000000E+00 0. -1.
          1    1    1    2  501    0 -0.18041717461E+02 -0.10239655622E+03  0.23401173604E+03  0.25607040223E+03  0.00000000000E+00 0.  1.
<mgrwt>
<rscale>  2 0.10397383E+03</rscale>
<asrwt>0</asrwt>
<pdfrwt beam="2">  1       21 0.17398882E-01 0.10397383E+03</pdfrwt>
<pdfrwt beam="1">  1        1 0.41772473E-01 0.10397383E+03</pdfrwt>
<totfact> 0.32392625E+04</totfact>
</mgrwt>
</event>
<event>
 4    1  0.5045766E+003  0.1737546E+03  0.7546771E-02  0.1173988E+00
         21   -1    0    0  501  502  0.00000000000E+00  0.00000000000E+00  0.27312382971E+03  0.27312382971E+03  0.00000000000E+00 0. -1.
          1   -1    0    0  503    0 -0.00000000000E+00 -0.00000000000E+00 -0.12264161831E+03  0.12264161831E+03  0.00000000000E+00 0. -1.
         21    1    1    2  503  502 -0.34685568264E+02  0.17025740928E+03  0.13740513913E+03  0.22151940393E+03  0.00000000000E+00 0. -1.
          1    1    1    2  501    0  0.34685568264E+02 -0.17025740928E+03  0.13077072269E+02  0.17424604408E+03  0.00000000000E+00 0. -1.
<mgrwt>
<rscale>  2 0.17375464E+03</rscale>
<asrwt>0</asrwt>
<pdfrwt beam="1">  1       21 0.42019051E-01 0.17375464E+03</pdfrwt>
<pdfrwt beam="2">  1        1 0.18867941E-01 0.17375464E+03</pdfrwt>
<totfact> 0.16176089E+04</totfact>
</mgrwt>
</event>
<event>
 4    1  0.5045766E+003  0.1213656E+03  0.7546771E-02  0.1240861E+00
          3   -1    0    0  503    0 -0.00000000000E+00  0.00000000000E+00  0.18836605173E+03  0.18836605173E+03  0.00000000000E+00 0. -1.
         21   -1    0    0  501  502  0.00000000000E+00 -0.00000000000E+00 -0.81332046061E+03  0.81332046061E+03  0.00000000000E+00 0. -1.
         21    1    1    2  503  502  0.11721020987E+03 -0.31486145856E+02 -0.78863533065E+03  0.79791935396E+03  0.00000000000E+00 0. -1.
          3    1    1    2  501    0 -0.11721020987E+03  0.31486145856E+02  0.16368092177E+03  0.20376715837E+03  0.00000000000E+00 0. -1.
<mgrwt>
<rscale>  2 0.12136561E+03</rscale>
<asrwt>0</asrwt>
<pdfrwt beam="2">  1       21 0.12512623E+00 0.12136561E+03</pdfrwt>
<pdfrwt beam="1">  1        3 0.28979392E-01 0.12136561E+03</pdfrwt>
<totfact> 0.27544086E+02</totfact>
</mgrwt>
</event>
<event>
 4    1  0.5045766E+003  0.1029790E+03  0.7546771E-02  0.1274153E+00
         -1   -1    0    0    0  501 -0.00000000000E+00  0.00000000000E+00  0.19823618852E+02  0.19823618852E+02  0.00000000000E+00 0. -1.
         21   -1    0    0  503  502  0.00000000000E+00 -0.00000000000E+00 -0.13879197474E+04  0.13879197474E+04  0.00000000000E+00 0. -1.
         21    1    1    2  503  501 -0.10116320241E+03  0.19253026296E+02 -0.12358430828E+04  0.12401261218E+04  0.00000000000E+00 0. -1.
         -1    1    1    2    0  502  0.10116320241E+03 -0.19253026296E+02 -0.13225304573E+03  0.16761724449E+03  0.00000000000E+00 0. -1.
<mgrwt>
<rscale>  2 0.10297899E+03</rscale>
<asrwt>0</asrwt>
<pdfrwt beam="2">  1       21 0.21352619E+00 0.10297899E+03</pdfrwt>
<pdfrwt beam="1">  1       -1 0.30497865E-02 0.10297899E+03</pdfrwt>
<totfact> 0.37461912E+03</totfact>
</mgrwt>
</event>
<event>
 4    1  0.5045766E+003  0.1404478E+03  0.7546771E-02  0.1212728E+00
         21   -1    0    0  501  502  0.00000000000E+00  0.00000000000E+00  0.92839613338E+02  0.92839613338E+02  0.00000000000E+00 0.  1.
          2   -1    0    0  503    0 -0.00000000000E+00 -0.00000000000E+00 -0.35129221020E+03  0.35129221020E+03  0.00000000000E+00 0. -1.
         21    1    1    2  503  502  0.47203566565E+02 -0.13227781112E+03  0.10371230919E+02  0.14083024690E+03  0.00000000000E+00 0.  1.
          2    1    1    2  501    0 -0.47203566565E+02  0.13227781112E+03 -0.26882382778E+03  0.30330157664E+03  0.00000000000E+00 0. -1.
<mgrwt>
<rscale>  2 0.14044784E+03</rscale>
<asrwt>0</asrwt>
<pdfrwt beam="1">  1       21 0.14283018E-01 0.14044784E+03</pdfrwt>
<pdfrwt beam="2">  1        2 0.54044954E-01 0.14044784E+03</pdfrwt>
<totfact> 0.49042433E+04</totfact>
</mgrwt>
</event>
<event>
 4    1  0.5045766E+003  0.1030078E+03  0.7546771E-02  0.1274095E+00
         21   -1    0    0  503  502  0.00000000000E+00  0.00000000000E+00  0.67028562667E+03  0.67028562667E+03  0.00000000000E+00 0.  1.
          1   -1    0    0  502    0 -0.00000000000E+00 -0.00000000000E+00 -0.40276266634E+03  0.40276266634E+03  0.00000000000E+00 0. -1.
         21    1    1    2  503  501  0.62743248451E+02  0.81693936058E+02  0.65963629567E+03  0.66763062915E+03  0.00000000000E+00 0.  1.
          1    1    1    2  501    0 -0.62743248451E+02 -0.81693936058E+02 -0.39211333534E+03  0.40541766385E+03  0.00000000000E+00 0. -1.
<mgrwt>
<rscale>  2 0.10300784E+03</rscale>
<asrwt>0</asrwt>
<pdfrwt beam="1">  1       21 0.10312087E+00 0.10300784E+03</pdfrwt>
<pdfrwt beam="2">  1        1 0.61963487E-01 0.10300784E+03</pdfrwt>
<totfact> 0.54143183E+02</totfact>
</mgrwt>
</event>
<event>
 4    1  0.5045766E+003  0.1887414E+03  0.7546771E-02  0.1159601E+00
         21   -1    0    0  501  502  0.00000000000E+00  0.00000000000E+00  0.18733208815E+03  0.18733208815E+03  0.00000000000E+00 0.  1.
          2   -1    0    0  503    0 -0.00000000000E+00 -0.00000000000E+00 -0.64985286459E+03  0.64985286459E+03  0.00000000000E+00 0.  1.
         21    1    1    2  503  502 -0.18342063516E+03  0.44499216181E+02  0.12080001020E+03  0.22408916106E+03  0.00000000000E+00 0.  1.
          2    1    1    2  501    0  0.18342063516E+03 -0.44499216181E+02 -0.58332078664E+03  0.61309579167E+03  0.00000000000E+00 0.  1.
<mgrwt>
<rscale>  2 0.18874138E+03</rscale>
<asrwt>0</asrwt>
<pdfrwt beam="1">  1       21 0.28820321E-01 0.18874138E+03</pdfrwt>
<pdfrwt beam="2">  1        2 0.99977364E-01 0.18874138E+03</pdfrwt>
<totfact> 0.66661311E+03</totfact>
</mgrwt>
</event>
<event>
 4    1  0.5045766E+003  0.1255718E+03  0.7546771E-02  0.1234178E+00
          1   -1    0    0  503    0 -0.00000000000E+00  0.00000000000E+00  0.38201033220E+03  0.38201033220E+03  0.00000000000E+00 0. -1.
         21   -1    0    0  501  502  0.00000000000E+00 -0.00000000000E+00 -0.86421800075E+02  0.86421800075E+02  0.00000000000E+00 0. -1.
         21    1    1    2  503  502  0.12081595654E+03 -0.34231254947E+02 -0.21486833465E+02  0.12739685311E+03  0.00000000000E+00 0. -1.
          1    1    1    2  501    0 -0.12081595654E+03  0.34231254947E+02  0.31707536559E+03  0.34103527917E+03  0.00000000000E+00 0. -1.
<mgrwt>
<rscale>  2 0.12557179E+03</rscale>
<asrwt>0</asrwt>
<pdfrwt beam="2">  1       21 0.13295662E-01 0.12557179E+03</pdfrwt>
<pdfrwt beam="1">  1        1 0.58770819E-01 0.12557179E+03</pdfrwt>
<totfact> 0.34514802E+04</totfact>
</mgrwt>
</event>
<event>
 4    1  0.5045766E+003  0.1039538E+03  0.7546771E-02  0.1272195E+00
         21   -1    0    0  503  502  0.00000000000E+00  0.00000000000E+00  0.10103359821E+02  0.10103359821E+02  0.00000000000E+00 0. -1.
          2   -1    0    0  502    0 -0.00000000000E+00 -0.00000000000E+00 -0.32014000079E+04  0.32014000079E+04  0.00000000000E+00 0. -1.
         21    1    1    2  503  501  0.95678042595E+02  0.40646187860E+02 -0.28531076404E+03  0.30365874349E+03  0.00000000000E+00 0. -1.
          2    1    1    2  501    0 -0.95678042595E+02 -0.40646187860E+02 -0.29059858840E+04  0.29078446242E+04  0.00000000000E+00 0. -1.
<mgrwt>
<rscale>  2 0.10395384E+03</rscale>
<asrwt>0</asrwt>
<pdfrwt beam="1">  1       21 0.15543627E-02 0.10395384E+03</pdfrwt>
<pdfrwt beam="2">  1        2 0.49252320E+00 0.10395384E+03</pdfrwt>
<totfact> 0.40152928E+04</totfact>
</mgrwt>
</event>
<event>
 4    1  0.5045766E+003  0.1425785E+03  0.7546771E-02  0.1209901E+00
          2   -1    0    0  503    0 -0.00000000000E+00  0.00000000000E+00  0.16484444987E+04  0.16484444987E+04  0.00000000000E+00 0.  1.
         21   -1    0    0  501  502  0.00000000000E+00 -0.00000000000E+00 -0.12423545749E+02  0.12423545749E+02  0.00000000000E+00 0.  1.
         21    1    1    2  503  502 -0.27543088720E+02 -0.13989285312E+03  0.74672836884E+03  0.76021831662E+03  0.00000000000E+00 0.  1.
          2    1    1    2  501    0  0.27543088720E+02  0.13989285312E+03  0.88929258413E+03  0.90064972785E+03  0.00000000000E+00 0.  1.
<mgrwt>
<rscale>  2 0.14257851E+03</rscale>
<asrwt>0</asrwt>
<pdfrwt beam="2">  1       21 0.19113160E-02 0.14257851E+03</pdfrwt>
<pdfrwt beam="1">  1        2 0.25360667E+00 0.14257851E+03</pdfrwt>
<totfact> 0.19440360E+05</totfact>
</mgrwt>
</event>
<event>
 4    1  0.5045766E+003  0.1013335E+03  0.7546771E-02  0.1277517E+00
         21   -1    0    0  503  502  0.00000000000E+00  0.00000000000E+00  0.35080875864E+03  0.35080875864E+03  0.00000000000E+00 0.  1.
          2   -1    0    0  502    0 -0.00000000000E+00 -0.00000000000E+00 -0.51665675403E+02  0.51665675403E+02  0.00000000000E+00 0.  1.
         21    1    1    2  503  501 -0.10115206338E+03  0.60608035485E+01  0.28206090480E+03  0.29971123983E+03  0.00000000000E+00 0.  1.
          2    1    1    2  501    0  0.10115206338E+03 -0.60608035485E+01  0.17082178441E+02  0.10276319421E+03  0.00000000000E+00 0.  1.
<mgrwt>
<rscale>  2 0.10133348E+03</rscale>
<asrwt>0</asrwt>
<pdfrwt beam="1">  1       21 0.53970577E-01 0.10133348E+03</pdfrwt>
<pdfrwt beam="2">  1        2 0.79485657E-02 0.10133348E+03</pdfrwt>
<totfact> 0.33425833E+04</totfact>
</mgrwt>
</event>
<event>
 4    1  0.5045766E+003  0.1109499E+03  0.7546771E-02  0.1258821E+00
         21   -1    0    0  501  502  0.00000000000E+00  0.00000000000E+00  0.10492501639E+03  0.10492501639E+03  0.00000000000E+00 0.  1.
          3   -1    0    0  503    0 -0.00000000000E+00 -0.00000000000E+00 -0.12328830510E+03  0.12328830510E+03  0.00000000000E+00 0.  1.
         21    1    1    2  503  502  0.10488321919E+03 -0.36185354135E+02  0.15922907213E+02  0.11208661158E+03  0.00000000000E+00 0.  1.
          3    1    1    2  501    0 -0.10488321919E+03  0.36185354135E+02 -0.34286195922E+02  0.11612670990E+03  0.00000000000E+00 0.  1.
<mgrwt>
<rscale>  2 0.11094985E+03</rscale>
<asrwt>0</asrwt>
<pdfrwt beam="1">  1       21 0.16142310E-01 0.11094985E+03</pdfrwt>
<pdfrwt beam="2">  1        3 0.18967432E-01 0.11094985E+03</pdfrwt>
<totfact> 0.39797308E+04</totfact>
</mgrwt>
</event>
<event>
 4    1  0.5045766E+003  0.1103653E+03  0.7546771E-02  0.1259895E+00
         21   -1    0    0  503  502  0.00000000000E+00  0.00000000000E+00  0.10798209244E+04  0.10798209244E+04  0.00000000000E+00 0.  1.
          1   -1    0    0  502    0 -0.00000000000E+00 -0.00000000000E+00 -0.20677354829E+02  0.20677354829E+02  0.00000000000E+00 0. -1.
         21    1    1    2  503  501 -0.10495497502E+03  0.34131417778E+02  0.90051900199E+03  0.90725683982E+03  0.00000000000E+00 0.  1.
          1    1    1    2  501    0  0.10495497502E+03 -0.34131417778E+02  0.15862456755E+03  0.19324143938E+03  0.00000000000E+00 0. -1.
<mgrwt>
<rscale>  2 0.11036530E+03</rscale>
<asrwt>0</asrwt>
<pdfrwt beam="1">  1       21 0.16612625E+00 0.11036530E+03</pdfrwt>
<pdfrwt beam="2">  1        1 0.31811324E-02 0.11036530E+03</pdfrwt>
<totfact> 0.76592514E+03</totfact>
</mgrwt>
</event>
<event>
 4    1  0.5045766E+003  0.1003272E+03  0.7546771E-02  0.1279609E+00
          2   -1    0    0  503    0 -0.00000000000E+00  0.00000000000E+00  0.81934801392E+03  0.81934801392E+03  0.00000000000E+00 0. -1.
         21   -1    0    0  501  502  0.00000000000E+00 -0.00000000000E+00 -0.13079734553E+02  0.13079734553E+02  0.00000000000E+00 0. -1.
         21    1    1    2  503  502 -0.70757975990E+02 -0.71125576954E+02  0.30052674815E+03  0.31683097263E+03  0.00000000000E+00 0. -1.
          2    1    1    2  501    0  0.70757975990E+02  0.71125576954E+02  0.50574153121E+03  0.51559677584E+03  0.00000000000E+00 0. -1.
<mgrwt>
<rscale>  2 0.10032716E+03</rscale>
<asrwt>0</asrwt>
<pdfrwt beam="2">  1       21 0.20122675E-02 0.10032716E+03</pdfrwt>
<pdfrwt beam="1">  1        2 0.12605350E+00 0.10032716E+03</pdfrwt>
<totfact> 0.51292210E+05</totfact>
</mgrwt>
</event>
<event>
 4    1  0.5045766E+003  0.1168220E+03  0.7546771E-02  0.1248434E+00
          2   -1    0    0  503    0 -0.00000000000E+00  0.00000000000E+00  0.63587351386E+03  0.63587351386E+03  0.00000000000E+00 0. -1.
         21   -1    0    0  501  502  0.00000000000E+00 -0.00000000000E+00 -0.31275755541E+02  0.31275755541E+02  0.00000000000E+00 0. -1.
         21    1    1    2  503  502 -0.92243345902E+02 -0.71683724804E+02  0.11544711598E+03  0.16424197957E+03  0.00000000000E+00 0. -1.
          2    1    1    2  501    0  0.92243345902E+02  0.71683724804E+02  0.48915064233E+03  0.50290728983E+03  0.00000000000E+00 0. -1.
<mgrwt>
<rscale>  2 0.11682205E+03</rscale>
<asrwt>0</asrwt>
<pdfrwt beam="2">  1       21 0.48116552E-02 0.11682205E+03</pdfrwt>
<pdfrwt beam="1">  1        2 0.97826685E-01 0.11682205E+03</pdfrwt>
<totfact> 0.16778428E+05</totfact>
</mgrwt>
</event>
<event>
 4    1  0.5045766E+003  0.1102200E+03  0.7546771E-02  0.1260163E+00
          2   -1    0    0  502    0 -0.00000000000E+00  0.00000000000E+00  0.26445953904E+03  0.26445953904E+03  0.00000000000E+00 0. -1.
         21   -1    0    0  503  502  0.00000000000E+00 -0.00000000000E+00 -0.62956248953E+02  0.62956248953E+02  0.00000000000E+00 0. -1.
         21    1    1    2  503  501 -0.70693030628E+02  0.84563283876E+02  0.15633614424E+02  0.11132323863E+03  0.00000000000E+00 0. -1.
          2    1    1    2  501    0  0.70693030628E+02 -0.84563283876E+02  0.18586967566E+03  0.21609254936E+03  0.00000000000E+00 0. -1.
<mgrwt>
<rscale>  2 0.11022002E+03</rscale>
<asrwt>0</asrwt>
<pdfrwt beam="2">  1       21 0.96855769E-02 0.11022002E+03</pdfrwt>
<pdfrwt beam="1">  1        2 0.40686082E-01 0.11022002E+03</pdfrwt>
<totfact> 0.13074741E+05</totfact>
</mgrwt>
</event>
<event>
 4    1  0.5045766E+003  0.1093456E+03  0.7546771E-02  0.1261787E+00
         21   -1    0    0  501  502  0.00000000000E+00  0.00000000000E+00  0.25800448637E+02  0.25800448637E+02  0.00000000000E+00 0.  1.
          2   -1    0    0  503    0 -0.00000000000E+00 -0.00000000000E+00 -0.57471027391E+03  0.57471027391E+03  0.00000000000E+00 0. -1.
         21    1    1    2  503  502 -0.76543611484E+02  0.78086680272E+02 -0.14232713645E+03  0.17948110727E+03  0.00000000000E+00 0.  1.
          2    1    1    2  501    0  0.76543611484E+02 -0.78086680272E+02 -0.40658268882E+03  0.42102961528E+03  0.00000000000E+00 0. -1.
<mgrwt>
<rscale>  2 0.10934557E+03</rscale>
<asrwt>0</asrwt>
<pdfrwt beam="1">  1       21 0.39693002E-02 0.10934557E+03</pdfrwt>
<pdfrwt beam="2">  1        2 0.88416955E-01 0.10934557E+03</pdfrwt>
<totfact> 0.25835139E+05</totfact>
</mgrwt>
</event>
<event>
 4    1  0.5045766E+003  0.1151905E+03  0.7546771E-02  0.1251249E+00
         21   -1    0    0  503  502  0.00000000000E+00  0.00000000000E+00  0.74614483213E+01  0.74614483213E+01  0.00000000000E+00 0. -1.
          2   -1    0    0  502    0 -0.00000000000E+00 -0.00000000000E+00 -0.25750678240E+04  0.25750678240E+04  0.00000000000E+00 0. -1.
         21    1    1    2  503  501 -0.72087600206E+02 -0.89845534542E+02 -0.56554367620E+03  0.57715551792E+03  0.00000000000E+00 0. -1.
          2    1    1    2  501    0  0.72087600206E+02  0.89845534542E+02 -0.20020626995E+04  0.20053737544E+04  0.00000000000E+00 0. -1.
<mgrwt>
<rscale>  2 0.11519046E+03</rscale>
<asrwt>0</asrwt>
<pdfrwt beam="1">  1       21 0.11479144E-02 0.11519046E+03</pdfrwt>
<pdfrwt beam="2">  1        2 0.39616454E+00 0.11519046E+03</pdfrwt>
<totfact> 0.14566900E+05</totfact>
</mgrwt>
</event>
<event>
 4    1  0.5045766E+003  0.1711031E+03  0.7546771E-02  0.1176702E+00
         21   -1    0    0  501  502  0.00000000000E+00  0.00000000000E+00  0.28068520386E+02  0.28068520386E+02  0.00000000000E+00 0. -1.
          2   -1    0    0  503    0 -0.00000000000E+00 -0.00000000000E+00 -0.10668441526E+04  0.10668441526E+04  0.00000000000E+00 0. -1.
         21    1    1    2  503  502 -0.83717816764E+02  0.14922326442E+03 -0.43759147329E+03  0.46985375702E+03  0.00000000000E+00 0. -1.
          2    1    1    2  501    0  0.83717816764E+02 -0.14922326442E+03 -0.60118415890E+03  0.62505891595E+03  0.00000000000E+00 0. -1.
<mgrwt>
<rscale>  2 0.17110306E+03</rscale>
<asrwt>0</asrwt>
<pdfrwt beam="1">  1       21 0.43182350E-02 0.17110306E+03</pdfrwt>
<pdfrwt beam="2">  1        2 0.16412983E+00 0.17110306E+03</pdfrwt>
<totfact> 0.10498209E+05</totfact>
</mgrwt>
</event>
<event>
 4    1  0.5045766E+003  0.1416735E+03  0.7546771E-02  0.1211095E+00
         21   -1    0    0  501  502  0.00000000000E+00  0.00000000000E+00  0.55708277072E+02  0.55708277072E+02  0.00000000000E+00 0.  1.
          4   -1    0    0  503    0 -0.00000000000E+00 -0.00000000000E+00 -0.41881955472E+03  0.41881955472E+03  0.00000000000E+00 0. -1.
         21    1    1    2  503  502  0.23659180201E+02 -0.13968404195E+03 -0.92862716839E+02  0.16939560963E+03  0.00000000000E+00 0.  1.
          4    1    1    2  501    0 -0.23659180201E+02  0.13968404195E+03 -0.27024856081E+03  0.30513222217E+03  0.00000000000E+00 0. -1.
<mgrwt>
<rscale>  2 0.14167353E+03</rscale>
<asrwt>0</asrwt>
<pdfrwt beam="1">  1       21 0.85705039E-02 0.14167353E+03</pdfrwt>
<pdfrwt beam="2">  1        4 0.64433780E-01 0.14167353E+03</pdfrwt>
<totfact> 0.99631870E+03</totfact>
</mgrwt>
</event>
<event>
 4    1  0.5045766E+003  0.1044116E+03  0.7546771E-02  0.1271283E+00
         -1   -1    0    0    0  501 -0.00000000000E+00  0.00000000000E+00  0.99093796602E+03  0.99093796602E+03  0.00000000000E+00 0.  1.
         21   -1    0    0  501  502  0.00000000000E+00 -0.00000000000E+00 -0.83599156419E+02  0.83599156419E+02  0.00000000000E+00 0.  1.
         21    1    1    2  503  502 -0.24611675002E+02 -0.10146939113E+03 -0.47000951243E+02  0.11450266941E+03  0.00000000000E+00 0.  1.
         -1    1    1    2    0  503  0.24611675002E+02  0.10146939113E+03  0.95433976085E+03  0.96003445304E+03  0.00000000000E+00 0.  1.
<mgrwt>
<rscale>  2 0.10441155E+03</rscale>
<asrwt>0</asrwt>
<pdfrwt beam="2">  1       21 0.12861409E-01 0.10441155E+03</pdfrwt>
<pdfrwt beam="1">  1       -1 0.15245199E+00 0.10441155E+03</pdfrwt>
<totfact> 0.18350110E+03</totfact>
</mgrwt>
</event>
<event>
 4    1  0.5045766E+003  0.1043672E+03  0.7546771E-02  0.1271371E+00
         21   -1    0    0  501  502  0.00000000000E+00  0.00000000000E+00  0.16751290277E+03  0.16751290277E+03  0.00000000000E+00 0.  1.
          2   -1    0    0  503    0 -0.00000000000E+00 -0.00000000000E+00 -0.68842402469E+03  0.68842402469E+03  0.00000000000E+00 0.  1.
         21    1    1    2  503  502 -0.72296363004E+02  0.75271141332E+02  0.14679984209E+03  0.18011857888E+03  0.00000000000E+00 0.  1.
          2    1    1    2  501    0  0.72296363004E+02 -0.75271141332E+02 -0.66771096401E+03  0.67581834858E+03  0.00000000000E+00 0.  1.
<mgrwt>
<rscale>  2 0.10436718E+03</rscale>
<asrwt>0</asrwt>
<pdfrwt beam="1">  1       21 0.25771216E-01 0.10436718E+03</pdfrwt>
<pdfrwt beam="2">  1        2 0.10591139E+00 0.10436718E+03</pdfrwt>
<totfact> 0.79450578E+03</totfact>
</mgrwt>
</event>
<event>
 4    1  0.5045766E+003  0.1064156E+03  0.7546771E-02  0.1267355E+00
          1   -1    0    0  503    0 -0.00000000000E+00  0.00000000000E+00  0.12758594375E+03  0.12758594375E+03  0.00000000000E+00 0.  1.
         21   -1    0    0  501  502  0.00000000000E+00 -0.00000000000E+00 -0.11233658294E+03  0.11233658294E+03  0.00000000000E+00 0.  1.
         21    1    1    2  503  502  0.51677114145E+02  0.93025540490E+02 -0.47334357798E+02  0.11646809322E+03  0.00000000000E+00 0.  1.
          1    1    1    2  501    0 -0.51677114145E+02 -0.93025540490E+02  0.62583718600E+02  0.12345443347E+03  0.00000000000E+00 0.  1.
<mgrwt>
<rscale>  2 0.10641558E+03</rscale>
<asrwt>0</asrwt>
<pdfrwt beam="2">  1       21 0.17282551E-01 0.10641558E+03</pdfrwt>
<pdfrwt beam="1">  1        1 0.19628607E-01 0.10641558E+03</pdfrwt>
<totfact> 0.83648432E+04</totfact>
</mgrwt>
</event>
<event>
 4    1  0.5045766E+003  0.1372320E+03  0.7546771E-02  0.1217103E+00
          1   -1    0    0  503    0 -0.00000000000E+00  0.00000000000E+00  0.10211786366E+03  0.10211786366E+03  0.00000000000E+00 0. -1.
         21   -1    0    0  501  502  0.00000000000E+00 -0.00000000000E+00 -0.38054728902E+03  0.38054728902E+03  0.00000000000E+00 0.  1.
         21    1    1    2  503  502  0.75028345103E+02  0.11490587877E+03 -0.31246750509E+03  0.34127489695E+03  0.00000000000E+00 0.  1.
          1    1    1    2  501    0 -0.75028345103E+02 -0.11490587877E+03  0.34038079739E+02  0.14139025574E+03  0.00000000000E+00 0. -1.
<mgrwt>
<rscale>  2 0.13723197E+03</rscale>
<asrwt>0</asrwt>
<pdfrwt beam="2">  1       21 0.58545736E-01 0.13723197E+03</pdfrwt>
<pdfrwt beam="1">  1        1 0.15710441E-01 0.13723197E+03</pdfrwt>
<totfact> 0.10350047E+04</totfact>
</mgrwt>
</event>
<event>
 4    1  0.5045766E+003  0.1354095E+03  0.7546771E-02  0.1219643E+00
         21   -1    0    0  501  502  0.00000000000E+00  0.00000000000E+00  0.12552016998E+04  0.12552016998E+04  0.00000000000E+00 0.  1.
         -2   -1    0    0    0  501 -0.00000000000E+00 -0.00000000000E+00 -0.13619835020E+03  0.13619835020E+03  0.00000000000E+00 0. -1.
         21    1    1    2  503  502 -0.44017647390E+02 -0.12805536542E+03  0.12168355519E+04  0.12243465565E+04  0.00000000000E+00 0.  1.
         -2    1    1    2    0  503  0.44017647390E+02  0.12805536542E+03 -0.97832202324E+02  0.16705349354E+03  0.00000000000E+00 0. -1.
<mgrwt>
<rscale>  2 0.13540949E+03</rscale>
<asrwt>0</asrwt>
<pdfrwt beam="1">  1       21 0.19310795E+00 0.13540949E+03</pdfrwt>
<pdfrwt beam="2">  1       -2 0.20953593E-01 0.13540949E+03</pdfrwt>
<totfact> 0.24106184E+02</totfact>
</mgrwt>
</event>
<event>
 4    1  0.5045766E+003  0.1271367E+03  0.7546771E-02  0.1231767E+00
          2   -1    0    0  503    0 -0.00000000000E+00  0.00000000000E+00  0.11695907085E+04  0.11695907085E+04  0.00000000000E+00 0.  1.
         21   -1    0    0  501  502  0.00000000000E+00 -0.00000000000E+00 -0.32272141083E+02  0.32272141083E+02  0.00000000000E+00 0. -1.
         21    1    1    2  503  502  0.88995512867E+02 -0.90793999178E+02  0.11426346296E+03  0.17093826536E+03  0.00000000000E+00 0. -1.
          2    1    1    2  501    0 -0.88995512867E+02  0.90793999178E+02  0.10230551044E+04  0.10309245842E+04  0.00000000000E+00 0.  1.
<mgrwt>
<rscale>  2 0.12713674E+03</rscale>
<asrwt>0</asrwt>
<pdfrwt beam="2">  1       21 0.49649457E-02 0.12713674E+03</pdfrwt>
<pdfrwt beam="1">  1        2 0.17993700E+00 0.12713674E+03</pdfrwt>
<totfact> 0.72563917E+04</totfact>
</mgrwt>
</event>
<event>
 4    1  0.5045766E+003  0.1066370E+03  0.7546771E-02  0.1266927E+00
         21   -1    0    0  501  502  0.00000000000E+00  0.00000000000E+00  0.22977427986E+03  0.22977427986E+03  0.00000000000E+00 0. -1.
          1   -1    0    0  503    0 -0.00000000000E+00 -0.00000000000E+00 -0.49489750362E+02  0.49489750362E+02  0.00000000000E+00 0. -1.
         21    1    1    2  503  502 -0.69555288933E+02 -0.80830149995E+02  0.89955320280E+02  0.13951132934E+03  0.00000000000E+00 0. -1.
          1    1    1    2  501    0  0.69555288933E+02  0.80830149995E+02  0.90329209220E+02  0.13975270089E+03  0.00000000000E+00 0. -1.
<mgrwt>
<rscale>  2 0.10663701E+03</rscale>
<asrwt>0</asrwt>
<pdfrwt beam="1">  1       21 0.35349889E-01 0.10663701E+03</pdfrwt>
<pdfrwt beam="2">  1        1 0.76138079E-02 0.10663701E+03</pdfrwt>
<totfact> 0.74625041E+04</totfact>
</mgrwt>
</event>
<event>
 4    1  0.5045766E+003  0.1644095E+03  0.7546771E-02  0.1183807E+00
          1   -1    0    0  502    0 -0.00000000000E+00  0.00000000000E+00  0.69430001214E+03  0.69430001214E+03  0.00000000000E+00 0.  1.
         21   -1    0    0  503  502  0.00000000000E+00 -0.00000000000E+00 -0.65873114777E+02  0.65873114777E+02  0.00000000000E+00 0. -1.
         21    1    1    2  503  501  0.11859948089E+03 -0.11386240245E+03  0.71140711882E+02  0.17914096250E+03  0.00000000000E+00 0. -1.
          1    1    1    2  501    0 -0.11859948089E+03  0.11386240245E+03  0.55728618548E+03  0.58103216441E+03  0.00000000000E+00 0.  1.
<mgrwt>
<rscale>  2 0.16440950E+03</rscale>
<asrwt>0</asrwt>
<pdfrwt beam="2">  1       21 0.10134326E-01 0.16440950E+03</pdfrwt>
<pdfrwt beam="1">  1        1 0.10681538E+00 0.16440950E+03</pdfrwt>
<totfact> 0.25277578E+04</totfact>
</mgrwt>
</event>
<event>
 4    1  0.5045766E+003  0.1490910E+03  0.7546771E-02  0.1201594E+00
         21   -1    0    0  503  502  0.00000000000E+00  0.00000000000E+00  0.23663179885E+03  0.23663179885E+03  0.00000000000E+00 0.  1.
          4   -1    0    0  502    0 -0.00000000000E+00 -0.00000000000E+00 -0.54874113126E+03  0.54874113126E+03  0.00000000000E+00 0. -1.
         21    1    1    2  503  501 -0.12469900761E+02 -0.14856861440E+03  0.20144453963E+03  0.25061531109E+03  0.00000000000E+00 0.  1.
          4    1    1    2  501    0  0.12469900761E+02  0.14856861440E+03 -0.51355387203E+03  0.53475761901E+03  0.00000000000E+00 0. -1.
<mgrwt>
<rscale>  2 0.14909102E+03</rscale>
<asrwt>0</asrwt>
<pdfrwt beam="1">  1       21 0.36404892E-01 0.14909102E+03</pdfrwt>
<pdfrwt beam="2">  1        4 0.84421712E-01 0.14909102E+03</pdfrwt>
<totfact> 0.38587172E+02</totfact>
</mgrwt>
</event>
<event>
 4    1  0.5045766E+003  0.1171128E+03  0.7546771E-02  0.1247938E+00
         21   -1    0    0  501  502  0.00000000000E+00  0.00000000000E+00  0.18216089515E+02  0.18216089515E+02  0.00000000000E+00 0. -1.
          2   -1    0    0  503    0 -0.00000000000E+00 -0.00000000000E+00 -0.94890688117E+03  0.94890688117E+03  0.00000000000E+00 0. -1.
         21    1    1    2  503  502  0.45882340635E+01 -0.11702284879E+03 -0.24558732456E+03  0.27208184985E+03  0.00000000000E+00 0. -1.
          2    1    1    2  501    0 -0.45882340635E+01  0.11702284879E+03 -0.68510346710E+03  0.69504112084E+03  0.00000000000E+00 0. -1.
<mgrwt>
<rscale>  2 0.11711276E+03</rscale>
<asrwt>0</asrwt>
<pdfrwt beam="1">  1       21 0.28024756E-02 0.11711276E+03</pdfrwt>
<pdfrwt beam="2">  1        2 0.14598566E+00 0.11711276E+03</pdfrwt>
<totfact> 0.25058498E+05</totfact>
</mgrwt>
</event>
<event>
 4    1  0.5045766E+003  0.1444841E+03  0.7546771E-02  0.1207419E+00
         21   -1    0    0  501  502  0.00000000000E+00  0.00000000000E+00  0.17543597184E+03  0.17543597184E+03  0.00000000000E+00 0.  1.
          1   -1    0    0  503    0 -0.00000000000E+00 -0.00000000000E+00 -0.14425573894E+03  0.14425573894E+03  0.00000000000E+00 0.  1.
         21    1    1    2  503  502 -0.14394490632E+03  0.12470875180E+02  0.82482203168E+02  0.16636998715E+03  0.00000000000E+00 0.  1.
          1    1    1    2  501    0  0.14394490632E+03 -0.12470875180E+02 -0.51301970266E+02  0.15332172363E+03  0.00000000000E+00 0.  1.
<mgrwt>
<rscale>  2 0.14448411E+03</rscale>
<asrwt>0</asrwt>
<pdfrwt beam="1">  1       21 0.26990149E-01 0.14448411E+03</pdfrwt>
<pdfrwt beam="2">  1        1 0.22193191E-01 0.14448411E+03</pdfrwt>
<totfact> 0.31455719E+04</totfact>
</mgrwt>
</event>
<event>
 4    1  0.5045766E+003  0.1115747E+03  0.7546771E-02  0.1257681E+00
         -2   -1    0    0    0  501 -0.00000000000E+00  0.00000000000E+00  0.38256888664E+03  0.38256888664E+03  0.00000000000E+00 0.  1.
         21   -1    0    0  501  502  0.00000000000E+00 -0.00000000000E+00 -0.37731712872E+02  0.37731712872E+02  0.00000000000E+00 0. -1.
         21    1    1    2  503  502  0.10148665692E+03  0.46361353802E+02  0.94468175748E+02  0.14619559805E+03  0.00000000000E+00 0. -1.
         -2    1    1    2    0  503 -0.10148665692E+03 -0.46361353802E+02  0.25036899802E+03  0.27410500146E+03  0.00000000000E+00 0.  1.
<mgrwt>
<rscale>  2 0.11157471E+03</rscale>
<asrwt>0</asrwt>
<pdfrwt beam="2">  1       21 0.58048792E-02 0.11157471E+03</pdfrwt>
<pdfrwt beam="1">  1       -2 0.58856749E-01 0.11157471E+03</pdfrwt>
<totfact> 0.45732437E+04</totfact>
</mgrwt>
</event>
<event>
 4    1  0.5045766E+003  0.1512635E+03  0.7546771E-02  0.1198929E+00
         21   -1    0    0  501  502  0.00000000000E+00  0.00000000000E+00  0.16847563210E+02  0.16847563210E+02  0.00000000000E+00 0.  1.
          2   -1    0    0  503    0 -0.00000000000E+00 -0.00000000000E+00 -0.18829652751E+04  0.18829652751E+04  0.00000000000E+00 0.  1.
         21    1    1    2  503  502  0.40030456570E+02 -0.14587049020E+03 -0.43154316393E+03  0.45728562158E+03  0.00000000000E+00 0.  1.
          2    1    1    2  501    0 -0.40030456570E+02  0.14587049020E+03 -0.14345745479E+04  0.14425272167E+04  0.00000000000E+00 0.  1.
<mgrwt>
<rscale>  2 0.15126347E+03</rscale>
<asrwt>0</asrwt>
<pdfrwt beam="1">  1       21 0.25919318E-02 0.15126347E+03</pdfrwt>
<pdfrwt beam="2">  1        2 0.28968708E+00 0.15126347E+03</pdfrwt>
<totfact> 0.89785912E+04</totfact>
</mgrwt>
</event>
<event>
 4    1  0.5045766E+003  0.1178743E+03  0.7546771E-02  0.1246646E+00
         -2   -1    0    0    0  501 -0.00000000000E+00  0.00000000000E+00  0.79066683058E+03  0.79066683058E+03  0.00000000000E+00 0.  1.
         21   -1    0    0  503  502  0.00000000000E+00 -0.00000000000E+00 -0.38471769266E+02  0.38471769266E+02  0.00000000000E+00 0.  1.
         21    1    1    2  503  501 -0.61750476412E+02  0.10040529996E+03  0.70544233760E+02  0.13737115605E+03  0.00000000000E+00 0.  1.
         -2    1    1    2    0  502  0.61750476412E+02 -0.10040529996E+03  0.68165082755E+03  0.69176744380E+03  0.00000000000E+00 0.  1.
<mgrwt>
<rscale>  2 0.11787428E+03</rscale>
<asrwt>0</asrwt>
<pdfrwt beam="2">  1       21 0.59187343E-02 0.11787428E+03</pdfrwt>
<pdfrwt beam="1">  1       -2 0.12164104E+00 0.11787428E+03</pdfrwt>
<totfact> 0.88969587E+03</totfact>
</mgrwt>
</event>
<event>
 4    1  0.5045766E+003  0.1471577E+03  0.7546771E-02  0.1204010E+00
          1   -1    0    0  502    0 -0.00000000000E+00  0.00000000000E+00  0.15716068858E+04  0.15716068858E+04  0.00000000000E+00 0. -1.
         21   -1    0    0  503  502  0.00000000000E+00 -0.00000000000E+00 -0.11720241159E+03  0.11720241159E+03  0.00000000000E+00 0.  1.
         21    1    1    2  503  501  0.70418772431E+02  0.12921531482E+03 -0.66013760269E+02  0.16128613592E+03  0.00000000000E+00 0.  1.
          1    1    1    2  501    0 -0.70418772431E+02 -0.12921531482E+03  0.15204182345E+04  0.15275231615E+04  0.00000000000E+00 0. -1.
<mgrwt>
<rscale>  2 0.14715774E+03</rscale>
<asrwt>0</asrwt>
<pdfrwt beam="2">  1       21 0.18031141E-01 0.14715774E+03</pdfrwt>
<pdfrwt beam="1">  1        1 0.24178566E+00 0.14715774E+03</pdfrwt>
<totfact> 0.20984184E+03</totfact>
</mgrwt>
</event>
<event>
 4    1  0.5045766E+003  0.1755701E+03  0.7546771E-02  0.1172160E+00
         21   -1    0    0  501  502  0.00000000000E+00  0.00000000000E+00  0.63764642851E+02  0.63764642851E+02  0.00000000000E+00 0. -1.
          1   -1    0    0  503    0 -0.00000000000E+00 -0.00000000000E+00 -0.68705284445E+03  0.68705284445E+03  0.00000000000E+00 0. -1.
         21    1    1    2  503  502  0.10098061281E+03 -0.14362378733E+03 -0.10726474499E+03  0.20574402049E+03  0.00000000000E+00 0. -1.
          1    1    1    2  501    0 -0.10098061281E+03  0.14362378733E+03 -0.51602345661E+03  0.54507346681E+03  0.00000000000E+00 0. -1.
<mgrwt>
<rscale>  2 0.17557015E+03</rscale>
<asrwt>0</asrwt>
<pdfrwt beam="1">  1       21 0.98099450E-02 0.17557015E+03</pdfrwt>
<pdfrwt beam="2">  1        1 0.10570044E+00 0.17557015E+03</pdfrwt>
<totfact> 0.27133743E+04</totfact>
</mgrwt>
</event>
<event>
 4    1  0.5045766E+003  0.1020485E+03  0.7546771E-02  0.1276046E+00
         -2   -1    0    0    0  501 -0.00000000000E+00  0.00000000000E+00  0.67218597483E+02  0.67218597483E+02  0.00000000000E+00 0.  1.
         21   -1    0    0  501  502  0.00000000000E+00 -0.00000000000E+00 -0.27074550437E+03  0.27074550437E+03  0.00000000000E+00 0. -1.
         21    1    1    2  503  502  0.10118877922E+03  0.13218556797E+02 -0.21228604405E+03  0.23554036551E+03  0.00000000000E+00 0. -1.
         -2    1    1    2    0  503 -0.10118877922E+03 -0.13218556797E+02  0.87591371658E+01  0.10242373635E+03  0.00000000000E+00 0.  1.
<mgrwt>
<rscale>  2 0.10204851E+03</rscale>
<asrwt>0</asrwt>
<pdfrwt beam="2">  1       21 0.41653155E-01 0.10204851E+03</pdfrwt>
<pdfrwt beam="1">  1       -2 0.10341323E-01 0.10204851E+03</pdfrwt>
<totfact> 0.27142508E+04</totfact>
</mgrwt>
</event>
<event>
 4    1  0.5045766E+003  0.1073736E+03  0.7546771E-02  0.1265512E+00
          4   -1    0    0  502    0 -0.00000000000E+00  0.00000000000E+00  0.30940903086E+03  0.30940903086E+03  0.00000000000E+00 0.  1.
         21   -1    0    0  503  502  0.00000000000E+00 -0.00000000000E+00 -0.45341950704E+02  0.45341950704E+02  0.00000000000E+00 0.  1.
         21    1    1    2  503  501  0.10443151310E+03 -0.24963089699E+02  0.57155102967E+02  0.12163799806E+03  0.00000000000E+00 0.  1.
          4    1    1    2  501    0 -0.10443151310E+03  0.24963089699E+02  0.20691197719E+03  0.23311298351E+03  0.00000000000E+00 0.  1.
<mgrwt>
<rscale>  2 0.10737363E+03</rscale>
<asrwt>0</asrwt>
<pdfrwt beam="2">  1       21 0.69756849E-02 0.10737363E+03</pdfrwt>
<pdfrwt beam="1">  1        4 0.47601388E-01 0.10737363E+03</pdfrwt>
<totfact> 0.25783971E+04</totfact>
</mgrwt>
</event>
<event>
 4    1  0.5045766E+003  0.1090179E+03  0.7546771E-02  0.1262399E+00
          2   -1    0    0  502    0 -0.00000000000E+00  0.00000000000E+00  0.96640010340E+03  0.96640010340E+03  0.00000000000E+00 0.  1.
         21   -1    0    0  503  502  0.00000000000E+00 -0.00000000000E+00 -0.97638427156E+02  0.97638427156E+02  0.00000000000E+00 0. -1.
         21    1    1    2  503  501  0.35258634911E+02 -0.10315875904E+03 -0.63005762986E+02  0.12591515823E+03  0.00000000000E+00 0. -1.
          2    1    1    2  501    0 -0.35258634911E+02  0.10315875904E+03  0.93176743923E+03  0.93812337232E+03  0.00000000000E+00 0.  1.
<mgrwt>
<rscale>  2 0.10901789E+03</rscale>
<asrwt>0</asrwt>
<pdfrwt beam="2">  1       21 0.15021297E-01 0.10901789E+03</pdfrwt>
<pdfrwt beam="1">  1        2 0.14867693E+00 0.10901789E+03</pdfrwt>
<totfact> 0.14023283E+04</totfact>
</mgrwt>
</event>
<event>
 4    1  0.5045766E+003  0.1657596E+03  0.7546771E-02  0.1182343E+00
          3   -1    0    0  503    0 -0.00000000000E+00  0.00000000000E+00  0.41292673106E+02  0.41292673106E+02  0.00000000000E+00 0. -1.
         21   -1    0    0  501  502  0.00000000000E+00 -0.00000000000E+00 -0.76394809732E+03  0.76394809732E+03  0.00000000000E+00 0. -1.
         21    1    1    2  503  502  0.15357382559E+03  0.62380576784E+02 -0.50593227623E+03  0.53239433167E+03  0.00000000000E+00 0. -1.
          3    1    1    2  501    0 -0.15357382559E+03 -0.62380576784E+02 -0.21672314799E+03  0.27284643876E+03  0.00000000000E+00 0. -1.
<mgrwt>
<rscale>  2 0.16575963E+03</rscale>
<asrwt>0</asrwt>
<pdfrwt beam="2">  1       21 0.11753047E+00 0.16575963E+03</pdfrwt>
<pdfrwt beam="1">  1        3 0.63527192E-02 0.16575963E+03</pdfrwt>
<totfact> 0.42474577E+03</totfact>
</mgrwt>
</event>
<event>
 4    1  0.5045766E+003  0.1225486E+03  0.7546771E-02  0.1238951E+00
         21   -1    0    0  501  502  0.00000000000E+00  0.00000000000E+00  0.12920369367E+03  0.12920369367E+03  0.00000000000E+00 0.  1.
          1   -1    0    0  503    0 -0.00000000000E+00 -0.00000000000E+00 -0.51382571100E+03  0.51382571100E+03  0.00000000000E+00 0.  1.
         21    1    1    2  503  502  0.16208335220E+02 -0.12147197162E+03  0.90509152387E+02  0.15234847122E+03  0.00000000000E+00 0.  1.
          1    1    1    2  501    0 -0.16208335220E+02  0.12147197162E+03 -0.47513116972E+03  0.49068093345E+03  0.00000000000E+00 0.  1.
<mgrwt>
<rscale>  2 0.12254856E+03</rscale>
<asrwt>0</asrwt>
<pdfrwt beam="1">  1       21 0.19877492E-01 0.12254856E+03</pdfrwt>
<pdfrwt beam="2">  1        1 0.79050109E-01 0.12254856E+03</pdfrwt>
<totfact> 0.11408739E+04</totfact>
</mgrwt>
</event>
<event>
 4    1  0.5045766E+003  0.1720909E+03  0.7546771E-02  0.1175685E+00
         21   -1    0    0  503  502  0.00000000000E+00  0.00000000000E+00  0.10682536227E+03  0.10682536227E+03  0.00000000000E+00 0. -1.
          2   -1    0    0  502    0 -0.00000000000E+00 -0.00000000000E+00 -0.57413648820E+03  0.57413648820E+03  0.00000000000E+00 0. -1.
         21    1    1    2  503  501 -0.15763672013E+03 -0.69035851385E+02  0.11191244738E+02  0.17245442374E+03  0.00000000000E+00 0. -1.
          2    1    1    2  501    0  0.15763672013E+03  0.69035851385E+02 -0.47850237067E+03  0.50850742674E+03  0.00000000000E+00 0. -1.
<mgrwt>
<rscale>  2 0.17209092E+03</rscale>
<asrwt>0</asrwt>
<pdfrwt beam="1">  1       21 0.16434671E-01 0.17209092E+03</pdfrwt>
<pdfrwt beam="2">  1        2 0.88328691E-01 0.17209092E+03</pdfrwt>
<totfact> 0.22212227E+04</totfact>
</mgrwt>
</event>
<event>
 4    1  0.5045766E+003  0.1253310E+03  0.7546771E-02  0.1234553E+00
          2   -1    0    0  503    0 -0.00000000000E+00  0.00000000000E+00  0.20079480874E+04  0.20079480874E+04  0.00000000000E+00 0. -1.
         21   -1    0    0  501  502  0.00000000000E+00 -0.00000000000E+00 -0.15474267003E+02  0.15474267003E+02  0.00000000000E+00 0. -1.
         21    1    1    2  503  502 -0.10818152138E+03  0.63281962910E+02  0.28482220048E+03  0.31117765711E+03  0.00000000000E+00 0. -1.
          2    1    1    2  501    0  0.10818152138E+03 -0.63281962910E+02  0.17076516200E+04  0.17122446973E+04  0.00000000000E+00 0. -1.
<mgrwt>
<rscale>  2 0.12533096E+03</rscale>
<asrwt>0</asrwt>
<pdfrwt beam="2">  1       21 0.23806580E-02 0.12533096E+03</pdfrwt>
<pdfrwt beam="1">  1        2 0.30891488E+00 0.12533096E+03</pdfrwt>
<totfact> 0.89315635E+04</totfact>
</mgrwt>
</event>
<event>
 4    1  0.5045766E+003  0.1140864E+03  0.7546771E-02  0.1253184E+00
         21   -1    0    0  503  502  0.00000000000E+00  0.00000000000E+00  0.26800711695E+03  0.26800711695E+03  0.00000000000E+00 0. -1.
         -1   -1    0    0    0  501 -0.00000000000E+00 -0.00000000000E+00 -0.52306796629E+02  0.52306796629E+02  0.00000000000E+00 0.  1.
         21    1    1    2  503  501  0.10484907609E+03 -0.44970871822E+02  0.15068718499E+03  0.18900353381E+03  0.00000000000E+00 0. -1.
         -1    1    1    2    0  502 -0.10484907609E+03  0.44970871822E+02  0.65013135323E+02  0.13131037977E+03  0.00000000000E+00 0.  1.
<mgrwt>
<rscale>  2 0.11408641E+03</rscale>
<asrwt>0</asrwt>
<pdfrwt beam="1">  1       21 0.41231863E-01 0.11408641E+03</pdfrwt>
<pdfrwt beam="2">  1       -1 0.80471997E-02 0.11408641E+03</pdfrwt>
<totfact> 0.42520497E+04</totfact>
</mgrwt>
</event>
<event>
 4    1  0.5045766E+003  0.1006927E+03  0.7546771E-02  0.1278846E+00
          2   -1    0    0  502    0 -0.00000000000E+00  0.00000000000E+00  0.35389650300E+03  0.35389650300E+03  0.00000000000E+00 0. -1.
         21   -1    0    0  503  502  0.00000000000E+00 -0.00000000000E+00 -0.81987025889E+02  0.81987025889E+02  0.00000000000E+00 0. -1.
         21    1    1    2  503  501  0.97339827510E+02  0.25767759110E+02 -0.39830993297E+02  0.10828447468E+03  0.00000000000E+00 0. -1.
          2    1    1    2  501    0 -0.97339827510E+02 -0.25767759110E+02  0.31174047041E+03  0.32759905422E+03  0.00000000000E+00 0. -1.
<mgrwt>
<rscale>  2 0.10069270E+03</rscale>
<asrwt>0</asrwt>
<pdfrwt beam="2">  1       21 0.12613389E-01 0.10069270E+03</pdfrwt>
<pdfrwt beam="1">  1        2 0.54445615E-01 0.10069270E+03</pdfrwt>
<totfact> 0.60412931E+04</totfact>
</mgrwt>
</event>
<event>
 4    1  0.5045766E+003  0.1174787E+03  0.7546771E-02  0.1247315E+00
          2   -1    0    0  503    0 -0.00000000000E+00  0.00000000000E+00  0.28185063306E+03  0.28185063306E+03  0.00000000000E+00 0. -1.
         21   -1    0    0  501  502  0.00000000000E+00 -0.00000000000E+00 -0.54779482772E+02  0.54779482772E+02  0.00000000000E+00 0. -1.
         21    1    1    2  503  502  0.11452975431E+03  0.26156734976E+02  0.58706177540E+02  0.13133032661E+03  0.00000000000E+00 0. -1.
          2    1    1    2  501    0 -0.11452975431E+03 -0.26156734976E+02  0.16836497274E+03  0.20529978922E+03  0.00000000000E+00 0. -1.
<mgrwt>
<rscale>  2 0.11747868E+03</rscale>
<asrwt>0</asrwt>
<pdfrwt beam="2">  1       21 0.84276129E-02 0.11747868E+03</pdfrwt>
<pdfrwt beam="1">  1        2 0.43361635E-01 0.11747868E+03</pdfrwt>
<totfact> 0.15599388E+05</totfact>
</mgrwt>
</event>
<event>
 4    1  0.5045766E+003  0.1956725E+03  0.7546771E-02  0.1153442E+00
          1   -1    0    0  503    0 -0.00000000000E+00  0.00000000000E+00  0.10487935394E+04  0.10487935394E+04  0.00000000000E+00 0. -1.
         21   -1    0    0  501  502  0.00000000000E+00 -0.00000000000E+00 -0.38641196099E+02  0.38641196099E+02  0.00000000000E+00 0.  1.
         21    1    1    2  503  502 -0.13712174146E+03  0.13958992157E+03  0.37727875367E+03  0.42500232488E+03  0.00000000000E+00 0.  1.
          1    1    1    2  501    0  0.13712174146E+03 -0.13958992157E+03  0.63287358965E+03  0.66243241064E+03  0.00000000000E+00 0. -1.
<mgrwt>
<rscale>  2 0.19567248E+03</rscale>
<asrwt>0</asrwt>
<pdfrwt beam="2">  1       21 0.59448002E-02 0.19567248E+03</pdfrwt>
<pdfrwt beam="1">  1        1 0.16135283E+00 0.19567248E+03</pdfrwt>
<totfact> 0.33138347E+04</totfact>
</mgrwt>
</event>
<event>
 4    1  0.5045766E+003  0.1244819E+03  0.7546771E-02  0.1235881E+00
          2   -1    0    0  503    0 -0.00000000000E+00  0.00000000000E+00  0.12933474190E+04  0.12933474190E+04  0.00000000000E+00 0.  1.
         21   -1    0    0  501  502  0.00000000000E+00 -0.00000000000E+00 -0.79031093872E+02  0.79031093872E+02  0.00000000000E+00 0. -1.
         21    1    1    2  503  502  0.12445651743E+03 -0.25131813208E+01 -0.24881377856E+02  0.12694417583E+03  0.00000000000E+00 0. -1.
          2    1    1    2  501    0 -0.12445651743E+03  0.25131813208E+01  0.12391977030E+04  0.12454343371E+04  0.00000000000E+00 0.  1.
<mgrwt>
<rscale>  2 0.12448189E+03</rscale>
<asrwt>0</asrwt>
<pdfrwt beam="2">  1       21 0.12158631E-01 0.12448189E+03</pdfrwt>
<pdfrwt beam="1">  1        2 0.19897651E+00 0.12448189E+03</pdfrwt>
<totfact> 0.13291342E+04</totfact>
</mgrwt>
</event>
<event>
 4    1  0.5045766E+003  0.1071443E+03  0.7546771E-02  0.1265951E+00
          2   -1    0    0  502    0 -0.00000000000E+00  0.00000000000E+00  0.87114499578E+03  0.87114499578E+03  0.00000000000E+00 0.  1.
         21   -1    0    0  503  502  0.00000000000E+00 -0.00000000000E+00 -0.93151494571E+02  0.93151494571E+02  0.00000000000E+00 0.  1.
         21    1    1    2  503  501 -0.90388250111E+02  0.57531387847E+02 -0.57747402176E+02  0.12171548301E+03  0.00000000000E+00 0.  1.
          2    1    1    2  501    0  0.90388250111E+02 -0.57531387847E+02  0.83574090339E+03  0.84258100734E+03  0.00000000000E+00 0.  1.
<mgrwt>
<rscale>  2 0.10714428E+03</rscale>
<asrwt>0</asrwt>
<pdfrwt beam="2">  1       21 0.14331000E-01 0.10714428E+03</pdfrwt>
<pdfrwt beam="1">  1        2 0.13402230E+00 0.10714428E+03</pdfrwt>
<totfact> 0.17478293E+04</totfact>
</mgrwt>
</event>
<event>
 4    1  0.5045766E+003  0.1073383E+03  0.7546771E-02  0.1265580E+00
          1   -1    0    0  503    0 -0.00000000000E+00  0.00000000000E+00  0.13626224633E+03  0.13626224633E+03  0.00000000000E+00 0. -1.
         21   -1    0    0  501  502  0.00000000000E+00 -0.00000000000E+00 -0.11348979283E+03  0.11348979283E+03  0.00000000000E+00 0.  1.
         21    1    1    2  503  502 -0.42186417053E+02  0.98700651132E+02 -0.51668645538E+02  0.11912666053E+03  0.00000000000E+00 0.  1.
          1    1    1    2  501    0  0.42186417053E+02 -0.98700651132E+02  0.74441099036E+02  0.13062537863E+03  0.00000000000E+00 0. -1.
<mgrwt>
<rscale>  2 0.10733831E+03</rscale>
<asrwt>0</asrwt>
<pdfrwt beam="2">  1       21 0.17459968E-01 0.10733831E+03</pdfrwt>
<pdfrwt beam="1">  1        1 0.20963423E-01 0.10733831E+03</pdfrwt>
<totfact> 0.75601415E+04</totfact>
</mgrwt>
</event>
<event>
 4    1  0.5045766E+003  0.1148208E+03  0.7546771E-02  0.1251894E+00
          2   -1    0    0  503    0 -0.00000000000E+00  0.00000000000E+00  0.57645133366E+03  0.57645133366E+03  0.00000000000E+00 0. -1.
         21   -1    0    0  501  502  0.00000000000E+00 -0.00000000000E+00 -0.33859586040E+02  0.33859586040E+02  0.00000000000E+00 0.  1.
         21    1    1    2  503  502  0.10634520665E+03 -0.43295689506E+02  0.97452539876E+02  0.15060151804E+03  0.00000000000E+00 0.  1.
          2    1    1    2  501    0 -0.10634520665E+03  0.43295689506E+02  0.44513920774E+03  0.45970940166E+03  0.00000000000E+00 0. -1.
<mgrwt>
<rscale>  2 0.11482082E+03</rscale>
<asrwt>0</asrwt>
<pdfrwt beam="2">  1       21 0.52091675E-02 0.11482082E+03</pdfrwt>
<pdfrwt beam="1">  1        2 0.88684813E-01 0.11482082E+03</pdfrwt>
<totfact> 0.16406223E+05</totfact>
</mgrwt>
</event>
<event>
 4    1  0.5045766E+003  0.1187731E+03  0.7546771E-02  0.1245135E+00
          2   -1    0    0  502    0 -0.00000000000E+00  0.00000000000E+00  0.11936002039E+04  0.11936002039E+04  0.00000000000E+00 0. -1.
         21   -1    0    0  503  502  0.00000000000E+00 -0.00000000000E+00 -0.13254684861E+02  0.13254684861E+02  0.00000000000E+00 0. -1.
         21    1    1    2  503  501 -0.11136696793E+03 -0.41284928895E+02  0.39157042489E+03  0.40918754202E+03  0.00000000000E+00 0. -1.
          2    1    1    2  501    0  0.11136696793E+03  0.41284928895E+02  0.78877509419E+03  0.79766734677E+03  0.00000000000E+00 0. -1.
<mgrwt>
<rscale>  2 0.11877309E+03</rscale>
<asrwt>0</asrwt>
<pdfrwt beam="2">  1       21 0.20391832E-02 0.11877309E+03</pdfrwt>
<pdfrwt beam="1">  1        2 0.18363072E+00 0.11877309E+03</pdfrwt>
<totfact> 0.30334306E+05</totfact>
</mgrwt>
</event>
<event>
 4    1  0.5045766E+003  0.1230342E+03  0.7546771E-02  0.1238174E+00
          1   -1    0    0  503    0 -0.00000000000E+00  0.00000000000E+00  0.59792345041E+03  0.59792345041E+03  0.00000000000E+00 0. -1.
         21   -1    0    0  501  502  0.00000000000E+00 -0.00000000000E+00 -0.76723957526E+02  0.76723957526E+02  0.00000000000E+00 0.  1.
         21    1    1    2  503  502 -0.10477153591E+03  0.64500601191E+02 -0.15517737589E+02  0.12400888061E+03  0.00000000000E+00 0.  1.
          1    1    1    2  501    0  0.10477153591E+03 -0.64500601191E+02  0.53671723048E+03  0.55063852733E+03  0.00000000000E+00 0. -1.
<mgrwt>
<rscale>  2 0.12303415E+03</rscale>
<asrwt>0</asrwt>
<pdfrwt beam="2">  1       21 0.11803686E-01 0.12303415E+03</pdfrwt>
<pdfrwt beam="1">  1        1 0.91988220E-01 0.12303415E+03</pdfrwt>
<totfact> 0.23882976E+04</totfact>
</mgrwt>
</event>
<event>
 4    1  0.5045766E+003  0.1229435E+03  0.7546771E-02  0.1238319E+00
          3   -1    0    0  502    0 -0.00000000000E+00  0.00000000000E+00  0.32682983047E+03  0.32682983047E+03  0.00000000000E+00 0.  1.
         21   -1    0    0  503  502  0.00000000000E+00 -0.00000000000E+00 -0.16287425088E+03  0.16287425088E+03  0.00000000000E+00 0. -1.
         21    1    1    2  503  501 -0.49940477912E+02  0.11234340805E+03 -0.12521585453E+03  0.17548248600E+03  0.00000000000E+00 0. -1.
          3    1    1    2  501    0  0.49940477912E+02 -0.11234340805E+03  0.28917143413E+03  0.31422159535E+03  0.00000000000E+00 0.  1.
<mgrwt>
<rscale>  2 0.12294345E+03</rscale>
<asrwt>0</asrwt>
<pdfrwt beam="2">  1       21 0.25057577E-01 0.12294345E+03</pdfrwt>
<pdfrwt beam="1">  1        3 0.50281512E-01 0.12294345E+03</pdfrwt>
<totfact> 0.29145350E+03</totfact>
</mgrwt>
</event>
<event>
 4    1  0.5045766E+003  0.1252469E+03  0.7546771E-02  0.1234684E+00
         21   -1    0    0  503  502  0.00000000000E+00  0.00000000000E+00  0.64370660441E+03  0.64370660441E+03  0.00000000000E+00 0. -1.
         -3   -1    0    0    0  501 -0.00000000000E+00 -0.00000000000E+00 -0.29080168766E+02  0.29080168766E+02  0.00000000000E+00 0. -1.
         21    1    1    2  503  501  0.10347081600E+03 -0.70573176914E+02  0.44270492492E+03  0.46008089899E+03  0.00000000000E+00 0. -1.
         -3    1    1    2    0  502 -0.10347081600E+03  0.70573176914E+02  0.17192151072E+03  0.21270587418E+03  0.00000000000E+00 0. -1.
<mgrwt>
<rscale>  2 0.12524689E+03</rscale>
<asrwt>0</asrwt>
<pdfrwt beam="1">  1       21 0.99031775E-01 0.12524689E+03</pdfrwt>
<pdfrwt beam="2">  1       -3 0.44738726E-02 0.12524689E+03</pdfrwt>
<totfact> 0.11088653E+04</totfact>
</mgrwt>
</event>
<event>
 4    1  0.5045766E+003  0.1125395E+03  0.7546771E-02  0.1255938E+00
         21   -1    0    0  503  502  0.00000000000E+00  0.00000000000E+00  0.64881960503E+02  0.64881960503E+02  0.00000000000E+00 0.  1.
         -1   -1    0    0    0  501 -0.00000000000E+00 -0.00000000000E+00 -0.64705371485E+03  0.64705371485E+03  0.00000000000E+00 0.  1.
         21    1    1    2  503  501  0.56236277321E+02  0.97481332753E+02  0.63807568343E+01  0.11272019863E+03  0.00000000000E+00 0.  1.
         -1    1    1    2    0  502 -0.56236277321E+02 -0.97481332753E+02 -0.58855251119E+03  0.59921547672E+03  0.00000000000E+00 0.  1.
<mgrwt>
<rscale>  2 0.11253946E+03</rscale>
<asrwt>0</asrwt>
<pdfrwt beam="1">  1       21 0.99818405E-02 0.11253946E+03</pdfrwt>
<pdfrwt beam="2">  1       -1 0.99546721E-01 0.11253946E+03</pdfrwt>
<totfact> 0.78521419E+03</totfact>
</mgrwt>
</event>
<event>
 4    1  0.5045766E+003  0.1090225E+03  0.7546771E-02  0.1262391E+00
          1   -1    0    0  503    0 -0.00000000000E+00  0.00000000000E+00  0.10345862214E+04  0.10345862214E+04  0.00000000000E+00 0. -1.
         21   -1    0    0  501  502  0.00000000000E+00 -0.00000000000E+00 -0.13543824848E+02  0.13543824848E+02  0.00000000000E+00 0. -1.
         21    1    1    2  503  502 -0.33220943361E+02  0.10383768619E+03  0.30637119018E+03  0.32519102436E+03  0.00000000000E+00 0. -1.
          1    1    1    2  501    0  0.33220943361E+02 -0.10383768619E+03  0.71467120636E+03  0.72293902187E+03  0.00000000000E+00 0. -1.
<mgrwt>
<rscale>  2 0.10902246E+03</rscale>
<asrwt>0</asrwt>
<pdfrwt beam="2">  1       21 0.20836662E-02 0.10902246E+03</pdfrwt>
<pdfrwt beam="1">  1        1 0.15916705E+00 0.10902246E+03</pdfrwt>
<totfact> 0.19262994E+05</totfact>
</mgrwt>
</event>
<event>
 4    1  0.5045766E+003  0.1144034E+03  0.7546771E-02  0.1252626E+00
          4   -1    0    0  502    0 -0.00000000000E+00  0.00000000000E+00  0.16661405716E+03  0.16661405716E+03  0.00000000000E+00 0.  1.
         21   -1    0    0  503  502  0.00000000000E+00 -0.00000000000E+00 -0.88573690584E+02  0.88573690584E+02  0.00000000000E+00 0.  1.
         21    1    1    2  503  501  0.62493770949E+02 -0.95826192636E+02 -0.38952714431E+01  0.11446966298E+03  0.00000000000E+00 0.  1.
          4    1    1    2  501    0 -0.62493770949E+02  0.95826192636E+02  0.81935638017E+02  0.14071808476E+03  0.00000000000E+00 0.  1.
<mgrwt>
<rscale>  2 0.11440337E+03</rscale>
<asrwt>0</asrwt>
<pdfrwt beam="2">  1       21 0.13626722E-01 0.11440337E+03</pdfrwt>
<pdfrwt beam="1">  1        4 0.25632932E-01 0.11440337E+03</pdfrwt>
<totfact> 0.26643241E+04</totfact>
</mgrwt>
</event>
<event>
 4    1  0.5045766E+003  0.1349179E+03  0.7546771E-02  0.1220336E+00
          4   -1    0    0  503    0 -0.00000000000E+00  0.00000000000E+00  0.46982300942E+03  0.46982300942E+03  0.00000000000E+00 0. -1.
         21   -1    0    0  501  502  0.00000000000E+00 -0.00000000000E+00 -0.13232000167E+03  0.13232000167E+03  0.00000000000E+00 0.  1.
         21    1    1    2  503  502 -0.13476601726E+03 -0.63993309267E+01 -0.84434157938E+02  0.15916016421E+03  0.00000000000E+00 0.  1.
          4    1    1    2  501    0  0.13476601726E+03  0.63993309267E+01  0.42193716568E+03  0.44298284688E+03  0.00000000000E+00 0. -1.
<mgrwt>
<rscale>  2 0.13491787E+03</rscale>
<asrwt>0</asrwt>
<pdfrwt beam="2">  1       21 0.20356924E-01 0.13491787E+03</pdfrwt>
<pdfrwt beam="1">  1        4 0.72280462E-01 0.13491787E+03</pdfrwt>
<totfact> 0.16491130E+03</totfact>
</mgrwt>
</event>
<event>
 4    1  0.5045766E+003  0.1180255E+03  0.7546771E-02  0.1246390E+00
         21   -1    0    0  501  502  0.00000000000E+00  0.00000000000E+00  0.22153448454E+02  0.22153448454E+02  0.00000000000E+00 0. -1.
          1   -1    0    0  503    0 -0.00000000000E+00 -0.00000000000E+00 -0.69764505472E+03  0.69764505472E+03  0.00000000000E+00 0.  1.
         21    1    1    2  503  502  0.10766781359E+02  0.11753336939E+03 -0.22468546163E+03  0.25379829229E+03  0.00000000000E+00 0. -1.
          1    1    1    2  501    0 -0.10766781359E+02 -0.11753336939E+03 -0.45080614463E+03  0.46600021088E+03  0.00000000000E+00 0.  1.
<mgrwt>
<rscale>  2 0.11802549E+03</rscale>
<asrwt>0</asrwt>
<pdfrwt beam="1">  1       21 0.34082235E-02 0.11802549E+03</pdfrwt>
<pdfrwt beam="2">  1        1 0.10732999E+00 0.11802549E+03</pdfrwt>
<totfact> 0.15944588E+05</totfact>
</mgrwt>
</event>
<event>
 4    1  0.5045766E+003  0.1266391E+03  0.7546771E-02  0.1232530E+00
         -4   -1    0    0    0  501 -0.00000000000E+00  0.00000000000E+00  0.62031397975E+03  0.62031397975E+03  0.00000000000E+00 0. -1.
         21   -1    0    0  503  502  0.00000000000E+00 -0.00000000000E+00 -0.20344699196E+03  0.20344699196E+03  0.00000000000E+00 0. -1.
         21    1    1    2  503  501 -0.12552521964E+03  0.16759513115E+02 -0.17638750192E+03  0.21714053717E+03  0.00000000000E+00 0. -1.
         -4    1    1    2    0  502  0.12552521964E+03 -0.16759513115E+02  0.59325448971E+03  0.60662043455E+03  0.00000000000E+00 0. -1.
<mgrwt>
<rscale>  2 0.12663910E+03</rscale>
<asrwt>0</asrwt>
<pdfrwt beam="2">  1       21 0.31299538E-01 0.12663910E+03</pdfrwt>
<pdfrwt beam="1">  1       -4 0.95432919E-01 0.12663910E+03</pdfrwt>
<totfact> 0.39282523E+02</totfact>
</mgrwt>
</event>
<event>
 4    1  0.5045766E+003  0.1043066E+03  0.7546771E-02  0.1271492E+00
         21   -1    0    0  503  502  0.00000000000E+00  0.00000000000E+00  0.10872557329E+02  0.10872557329E+02  0.00000000000E+00 0.  1.
          2   -1    0    0  502    0 -0.00000000000E+00 -0.00000000000E+00 -0.13753006616E+04  0.13753006616E+04  0.00000000000E+00 0. -1.
         21    1    1    2  503  501  0.90312746337E+02 -0.52186901377E+02 -0.32048022601E+03  0.33702735808E+03  0.00000000000E+00 0.  1.
          2    1    1    2  501    0 -0.90312746337E+02  0.52186901377E+02 -0.10439478783E+04  0.10491458609E+04  0.00000000000E+00 0. -1.
<mgrwt>
<rscale>  2 0.10430659E+03</rscale>
<asrwt>0</asrwt>
<pdfrwt beam="1">  1       21 0.16727021E-02 0.10430659E+03</pdfrwt>
<pdfrwt beam="2">  1        2 0.21158460E+00 0.10430659E+03</pdfrwt>
<totfact> 0.33145865E+05</totfact>
</mgrwt>
</event>
<event>
 4    1  0.5045766E+003  0.3010333E+03  0.7546771E-02  0.1084725E+00
         -2   -1    0    0    0  501 -0.00000000000E+00  0.00000000000E+00  0.78725751815E+03  0.78725751815E+03  0.00000000000E+00 0.  1.
         21   -1    0    0  503  502  0.00000000000E+00 -0.00000000000E+00 -0.15599728971E+03  0.15599728971E+03  0.00000000000E+00 0. -1.
         21    1    1    2  503  501 -0.78329558323E+02  0.29066391850E+03  0.74175294245E+02  0.31003710665E+03  0.00000000000E+00 0. -1.
         -2    1    1    2    0  502  0.78329558323E+02 -0.29066391850E+03  0.55708493419E+03  0.63321770121E+03  0.00000000000E+00 0.  1.
<mgrwt>
<rscale>  2 0.30103328E+03</rscale>
<asrwt>0</asrwt>
<pdfrwt beam="2">  1       21 0.23999583E-01 0.30103328E+03</pdfrwt>
<pdfrwt beam="1">  1       -2 0.12111654E+00 0.30103328E+03</pdfrwt>
<totfact> 0.71059318E+02</totfact>
</mgrwt>
</event>
<event>
 4    1  0.5045766E+003  0.1353783E+03  0.7546771E-02  0.1219687E+00
         21   -1    0    0  501  502  0.00000000000E+00  0.00000000000E+00  0.20991736939E+02  0.20991736939E+02  0.00000000000E+00 0.  1.
          1   -1    0    0  503    0 -0.00000000000E+00 -0.00000000000E+00 -0.11709636771E+04  0.11709636771E+04  0.00000000000E+00 0.  1.
         21    1    1    2  503  502  0.13071808604E+03  0.35214652413E+02 -0.27438680821E+03  0.30596635482E+03  0.00000000000E+00 0.  1.
          1    1    1    2  501    0 -0.13071808604E+03 -0.35214652413E+02 -0.87558513196E+03  0.88598905923E+03  0.00000000000E+00 0.  1.
<mgrwt>
<rscale>  2 0.13537832E+03</rscale>
<asrwt>0</asrwt>
<pdfrwt beam="1">  1       21 0.32294973E-02 0.13537832E+03</pdfrwt>
<pdfrwt beam="2">  1        1 0.18014830E+00 0.13537832E+03</pdfrwt>
<totfact> 0.76001428E+04</totfact>
</mgrwt>
</event>
<event>
 4    1  0.5045766E+003  0.1098062E+03  0.7546771E-02  0.1260929E+00
         -2   -1    0    0    0  501 -0.00000000000E+00  0.00000000000E+00  0.56600479316E+03  0.56600479316E+03  0.00000000000E+00 0.  1.
         21   -1    0    0  503  502  0.00000000000E+00 -0.00000000000E+00 -0.30791898188E+02  0.30791898188E+02  0.00000000000E+00 0.  1.
         21    1    1    2  503  501 -0.78610196448E+02 -0.76667031159E+02  0.10195535696E+03  0.14984088716E+03  0.00000000000E+00 0.  1.
         -2    1    1    2    0  502  0.78610196448E+02  0.76667031159E+02  0.43325753801E+03  0.44695580418E+03  0.00000000000E+00 0.  1.
<mgrwt>
<rscale>  2 0.10980618E+03</rscale>
<asrwt>0</asrwt>
<pdfrwt beam="2">  1       21 0.47372155E-02 0.10980618E+03</pdfrwt>
<pdfrwt beam="1">  1       -2 0.87077653E-01 0.10980618E+03</pdfrwt>
<totfact> 0.27931482E+04</totfact>
</mgrwt>
</event>
<event>
 4    1  0.5045766E+003  0.1205156E+03  0.7546771E-02  0.1242249E+00
          2   -1    0    0  502    0 -0.00000000000E+00  0.00000000000E+00  0.12709733903E+04  0.12709733903E+04  0.00000000000E+00 0. -1.
         21   -1    0    0  503  502  0.00000000000E+00 -0.00000000000E+00 -0.83140438178E+03  0.83140438178E+03  0.00000000000E+00 0. -1.
         21    1    1    2  503  501  0.11500431239E+03  0.36028029929E+02 -0.82415520597E+03  0.83292005279E+03  0.00000000000E+00 0. -1.
          2    1    1    2  501    0 -0.11500431239E+03 -0.36028029929E+02  0.12637242145E+04  0.12694577193E+04  0.00000000000E+00 0. -1.
<mgrwt>
<rscale>  2 0.12051560E+03</rscale>
<asrwt>0</asrwt>
<pdfrwt beam="2">  1       21 0.12790837E+00 0.12051560E+03</pdfrwt>
<pdfrwt beam="1">  1        2 0.19553437E+00 0.12051560E+03</pdfrwt>
<totfact> 0.11445585E+02</totfact>
</mgrwt>
</event>
<event>
 4    1  0.5045766E+003  0.2324560E+03  0.7546771E-02  0.1124923E+00
          2   -1    0    0  503    0 -0.00000000000E+00  0.00000000000E+00  0.13429293578E+04  0.13429293578E+04  0.00000000000E+00 0. -1.
         21   -1    0    0  501  502  0.00000000000E+00 -0.00000000000E+00 -0.40465439589E+02  0.40465439589E+02  0.00000000000E+00 0. -1.
         21    1    1    2  503  502 -0.76719325292E+02  0.21943097518E+03  0.59929155618E+03  0.64279559507E+03  0.00000000000E+00 0. -1.
          2    1    1    2  501    0  0.76719325292E+02 -0.21943097518E+03  0.70317236204E+03  0.74059920232E+03  0.00000000000E+00 0. -1.
<mgrwt>
<rscale>  2 0.23245603E+03</rscale>
<asrwt>0</asrwt>
<pdfrwt beam="2">  1       21 0.62254533E-02 0.23245603E+03</pdfrwt>
<pdfrwt beam="1">  1        2 0.20660448E+00 0.23245603E+03</pdfrwt>
<totfact> 0.39129273E+04</totfact>
</mgrwt>
</event>
<event>
 4    1  0.5045766E+003  0.1055286E+03  0.7546771E-02  0.1269082E+00
         21   -1    0    0  501  502  0.00000000000E+00  0.00000000000E+00  0.14862050336E+02  0.14862050336E+02  0.00000000000E+00 0.  1.
          1   -1    0    0  503    0 -0.00000000000E+00 -0.00000000000E+00 -0.18163921035E+04  0.18163921035E+04  0.00000000000E+00 0.  1.
         21    1    1    2  503  502 -0.99945810480E+02 -0.33869269202E+02 -0.19896624045E+03  0.22521957567E+03  0.00000000000E+00 0.  1.
          1    1    1    2  501    0  0.99945810480E+02  0.33869269202E+02 -0.16025638127E+04  0.16060345782E+04  0.00000000000E+00 0.  1.
<mgrwt>
<rscale>  2 0.10552863E+03</rscale>
<asrwt>0</asrwt>
<pdfrwt beam="1">  1       21 0.22864684E-02 0.10552863E+03</pdfrwt>
<pdfrwt beam="2">  1        1 0.27944505E+00 0.10552863E+03</pdfrwt>
<totfact> 0.50882580E+04</totfact>
</mgrwt>
</event>
<event>
 4    1  0.5045766E+003  0.1043532E+03  0.7546771E-02  0.1271399E+00
         -2   -1    0    0    0  501 -0.00000000000E+00  0.00000000000E+00  0.18577505083E+03  0.18577505083E+03  0.00000000000E+00 0.  1.
         21   -1    0    0  501  502  0.00000000000E+00 -0.00000000000E+00 -0.95095402440E+02  0.95095402440E+02  0.00000000000E+00 0.  1.
         21    1    1    2  503  502 -0.71960865459E+02 -0.75572669820E+02 -0.41639016293E+02  0.11235391519E+03  0.00000000000E+00 0.  1.
         -2    1    1    2    0  503  0.71960865459E+02  0.75572669820E+02  0.13231866468E+03  0.16851653808E+03  0.00000000000E+00 0.  1.
<mgrwt>
<rscale>  2 0.10435322E+03</rscale>
<asrwt>0</asrwt>
<pdfrwt beam="2">  1       21 0.14630062E-01 0.10435322E+03</pdfrwt>
<pdfrwt beam="1">  1       -2 0.28580777E-01 0.10435322E+03</pdfrwt>
<totfact> 0.36146150E+04</totfact>
</mgrwt>
</event>
<event>
 4    1  0.5045766E+003  0.1060381E+03  0.7546771E-02  0.1268088E+00
         21   -1    0    0  501  502  0.00000000000E+00  0.00000000000E+00  0.68710972996E+02  0.68710972996E+02  0.00000000000E+00 0.  1.
          3   -1    0    0  503    0 -0.00000000000E+00 -0.00000000000E+00 -0.10085627595E+04  0.10085627595E+04  0.00000000000E+00 0.  1.
         21    1    1    2  503  502  0.19561268286E+02 -0.10421823050E+03  0.23080209575E+02  0.10852086832E+03  0.00000000000E+00 0.  1.
          3    1    1    2  501    0 -0.19561268286E+02  0.10421823050E+03 -0.96293199611E+03  0.96875286422E+03  0.00000000000E+00 0.  1.
<mgrwt>
<rscale>  2 0.10603812E+03</rscale>
<asrwt>0</asrwt>
<pdfrwt beam="1">  1       21 0.10570919E-01 0.10603812E+03</pdfrwt>
<pdfrwt beam="2">  1        3 0.15516351E+00 0.10603812E+03</pdfrwt>
<totfact> 0.11454018E+03</totfact>
</mgrwt>
</event>
<event>
 4    1  0.5045766E+003  0.2305056E+03  0.7546771E-02  0.1126284E+00
          3   -1    0    0  502    0 -0.00000000000E+00  0.00000000000E+00  0.14503711204E+03  0.14503711204E+03  0.00000000000E+00 0.  1.
         21   -1    0    0  503  502  0.00000000000E+00 -0.00000000000E+00 -0.57925383157E+03  0.57925383157E+03  0.00000000000E+00 0.  1.
         21    1    1    2  503  501 -0.20270747133E+03 -0.10973833586E+03 -0.43666726778E+03  0.49377234029E+03  0.00000000000E+00 0.  1.
          3    1    1    2  501    0  0.20270747133E+03  0.10973833586E+03  0.24505482439E+01  0.23051860332E+03  0.00000000000E+00 0.  1.
<mgrwt>
<rscale>  2 0.23050558E+03</rscale>
<asrwt>0</asrwt>
<pdfrwt beam="2">  1       21 0.89115972E-01 0.23050558E+03</pdfrwt>
<pdfrwt beam="1">  1        3 0.22313402E-01 0.23050558E+03</pdfrwt>
<totfact> 0.97192248E+02</totfact>
</mgrwt>
</event>
<event>
 4    1  0.5045766E+003  0.1219522E+03  0.7546771E-02  0.1239911E+00
          1   -1    0    0  502    0 -0.00000000000E+00  0.00000000000E+00  0.24983331843E+03  0.24983331843E+03  0.00000000000E+00 0.  1.
         21   -1    0    0  503  502  0.00000000000E+00 -0.00000000000E+00 -0.75416663797E+02  0.75416663797E+02  0.00000000000E+00 0. -1.
         21    1    1    2  503  501 -0.54307008029E+02  0.10919287658E+03  0.12566335320E+02  0.12259791271E+03  0.00000000000E+00 0. -1.
          1    1    1    2  501    0  0.54307008029E+02 -0.10919287658E+03  0.16185031931E+03  0.20265206951E+03  0.00000000000E+00 0.  1.
<mgrwt>
<rscale>  2 0.12195218E+03</rscale>
<asrwt>0</asrwt>
<pdfrwt beam="2">  1       21 0.11602564E-01 0.12195218E+03</pdfrwt>
<pdfrwt beam="1">  1        1 0.38435895E-01 0.12195218E+03</pdfrwt>
<totfact> 0.74297674E+04</totfact>
</mgrwt>
</event>
<event>
 4    1  0.5045766E+003  0.1125975E+03  0.7546771E-02  0.1255834E+00
         21   -1    0    0  501  502  0.00000000000E+00  0.00000000000E+00  0.78442358281E+01  0.78442358281E+01  0.00000000000E+00 0. -1.
          2   -1    0    0  503    0 -0.00000000000E+00 -0.00000000000E+00 -0.24910992146E+04  0.24910992146E+04  0.00000000000E+00 0.  1.
         21    1    1    2  503  502 -0.20460498980E+02  0.11072290468E+03 -0.50117161096E+03  0.51366445981E+03  0.00000000000E+00 0. -1.
          2    1    1    2  501    0  0.20460498980E+02 -0.11072290468E+03 -0.19820833678E+04  0.19852789907E+04  0.00000000000E+00 0.  1.
<mgrwt>
<rscale>  2 0.11259749E+03</rscale>
<asrwt>0</asrwt>
<pdfrwt beam="1">  1       21 0.12068052E-02 0.11259749E+03</pdfrwt>
<pdfrwt beam="2">  1        2 0.38324612E+00 0.11259749E+03</pdfrwt>
<totfact> 0.14924828E+05</totfact>
</mgrwt>
</event>
<event>
 4    1  0.5045766E+003  0.1083627E+03  0.7546771E-02  0.1263632E+00
         21   -1    0    0  503  502  0.00000000000E+00  0.00000000000E+00  0.37190321908E+02  0.37190321908E+02  0.00000000000E+00 0. -1.
          2   -1    0    0  502    0 -0.00000000000E+00 -0.00000000000E+00 -0.58656469659E+03  0.58656469659E+03  0.00000000000E+00 0.  1.
         21    1    1    2  503  501  0.31490793237E+01  0.10831691483E+03 -0.62768008809E+02  0.12522896497E+03  0.00000000000E+00 0. -1.
          2    1    1    2  501    0 -0.31490793237E+01 -0.10831691483E+03 -0.48660636588E+03  0.49852605353E+03  0.00000000000E+00 0.  1.
<mgrwt>
<rscale>  2 0.10836268E+03</rscale>
<asrwt>0</asrwt>
<pdfrwt beam="1">  1       21 0.57215882E-02 0.10836268E+03</pdfrwt>
<pdfrwt beam="2">  1        2 0.90240720E-01 0.10836268E+03</pdfrwt>
<totfact> 0.13713140E+05</totfact>
</mgrwt>
</event>
<event>
 4    1  0.5045766E+003  0.1025273E+03  0.7546771E-02  0.1275069E+00
         21   -1    0    0  501  502  0.00000000000E+00  0.00000000000E+00  0.26483802806E+02  0.26483802806E+02  0.00000000000E+00 0.  1.
          4   -1    0    0  503    0 -0.00000000000E+00 -0.00000000000E+00 -0.92507245665E+03  0.92507245665E+03  0.00000000000E+00 0.  1.
         21    1    1    2  503  502  0.79846652077E+02 -0.64314608492E+02 -0.89795302970E+02  0.13629032669E+03  0.00000000000E+00 0.  1.
          4    1    1    2  501    0 -0.79846652077E+02  0.64314608492E+02 -0.80879335087E+03  0.81526593276E+03  0.00000000000E+00 0.  1.
<mgrwt>
<rscale>  2 0.10252735E+03</rscale>
<asrwt>0</asrwt>
<pdfrwt beam="1">  1       21 0.40744307E-02 0.10252735E+03</pdfrwt>
<pdfrwt beam="2">  1        4 0.14231886E+00 0.10252735E+03</pdfrwt>
<totfact> 0.55460834E+03</totfact>
</mgrwt>
</event>
<event>
 4    1  0.5045766E+003  0.1002073E+03  0.7546771E-02  0.1279861E+00
         21   -1    0    0  503  502  0.00000000000E+00  0.00000000000E+00  0.85594069403E+01  0.85594069403E+01  0.00000000000E+00 0. -1.
         -2   -1    0    0    0  501 -0.00000000000E+00 -0.00000000000E+00 -0.17256333671E+04  0.17256333671E+04  0.00000000000E+00 0. -1.
         21    1    1    2  503  501 -0.79498921089E+02  0.61003418703E+02 -0.36790995997E+03  0.38131251512E+03  0.00000000000E+00 0. -1.
         -2    1    1    2    0  502  0.79498921089E+02 -0.61003418703E+02 -0.13491640002E+04  0.13528802589E+04  0.00000000000E+00 0. -1.
<mgrwt>
<rscale>  2 0.10020726E+03</rscale>
<asrwt>0</asrwt>
<pdfrwt beam="1">  1       21 0.13168324E-02 0.10020726E+03</pdfrwt>
<pdfrwt beam="2">  1       -2 0.26548194E+00 0.10020726E+03</pdfrwt>
<totfact> 0.11732980E+04</totfact>
</mgrwt>
</event>
<event>
 4    1  0.5045766E+003  0.1102550E+03  0.7546771E-02  0.1260098E+00
          2   -1    0    0  502    0 -0.00000000000E+00  0.00000000000E+00  0.11872183971E+04  0.11872183971E+04  0.00000000000E+00 0.  1.
         21   -1    0    0  503  502  0.00000000000E+00 -0.00000000000E+00 -0.11769026232E+02  0.11769026232E+02  0.00000000000E+00 0.  1.
         21    1    1    2  503  501  0.28914726526E+01  0.11021708398E+03  0.37158452683E+03  0.38759673218E+03  0.00000000000E+00 0.  1.
          2    1    1    2  501    0 -0.28914726526E+01 -0.11021708398E+03  0.80386484408E+03  0.81139069119E+03  0.00000000000E+00 0.  1.
<mgrwt>
<rscale>  2 0.11025501E+03</rscale>
<asrwt>0</asrwt>
<pdfrwt beam="2">  1       21 0.18106204E-02 0.11025501E+03</pdfrwt>
<pdfrwt beam="1">  1        2 0.18264889E+00 0.11025501E+03</pdfrwt>
<totfact> 0.36915027E+05</totfact>
</mgrwt>
</event>
<event>
 4    1  0.5045766E+003  0.1267780E+03  0.7546771E-02  0.1232317E+00
         21   -1    0    0  503  502  0.00000000000E+00  0.00000000000E+00  0.11699576397E+03  0.11699576397E+03  0.00000000000E+00 0. -1.
          1   -1    0    0  502    0 -0.00000000000E+00 -0.00000000000E+00 -0.13945596474E+03  0.13945596474E+03  0.00000000000E+00 0. -1.
         21    1    1    2  503  501 -0.11640813170E+03 -0.50217484739E+02 -0.26882173062E+02  0.12959668255E+03  0.00000000000E+00 0. -1.
          1    1    1    2  501    0  0.11640813170E+03  0.50217484739E+02  0.44219722959E+01  0.12685504616E+03  0.00000000000E+00 0. -1.
<mgrwt>
<rscale>  2 0.12677795E+03</rscale>
<asrwt>0</asrwt>
<pdfrwt beam="1">  1       21 0.17999348E-01 0.12677795E+03</pdfrwt>
<pdfrwt beam="2">  1        1 0.21454764E-01 0.12677795E+03</pdfrwt>
<totfact> 0.69844248E+04</totfact>
</mgrwt>
</event>
<event>
 4    1  0.5045766E+003  0.1087179E+03  0.7546771E-02  0.1262963E+00
          2   -1    0    0  502    0 -0.00000000000E+00  0.00000000000E+00  0.39324073837E+03  0.39324073837E+03  0.00000000000E+00 0.  1.
         21   -1    0    0  503  502  0.00000000000E+00 -0.00000000000E+00 -0.35082552101E+03  0.35082552101E+03  0.00000000000E+00 0. -1.
         21    1    1    2  503  501 -0.10870888007E+03  0.14039249714E+01 -0.33453179689E+03  0.35175433862E+03  0.00000000000E+00 0. -1.
          2    1    1    2  501    0  0.10870888007E+03 -0.14039249714E+01  0.37694701425E+03  0.39231192075E+03  0.00000000000E+00 0.  1.
<mgrwt>
<rscale>  2 0.10871795E+03</rscale>
<asrwt>0</asrwt>
<pdfrwt beam="2">  1       21 0.53973157E-01 0.10871795E+03</pdfrwt>
<pdfrwt beam="1">  1        2 0.60498575E-01 0.10871795E+03</pdfrwt>
<totfact> 0.34137929E+03</totfact>
</mgrwt>
</event>
<event>
 4    1  0.5045766E+003  0.1295183E+03  0.7546771E-02  0.1228172E+00
          2   -1    0    0  502    0 -0.00000000000E+00  0.00000000000E+00  0.12271820355E+04  0.12271820355E+04  0.00000000000E+00 0.  1.
         21   -1    0    0  503  502  0.00000000000E+00 -0.00000000000E+00 -0.14955532803E+02  0.14955532803E+02  0.00000000000E+00 0.  1.
         21    1    1    2  503  501  0.59838441613E+02 -0.11486670758E+03  0.42399226422E+03  0.44333332801E+03  0.00000000000E+00 0.  1.
          2    1    1    2  501    0 -0.59838441613E+02  0.11486670758E+03  0.78823423848E+03  0.79880424030E+03  0.00000000000E+00 0.  1.
<mgrwt>
<rscale>  2 0.12951834E+03</rscale>
<asrwt>0</asrwt>
<pdfrwt beam="2">  1       21 0.23008522E-02 0.12951834E+03</pdfrwt>
<pdfrwt beam="1">  1        2 0.18879716E+00 0.12951834E+03</pdfrwt>
<totfact> 0.23978300E+05</totfact>
</mgrwt>
</event>
<event>
 4    1  0.5045766E+003  0.1377875E+03  0.7546771E-02  0.1216337E+00
          2   -1    0    0  503    0 -0.00000000000E+00  0.00000000000E+00  0.33876923472E+04  0.33876923472E+04  0.00000000000E+00 0.  1.
         21   -1    0    0  501  502  0.00000000000E+00 -0.00000000000E+00 -0.24149320858E+02  0.24149320858E+02  0.00000000000E+00 0.  1.
         21    1    1    2  503  502  0.92993392187E+02  0.10167415422E+03  0.18684135427E+03  0.23215317420E+03  0.00000000000E+00 0.  1.
          2    1    1    2  501    0 -0.92993392187E+02 -0.10167415422E+03  0.31767016721E+04  0.31796884939E+04  0.00000000000E+00 0.  1.
<mgrwt>
<rscale>  2 0.13778753E+03</rscale>
<asrwt>0</asrwt>
<pdfrwt beam="2">  1       21 0.37152828E-02 0.13778753E+03</pdfrwt>
<pdfrwt beam="1">  1        2 0.52118306E+00 0.13778753E+03</pdfrwt>
<totfact> 0.73309698E+03</totfact>
</mgrwt>
</event>
<event>
 4    1  0.5045766E+003  0.1133489E+03  0.7546771E-02  0.1254491E+00
         21   -1    0    0  501  502  0.00000000000E+00  0.00000000000E+00  0.11339397421E+04  0.11339397421E+04  0.00000000000E+00 0. -1.
          4   -1    0    0  503    0 -0.00000000000E+00 -0.00000000000E+00 -0.65509028234E+02  0.65509028234E+02  0.00000000000E+00 0.  1.
         21    1    1    2  503  502  0.85749166768E+02  0.74128571457E+02  0.10796154707E+04  0.10855494135E+04  0.00000000000E+00 0. -1.
          4    1    1    2  501    0 -0.85749166768E+02 -0.74128571457E+02 -0.11184756754E+02  0.11389935685E+03  0.00000000000E+00 0.  1.
<mgrwt>
<rscale>  2 0.11334886E+03</rscale>
<asrwt>0</asrwt>
<pdfrwt beam="1">  1       21 0.17445225E+00 0.11334886E+03</pdfrwt>
<pdfrwt beam="2">  1        4 0.10078313E-01 0.11334886E+03</pdfrwt>
<totfact> 0.63506534E+02</totfact>
</mgrwt>
</event>
<event>
 4    1  0.5045766E+003  0.1394041E+03  0.7546771E-02  0.1214133E+00
         21   -1    0    0  501  502  0.00000000000E+00  0.00000000000E+00  0.47659943963E+03  0.47659943963E+03  0.00000000000E+00 0. -1.
         -1   -1    0    0    0  501 -0.00000000000E+00 -0.00000000000E+00 -0.85592289591E+02  0.85592289591E+02  0.00000000000E+00 0.  1.
         21    1    1    2  503  502  0.12124699063E+02 -0.13887583387E+03  0.39890700277E+03  0.42256396252E+03  0.00000000000E+00 0. -1.
         -1    1    1    2    0  503 -0.12124699063E+02  0.13887583387E+03 -0.78998527300E+01  0.13962776670E+03  0.00000000000E+00 0.  1.
<mgrwt>
<rscale>  2 0.13940411E+03</rscale>
<asrwt>0</asrwt>
<pdfrwt beam="1">  1       21 0.73322989E-01 0.13940411E+03</pdfrwt>
<pdfrwt beam="2">  1       -1 0.13168045E-01 0.13940411E+03</pdfrwt>
<totfact> 0.60037419E+03</totfact>
</mgrwt>
</event>
<event>
 4    1  0.5045766E+003  0.1066004E+03  0.7546771E-02  0.1266998E+00
         -3   -1    0    0    0  501 -0.00000000000E+00  0.00000000000E+00  0.21995463024E+03  0.21995463024E+03  0.00000000000E+00 0. -1.
         21   -1    0    0  503  502  0.00000000000E+00 -0.00000000000E+00 -0.13132893625E+03  0.13132893625E+03  0.00000000000E+00 0.  1.
         21    1    1    2  503  501 -0.83784657143E+02  0.65907372711E+02 -0.92485953733E+02  0.14112867245E+03  0.00000000000E+00 0.  1.
         -3    1    1    2    0  502  0.83784657143E+02 -0.65907372711E+02  0.18111164772E+03  0.21015489404E+03  0.00000000000E+00 0. -1.
<mgrwt>
<rscale>  2 0.10660042E+03</rscale>
<asrwt>0</asrwt>
<pdfrwt beam="2">  1       21 0.20204452E-01 0.10660042E+03</pdfrwt>
<pdfrwt beam="1">  1       -3 0.33839174E-01 0.10660042E+03</pdfrwt>
<totfact> 0.92808801E+03</totfact>
</mgrwt>
</event>
<event>
 4    1  0.5045766E+003  0.1360163E+03  0.7546771E-02  0.1218792E+00
         21   -1    0    0  503  502  0.00000000000E+00  0.00000000000E+00  0.31086423837E+02  0.31086423837E+02  0.00000000000E+00 0.  1.
          2   -1    0    0  502    0 -0.00000000000E+00 -0.00000000000E+00 -0.12556668213E+04  0.12556668213E+04  0.00000000000E+00 0. -1.
         21    1    1    2  503  501 -0.16879965442E+02 -0.13496481575E+03 -0.14565565366E+03  0.19928874571E+03  0.00000000000E+00 0.  1.
          2    1    1    2  501    0  0.16879965442E+02  0.13496481575E+03 -0.10789247438E+04  0.10874644994E+04  0.00000000000E+00 0. -1.
<mgrwt>
<rscale>  2 0.13601630E+03</rscale>
<asrwt>0</asrwt>
<pdfrwt beam="1">  1       21 0.47825275E-02 0.13601630E+03</pdfrwt>
<pdfrwt beam="2">  1        2 0.19317948E+00 0.13601630E+03</pdfrwt>
<totfact> 0.69261789E+04</totfact>
</mgrwt>
</event>
<event>
 4    1  0.5045766E+003  0.1037717E+03  0.7546771E-02  0.1272559E+00
         21   -1    0    0  501  502  0.00000000000E+00  0.00000000000E+00  0.19477799990E+03  0.19477799990E+03  0.00000000000E+00 0. -1.
         -1   -1    0    0    0  501 -0.00000000000E+00 -0.00000000000E+00 -0.43786690353E+03  0.43786690353E+03  0.00000000000E+00 0.  1.
         21    1    1    2  503  502 -0.29612162529E+02 -0.99456942228E+02  0.17413449798E+03  0.20271010561E+03  0.00000000000E+00 0. -1.
         -1    1    1    2    0  503  0.29612162529E+02  0.99456942228E+02 -0.41722340161E+03  0.42993479782E+03  0.00000000000E+00 0.  1.
<mgrwt>
<rscale>  2 0.10377169E+03</rscale>
<asrwt>0</asrwt>
<pdfrwt beam="1">  1       21 0.29965847E-01 0.10377169E+03</pdfrwt>
<pdfrwt beam="2">  1       -1 0.67364138E-01 0.10377169E+03</pdfrwt>
<totfact> 0.23715787E+03</totfact>
</mgrwt>
</event>
<event>
 4    1  0.5045766E+003  0.1021383E+03  0.7546771E-02  0.1275863E+00
         21   -1    0    0  501  502  0.00000000000E+00  0.00000000000E+00  0.62028373907E+01  0.62028373907E+01  0.00000000000E+00 0.  1.
          2   -1    0    0  503    0 -0.00000000000E+00 -0.00000000000E+00 -0.20533487215E+04  0.20533487215E+04  0.00000000000E+00 0.  1.
         21    1    1    2  503  502 -0.74765150921E+02 -0.69587379517E+02 -0.58555590373E+03  0.59439712951E+03  0.00000000000E+00 0.  1.
          2    1    1    2  501    0  0.74765150921E+02  0.69587379517E+02 -0.14615899804E+04  0.14651544294E+04  0.00000000000E+00 0.  1.
<mgrwt>
<rscale>  2 0.10213829E+03</rscale>
<asrwt>0</asrwt>
<pdfrwt beam="1">  1       21 0.95428131E-03 0.10213829E+03</pdfrwt>
<pdfrwt beam="2">  1        2 0.31590026E+00 0.10213829E+03</pdfrwt>
<totfact> 0.36329424E+05</totfact>
</mgrwt>
</event>
<event>
 4    1  0.5045766E+003  0.1627563E+03  0.7546771E-02  0.1185620E+00
         21   -1    0    0  503  502  0.00000000000E+00  0.00000000000E+00  0.77257192417E+02  0.77257192417E+02  0.00000000000E+00 0. -1.
          1   -1    0    0  502    0 -0.00000000000E+00 -0.00000000000E+00 -0.93714573503E+03  0.93714573503E+03  0.00000000000E+00 0. -1.
         21    1    1    2  503  501 -0.12502144648E+03  0.10420766841E+03 -0.26048866069E+02  0.16482761801E+03  0.00000000000E+00 0. -1.
          1    1    1    2  501    0  0.12502144648E+03 -0.10420766841E+03 -0.83383967654E+03  0.84957530944E+03  0.00000000000E+00 0. -1.
<mgrwt>
<rscale>  2 0.16275626E+03</rscale>
<asrwt>0</asrwt>
<pdfrwt beam="1">  1       21 0.11885721E-01 0.16275626E+03</pdfrwt>
<pdfrwt beam="2">  1        1 0.14417627E+00 0.16275626E+03</pdfrwt>
<totfact> 0.12059703E+04</totfact>
</mgrwt>
</event>
<event>
 4    1  0.5045766E+003  0.1081559E+03  0.7546771E-02  0.1264023E+00
          1   -1    0    0  502    0 -0.00000000000E+00  0.00000000000E+00  0.55943149725E+03  0.55943149725E+03  0.00000000000E+00 0.  1.
         21   -1    0    0  503  502  0.00000000000E+00 -0.00000000000E+00 -0.85654102130E+02  0.85654102130E+02  0.00000000000E+00 0.  1.
         21    1    1    2  503  501  0.10244419261E+03  0.34682788694E+02 -0.43534152636E+02  0.11658872534E+03  0.00000000000E+00 0.  1.
          1    1    1    2  501    0 -0.10244419261E+03 -0.34682788694E+02  0.51731154775E+03  0.52849687404E+03  0.00000000000E+00 0.  1.
<mgrwt>
<rscale>  2 0.10815594E+03</rscale>
<asrwt>0</asrwt>
<pdfrwt beam="2">  1       21 0.13177555E-01 0.10815594E+03</pdfrwt>
<pdfrwt beam="1">  1        1 0.86066382E-01 0.10815594E+03</pdfrwt>
<totfact> 0.21512839E+04</totfact>
</mgrwt>
</event>
<event>
 4    1  0.5045766E+003  0.1079388E+03  0.7546771E-02  0.1264435E+00
          2   -1    0    0  503    0 -0.00000000000E+00  0.00000000000E+00  0.48506223338E+03  0.48506223338E+03  0.00000000000E+00 0. -1.
         21   -1    0    0  501  502  0.00000000000E+00 -0.00000000000E+00 -0.29013531619E+02  0.29013531619E+02  0.00000000000E+00 0. -1.
         21    1    1    2  503  502 -0.63238991221E+01 -0.10775343444E+03  0.12138029795E+03  0.16243143496E+03  0.00000000000E+00 0. -1.
          2    1    1    2  501    0  0.63238991221E+01  0.10775343444E+03  0.33466840382E+03  0.35164433004E+03  0.00000000000E+00 0. -1.
<mgrwt>
<rscale>  2 0.10793885E+03</rscale>
<asrwt>0</asrwt>
<pdfrwt beam="2">  1       21 0.44636206E-02 0.10793885E+03</pdfrwt>
<pdfrwt beam="1">  1        2 0.74624953E-01 0.10793885E+03</pdfrwt>
<totfact> 0.25604413E+05</totfact>
</mgrwt>
</event>
<event>
 4    1  0.5045766E+003  0.1046954E+03  0.7546771E-02  0.1270721E+00
          2   -1    0    0  503    0 -0.00000000000E+00  0.00000000000E+00  0.76241767935E+03  0.76241767935E+03  0.00000000000E+00 0.  1.
         21   -1    0    0  501  502  0.00000000000E+00 -0.00000000000E+00 -0.23186020953E+02  0.23186020953E+02  0.00000000000E+00 0.  1.
         21    1    1    2  503  502 -0.86811126206E+02 -0.58523202698E+02  0.12749685335E+03  0.16497449652E+03  0.00000000000E+00 0.  1.
          2    1    1    2  501    0  0.86811126206E+02  0.58523202698E+02  0.61173480504E+03  0.62062920378E+03  0.00000000000E+00 0.  1.
<mgrwt>
<rscale>  2 0.10469545E+03</rscale>
<asrwt>0</asrwt>
<pdfrwt beam="2">  1       21 0.35670807E-02 0.10469545E+03</pdfrwt>
<pdfrwt beam="1">  1        2 0.11729501E+00 0.10469545E+03</pdfrwt>
<totfact> 0.22163958E+05</totfact>
</mgrwt>
</event>
<event>
 4    1  0.5045766E+003  0.1002471E+03  0.7546771E-02  0.1279777E+00
         -2   -1    0    0    0  501 -0.00000000000E+00  0.00000000000E+00  0.93951219685E+01  0.93951219685E+01  0.00000000000E+00 0. -1.
         21   -1    0    0  501  502  0.00000000000E+00 -0.00000000000E+00 -0.28294642683E+04  0.28294642683E+04  0.00000000000E+00 0. -1.
         21    1    1    2  503  502  0.54001272833E+01  0.10010151900E+03 -0.25294606429E+04  0.25314463494E+04  0.00000000000E+00 0. -1.
         -2    1    1    2    0  503 -0.54001272833E+01 -0.10010151900E+03 -0.29060850341E+03  0.30741304093E+03  0.00000000000E+00 0. -1.
<mgrwt>
<rscale>  2 0.10024707E+03</rscale>
<asrwt>0</asrwt>
<pdfrwt beam="2">  1       21 0.43530289E+00 0.10024707E+03</pdfrwt>
<pdfrwt beam="1">  1       -2 0.14454011E-02 0.10024707E+03</pdfrwt>
<totfact> 0.57200814E+02</totfact>
</mgrwt>
</event>
<event>
 4    1  0.5045766E+003  0.1381115E+03  0.7546771E-02  0.1215893E+00
          3   -1    0    0  502    0 -0.00000000000E+00  0.00000000000E+00  0.20086469751E+04  0.20086469751E+04  0.00000000000E+00 0. -1.
         21   -1    0    0  503  502  0.00000000000E+00 -0.00000000000E+00 -0.95520003697E+01  0.95520003697E+01  0.00000000000E+00 0. -1.
         21    1    1    2  503  501 -0.69418014021E+02 -0.11939816117E+03  0.10765819787E+04  0.10854047809E+04  0.00000000000E+00 0. -1.
          3    1    1    2  501    0  0.69418014021E+02  0.11939816117E+03  0.92251299610E+03  0.93279419463E+03  0.00000000000E+00 0. -1.
<mgrwt>
<rscale>  2 0.13811148E+03</rscale>
<asrwt>0</asrwt>
<pdfrwt beam="2">  1       21 0.14695401E-02 0.13811148E+03</pdfrwt>
<pdfrwt beam="1">  1        3 0.30902227E+00 0.13811148E+03</pdfrwt>
<totfact> 0.40670482E+03</totfact>
</mgrwt>
</event>
<event>
 4    1  0.5045766E+003  0.1010290E+03  0.7546771E-02  0.1278147E+00
          1   -1    0    0  502    0 -0.00000000000E+00  0.00000000000E+00  0.80536191684E+03  0.80536191684E+03  0.00000000000E+00 0. -1.
         21   -1    0    0  503  502  0.00000000000E+00 -0.00000000000E+00 -0.12311744549E+03  0.12311744549E+03  0.00000000000E+00 0.  1.
         21    1    1    2  503  501  0.80176013358E+02  0.61470930067E+02 -0.98574396542E+02  0.14115162066E+03  0.00000000000E+00 0.  1.
          1    1    1    2  501    0 -0.80176013358E+02 -0.61470930067E+02  0.78081886789E+03  0.78732774167E+03  0.00000000000E+00 0. -1.
<mgrwt>
<rscale>  2 0.10102905E+03</rscale>
<asrwt>0</asrwt>
<pdfrwt beam="2">  1       21 0.18941146E-01 0.10102905E+03</pdfrwt>
<pdfrwt beam="1">  1        1 0.12390183E+00 0.10102905E+03</pdfrwt>
<totfact> 0.67356622E+03</totfact>
</mgrwt>
</event>
<event>
 4    1  0.5045766E+003  0.1038249E+03  0.7546771E-02  0.1272452E+00
         21   -1    0    0  501  502  0.00000000000E+00  0.00000000000E+00  0.21642273839E+03  0.21642273839E+03  0.00000000000E+00 0. -1.
          1   -1    0    0  503    0 -0.00000000000E+00 -0.00000000000E+00 -0.19970938555E+04  0.19970938555E+04  0.00000000000E+00 0. -1.
         21    1    1    2  503  502  0.65170385656E+02 -0.80823466694E+02  0.20253415037E+03  0.22759546129E+03  0.00000000000E+00 0. -1.
          1    1    1    2  501    0 -0.65170385656E+02  0.80823466694E+02 -0.19832052675E+04  0.19859211326E+04  0.00000000000E+00 0. -1.
<mgrwt>
<rscale>  2 0.10382491E+03</rscale>
<asrwt>0</asrwt>
<pdfrwt beam="1">  1       21 0.33295805E-01 0.10382491E+03</pdfrwt>
<pdfrwt beam="2">  1        1 0.30724522E+00 0.10382491E+03</pdfrwt>
<totfact> 0.36967637E+02</totfact>
</mgrwt>
</event>
<event>
 4    1  0.5045766E+003  0.1303702E+03  0.7546771E-02  0.1226908E+00
         -4   -1    0    0    0  501 -0.00000000000E+00  0.00000000000E+00  0.26199143525E+03  0.26199143525E+03  0.00000000000E+00 0. -1.
         21   -1    0    0  501  502  0.00000000000E+00 -0.00000000000E+00 -0.96285560655E+02  0.96285560655E+02  0.00000000000E+00 0. -1.
         21    1    1    2  503  502  0.13035369487E+03  0.20717609401E+01 -0.19465651015E+02  0.13181536150E+03  0.00000000000E+00 0. -1.
         -4    1    1    2    0  503 -0.13035369487E+03 -0.20717609401E+01  0.18517152561E+03  0.22646163440E+03  0.00000000000E+00 0. -1.
<mgrwt>
<rscale>  2 0.13037016E+03</rscale>
<asrwt>0</asrwt>
<pdfrwt beam="2">  1       21 0.14813163E-01 0.13037016E+03</pdfrwt>
<pdfrwt beam="1">  1       -4 0.40306374E-01 0.13037016E+03</pdfrwt>
<totfact> 0.98185260E+03</totfact>
</mgrwt>
</event>
<event>
 4    1  0.5045766E+003  0.1210467E+03  0.7546771E-02  0.1241380E+00
         21   -1    0    0  501  502  0.00000000000E+00  0.00000000000E+00  0.66340625118E+01  0.66340625118E+01  0.00000000000E+00 0. -1.
          2   -1    0    0  503    0 -0.00000000000E+00 -0.00000000000E+00 -0.22738685417E+04  0.22738685417E+04  0.00000000000E+00 0. -1.
         21    1    1    2  503  502  0.45477332572E+02 -0.11217889634E+03 -0.94050122090E+03  0.94825884603E+03  0.00000000000E+00 0. -1.
          2    1    1    2  501    0 -0.45477332572E+02  0.11217889634E+03 -0.13267332583E+04  0.13322437582E+04  0.00000000000E+00 0. -1.
<mgrwt>
<rscale>  2 0.12104665E+03</rscale>
<asrwt>0</asrwt>
<pdfrwt beam="1">  1       21 0.10206251E-02 0.12104665E+03</pdfrwt>
<pdfrwt beam="2">  1        2 0.34982591E+00 0.12104665E+03</pdfrwt>
<totfact> 0.25246295E+05</totfact>
</mgrwt>
</event>
<event>
 4    1  0.5045766E+003  0.1581690E+03  0.7546771E-02  0.1190780E+00
          2   -1    0    0  502    0 -0.00000000000E+00  0.00000000000E+00  0.15221963752E+04  0.15221963752E+04  0.00000000000E+00 0. -1.
         21   -1    0    0  503  502  0.00000000000E+00 -0.00000000000E+00 -0.14786281299E+03  0.14786281299E+03  0.00000000000E+00 0. -1.
         21    1    1    2  503  501  0.11734442770E+03 -0.10605519001E+03 -0.10008906633E+03  0.18717702647E+03  0.00000000000E+00 0. -1.
          2    1    1    2  501    0 -0.11734442770E+03  0.10605519001E+03  0.14744226286E+04  0.14828821618E+04  0.00000000000E+00 0. -1.
<mgrwt>
<rscale>  2 0.15816895E+03</rscale>
<asrwt>0</asrwt>
<pdfrwt beam="2">  1       21 0.22748126E-01 0.15816895E+03</pdfrwt>
<pdfrwt beam="1">  1        2 0.23418405E+00 0.15816895E+03</pdfrwt>
<totfact> 0.31556477E+03</totfact>
</mgrwt>
</event>
<event>
 4    1  0.5045766E+003  0.1275479E+03  0.7546771E-02  0.1231140E+00
         21   -1    0    0  503  502  0.00000000000E+00  0.00000000000E+00  0.72327260175E+02  0.72327260175E+02  0.00000000000E+00 0. -1.
          2   -1    0    0  502    0 -0.00000000000E+00 -0.00000000000E+00 -0.23766538567E+03  0.23766538567E+03  0.00000000000E+00 0.  1.
         21    1    1    2  503  501  0.50095813505E+02  0.11729828559E+03 -0.46787922466E+02  0.13585870610E+03  0.00000000000E+00 0. -1.
          2    1    1    2  501    0 -0.50095813505E+02 -0.11729828559E+03 -0.11855020303E+03  0.17413393975E+03  0.00000000000E+00 0.  1.
<mgrwt>
<rscale>  2 0.12754795E+03</rscale>
<asrwt>0</asrwt>
<pdfrwt beam="1">  1       21 0.11127271E-01 0.12754795E+03</pdfrwt>
<pdfrwt beam="2">  1        2 0.36563905E-01 0.12754795E+03</pdfrwt>
<totfact> 0.11553091E+05</totfact>
</mgrwt>
</event>
<event>
 4    1  0.5045766E+003  0.1098745E+03  0.7546771E-02  0.1260802E+00
         21   -1    0    0  501  502  0.00000000000E+00  0.00000000000E+00  0.84000925532E+02  0.84000925532E+02  0.00000000000E+00 0.  1.
          1   -1    0    0  503    0 -0.00000000000E+00 -0.00000000000E+00 -0.15047376725E+03  0.15047376725E+03  0.00000000000E+00 0. -1.
         21    1    1    2  503  502 -0.96326085268E+02 -0.52855390087E+02 -0.83943679749E+01  0.11019470213E+03  0.00000000000E+00 0.  1.
          1    1    1    2  501    0  0.96326085268E+02  0.52855390087E+02 -0.58078473746E+02  0.12427999065E+03  0.00000000000E+00 0. -1.
<mgrwt>
<rscale>  2 0.10987451E+03</rscale>
<asrwt>0</asrwt>
<pdfrwt beam="1">  1       21 0.12923219E-01 0.10987451E+03</pdfrwt>
<pdfrwt beam="2">  1        1 0.23149810E-01 0.10987451E+03</pdfrwt>
<totfact> 0.11466823E+05</totfact>
</mgrwt>
</event>
<event>
 4    1  0.5045766E+003  0.1350230E+03  0.7546771E-02  0.1220187E+00
         21   -1    0    0  501  502  0.00000000000E+00  0.00000000000E+00  0.18327455211E+02  0.18327455211E+02  0.00000000000E+00 0.  1.
          2   -1    0    0  503    0 -0.00000000000E+00 -0.00000000000E+00 -0.14590528612E+04  0.14590528612E+04  0.00000000000E+00 0.  1.
         21    1    1    2  503  502 -0.13476024613E+03 -0.84197627097E+01 -0.30365840204E+03  0.33232460257E+03  0.00000000000E+00 0.  1.
          2    1    1    2  501    0  0.13476024613E+03  0.84197627097E+01 -0.11370670039E+04  0.11450557138E+04  0.00000000000E+00 0.  1.
<mgrwt>
<rscale>  2 0.13502302E+03</rscale>
<asrwt>0</asrwt>
<pdfrwt beam="1">  1       21 0.28196091E-02 0.13502302E+03</pdfrwt>
<pdfrwt beam="2">  1        2 0.22446962E+00 0.13502302E+03</pdfrwt>
<totfact> 0.12950729E+05</totfact>
</mgrwt>
</event>
<event>
 4    1  0.5045766E+003  0.1997576E+03  0.7546771E-02  0.1149944E+00
          1   -1    0    0  503    0 -0.00000000000E+00  0.00000000000E+00  0.82136319825E+03  0.82136319825E+03  0.00000000000E+00 0.  1.
         21   -1    0    0  501  502  0.00000000000E+00 -0.00000000000E+00 -0.51833705631E+02  0.51833705631E+02  0.00000000000E+00 0. -1.
         21    1    1    2  503  502  0.74078264371E+02 -0.18551416315E+03  0.27540386756E+03  0.34022108143E+03  0.00000000000E+00 0. -1.
          1    1    1    2  501    0 -0.74078264371E+02  0.18551416315E+03  0.49412562506E+03  0.53297582245E+03  0.00000000000E+00 0.  1.
<mgrwt>
<rscale>  2 0.19975759E+03</rscale>
<asrwt>0</asrwt>
<pdfrwt beam="2">  1       21 0.79744168E-02 0.19975759E+03</pdfrwt>
<pdfrwt beam="1">  1        1 0.12636356E+00 0.19975759E+03</pdfrwt>
<totfact> 0.29810757E+04</totfact>
</mgrwt>
</event>
<event>
 4    1  0.5045766E+003  0.2151391E+03  0.7546771E-02  0.1137560E+00
         21   -1    0    0  501  502  0.00000000000E+00  0.00000000000E+00  0.25373556451E+03  0.25373556451E+03  0.00000000000E+00 0.  1.
          2   -1    0    0  503    0 -0.00000000000E+00 -0.00000000000E+00 -0.64829535109E+03  0.64829535109E+03  0.00000000000E+00 0. -1.
         21    1    1    2  503  502  0.16578324300E+03 -0.13711588439E+03  0.18505396955E+03  0.28377776703E+03  0.00000000000E+00 0.  1.
          2    1    1    2  501    0 -0.16578324300E+03  0.13711588439E+03 -0.57961375614E+03  0.61825314857E+03  0.00000000000E+00 0. -1.
<mgrwt>
<rscale>  2 0.21513914E+03</rscale>
<asrwt>0</asrwt>
<pdfrwt beam="1">  1       21 0.39036240E-01 0.21513914E+03</pdfrwt>
<pdfrwt beam="2">  1        2 0.99737748E-01 0.21513914E+03</pdfrwt>
<totfact> 0.36355336E+03</totfact>
</mgrwt>
</event>
<event>
 4    1  0.5045766E+003  0.1071427E+03  0.7546771E-02  0.1265954E+00
         21   -1    0    0  503  502  0.00000000000E+00  0.00000000000E+00  0.17465391797E+02  0.17465391797E+02  0.00000000000E+00 0. -1.
          1   -1    0    0  502    0 -0.00000000000E+00 -0.00000000000E+00 -0.26557116246E+04  0.26557116246E+04  0.00000000000E+00 0.  1.
         21    1    1    2  503  501  0.16357954128E+02  0.10588666239E+03 -0.15967200868E+03  0.19228811271E+03  0.00000000000E+00 0. -1.
          1    1    1    2  501    0 -0.16357954128E+02 -0.10588666239E+03 -0.24785742241E+04  0.24808889036E+04  0.00000000000E+00 0.  1.
<mgrwt>
<rscale>  2 0.10714275E+03</rscale>
<asrwt>0</asrwt>
<pdfrwt beam="1">  1       21 0.26869857E-02 0.10714275E+03</pdfrwt>
<pdfrwt beam="2">  1        1 0.40857066E+00 0.10714275E+03</pdfrwt>
<totfact> 0.11405936E+04</totfact>
</mgrwt>
</event>
<event>
 4    1  0.5045766E+003  0.1222568E+03  0.7546771E-02  0.1239420E+00
         -3   -1    0    0    0  501 -0.00000000000E+00  0.00000000000E+00  0.19548055598E+03  0.19548055598E+03  0.00000000000E+00 0. -1.
         21   -1    0    0  503  502  0.00000000000E+00 -0.00000000000E+00 -0.78193849341E+02  0.78193849341E+02  0.00000000000E+00 0. -1.
         21    1    1    2  503  501  0.89435179718E+01  0.12192920548E+03  0.38275384263E+02  0.12810824604E+03  0.00000000000E+00 0. -1.
         -3    1    1    2    0  502 -0.89435179718E+01 -0.12192920548E+03  0.79011322379E+02  0.14556615928E+03  0.00000000000E+00 0. -1.
<mgrwt>
<rscale>  2 0.12225677E+03</rscale>
<asrwt>0</asrwt>
<pdfrwt beam="2">  1       21 0.12029823E-01 0.12225677E+03</pdfrwt>
<pdfrwt beam="1">  1       -3 0.30073932E-01 0.12225677E+03</pdfrwt>
<totfact> 0.29740915E+04</totfact>
</mgrwt>
</event>
<event>
 4    1  0.5045766E+003  0.1279015E+03  0.7546771E-02  0.1230603E+00
         -2   -1    0    0    0  501 -0.00000000000E+00  0.00000000000E+00  0.71857081014E+03  0.71857081014E+03  0.00000000000E+00 0. -1.
         21   -1    0    0  503  502  0.00000000000E+00 -0.00000000000E+00 -0.53570512794E+02  0.53570512794E+02  0.00000000000E+00 0. -1.
         21    1    1    2  503  501 -0.20678298242E+02  0.12621886267E+03  0.39739344436E+02  0.13393285186E+03  0.00000000000E+00 0. -1.
         -2    1    1    2    0  502  0.20678298242E+02 -0.12621886267E+03  0.62526095291E+03  0.63820847107E+03  0.00000000000E+00 0. -1.
<mgrwt>
<rscale>  2 0.12790150E+03</rscale>
<asrwt>0</asrwt>
<pdfrwt beam="2">  1       21 0.82416179E-02 0.12790150E+03</pdfrwt>
<pdfrwt beam="1">  1       -2 0.11054935E+00 0.12790150E+03</pdfrwt>
<totfact> 0.63481590E+03</totfact>
</mgrwt>
</event>
<event>
 4    1  0.5045766E+003  0.1312614E+03  0.7546771E-02  0.1225596E+00
          2   -1    0    0  502    0 -0.00000000000E+00  0.00000000000E+00  0.18160039119E+04  0.18160039119E+04  0.00000000000E+00 0.  1.
         21   -1    0    0  503  502  0.00000000000E+00 -0.00000000000E+00 -0.72062227799E+02  0.72062227799E+02  0.00000000000E+00 0. -1.
         21    1    1    2  503  501 -0.79269084400E+02  0.10462294964E+03 -0.77248090888E+01  0.13148848622E+03  0.00000000000E+00 0. -1.
          2    1    1    2  501    0  0.79269084400E+02 -0.10462294964E+03  0.17516664932E+04  0.17565776535E+04  0.00000000000E+00 0.  1.
<mgrwt>
<rscale>  2 0.13126138E+03</rscale>
<asrwt>0</asrwt>
<pdfrwt beam="2">  1       21 0.11086498E-01 0.13126138E+03</pdfrwt>
<pdfrwt beam="1">  1        2 0.27938518E+00 0.13126138E+03</pdfrwt>
<totfact> 0.83541572E+03</totfact>
</mgrwt>
</event>
<event>
 4    1  0.5045766E+003  0.1131263E+03  0.7546771E-02  0.1254888E+00
         21   -1    0    0  501  502  0.00000000000E+00  0.00000000000E+00  0.27593817095E+02  0.27593817095E+02  0.00000000000E+00 0. -1.
          1   -1    0    0  503    0 -0.00000000000E+00 -0.00000000000E+00 -0.90659258188E+03  0.90659258188E+03  0.00000000000E+00 0. -1.
         21    1    1    2  503  502  0.76579752401E+02 -0.83265189538E+02 -0.11305752183E+03  0.15993609195E+03  0.00000000000E+00 0. -1.
          1    1    1    2  501    0 -0.76579752401E+02  0.83265189538E+02 -0.76594124295E+03  0.77425030702E+03  0.00000000000E+00 0. -1.
<mgrwt>
<rscale>  2 0.11312626E+03</rscale>
<asrwt>0</asrwt>
<pdfrwt beam="1">  1       21 0.42452035E-02 0.11312626E+03</pdfrwt>
<pdfrwt beam="2">  1        1 0.13947575E+00 0.11312626E+03</pdfrwt>
<totfact> 0.74867610E+04</totfact>
</mgrwt>
</event>
<event>
 4    1  0.5045766E+003  0.1051110E+03  0.7546771E-02  0.1269901E+00
         21   -1    0    0  503  502  0.00000000000E+00  0.00000000000E+00  0.15349711957E+02  0.15349711957E+02  0.00000000000E+00 0. -1.
          1   -1    0    0  502    0 -0.00000000000E+00 -0.00000000000E+00 -0.99643596189E+03  0.99643596189E+03  0.00000000000E+00 0.  1.
         21    1    1    2  503  501  0.50537359889E+00 -0.10510975869E+03 -0.22397457629E+03  0.24741246452E+03  0.00000000000E+00 0. -1.
          1    1    1    2  501    0 -0.50537359889E+00  0.10510975869E+03 -0.75711167364E+03  0.76437320933E+03  0.00000000000E+00 0.  1.
<mgrwt>
<rscale>  2 0.10511097E+03</rscale>
<asrwt>0</asrwt>
<pdfrwt beam="1">  1       21 0.23614938E-02 0.10511097E+03</pdfrwt>
<pdfrwt beam="2">  1        1 0.15329787E+00 0.10511097E+03</pdfrwt>
<totfact> 0.16749678E+05</totfact>
</mgrwt>
</event>
<event>
 4    1  0.5045766E+003  0.2150833E+03  0.7546771E-02  0.1137603E+00
         21   -1    0    0  501  502  0.00000000000E+00  0.00000000000E+00  0.25565622134E+03  0.25565622134E+03  0.00000000000E+00 0. -1.
          2   -1    0    0  503    0 -0.00000000000E+00 -0.00000000000E+00 -0.12972332735E+04  0.12972332735E+04  0.00000000000E+00 0. -1.
         21    1    1    2  503  502  0.16798459441E+03 -0.13432054897E+03  0.19947072725E+03  0.29334178847E+03  0.00000000000E+00 0. -1.
          2    1    1    2  501    0 -0.16798459441E+03  0.13432054897E+03 -0.12410477794E+04  0.12595477064E+04  0.00000000000E+00 0. -1.
<mgrwt>
<rscale>  2 0.21508332E+03</rscale>
<asrwt>0</asrwt>
<pdfrwt beam="1">  1       21 0.39331726E-01 0.21508332E+03</pdfrwt>
<pdfrwt beam="2">  1        2 0.19957435E+00 0.21508332E+03</pdfrwt>
<totfact> 0.13876805E+03</totfact>
</mgrwt>
</event>
<event>
 4    1  0.5045766E+003  0.1102196E+03  0.7546771E-02  0.1260164E+00
         21   -1    0    0  501  502  0.00000000000E+00  0.00000000000E+00  0.38255523050E+02  0.38255523050E+02  0.00000000000E+00 0.  1.
          1   -1    0    0  503    0 -0.00000000000E+00 -0.00000000000E+00 -0.95304310147E+03  0.95304310147E+03  0.00000000000E+00 0.  1.
         21    1    1    2  503  502 -0.10080863759E+03  0.44564336420E+02 -0.52658756320E+02  0.12215279821E+03  0.00000000000E+00 0.  1.
          1    1    1    2  501    0  0.10080863759E+03 -0.44564336420E+02 -0.86212882210E+03  0.86914582631E+03  0.00000000000E+00 0.  1.
<mgrwt>
<rscale>  2 0.11021961E+03</rscale>
<asrwt>0</asrwt>
<pdfrwt beam="1">  1       21 0.58854650E-02 0.11021961E+03</pdfrwt>
<pdfrwt beam="2">  1        1 0.14662202E+00 0.11021961E+03</pdfrwt>
<totfact> 0.39988961E+04</totfact>
</mgrwt>
</event>
<event>
 4    1  0.5045766E+003  0.1297811E+03  0.7546771E-02  0.1227781E+00
          2   -1    0    0  502    0 -0.00000000000E+00  0.00000000000E+00  0.39519902992E+03  0.39519902992E+03  0.00000000000E+00 0. -1.
         21   -1    0    0  503  502  0.00000000000E+00 -0.00000000000E+00 -0.70656716431E+02  0.70656716431E+02  0.00000000000E+00 0.  1.
         21    1    1    2  503  501 -0.62407878491E+02  0.11379101320E+03  0.15543120426E+02  0.13070855586E+03  0.00000000000E+00 0.  1.
          2    1    1    2  501    0  0.62407878491E+02 -0.11379101320E+03  0.30899919307E+03  0.33514719050E+03  0.00000000000E+00 0. -1.
<mgrwt>
<rscale>  2 0.12978112E+03</rscale>
<asrwt>0</asrwt>
<pdfrwt beam="2">  1       21 0.10870264E-01 0.12978112E+03</pdfrwt>
<pdfrwt beam="1">  1        2 0.60799849E-01 0.12978112E+03</pdfrwt>
<totfact> 0.70240725E+04</totfact>
</mgrwt>
</event>
<event>
 4    1  0.5045766E+003  0.1188615E+03  0.7546771E-02  0.1244987E+00
          1   -1    0    0  503    0 -0.00000000000E+00  0.00000000000E+00  0.10806397919E+03  0.10806397919E+03  0.00000000000E+00 0.  1.
         21   -1    0    0  501  502  0.00000000000E+00 -0.00000000000E+00 -0.22098783539E+03  0.22098783539E+03  0.00000000000E+00 0.  1.
         21    1    1    2  503  502 -0.25151441853E+02 -0.11616996761E+03 -0.16160328786E+03  0.20060827263E+03  0.00000000000E+00 0.  1.
          1    1    1    2  501    0  0.25151441853E+02  0.11616996761E+03  0.48679431658E+02  0.12844354195E+03  0.00000000000E+00 0.  1.
<mgrwt>
<rscale>  2 0.11886150E+03</rscale>
<asrwt>0</asrwt>
<pdfrwt beam="2">  1       21 0.33998128E-01 0.11886150E+03</pdfrwt>
<pdfrwt beam="1">  1        1 0.16625228E-01 0.11886150E+03</pdfrwt>
<totfact> 0.29047306E+04</totfact>
</mgrwt>
</event>
<event>
 4    1  0.5045766E+003  0.1055281E+03  0.7546771E-02  0.1269083E+00
          1   -1    0    0  503    0 -0.00000000000E+00  0.00000000000E+00  0.36748752216E+04  0.36748752216E+04  0.00000000000E+00 0.  1.
         21   -1    0    0  501  502  0.00000000000E+00 -0.00000000000E+00 -0.56493659139E+02  0.56493659139E+02  0.00000000000E+00 0. -1.
         21    1    1    2  503  502  0.99506559437E+02  0.35137296379E+02 -0.57657388973E+01  0.10568551799E+03  0.00000000000E+00 0. -1.
          1    1    1    2  501    0 -0.99506559437E+02 -0.35137296379E+02  0.36241473014E+04  0.36256833627E+04  0.00000000000E+00 0.  1.
<mgrwt>
<rscale>  2 0.10552812E+03</rscale>
<asrwt>0</asrwt>
<pdfrwt beam="2">  1       21 0.86913351E-02 0.10552812E+03</pdfrwt>
<pdfrwt beam="1">  1        1 0.56536523E+00 0.10552812E+03</pdfrwt>
<totfact> 0.30952147E+02</totfact>
</mgrwt>
</event>
<event>
 4    1  0.5045766E+003  0.1224545E+03  0.7546771E-02  0.1239102E+00
         21   -1    0    0  503  502  0.00000000000E+00  0.00000000000E+00  0.10507457011E+02  0.10507457011E+02  0.00000000000E+00 0. -1.
          2   -1    0    0  502    0 -0.00000000000E+00 -0.00000000000E+00 -0.23646846283E+04  0.23646846283E+04  0.00000000000E+00 0.  1.
         21    1    1    2  503  501  0.10187839677E+03 -0.67940408632E+02 -0.42928207585E+03  0.44640587754E+03  0.00000000000E+00 0. -1.
          2    1    1    2  501    0 -0.10187839677E+03  0.67940408632E+02 -0.19248950955E+04  0.19287862078E+04  0.00000000000E+00 0.  1.
<mgrwt>
<rscale>  2 0.12245451E+03</rscale>
<asrwt>0</asrwt>
<pdfrwt beam="1">  1       21 0.16165309E-02 0.12245451E+03</pdfrwt>
<pdfrwt beam="2">  1        2 0.36379785E+00 0.12245451E+03</pdfrwt>
<totfact> 0.10913679E+05</totfact>
</mgrwt>
</event>
<event>
 4    1  0.5045766E+003  0.2836597E+03  0.7546771E-02  0.1093707E+00
         21   -1    0    0  501  502  0.00000000000E+00  0.00000000000E+00  0.74901810972E+03  0.74901810972E+03  0.00000000000E+00 0.  1.
         -4   -1    0    0    0  501 -0.00000000000E+00 -0.00000000000E+00 -0.12527640379E+03  0.12527640379E+03  0.00000000000E+00 0.  1.
         21    1    1    2  503  502 -0.25935633145E+03  0.11487869005E+03  0.47689086666E+03  0.55487630946E+03  0.00000000000E+00 0.  1.
         -4    1    1    2    0  503  0.25935633145E+03 -0.11487869005E+03  0.14685083926E+03  0.31941820405E+03  0.00000000000E+00 0.  1.
<mgrwt>
<rscale>  2 0.28365969E+03</rscale>
<asrwt>0</asrwt>
<pdfrwt beam="1">  1       21 0.11523355E+00 0.28365969E+03</pdfrwt>
<pdfrwt beam="2">  1       -4 0.19273293E-01 0.28365969E+03</pdfrwt>
<totfact> 0.58496329E+02</totfact>
</mgrwt>
</event>
<event>
 4    1  0.5045766E+003  0.1753648E+03  0.7546771E-02  0.1172366E+00
         21   -1    0    0  501  502  0.00000000000E+00  0.00000000000E+00  0.51588003367E+03  0.51588003367E+03  0.00000000000E+00 0.  1.
         -3   -1    0    0    0  501 -0.00000000000E+00 -0.00000000000E+00 -0.14717044529E+03  0.14717044529E+03  0.00000000000E+00 0. -1.
         21    1    1    2  503  502  0.33912097804E+02 -0.17205463328E+03  0.44006874312E+03  0.47372283656E+03  0.00000000000E+00 0.  1.
         -3    1    1    2    0  503 -0.33912097804E+02  0.17205463328E+03 -0.71359154743E+02  0.18932764240E+03  0.00000000000E+00 0. -1.
<mgrwt>
<rscale>  2 0.17536484E+03</rscale>
<asrwt>0</asrwt>
<pdfrwt beam="1">  1       21 0.79366158E-01 0.17536484E+03</pdfrwt>
<pdfrwt beam="2">  1       -3 0.22641607E-01 0.17536484E+03</pdfrwt>
<totfact> 0.12428938E+03</totfact>
</mgrwt>
</event>
<event>
 4    1  0.5045766E+003  0.1039914E+03  0.7546771E-02  0.1272120E+00
          1   -1    0    0  503    0 -0.00000000000E+00  0.00000000000E+00  0.29227746651E+03  0.29227746651E+03  0.00000000000E+00 0.  1.
         21   -1    0    0  501  502  0.00000000000E+00 -0.00000000000E+00 -0.65995377365E+02  0.65995377365E+02  0.00000000000E+00 0. -1.
         21    1    1    2  503  502  0.18401585149E+02  0.10235033368E+03 -0.55978450622E+01  0.10414194645E+03  0.00000000000E+00 0. -1.
          1    1    1    2  501    0 -0.18401585149E+02 -0.10235033368E+03  0.23187993421E+03  0.25413089743E+03  0.00000000000E+00 0.  1.
<mgrwt>
<rscale>  2 0.10399139E+03</rscale>
<asrwt>0</asrwt>
<pdfrwt beam="2">  1       21 0.10153135E-01 0.10399139E+03</pdfrwt>
<pdfrwt beam="1">  1        1 0.44965763E-01 0.10399139E+03</pdfrwt>
<totfact> 0.77041008E+04</totfact>
</mgrwt>
</event>
<event>
 4    1  0.5045766E+003  0.1103158E+03  0.7546771E-02  0.1259986E+00
         21   -1    0    0  501  502  0.00000000000E+00  0.00000000000E+00  0.10709411131E+02  0.10709411131E+02  0.00000000000E+00 0.  1.
          2   -1    0    0  503    0 -0.00000000000E+00 -0.00000000000E+00 -0.13060930725E+04  0.13060930725E+04  0.00000000000E+00 0. -1.
         21    1    1    2  503  502 -0.76116689041E+02  0.79848700147E+02 -0.41033132643E+03  0.42490159180E+03  0.00000000000E+00 0.  1.
          2    1    1    2  501    0  0.76116689041E+02 -0.79848700147E+02 -0.88505233497E+03  0.89190089186E+03  0.00000000000E+00 0. -1.
<mgrwt>
<rscale>  2 0.11031575E+03</rscale>
<asrwt>0</asrwt>
<pdfrwt beam="1">  1       21 0.16476031E-02 0.11031575E+03</pdfrwt>
<pdfrwt beam="2">  1        2 0.20093723E+00 0.11031575E+03</pdfrwt>
<totfact> 0.37016138E+05</totfact>
</mgrwt>
</event>
<event>
 4    1  0.5045766E+003  0.1305100E+03  0.7546771E-02  0.1226701E+00
         21   -1    0    0  501  502  0.00000000000E+00  0.00000000000E+00  0.22740004817E+03  0.22740004817E+03  0.00000000000E+00 0.  1.
         -3   -1    0    0    0  501 -0.00000000000E+00 -0.00000000000E+00 -0.10758729480E+03  0.10758729480E+03  0.00000000000E+00 0.  1.
         21    1    1    2  503  502 -0.33243303357E+02 -0.12620515870E+03  0.15222514370E+03  0.20051272697E+03  0.00000000000E+00 0.  1.
         -3    1    1    2    0  503  0.33243303357E+02  0.12620515870E+03 -0.32412390334E+02  0.13447461600E+03  0.00000000000E+00 0.  1.
<mgrwt>
<rscale>  2 0.13051000E+03</rscale>
<asrwt>0</asrwt>
<pdfrwt beam="1">  1       21 0.34984623E-01 0.13051000E+03</pdfrwt>
<pdfrwt beam="2">  1       -3 0.16551891E-01 0.13051000E+03</pdfrwt>
<totfact> 0.11925541E+04</totfact>
</mgrwt>
</event>
<event>
 4    1  0.5045766E+003  0.1233454E+03  0.7546771E-02  0.1237678E+00
          2   -1    0    0  503    0 -0.00000000000E+00  0.00000000000E+00  0.30813664245E+04  0.30813664245E+04  0.00000000000E+00 0.  1.
         21   -1    0    0  501  502  0.00000000000E+00 -0.00000000000E+00 -0.22376351359E+02  0.22376351359E+02  0.00000000000E+00 0.  1.
         21    1    1    2  503  502  0.31082370901E+02  0.11936483957E+03  0.15949459677E+03  0.20162491192E+03  0.00000000000E+00 0.  1.
          2    1    1    2  501    0 -0.31082370901E+02 -0.11936483957E+03  0.28994954763E+04  0.29021178639E+04  0.00000000000E+00 0.  1.
<mgrwt>
<rscale>  2 0.12334536E+03</rscale>
<asrwt>0</asrwt>
<pdfrwt beam="2">  1       21 0.34425180E-02 0.12334536E+03</pdfrwt>
<pdfrwt beam="1">  1        2 0.47405604E+00 0.12334536E+03</pdfrwt>
<totfact> 0.12895238E+04</totfact>
</mgrwt>
</event>
<event>
 4    1  0.5045766E+003  0.1216037E+03  0.7546771E-02  0.1240475E+00
         21   -1    0    0  503  502  0.00000000000E+00  0.00000000000E+00  0.46682479853E+02  0.46682479853E+02  0.00000000000E+00 0.  1.
          2   -1    0    0  502    0 -0.00000000000E+00 -0.00000000000E+00 -0.23221473077E+04  0.23221473077E+04  0.00000000000E+00 0.  1.
         21    1    1    2  503  501 -0.11675579448E+03 -0.33993238457E+02 -0.37061777316E+02  0.12712604432E+03  0.00000000000E+00 0.  1.
          2    1    1    2  501    0  0.11675579448E+03  0.33993238457E+02 -0.22384030505E+04  0.22417037432E+04  0.00000000000E+00 0.  1.
<mgrwt>
<rscale>  2 0.12160368E+03</rscale>
<asrwt>0</asrwt>
<pdfrwt beam="1">  1       21 0.71819207E-02 0.12160368E+03</pdfrwt>
<pdfrwt beam="2">  1        2 0.35725339E+00 0.12160368E+03</pdfrwt>
<totfact> 0.98176327E+03</totfact>
</mgrwt>
</event>
<event>
 4    1  0.5045766E+003  0.1030659E+03  0.7546771E-02  0.1273978E+00
         21   -1    0    0  503  502  0.00000000000E+00  0.00000000000E+00  0.66235041179E+02  0.66235041179E+02  0.00000000000E+00 0. -1.
          1   -1    0    0  502    0 -0.00000000000E+00 -0.00000000000E+00 -0.66516156647E+03  0.66516156647E+03  0.00000000000E+00 0.  1.
         21    1    1    2  503  501  0.19189816179E+02  0.10126367700E+03  0.19112241876E+02  0.10482298943E+03  0.00000000000E+00 0. -1.
          1    1    1    2  501    0 -0.19189816179E+02 -0.10126367700E+03 -0.61803876716E+03  0.62657361821E+03  0.00000000000E+00 0.  1.
<mgrwt>
<rscale>  2 0.10306591E+03</rscale>
<asrwt>0</asrwt>
<pdfrwt beam="1">  1       21 0.10190007E-01 0.10306591E+03</pdfrwt>
<pdfrwt beam="2">  1        1 0.10233255E+00 0.10306591E+03</pdfrwt>
<totfact> 0.26745934E+04</totfact>
</mgrwt>
</event>
<event>
 4    1  0.5045766E+003  0.1039782E+03  0.7546771E-02  0.1272146E+00
          1   -1    0    0  503    0 -0.00000000000E+00  0.00000000000E+00  0.96194654255E+03  0.96194654255E+03  0.00000000000E+00 0. -1.
         21   -1    0    0  501  502  0.00000000000E+00 -0.00000000000E+00 -0.20369393083E+02  0.20369393083E+02  0.00000000000E+00 0.  1.
         21    1    1    2  503  502 -0.10024211221E+03 -0.27622079097E+02  0.14195712414E+03  0.17596387529E+03  0.00000000000E+00 0.  1.
          1    1    1    2  501    0  0.10024211221E+03  0.27622079097E+02  0.79962002532E+03  0.80635206034E+03  0.00000000000E+00 0. -1.
<mgrwt>
<rscale>  2 0.10397817E+03</rscale>
<asrwt>0</asrwt>
<pdfrwt beam="2">  1       21 0.31337535E-02 0.10397817E+03</pdfrwt>
<pdfrwt beam="1">  1        1 0.14799174E+00 0.10397817E+03</pdfrwt>
<totfact> 0.11204905E+05</totfact>
</mgrwt>
</event>
<event>
 4    1  0.5045766E+003  0.1028931E+03  0.7546771E-02  0.1274327E+00
         -1   -1    0    0    0  501 -0.00000000000E+00  0.00000000000E+00  0.33101320197E+03  0.33101320197E+03  0.00000000000E+00 0.  1.
         21   -1    0    0  501  502  0.00000000000E+00 -0.00000000000E+00 -0.79370948576E+02  0.79370948576E+02  0.00000000000E+00 0.  1.
         21    1    1    2  503  502 -0.75790915748E+02 -0.69589703172E+02 -0.32726980199E+02  0.10797242671E+03  0.00000000000E+00 0.  1.
         -1    1    1    2    0  503  0.75790915748E+02  0.69589703172E+02  0.28436923360E+03  0.30241172384E+03  0.00000000000E+00 0.  1.
<mgrwt>
<rscale>  2 0.10289310E+03</rscale>
<asrwt>0</asrwt>
<pdfrwt beam="2">  1       21 0.12210915E-01 0.10289310E+03</pdfrwt>
<pdfrwt beam="1">  1       -1 0.50925107E-01 0.10289310E+03</pdfrwt>
<totfact> 0.20791364E+04</totfact>
</mgrwt>
</event>
<event>
 4    1  0.5045766E+003  0.1043130E+03  0.7546771E-02  0.1271479E+00
         21   -1    0    0  501  502  0.00000000000E+00  0.00000000000E+00  0.66239205275E+03  0.66239205275E+03  0.00000000000E+00 0. -1.
          1   -1    0    0  503    0 -0.00000000000E+00 -0.00000000000E+00 -0.49709068689E+02  0.49709068689E+02  0.00000000000E+00 0. -1.
         21    1    1    2  503  502  0.37355716796E+02 -0.97394801483E+02  0.59768020855E+03  0.60671478359E+03  0.00000000000E+00 0. -1.
          1    1    1    2  501    0 -0.37355716796E+02  0.97394801483E+02  0.15002775516E+02  0.10538633785E+03  0.00000000000E+00 0. -1.
<mgrwt>
<rscale>  2 0.10431298E+03</rscale>
<asrwt>0</asrwt>
<pdfrwt beam="1">  1       21 0.10190646E+00 0.10431298E+03</pdfrwt>
<pdfrwt beam="2">  1        1 0.76475495E-02 0.10431298E+03</pdfrwt>
<totfact> 0.78439077E+03</totfact>
</mgrwt>
</event>
<event>
 4    1  0.5045766E+003  0.1029349E+03  0.7546771E-02  0.1274243E+00
         21   -1    0    0  503  502  0.00000000000E+00  0.00000000000E+00  0.33746129889E+03  0.33746129889E+03  0.00000000000E+00 0.  1.
          2   -1    0    0  502    0 -0.00000000000E+00 -0.00000000000E+00 -0.13597689192E+03  0.13597689192E+03  0.00000000000E+00 0.  1.
         21    1    1    2  503  501 -0.79617483371E+02 -0.65242971665E+02  0.30834006894E+03  0.32506797309E+03  0.00000000000E+00 0.  1.
          2    1    1    2  501    0  0.79617483371E+02  0.65242971665E+02 -0.10685566197E+03  0.14837021772E+03  0.00000000000E+00 0.  1.
<mgrwt>
<rscale>  2 0.10293488E+03</rscale>
<asrwt>0</asrwt>
<pdfrwt beam="1">  1       21 0.51917123E-01 0.10293488E+03</pdfrwt>
<pdfrwt beam="2">  1        2 0.20919522E-01 0.10293488E+03</pdfrwt>
<totfact> 0.11546631E+04</totfact>
</mgrwt>
</event>
<event>
 4    1  0.5045766E+003  0.1787935E+03  0.7546771E-02  0.1168976E+00
          4   -1    0    0  503    0 -0.00000000000E+00  0.00000000000E+00  0.29937049667E+03  0.29937049667E+03  0.00000000000E+00 0.  1.
         21   -1    0    0  501  502  0.00000000000E+00 -0.00000000000E+00 -0.12975531931E+03  0.12975531931E+03  0.00000000000E+00 0.  1.
         21    1    1    2  503  502  0.45493234141E+02  0.17290892796E+03 -0.54766180254E+01  0.17887740234E+03  0.00000000000E+00 0.  1.
          4    1    1    2  501    0 -0.45493234141E+02 -0.17290892796E+03  0.17509179538E+03  0.25024841365E+03  0.00000000000E+00 0.  1.
<mgrwt>
<rscale>  2 0.17879354E+03</rscale>
<asrwt>0</asrwt>
<pdfrwt beam="2">  1       21 0.19962357E-01 0.17879354E+03</pdfrwt>
<pdfrwt beam="1">  1        4 0.46056999E-01 0.17879354E+03</pdfrwt>
<totfact> 0.44506900E+03</totfact>
</mgrwt>
</event>
<event>
 4    1  0.5045766E+003  0.1068452E+03  0.7546771E-02  0.1266526E+00
          3   -1    0    0  502    0 -0.00000000000E+00  0.00000000000E+00  0.30946458716E+03  0.30946458716E+03  0.00000000000E+00 0. -1.
         21   -1    0    0  503  502  0.00000000000E+00 -0.00000000000E+00 -0.42729684683E+02  0.42729684683E+02  0.00000000000E+00 0. -1.
         21    1    1    2  503  501 -0.85853903476E+02 -0.63600262874E+02  0.68262550725E+02  0.12678983402E+03  0.00000000000E+00 0. -1.
          3    1    1    2  501    0  0.85853903476E+02  0.63600262874E+02  0.19847235175E+03  0.22540443782E+03  0.00000000000E+00 0. -1.
<mgrwt>
<rscale>  2 0.10684515E+03</rscale>
<asrwt>0</asrwt>
<pdfrwt beam="2">  1       21 0.65737978E-02 0.10684515E+03</pdfrwt>
<pdfrwt beam="1">  1        3 0.47609935E-01 0.10684515E+03</pdfrwt>
<totfact> 0.34861335E+04</totfact>
</mgrwt>
</event>
<event>
 4    1  0.5045766E+003  0.1237683E+03  0.7546771E-02  0.1237007E+00
         -1   -1    0    0    0  501 -0.00000000000E+00  0.00000000000E+00  0.12506812988E+04  0.12506812988E+04  0.00000000000E+00 0. -1.
         21   -1    0    0  503  502  0.00000000000E+00 -0.00000000000E+00 -0.29943634799E+02  0.29943634799E+02  0.00000000000E+00 0. -1.
         21    1    1    2  503  501 -0.47026089618E+01  0.12367896824E+03  0.11813637268E+03  0.17109881433E+03  0.00000000000E+00 0. -1.
         -1    1    1    2    0  502  0.47026089618E+01 -0.12367896824E+03  0.11026012913E+04  0.11095261193E+04  0.00000000000E+00 0. -1.
<mgrwt>
<rscale>  2 0.12376834E+03</rscale>
<asrwt>0</asrwt>
<pdfrwt beam="2">  1       21 0.46067140E-02 0.12376834E+03</pdfrwt>
<pdfrwt beam="1">  1       -1 0.19241247E+00 0.12376834E+03</pdfrwt>
<totfact> 0.55916787E+03</totfact>
</mgrwt>
</event>
<event>
 4    1  0.5045766E+003  0.1291235E+03  0.7546771E-02  0.1228762E+00
         21   -1    0    0  501  502  0.00000000000E+00  0.00000000000E+00  0.15272008670E+03  0.15272008670E+03  0.00000000000E+00 0.  1.
          2   -1    0    0  503    0 -0.00000000000E+00 -0.00000000000E+00 -0.14824721337E+03  0.14824721337E+03  0.00000000000E+00 0. -1.
         21    1    1    2  503  502  0.11693790215E+03  0.54757617108E+02  0.79494290675E+02  0.15163182991E+03  0.00000000000E+00 0.  1.
          2    1    1    2  501    0 -0.11693790215E+03 -0.54757617108E+02 -0.75021417342E+02  0.14933547017E+03  0.00000000000E+00 0. -1.
<mgrwt>
<rscale>  2 0.12912347E+03</rscale>
<asrwt>0</asrwt>
<pdfrwt beam="1">  1       21 0.23495398E-01 0.12912347E+03</pdfrwt>
<pdfrwt beam="2">  1        2 0.22807264E-01 0.12912347E+03</pdfrwt>
<totfact> 0.49682499E+04</totfact>
</mgrwt>
</event>
<event>
 4    1  0.5045766E+003  0.1042064E+03  0.7546771E-02  0.1271691E+00
         -2   -1    0    0    0  501 -0.00000000000E+00  0.00000000000E+00  0.85677842695E+03  0.85677842695E+03  0.00000000000E+00 0.  1.
         21   -1    0    0  501  502  0.00000000000E+00 -0.00000000000E+00 -0.28680880819E+02  0.28680880819E+02  0.00000000000E+00 0.  1.
         21    1    1    2  503  502  0.10352202908E+03 -0.11922941991E+02  0.83303813058E+02  0.13341099025E+03  0.00000000000E+00 0.  1.
         -2    1    1    2    0  503 -0.10352202908E+03  0.11922941991E+02  0.74479373307E+03  0.75204831751E+03  0.00000000000E+00 0.  1.
<mgrwt>
<rscale>  2 0.10420637E+03</rscale>
<asrwt>0</asrwt>
<pdfrwt beam="2">  1       21 0.44124438E-02 0.10420637E+03</pdfrwt>
<pdfrwt beam="1">  1       -2 0.13181205E+00 0.10420637E+03</pdfrwt>
<totfact> 0.11941285E+04</totfact>
</mgrwt>
</event>
<event>
 4    1  0.5045766E+003  0.1145277E+03  0.7546771E-02  0.1252408E+00
         21   -1    0    0  503  502  0.00000000000E+00  0.00000000000E+00  0.19276436202E+03  0.19276436202E+03  0.00000000000E+00 0. -1.
          1   -1    0    0  502    0 -0.00000000000E+00 -0.00000000000E+00 -0.17799314852E+03  0.17799314852E+03  0.00000000000E+00 0.  1.
         21    1    1    2  503  501  0.86547320227E+02  0.75007761818E+02  0.15308333208E+03  0.19118344471E+03  0.00000000000E+00 0. -1.
          1    1    1    2  501    0 -0.86547320227E+02 -0.75007761818E+02 -0.13831211858E+03  0.17957406583E+03  0.00000000000E+00 0.  1.
<mgrwt>
<rscale>  2 0.11452774E+03</rscale>
<asrwt>0</asrwt>
<pdfrwt beam="1">  1       21 0.29656056E-01 0.11452774E+03</pdfrwt>
<pdfrwt beam="2">  1        1 0.27383561E-01 0.11452774E+03</pdfrwt>
<totfact> 0.20169305E+04</totfact>
</mgrwt>
</event>
<event>
 4    1  0.5045766E+003  0.1007991E+03  0.7546771E-02  0.1278624E+00
         21   -1    0    0  503  502  0.00000000000E+00  0.00000000000E+00  0.10732267601E+02  0.10732267601E+02  0.00000000000E+00 0. -1.
          1   -1    0    0  502    0 -0.00000000000E+00 -0.00000000000E+00 -0.22704038658E+04  0.22704038658E+04  0.00000000000E+00 0. -1.
         21    1    1    2  503  501 -0.10020538105E+03  0.10924427570E+02 -0.25894912037E+03  0.27787606671E+03  0.00000000000E+00 0. -1.
          1    1    1    2  501    0  0.10020538105E+03 -0.10924427570E+02 -0.20007224778E+04  0.20032600667E+04  0.00000000000E+00 0. -1.
<mgrwt>
<rscale>  2 0.10079911E+03</rscale>
<asrwt>0</asrwt>
<pdfrwt beam="1">  1       21 0.16511179E-02 0.10079911E+03</pdfrwt>
<pdfrwt beam="2">  1        1 0.34929295E+00 0.10079911E+03</pdfrwt>
<totfact> 0.44379385E+04</totfact>
</mgrwt>
</event>
<event>
 4    1  0.5045766E+003  0.1327890E+03  0.7546771E-02  0.1223375E+00
         -2   -1    0    0    0  501 -0.00000000000E+00  0.00000000000E+00  0.26072957152E+02  0.26072957152E+02  0.00000000000E+00 0. -1.
         21   -1    0    0  503  502  0.00000000000E+00 -0.00000000000E+00 -0.78347506727E+03  0.78347506727E+03  0.00000000000E+00 0. -1.
         21    1    1    2  503  501 -0.97810189295E+02  0.89811323621E+02 -0.52841597845E+03  0.54484525625E+03  0.00000000000E+00 0. -1.
         -2    1    1    2    0  502  0.97810189295E+02 -0.89811323621E+02 -0.22898613167E+03  0.26470276817E+03  0.00000000000E+00 0. -1.
<mgrwt>
<rscale>  2 0.13278896E+03</rscale>
<asrwt>0</asrwt>
<pdfrwt beam="2">  1       21 0.12053462E+00 0.13278896E+03</pdfrwt>
<pdfrwt beam="1">  1       -2 0.40112242E-02 0.13278896E+03</pdfrwt>
<totfact> 0.11162609E+04</totfact>
</mgrwt>
</event>
<event>
 4    1  0.5045766E+003  0.1223417E+03  0.7546771E-02  0.1239283E+00
         -1   -1    0    0    0  501 -0.00000000000E+00  0.00000000000E+00  0.11898575033E+03  0.11898575033E+03  0.00000000000E+00 0.  1.
         21   -1    0    0  503  502  0.00000000000E+00 -0.00000000000E+00 -0.28285101652E+03  0.28285101652E+03  0.00000000000E+00 0. -1.
         21    1    1    2  503  501  0.16707759927E+02 -0.12119542747E+03 -0.23164991888E+03  0.26197168892E+03  0.00000000000E+00 0. -1.
         -1    1    1    2    0  502 -0.16707759927E+02  0.12119542747E+03  0.67784652692E+02  0.13986507792E+03  0.00000000000E+00 0.  1.
<mgrwt>
<rscale>  2 0.12234166E+03</rscale>
<asrwt>0</asrwt>
<pdfrwt beam="2">  1       21 0.43515541E-01 0.12234166E+03</pdfrwt>
<pdfrwt beam="1">  1       -1 0.18305500E-01 0.12234166E+03</pdfrwt>
<totfact> 0.10763804E+04</totfact>
</mgrwt>
</event>
<event>
 4    1  0.5045766E+003  0.1055934E+03  0.7546771E-02  0.1268955E+00
         -4   -1    0    0    0  501 -0.00000000000E+00  0.00000000000E+00  0.12113935042E+04  0.12113935042E+04  0.00000000000E+00 0. -1.
         21   -1    0    0  503  502  0.00000000000E+00 -0.00000000000E+00 -0.40909888240E+02  0.40909888240E+02  0.00000000000E+00 0. -1.
         21    1    1    2  503  501 -0.48071951155E+02  0.94016254397E+02  0.34010767344E+02  0.11093557082E+03  0.00000000000E+00 0. -1.
         -4    1    1    2    0  502  0.48071951155E+02 -0.94016254397E+02  0.11364728486E+04  0.11413678216E+04  0.00000000000E+00 0. -1.
<mgrwt>
<rscale>  2 0.10559341E+03</rscale>
<asrwt>0</asrwt>
<pdfrwt beam="2">  1       21 0.62938299E-02 0.10559341E+03</pdfrwt>
<pdfrwt beam="1">  1       -4 0.18636820E+00 0.10559341E+03</pdfrwt>
<totfact> 0.13321256E+03</totfact>
</mgrwt>
</event>
<event>
 4    1  0.5045766E+003  0.1382452E+03  0.7546771E-02  0.1215710E+00
          1   -1    0    0  503    0 -0.00000000000E+00  0.00000000000E+00  0.23767092116E+03  0.23767092116E+03  0.00000000000E+00 0. -1.
         21   -1    0    0  501  502  0.00000000000E+00 -0.00000000000E+00 -0.14783594062E+03  0.14783594062E+03  0.00000000000E+00 0. -1.
         21    1    1    2  503  502  0.12795248334E+03 -0.52344132399E+02 -0.85254368843E+02  0.16241937568E+03  0.00000000000E+00 0. -1.
          1    1    1    2  501    0 -0.12795248334E+03  0.52344132399E+02  0.17508934938E+03  0.22308748610E+03  0.00000000000E+00 0. -1.
<mgrwt>
<rscale>  2 0.13824524E+03</rscale>
<asrwt>0</asrwt>
<pdfrwt beam="2">  1       21 0.22743991E-01 0.13824524E+03</pdfrwt>
<pdfrwt beam="1">  1        1 0.36564757E-01 0.13824524E+03</pdfrwt>
<totfact> 0.23304651E+04</totfact>
</mgrwt>
</event>
<event>
 4    1  0.5045766E+003  0.1168188E+03  0.7546771E-02  0.1248439E+00
          1   -1    0    0  502    0 -0.00000000000E+00  0.00000000000E+00  0.60474964981E+03  0.60474964981E+03  0.00000000000E+00 0. -1.
         21   -1    0    0  503  502  0.00000000000E+00 -0.00000000000E+00 -0.23716997001E+02  0.23716997001E+02  0.00000000000E+00 0. -1.
         21    1    1    2  503  501 -0.10125039195E+03  0.58266536741E+02  0.22128445119E+03  0.25022677617E+03  0.00000000000E+00 0. -1.
          1    1    1    2  501    0  0.10125039195E+03 -0.58266536741E+02  0.35974820162E+03  0.37823987064E+03  0.00000000000E+00 0. -1.
<mgrwt>
<rscale>  2 0.11681880E+03</rscale>
<asrwt>0</asrwt>
<pdfrwt beam="2">  1       21 0.36487692E-02 0.11681880E+03</pdfrwt>
<pdfrwt beam="1">  1        1 0.93038396E-01 0.11681880E+03</pdfrwt>
<totfact> 0.17365922E+05</totfact>
</mgrwt>
</event>
<event>
 4    1  0.5045766E+003  0.1006332E+03  0.7546771E-02  0.1278970E+00
          1   -1    0    0  503    0 -0.00000000000E+00  0.00000000000E+00  0.45718001749E+03  0.45718001749E+03  0.00000000000E+00 0. -1.
         21   -1    0    0  501  502  0.00000000000E+00 -0.00000000000E+00 -0.22158294187E+02  0.22158294187E+02  0.00000000000E+00 0. -1.
         21    1    1    2  503  502 -0.10030307195E+03  0.81445617747E+01  0.21319224017E+03  0.23574980678E+03  0.00000000000E+00 0. -1.
          1    1    1    2  501    0  0.10030307195E+03 -0.81445617747E+01  0.22182948313E+03  0.24358850489E+03  0.00000000000E+00 0. -1.
<mgrwt>
<rscale>  2 0.10063320E+03</rscale>
<asrwt>0</asrwt>
<pdfrwt beam="2">  1       21 0.34089687E-02 0.10063320E+03</pdfrwt>
<pdfrwt beam="1">  1        1 0.70335380E-01 0.10063320E+03</pdfrwt>
<totfact> 0.27791882E+05</totfact>
</mgrwt>
</event>
<event>
 4    1  0.5045766E+003  0.1073188E+03  0.7546771E-02  0.1265617E+00
         21   -1    0    0  501  502  0.00000000000E+00  0.00000000000E+00  0.30690795541E+01  0.30690795541E+01  0.00000000000E+00 0.  1.
          2   -1    0    0  503    0 -0.00000000000E+00 -0.00000000000E+00 -0.42473978550E+04  0.42473978550E+04  0.00000000000E+00 0.  1.
         21    1    1    2  503  502 -0.19531997162E+02 -0.10552637886E+03 -0.28474648390E+04  0.28494865020E+04  0.00000000000E+00 0.  1.
          2    1    1    2  501    0  0.19531997162E+02  0.10552637886E+03 -0.13968639364E+04  0.14009804326E+04  0.00000000000E+00 0.  1.
<mgrwt>
<rscale>  2 0.10731876E+03</rscale>
<asrwt>0</asrwt>
<pdfrwt beam="1">  1       21 0.47216706E-03 0.10731876E+03</pdfrwt>
<pdfrwt beam="2">  1        2 0.65344448E+00 0.10731876E+03</pdfrwt>
<totfact> 0.48938780E+04</totfact>
</mgrwt>
</event>
<event>
 4    1  0.5045766E+003  0.1100812E+03  0.7546771E-02  0.1260420E+00
         21   -1    0    0  503  502  0.00000000000E+00  0.00000000000E+00  0.90782834598E+01  0.90782834598E+01  0.00000000000E+00 0.  1.
         -1   -1    0    0    0  501 -0.00000000000E+00 -0.00000000000E+00 -0.14080422885E+04  0.14080422885E+04  0.00000000000E+00 0.  1.
         21    1    1    2  503  501 -0.60679384860E+02 -0.91847050074E+02 -0.53790015920E+03  0.54904867692E+03  0.00000000000E+00 0.  1.
         -1    1    1    2    0  502  0.60679384860E+02  0.91847050074E+02 -0.86106384585E+03  0.86807189505E+03  0.00000000000E+00 0.  1.
<mgrwt>
<rscale>  2 0.11008119E+03</rscale>
<asrwt>0</asrwt>
<pdfrwt beam="1">  1       21 0.13966593E-02 0.11008119E+03</pdfrwt>
<pdfrwt beam="2">  1       -1 0.21662184E+00 0.11008119E+03</pdfrwt>
<totfact> 0.27091053E+04</totfact>
</mgrwt>
</event>
<event>
 4    1  0.5045766E+003  0.2768374E+03  0.7546771E-02  0.1097429E+00
         21   -1    0    0  503  502  0.00000000000E+00  0.00000000000E+00  0.13878698400E+04  0.13878698400E+04  0.00000000000E+00 0. -1.
          2   -1    0    0  502    0 -0.00000000000E+00 -0.00000000000E+00 -0.74794511256E+03  0.74794511256E+03  0.00000000000E+00 0.  1.
         21    1    1    2  503  501 -0.19604180691E+03 -0.19546490343E+03  0.13476924255E+04  0.13758320363E+04  0.00000000000E+00 0. -1.
          2    1    1    2  501    0  0.19604180691E+03  0.19546490343E+03 -0.70776769804E+03  0.75998291621E+03  0.00000000000E+00 0.  1.
<mgrwt>
<rscale>  2 0.27683735E+03</rscale>
<asrwt>0</asrwt>
<pdfrwt beam="1">  1       21 0.21351844E+00 0.27683735E+03</pdfrwt>
<pdfrwt beam="2">  1        2 0.11506848E+00 0.27683735E+03</pdfrwt>
<totfact> 0.49774324E+01</totfact>
</mgrwt>
</event>
<event>
 4    1  0.5045766E+003  0.1240030E+03  0.7546771E-02  0.1236636E+00
         21   -1    0    0  501  502  0.00000000000E+00  0.00000000000E+00  0.11671222704E+03  0.11671222704E+03  0.00000000000E+00 0. -1.
          1   -1    0    0  503    0 -0.00000000000E+00 -0.00000000000E+00 -0.13346975445E+03  0.13346975445E+03  0.00000000000E+00 0. -1.
         21    1    1    2  503  502  0.12396115393E+03  0.32194345994E+01  0.58242246740E+01  0.12413965538E+03  0.00000000000E+00 0. -1.
          1    1    1    2  501    0 -0.12396115393E+03 -0.32194345994E+01 -0.22581752089E+02  0.12604232611E+03  0.00000000000E+00 0. -1.
<mgrwt>
<rscale>  2 0.12400295E+03</rscale>
<asrwt>0</asrwt>
<pdfrwt beam="1">  1       21 0.17955727E-01 0.12400295E+03</pdfrwt>
<pdfrwt beam="2">  1        1 0.20533808E-01 0.12400295E+03</pdfrwt>
<totfact> 0.74104196E+04</totfact>
</mgrwt>
</event>
<event>
 4    1  0.5045766E+003  0.1428848E+03  0.7546771E-02  0.1209499E+00
         21   -1    0    0  501  502  0.00000000000E+00  0.00000000000E+00  0.16078138690E+03  0.16078138690E+03  0.00000000000E+00 0.  1.
          3   -1    0    0  503    0 -0.00000000000E+00 -0.00000000000E+00 -0.19395985118E+03  0.19395985118E+03  0.00000000000E+00 0. -1.
         21    1    1    2  503  502  0.33551960094E+02 -0.13888969109E+03  0.87641705304E+02  0.16762204158E+03  0.00000000000E+00 0.  1.
          3    1    1    2  501    0 -0.33551960094E+02  0.13888969109E+03 -0.12082016959E+03  0.18711919649E+03  0.00000000000E+00 0. -1.
<mgrwt>
<rscale>  2 0.14288485E+03</rscale>
<asrwt>0</asrwt>
<pdfrwt beam="1">  1       21 0.24735598E-01 0.14288485E+03</pdfrwt>
<pdfrwt beam="2">  1        3 0.29839977E-01 0.14288485E+03</pdfrwt>
<totfact> 0.81696360E+03</totfact>
</mgrwt>
</event>
<event>
 4    1  0.5045766E+003  0.1093815E+03  0.7546771E-02  0.1261720E+00
         21   -1    0    0  501  502  0.00000000000E+00  0.00000000000E+00  0.79633372450E+02  0.79633372450E+02  0.00000000000E+00 0.  1.
          2   -1    0    0  503    0 -0.00000000000E+00 -0.00000000000E+00 -0.91544130269E+03  0.91544130269E+03  0.00000000000E+00 0.  1.
         21    1    1    2  503  502  0.35333735983E+02  0.10351730994E+03  0.36976833740E+02  0.11546251595E+03  0.00000000000E+00 0.  1.
          2    1    1    2  501    0 -0.35333735983E+02 -0.10351730994E+03 -0.87278476398E+03  0.87961215918E+03  0.00000000000E+00 0.  1.
<mgrwt>
<rscale>  2 0.10938147E+03</rscale>
<asrwt>0</asrwt>
<pdfrwt beam="1">  1       21 0.12251288E-01 0.10938147E+03</pdfrwt>
<pdfrwt beam="2">  1        2 0.14083713E+00 0.10938147E+03</pdfrwt>
<totfact> 0.21653058E+04</totfact>
</mgrwt>
</event>
<event>
 4    1  0.5045766E+003  0.1737755E+03  0.7546771E-02  0.1173967E+00
          1   -1    0    0  502    0 -0.00000000000E+00  0.00000000000E+00  0.51444200880E+02  0.51444200880E+02  0.00000000000E+00 0.  1.
         21   -1    0    0  503  502  0.00000000000E+00 -0.00000000000E+00 -0.11316759633E+04  0.11316759633E+04  0.00000000000E+00 0. -1.
         21    1    1    2  503  501  0.77648855302E+02 -0.15546242234E+03 -0.95051427487E+03  0.96626874948E+03  0.00000000000E+00 0. -1.
          1    1    1    2  501    0 -0.77648855302E+02  0.15546242234E+03 -0.12971748759E+03  0.21685141474E+03  0.00000000000E+00 0.  1.
<mgrwt>
<rscale>  2 0.17377546E+03</rscale>
<asrwt>0</asrwt>
<pdfrwt beam="2">  1       21 0.17410400E+00 0.17377546E+03</pdfrwt>
<pdfrwt beam="1">  1        1 0.79144922E-02 0.17377546E+03</pdfrwt>
<totfact> 0.18850258E+03</totfact>
</mgrwt>
</event>
<event>
 4    1  0.5045766E+003  0.1314190E+03  0.7546771E-02  0.1225365E+00
         21   -1    0    0  503  502  0.00000000000E+00  0.00000000000E+00  0.56971449733E+03  0.56971449733E+03  0.00000000000E+00 0.  1.
         -3   -1    0    0    0  501 -0.00000000000E+00 -0.00000000000E+00 -0.49963315811E+02  0.49963315811E+02  0.00000000000E+00 0. -1.
         21    1    1    2  503  501  0.35144060833E+02  0.12663268814E+03  0.45417526128E+03  0.47280663138E+03  0.00000000000E+00 0.  1.
         -3    1    1    2    0  502 -0.35144060833E+02 -0.12663268814E+03  0.65575920233E+02  0.14687118176E+03  0.00000000000E+00 0. -1.
<mgrwt>
<rscale>  2 0.13141896E+03</rscale>
<asrwt>0</asrwt>
<pdfrwt beam="1">  1       21 0.87648379E-01 0.13141896E+03</pdfrwt>
<pdfrwt beam="2">  1       -3 0.76866644E-02 0.13141896E+03</pdfrwt>
<totfact> 0.62092011E+03</totfact>
</mgrwt>
</event>
<event>
 4    1  0.5045766E+003  0.1574023E+03  0.7546771E-02  0.1191661E+00
         21   -1    0    0  501  502  0.00000000000E+00  0.00000000000E+00  0.34194819533E+02  0.34194819533E+02  0.00000000000E+00 0. -1.
          2   -1    0    0  503    0 -0.00000000000E+00 -0.00000000000E+00 -0.76417329421E+03  0.76417329421E+03  0.00000000000E+00 0. -1.
         21    1    1    2  503  502 -0.15667462422E+03 -0.15117276246E+02 -0.27407864334E+03  0.31606102678E+03  0.00000000000E+00 0. -1.
          2    1    1    2  501    0  0.15667462422E+03  0.15117276246E+02 -0.45589983133E+03  0.48230708696E+03  0.00000000000E+00 0. -1.
<mgrwt>
<rscale>  2 0.15740226E+03</rscale>
<asrwt>0</asrwt>
<pdfrwt beam="1">  1       21 0.52607413E-02 0.15740226E+03</pdfrwt>
<pdfrwt beam="2">  1        2 0.11756513E+00 0.15740226E+03</pdfrwt>
<totfact> 0.11704373E+05</totfact>
</mgrwt>
</event>
<event>
 4    1  0.5045766E+003  0.1030834E+03  0.7546771E-02  0.1273943E+00
         21   -1    0    0  503  502  0.00000000000E+00  0.00000000000E+00  0.94712655584E+03  0.94712655584E+03  0.00000000000E+00 0.  1.
          1   -1    0    0  502    0 -0.00000000000E+00 -0.00000000000E+00 -0.25275984254E+02  0.25275984254E+02  0.00000000000E+00 0.  1.
         21    1    1    2  503  501 -0.79575932294E+02  0.65527476020E+02  0.82350387592E+03  0.82993060720E+03  0.00000000000E+00 0.  1.
          1    1    1    2  501    0  0.79575932294E+02 -0.65527476020E+02  0.98346695670E+02  0.14247193290E+03  0.00000000000E+00 0.  1.
<mgrwt>
<rscale>  2 0.10308336E+03</rscale>
<asrwt>0</asrwt>
<pdfrwt beam="1">  1       21 0.14571175E+00 0.10308336E+03</pdfrwt>
<pdfrwt beam="2">  1        1 0.38886137E-02 0.10308336E+03</pdfrwt>
<totfact> 0.82015268E+03</totfact>
</mgrwt>
</event>
<event>
 4    1  0.5045766E+003  0.1757209E+03  0.7546771E-02  0.1172010E+00
         21   -1    0    0  501  502  0.00000000000E+00  0.00000000000E+00  0.19400972963E+03  0.19400972963E+03  0.00000000000E+00 0.  1.
         -1   -1    0    0    0  501 -0.00000000000E+00 -0.00000000000E+00 -0.25246454841E+03  0.25246454841E+03  0.00000000000E+00 0.  1.
         21    1    1    2  503  502 -0.89621011438E+02  0.15114859216E+03  0.10648727550E+03  0.20546864103E+03  0.00000000000E+00 0.  1.
         -1    1    1    2    0  503  0.89621011438E+02 -0.15114859216E+03 -0.16494209427E+03  0.24100563700E+03  0.00000000000E+00 0.  1.
<mgrwt>
<rscale>  2 0.17572087E+03</rscale>
<asrwt>0</asrwt>
<pdfrwt beam="1">  1       21 0.29847651E-01 0.17572087E+03</pdfrwt>
<pdfrwt beam="2">  1       -1 0.38840700E-01 0.17572087E+03</pdfrwt>
<totfact> 0.64584892E+03</totfact>
</mgrwt>
</event>
<event>
 4    1  0.5045766E+003  0.1055744E+03  0.7546771E-02  0.1268992E+00
          2   -1    0    0  503    0 -0.00000000000E+00  0.00000000000E+00  0.60021488929E+03  0.60021488929E+03  0.00000000000E+00 0.  1.
         21   -1    0    0  501  502  0.00000000000E+00 -0.00000000000E+00 -0.65243700117E+02  0.65243700117E+02  0.00000000000E+00 0.  1.
         21    1    1    2  503  502  0.82736352191E+02 -0.65579333230E+02 -0.13936476586E+02  0.10649027327E+03  0.00000000000E+00 0.  1.
          2    1    1    2  501    0 -0.82736352191E+02  0.65579333230E+02  0.54890766576E+03  0.55896831614E+03  0.00000000000E+00 0.  1.
<mgrwt>
<rscale>  2 0.10557440E+03</rscale>
<asrwt>0</asrwt>
<pdfrwt beam="2">  1       21 0.10037493E-01 0.10557440E+03</pdfrwt>
<pdfrwt beam="1">  1        2 0.92340749E-01 0.10557440E+03</pdfrwt>
<totfact> 0.51046893E+04</totfact>
</mgrwt>
</event>
<event>
 4    1  0.5045766E+003  0.1646193E+03  0.7546771E-02  0.1183578E+00
         -2   -1    0    0    0  501 -0.00000000000E+00  0.00000000000E+00  0.11921007541E+04  0.11921007541E+04  0.00000000000E+00 0.  1.
         21   -1    0    0  501  502  0.00000000000E+00 -0.00000000000E+00 -0.89176172025E+02  0.89176172025E+02  0.00000000000E+00 0.  1.
         21    1    1    2  503  502 -0.15945594594E+03  0.40906334993E+02 -0.15249930546E+01  0.16462640293E+03  0.00000000000E+00 0.  1.
         -2    1    1    2    0  503  0.15945594594E+03 -0.40906334993E+02  0.11044495751E+04  0.11166505232E+04  0.00000000000E+00 0.  1.
<mgrwt>
<rscale>  2 0.16461934E+03</rscale>
<asrwt>0</asrwt>
<pdfrwt beam="2">  1       21 0.13719412E-01 0.16461934E+03</pdfrwt>
<pdfrwt beam="1">  1       -2 0.18340011E+00 0.16461934E+03</pdfrwt>
<totfact> 0.71366446E+02</totfact>
</mgrwt>
</event>
<event>
 4    1  0.5045766E+003  0.1092016E+03  0.7546771E-02  0.1262056E+00
          3   -1    0    0  502    0 -0.00000000000E+00  0.00000000000E+00  0.11108020413E+03  0.11108020413E+03  0.00000000000E+00 0. -1.
         21   -1    0    0  503  502  0.00000000000E+00 -0.00000000000E+00 -0.24894591429E+03  0.24894591429E+03  0.00000000000E+00 0.  1.
         21    1    1    2  503  501 -0.47373736433E+02  0.98390628367E+02 -0.20469215813E+03  0.23199971175E+03  0.00000000000E+00 0.  1.
          3    1    1    2  501    0  0.47373736433E+02 -0.98390628367E+02  0.66826447978E+02  0.12802640666E+03  0.00000000000E+00 0. -1.
<mgrwt>
<rscale>  2 0.10920159E+03</rscale>
<asrwt>0</asrwt>
<pdfrwt beam="2">  1       21 0.38299371E-01 0.10920159E+03</pdfrwt>
<pdfrwt beam="1">  1        3 0.17089262E-01 0.10920159E+03</pdfrwt>
<totfact> 0.93455507E+03</totfact>
</mgrwt>
</event>
<event>
 4    1  0.5045766E+003  0.1051033E+03  0.7546771E-02  0.1269916E+00
          1   -1    0    0  503    0 -0.00000000000E+00  0.00000000000E+00  0.16247740139E+04  0.16247740139E+04  0.00000000000E+00 0. -1.
         21   -1    0    0  501  502  0.00000000000E+00 -0.00000000000E+00 -0.21574504236E+02  0.21574504236E+02  0.00000000000E+00 0. -1.
         21    1    1    2  503  502  0.10380735717E+03  0.16453756231E+02  0.12036964341E+03  0.15979844978E+03  0.00000000000E+00 0. -1.
          1    1    1    2  501    0 -0.10380735717E+03 -0.16453756231E+02  0.14828298662E+04  0.14865500683E+04  0.00000000000E+00 0. -1.
<mgrwt>
<rscale>  2 0.10510325E+03</rscale>
<asrwt>0</asrwt>
<pdfrwt beam="2">  1       21 0.33191558E-02 0.10510325E+03</pdfrwt>
<pdfrwt beam="1">  1        1 0.24996514E+00 0.10510325E+03</pdfrwt>
<totfact> 0.36684395E+04</totfact>
</mgrwt>
</event>
<event>
 4    1  0.5045766E+003  0.1801550E+03  0.7546771E-02  0.1167653E+00
         21   -1    0    0  503  502  0.00000000000E+00  0.00000000000E+00  0.58531708799E+02  0.58531708799E+02  0.00000000000E+00 0.  1.
          2   -1    0    0  502    0 -0.00000000000E+00 -0.00000000000E+00 -0.94048595057E+03  0.94048595057E+03  0.00000000000E+00 0. -1.
         21    1    1    2  503  501  0.17040694204E+03  0.58457545605E+02 -0.12097491402E+03  0.21700401000E+03  0.00000000000E+00 0.  1.
          2    1    1    2  501    0 -0.17040694204E+03 -0.58457545605E+02 -0.76097932776E+03  0.78201364937E+03  0.00000000000E+00 0. -1.
<mgrwt>
<rscale>  2 0.18015496E+03</rscale>
<asrwt>0</asrwt>
<pdfrwt beam="1">  1       21 0.90048787E-02 0.18015496E+03</pdfrwt>
<pdfrwt beam="2">  1        2 0.14469014E+00 0.18015496E+03</pdfrwt>
<totfact> 0.35512067E+04</totfact>
</mgrwt>
</event>
<event>
 4    1  0.5045766E+003  0.1201893E+03  0.7546771E-02  0.1242785E+00
          1   -1    0    0  503    0 -0.00000000000E+00  0.00000000000E+00  0.89536994597E+02  0.89536994597E+02  0.00000000000E+00 0.  1.
         21   -1    0    0  501  502  0.00000000000E+00 -0.00000000000E+00 -0.30042174044E+03  0.30042174044E+03  0.00000000000E+00 0.  1.
         21    1    1    2  503  502  0.11760103442E+03  0.24808587808E+02 -0.23811017186E+03  0.26672443320E+03  0.00000000000E+00 0.  1.
          1    1    1    2  501    0 -0.11760103442E+03 -0.24808587808E+02  0.27225426013E+02  0.12323430183E+03  0.00000000000E+00 0.  1.
<mgrwt>
<rscale>  2 0.12018931E+03</rscale>
<asrwt>0</asrwt>
<pdfrwt beam="2">  1       21 0.46218730E-01 0.12018931E+03</pdfrwt>
<pdfrwt beam="1">  1        1 0.13774922E-01 0.12018931E+03</pdfrwt>
<totfact> 0.20072511E+04</totfact>
</mgrwt>
</event>
<event>
 4    1  0.5045766E+003  0.1352805E+03  0.7546771E-02  0.1219824E+00
         21   -1    0    0  501  502  0.00000000000E+00  0.00000000000E+00  0.63861488116E+03  0.63861488116E+03  0.00000000000E+00 0. -1.
          2   -1    0    0  503    0 -0.00000000000E+00 -0.00000000000E+00 -0.19095622808E+03  0.19095622808E+03  0.00000000000E+00 0.  1.
         21    1    1    2  503  502  0.55814028681E+02  0.12322989494E+03  0.60622668338E+03  0.62113734749E+03  0.00000000000E+00 0. -1.
          2    1    1    2  501    0 -0.55814028681E+02 -0.12322989494E+03 -0.15856803030E+03  0.20843376175E+03  0.00000000000E+00 0.  1.
<mgrwt>
<rscale>  2 0.13528050E+03</rscale>
<asrwt>0</asrwt>
<pdfrwt beam="1">  1       21 0.98248442E-01 0.13528050E+03</pdfrwt>
<pdfrwt beam="2">  1        2 0.29377881E-01 0.13528050E+03</pdfrwt>
<totfact> 0.19448940E+03</totfact>
</mgrwt>
</event>
<event>
 4    1  0.5045766E+003  0.1834835E+03  0.7546771E-02  0.1164474E+00
          2   -1    0    0  502    0 -0.00000000000E+00  0.00000000000E+00  0.62126598263E+03  0.62126598263E+03  0.00000000000E+00 0.  1.
         21   -1    0    0  503  502  0.00000000000E+00 -0.00000000000E+00 -0.23621541314E+03  0.23621541314E+03  0.00000000000E+00 0. -1.
         21    1    1    2  503  501  0.16777208311E+03 -0.74288151521E+02 -0.18383777936E+03  0.25973550094E+03  0.00000000000E+00 0. -1.
          2    1    1    2  501    0 -0.16777208311E+03  0.74288151521E+02  0.56888834885E+03  0.59774589483E+03  0.00000000000E+00 0.  1.
<mgrwt>
<rscale>  2 0.18348352E+03</rscale>
<asrwt>0</asrwt>
<pdfrwt beam="2">  1       21 0.36340833E-01 0.18348352E+03</pdfrwt>
<pdfrwt beam="1">  1        2 0.95579381E-01 0.18348352E+03</pdfrwt>
<totfact> 0.44630146E+03</totfact>
</mgrwt>
</event>
<event>
 4    1  0.5045766E+003  0.1027430E+03  0.7546771E-02  0.1274631E+00
         -1   -1    0    0    0  501 -0.00000000000E+00  0.00000000000E+00  0.11226003470E+03  0.11226003470E+03  0.00000000000E+00 0. -1.
         21   -1    0    0  503  502  0.00000000000E+00 -0.00000000000E+00 -0.27811554709E+03  0.27811554709E+03  0.00000000000E+00 0. -1.
         21    1    1    2  503  501  0.64386172243E+02 -0.80065873311E+02 -0.24172632395E+03  0.26265517115E+03  0.00000000000E+00 0. -1.
         -1    1    1    2    0  502 -0.64386172243E+02  0.80065873311E+02  0.75870811560E+02  0.12772041063E+03  0.00000000000E+00 0. -1.
<mgrwt>
<rscale>  2 0.10274300E+03</rscale>
<asrwt>0</asrwt>
<pdfrwt beam="2">  1       21 0.42787007E-01 0.10274300E+03</pdfrwt>
<pdfrwt beam="1">  1       -1 0.17270775E-01 0.10274300E+03</pdfrwt>
<totfact> 0.12216737E+04</totfact>
</mgrwt>
</event>
<event>
 4    1  0.5045766E+003  0.2747952E+03  0.7546771E-02  0.1098566E+00
         21   -1    0    0  503  502  0.00000000000E+00  0.00000000000E+00  0.61668580694E+02  0.61668580694E+02  0.00000000000E+00 0. -1.
          2   -1    0    0  502    0 -0.00000000000E+00 -0.00000000000E+00 -0.20846977858E+04  0.20846977858E+04  0.00000000000E+00 0. -1.
         21    1    1    2  503  501  0.20287328739E+03  0.18535061638E+03 -0.32214114482E+03  0.42342335660E+03  0.00000000000E+00 0. -1.
          2    1    1    2  501    0 -0.20287328739E+03 -0.18535061638E+03 -0.17008880603E+04  0.17229430099E+04  0.00000000000E+00 0. -1.
<mgrwt>
<rscale>  2 0.27479524E+03</rscale>
<asrwt>0</asrwt>
<pdfrwt beam="1">  1       21 0.94874736E-02 0.27479524E+03</pdfrwt>
<pdfrwt beam="2">  1        2 0.32072275E+00 0.27479524E+03</pdfrwt>
<totfact> 0.74984054E+03</totfact>
</mgrwt>
</event>
<event>
 4    1  0.5045766E+003  0.1420012E+03  0.7546771E-02  0.1210661E+00
         21   -1    0    0  501  502  0.00000000000E+00  0.00000000000E+00  0.80339695452E+03  0.80339695452E+03  0.00000000000E+00 0. -1.
         -1   -1    0    0    0  501 -0.00000000000E+00 -0.00000000000E+00 -0.27482900899E+03  0.27482900899E+03  0.00000000000E+00 0.  1.
         21    1    1    2  503  502 -0.67678311351E+02 -0.12483589527E+03  0.77819032330E+03  0.79104015945E+03  0.00000000000E+00 0. -1.
         -1    1    1    2    0  503  0.67678311351E+02  0.12483589527E+03 -0.24962237776E+03  0.28718580406E+03  0.00000000000E+00 0.  1.
<mgrwt>
<rscale>  2 0.14200125E+03</rscale>
<asrwt>0</asrwt>
<pdfrwt beam="1">  1       21 0.12359953E+00 0.14200125E+03</pdfrwt>
<pdfrwt beam="2">  1       -1 0.42281386E-01 0.14200125E+03</pdfrwt>
<totfact> 0.26183718E+02</totfact>
</mgrwt>
</event>
<event>
 4    1  0.5045766E+003  0.1054274E+03  0.7546771E-02  0.1269280E+00
         21   -1    0    0  501  502  0.00000000000E+00  0.00000000000E+00  0.84325182446E+02  0.84325182446E+02  0.00000000000E+00 0.  1.
          2   -1    0    0  503    0 -0.00000000000E+00 -0.00000000000E+00 -0.28000305561E+04  0.28000305561E+04  0.00000000000E+00 0. -1.
         21    1    1    2  503  502  0.96295824822E+02 -0.42919017067E+02  0.49971037738E+02  0.11667061548E+03  0.00000000000E+00 0.  1.
          2    1    1    2  501    0 -0.96295824822E+02  0.42919017067E+02 -0.27656764113E+04  0.27676851230E+04  0.00000000000E+00 0. -1.
<mgrwt>
<rscale>  2 0.10542736E+03</rscale>
<asrwt>0</asrwt>
<pdfrwt beam="1">  1       21 0.12973105E-01 0.10542736E+03</pdfrwt>
<pdfrwt beam="2">  1        2 0.43077394E+00 0.10542736E+03</pdfrwt>
<totfact> 0.19766860E+03</totfact>
</mgrwt>
</event>
<event>
 4    1  0.5045766E+003  0.1659807E+03  0.7546771E-02  0.1182105E+00
         -1   -1    0    0    0  501 -0.00000000000E+00  0.00000000000E+00  0.18775305419E+03  0.18775305419E+03  0.00000000000E+00 0.  1.
         21   -1    0    0  503  502  0.00000000000E+00 -0.00000000000E+00 -0.34497617278E+03  0.34497617278E+03  0.00000000000E+00 0. -1.
         21    1    1    2  503  501 -0.26084709944E+02 -0.16391822726E+03 -0.28053230086E+03  0.32595700506E+03  0.00000000000E+00 0. -1.
         -1    1    1    2    0  502  0.26084709944E+02  0.16391822726E+03  0.12330918227E+03  0.20677222191E+03  0.00000000000E+00 0.  1.
<mgrwt>
<rscale>  2 0.16598071E+03</rscale>
<asrwt>0</asrwt>
<pdfrwt beam="2">  1       21 0.53073258E-01 0.16598071E+03</pdfrwt>
<pdfrwt beam="1">  1       -1 0.28885085E-01 0.16598071E+03</pdfrwt>
<totfact> 0.33738260E+03</totfact>
</mgrwt>
</event>
<event>
 4    1  0.5045766E+003  0.1052091E+03  0.7546771E-02  0.1269708E+00
         -1   -1    0    0    0  501 -0.00000000000E+00  0.00000000000E+00  0.12692687010E+03  0.12692687010E+03  0.00000000000E+00 0.  1.
         21   -1    0    0  501  502  0.00000000000E+00 -0.00000000000E+00 -0.14709027001E+03  0.14709027001E+03  0.00000000000E+00 0. -1.
         21    1    1    2  503  502 -0.88469698665E+02  0.56939112123E+02 -0.97501018077E+02  0.14344127229E+03  0.00000000000E+00 0. -1.
         -1    1    1    2    0  503  0.88469698665E+02 -0.56939112123E+02  0.77337618163E+02  0.13057586781E+03  0.00000000000E+00 0.  1.
<mgrwt>
<rscale>  2 0.10520908E+03</rscale>
<asrwt>0</asrwt>
<pdfrwt beam="2">  1       21 0.22629272E-01 0.10520908E+03</pdfrwt>
<pdfrwt beam="1">  1       -1 0.19527211E-01 0.10520908E+03</pdfrwt>
<totfact> 0.34356410E+04</totfact>
</mgrwt>
</event>
<event>
 4    1  0.5045766E+003  0.1009883E+03  0.7546771E-02  0.1278231E+00
         21   -1    0    0  501  502  0.00000000000E+00  0.00000000000E+00  0.28536688741E+02  0.28536688741E+02  0.00000000000E+00 0. -1.
          2   -1    0    0  503    0 -0.00000000000E+00 -0.00000000000E+00 -0.80503726036E+03  0.80503726036E+03  0.00000000000E+00 0.  1.
         21    1    1    2  503  502  0.84737693879E+02  0.54937795986E+02 -0.77454139376E+02  0.12727050679E+03  0.00000000000E+00 0. -1.
          2    1    1    2  501    0 -0.84737693879E+02 -0.54937795986E+02 -0.69904643224E+03  0.70630344231E+03  0.00000000000E+00 0.  1.
<mgrwt>
<rscale>  2 0.10098831E+03</rscale>
<asrwt>0</asrwt>
<pdfrwt beam="1">  1       21 0.43902595E-02 0.10098831E+03</pdfrwt>
<pdfrwt beam="2">  1        2 0.12385190E+00 0.10098831E+03</pdfrwt>
<totfact> 0.14701474E+05</totfact>
</mgrwt>
</event>
<event>
 4    1  0.5045766E+003  0.1311965E+03  0.7546771E-02  0.1225691E+00
         21   -1    0    0  501  502  0.00000000000E+00  0.00000000000E+00  0.65098984844E+02  0.65098984844E+02  0.00000000000E+00 0. -1.
          2   -1    0    0  503    0 -0.00000000000E+00 -0.00000000000E+00 -0.55679049233E+03  0.55679049233E+03  0.00000000000E+00 0.  1.
         21    1    1    2  503  502  0.77406372551E+02 -0.10592811146E+03 -0.20517809252E+02  0.13279115861E+03  0.00000000000E+00 0. -1.
          2    1    1    2  501    0 -0.77406372551E+02  0.10592811146E+03 -0.47117369823E+03  0.48909831856E+03  0.00000000000E+00 0.  1.
<mgrwt>
<rscale>  2 0.13119646E+03</rscale>
<asrwt>0</asrwt>
<pdfrwt beam="1">  1       21 0.10015229E-01 0.13119646E+03</pdfrwt>
<pdfrwt beam="2">  1        2 0.85660071E-01 0.13119646E+03</pdfrwt>
<totfact> 0.55863239E+04</totfact>
</mgrwt>
</event>
<event>
 4    1  0.5045766E+003  0.1082323E+03  0.7546771E-02  0.1263879E+00
         21   -1    0    0  503  502  0.00000000000E+00  0.00000000000E+00  0.22205263893E+03  0.22205263893E+03  0.00000000000E+00 0. -1.
         -4   -1    0    0    0  501 -0.00000000000E+00 -0.00000000000E+00 -0.98802702479E+02  0.98802702479E+02  0.00000000000E+00 0. -1.
         21    1    1    2  503  501 -0.79700038031E+02 -0.73226635458E+02  0.17114714097E+03  0.20249834583E+03  0.00000000000E+00 0. -1.
         -4    1    1    2    0  502  0.79700038031E+02  0.73226635458E+02 -0.47897204515E+02  0.11835699558E+03  0.00000000000E+00 0. -1.
<mgrwt>
<rscale>  2 0.10823233E+03</rscale>
<asrwt>0</asrwt>
<pdfrwt beam="1">  1       21 0.34161944E-01 0.10823233E+03</pdfrwt>
<pdfrwt beam="2">  1       -4 0.15200416E-01 0.10823233E+03</pdfrwt>
<totfact> 0.12229949E+04</totfact>
</mgrwt>
</event>
<event>
 4    1  0.5045766E+003  0.1138866E+03  0.7546771E-02  0.1253537E+00
         21   -1    0    0  503  502  0.00000000000E+00  0.00000000000E+00  0.23110399220E+04  0.23110399220E+04  0.00000000000E+00 0. -1.
          1   -1    0    0  502    0 -0.00000000000E+00 -0.00000000000E+00 -0.10229556148E+02  0.10229556148E+02  0.00000000000E+00 0. -1.
         21    1    1    2  503  501  0.61722541737E+02 -0.95710397536E+02  0.19301654972E+04  0.19335224331E+04  0.00000000000E+00 0. -1.
          1    1    1    2  501    0 -0.61722541737E+02  0.95710397536E+02  0.37064486856E+03  0.38774704505E+03  0.00000000000E+00 0. -1.
<mgrwt>
<rscale>  2 0.11388658E+03</rscale>
<asrwt>0</asrwt>
<pdfrwt beam="1">  1       21 0.35554419E+00 0.11388658E+03</pdfrwt>
<pdfrwt beam="2">  1        1 0.15737797E-02 0.11388658E+03</pdfrwt>
<totfact> 0.15647919E+03</totfact>
</mgrwt>
</event>
<event>
 4    1  0.5045766E+003  0.1210816E+03  0.7546771E-02  0.1241323E+00
          2   -1    0    0  503    0 -0.00000000000E+00  0.00000000000E+00  0.16716743021E+04  0.16716743021E+04  0.00000000000E+00 0. -1.
         21   -1    0    0  501  502  0.00000000000E+00 -0.00000000000E+00 -0.41478847081E+02  0.41478847081E+02  0.00000000000E+00 0.  1.
         21    1    1    2  503  502 -0.95971374776E+02 -0.73825834000E+02  0.54447886951E+02  0.13276042684E+03  0.00000000000E+00 0.  1.
          2    1    1    2  501    0  0.95971374776E+02  0.73825834000E+02  0.15757475680E+04  0.15803927223E+04  0.00000000000E+00 0. -1.
<mgrwt>
<rscale>  2 0.12108162E+03</rscale>
<asrwt>0</asrwt>
<pdfrwt beam="2">  1       21 0.63813624E-02 0.12108162E+03</pdfrwt>
<pdfrwt beam="1">  1        2 0.25718061E+00 0.12108162E+03</pdfrwt>
<totfact> 0.25838854E+04</totfact>
</mgrwt>
</event>
<event>
 4    1  0.5045766E+003  0.1010524E+03  0.7546771E-02  0.1278098E+00
         21   -1    0    0  501  502  0.00000000000E+00  0.00000000000E+00  0.57057145637E+02  0.57057145637E+02  0.00000000000E+00 0. -1.
         -1   -1    0    0    0  501 -0.00000000000E+00 -0.00000000000E+00 -0.26383201441E+03  0.26383201441E+03  0.00000000000E+00 0. -1.
         21    1    1    2  503  502 -0.65195111028E+02  0.77208675690E+02 -0.12392949971E+02  0.10180946573E+03  0.00000000000E+00 0. -1.
         -1    1    1    2    0  503  0.65195111028E+02 -0.77208675690E+02 -0.19438191881E+03  0.21907969432E+03  0.00000000000E+00 0. -1.
<mgrwt>
<rscale>  2 0.10105237E+03</rscale>
<asrwt>0</asrwt>
<pdfrwt beam="1">  1       21 0.87780224E-02 0.10105237E+03</pdfrwt>
<pdfrwt beam="2">  1       -1 0.40589541E-01 0.10105237E+03</pdfrwt>
<totfact> 0.55315992E+04</totfact>
</mgrwt>
</event>
<event>
 4    1  0.5045766E+003  0.1081047E+03  0.7546771E-02  0.1264120E+00
         21   -1    0    0  501  502  0.00000000000E+00  0.00000000000E+00  0.15449444388E+03  0.15449444388E+03  0.00000000000E+00 0. -1.
          1   -1    0    0  503    0 -0.00000000000E+00 -0.00000000000E+00 -0.24642323970E+04  0.24642323970E+04  0.00000000000E+00 0.  1.
         21    1    1    2  503  502 -0.71044739779E+02 -0.81481771800E+02  0.13424108584E+03  0.17235806715E+03  0.00000000000E+00 0. -1.
          1    1    1    2  501    0  0.71044739779E+02  0.81481771800E+02 -0.24439790389E+04  0.24463687737E+04  0.00000000000E+00 0.  1.
<mgrwt>
<rscale>  2 0.10810474E+03</rscale>
<asrwt>0</asrwt>
<pdfrwt beam="1">  1       21 0.23768379E-01 0.10810474E+03</pdfrwt>
<pdfrwt beam="2">  1        1 0.37911263E+00 0.10810474E+03</pdfrwt>
<totfact> 0.35218373E+02</totfact>
</mgrwt>
</event>
<event>
 4    1  0.5045766E+003  0.1489023E+03  0.7546771E-02  0.1201828E+00
         21   -1    0    0  503  502  0.00000000000E+00  0.00000000000E+00  0.10109489648E+03  0.10109489648E+03  0.00000000000E+00 0.  1.
         -4   -1    0    0    0  501 -0.00000000000E+00 -0.00000000000E+00 -0.37411009686E+03  0.37411009686E+03  0.00000000000E+00 0.  1.
         21    1    1    2  503  501  0.13138832748E+03  0.70064356393E+02  0.16328521246E+02  0.14979495065E+03  0.00000000000E+00 0.  1.
         -4    1    1    2    0  502 -0.13138832748E+03 -0.70064356393E+02 -0.28934372163E+03  0.32541004269E+03  0.00000000000E+00 0.  1.
<mgrwt>
<rscale>  2 0.14890234E+03</rscale>
<asrwt>0</asrwt>
<pdfrwt beam="1">  1       21 0.15553061E-01 0.14890234E+03</pdfrwt>
<pdfrwt beam="2">  1       -4 0.57555400E-01 0.14890234E+03</pdfrwt>
<totfact> 0.44103545E+03</totfact>
</mgrwt>
</event>
<event>
 4    1  0.5045766E+003  0.1126794E+03  0.7546771E-02  0.1255687E+00
          2   -1    0    0  502    0 -0.00000000000E+00  0.00000000000E+00  0.29941694286E+04  0.29941694286E+04  0.00000000000E+00 0. -1.
         21   -1    0    0  503  502  0.00000000000E+00 -0.00000000000E+00 -0.74798640875E+02  0.74798640875E+02  0.00000000000E+00 0.  1.
         21    1    1    2  503  501 -0.18115921312E+02 -0.11121356540E+03 -0.30667862752E+02  0.11677825799E+03  0.00000000000E+00 0.  1.
          2    1    1    2  501    0  0.18115921312E+02  0.11121356540E+03  0.29500386505E+04  0.29521898115E+04  0.00000000000E+00 0. -1.
<mgrwt>
<rscale>  2 0.11267938E+03</rscale>
<asrwt>0</asrwt>
<pdfrwt beam="2">  1       21 0.11507486E-01 0.11267938E+03</pdfrwt>
<pdfrwt beam="1">  1        2 0.46064136E+00 0.11267938E+03</pdfrwt>
<totfact> 0.18828683E+03</totfact>
</mgrwt>
</event>
<event>
 4    1  0.5045766E+003  0.1289753E+03  0.7546771E-02  0.1228984E+00
         21   -1    0    0  501  502  0.00000000000E+00  0.00000000000E+00  0.19648803524E+03  0.19648803524E+03  0.00000000000E+00 0. -1.
          1   -1    0    0  503    0 -0.00000000000E+00 -0.00000000000E+00 -0.40442944318E+03  0.40442944318E+03  0.00000000000E+00 0. -1.
         21    1    1    2  503  502 -0.72708573546E+02 -0.10652737370E+03  0.16319588286E+03  0.20800844742E+03  0.00000000000E+00 0. -1.
          1    1    1    2  501    0  0.72708573546E+02  0.10652737370E+03 -0.37113729081E+03  0.39290903100E+03  0.00000000000E+00 0. -1.
<mgrwt>
<rscale>  2 0.12897526E+03</rscale>
<asrwt>0</asrwt>
<pdfrwt beam="1">  1       21 0.30228929E-01 0.12897526E+03</pdfrwt>
<pdfrwt beam="2">  1        1 0.62219914E-01 0.12897526E+03</pdfrwt>
<totfact> 0.70199022E+03</totfact>
</mgrwt>
</event>
<event>
 4    1  0.5045766E+003  0.1656248E+03  0.7546771E-02  0.1182489E+00
         21   -1    0    0  501  502  0.00000000000E+00  0.00000000000E+00  0.51618198902E+02  0.51618198902E+02  0.00000000000E+00 0.  1.
          2   -1    0    0  503    0 -0.00000000000E+00 -0.00000000000E+00 -0.10027157558E+04  0.10027157558E+04  0.00000000000E+00 0.  1.
         21    1    1    2  503  502 -0.13795250585E+03 -0.91655171773E+02 -0.11413850131E+03  0.20114462922E+03  0.00000000000E+00 0.  1.
          2    1    1    2  501    0  0.13795250585E+03  0.91655171773E+02 -0.83695905560E+03  0.85318932549E+03  0.00000000000E+00 0.  1.
<mgrwt>
<rscale>  2 0.16562477E+03</rscale>
<asrwt>0</asrwt>
<pdfrwt beam="1">  1       21 0.79412622E-02 0.16562477E+03</pdfrwt>
<pdfrwt beam="2">  1        2 0.15426395E+00 0.16562477E+03</pdfrwt>
<totfact> 0.40572955E+04</totfact>
</mgrwt>
</event>
<event>
 4    1  0.5045766E+003  0.1151846E+03  0.7546771E-02  0.1251259E+00
          2   -1    0    0  503    0 -0.00000000000E+00  0.00000000000E+00  0.13802536271E+03  0.13802536271E+03  0.00000000000E+00 0. -1.
         21   -1    0    0  501  502  0.00000000000E+00 -0.00000000000E+00 -0.17524765276E+03  0.17524765276E+03  0.00000000000E+00 0. -1.
         21    1    1    2  503  502  0.33264643660E+02 -0.11027675486E+03 -0.12386089210E+03  0.16914201067E+03  0.00000000000E+00 0. -1.
          2    1    1    2  501    0 -0.33264643660E+02  0.11027675486E+03  0.86638602044E+02  0.14413100480E+03  0.00000000000E+00 0. -1.
<mgrwt>
<rscale>  2 0.11518463E+03</rscale>
<asrwt>0</asrwt>
<pdfrwt beam="2">  1       21 0.26961177E-01 0.11518463E+03</pdfrwt>
<pdfrwt beam="1">  1        2 0.21234671E-01 0.11518463E+03</pdfrwt>
<totfact> 0.41414671E+04</totfact>
</mgrwt>
</event>
<event>
 4    1  0.5045766E+003  0.2078026E+03  0.7546771E-02  0.1143318E+00
          1   -1    0    0  503    0 -0.00000000000E+00  0.00000000000E+00  0.15682243987E+03  0.15682243987E+03  0.00000000000E+00 0.  1.
         21   -1    0    0  501  502  0.00000000000E+00 -0.00000000000E+00 -0.29389231134E+03  0.29389231134E+03  0.00000000000E+00 0.  1.
         21    1    1    2  503  502  0.20124202328E+03 -0.51803217591E+02 -0.12513212770E+03  0.24256952544E+03  0.00000000000E+00 0.  1.
          1    1    1    2  501    0 -0.20124202328E+03  0.51803217591E+02 -0.11937743763E+02  0.20814522578E+03  0.00000000000E+00 0.  1.
<mgrwt>
<rscale>  2 0.20780261E+03</rscale>
<asrwt>0</asrwt>
<pdfrwt beam="2">  1       21 0.45214202E-01 0.20780261E+03</pdfrwt>
<pdfrwt beam="1">  1        1 0.24126529E-01 0.20780261E+03</pdfrwt>
<totfact> 0.10116831E+04</totfact>
</mgrwt>
</event>
<event>
 4    1  0.5045766E+003  0.1069753E+03  0.7546771E-02  0.1266276E+00
          2   -1    0    0  503    0 -0.00000000000E+00  0.00000000000E+00  0.11892858704E+04  0.11892858704E+04  0.00000000000E+00 0. -1.
         21   -1    0    0  501  502  0.00000000000E+00 -0.00000000000E+00 -0.32176853430E+02  0.32176853430E+02  0.00000000000E+00 0. -1.
         21    1    1    2  503  502  0.94567342758E+02 -0.50007410795E+02  0.67231797629E+02  0.12634808294E+03  0.00000000000E+00 0. -1.
          2    1    1    2  501    0 -0.94567342758E+02  0.50007410795E+02  0.10898772194E+04  0.10951146409E+04  0.00000000000E+00 0. -1.
<mgrwt>
<rscale>  2 0.10697534E+03</rscale>
<asrwt>0</asrwt>
<pdfrwt beam="2">  1       21 0.49502861E-02 0.10697534E+03</pdfrwt>
<pdfrwt beam="1">  1        2 0.18296702E+00 0.10697534E+03</pdfrwt>
<totfact> 0.71120440E+04</totfact>
</mgrwt>
</event>
<event>
 4    1  0.5045766E+003  0.1067669E+03  0.7546771E-02  0.1266677E+00
         21   -1    0    0  503  502  0.00000000000E+00  0.00000000000E+00  0.13823745314E+02  0.13823745314E+02  0.00000000000E+00 0.  1.
          2   -1    0    0  502    0 -0.00000000000E+00 -0.00000000000E+00 -0.19893746111E+04  0.19893746111E+04  0.00000000000E+00 0. -1.
         21    1    1    2  503  501 -0.49149467403E+02  0.94781290345E+02 -0.22137589185E+03  0.24577723377E+03  0.00000000000E+00 0.  1.
          2    1    1    2  501    0  0.49149467403E+02 -0.94781290345E+02 -0.17541749740E+04  0.17574211227E+04  0.00000000000E+00 0. -1.
<mgrwt>
<rscale>  2 0.10676686E+03</rscale>
<asrwt>0</asrwt>
<pdfrwt beam="1">  1       21 0.21267298E-02 0.10676686E+03</pdfrwt>
<pdfrwt beam="2">  1        2 0.30605767E+00 0.10676686E+03</pdfrwt>
<totfact> 0.10977623E+05</totfact>
</mgrwt>
</event>
<event>
 4    1  0.5045766E+003  0.1144775E+03  0.7546771E-02  0.1252496E+00
         21   -1    0    0  503  502  0.00000000000E+00  0.00000000000E+00  0.47903652386E+03  0.47903652386E+03  0.00000000000E+00 0. -1.
          4   -1    0    0  502    0 -0.00000000000E+00 -0.00000000000E+00 -0.11962913779E+03  0.11962913779E+03  0.00000000000E+00 0.  1.
         21    1    1    2  503  501 -0.11157597369E+03 -0.25610417129E+02  0.44259166719E+03  0.45715694815E+03  0.00000000000E+00 0. -1.
          4    1    1    2  501    0  0.11157597369E+03  0.25610417129E+02 -0.83184281127E+02  0.14150871350E+03  0.00000000000E+00 0.  1.
<mgrwt>
<rscale>  2 0.11447747E+03</rscale>
<asrwt>0</asrwt>
<pdfrwt beam="1">  1       21 0.73697926E-01 0.11447747E+03</pdfrwt>
<pdfrwt beam="2">  1        4 0.18404483E-01 0.11447747E+03</pdfrwt>
<totfact> 0.17983555E+03</totfact>
</mgrwt>
</event>
<event>
 4    1  0.5045766E+003  0.1204416E+03  0.7546771E-02  0.1242370E+00
         -2   -1    0    0    0  501 -0.00000000000E+00  0.00000000000E+00  0.21402326991E+03  0.21402326991E+03  0.00000000000E+00 0.  1.
         21   -1    0    0  501  502  0.00000000000E+00 -0.00000000000E+00 -0.40512327004E+03  0.40512327004E+03  0.00000000000E+00 0.  1.
         21    1    1    2  503  502  0.12040541738E+03  0.29537045773E+01 -0.37804242872E+03  0.39676474997E+03  0.00000000000E+00 0.  1.
         -2    1    1    2    0  503 -0.12040541738E+03 -0.29537045773E+01  0.18694242860E+03  0.22238178998E+03  0.00000000000E+00 0.  1.
<mgrwt>
<rscale>  2 0.12044164E+03</rscale>
<asrwt>0</asrwt>
<pdfrwt beam="2">  1       21 0.62326656E-01 0.12044164E+03</pdfrwt>
<pdfrwt beam="1">  1       -2 0.32926657E-01 0.12044164E+03</pdfrwt>
<totfact> 0.16952393E+03</totfact>
</mgrwt>
</event>
<event>
 4    1  0.5045766E+003  0.1232312E+03  0.7546771E-02  0.1237860E+00
          2   -1    0    0  503    0 -0.00000000000E+00  0.00000000000E+00  0.14067488969E+04  0.14067488969E+04  0.00000000000E+00 0.  1.
         21   -1    0    0  501  502  0.00000000000E+00 -0.00000000000E+00 -0.39614585478E+02  0.39614585478E+02  0.00000000000E+00 0. -1.
         21    1    1    2  503  502 -0.85523829099E+01  0.12293406873E+03  0.66740174472E+02  0.14014342438E+03  0.00000000000E+00 0. -1.
          2    1    1    2  501    0  0.85523829099E+01 -0.12293406873E+03  0.13003941369E+04  0.13062200580E+04  0.00000000000E+00 0.  1.
<mgrwt>
<rscale>  2 0.12323120E+03</rscale>
<asrwt>0</asrwt>
<pdfrwt beam="2">  1       21 0.60945527E-02 0.12323120E+03</pdfrwt>
<pdfrwt beam="1">  1        2 0.21642287E+00 0.12323120E+03</pdfrwt>
<totfact> 0.38264593E+04</totfact>
</mgrwt>
</event>
<event>
 4    1  0.5045766E+003  0.1317967E+03  0.7546771E-02  0.1224814E+00
         21   -1    0    0  501  502  0.00000000000E+00  0.00000000000E+00  0.99899141934E+02  0.99899141934E+02  0.00000000000E+00 0.  1.
          1   -1    0    0  503    0 -0.00000000000E+00 -0.00000000000E+00 -0.96582997126E+03  0.96582997126E+03  0.00000000000E+00 0.  1.
         21    1    1    2  503  502  0.13104017081E+03 -0.14101635021E+02  0.49554885440E+02  0.14080507501E+03  0.00000000000E+00 0.  1.
          1    1    1    2  501    0 -0.13104017081E+03  0.14101635021E+02 -0.91548571477E+03  0.92492403819E+03  0.00000000000E+00 0.  1.
<mgrwt>
<rscale>  2 0.13179675E+03</rscale>
<asrwt>0</asrwt>
<pdfrwt beam="1">  1       21 0.15369099E-01 0.13179675E+03</pdfrwt>
<pdfrwt beam="2">  1        1 0.14858922E+00 0.13179675E+03</pdfrwt>
<totfact> 0.73083666E+03</totfact>
</mgrwt>
</event>
<event>
 4    1  0.5045766E+003  0.1574165E+03  0.7546771E-02  0.1191645E+00
         -2   -1    0    0    0  501 -0.00000000000E+00  0.00000000000E+00  0.17929895989E+04  0.17929895989E+04  0.00000000000E+00 0.  1.
         21   -1    0    0  503  502  0.00000000000E+00 -0.00000000000E+00 -0.19802693936E+02  0.19802693936E+02  0.00000000000E+00 0. -1.
         21    1    1    2  503  501  0.15722926723E+03 -0.76755650963E+01  0.38841230319E+03  0.41909912198E+03  0.00000000000E+00 0. -1.
         -2    1    1    2    0  502 -0.15722926723E+03  0.76755650963E+01  0.13847746017E+04  0.13936931708E+04  0.00000000000E+00 0.  1.
<mgrwt>
<rscale>  2 0.15741651E+03</rscale>
<asrwt>0</asrwt>
<pdfrwt beam="2">  1       21 0.30465697E-02 0.15741651E+03</pdfrwt>
<pdfrwt beam="1">  1       -2 0.27584442E+00 0.15741651E+03</pdfrwt>
<totfact> 0.26417012E+03</totfact>
</mgrwt>
</event>
<event>
 4    1  0.5045766E+003  0.1421777E+03  0.7546771E-02  0.1210428E+00
          1   -1    0    0  502    0 -0.00000000000E+00  0.00000000000E+00  0.74607251371E+03  0.74607251371E+03  0.00000000000E+00 0. -1.
         21   -1    0    0  503  502  0.00000000000E+00 -0.00000000000E+00 -0.17959630996E+04  0.17959630996E+04  0.00000000000E+00 0.  1.
         21    1    1    2  503  501 -0.26194295755E+01  0.14215353049E+03 -0.17863391519E+04  0.17919882961E+04  0.00000000000E+00 0.  1.
          1    1    1    2  501    0  0.26194295755E+01 -0.14215353049E+03  0.73644856603E+03  0.75004731721E+03  0.00000000000E+00 0. -1.
<mgrwt>
<rscale>  2 0.14217766E+03</rscale>
<asrwt>0</asrwt>
<pdfrwt beam="2">  1       21 0.27630201E+00 0.14217766E+03</pdfrwt>
<pdfrwt beam="1">  1        1 0.11478039E+00 0.14217766E+03</pdfrwt>
<totfact> 0.14537318E+01</totfact>
</mgrwt>
</event>
<event>
 4    1  0.5045766E+003  0.1212137E+03  0.7546771E-02  0.1241108E+00
         21   -1    0    0  501  502  0.00000000000E+00  0.00000000000E+00  0.17879671771E+03  0.17879671771E+03  0.00000000000E+00 0. -1.
          2   -1    0    0  503    0 -0.00000000000E+00 -0.00000000000E+00 -0.31301546797E+03  0.31301546797E+03  0.00000000000E+00 0. -1.
         21    1    1    2  503  502 -0.50396373220E+01 -0.12110891321E+03  0.14406518195E+03  0.18827518014E+03  0.00000000000E+00 0. -1.
          2    1    1    2  501    0  0.50396373220E+01  0.12110891321E+03 -0.27828393222E+03  0.30353700554E+03  0.00000000000E+00 0. -1.
<mgrwt>
<rscale>  2 0.12121372E+03</rscale>
<asrwt>0</asrwt>
<pdfrwt beam="1">  1       21 0.27507188E-01 0.12121372E+03</pdfrwt>
<pdfrwt beam="2">  1        2 0.48156225E-01 0.12121372E+03</pdfrwt>
<totfact> 0.16498176E+04</totfact>
</mgrwt>
</event>
<event>
 4    1  0.5045766E+003  0.1012399E+03  0.7546771E-02  0.1277710E+00
         21   -1    0    0  503  502  0.00000000000E+00  0.00000000000E+00  0.15957987215E+03  0.15957987215E+03  0.00000000000E+00 0. -1.
         -3   -1    0    0    0  501 -0.00000000000E+00 -0.00000000000E+00 -0.10366593730E+03  0.10366593730E+03  0.00000000000E+00 0.  1.
         21    1    1    2  503  501 -0.98667627346E+02 -0.22676309692E+02  0.10914085584E+03  0.14886652451E+03  0.00000000000E+00 0. -1.
         -3    1    1    2    0  502  0.98667627346E+02  0.22676309692E+02 -0.53226920986E+02  0.11437928495E+03  0.00000000000E+00 0.  1.
<mgrwt>
<rscale>  2 0.10123989E+03</rscale>
<asrwt>0</asrwt>
<pdfrwt beam="1">  1       21 0.24550750E-01 0.10123989E+03</pdfrwt>
<pdfrwt beam="2">  1       -3 0.15948606E-01 0.10123989E+03</pdfrwt>
<totfact> 0.24615538E+04</totfact>
</mgrwt>
</event>
<event>
 4    1  0.5045766E+003  0.1036104E+03  0.7546771E-02  0.1272882E+00
         -2   -1    0    0    0  501 -0.00000000000E+00  0.00000000000E+00  0.87754446637E+02  0.87754446637E+02  0.00000000000E+00 0. -1.
         21   -1    0    0  503  502  0.00000000000E+00 -0.00000000000E+00 -0.18873443563E+03  0.18873443563E+03  0.00000000000E+00 0. -1.
         21    1    1    2  503  501 -0.99912480107E+02  0.27433618651E+02 -0.13249053435E+03  0.16819289166E+03  0.00000000000E+00 0. -1.
         -2    1    1    2    0  502  0.99912480107E+02 -0.27433618651E+02  0.31510545353E+02  0.10829599061E+03  0.00000000000E+00 0. -1.
<mgrwt>
<rscale>  2 0.10361036E+03</rscale>
<asrwt>0</asrwt>
<pdfrwt beam="2">  1       21 0.29036067E-01 0.10361036E+03</pdfrwt>
<pdfrwt beam="1">  1       -2 0.13500684E-01 0.10361036E+03</pdfrwt>
<totfact> 0.35999278E+04</totfact>
</mgrwt>
</event>
<event>
 4    1  0.5045766E+003  0.1055349E+03  0.7546771E-02  0.1269069E+00
          1   -1    0    0  502    0 -0.00000000000E+00  0.00000000000E+00  0.88653820412E+03  0.88653820412E+03  0.00000000000E+00 0. -1.
         21   -1    0    0  503  502  0.00000000000E+00 -0.00000000000E+00 -0.26398815941E+02  0.26398815941E+02  0.00000000000E+00 0.  1.
         21    1    1    2  503  501 -0.36676223567E+02  0.98956891261E+02  0.99608539607E+02  0.14511882327E+03  0.00000000000E+00 0.  1.
          1    1    1    2  501    0  0.36676223567E+02 -0.98956891261E+02  0.76053084857E+03  0.76781819680E+03  0.00000000000E+00 0. -1.
<mgrwt>
<rscale>  2 0.10553488E+03</rscale>
<asrwt>0</asrwt>
<pdfrwt beam="2">  1       21 0.40613570E-02 0.10553488E+03</pdfrwt>
<pdfrwt beam="1">  1        1 0.13639047E+00 0.10553488E+03</pdfrwt>
<totfact> 0.83373890E+04</totfact>
</mgrwt>
</event>
<event>
 4    1  0.5045766E+003  0.1038515E+03  0.7546771E-02  0.1272399E+00
         21   -1    0    0  503  502  0.00000000000E+00  0.00000000000E+00  0.39933859424E+02  0.39933859424E+02  0.00000000000E+00 0. -1.
          2   -1    0    0  502    0 -0.00000000000E+00 -0.00000000000E+00 -0.30497519548E+03  0.30497519548E+03  0.00000000000E+00 0. -1.
         21    1    1    2  503  501  0.65494346127E+02  0.80595412167E+02 -0.74181880330E+02  0.12762476721E+03  0.00000000000E+00 0. -1.
          2    1    1    2  501    0 -0.65494346127E+02 -0.80595412167E+02 -0.19085945573E+03  0.21728428769E+03  0.00000000000E+00 0. -1.
<mgrwt>
<rscale>  2 0.10385148E+03</rscale>
<asrwt>0</asrwt>
<pdfrwt beam="1">  1       21 0.61436703E-02 0.10385148E+03</pdfrwt>
<pdfrwt beam="2">  1        2 0.46919263E-01 0.10385148E+03</pdfrwt>
<totfact> 0.24464616E+05</totfact>
</mgrwt>
</event>
<event>
 4    1  0.5045766E+003  0.1317171E+03  0.7546771E-02  0.1224930E+00
         -1   -1    0    0    0  501 -0.00000000000E+00  0.00000000000E+00  0.16840024968E+03  0.16840024968E+03  0.00000000000E+00 0.  1.
         21   -1    0    0  503  502  0.00000000000E+00 -0.00000000000E+00 -0.14457445163E+03  0.14457445163E+03  0.00000000000E+00 0. -1.
         21    1    1    2  503  501 -0.12967511902E+03  0.23103027600E+02 -0.71978539334E+02  0.15010095437E+03  0.00000000000E+00 0. -1.
         -1    1    1    2    0  502  0.12967511902E+03 -0.23103027600E+02  0.95804337388E+02  0.16287374694E+03  0.00000000000E+00 0.  1.
<mgrwt>
<rscale>  2 0.13171707E+03</rscale>
<asrwt>0</asrwt>
<pdfrwt beam="2">  1       21 0.22242223E-01 0.13171707E+03</pdfrwt>
<pdfrwt beam="1">  1       -1 0.25907731E-01 0.13171707E+03</pdfrwt>
<totfact> 0.22553426E+04</totfact>
</mgrwt>
</event>
<event>
 4    1  0.5045766E+003  0.1400549E+03  0.7546771E-02  0.1213255E+00
          2   -1    0    0  503    0 -0.00000000000E+00  0.00000000000E+00  0.73507858487E+03  0.73507858487E+03  0.00000000000E+00 0. -1.
         21   -1    0    0  501  502  0.00000000000E+00 -0.00000000000E+00 -0.80044120463E+02  0.80044120463E+02  0.00000000000E+00 0.  1.
         21    1    1    2  503  502 -0.60376296176E+01 -0.13992473163E+03 -0.52447108168E+01  0.14015309659E+03  0.00000000000E+00 0.  1.
          2    1    1    2  501    0  0.60376296176E+01  0.13992473163E+03  0.66027917523E+03  0.67496960875E+03  0.00000000000E+00 0. -1.
<mgrwt>
<rscale>  2 0.14005493E+03</rscale>
<asrwt>0</asrwt>
<pdfrwt beam="2">  1       21 0.12314481E-01 0.14005493E+03</pdfrwt>
<pdfrwt beam="1">  1        2 0.11308901E+00 0.14005493E+03</pdfrwt>
<totfact> 0.28113226E+04</totfact>
</mgrwt>
</event>
<event>
 4    1  0.5045766E+003  0.1443618E+03  0.7546771E-02  0.1207577E+00
          3   -1    0    0  503    0 -0.00000000000E+00  0.00000000000E+00  0.17118329270E+03  0.17118329270E+03  0.00000000000E+00 0.  1.
         21   -1    0    0  501  502  0.00000000000E+00 -0.00000000000E+00 -0.48008737984E+03  0.48008737984E+03  0.00000000000E+00 0. -1.
         21    1    1    2  503  502 -0.40625364587E+02  0.13852764552E+03 -0.43578578207E+03  0.45907469618E+03  0.00000000000E+00 0. -1.
          3    1    1    2  501    0  0.40625364587E+02 -0.13852764552E+03  0.12688169492E+03  0.19219597636E+03  0.00000000000E+00 0.  1.
<mgrwt>
<rscale>  2 0.14436180E+03</rscale>
<asrwt>0</asrwt>
<pdfrwt beam="2">  1       21 0.73859595E-01 0.14436180E+03</pdfrwt>
<pdfrwt beam="1">  1        3 0.26335892E-01 0.14436180E+03</pdfrwt>
<totfact> 0.11127311E+03</totfact>
</mgrwt>
</event>
<event>
 4    1  0.5045766E+003  0.1249388E+03  0.7546771E-02  0.1235165E+00
         21   -1    0    0  501  502  0.00000000000E+00  0.00000000000E+00  0.15465380713E+02  0.15465380713E+02  0.00000000000E+00 0.  1.
          1   -1    0    0  503    0 -0.00000000000E+00 -0.00000000000E+00 -0.19475559062E+04  0.19475559062E+04  0.00000000000E+00 0. -1.
         21    1    1    2  503  502  0.12447731249E+03  0.10728138905E+02 -0.28480009588E+03  0.31099966061E+03  0.00000000000E+00 0.  1.
          1    1    1    2  501    0 -0.12447731249E+03 -0.10728138905E+02 -0.16472904296E+04  0.16520216263E+04  0.00000000000E+00 0. -1.
<mgrwt>
<rscale>  2 0.12493876E+03</rscale>
<asrwt>0</asrwt>
<pdfrwt beam="1">  1       21 0.23792899E-02 0.12493876E+03</pdfrwt>
<pdfrwt beam="2">  1        1 0.29962391E+00 0.12493876E+03</pdfrwt>
<totfact> 0.39271999E+04</totfact>
</mgrwt>
</event>
<event>
 4    1  0.5045766E+003  0.1131870E+03  0.7546771E-02  0.1254779E+00
          2   -1    0    0  502    0 -0.00000000000E+00  0.00000000000E+00  0.17672550783E+04  0.17672550783E+04  0.00000000000E+00 0. -1.
         21   -1    0    0  503  502  0.00000000000E+00 -0.00000000000E+00 -0.19833632758E+02  0.19833632758E+02  0.00000000000E+00 0. -1.
         21    1    1    2  503  501  0.20147605810E+01 -0.11316905262E+03  0.16195536068E+03  0.19758753145E+03  0.00000000000E+00 0. -1.
          2    1    1    2  501    0 -0.20147605810E+01  0.11316905262E+03  0.15854660849E+04  0.15895011796E+04  0.00000000000E+00 0. -1.
<mgrwt>
<rscale>  2 0.11318699E+03</rscale>
<asrwt>0</asrwt>
<pdfrwt beam="2">  1       21 0.30513295E-02 0.11318699E+03</pdfrwt>
<pdfrwt beam="1">  1        2 0.27188527E+00 0.11318699E+03</pdfrwt>
<totfact> 0.79107260E+04</totfact>
</mgrwt>
</event>
<event>
 4    1  0.5045766E+003  0.1119565E+03  0.7546771E-02  0.1256989E+00
         21   -1    0    0  503  502  0.00000000000E+00  0.00000000000E+00  0.42572014860E+02  0.42572014860E+02  0.00000000000E+00 0. -1.
          1   -1    0    0  502    0 -0.00000000000E+00 -0.00000000000E+00 -0.10221327242E+04  0.10221327242E+04  0.00000000000E+00 0.  1.
         21    1    1    2  503  501 -0.91788221590E+02  0.64102806092E+02 -0.40596472425E+02  0.11908955011E+03  0.00000000000E+00 0. -1.
          1    1    1    2  501    0  0.91788221590E+02 -0.64102806092E+02 -0.93896423693E+03  0.94561518897E+03  0.00000000000E+00 0.  1.
<mgrwt>
<rscale>  2 0.11195645E+03</rscale>
<asrwt>0</asrwt>
<pdfrwt beam="1">  1       21 0.65495405E-02 0.11195645E+03</pdfrwt>
<pdfrwt beam="2">  1        1 0.15725119E+00 0.11195645E+03</pdfrwt>
<totfact> 0.29705269E+04</totfact>
</mgrwt>
</event>
<event>
 4    1  0.5045766E+003  0.1525976E+03  0.7546771E-02  0.1197317E+00
         21   -1    0    0  501  502  0.00000000000E+00  0.00000000000E+00  0.10882750341E+03  0.10882750341E+03  0.00000000000E+00 0.  1.
          2   -1    0    0  503    0 -0.00000000000E+00 -0.00000000000E+00 -0.35982740473E+03  0.35982740473E+03  0.00000000000E+00 0.  1.
         21    1    1    2  503  502  0.86914861360E+02 -0.12542664590E+03  0.23689235741E+02  0.15442543999E+03  0.00000000000E+00 0.  1.
          2    1    1    2  501    0 -0.86914861360E+02  0.12542664590E+03 -0.27468913706E+03  0.31422946814E+03  0.00000000000E+00 0.  1.
<mgrwt>
<rscale>  2 0.15259763E+03</rscale>
<asrwt>0</asrwt>
<pdfrwt beam="1">  1       21 0.16742693E-01 0.15259763E+03</pdfrwt>
<pdfrwt beam="2">  1        2 0.55358062E-01 0.15259763E+03</pdfrwt>
<totfact> 0.35853107E+04</totfact>
</mgrwt>
</event>
<event>
 4    1  0.5045766E+003  0.1037057E+03  0.7546771E-02  0.1272691E+00
         21   -1    0    0  501  502  0.00000000000E+00  0.00000000000E+00  0.35379871246E+03  0.35379871246E+03  0.00000000000E+00 0. -1.
          2   -1    0    0  503    0 -0.00000000000E+00 -0.00000000000E+00 -0.35590126400E+03  0.35590126400E+03  0.00000000000E+00 0. -1.
         21    1    1    2  503  502 -0.22566824263E+02 -0.10122064250E+03  0.33830626389E+03  0.35384461027E+03  0.00000000000E+00 0. -1.
          2    1    1    2  501    0  0.22566824263E+02  0.10122064250E+03 -0.34040881544E+03  0.35585536620E+03  0.00000000000E+00 0. -1.
<mgrwt>
<rscale>  2 0.10370574E+03</rscale>
<asrwt>0</asrwt>
<pdfrwt beam="1">  1       21 0.54430571E-01 0.10370574E+03</pdfrwt>
<pdfrwt beam="2">  1        2 0.54754041E-01 0.10370574E+03</pdfrwt>
<totfact> 0.37372865E+03</totfact>
</mgrwt>
</event>
<event>
 4    1  0.5045766E+003  0.2202755E+03  0.7546771E-02  0.1133678E+00
         21   -1    0    0  503  502  0.00000000000E+00  0.00000000000E+00  0.18148523585E+03  0.18148523585E+03  0.00000000000E+00 0. -1.
          1   -1    0    0  502    0 -0.00000000000E+00 -0.00000000000E+00 -0.40360474297E+03  0.40360474297E+03  0.00000000000E+00 0.  1.
         21    1    1    2  503  501  0.19261497426E+03  0.10686792003E+03  0.58913185938E+02  0.22801763992E+03  0.00000000000E+00 0. -1.
          1    1    1    2  501    0 -0.19261497426E+03 -0.10686792003E+03 -0.28103269305E+03  0.35707233889E+03  0.00000000000E+00 0.  1.
<mgrwt>
<rscale>  2 0.22027547E+03</rscale>
<asrwt>0</asrwt>
<pdfrwt beam="1">  1       21 0.27920806E-01 0.22027547E+03</pdfrwt>
<pdfrwt beam="2">  1        1 0.62093036E-01 0.22027547E+03</pdfrwt>
<totfact> 0.80157434E+03</totfact>
</mgrwt>
</event>
<event>
 4    1  0.5045766E+003  0.1098515E+03  0.7546771E-02  0.1260845E+00
          1   -1    0    0  502    0 -0.00000000000E+00  0.00000000000E+00  0.55918064851E+03  0.55918064851E+03  0.00000000000E+00 0. -1.
         21   -1    0    0  503  502  0.00000000000E+00 -0.00000000000E+00 -0.23910197468E+02  0.23910197468E+02  0.00000000000E+00 0.  1.
         21    1    1    2  503  501  0.10330311036E+03 -0.37360651926E+02  0.17662875849E+03  0.20800257029E+03  0.00000000000E+00 0.  1.
          1    1    1    2  501    0 -0.10330311036E+03  0.37360651926E+02  0.35864169256E+03  0.37508827569E+03  0.00000000000E+00 0. -1.
<mgrwt>
<rscale>  2 0.10985149E+03</rscale>
<asrwt>0</asrwt>
<pdfrwt beam="2">  1       21 0.36784923E-02 0.10985149E+03</pdfrwt>
<pdfrwt beam="1">  1        1 0.86027782E-01 0.10985149E+03</pdfrwt>
<totfact> 0.18983774E+05</totfact>
</mgrwt>
</event>
<event>
 4    1  0.5045766E+003  0.1049119E+03  0.7546771E-02  0.1270293E+00
         21   -1    0    0  503  502  0.00000000000E+00  0.00000000000E+00  0.52597713587E+02  0.52597713587E+02  0.00000000000E+00 0.  1.
          2   -1    0    0  502    0 -0.00000000000E+00 -0.00000000000E+00 -0.25639134303E+03  0.25639134303E+03  0.00000000000E+00 0. -1.
         21    1    1    2  503  501 -0.99312590450E+02 -0.33815877483E+02 -0.35656176391E+02  0.11080553735E+03  0.00000000000E+00 0.  1.
          2    1    1    2  501    0  0.99312590450E+02  0.33815877483E+02 -0.16813745305E+03  0.19818351927E+03  0.00000000000E+00 0. -1.
<mgrwt>
<rscale>  2 0.10491189E+03</rscale>
<asrwt>0</asrwt>
<pdfrwt beam="1">  1       21 0.80919560E-02 0.10491189E+03</pdfrwt>
<pdfrwt beam="2">  1        2 0.39444822E-01 0.10491189E+03</pdfrwt>
<totfact> 0.18381244E+05</totfact>
</mgrwt>
</event>
<event>
 4    1  0.5045766E+003  0.2590463E+03  0.7546771E-02  0.1107718E+00
          2   -1    0    0  503    0 -0.00000000000E+00  0.00000000000E+00  0.18546307869E+04  0.18546307869E+04  0.00000000000E+00 0. -1.
         21   -1    0    0  501  502  0.00000000000E+00 -0.00000000000E+00 -0.13806906130E+03  0.13806906130E+03  0.00000000000E+00 0.  1.
         21    1    1    2  503  502 -0.23962780823E+03 -0.98404725820E+02  0.23821160948E+01  0.25905723503E+03  0.00000000000E+00 0.  1.
          2    1    1    2  501    0  0.23962780823E+03  0.98404725820E+02  0.17141796095E+04  0.17336426132E+04  0.00000000000E+00 0. -1.
<mgrwt>
<rscale>  2 0.25904628E+03</rscale>
<asrwt>0</asrwt>
<pdfrwt beam="2">  1       21 0.21241395E-01 0.25904628E+03</pdfrwt>
<pdfrwt beam="1">  1        2 0.28532780E+00 0.25904628E+03</pdfrwt>
<totfact> 0.22838332E+03</totfact>
</mgrwt>
</event>
<event>
 4    1  0.5045766E+003  0.1019957E+03  0.7546771E-02  0.1276154E+00
         21   -1    0    0  501  502  0.00000000000E+00  0.00000000000E+00  0.11895817476E+03  0.11895817476E+03  0.00000000000E+00 0. -1.
          1   -1    0    0  503    0 -0.00000000000E+00 -0.00000000000E+00 -0.89558293204E+03  0.89558293204E+03  0.00000000000E+00 0. -1.
         21    1    1    2  503  502 -0.74817369860E+02 -0.69321654374E+02  0.93555095873E+02  0.13840406989E+03  0.00000000000E+00 0. -1.
          1    1    1    2  501    0  0.74817369860E+02  0.69321654374E+02 -0.87017985315E+03  0.87613703690E+03  0.00000000000E+00 0. -1.
<mgrwt>
<rscale>  2 0.10199574E+03</rscale>
<asrwt>0</asrwt>
<pdfrwt beam="1">  1       21 0.18301258E-01 0.10199574E+03</pdfrwt>
<pdfrwt beam="2">  1        1 0.13778199E+00 0.10199574E+03</pdfrwt>
<totfact> 0.60929196E+03</totfact>
</mgrwt>
</event>
<event>
 4    1  0.5045766E+003  0.1004976E+03  0.7546771E-02  0.1279253E+00
          2   -1    0    0  503    0 -0.00000000000E+00  0.00000000000E+00  0.36672388002E+02  0.36672388002E+02  0.00000000000E+00 0. -1.
         21   -1    0    0  501  502  0.00000000000E+00 -0.00000000000E+00 -0.38675728857E+03  0.38675728857E+03  0.00000000000E+00 0. -1.
         21    1    1    2  503  502 -0.26128075805E+02 -0.97041747166E+02 -0.28864305916E+03  0.30563800915E+03  0.00000000000E+00 0. -1.
          2    1    1    2  501    0  0.26128075805E+02  0.97041747166E+02 -0.61441841414E+02  0.11779166742E+03  0.00000000000E+00 0. -1.
<mgrwt>
<rscale>  2 0.10049765E+03</rscale>
<asrwt>0</asrwt>
<pdfrwt beam="2">  1       21 0.59501124E-01 0.10049765E+03</pdfrwt>
<pdfrwt beam="1">  1        2 0.56419056E-02 0.10049765E+03</pdfrwt>
<totfact> 0.42045061E+04</totfact>
</mgrwt>
</event>
<event>
 4    1  0.5045766E+003  0.1414619E+03  0.7546771E-02  0.1211375E+00
          2   -1    0    0  503    0 -0.00000000000E+00  0.00000000000E+00  0.20912335660E+04  0.20912335660E+04  0.00000000000E+00 0.  1.
         21   -1    0    0  501  502  0.00000000000E+00 -0.00000000000E+00 -0.29854908609E+02  0.29854908609E+02  0.00000000000E+00 0.  1.
         21    1    1    2  503  502  0.96733462753E+02 -0.10321879287E+03  0.15647936487E+03  0.21094376892E+03  0.00000000000E+00 0.  1.
          2    1    1    2  501    0 -0.96733462753E+02  0.10321879287E+03  0.19048992925E+04  0.19101447057E+04  0.00000000000E+00 0.  1.
<mgrwt>
<rscale>  2 0.14146195E+03</rscale>
<asrwt>0</asrwt>
<pdfrwt beam="2">  1       21 0.45930645E-02 0.14146195E+03</pdfrwt>
<pdfrwt beam="1">  1        2 0.32172813E+00 0.14146195E+03</pdfrwt>
<totfact> 0.27285637E+04</totfact>
</mgrwt>
</event>
<event>
 4    1  0.5045766E+003  0.1261187E+03  0.7546771E-02  0.1233331E+00
          2   -1    0    0  502    0 -0.00000000000E+00  0.00000000000E+00  0.28913491480E+02  0.28913491480E+02  0.00000000000E+00 0. -1.
         21   -1    0    0  503  502  0.00000000000E+00 -0.00000000000E+00 -0.91960146629E+03  0.91960146629E+03  0.00000000000E+00 0.  1.
         21    1    1    2  503  501 -0.11794286489E+03  0.44669986895E+02 -0.74595849406E+03  0.75654477856E+03  0.00000000000E+00 0.  1.
          2    1    1    2  501    0  0.11794286489E+03 -0.44669986895E+02 -0.14472948075E+03  0.19197017921E+03  0.00000000000E+00 0. -1.
<mgrwt>
<rscale>  2 0.12611870E+03</rscale>
<asrwt>0</asrwt>
<pdfrwt beam="2">  1       21 0.14147714E+00 0.12611870E+03</pdfrwt>
<pdfrwt beam="1">  1        2 0.44482298E-02 0.12611870E+03</pdfrwt>
<totfact> 0.78043520E+03</totfact>
</mgrwt>
</event>
<event>
 4    1  0.5045766E+003  0.1116691E+03  0.7546771E-02  0.1257510E+00
         -4   -1    0    0    0  501 -0.00000000000E+00  0.00000000000E+00  0.94952435366E+02  0.94952435366E+02  0.00000000000E+00 0.  1.
         21   -1    0    0  503  502  0.00000000000E+00 -0.00000000000E+00 -0.37728298477E+03  0.37728298477E+03  0.00000000000E+00 0.  1.
         21    1    1    2  503  501  0.30127536345E+02 -0.10752817904E+03 -0.33180884801E+03  0.35009582882E+03  0.00000000000E+00 0.  1.
         -4    1    1    2    0  502 -0.30127536345E+02  0.10752817904E+03  0.49478298615E+02  0.12213959132E+03  0.00000000000E+00 0.  1.
<mgrwt>
<rscale>  2 0.11166905E+03</rscale>
<asrwt>0</asrwt>
<pdfrwt beam="2">  1       21 0.58043536E-01 0.11166905E+03</pdfrwt>
<pdfrwt beam="1">  1       -4 0.14608067E-01 0.11166905E+03</pdfrwt>
<totfact> 0.44983461E+03</totfact>
</mgrwt>
</event>
<event>
 4    1  0.5045766E+003  0.1441853E+03  0.7546771E-02  0.1207806E+00
          2   -1    0    0  502    0 -0.00000000000E+00  0.00000000000E+00  0.12432979864E+04  0.12432979864E+04  0.00000000000E+00 0. -1.
         21   -1    0    0  503  502  0.00000000000E+00 -0.00000000000E+00 -0.15417691024E+03  0.15417691024E+03  0.00000000000E+00 0. -1.
         21    1    1    2  503  501  0.42829865169E+02 -0.13767717612E+03 -0.11519916252E+03  0.18455419047E+03  0.00000000000E+00 0. -1.
          2    1    1    2  501    0 -0.42829865169E+02  0.13767717612E+03  0.12043202386E+04  0.12129207061E+04  0.00000000000E+00 0. -1.
<mgrwt>
<rscale>  2 0.14418530E+03</rscale>
<asrwt>0</asrwt>
<pdfrwt beam="2">  1       21 0.23719525E-01 0.14418530E+03</pdfrwt>
<pdfrwt beam="1">  1        2 0.19127661E+00 0.14418530E+03</pdfrwt>
<totfact> 0.41409157E+03</totfact>
</mgrwt>
</event>
<event>
 4    1  0.5045766E+003  0.1063512E+03  0.7546771E-02  0.1267480E+00
         21   -1    0    0  501  502  0.00000000000E+00  0.00000000000E+00  0.28560085812E+01  0.28560085812E+01  0.00000000000E+00 0. -1.
          1   -1    0    0  503    0 -0.00000000000E+00 -0.00000000000E+00 -0.39697519225E+04  0.39697519225E+04  0.00000000000E+00 0. -1.
         21    1    1    2  503  502  0.10434020118E+03  0.20584091331E+02 -0.18864028791E+04  0.18893984240E+04  0.00000000000E+00 0. -1.
          1    1    1    2  501    0 -0.10434020118E+03 -0.20584091331E+02 -0.20804930348E+04  0.20832095071E+04  0.00000000000E+00 0. -1.
<mgrwt>
<rscale>  2 0.10635122E+03</rscale>
<asrwt>0</asrwt>
<pdfrwt beam="1">  1       21 0.43938457E-03 0.10635122E+03</pdfrwt>
<pdfrwt beam="2">  1        1 0.61073296E+00 0.10635122E+03</pdfrwt>
<totfact> 0.22272216E+04</totfact>
</mgrwt>
</event>
<event>
 4    1  0.5045766E+003  0.1252573E+03  0.7546771E-02  0.1234668E+00
          2   -1    0    0  503    0 -0.00000000000E+00  0.00000000000E+00  0.18572481771E+04  0.18572481771E+04  0.00000000000E+00 0.  1.
         21   -1    0    0  501  502  0.00000000000E+00 -0.00000000000E+00 -0.61404970982E+02  0.61404970982E+02  0.00000000000E+00 0. -1.
         21    1    1    2  503  502 -0.31538315315E+02  0.12122176969E+03  0.70241597672E+01  0.12545406171E+03  0.00000000000E+00 0. -1.
          2    1    1    2  501    0  0.31538315315E+02 -0.12122176969E+03  0.17888190464E+04  0.17931990864E+04  0.00000000000E+00 0.  1.
<mgrwt>
<rscale>  2 0.12525727E+03</rscale>
<asrwt>0</asrwt>
<pdfrwt beam="2">  1       21 0.94469200E-02 0.12525727E+03</pdfrwt>
<pdfrwt beam="1">  1        2 0.28573045E+00 0.12525727E+03</pdfrwt>
<totfact> 0.10569996E+04</totfact>
</mgrwt>
</event>
<event>
 4    1  0.5045766E+003  0.1128366E+03  0.7546771E-02  0.1255405E+00
          3   -1    0    0  503    0 -0.00000000000E+00  0.00000000000E+00  0.56197556168E+02  0.56197556168E+02  0.00000000000E+00 0.  1.
         21   -1    0    0  501  502  0.00000000000E+00 -0.00000000000E+00 -0.53235031457E+03  0.53235031457E+03  0.00000000000E+00 0.  1.
         21    1    1    2  503  502 -0.10138347208E+03 -0.49532744832E+02 -0.46110732117E+03  0.47471261081E+03  0.00000000000E+00 0.  1.
          3    1    1    2  501    0  0.10138347208E+03  0.49532744832E+02 -0.15045437229E+02  0.11383525993E+03  0.00000000000E+00 0.  1.
<mgrwt>
<rscale>  2 0.11283661E+03</rscale>
<asrwt>0</asrwt>
<pdfrwt beam="2">  1       21 0.81900045E-01 0.11283661E+03</pdfrwt>
<pdfrwt beam="1">  1        3 0.86457783E-02 0.11283661E+03</pdfrwt>
<totfact> 0.59461718E+03</totfact>
</mgrwt>
</event>
<event>
 4    1  0.5045766E+003  0.1202591E+03  0.7546771E-02  0.1242670E+00
         21   -1    0    0  503  502  0.00000000000E+00  0.00000000000E+00  0.12810081991E+03  0.12810081991E+03  0.00000000000E+00 0.  1.
          1   -1    0    0  502    0 -0.00000000000E+00 -0.00000000000E+00 -0.11691778008E+03  0.11691778008E+03  0.00000000000E+00 0. -1.
         21    1    1    2  503  501  0.50123385919E+02 -0.10931555440E+03  0.28309229876E+02  0.12354617252E+03  0.00000000000E+00 0.  1.
          1    1    1    2  501    0 -0.50123385919E+02  0.10931555440E+03 -0.17126190042E+02  0.12147242747E+03  0.00000000000E+00 0. -1.
<mgrwt>
<rscale>  2 0.12025907E+03</rscale>
<asrwt>0</asrwt>
<pdfrwt beam="1">  1       21 0.19707819E-01 0.12025907E+03</pdfrwt>
<pdfrwt beam="2">  1        1 0.17987351E-01 0.12025907E+03</pdfrwt>
<totfact> 0.73828865E+04</totfact>
</mgrwt>
</event>
<event>
 4    1  0.5045766E+003  0.1575420E+03  0.7546771E-02  0.1191500E+00
          2   -1    0    0  503    0 -0.00000000000E+00  0.00000000000E+00  0.16240623906E+04  0.16240623906E+04  0.00000000000E+00 0.  1.
         21   -1    0    0  501  502  0.00000000000E+00 -0.00000000000E+00 -0.19028663350E+02  0.19028663350E+02  0.00000000000E+00 0. -1.
         21    1    1    2  503  502  0.16291445609E+01 -0.15753352680E+03  0.43798928590E+03  0.46546114848E+03  0.00000000000E+00 0. -1.
          2    1    1    2  501    0 -0.16291445609E+01  0.15753352680E+03  0.11670444414E+04  0.11776299055E+04  0.00000000000E+00 0.  1.
<mgrwt>
<rscale>  2 0.15754195E+03</rscale>
<asrwt>0</asrwt>
<pdfrwt beam="2">  1       21 0.29274879E-02 0.15754195E+03</pdfrwt>
<pdfrwt beam="1">  1        2 0.24985564E+00 0.15754195E+03</pdfrwt>
<totfact> 0.99874104E+04</totfact>
</mgrwt>
</event>
<event>
 4    1  0.5045766E+003  0.1062685E+03  0.7546771E-02  0.1267640E+00
          2   -1    0    0  503    0 -0.00000000000E+00  0.00000000000E+00  0.47770353374E+03  0.47770353374E+03  0.00000000000E+00 0.  1.
         21   -1    0    0  501  502  0.00000000000E+00 -0.00000000000E+00 -0.65575767935E+02  0.65575767935E+02  0.00000000000E+00 0.  1.
         21    1    1    2  503  502 -0.10203827969E+03  0.29684695310E+02 -0.11162666039E+02  0.10685315518E+03  0.00000000000E+00 0.  1.
          2    1    1    2  501    0  0.10203827969E+03 -0.29684695310E+02  0.42329043185E+03  0.43642614650E+03  0.00000000000E+00 0.  1.
<mgrwt>
<rscale>  2 0.10626849E+03</rscale>
<asrwt>0</asrwt>
<pdfrwt beam="2">  1       21 0.10088580E-01 0.10626849E+03</pdfrwt>
<pdfrwt beam="1">  1        2 0.73492849E-01 0.10626849E+03</pdfrwt>
<totfact> 0.65064491E+04</totfact>
</mgrwt>
</event>
<event>
 4    1  0.5045766E+003  0.1143137E+03  0.7546771E-02  0.1252784E+00
         21   -1    0    0  501  502  0.00000000000E+00  0.00000000000E+00  0.28803040667E+03  0.28803040667E+03  0.00000000000E+00 0. -1.
         -1   -1    0    0    0  501 -0.00000000000E+00 -0.00000000000E+00 -0.73091475043E+02  0.73091475043E+02  0.00000000000E+00 0. -1.
         21    1    1    2  503  502  0.10815422988E+03 -0.37017450773E+02  0.21867004676E+03  0.24674727648E+03  0.00000000000E+00 0. -1.
         -1    1    1    2    0  503 -0.10815422988E+03  0.37017450773E+02 -0.37311151317E+01  0.11437460523E+03  0.00000000000E+00 0. -1.
<mgrwt>
<rscale>  2 0.11431373E+03</rscale>
<asrwt>0</asrwt>
<pdfrwt beam="1">  1       21 0.44312370E-01 0.11431373E+03</pdfrwt>
<pdfrwt beam="2">  1       -1 0.11244842E-01 0.11431373E+03</pdfrwt>
<totfact> 0.22156518E+04</totfact>
</mgrwt>
</event>
<event>
 4    1  0.5045766E+003  0.1628898E+03  0.7546771E-02  0.1185472E+00
          2   -1    0    0  503    0 -0.00000000000E+00  0.00000000000E+00  0.63470350897E+03  0.63470350897E+03  0.00000000000E+00 0. -1.
         21   -1    0    0  501  502  0.00000000000E+00 -0.00000000000E+00 -0.10622450192E+03  0.10622450192E+03  0.00000000000E+00 0.  1.
         21    1    1    2  503  502  0.10068012648E+03 -0.12804924464E+03 -0.24260602008E+02  0.16468659244E+03  0.00000000000E+00 0.  1.
          2    1    1    2  501    0 -0.10068012648E+03  0.12804924464E+03  0.55273960906E+03  0.57624141846E+03  0.00000000000E+00 0. -1.
<mgrwt>
<rscale>  2 0.16288983E+03</rscale>
<asrwt>0</asrwt>
<pdfrwt beam="2">  1       21 0.16342231E-01 0.16288983E+03</pdfrwt>
<pdfrwt beam="1">  1        2 0.97646692E-01 0.16288983E+03</pdfrwt>
<totfact> 0.20029733E+04</totfact>
</mgrwt>
</event>
<event>
 4    1  0.5045766E+003  0.1054922E+03  0.7546771E-02  0.1269153E+00
         -2   -1    0    0    0  501 -0.00000000000E+00  0.00000000000E+00  0.33110919418E+03  0.33110919418E+03  0.00000000000E+00 0.  1.
         21   -1    0    0  501  502  0.00000000000E+00 -0.00000000000E+00 -0.47034142220E+02  0.47034142220E+02  0.00000000000E+00 0. -1.
         21    1    1    2  503  502  0.95834672510E+02  0.44094440238E+02  0.41028092111E+02  0.11318970120E+03  0.00000000000E+00 0. -1.
         -2    1    1    2    0  503 -0.95834672510E+02 -0.44094440238E+02  0.24304695985E+03  0.26495363520E+03  0.00000000000E+00 0.  1.
<mgrwt>
<rscale>  2 0.10549220E+03</rscale>
<asrwt>0</asrwt>
<pdfrwt beam="2">  1       21 0.72360221E-02 0.10549220E+03</pdfrwt>
<pdfrwt beam="1">  1       -2 0.50939875E-01 0.10549220E+03</pdfrwt>
<totfact> 0.41939629E+04</totfact>
</mgrwt>
</event>
<event>
 4    1  0.5045766E+003  0.1110058E+03  0.7546771E-02  0.1258719E+00
          2   -1    0    0  503    0 -0.00000000000E+00  0.00000000000E+00  0.32179800988E+02  0.32179800988E+02  0.00000000000E+00 0.  1.
         21   -1    0    0  501  502  0.00000000000E+00 -0.00000000000E+00 -0.40010892979E+03  0.40010892979E+03  0.00000000000E+00 0.  1.
         21    1    1    2  503  502 -0.10526563488E+03  0.35233888033E+02 -0.22876503825E+03  0.25427489746E+03  0.00000000000E+00 0.  1.
          2    1    1    2  501    0  0.10526563488E+03 -0.35233888033E+02 -0.13916409055E+03  0.17801383332E+03  0.00000000000E+00 0.  1.
<mgrwt>
<rscale>  2 0.11100577E+03</rscale>
<asrwt>0</asrwt>
<pdfrwt beam="2">  1       21 0.61555218E-01 0.11100577E+03</pdfrwt>
<pdfrwt beam="1">  1        2 0.49507388E-02 0.11100577E+03</pdfrwt>
<totfact> 0.46426245E+04</totfact>
</mgrwt>
</event>
<event>
 4    1  0.5045766E+003  0.1938890E+03  0.7546771E-02  0.1155000E+00
         21   -1    0    0  503  502  0.00000000000E+00  0.00000000000E+00  0.33627047810E+02  0.33627047810E+02  0.00000000000E+00 0. -1.
          2   -1    0    0  502    0 -0.00000000000E+00 -0.00000000000E+00 -0.13006412155E+04  0.13006412155E+04  0.00000000000E+00 0. -1.
         21    1    1    2  503  501  0.18951027082E+03  0.40973001052E+02 -0.38346772078E+03  0.42969805962E+03  0.00000000000E+00 0. -1.
          2    1    1    2  501    0 -0.18951027082E+03 -0.40973001052E+02 -0.88354644694E+03  0.90457020373E+03  0.00000000000E+00 0. -1.
<mgrwt>
<rscale>  2 0.19388896E+03</rscale>
<asrwt>0</asrwt>
<pdfrwt beam="1">  1       21 0.51733913E-02 0.19388896E+03</pdfrwt>
<pdfrwt beam="2">  1        2 0.20009867E+00 0.19388896E+03</pdfrwt>
<totfact> 0.57006778E+04</totfact>
</mgrwt>
</event>
<event>
 4    1  0.5045766E+003  0.1603109E+03  0.7546771E-02  0.1188346E+00
         -1   -1    0    0    0  501 -0.00000000000E+00  0.00000000000E+00  0.30563711544E+03  0.30563711544E+03  0.00000000000E+00 0. -1.
         21   -1    0    0  503  502  0.00000000000E+00 -0.00000000000E+00 -0.37985014604E+03  0.37985014604E+03  0.00000000000E+00 0.  1.
         21    1    1    2  503  501  0.15267437407E+03  0.48888906154E+02 -0.33954462724E+03  0.37548654241E+03  0.00000000000E+00 0.  1.
         -1    1    1    2    0  502 -0.15267437407E+03 -0.48888906154E+02  0.26533159664E+03  0.31000071906E+03  0.00000000000E+00 0. -1.
<mgrwt>
<rscale>  2 0.16031092E+03</rscale>
<asrwt>0</asrwt>
<pdfrwt beam="2">  1       21 0.58438484E-01 0.16031092E+03</pdfrwt>
<pdfrwt beam="1">  1       -1 0.47021095E-01 0.16031092E+03</pdfrwt>
<totfact> 0.11815697E+03</totfact>
</mgrwt>
</event>
<event>
 4    1  0.5045766E+003  0.1289605E+03  0.7546771E-02  0.1229006E+00
          2   -1    0    0  503    0 -0.00000000000E+00  0.00000000000E+00  0.21735923151E+03  0.21735923151E+03  0.00000000000E+00 0.  1.
         21   -1    0    0  501  502  0.00000000000E+00 -0.00000000000E+00 -0.16813086214E+03  0.16813086214E+03  0.00000000000E+00 0. -1.
         21    1    1    2  503  502  0.27488378892E+02  0.12599684180E+03 -0.11766766200E+03  0.17457518093E+03  0.00000000000E+00 0. -1.
          2    1    1    2  501    0 -0.27488378892E+02 -0.12599684180E+03  0.16689603137E+03  0.21091491271E+03  0.00000000000E+00 0.  1.
<mgrwt>
<rscale>  2 0.12896052E+03</rscale>
<asrwt>0</asrwt>
<pdfrwt beam="2">  1       21 0.25866286E-01 0.12896052E+03</pdfrwt>
<pdfrwt beam="1">  1        2 0.33439882E-01 0.12896052E+03</pdfrwt>
<totfact> 0.27298422E+04</totfact>
</mgrwt>
</event>
<event>
 4    1  0.5045766E+003  0.1138246E+03  0.7546771E-02  0.1253647E+00
          1   -1    0    0  503    0 -0.00000000000E+00  0.00000000000E+00  0.23636465816E+04  0.23636465816E+04  0.00000000000E+00 0. -1.
         21   -1    0    0  501  502  0.00000000000E+00 -0.00000000000E+00 -0.61769524911E+01  0.61769524911E+01  0.00000000000E+00 0.  1.
         21    1    1    2  503  502 -0.67097823060E+02  0.91945265790E+02  0.78111367543E+03  0.78936342942E+03  0.00000000000E+00 0.  1.
          1    1    1    2  501    0  0.67097823060E+02 -0.91945265790E+02  0.15763559537E+04  0.15804601047E+04  0.00000000000E+00 0. -1.
<mgrwt>
<rscale>  2 0.11382464E+03</rscale>
<asrwt>0</asrwt>
<pdfrwt beam="2">  1       21 0.95030227E-03 0.11382464E+03</pdfrwt>
<pdfrwt beam="1">  1        1 0.36363721E+00 0.11382464E+03</pdfrwt>
<totfact> 0.92423998E+04</totfact>
</mgrwt>
</event>
<event>
 4    1  0.5045766E+003  0.1117607E+03  0.7546771E-02  0.1257344E+00
         21   -1    0    0  501  502  0.00000000000E+00  0.00000000000E+00  0.96776921715E+02  0.96776921715E+02  0.00000000000E+00 0. -1.
          3   -1    0    0  503    0 -0.00000000000E+00 -0.00000000000E+00 -0.14358399209E+03  0.14358399209E+03  0.00000000000E+00 0.  1.
         21    1    1    2  503  502  0.93482433286E+02 -0.61249308847E+02  0.14813758252E+02  0.11273815060E+03  0.00000000000E+00 0. -1.
          3    1    1    2  501    0 -0.93482433286E+02  0.61249308847E+02 -0.61620828629E+02  0.12762276321E+03  0.00000000000E+00 0.  1.
<mgrwt>
<rscale>  2 0.11176065E+03</rscale>
<asrwt>0</asrwt>
<pdfrwt beam="1">  1       21 0.14888757E-01 0.11176065E+03</pdfrwt>
<pdfrwt beam="2">  1        3 0.22089845E-01 0.11176065E+03</pdfrwt>
<totfact> 0.35240943E+04</totfact>
</mgrwt>
</event>
<event>
 4    1  0.5045766E+003  0.1289415E+03  0.7546771E-02  0.1229035E+00
          1   -1    0    0  502    0 -0.00000000000E+00  0.00000000000E+00  0.12236125828E+03  0.12236125828E+03  0.00000000000E+00 0. -1.
         21   -1    0    0  503  502  0.00000000000E+00 -0.00000000000E+00 -0.72032478321E+03  0.72032478321E+03  0.00000000000E+00 0. -1.
         21    1    1    2  503  501  0.12407413749E+03  0.35093016724E+02 -0.67851079010E+03  0.69065389574E+03  0.00000000000E+00 0. -1.
          1    1    1    2  501    0 -0.12407413749E+03 -0.35093016724E+02  0.80547265170E+02  0.15203214576E+03  0.00000000000E+00 0. -1.
<mgrwt>
<rscale>  2 0.12894150E+03</rscale>
<asrwt>0</asrwt>
<pdfrwt beam="2">  1       21 0.11081919E+00 0.12894150E+03</pdfrwt>
<pdfrwt beam="1">  1        1 0.18824810E-01 0.12894150E+03</pdfrwt>
<totfact> 0.19639221E+03</totfact>
</mgrwt>
</event>
<event>
 4    1  0.5045766E+003  0.1279506E+03  0.7546771E-02  0.1230529E+00
         21   -1    0    0  503  502  0.00000000000E+00  0.00000000000E+00  0.53926105220E+02  0.53926105220E+02  0.00000000000E+00 0. -1.
          2   -1    0    0  502    0 -0.00000000000E+00 -0.00000000000E+00 -0.10374026869E+04  0.10374026869E+04  0.00000000000E+00 0.  1.
         21    1    1    2  503  501 -0.88373842701E+02 -0.92528001649E+02 -0.32809963120E+02  0.13209035106E+03  0.00000000000E+00 0. -1.
          2    1    1    2  501    0  0.88373842701E+02  0.92528001649E+02 -0.95066661852E+03  0.95923844102E+03  0.00000000000E+00 0.  1.
<mgrwt>
<rscale>  2 0.12795064E+03</rscale>
<asrwt>0</asrwt>
<pdfrwt beam="1">  1       21 0.82963242E-02 0.12795064E+03</pdfrwt>
<pdfrwt beam="2">  1        2 0.15960041E+00 0.12795064E+03</pdfrwt>
<totfact> 0.36023991E+04</totfact>
</mgrwt>
</event>
<event>
 4    1  0.5045766E+003  0.4461415E+03  0.7546771E-02  0.1028879E+00
         21   -1    0    0  501  502  0.00000000000E+00  0.00000000000E+00  0.15312684778E+04  0.15312684778E+04  0.00000000000E+00 0. -1.
          3   -1    0    0  503    0 -0.00000000000E+00 -0.00000000000E+00 -0.49068244435E+03  0.49068244435E+03  0.00000000000E+00 0. -1.
         21    1    1    2  503  502  0.44393452341E+03  0.44321401958E+02  0.13870787673E+04  0.14570620283E+04  0.00000000000E+00 0. -1.
          3    1    1    2  501    0 -0.44393452341E+03 -0.44321401958E+02 -0.34649273384E+03  0.56488889381E+03  0.00000000000E+00 0. -1.
<mgrwt>
<rscale>  2 0.44614151E+03</rscale>
<asrwt>0</asrwt>
<pdfrwt beam="1">  1       21 0.23557976E+00 0.44614151E+03</pdfrwt>
<pdfrwt beam="2">  1        3 0.75489608E-01 0.44614151E+03</pdfrwt>
<totfact> 0.58124275E+00</totfact>
</mgrwt>
</event>
<event>
 4    1  0.5045766E+003  0.1107014E+03  0.7546771E-02  0.1259276E+00
         21   -1    0    0  503  502  0.00000000000E+00  0.00000000000E+00  0.43180106598E+02  0.43180106598E+02  0.00000000000E+00 0. -1.
          1   -1    0    0  502    0 -0.00000000000E+00 -0.00000000000E+00 -0.10570672551E+04  0.10570672551E+04  0.00000000000E+00 0.  1.
         21    1    1    2  503  501  0.35158826599E+02  0.10496982488E+03 -0.36430240969E+02  0.11654170790E+03  0.00000000000E+00 0. -1.
          1    1    1    2  501    0 -0.35158826599E+02 -0.10496982488E+03 -0.97745690757E+03  0.98370565384E+03  0.00000000000E+00 0.  1.
<mgrwt>
<rscale>  2 0.11070143E+03</rscale>
<asrwt>0</asrwt>
<pdfrwt beam="1">  1       21 0.66430930E-02 0.11070143E+03</pdfrwt>
<pdfrwt beam="2">  1        1 0.16262574E+00 0.11070143E+03</pdfrwt>
<totfact> 0.27383648E+04</totfact>
</mgrwt>
</event>
<event>
 4    1  0.5045766E+003  0.1159755E+03  0.7546771E-02  0.1249888E+00
         21   -1    0    0  503  502  0.00000000000E+00  0.00000000000E+00  0.29204815164E+03  0.29204815164E+03  0.00000000000E+00 0. -1.
          1   -1    0    0  502    0 -0.00000000000E+00 -0.00000000000E+00 -0.38014673285E+04  0.38014673285E+04  0.00000000000E+00 0.  1.
         21    1    1    2  503  501 -0.11082647773E+03  0.34173158692E+02  0.27961204303E+03  0.30270977445E+03  0.00000000000E+00 0. -1.
          1    1    1    2  501    0  0.11082647773E+03 -0.34173158692E+02 -0.37890312199E+04  0.37908057057E+04  0.00000000000E+00 0.  1.
<mgrwt>
<rscale>  2 0.11597548E+03</rscale>
<asrwt>0</asrwt>
<pdfrwt beam="1">  1       21 0.44930488E-01 0.11597548E+03</pdfrwt>
<pdfrwt beam="2">  1        1 0.58484108E+00 0.11597548E+03</pdfrwt>
<totfact> 0.11581652E+01</totfact>
</mgrwt>
</event>
<event>
 4    1  0.5045766E+003  0.3057764E+03  0.7546771E-02  0.1082388E+00
         21   -1    0    0  501  502  0.00000000000E+00  0.00000000000E+00  0.84185733758E+02  0.84185733758E+02  0.00000000000E+00 0.  1.
          1   -1    0    0  503    0 -0.00000000000E+00 -0.00000000000E+00 -0.20696154143E+04  0.20696154143E+04  0.00000000000E+00 0.  1.
         21    1    1    2  503  502 -0.27737054388E+03  0.12870415556E+03 -0.25965935697E+03  0.40115104379E+03  0.00000000000E+00 0.  1.
          1    1    1    2  501    0  0.27737054388E+03 -0.12870415556E+03 -0.17257703236E+04  0.17526501043E+04  0.00000000000E+00 0.  1.
<mgrwt>
<rscale>  2 0.30577635E+03</rscale>
<asrwt>0</asrwt>
<pdfrwt beam="1">  1       21 0.12951652E-01 0.30577635E+03</pdfrwt>
<pdfrwt beam="2">  1        1 0.31840236E+00 0.30577635E+03</pdfrwt>
<totfact> 0.16888433E+03</totfact>
</mgrwt>
</event>
<event>
 4    1  0.5045766E+003  0.1045365E+03  0.7546771E-02  0.1271035E+00
          1   -1    0    0  502    0 -0.00000000000E+00  0.00000000000E+00  0.27022580601E+02  0.27022580601E+02  0.00000000000E+00 0.  1.
         21   -1    0    0  503  502  0.00000000000E+00 -0.00000000000E+00 -0.81048071131E+03  0.81048071131E+03  0.00000000000E+00 0.  1.
         21    1    1    2  503  501 -0.55746700835E+02  0.88431843691E+02 -0.68813867229E+03  0.69603356092E+03  0.00000000000E+00 0.  1.
          1    1    1    2  501    0  0.55746700835E+02 -0.88431843691E+02 -0.95319458421E+02  0.14146973099E+03  0.00000000000E+00 0.  1.
<mgrwt>
<rscale>  2 0.10453653E+03</rscale>
<asrwt>0</asrwt>
<pdfrwt beam="2">  1       21 0.12468935E+00 0.10453653E+03</pdfrwt>
<pdfrwt beam="1">  1        1 0.41573199E-02 0.10453653E+03</pdfrwt>
<totfact> 0.11034042E+04</totfact>
</mgrwt>
</event>
<event>
 4    1  0.5045766E+003  0.1097764E+03  0.7546771E-02  0.1260985E+00
         21   -1    0    0  501  502  0.00000000000E+00  0.00000000000E+00  0.22754740475E+02  0.22754740475E+02  0.00000000000E+00 0. -1.
          1   -1    0    0  503    0 -0.00000000000E+00 -0.00000000000E+00 -0.29701442663E+04  0.29701442663E+04  0.00000000000E+00 0.  1.
         21    1    1    2  503  502  0.88120523474E+01  0.10942211106E+03 -0.11720389902E+03  0.16058519421E+03  0.00000000000E+00 0. -1.
          1    1    1    2  501    0 -0.88120523474E+01 -0.10942211106E+03 -0.28301856268E+04  0.28323138126E+04  0.00000000000E+00 0.  1.
<mgrwt>
<rscale>  2 0.10977637E+03</rscale>
<asrwt>0</asrwt>
<pdfrwt beam="1">  1       21 0.35007278E-02 0.10977637E+03</pdfrwt>
<pdfrwt beam="2">  1        1 0.45694547E+00 0.10977637E+03</pdfrwt>
<totfact> 0.45545159E+03</totfact>
</mgrwt>
</event>
<event>
 4    1  0.5045766E+003  0.1539249E+03  0.7546771E-02  0.1195731E+00
         -4   -1    0    0    0  501 -0.00000000000E+00  0.00000000000E+00  0.35663330825E+02  0.35663330825E+02  0.00000000000E+00 0. -1.
         21   -1    0    0  501  502  0.00000000000E+00 -0.00000000000E+00 -0.12174725706E+04  0.12174725706E+04  0.00000000000E+00 0.  1.
         21    1    1    2  503  502 -0.63295055264E+02  0.14030893036E+03 -0.10132328258E+04  0.10248578531E+04  0.00000000000E+00 0.  1.
         -4    1    1    2    0  503  0.63295055264E+02 -0.14030893036E+03 -0.16857641398E+03  0.22827804825E+03  0.00000000000E+00 0. -1.
<mgrwt>
<rscale>  2 0.15392485E+03</rscale>
<asrwt>0</asrwt>
<pdfrwt beam="2">  1       21 0.18730347E+00 0.15392485E+03</pdfrwt>
<pdfrwt beam="1">  1       -4 0.54866664E-02 0.15392485E+03</pdfrwt>
<totfact> 0.14133291E+03</totfact>
</mgrwt>
</event>
<event>
 4    1  0.5045766E+003  0.1705464E+03  0.7546771E-02  0.1177279E+00
          1   -1    0    0  503    0 -0.00000000000E+00  0.00000000000E+00  0.52231990188E+03  0.52231990188E+03  0.00000000000E+00 0.  1.
         21   -1    0    0  501  502  0.00000000000E+00 -0.00000000000E+00 -0.81104373468E+02  0.81104373468E+02  0.00000000000E+00 0.  1.
         21    1    1    2  503  502  0.16938928464E+03 -0.19833104701E+02  0.51703097515E+02  0.17821136913E+03  0.00000000000E+00 0.  1.
          1    1    1    2  501    0 -0.16938928464E+03  0.19833104701E+02  0.38951243089E+03  0.42521290622E+03  0.00000000000E+00 0.  1.
<mgrwt>
<rscale>  2 0.17054642E+03</rscale>
<asrwt>0</asrwt>
<pdfrwt beam="2">  1       21 0.12477596E-01 0.17054642E+03</pdfrwt>
<pdfrwt beam="1">  1        1 0.80356906E-01 0.17054642E+03</pdfrwt>
<totfact> 0.25830252E+04</totfact>
</mgrwt>
</event>
<event>
 4    1  0.5045766E+003  0.1087761E+03  0.7546771E-02  0.1262853E+00
         21   -1    0    0  503  502  0.00000000000E+00  0.00000000000E+00  0.17357752542E+03  0.17357752542E+03  0.00000000000E+00 0.  1.
         -3   -1    0    0    0  501 -0.00000000000E+00 -0.00000000000E+00 -0.46326188809E+03  0.46326188809E+03  0.00000000000E+00 0.  1.
         21    1    1    2  503  501 -0.59223500346E+02  0.91240449358E+02  0.14921880489E+03  0.18465777624E+03  0.00000000000E+00 0.  1.
         -3    1    1    2    0  502  0.59223500346E+02 -0.91240449358E+02 -0.43890316756E+03  0.45218163727E+03  0.00000000000E+00 0.  1.
<mgrwt>
<rscale>  2 0.10877611E+03</rscale>
<asrwt>0</asrwt>
<pdfrwt beam="1">  1       21 0.26704235E-01 0.10877611E+03</pdfrwt>
<pdfrwt beam="2">  1       -3 0.71271060E-01 0.10877611E+03</pdfrwt>
<totfact> 0.12592221E+03</totfact>
</mgrwt>
</event>
<event>
 4    1  0.5045766E+003  0.1148444E+03  0.7546771E-02  0.1251853E+00
         21   -1    0    0  501  502  0.00000000000E+00  0.00000000000E+00  0.23403853786E+02  0.23403853786E+02  0.00000000000E+00 0.  1.
          2   -1    0    0  503    0 -0.00000000000E+00 -0.00000000000E+00 -0.58927825805E+03  0.58927825805E+03  0.00000000000E+00 0.  1.
         21    1    1    2  503  502  0.77975739734E+02  0.84315064466E+02 -0.21892708183E+03  0.24722118283E+03  0.00000000000E+00 0.  1.
          2    1    1    2  501    0 -0.77975739734E+02 -0.84315064466E+02 -0.34694732243E+03  0.36546092900E+03  0.00000000000E+00 0.  1.
<mgrwt>
<rscale>  2 0.11484444E+03</rscale>
<asrwt>0</asrwt>
<pdfrwt beam="1">  1       21 0.36005933E-02 0.11484444E+03</pdfrwt>
<pdfrwt beam="2">  1        2 0.90658184E-01 0.11484444E+03</pdfrwt>
<totfact> 0.29581171E+05</totfact>
</mgrwt>
</event>
<event>
 4    1  0.5045766E+003  0.1504268E+03  0.7546771E-02  0.1199950E+00
         21   -1    0    0  503  502  0.00000000000E+00  0.00000000000E+00  0.41188439297E+03  0.41188439297E+03  0.00000000000E+00 0. -1.
          1   -1    0    0  502    0 -0.00000000000E+00 -0.00000000000E+00 -0.11861792559E+03  0.11861792559E+03  0.00000000000E+00 0.  1.
         21    1    1    2  503  501  0.90047549636E+02 -0.12049758972E+03  0.34098225705E+03  0.37268905262E+03  0.00000000000E+00 0. -1.
          1    1    1    2  501    0 -0.90047549636E+02  0.12049758972E+03 -0.47715789669E+02  0.15781326594E+03  0.00000000000E+00 0.  1.
<mgrwt>
<rscale>  2 0.15042683E+03</rscale>
<asrwt>0</asrwt>
<pdfrwt beam="1">  1       21 0.63366829E-01 0.15042683E+03</pdfrwt>
<pdfrwt beam="2">  1        1 0.18248912E-01 0.15042683E+03</pdfrwt>
<totfact> 0.71901492E+03</totfact>
</mgrwt>
</event>
<event>
 4    1  0.5045766E+003  0.1715478E+03  0.7546771E-02  0.1176243E+00
         21   -1    0    0  503  502  0.00000000000E+00  0.00000000000E+00  0.65471933269E+02  0.65471933269E+02  0.00000000000E+00 0. -1.
          1   -1    0    0  502    0 -0.00000000000E+00 -0.00000000000E+00 -0.26586202860E+04  0.26586202860E+04  0.00000000000E+00 0. -1.
         21    1    1    2  503  501 -0.16531352494E+03 -0.45826679167E+02 -0.54993862000E+02  0.18014708132E+03  0.00000000000E+00 0. -1.
          1    1    1    2  501    0  0.16531352494E+03  0.45826679167E+02 -0.25381544908E+04  0.25439451380E+04  0.00000000000E+00 0. -1.
<mgrwt>
<rscale>  2 0.17154780E+03</rscale>
<asrwt>0</asrwt>
<pdfrwt beam="1">  1       21 0.10072610E-01 0.17154780E+03</pdfrwt>
<pdfrwt beam="2">  1        1 0.40901832E+00 0.17154780E+03</pdfrwt>
<totfact> 0.11673050E+03</totfact>
</mgrwt>
</event>
<event>
 4    1  0.5045766E+003  0.1343996E+03  0.7546771E-02  0.1221070E+00
          2   -1    0    0  503    0 -0.00000000000E+00  0.00000000000E+00  0.17496291522E+04  0.17496291522E+04  0.00000000000E+00 0. -1.
         21   -1    0    0  501  502  0.00000000000E+00 -0.00000000000E+00 -0.33803615100E+03  0.33803615100E+03  0.00000000000E+00 0.  1.
         21    1    1    2  503  502  0.13430032028E+03  0.51659783736E+01 -0.32197256314E+03  0.34889768525E+03  0.00000000000E+00 0.  1.
          2    1    1    2  501    0 -0.13430032028E+03 -0.51659783736E+01  0.17335655644E+04  0.17387676180E+04  0.00000000000E+00 0. -1.
<mgrwt>
<rscale>  2 0.13439964E+03</rscale>
<asrwt>0</asrwt>
<pdfrwt beam="2">  1       21 0.52005563E-01 0.13439964E+03</pdfrwt>
<pdfrwt beam="1">  1        2 0.26917371E+00 0.13439964E+03</pdfrwt>
<totfact> 0.48102062E+02</totfact>
</mgrwt>
</event>
<event>
 4    1  0.5045766E+003  0.1725444E+03  0.7546771E-02  0.1175220E+00
         21   -1    0    0  503  502  0.00000000000E+00  0.00000000000E+00  0.62833706489E+02  0.62833706489E+02  0.00000000000E+00 0.  1.
          2   -1    0    0  502    0 -0.00000000000E+00 -0.00000000000E+00 -0.50922059446E+03  0.50922059446E+03  0.00000000000E+00 0.  1.
         21    1    1    2  503  501 -0.10092271861E+03  0.13995057376E+03 -0.14777289668E+03  0.22717479442E+03  0.00000000000E+00 0.  1.
          2    1    1    2  501    0  0.10092271861E+03 -0.13995057376E+03 -0.29861399130E+03  0.34487950653E+03  0.00000000000E+00 0.  1.
<mgrwt>
<rscale>  2 0.17254437E+03</rscale>
<asrwt>0</asrwt>
<pdfrwt beam="1">  1       21 0.96667239E-02 0.17254437E+03</pdfrwt>
<pdfrwt beam="2">  1        2 0.78341632E-01 0.17254437E+03</pdfrwt>
<totfact> 0.65788146E+04</totfact>
</mgrwt>
</event>
<event>
 4    1  0.5045766E+003  0.2172237E+03  0.7546771E-02  0.1135970E+00
          2   -1    0    0  502    0 -0.00000000000E+00  0.00000000000E+00  0.16788274273E+04  0.16788274273E+04  0.00000000000E+00 0.  1.
         21   -1    0    0  503  502  0.00000000000E+00 -0.00000000000E+00 -0.28797610855E+02  0.28797610855E+02  0.00000000000E+00 0. -1.
         21    1    1    2  503  501  0.21055166137E+03 -0.53424255463E+02  0.69275672086E+03  0.72601517028E+03  0.00000000000E+00 0. -1.
          2    1    1    2  501    0 -0.21055166137E+03  0.53424255463E+02  0.95727309556E+03  0.98160986785E+03  0.00000000000E+00 0.  1.
<mgrwt>
<rscale>  2 0.21722374E+03</rscale>
<asrwt>0</asrwt>
<pdfrwt beam="2">  1       21 0.44304030E-02 0.21722374E+03</pdfrwt>
<pdfrwt beam="1">  1        2 0.25828107E+00 0.21722374E+03</pdfrwt>
<totfact> 0.46427769E+04</totfact>
</mgrwt>
</event>
<event>
 4    1  0.5045766E+003  0.1399951E+03  0.7546771E-02  0.1213336E+00
         21   -1    0    0  501  502  0.00000000000E+00  0.00000000000E+00  0.15473480485E+03  0.15473480485E+03  0.00000000000E+00 0.  1.
          2   -1    0    0  503    0 -0.00000000000E+00 -0.00000000000E+00 -0.19966940600E+03  0.19966940600E+03  0.00000000000E+00 0.  1.
         21    1    1    2  503  502 -0.42790555778E+02 -0.13329519272E+03  0.84685585717E+02  0.16361628432E+03  0.00000000000E+00 0.  1.
          2    1    1    2  501    0  0.42790555778E+02  0.13329519272E+03 -0.12962018687E+03  0.19078792653E+03  0.00000000000E+00 0.  1.
<mgrwt>
<rscale>  2 0.13999514E+03</rscale>
<asrwt>0</asrwt>
<pdfrwt beam="1">  1       21 0.23805355E-01 0.13999514E+03</pdfrwt>
<pdfrwt beam="2">  1        2 0.30718370E-01 0.13999514E+03</pdfrwt>
<totfact> 0.35001318E+04</totfact>
</mgrwt>
</event>
<event>
 4    1  0.5045766E+003  0.1103731E+03  0.7546771E-02  0.1259881E+00
         21   -1    0    0  501  502  0.00000000000E+00  0.00000000000E+00  0.28497224369E+02  0.28497224369E+02  0.00000000000E+00 0. -1.
          1   -1    0    0  503    0 -0.00000000000E+00 -0.00000000000E+00 -0.12031350813E+04  0.12031350813E+04  0.00000000000E+00 0. -1.
         21    1    1    2  503  502 -0.10715178153E+03  0.26471082284E+02 -0.92864862727E+02  0.14424321548E+03  0.00000000000E+00 0. -1.
          1    1    1    2  501    0  0.10715178153E+03 -0.26471082284E+02 -0.10817729942E+04  0.10873890902E+04  0.00000000000E+00 0. -1.
<mgrwt>
<rscale>  2 0.11037311E+03</rscale>
<asrwt>0</asrwt>
<pdfrwt beam="1">  1       21 0.43841878E-02 0.11037311E+03</pdfrwt>
<pdfrwt beam="2">  1        1 0.18509773E+00 0.11037311E+03</pdfrwt>
<totfact> 0.43604950E+04</totfact>
</mgrwt>
</event>
<event>
 4    1  0.5045766E+003  0.1006307E+03  0.7546771E-02  0.1278975E+00
          2   -1    0    0  503    0 -0.00000000000E+00  0.00000000000E+00  0.38717839142E+03  0.38717839142E+03  0.00000000000E+00 0. -1.
         21   -1    0    0  501  502  0.00000000000E+00 -0.00000000000E+00 -0.12169300388E+03  0.12169300388E+03  0.00000000000E+00 0. -1.
         21    1    1    2  503  502  0.62843046256E+02 -0.78595787348E+02 -0.92698841364E+02  0.13681966760E+03  0.00000000000E+00 0. -1.
          2    1    1    2  501    0 -0.62843046256E+02  0.78595787348E+02  0.35818422891E+03  0.37205172771E+03  0.00000000000E+00 0. -1.
<mgrwt>
<rscale>  2 0.10063074E+03</rscale>
<asrwt>0</asrwt>
<pdfrwt beam="2">  1       21 0.18722001E-01 0.10063074E+03</pdfrwt>
<pdfrwt beam="1">  1        2 0.59565906E-01 0.10063074E+03</pdfrwt>
<totfact> 0.27052069E+04</totfact>
</mgrwt>
</event>
<event>
 4    1  0.5045766E+003  0.2402959E+03  0.7546771E-02  0.1119596E+00
         21   -1    0    0  501  502  0.00000000000E+00  0.00000000000E+00  0.54729825417E+03  0.54729825417E+03  0.00000000000E+00 0. -1.
          1   -1    0    0  503    0 -0.00000000000E+00 -0.00000000000E+00 -0.31834408246E+03  0.31834408246E+03  0.00000000000E+00 0. -1.
         21    1    1    2  503  502 -0.17780447398E+03  0.16164067973E+03  0.46838220036E+03  0.52642570789E+03  0.00000000000E+00 0. -1.
          1    1    1    2  501    0  0.17780447398E+03 -0.16164067973E+03 -0.23942802866E+03  0.33921662875E+03  0.00000000000E+00 0. -1.
<mgrwt>
<rscale>  2 0.24029594E+03</rscale>
<asrwt>0</asrwt>
<pdfrwt beam="1">  1       21 0.84199731E-01 0.24029594E+03</pdfrwt>
<pdfrwt beam="2">  1        1 0.48976013E-01 0.24029594E+03</pdfrwt>
<totfact> 0.10650692E+03</totfact>
</mgrwt>
</event>
<event>
 4    1  0.5045766E+003  0.1054419E+03  0.7546771E-02  0.1269251E+00
         -4   -1    0    0    0  501 -0.00000000000E+00  0.00000000000E+00  0.43499447388E+03  0.43499447388E+03  0.00000000000E+00 0.  1.
         21   -1    0    0  503  502  0.00000000000E+00 -0.00000000000E+00 -0.72882186225E+03  0.72882186225E+03  0.00000000000E+00 0.  1.
         21    1    1    2  503  501  0.84800399093E+02  0.62664935570E+02 -0.71852737567E+03  0.72622282491E+03  0.00000000000E+00 0.  1.
         -4    1    1    2    0  502 -0.84800399093E+02 -0.62664935570E+02  0.42469998731E+03  0.43759351121E+03  0.00000000000E+00 0.  1.
<mgrwt>
<rscale>  2 0.10544194E+03</rscale>
<asrwt>0</asrwt>
<pdfrwt beam="2">  1       21 0.11212644E+00 0.10544194E+03</pdfrwt>
<pdfrwt beam="1">  1       -4 0.66922227E-01 0.10544194E+03</pdfrwt>
<totfact> 0.56960702E+01</totfact>
</mgrwt>
</event>
<event>
 4    1  0.5045766E+003  0.1136662E+03  0.7546771E-02  0.1253927E+00
         -2   -1    0    0    0  501 -0.00000000000E+00  0.00000000000E+00  0.11956088570E+04  0.11956088570E+04  0.00000000000E+00 0.  1.
         21   -1    0    0  501  502  0.00000000000E+00 -0.00000000000E+00 -0.53208295363E+02  0.53208295363E+02  0.00000000000E+00 0. -1.
         21    1    1    2  503  502 -0.77728297568E+02 -0.82935685518E+02  0.13792884694E+02  0.11450004298E+03  0.00000000000E+00 0. -1.
         -2    1    1    2    0  503  0.77728297568E+02  0.82935685518E+02  0.11286076770E+04  0.11343171094E+04  0.00000000000E+00 0.  1.
<mgrwt>
<rscale>  2 0.11366625E+03</rscale>
<asrwt>0</asrwt>
<pdfrwt beam="2">  1       21 0.81858925E-02 0.11366625E+03</pdfrwt>
<pdfrwt beam="1">  1       -2 0.18393980E+00 0.11366625E+03</pdfrwt>
<totfact> 0.17802880E+03</totfact>
</mgrwt>
</event>
<event>
 4    1  0.5045766E+003  0.1029486E+03  0.7546771E-02  0.1274215E+00
         21   -1    0    0  501  502  0.00000000000E+00  0.00000000000E+00  0.54915422093E+01  0.54915422093E+01  0.00000000000E+00 0.  1.
          1   -1    0    0  503    0 -0.00000000000E+00 -0.00000000000E+00 -0.21329127711E+04  0.21329127711E+04  0.00000000000E+00 0.  1.
         21    1    1    2  503  502  0.96750028456E+02 -0.35183144449E+02 -0.73389013518E+03  0.74107567237E+03  0.00000000000E+00 0.  1.
          1    1    1    2  501    0 -0.96750028456E+02  0.35183144449E+02 -0.13935310937E+04  0.13973286409E+04  0.00000000000E+00 0.  1.
<mgrwt>
<rscale>  2 0.10294864E+03</rscale>
<asrwt>0</asrwt>
<pdfrwt beam="1">  1       21 0.84485213E-03 0.10294864E+03</pdfrwt>
<pdfrwt beam="2">  1        1 0.32814063E+00 0.10294864E+03</pdfrwt>
<totfact> 0.15587558E+05</totfact>
</mgrwt>
</event>
<event>
 4    1  0.5045766E+003  0.1524935E+03  0.7546771E-02  0.1197442E+00
         21   -1    0    0  501  502  0.00000000000E+00  0.00000000000E+00  0.47415976650E+02  0.47415976650E+02  0.00000000000E+00 0. -1.
          1   -1    0    0  503    0 -0.00000000000E+00 -0.00000000000E+00 -0.70762227099E+03  0.70762227099E+03  0.00000000000E+00 0. -1.
         21    1    1    2  503  502 -0.90237205768E+02 -0.12292886020E+03 -0.12095234329E+03  0.19463742528E+03  0.00000000000E+00 0. -1.
          1    1    1    2  501    0  0.90237205768E+02  0.12292886020E+03 -0.53925395105E+03  0.56040082236E+03  0.00000000000E+00 0. -1.
<mgrwt>
<rscale>  2 0.15249347E+03</rscale>
<asrwt>0</asrwt>
<pdfrwt beam="1">  1       21 0.72947661E-02 0.15249347E+03</pdfrwt>
<pdfrwt beam="2">  1        1 0.10886496E+00 0.15249347E+03</pdfrwt>
<totfact> 0.43633781E+04</totfact>
</mgrwt>
</event>
<event>
 4    1  0.5045766E+003  0.1052337E+03  0.7546771E-02  0.1269660E+00
          1   -1    0    0  503    0 -0.00000000000E+00  0.00000000000E+00  0.41740307985E+03  0.41740307985E+03  0.00000000000E+00 0.  1.
         21   -1    0    0  501  502  0.00000000000E+00 -0.00000000000E+00 -0.36378497950E+02  0.36378497950E+02  0.00000000000E+00 0.  1.
         21    1    1    2  503  502  0.15735852976E+02  0.10405055620E+03  0.72464821226E+02  0.12777044115E+03  0.00000000000E+00 0.  1.
          1    1    1    2  501    0 -0.15735852976E+02 -0.10405055620E+03  0.30855976067E+03  0.32601113665E+03  0.00000000000E+00 0.  1.
<mgrwt>
<rscale>  2 0.10523372E+03</rscale>
<asrwt>0</asrwt>
<pdfrwt beam="2">  1       21 0.55966923E-02 0.10523372E+03</pdfrwt>
<pdfrwt beam="1">  1        1 0.64215855E-01 0.10523372E+03</pdfrwt>
<totfact> 0.13728419E+05</totfact>
</mgrwt>
</event>
<event>
 4    1  0.5045766E+003  0.1002335E+03  0.7546771E-02  0.1279806E+00
          2   -1    0    0  502    0 -0.00000000000E+00  0.00000000000E+00  0.15701605002E+04  0.15701605002E+04  0.00000000000E+00 0.  1.
         21   -1    0    0  503  502  0.00000000000E+00 -0.00000000000E+00 -0.74165798767E+01  0.74165798767E+01  0.00000000000E+00 0.  1.
         21    1    1    2  503  501  0.91281264713E+02  0.41406428368E+02  0.48913341106E+03  0.49929776227E+03  0.00000000000E+00 0.  1.
          2    1    1    2  501    0 -0.91281264713E+02 -0.41406428368E+02  0.10736105093E+04  0.10782793178E+04  0.00000000000E+00 0.  1.
<mgrwt>
<rscale>  2 0.10023354E+03</rscale>
<asrwt>0</asrwt>
<pdfrwt beam="2">  1       21 0.11410135E-02 0.10023354E+03</pdfrwt>
<pdfrwt beam="1">  1        2 0.24156289E+00 0.10023354E+03</pdfrwt>
<totfact> 0.48122694E+05</totfact>
</mgrwt>
</event>
<event>
 4    1  0.5045766E+003  0.1072091E+03  0.7546771E-02  0.1265827E+00
         21   -1    0    0  503  502  0.00000000000E+00  0.00000000000E+00  0.21257311268E+02  0.21257311268E+02  0.00000000000E+00 0. -1.
          1   -1    0    0  502    0 -0.00000000000E+00 -0.00000000000E+00 -0.13734803998E+04  0.13734803998E+04  0.00000000000E+00 0. -1.
         21    1    1    2  503  501 -0.54853399777E+02 -0.92113503450E+02 -0.13309008268E+03  0.17089986277E+03  0.00000000000E+00 0. -1.
          1    1    1    2  501    0  0.54853399777E+02  0.92113503450E+02 -0.12191330058E+04  0.12238378483E+04  0.00000000000E+00 0. -1.
<mgrwt>
<rscale>  2 0.10720911E+03</rscale>
<asrwt>0</asrwt>
<pdfrwt beam="1">  1       21 0.32703541E-02 0.10720911E+03</pdfrwt>
<pdfrwt beam="2">  1        1 0.21130477E+00 0.10720911E+03</pdfrwt>
<totfact> 0.54507447E+04</totfact>
</mgrwt>
</event>
<event>
 4    1  0.5045766E+003  0.1944729E+03  0.7546771E-02  0.1154488E+00
         21   -1    0    0  501  502  0.00000000000E+00  0.00000000000E+00  0.51149049786E+02  0.51149049786E+02  0.00000000000E+00 0. -1.
          2   -1    0    0  503    0 -0.00000000000E+00 -0.00000000000E+00 -0.17760052128E+04  0.17760052128E+04  0.00000000000E+00 0.  1.
         21    1    1    2  503  502 -0.15890018551E+03 -0.11211801195E+03 -0.16446999263E+03  0.25469608562E+03  0.00000000000E+00 0. -1.
          2    1    1    2  501    0  0.15890018551E+03  0.11211801195E+03 -0.15603861704E+04  0.15724581770E+04  0.00000000000E+00 0.  1.
<mgrwt>
<rscale>  2 0.19447292E+03</rscale>
<asrwt>0</asrwt>
<pdfrwt beam="1">  1       21 0.78690852E-02 0.19447292E+03</pdfrwt>
<pdfrwt beam="2">  1        2 0.27323155E+00 0.19447292E+03</pdfrwt>
<totfact> 0.15539230E+04</totfact>
</mgrwt>
</event>
<event>
 4    1  0.5045766E+003  0.1495926E+03  0.7546771E-02  0.1200975E+00
          1   -1    0    0  502    0 -0.00000000000E+00  0.00000000000E+00  0.27290838371E+03  0.27290838371E+03  0.00000000000E+00 0.  1.
         21   -1    0    0  503  502  0.00000000000E+00 -0.00000000000E+00 -0.91464231325E+02  0.91464231325E+02  0.00000000000E+00 0. -1.
         21    1    1    2  503  501  0.12770822366E+03  0.77900914192E+02  0.32111155029E+02  0.15300022582E+03  0.00000000000E+00 0. -1.
          1    1    1    2  501    0 -0.12770822366E+03 -0.77900914192E+02  0.14933299736E+03  0.21137238922E+03  0.00000000000E+00 0.  1.
<mgrwt>
<rscale>  2 0.14959259E+03</rscale>
<asrwt>0</asrwt>
<pdfrwt beam="2">  1       21 0.14071420E-01 0.14959259E+03</pdfrwt>
<pdfrwt beam="1">  1        1 0.41985905E-01 0.14959259E+03</pdfrwt>
<totfact> 0.47433584E+04</totfact>
</mgrwt>
</event>
<event>
 4    1  0.5045766E+003  0.1370510E+03  0.7546771E-02  0.1217353E+00
          1   -1    0    0  502    0 -0.00000000000E+00  0.00000000000E+00  0.58908591058E+03  0.58908591058E+03  0.00000000000E+00 0. -1.
         21   -1    0    0  503  502  0.00000000000E+00 -0.00000000000E+00 -0.12802869625E+03  0.12802869625E+03  0.00000000000E+00 0. -1.
         21    1    1    2  503  501  0.62969700500E+02  0.12172835629E+03 -0.80188687915E+02  0.15878665427E+03  0.00000000000E+00 0. -1.
          1    1    1    2  501    0 -0.62969700500E+02 -0.12172835629E+03  0.54124590225E+03  0.55832795256E+03  0.00000000000E+00 0. -1.
<mgrwt>
<rscale>  2 0.13705100E+03</rscale>
<asrwt>0</asrwt>
<pdfrwt beam="2">  1       21 0.19696723E-01 0.13705100E+03</pdfrwt>
<pdfrwt beam="1">  1        1 0.90628600E-01 0.13705100E+03</pdfrwt>
<totfact> 0.96408979E+03</totfact>
</mgrwt>
</event>
<event>
 4    1  0.5045766E+003  0.1103707E+03  0.7546771E-02  0.1259885E+00
         21   -1    0    0  503  502  0.00000000000E+00  0.00000000000E+00  0.11229967256E+03  0.11229967256E+03  0.00000000000E+00 0. -1.
          2   -1    0    0  502    0 -0.00000000000E+00 -0.00000000000E+00 -0.11939027016E+04  0.11939027016E+04  0.00000000000E+00 0. -1.
         21    1    1    2  503  501  0.43279462575E+02 -0.10153119694E+03  0.81923736122E+02  0.13745251680E+03  0.00000000000E+00 0. -1.
          2    1    1    2  501    0 -0.43279462575E+02  0.10153119694E+03 -0.11635267652E+04  0.11687498574E+04  0.00000000000E+00 0. -1.
<mgrwt>
<rscale>  2 0.11037072E+03</rscale>
<asrwt>0</asrwt>
<pdfrwt beam="1">  1       21 0.17276873E-01 0.11037072E+03</pdfrwt>
<pdfrwt beam="2">  1        2 0.18367734E+00 0.11037072E+03</pdfrwt>
<totfact> 0.80659592E+03</totfact>
</mgrwt>
</event>
<event>
 4    1  0.5045766E+003  0.1279330E+03  0.7546771E-02  0.1230555E+00
         21   -1    0    0  503  502  0.00000000000E+00  0.00000000000E+00  0.40171256180E+02  0.40171256180E+02  0.00000000000E+00 0. -1.
          2   -1    0    0  502    0 -0.00000000000E+00 -0.00000000000E+00 -0.34858385759E+04  0.34858385759E+04  0.00000000000E+00 0. -1.
         21    1    1    2  503  501  0.10766929520E+03  0.69095340605E+02 -0.66059742607E+02  0.14398171001E+03  0.00000000000E+00 0. -1.
          2    1    1    2  501    0 -0.10766929520E+03 -0.69095340605E+02 -0.33796075771E+04  0.33820281221E+04  0.00000000000E+00 0. -1.
<mgrwt>
<rscale>  2 0.12793296E+03</rscale>
<asrwt>0</asrwt>
<pdfrwt beam="1">  1       21 0.61801951E-02 0.12793296E+03</pdfrwt>
<pdfrwt beam="2">  1        2 0.53628270E+00 0.12793296E+03</pdfrwt>
<totfact> 0.27277242E+03</totfact>
</mgrwt>
</event>
<event>
 4    1  0.5045766E+003  0.1346492E+03  0.7546771E-02  0.1220716E+00
          2   -1    0    0  503    0 -0.00000000000E+00  0.00000000000E+00  0.10884509015E+04  0.10884509015E+04  0.00000000000E+00 0.  1.
         21   -1    0    0  501  502  0.00000000000E+00 -0.00000000000E+00 -0.44269651982E+02  0.44269651982E+02  0.00000000000E+00 0.  1.
         21    1    1    2  503  502 -0.84637620935E+02  0.10472292968E+03  0.74796571022E+02  0.15402904244E+03  0.00000000000E+00 0.  1.
          2    1    1    2  501    0  0.84637620935E+02 -0.10472292968E+03  0.96938467846E+03  0.97869151101E+03  0.00000000000E+00 0.  1.
<mgrwt>
<rscale>  2 0.13464924E+03</rscale>
<asrwt>0</asrwt>
<pdfrwt beam="2">  1       21 0.68107166E-02 0.13464924E+03</pdfrwt>
<pdfrwt beam="1">  1        2 0.16745396E+00 0.13464924E+03</pdfrwt>
<totfact> 0.47202827E+04</totfact>
</mgrwt>
</event>
<event>
 4    1  0.5045766E+003  0.1181453E+03  0.7546771E-02  0.1246188E+00
          2   -1    0    0  503    0 -0.00000000000E+00  0.00000000000E+00  0.46148370240E+03  0.46148370240E+03  0.00000000000E+00 0. -1.
         21   -1    0    0  501  502  0.00000000000E+00 -0.00000000000E+00 -0.10504589595E+03  0.10504589595E+03  0.00000000000E+00 0. -1.
         21    1    1    2  503  502 -0.11408324008E+03 -0.30713564077E+02 -0.60810785513E+02  0.13287686149E+03  0.00000000000E+00 0. -1.
          2    1    1    2  501    0  0.11408324008E+03  0.30713564077E+02  0.41724859196E+03  0.43365273685E+03  0.00000000000E+00 0. -1.
<mgrwt>
<rscale>  2 0.11814529E+03</rscale>
<asrwt>0</asrwt>
<pdfrwt beam="2">  1       21 0.16160907E-01 0.11814529E+03</pdfrwt>
<pdfrwt beam="1">  1        2 0.70997492E-01 0.11814529E+03</pdfrwt>
<totfact> 0.29299438E+04</totfact>
</mgrwt>
</event>
<event>
 4    1  0.5045766E+003  0.1753338E+03  0.7546771E-02  0.1172397E+00
         -2   -1    0    0    0  501 -0.00000000000E+00  0.00000000000E+00  0.57662600814E+03  0.57662600814E+03  0.00000000000E+00 0.  1.
         21   -1    0    0  501  502  0.00000000000E+00 -0.00000000000E+00 -0.13862436559E+03  0.13862436559E+03  0.00000000000E+00 0.  1.
         21    1    1    2  503  502 -0.15680248353E+03  0.78453395421E+02 -0.61549306672E+02  0.18582322579E+03  0.00000000000E+00 0.  1.
         -2    1    1    2    0  503  0.15680248353E+03 -0.78453395421E+02  0.49955094922E+03  0.52942714793E+03  0.00000000000E+00 0.  1.
<mgrwt>
<rscale>  2 0.17533384E+03</rscale>
<asrwt>0</asrwt>
<pdfrwt beam="2">  1       21 0.21326826E-01 0.17533384E+03</pdfrwt>
<pdfrwt beam="1">  1       -2 0.88711692E-01 0.17533384E+03</pdfrwt>
<totfact> 0.19019395E+03</totfact>
</mgrwt>
</event>
<event>
 4    1  0.5045766E+003  0.1455765E+03  0.7546771E-02  0.1206016E+00
         21   -1    0    0  503  502  0.00000000000E+00  0.00000000000E+00  0.40628479320E+03  0.40628479320E+03  0.00000000000E+00 0. -1.
         -4   -1    0    0    0  501 -0.00000000000E+00 -0.00000000000E+00 -0.66210790583E+02  0.66210790583E+02  0.00000000000E+00 0. -1.
         21    1    1    2  503  501 -0.13713107147E+03 -0.48863051743E+02  0.27886148093E+03  0.31457313003E+03  0.00000000000E+00 0. -1.
         -4    1    1    2    0  502  0.13713107147E+03  0.48863051743E+02  0.61212521678E+02  0.15792245375E+03  0.00000000000E+00 0. -1.
<mgrwt>
<rscale>  2 0.14557654E+03</rscale>
<asrwt>0</asrwt>
<pdfrwt beam="1">  1       21 0.62505351E-01 0.14557654E+03</pdfrwt>
<pdfrwt beam="2">  1       -4 0.10186276E-01 0.14557654E+03</pdfrwt>
<totfact> 0.72384925E+03</totfact>
</mgrwt>
</event>
<event>
 4    1  0.5045766E+003  0.1635974E+03  0.7546771E-02  0.1184694E+00
         21   -1    0    0  501  502  0.00000000000E+00  0.00000000000E+00  0.14856022062E+03  0.14856022062E+03  0.00000000000E+00 0. -1.
          1   -1    0    0  503    0 -0.00000000000E+00 -0.00000000000E+00 -0.23011308071E+04  0.23011308071E+04  0.00000000000E+00 0.  1.
         21    1    1    2  503  502 -0.15469993972E+03  0.53216904655E+02  0.99636263756E+02  0.19155024235E+03  0.00000000000E+00 0. -1.
          1    1    1    2  501    0  0.15469993972E+03 -0.53216904655E+02 -0.22522068502E+04  0.22581407854E+04  0.00000000000E+00 0.  1.
<mgrwt>
<rscale>  2 0.16359740E+03</rscale>
<asrwt>0</asrwt>
<pdfrwt beam="1">  1       21 0.22855422E-01 0.16359740E+03</pdfrwt>
<pdfrwt beam="2">  1        1 0.35402008E+00 0.16359740E+03</pdfrwt>
<totfact> 0.45420690E+02</totfact>
</mgrwt>
</event>
<event>
 4    1  0.5045766E+003  0.1459331E+03  0.7546771E-02  0.1205561E+00
         21   -1    0    0  501  502  0.00000000000E+00  0.00000000000E+00  0.14826762374E+02  0.14826762374E+02  0.00000000000E+00 0. -1.
          1   -1    0    0  503    0 -0.00000000000E+00 -0.00000000000E+00 -0.24452361477E+04  0.24452361477E+04  0.00000000000E+00 0. -1.
         21    1    1    2  503  502  0.70942952027E+02  0.12752867222E+03 -0.42511527160E+03  0.44946574823E+03  0.00000000000E+00 0. -1.
          1    1    1    2  501    0 -0.70942952027E+02 -0.12752867222E+03 -0.20052941137E+04  0.20105971618E+04  0.00000000000E+00 0. -1.
<mgrwt>
<rscale>  2 0.14593308E+03</rscale>
<asrwt>0</asrwt>
<pdfrwt beam="1">  1       21 0.22810391E-02 0.14593308E+03</pdfrwt>
<pdfrwt beam="2">  1        1 0.37619038E+00 0.14593308E+03</pdfrwt>
<totfact> 0.20061789E+04</totfact>
</mgrwt>
</event>
<event>
 4    1  0.5045766E+003  0.2019587E+03  0.7546771E-02  0.1148097E+00
         21   -1    0    0  503  502  0.00000000000E+00  0.00000000000E+00  0.96042287396E+03  0.96042287396E+03  0.00000000000E+00 0. -1.
         -1   -1    0    0    0  501 -0.00000000000E+00 -0.00000000000E+00 -0.78061690708E+02  0.78061690708E+02  0.00000000000E+00 0. -1.
         21    1    1    2  503  501  0.19973065583E+03 -0.29916456589E+02  0.79180085283E+03  0.81715109974E+03  0.00000000000E+00 0. -1.
         -1    1    1    2    0  502 -0.19973065583E+03  0.29916456589E+02  0.90560330425E+02  0.22133346494E+03  0.00000000000E+00 0. -1.
<mgrwt>
<rscale>  2 0.20195873E+03</rscale>
<asrwt>0</asrwt>
<pdfrwt beam="1">  1       21 0.14775736E+00 0.20195873E+03</pdfrwt>
<pdfrwt beam="2">  1       -1 0.12009492E-01 0.20195873E+03</pdfrwt>
<totfact> 0.12703553E+03</totfact>
</mgrwt>
</event>
<event>
 4    1  0.5045766E+003  0.1240111E+03  0.7546771E-02  0.1236623E+00
         21   -1    0    0  501  502  0.00000000000E+00  0.00000000000E+00  0.17511682991E+02  0.17511682991E+02  0.00000000000E+00 0. -1.
          4   -1    0    0  503    0 -0.00000000000E+00 -0.00000000000E+00 -0.97305374469E+03  0.97305374469E+03  0.00000000000E+00 0. -1.
         21    1    1    2  503  502 -0.10927834676E+03 -0.58625981761E+02 -0.32313466662E+03  0.34611381882E+03  0.00000000000E+00 0. -1.
          4    1    1    2  501    0  0.10927834676E+03  0.58625981761E+02 -0.63240739508E+03  0.64445160886E+03  0.00000000000E+00 0. -1.
<mgrwt>
<rscale>  2 0.12401114E+03</rscale>
<asrwt>0</asrwt>
<pdfrwt beam="1">  1       21 0.26941036E-02 0.12401114E+03</pdfrwt>
<pdfrwt beam="2">  1        4 0.14970066E+00 0.12401114E+03</pdfrwt>
<totfact> 0.98004584E+03</totfact>
</mgrwt>
</event>
<event>
 4    1  0.5045766E+003  0.1247612E+03  0.7546771E-02  0.1235443E+00
         21   -1    0    0  501  502  0.00000000000E+00  0.00000000000E+00  0.39030154126E+02  0.39030154126E+02  0.00000000000E+00 0. -1.
          2   -1    0    0  503    0 -0.00000000000E+00 -0.00000000000E+00 -0.32549937655E+04  0.32549937655E+04  0.00000000000E+00 0. -1.
         21    1    1    2  503  502  0.98985479088E+02 -0.75942289582E+02 -0.65161839386E+02  0.14075305229E+03  0.00000000000E+00 0. -1.
          2    1    1    2  501    0 -0.98985479088E+02  0.75942289582E+02 -0.31508017720E+04  0.31532708674E+04  0.00000000000E+00 0. -1.
<mgrwt>
<rscale>  2 0.12476120E+03</rscale>
<asrwt>0</asrwt>
<pdfrwt beam="1">  1       21 0.60046378E-02 0.12476120E+03</pdfrwt>
<pdfrwt beam="2">  1        2 0.50076838E+00 0.12476120E+03</pdfrwt>
<totfact> 0.40064180E+03</totfact>
</mgrwt>
</event>
<event>
 4    1  0.5045766E+003  0.1053811E+03  0.7546771E-02  0.1269370E+00
         21   -1    0    0  503  502  0.00000000000E+00  0.00000000000E+00  0.87433591562E+01  0.87433591562E+01  0.00000000000E+00 0. -1.
          2   -1    0    0  502    0 -0.00000000000E+00 -0.00000000000E+00 -0.17228149721E+04  0.17228149721E+04  0.00000000000E+00 0.  1.
         21    1    1    2  503  501 -0.20967792006E+02  0.10327408458E+03 -0.41323628089E+03  0.42646149732E+03  0.00000000000E+00 0. -1.
          2    1    1    2  501    0  0.20967792006E+02 -0.10327408458E+03 -0.13008353320E+04  0.13050968339E+04  0.00000000000E+00 0.  1.
<mgrwt>
<rscale>  2 0.10538114E+03</rscale>
<asrwt>0</asrwt>
<pdfrwt beam="1">  1       21 0.13451315E-02 0.10538114E+03</pdfrwt>
<pdfrwt beam="2">  1        2 0.26504858E+00 0.10538114E+03</pdfrwt>
<totfact> 0.31100671E+05</totfact>
</mgrwt>
</event>
<event>
 4    1  0.5045766E+003  0.1432439E+03  0.7546771E-02  0.1209030E+00
         -4   -1    0    0    0  501 -0.00000000000E+00  0.00000000000E+00  0.41050613277E+02  0.41050613277E+02  0.00000000000E+00 0. -1.
         21   -1    0    0  501  502  0.00000000000E+00 -0.00000000000E+00 -0.51661918153E+03  0.51661918153E+03  0.00000000000E+00 0. -1.
         21    1    1    2  503  502  0.44394312317E+02  0.13619089937E+03 -0.28803275116E+03  0.32168568787E+03  0.00000000000E+00 0. -1.
         -4    1    1    2    0  503 -0.44394312317E+02 -0.13619089937E+03 -0.18753581709E+03  0.23598410694E+03  0.00000000000E+00 0. -1.
<mgrwt>
<rscale>  2 0.14324390E+03</rscale>
<asrwt>0</asrwt>
<pdfrwt beam="2">  1       21 0.79479870E-01 0.14324390E+03</pdfrwt>
<pdfrwt beam="1">  1       -4 0.63154793E-02 0.14324390E+03</pdfrwt>
<totfact> 0.94460866E+03</totfact>
</mgrwt>
</event>
<event>
 4    1  0.5045766E+003  0.1163476E+03  0.7546771E-02  0.1249247E+00
          1   -1    0    0  502    0 -0.00000000000E+00  0.00000000000E+00  0.80276544206E+03  0.80276544206E+03  0.00000000000E+00 0.  1.
         21   -1    0    0  503  502  0.00000000000E+00 -0.00000000000E+00 -0.23691417378E+02  0.23691417378E+02  0.00000000000E+00 0.  1.
         21    1    1    2  503  501  0.24909485688E+02 -0.11364980105E+03  0.16768388755E+03  0.20409469836E+03  0.00000000000E+00 0.  1.
          1    1    1    2  501    0 -0.24909485688E+02  0.11364980105E+03  0.61139013714E+03  0.62236216108E+03  0.00000000000E+00 0.  1.
<mgrwt>
<rscale>  2 0.11634758E+03</rscale>
<asrwt>0</asrwt>
<pdfrwt beam="2">  1       21 0.36448341E-02 0.11634758E+03</pdfrwt>
<pdfrwt beam="1">  1        1 0.12350235E+00 0.11634758E+03</pdfrwt>
<totfact> 0.11628913E+05</totfact>
</mgrwt>
</event>
<event>
 4    1  0.5045766E+003  0.1243187E+03  0.7546771E-02  0.1236138E+00
          3   -1    0    0  502    0 -0.00000000000E+00  0.00000000000E+00  0.15616948550E+03  0.15616948550E+03  0.00000000000E+00 0.  1.
         21   -1    0    0  503  502  0.00000000000E+00 -0.00000000000E+00 -0.34451175085E+03  0.34451175085E+03  0.00000000000E+00 0.  1.
         21    1    1    2  503  501 -0.76210812451E+02  0.98219425437E+02 -0.30551875051E+03  0.32984367567E+03  0.00000000000E+00 0.  1.
          3    1    1    2  501    0  0.76210812451E+02 -0.98219425437E+02  0.11717648516E+03  0.17083756069E+03  0.00000000000E+00 0.  1.
<mgrwt>
<rscale>  2 0.12431872E+03</rscale>
<asrwt>0</asrwt>
<pdfrwt beam="2">  1       21 0.53001807E-01 0.12431872E+03</pdfrwt>
<pdfrwt beam="1">  1        3 0.24026075E-01 0.12431872E+03</pdfrwt>
<totfact> 0.26709367E+03</totfact>
</mgrwt>
</event>
<event>
 4    1  0.5045766E+003  0.1380521E+03  0.7546771E-02  0.1215974E+00
         21   -1    0    0  503  502  0.00000000000E+00  0.00000000000E+00  0.43208469984E+03  0.43208469984E+03  0.00000000000E+00 0.  1.
          2   -1    0    0  502    0 -0.00000000000E+00 -0.00000000000E+00 -0.12553172943E+04  0.12553172943E+04  0.00000000000E+00 0. -1.
         21    1    1    2  503  501  0.13763048198E+03  0.10780925764E+02  0.41712963454E+03  0.43938082564E+03  0.00000000000E+00 0.  1.
          2    1    1    2  501    0 -0.13763048198E+03 -0.10780925764E+02 -0.12403622290E+04  0.12480211685E+04  0.00000000000E+00 0. -1.
<mgrwt>
<rscale>  2 0.13805208E+03</rscale>
<asrwt>0</asrwt>
<pdfrwt beam="1">  1       21 0.66474570E-01 0.13805208E+03</pdfrwt>
<pdfrwt beam="2">  1        2 0.19312574E+00 0.13805208E+03</pdfrwt>
<totfact> 0.51660463E+02</totfact>
</mgrwt>
</event>
<event>
 4    1  0.5045766E+003  0.1138128E+03  0.7546771E-02  0.1253668E+00
         -1   -1    0    0    0  501 -0.00000000000E+00  0.00000000000E+00  0.78210284108E+02  0.78210284108E+02  0.00000000000E+00 0. -1.
         21   -1    0    0  501  502  0.00000000000E+00 -0.00000000000E+00 -0.58921375052E+03  0.58921375052E+03  0.00000000000E+00 0.  1.
         21    1    1    2  503  502 -0.98135767885E+02 -0.57642999153E+02 -0.53845137754E+03  0.55034828088E+03  0.00000000000E+00 0.  1.
         -1    1    1    2    0  503  0.98135767885E+02  0.57642999153E+02  0.27447911133E+02  0.11707575375E+03  0.00000000000E+00 0. -1.
<mgrwt>
<rscale>  2 0.11381276E+03</rscale>
<asrwt>0</asrwt>
<pdfrwt beam="2">  1       21 0.90648267E-01 0.11381276E+03</pdfrwt>
<pdfrwt beam="1">  1       -1 0.12032352E-01 0.11381276E+03</pdfrwt>
<totfact> 0.43168921E+03</totfact>
</mgrwt>
</event>
<event>
 4    1  0.5045766E+003  0.1349573E+03  0.7546771E-02  0.1220280E+00
         -1   -1    0    0    0  501 -0.00000000000E+00  0.00000000000E+00  0.18144990721E+03  0.18144990721E+03  0.00000000000E+00 0. -1.
         21   -1    0    0  503  502  0.00000000000E+00 -0.00000000000E+00 -0.10730158450E+03  0.10730158450E+03  0.00000000000E+00 0. -1.
         21    1    1    2  503  501 -0.45706510905E+02 -0.12698182916E+03  0.39871048938E+00  0.13495787878E+03  0.00000000000E+00 0. -1.
         -1    1    1    2    0  502  0.45706510905E+02  0.12698182916E+03  0.73749612226E+02  0.15379361293E+03  0.00000000000E+00 0. -1.
<mgrwt>
<rscale>  2 0.13495729E+03</rscale>
<asrwt>0</asrwt>
<pdfrwt beam="2">  1       21 0.16507936E-01 0.13495729E+03</pdfrwt>
<pdfrwt beam="1">  1       -1 0.27915370E-01 0.13495729E+03</pdfrwt>
<totfact> 0.34545034E+04</totfact>
</mgrwt>
</event>
<event>
 4    1  0.5045766E+003  0.1000803E+03  0.7546771E-02  0.1280127E+00
          2   -1    0    0  503    0 -0.00000000000E+00  0.00000000000E+00  0.34771394221E+04  0.34771394221E+04  0.00000000000E+00 0.  1.
         21   -1    0    0  501  502  0.00000000000E+00 -0.00000000000E+00 -0.30469358160E+01  0.30469358160E+01  0.00000000000E+00 0. -1.
         21    1    1    2  503  502 -0.97122786513E+02  0.24149979423E+02  0.13304107286E+04  0.13341696908E+04  0.00000000000E+00 0. -1.
          2    1    1    2  501    0  0.97122786513E+02 -0.24149979423E+02  0.21436817576E+04  0.21460166670E+04  0.00000000000E+00 0.  1.
<mgrwt>
<rscale>  2 0.10008025E+03</rscale>
<asrwt>0</asrwt>
<pdfrwt beam="2">  1       21 0.46876214E-03 0.10008025E+03</pdfrwt>
<pdfrwt beam="1">  1        2 0.53494135E+00 0.10008025E+03</pdfrwt>
<totfact> 0.17666043E+05</totfact>
</mgrwt>
</event>
<event>
 4    1  0.5045766E+003  0.1667130E+03  0.7546771E-02  0.1181320E+00
         21   -1    0    0  501  502  0.00000000000E+00  0.00000000000E+00  0.25959514041E+03  0.25959514041E+03  0.00000000000E+00 0.  1.
          4   -1    0    0  503    0 -0.00000000000E+00 -0.00000000000E+00 -0.15899495123E+03  0.15899495123E+03  0.00000000000E+00 0. -1.
         21    1    1    2  503  502  0.10294439592E+03 -0.13113222622E+03  0.16991403150E+03  0.23804198685E+03  0.00000000000E+00 0.  1.
          4    1    1    2  501    0 -0.10294439592E+03  0.13113222622E+03 -0.69313842325E+02  0.18054810479E+03  0.00000000000E+00 0. -1.
<mgrwt>
<rscale>  2 0.16671296E+03</rscale>
<asrwt>0</asrwt>
<pdfrwt beam="1">  1       21 0.39937714E-01 0.16671296E+03</pdfrwt>
<pdfrwt beam="2">  1        4 0.24460762E-01 0.16671296E+03</pdfrwt>
<totfact> 0.39418601E+03</totfact>
</mgrwt>
</event>
<event>
 4    1  0.5045766E+003  0.1321466E+03  0.7546771E-02  0.1224305E+00
          2   -1    0    0  502    0 -0.00000000000E+00  0.00000000000E+00  0.20970552883E+04  0.20970552883E+04  0.00000000000E+00 0. -1.
         21   -1    0    0  503  502  0.00000000000E+00 -0.00000000000E+00 -0.15993849630E+02  0.15993849630E+02  0.00000000000E+00 0.  1.
         21    1    1    2  503  501 -0.10630210487E+03  0.78502125045E+02  0.30904769427E+03  0.33611485904E+03  0.00000000000E+00 0.  1.
          2    1    1    2  501    0  0.10630210487E+03 -0.78502125045E+02  0.17720137444E+04  0.17769342789E+04  0.00000000000E+00 0. -1.
<mgrwt>
<rscale>  2 0.13214659E+03</rscale>
<asrwt>0</asrwt>
<pdfrwt beam="2">  1       21 0.24605939E-02 0.13214659E+03</pdfrwt>
<pdfrwt beam="1">  1        2 0.32262367E+00 0.13214659E+03</pdfrwt>
<totfact> 0.76122311E+04</totfact>
</mgrwt>
</event>
<event>
 4    1  0.5045766E+003  0.1005468E+03  0.7546771E-02  0.1279150E+00
         21   -1    0    0  503  502  0.00000000000E+00  0.00000000000E+00  0.22877595942E+02  0.22877595942E+02  0.00000000000E+00 0. -1.
          2   -1    0    0  502    0 -0.00000000000E+00 -0.00000000000E+00 -0.40738226237E+04  0.40738226237E+04  0.00000000000E+00 0. -1.
         21    1    1    2  503  501  0.12568692782E+02  0.99758116614E+02 -0.91406426818E+02  0.13588520424E+03  0.00000000000E+00 0. -1.
          2    1    1    2  501    0 -0.12568692782E+02 -0.99758116614E+02 -0.39595386009E+04  0.39608150154E+04  0.00000000000E+00 0. -1.
<mgrwt>
<rscale>  2 0.10054677E+03</rscale>
<asrwt>0</asrwt>
<pdfrwt beam="1">  1       21 0.35196300E-02 0.10054677E+03</pdfrwt>
<pdfrwt beam="2">  1        2 0.62674196E+00 0.10054677E+03</pdfrwt>
<totfact> 0.28049657E+03</totfact>
</mgrwt>
</event>
<event>
 4    1  0.5045766E+003  0.1018779E+03  0.7546771E-02  0.1276396E+00
         21   -1    0    0  503  502  0.00000000000E+00  0.00000000000E+00  0.18031444450E+02  0.18031444450E+02  0.00000000000E+00 0. -1.
          1   -1    0    0  502    0 -0.00000000000E+00 -0.00000000000E+00 -0.12467332974E+04  0.12467332974E+04  0.00000000000E+00 0.  1.
         21    1    1    2  503  501  0.80919863018E+02  0.61895680080E+02 -0.15037678246E+03  0.18163776080E+03  0.00000000000E+00 0. -1.
          1    1    1    2  501    0 -0.80919863018E+02 -0.61895680080E+02 -0.10783250705E+04  0.10831269810E+04  0.00000000000E+00 0.  1.
<mgrwt>
<rscale>  2 0.10187787E+03</rscale>
<asrwt>0</asrwt>
<pdfrwt beam="1">  1       21 0.27740678E-02 0.10187787E+03</pdfrwt>
<pdfrwt beam="2">  1        1 0.19180516E+00 0.10187787E+03</pdfrwt>
<totfact> 0.86453002E+04</totfact>
</mgrwt>
</event>
<event>
 4    1  0.5045766E+003  0.1120613E+03  0.7546771E-02  0.1256800E+00
         21   -1    0    0  503  502  0.00000000000E+00  0.00000000000E+00  0.18019033976E+02  0.18019033976E+02  0.00000000000E+00 0. -1.
         -1   -1    0    0    0  501 -0.00000000000E+00 -0.00000000000E+00 -0.76847724018E+03  0.76847724018E+03  0.00000000000E+00 0. -1.
         21    1    1    2  503  501 -0.10460343555E+03 -0.40197813816E+02 -0.25522618627E+03  0.27874387728E+03  0.00000000000E+00 0. -1.
         -1    1    1    2    0  502  0.10460343555E+03  0.40197813816E+02 -0.49523201993E+03  0.50775239688E+03  0.00000000000E+00 0. -1.
<mgrwt>
<rscale>  2 0.11206134E+03</rscale>
<asrwt>0</asrwt>
<pdfrwt beam="1">  1       21 0.27721587E-02 0.11206134E+03</pdfrwt>
<pdfrwt beam="2">  1       -1 0.11822728E+00 0.11206134E+03</pdfrwt>
<totfact> 0.45899433E+04</totfact>
</mgrwt>
</event>
<event>
 4    1  0.5045766E+003  0.1834148E+03  0.7546771E-02  0.1164538E+00
          1   -1    0    0  503    0 -0.00000000000E+00  0.00000000000E+00  0.38622142867E+03  0.38622142867E+03  0.00000000000E+00 0. -1.
         21   -1    0    0  501  502  0.00000000000E+00 -0.00000000000E+00 -0.87572191830E+02  0.87572191830E+02  0.00000000000E+00 0. -1.
         21    1    1    2  503  502 -0.15236151254E+03 -0.10211255321E+03  0.13198256430E+03  0.22596548698E+03  0.00000000000E+00 0. -1.
          1    1    1    2  501    0  0.15236151254E+03  0.10211255321E+03  0.16666667254E+03  0.24782813352E+03  0.00000000000E+00 0. -1.
<mgrwt>
<rscale>  2 0.18341484E+03</rscale>
<asrwt>0</asrwt>
<pdfrwt beam="2">  1       21 0.13472645E-01 0.18341484E+03</pdfrwt>
<pdfrwt beam="1">  1        1 0.59418681E-01 0.18341484E+03</pdfrwt>
<totfact> 0.33223682E+04</totfact>
</mgrwt>
</event>
<event>
 4    1  0.5045766E+003  0.1502342E+03  0.7546771E-02  0.1200186E+00
         21   -1    0    0  503  502  0.00000000000E+00  0.00000000000E+00  0.25205611854E+02  0.25205611854E+02  0.00000000000E+00 0.  1.
          2   -1    0    0  502    0 -0.00000000000E+00 -0.00000000000E+00 -0.16748176136E+04  0.16748176136E+04  0.00000000000E+00 0.  1.
         21    1    1    2  503  501 -0.48285438586E+02  0.14226321755E+03 -0.24495965696E+03  0.28735960083E+03  0.00000000000E+00 0.  1.
          2    1    1    2  501    0  0.48285438586E+02 -0.14226321755E+03 -0.14046523448E+04  0.14126636246E+04  0.00000000000E+00 0.  1.
<mgrwt>
<rscale>  2 0.15023417E+03</rscale>
<asrwt>0</asrwt>
<pdfrwt beam="1">  1       21 0.38777869E-02 0.15023417E+03</pdfrwt>
<pdfrwt beam="2">  1        2 0.25766422E+00 0.15023417E+03</pdfrwt>
<totfact> 0.59084653E+04</totfact>
</mgrwt>
</event>
<event>
 4    1  0.5045766E+003  0.1513509E+03  0.7546771E-02  0.1198823E+00
         21   -1    0    0  501  502  0.00000000000E+00  0.00000000000E+00  0.14066501863E+03  0.14066501863E+03  0.00000000000E+00 0. -1.
          2   -1    0    0  503    0 -0.00000000000E+00 -0.00000000000E+00 -0.18922147223E+03  0.18922147223E+03  0.00000000000E+00 0.  1.
         21    1    1    2  503  502 -0.10988022979E+03  0.10408375753E+03  0.37300187752E+02  0.15587943253E+03  0.00000000000E+00 0. -1.
          2    1    1    2  501    0  0.10988022979E+03 -0.10408375753E+03 -0.85856641355E+02  0.17400705832E+03  0.00000000000E+00 0.  1.
<mgrwt>
<rscale>  2 0.15135090E+03</rscale>
<asrwt>0</asrwt>
<pdfrwt beam="1">  1       21 0.21640772E-01 0.15135090E+03</pdfrwt>
<pdfrwt beam="2">  1        2 0.29110996E-01 0.15135090E+03</pdfrwt>
<totfact> 0.44402654E+04</totfact>
</mgrwt>
</event>
<event>
 4    1  0.5045766E+003  0.1049318E+03  0.7546771E-02  0.1270254E+00
         21   -1    0    0  501  502  0.00000000000E+00  0.00000000000E+00  0.27111773535E+04  0.27111773535E+04  0.00000000000E+00 0.  1.
         -3   -1    0    0    0  501 -0.00000000000E+00 -0.00000000000E+00 -0.11957734221E+02  0.11957734221E+02  0.00000000000E+00 0.  1.
         21    1    1    2  503  502 -0.96093479606E+02 -0.42151202586E+02  0.24560616719E+04  0.24583021818E+04  0.00000000000E+00 0.  1.
         -3    1    1    2    0  503  0.96093479606E+02  0.42151202586E+02  0.24315794737E+03  0.26483290594E+03  0.00000000000E+00 0.  1.
<mgrwt>
<rscale>  2 0.10493179E+03</rscale>
<asrwt>0</asrwt>
<pdfrwt beam="1">  1       21 0.41710372E+00 0.10493179E+03</pdfrwt>
<pdfrwt beam="2">  1       -3 0.18396536E-02 0.10493179E+03</pdfrwt>
<totfact> 0.40378957E+02</totfact>
</mgrwt>
</event>
<event>
 4    1  0.5045766E+003  0.1130676E+03  0.7546771E-02  0.1254992E+00
         21   -1    0    0  501  502  0.00000000000E+00  0.00000000000E+00  0.53915539876E+02  0.53915539876E+02  0.00000000000E+00 0. -1.
          2   -1    0    0  503    0 -0.00000000000E+00 -0.00000000000E+00 -0.26924247278E+03  0.26924247278E+03  0.00000000000E+00 0. -1.
         21    1    1    2  503  502 -0.19410302061E+02  0.11138902858E+03 -0.51849888792E+02  0.12438925388E+03  0.00000000000E+00 0. -1.
          2    1    1    2  501    0  0.19410302061E+02 -0.11138902858E+03 -0.16347704411E+03  0.19876875877E+03  0.00000000000E+00 0. -1.
<mgrwt>
<rscale>  2 0.11306757E+03</rscale>
<asrwt>0</asrwt>
<pdfrwt beam="1">  1       21 0.82946986E-02 0.11306757E+03</pdfrwt>
<pdfrwt beam="2">  1        2 0.41421918E-01 0.11306757E+03</pdfrwt>
<totfact> 0.16795839E+05</totfact>
</mgrwt>
</event>
<event>
 4    1  0.5045766E+003  0.1585685E+03  0.7546771E-02  0.1190322E+00
          1   -1    0    0  503    0 -0.00000000000E+00  0.00000000000E+00  0.27785743485E+03  0.27785743485E+03  0.00000000000E+00 0.  1.
         21   -1    0    0  501  502  0.00000000000E+00 -0.00000000000E+00 -0.33761330502E+03  0.33761330502E+03  0.00000000000E+00 0. -1.
         21    1    1    2  503  502 -0.44531323644E+02  0.15218716078E+03 -0.29316070010E+03  0.33329741490E+03  0.00000000000E+00 0. -1.
          1    1    1    2  501    0  0.44531323644E+02 -0.15218716078E+03  0.23340482993E+03  0.28217332498E+03  0.00000000000E+00 0.  1.
<mgrwt>
<rscale>  2 0.15856850E+03</rscale>
<asrwt>0</asrwt>
<pdfrwt beam="2">  1       21 0.51940508E-01 0.15856850E+03</pdfrwt>
<pdfrwt beam="1">  1        1 0.42747298E-01 0.15856850E+03</pdfrwt>
<totfact> 0.37537042E+03</totfact>
</mgrwt>
</event>
<event>
 4    1  0.5045766E+003  0.1204928E+03  0.7546771E-02  0.1242286E+00
         -2   -1    0    0    0  501 -0.00000000000E+00  0.00000000000E+00  0.24672099339E+03  0.24672099339E+03  0.00000000000E+00 0.  1.
         21   -1    0    0  503  502  0.00000000000E+00 -0.00000000000E+00 -0.17236687623E+03  0.17236687623E+03  0.00000000000E+00 0.  1.
         21    1    1    2  503  501 -0.99540755382E+02  0.67898045617E+02 -0.13287674235E+03  0.17937317313E+03  0.00000000000E+00 0.  1.
         -2    1    1    2    0  502  0.99540755382E+02 -0.67898045617E+02  0.20723085951E+03  0.23971469650E+03  0.00000000000E+00 0.  1.
<mgrwt>
<rscale>  2 0.12049277E+03</rscale>
<asrwt>0</asrwt>
<pdfrwt beam="2">  1       21 0.26517981E-01 0.12049277E+03</pdfrwt>
<pdfrwt beam="1">  1       -2 0.37957076E-01 0.12049277E+03</pdfrwt>
<totfact> 0.72336106E+03</totfact>
</mgrwt>
</event>
<event>
 4    1  0.5045766E+003  0.1310552E+03  0.7546771E-02  0.1225898E+00
         21   -1    0    0  503  502  0.00000000000E+00  0.00000000000E+00  0.54247771750E+02  0.54247771750E+02  0.00000000000E+00 0.  1.
         -4   -1    0    0    0  501 -0.00000000000E+00 -0.00000000000E+00 -0.38018158820E+03  0.38018158820E+03  0.00000000000E+00 0. -1.
         21    1    1    2  503  501  0.12917581617E+03  0.22114802153E+02 -0.74144852174E+02  0.15057528038E+03  0.00000000000E+00 0.  1.
         -4    1    1    2    0  502 -0.12917581617E+03 -0.22114802153E+02 -0.25178896428E+03  0.28385407957E+03  0.00000000000E+00 0. -1.
<mgrwt>
<rscale>  2 0.13105516E+03</rscale>
<asrwt>0</asrwt>
<pdfrwt beam="1">  1       21 0.83458106E-02 0.13105516E+03</pdfrwt>
<pdfrwt beam="2">  1       -4 0.58489478E-01 0.13105516E+03</pdfrwt>
<totfact> 0.12704945E+04</totfact>
</mgrwt>
</event>
<event>
 4    1  0.5045766E+003  0.2181977E+03  0.7546771E-02  0.1135234E+00
          2   -1    0    0  503    0 -0.00000000000E+00  0.00000000000E+00  0.11054368125E+04  0.11054368125E+04  0.00000000000E+00 0.  1.
         21   -1    0    0  501  502  0.00000000000E+00 -0.00000000000E+00 -0.14007670375E+03  0.14007670375E+03  0.00000000000E+00 0.  1.
         21    1    1    2  503  502  0.17715437711E+02  0.21747733817E+03 -0.35568689245E+02  0.22107772617E+03  0.00000000000E+00 0.  1.
          2    1    1    2  501    0 -0.17715437711E+02 -0.21747733817E+03  0.10009287980E+04  0.10244357901E+04  0.00000000000E+00 0.  1.
<mgrwt>
<rscale>  2 0.21819768E+03</rscale>
<asrwt>0</asrwt>
<pdfrwt beam="2">  1       21 0.21550263E-01 0.21819768E+03</pdfrwt>
<pdfrwt beam="1">  1        2 0.17006720E+00 0.21819768E+03</pdfrwt>
<totfact> 0.57469047E+03</totfact>
</mgrwt>
</event>
<event>
 4    1  0.5045766E+003  0.1090581E+03  0.7546771E-02  0.1262324E+00
         -3   -1    0    0    0  501 -0.00000000000E+00  0.00000000000E+00  0.12214511537E+03  0.12214511537E+03  0.00000000000E+00 0. -1.
         21   -1    0    0  503  502  0.00000000000E+00 -0.00000000000E+00 -0.14150275357E+03  0.14150275357E+03  0.00000000000E+00 0.  1.
         21    1    1    2  503  501  0.71393037210E+02  0.82442105378E+02 -0.83295521434E+02  0.13722904354E+03  0.00000000000E+00 0.  1.
         -3    1    1    2    0  502 -0.71393037210E+02 -0.82442105378E+02  0.63937883236E+02  0.12641882539E+03  0.00000000000E+00 0. -1.
<mgrwt>
<rscale>  2 0.10905809E+03</rscale>
<asrwt>0</asrwt>
<pdfrwt beam="2">  1       21 0.21769654E-01 0.10905809E+03</pdfrwt>
<pdfrwt beam="1">  1       -3 0.18791556E-01 0.10905809E+03</pdfrwt>
<totfact> 0.23365182E+04</totfact>
</mgrwt>
</event>
<event>
 4    1  0.5045766E+003  0.1303144E+03  0.7546771E-02  0.1226990E+00
         -4   -1    0    0    0  501 -0.00000000000E+00  0.00000000000E+00  0.76488483372E+03  0.76488483372E+03  0.00000000000E+00 0.  1.
         21   -1    0    0  503  502  0.00000000000E+00 -0.00000000000E+00 -0.32877868179E+02  0.32877868179E+02  0.00000000000E+00 0. -1.
         21    1    1    2  503  501 -0.11889740458E+03  0.53340933008E+02  0.13870484348E+03  0.19031784350E+03  0.00000000000E+00 0. -1.
         -4    1    1    2    0  502  0.11889740458E+03 -0.53340933008E+02  0.59330212206E+03  0.60744485840E+03  0.00000000000E+00 0.  1.
<mgrwt>
<rscale>  2 0.13031442E+03</rscale>
<asrwt>0</asrwt>
<pdfrwt beam="2">  1       21 0.50581341E-02 0.13031442E+03</pdfrwt>
<pdfrwt beam="1">  1       -4 0.11767458E+00 0.13031442E+03</pdfrwt>
<totfact> 0.62754255E+03</totfact>
</mgrwt>
</event>
<event>
 4    1  0.5045766E+003  0.1627038E+03  0.7546771E-02  0.1185678E+00
         21   -1    0    0  501  502  0.00000000000E+00  0.00000000000E+00  0.45394519883E+02  0.45394519883E+02  0.00000000000E+00 0. -1.
          1   -1    0    0  503    0 -0.00000000000E+00 -0.00000000000E+00 -0.10983153340E+04  0.10983153340E+04  0.00000000000E+00 0.  1.
         21    1    1    2  503  502 -0.96451197022E+02 -0.13103317229E+03 -0.13481859280E+03  0.21130210271E+03  0.00000000000E+00 0. -1.
          1    1    1    2  501    0  0.96451197022E+02  0.13103317229E+03 -0.91810222127E+03  0.93240775112E+03  0.00000000000E+00 0.  1.
<mgrwt>
<rscale>  2 0.16270380E+03</rscale>
<asrwt>0</asrwt>
<pdfrwt beam="1">  1       21 0.69837725E-02 0.16270380E+03</pdfrwt>
<pdfrwt beam="2">  1        1 0.16897158E+00 0.16270380E+03</pdfrwt>
<totfact> 0.23292598E+04</totfact>
</mgrwt>
</event>
<event>
 4    1  0.5045766E+003  0.1109577E+03  0.7546771E-02  0.1258807E+00
         21   -1    0    0  503  502  0.00000000000E+00  0.00000000000E+00  0.27879468603E+04  0.27879468603E+04  0.00000000000E+00 0. -1.
          2   -1    0    0  502    0 -0.00000000000E+00 -0.00000000000E+00 -0.99229786557E+01  0.99229786557E+01  0.00000000000E+00 0. -1.
         21    1    1    2  503  501  0.11937116556E+02  0.11031366817E+03  0.24311681007E+04  0.24336988175E+04  0.00000000000E+00 0. -1.
          2    1    1    2  501    0 -0.11937116556E+02 -0.11031366817E+03  0.34685578087E+03  0.36417102145E+03  0.00000000000E+00 0. -1.
<mgrwt>
<rscale>  2 0.11095765E+03</rscale>
<asrwt>0</asrwt>
<pdfrwt beam="1">  1       21 0.42891428E+00 0.11095765E+03</pdfrwt>
<pdfrwt beam="2">  1        2 0.15266143E-02 0.11095765E+03</pdfrwt>
<totfact> 0.60926367E+02</totfact>
</mgrwt>
</event>
<event>
 4    1  0.5045766E+003  0.1092156E+03  0.7546771E-02  0.1262029E+00
          1   -1    0    0  503    0 -0.00000000000E+00  0.00000000000E+00  0.63860198714E+03  0.63860198714E+03  0.00000000000E+00 0.  1.
         21   -1    0    0  501  502  0.00000000000E+00 -0.00000000000E+00 -0.25785491834E+02  0.25785491834E+02  0.00000000000E+00 0. -1.
         21    1    1    2  503  502 -0.64057130951E+02 -0.88457534692E+02  0.13200672752E+03  0.17132958758E+03  0.00000000000E+00 0. -1.
          1    1    1    2  501    0  0.64057130951E+02  0.88457534692E+02  0.48080976779E+03  0.49305789140E+03  0.00000000000E+00 0.  1.
<mgrwt>
<rscale>  2 0.10921562E+03</rscale>
<asrwt>0</asrwt>
<pdfrwt beam="2">  1       21 0.39669992E-02 0.10921562E+03</pdfrwt>
<pdfrwt beam="1">  1        1 0.98246448E-01 0.10921562E+03</pdfrwt>
<totfact> 0.14006252E+05</totfact>
</mgrwt>
</event>
<event>
 4    1  0.5045766E+003  0.1182016E+03  0.7546771E-02  0.1246094E+00
          2   -1    0    0  502    0 -0.00000000000E+00  0.00000000000E+00  0.10488547981E+04  0.10488547981E+04  0.00000000000E+00 0.  1.
         21   -1    0    0  503  502  0.00000000000E+00 -0.00000000000E+00 -0.46155894228E+02  0.46155894228E+02  0.00000000000E+00 0.  1.
         21    1    1    2  503  501 -0.63221542980E+02 -0.99873215297E+02  0.39560354061E+02  0.12464607593E+03  0.00000000000E+00 0.  1.
          2    1    1    2  501    0  0.63221542980E+02  0.99873215297E+02  0.96313854983E+03  0.97036461642E+03  0.00000000000E+00 0.  1.
<mgrwt>
<rscale>  2 0.11820162E+03</rscale>
<asrwt>0</asrwt>
<pdfrwt beam="2">  1       21 0.71009076E-02 0.11820162E+03</pdfrwt>
<pdfrwt beam="1">  1        2 0.16136226E+00 0.11820162E+03</pdfrwt>
<totfact> 0.46385191E+04</totfact>
</mgrwt>
</event>
<event>
 4    1  0.5045766E+003  0.1507640E+03  0.7546771E-02  0.1199537E+00
         21   -1    0    0  503  502  0.00000000000E+00  0.00000000000E+00  0.37614564790E+02  0.37614564790E+02  0.00000000000E+00 0.  1.
          2   -1    0    0  502    0 -0.00000000000E+00 -0.00000000000E+00 -0.77394245191E+03  0.77394245191E+03  0.00000000000E+00 0.  1.
         21    1    1    2  503  501  0.11360319385E+03 -0.99116533552E+02 -0.17817597873E+03  0.23340191146E+03  0.00000000000E+00 0.  1.
          2    1    1    2  501    0 -0.11360319385E+03  0.99116533552E+02 -0.55815190839E+03  0.57815510524E+03  0.00000000000E+00 0.  1.
<mgrwt>
<rscale>  2 0.15076396E+03</rscale>
<asrwt>0</asrwt>
<pdfrwt beam="1">  1       21 0.57868563E-02 0.15076396E+03</pdfrwt>
<pdfrwt beam="2">  1        2 0.11906807E+00 0.15076396E+03</pdfrwt>
<totfact> 0.97965296E+04</totfact>
</mgrwt>
</event>
<event>
 4    1  0.5045766E+003  0.1289393E+03  0.7546771E-02  0.1229038E+00
         21   -1    0    0  501  502  0.00000000000E+00  0.00000000000E+00  0.32736095525E+02  0.32736095525E+02  0.00000000000E+00 0. -1.
          2   -1    0    0  503    0 -0.00000000000E+00 -0.00000000000E+00 -0.11603842322E+04  0.11603842322E+04  0.00000000000E+00 0. -1.
         21    1    1    2  503  502  0.13831640102E+02  0.12819527150E+03 -0.11646959982E+03  0.17375416422E+03  0.00000000000E+00 0. -1.
          2    1    1    2  501    0 -0.13831640102E+02 -0.12819527150E+03 -0.10111785369E+04  0.10193661635E+04  0.00000000000E+00 0. -1.
<mgrwt>
<rscale>  2 0.12893930E+03</rscale>
<asrwt>0</asrwt>
<pdfrwt beam="1">  1       21 0.50363235E-02 0.12893930E+03</pdfrwt>
<pdfrwt beam="2">  1        2 0.17852061E+00 0.12893930E+03</pdfrwt>
<totfact> 0.71687408E+04</totfact>
</mgrwt>
</event>
<event>
 4    1  0.5045766E+003  0.1023671E+03  0.7546771E-02  0.1275396E+00
          3   -1    0    0  503    0 -0.00000000000E+00  0.00000000000E+00  0.48345240722E+03  0.48345240722E+03  0.00000000000E+00 0.  1.
         21   -1    0    0  501  502  0.00000000000E+00 -0.00000000000E+00 -0.27251099760E+02  0.27251099760E+02  0.00000000000E+00 0.  1.
         21    1    1    2  503  502  0.10063008811E+03  0.18777704125E+02  0.11259662781E+03  0.15217429941E+03  0.00000000000E+00 0.  1.
          3    1    1    2  501    0 -0.10063008811E+03 -0.18777704125E+02  0.34360467965E+03  0.35852920757E+03  0.00000000000E+00 0.  1.
<mgrwt>
<rscale>  2 0.10236707E+03</rscale>
<asrwt>0</asrwt>
<pdfrwt beam="2">  1       21 0.41924773E-02 0.10236707E+03</pdfrwt>
<pdfrwt beam="1">  1        3 0.74377287E-01 0.10236707E+03</pdfrwt>
<totfact> 0.29624088E+04</totfact>
</mgrwt>
</event>
<event>
 4    1  0.5045766E+003  0.1055913E+03  0.7546771E-02  0.1268959E+00
         21   -1    0    0  503  502  0.00000000000E+00  0.00000000000E+00  0.91931164480E+02  0.91931164480E+02  0.00000000000E+00 0.  1.
          1   -1    0    0  502    0 -0.00000000000E+00 -0.00000000000E+00 -0.65484718706E+03  0.65484718706E+03  0.00000000000E+00 0.  1.
         21    1    1    2  503  501 -0.29363347355E+02  0.10142643442E+03  0.55585354864E+02  0.11932836814E+03  0.00000000000E+00 0.  1.
          1    1    1    2  501    0  0.29363347355E+02 -0.10142643442E+03 -0.61850137745E+03  0.62744998340E+03  0.00000000000E+00 0.  1.
<mgrwt>
<rscale>  2 0.10559132E+03</rscale>
<asrwt>0</asrwt>
<pdfrwt beam="1">  1       21 0.14143256E-01 0.10559132E+03</pdfrwt>
<pdfrwt beam="2">  1        1 0.10074572E+00 0.10559132E+03</pdfrwt>
<totfact> 0.15333398E+04</totfact>
</mgrwt>
</event>
<event>
 4    1  0.5045766E+003  0.1068992E+03  0.7546771E-02  0.1266422E+00
         21   -1    0    0  501  502  0.00000000000E+00  0.00000000000E+00  0.55936503755E+02  0.55936503755E+02  0.00000000000E+00 0.  1.
          1   -1    0    0  503    0 -0.00000000000E+00 -0.00000000000E+00 -0.10859219327E+04  0.10859219327E+04  0.00000000000E+00 0.  1.
         21    1    1    2  503  502  0.92793074456E+02 -0.53074328797E+02 -0.56320737983E+00  0.10690068403E+03  0.00000000000E+00 0.  1.
          1    1    1    2  501    0 -0.92793074456E+02  0.53074328797E+02 -0.10294222215E+04  0.10349577524E+04  0.00000000000E+00 0.  1.
<mgrwt>
<rscale>  2 0.10689920E+03</rscale>
<asrwt>0</asrwt>
<pdfrwt beam="1">  1       21 0.86056164E-02 0.10689920E+03</pdfrwt>
<pdfrwt beam="2">  1        1 0.16706490E+00 0.10689920E+03</pdfrwt>
<totfact> 0.16794276E+04</totfact>
</mgrwt>
</event>
<event>
 4    1  0.5045766E+003  0.1279133E+03  0.7546771E-02  0.1230585E+00
         21   -1    0    0  503  502  0.00000000000E+00  0.00000000000E+00  0.46936581543E+03  0.46936581543E+03  0.00000000000E+00 0. -1.
          2   -1    0    0  502    0 -0.00000000000E+00 -0.00000000000E+00 -0.56077345013E+03  0.56077345013E+03  0.00000000000E+00 0.  1.
         21    1    1    2  503  501  0.12753784472E+03  0.97930380298E+01  0.45309982396E+03  0.47080915019E+03  0.00000000000E+00 0. -1.
          2    1    1    2  501    0 -0.12753784472E+03 -0.97930380298E+01 -0.54450745866E+03  0.55933011537E+03  0.00000000000E+00 0.  1.
<mgrwt>
<rscale>  2 0.12791327E+03</rscale>
<asrwt>0</asrwt>
<pdfrwt beam="1">  1       21 0.72210126E-01 0.12791327E+03</pdfrwt>
<pdfrwt beam="2">  1        2 0.86272838E-01 0.12791327E+03</pdfrwt>
<totfact> 0.12332564E+03</totfact>
</mgrwt>
</event>
<event>
 4    1  0.5045766E+003  0.1232193E+03  0.7546771E-02  0.1237879E+00
          1   -1    0    0  502    0 -0.00000000000E+00  0.00000000000E+00  0.91647551289E+03  0.91647551289E+03  0.00000000000E+00 0.  1.
         21   -1    0    0  503  502  0.00000000000E+00 -0.00000000000E+00 -0.18205135096E+02  0.18205135096E+02  0.00000000000E+00 0. -1.
         21    1    1    2  503  501 -0.12089596580E+03  0.23815326330E+02  0.30893562378E+03  0.33260220077E+03  0.00000000000E+00 0. -1.
          1    1    1    2  501    0  0.12089596580E+03 -0.23815326330E+02  0.58933475401E+03  0.60207844722E+03  0.00000000000E+00 0.  1.
<mgrwt>
<rscale>  2 0.12321933E+03</rscale>
<asrwt>0</asrwt>
<pdfrwt beam="2">  1       21 0.28007907E-02 0.12321933E+03</pdfrwt>
<pdfrwt beam="1">  1        1 0.14099620E+00 0.12321933E+03</pdfrwt>
<totfact> 0.14617674E+05</totfact>
</mgrwt>
</event>
<event>
 4    1  0.5045766E+003  0.1015679E+03  0.7546771E-02  0.1277033E+00
          2   -1    0    0  502    0 -0.00000000000E+00  0.00000000000E+00  0.55327894180E+02  0.55327894180E+02  0.00000000000E+00 0.  1.
         21   -1    0    0  503  502  0.00000000000E+00 -0.00000000000E+00 -0.67234101529E+03  0.67234101529E+03  0.00000000000E+00 0.  1.
         21    1    1    2  503  501 -0.17830616439E+02 -0.99990500466E+02 -0.61780468218E+03  0.62609796070E+03  0.00000000000E+00 0.  1.
          2    1    1    2  501    0  0.17830616439E+02  0.99990500466E+02  0.79156106769E+00  0.10157094877E+03  0.00000000000E+00 0.  1.
<mgrwt>
<rscale>  2 0.10156786E+03</rscale>
<asrwt>0</asrwt>
<pdfrwt beam="2">  1       21 0.10343708E+00 0.10156786E+03</pdfrwt>
<pdfrwt beam="1">  1        2 0.85119836E-02 0.10156786E+03</pdfrwt>
<totfact> 0.73613591E+03</totfact>
</mgrwt>
</event>
<event>
 4    1  0.5045766E+003  0.1005911E+03  0.7546771E-02  0.1279058E+00
         -1   -1    0    0    0  501 -0.00000000000E+00  0.00000000000E+00  0.29701178607E+03  0.29701178607E+03  0.00000000000E+00 0.  1.
         21   -1    0    0  503  502  0.00000000000E+00 -0.00000000000E+00 -0.41198957520E+02  0.41198957520E+02  0.00000000000E+00 0. -1.
         21    1    1    2  503  501  0.25194504128E+01  0.10055951032E+03  0.57551930493E+02  0.11589127426E+03  0.00000000000E+00 0. -1.
         -1    1    1    2    0  502 -0.25194504128E+01 -0.10055951032E+03  0.19826089806E+03  0.22231946933E+03  0.00000000000E+00 0.  1.
<mgrwt>
<rscale>  2 0.10059107E+03</rscale>
<asrwt>0</asrwt>
<pdfrwt beam="2">  1       21 0.63383014E-02 0.10059107E+03</pdfrwt>
<pdfrwt beam="1">  1       -1 0.45694119E-01 0.10059107E+03</pdfrwt>
<totfact> 0.78237912E+04</totfact>
</mgrwt>
</event>
<event>
 4    1  0.5045766E+003  0.1082652E+03  0.7546771E-02  0.1263817E+00
         21   -1    0    0  501  502  0.00000000000E+00  0.00000000000E+00  0.47670538834E+03  0.47670538834E+03  0.00000000000E+00 0. -1.
         -2   -1    0    0    0  501 -0.00000000000E+00 -0.00000000000E+00 -0.50844917003E+03  0.50844917003E+03  0.00000000000E+00 0. -1.
         21    1    1    2  503  502 -0.47383579546E+02  0.97345464137E+02  0.46464746407E+03  0.47709392038E+03  0.00000000000E+00 0. -1.
         -2    1    1    2    0  503  0.47383579546E+02 -0.97345464137E+02 -0.49639124576E+03  0.50806063798E+03  0.00000000000E+00 0. -1.
<mgrwt>
<rscale>  2 0.10826515E+03</rscale>
<asrwt>0</asrwt>
<pdfrwt beam="1">  1       21 0.73339290E-01 0.10826515E+03</pdfrwt>
<pdfrwt beam="2">  1       -2 0.78222950E-01 0.10826515E+03</pdfrwt>
<totfact> 0.21616184E+02</totfact>
</mgrwt>
</event>
<event>
 4    1  0.5045766E+003  0.1008268E+03  0.7546771E-02  0.1278567E+00
         21   -1    0    0  503  502  0.00000000000E+00  0.00000000000E+00  0.23431714072E+03  0.23431714072E+03  0.00000000000E+00 0. -1.
         -1   -1    0    0    0  501 -0.00000000000E+00 -0.00000000000E+00 -0.15857753593E+03  0.15857753593E+03  0.00000000000E+00 0.  1.
         21    1    1    2  503  501  0.50823420227E+02 -0.87080521716E+02  0.20530084136E+03  0.22872357283E+03  0.00000000000E+00 0. -1.
         -1    1    1    2    0  502 -0.50823420227E+02  0.87080521716E+02 -0.12956123657E+03  0.16417110382E+03  0.00000000000E+00 0.  1.
<mgrwt>
<rscale>  2 0.10082677E+03</rscale>
<asrwt>0</asrwt>
<pdfrwt beam="1">  1       21 0.36048791E-01 0.10082677E+03</pdfrwt>
<pdfrwt beam="2">  1       -1 0.24396544E-01 0.10082677E+03</pdfrwt>
<totfact> 0.98782692E+03</totfact>
</mgrwt>
</event>
<event>
 4    1  0.5045766E+003  0.1725163E+03  0.7546771E-02  0.1175249E+00
         -3   -1    0    0    0  501 -0.00000000000E+00  0.00000000000E+00  0.67641841583E+03  0.67641841583E+03  0.00000000000E+00 0. -1.
         21   -1    0    0  503  502  0.00000000000E+00 -0.00000000000E+00 -0.82378715093E+02  0.82378715093E+02  0.00000000000E+00 0. -1.
         21    1    1    2  503  501  0.10058953827E+03 -0.14015572781E+03  0.38056800366E+02  0.17666409737E+03  0.00000000000E+00 0. -1.
         -3    1    1    2    0  502 -0.10058953827E+03  0.14015572781E+03  0.55598290037E+03  0.58213303355E+03  0.00000000000E+00 0. -1.
<mgrwt>
<rscale>  2 0.17251633E+03</rscale>
<asrwt>0</asrwt>
<pdfrwt beam="2">  1       21 0.12673649E-01 0.17251633E+03</pdfrwt>
<pdfrwt beam="1">  1       -3 0.10406437E+00 0.17251633E+03</pdfrwt>
<totfact> 0.21688826E+03</totfact>
</mgrwt>
</event>
<event>
 4    1  0.5045766E+003  0.1787274E+03  0.7546771E-02  0.1169040E+00
          1   -1    0    0  503    0 -0.00000000000E+00  0.00000000000E+00  0.10077699947E+04  0.10077699947E+04  0.00000000000E+00 0.  1.
         21   -1    0    0  501  502  0.00000000000E+00 -0.00000000000E+00 -0.69237266149E+02  0.69237266149E+02  0.00000000000E+00 0. -1.
         21    1    1    2  503  502 -0.55936368408E+02 -0.16974870048E+03  0.72745421262E+02  0.19296475051E+03  0.00000000000E+00 0. -1.
          1    1    1    2  501    0  0.55936368408E+02  0.16974870048E+03  0.86578730733E+03  0.88404251038E+03  0.00000000000E+00 0.  1.
<mgrwt>
<rscale>  2 0.17872744E+03</rscale>
<asrwt>0</asrwt>
<pdfrwt beam="2">  1       21 0.10651888E-01 0.17872744E+03</pdfrwt>
<pdfrwt beam="1">  1        1 0.15504153E+00 0.17872744E+03</pdfrwt>
<totfact> 0.12916608E+04</totfact>
</mgrwt>
</event>
<event>
 4    1  0.5045766E+003  0.1040112E+03  0.7546771E-02  0.1272080E+00
          2   -1    0    0  503    0 -0.00000000000E+00  0.00000000000E+00  0.15279158904E+04  0.15279158904E+04  0.00000000000E+00 0.  1.
         21   -1    0    0  501  502  0.00000000000E+00 -0.00000000000E+00 -0.10751098096E+02  0.10751098096E+02  0.00000000000E+00 0. -1.
         21    1    1    2  503  502  0.20875510506E+02 -0.10189478845E+03  0.30905155194E+03  0.32608464638E+03  0.00000000000E+00 0. -1.
          2    1    1    2  501    0 -0.20875510506E+02  0.10189478845E+03  0.12081132404E+04  0.12125823421E+04  0.00000000000E+00 0.  1.
<mgrwt>
<rscale>  2 0.10401122E+03</rscale>
<asrwt>0</asrwt>
<pdfrwt beam="2">  1       21 0.16540163E-02 0.10401122E+03</pdfrwt>
<pdfrwt beam="1">  1        2 0.23506381E+00 0.10401122E+03</pdfrwt>
<totfact> 0.28126783E+05</totfact>
</mgrwt>
</event>
<event>
 4    1  0.5045766E+003  0.1052665E+03  0.7546771E-02  0.1269595E+00
          1   -1    0    0  502    0 -0.00000000000E+00  0.00000000000E+00  0.62945557675E+02  0.62945557675E+02  0.00000000000E+00 0. -1.
         21   -1    0    0  503  502  0.00000000000E+00 -0.00000000000E+00 -0.34031433806E+03  0.34031433806E+03  0.00000000000E+00 0. -1.
         21    1    1    2  503  501 -0.43668433098E+02  0.95781564597E+02 -0.27877131094E+03  0.29798403308E+03  0.00000000000E+00 0. -1.
          1    1    1    2  501    0  0.43668433098E+02 -0.95781564597E+02  0.14025305557E+01  0.10527586266E+03  0.00000000000E+00 0. -1.
<mgrwt>
<rscale>  2 0.10526652E+03</rscale>
<asrwt>0</asrwt>
<pdfrwt beam="2">  1       21 0.52356051E-01 0.10526652E+03</pdfrwt>
<pdfrwt beam="1">  1        1 0.96839320E-02 0.10526652E+03</pdfrwt>
<totfact> 0.24633197E+04</totfact>
</mgrwt>
</event>
<event>
 4    1  0.5045766E+003  0.1305422E+03  0.7546771E-02  0.1226653E+00
         21   -1    0    0  503  502  0.00000000000E+00  0.00000000000E+00  0.22458178039E+03  0.22458178039E+03  0.00000000000E+00 0. -1.
          1   -1    0    0  502    0 -0.00000000000E+00 -0.00000000000E+00 -0.10002540735E+04  0.10002540735E+04  0.00000000000E+00 0.  1.
         21    1    1    2  503  501 -0.10467857839E+03  0.77997841383E+02  0.20089444894E+03  0.23958265307E+03  0.00000000000E+00 0. -1.
          1    1    1    2  501    0  0.10467857839E+03 -0.77997841383E+02 -0.97656674209E+03  0.98525320085E+03  0.00000000000E+00 0.  1.
<mgrwt>
<rscale>  2 0.13054221E+03</rscale>
<asrwt>0</asrwt>
<pdfrwt beam="1">  1       21 0.34551043E-01 0.13054221E+03</pdfrwt>
<pdfrwt beam="2">  1        1 0.15388524E+00 0.13054221E+03</pdfrwt>
<totfact> 0.15064565E+03</totfact>
</mgrwt>
</event>
<event>
 4    1  0.5045766E+003  0.1258726E+03  0.7546771E-02  0.1233712E+00
         21   -1    0    0  503  502  0.00000000000E+00  0.00000000000E+00  0.75143108827E+01  0.75143108827E+01  0.00000000000E+00 0. -1.
          1   -1    0    0  502    0 -0.00000000000E+00 -0.00000000000E+00 -0.26409433208E+04  0.26409433208E+04  0.00000000000E+00 0.  1.
         21    1    1    2  503  501 -0.12456798420E+03  0.18075747914E+02 -0.72212028674E+03  0.73300861105E+03  0.00000000000E+00 0. -1.
          1    1    1    2  501    0  0.12456798420E+03 -0.18075747914E+02 -0.19113087231E+04  0.19154490206E+04  0.00000000000E+00 0.  1.
<mgrwt>
<rscale>  2 0.12587262E+03</rscale>
<asrwt>0</asrwt>
<pdfrwt beam="1">  1       21 0.11560468E-02 0.12587262E+03</pdfrwt>
<pdfrwt beam="2">  1        1 0.40629933E+00 0.12587262E+03</pdfrwt>
<totfact> 0.44707443E+04</totfact>
</mgrwt>
</event>
<event>
 4    1  0.5045766E+003  0.1088352E+03  0.7546771E-02  0.1262742E+00
         21   -1    0    0  501  502  0.00000000000E+00  0.00000000000E+00  0.93598270040E+02  0.93598270040E+02  0.00000000000E+00 0. -1.
          2   -1    0    0  503    0 -0.00000000000E+00 -0.00000000000E+00 -0.30686806362E+04  0.30686806362E+04  0.00000000000E+00 0. -1.
         21    1    1    2  503  502 -0.97469426594E+02  0.48423241580E+02  0.60651880073E+02  0.12459434177E+03  0.00000000000E+00 0. -1.
          2    1    1    2  501    0  0.97469426594E+02 -0.48423241580E+02 -0.30357342462E+04  0.30376845644E+04  0.00000000000E+00 0. -1.
<mgrwt>
<rscale>  2 0.10883519E+03</rscale>
<asrwt>0</asrwt>
<pdfrwt beam="1">  1       21 0.14399736E-01 0.10883519E+03</pdfrwt>
<pdfrwt beam="2">  1        2 0.47210465E+00 0.10883519E+03</pdfrwt>
<totfact> 0.11512073E+03</totfact>
</mgrwt>
</event>
<event>
 4    1  0.5045766E+003  0.1523922E+03  0.7546771E-02  0.1197564E+00
          2   -1    0    0  502    0 -0.00000000000E+00  0.00000000000E+00  0.16547143455E+03  0.16547143455E+03  0.00000000000E+00 0. -1.
         21   -1    0    0  503  502  0.00000000000E+00 -0.00000000000E+00 -0.34528443466E+03  0.34528443466E+03  0.00000000000E+00 0.  1.
         21    1    1    2  503  501  0.13600724781E+03 -0.68741624723E+02 -0.28665242889E+03  0.32464287674E+03  0.00000000000E+00 0.  1.
          2    1    1    2  501    0 -0.13600724781E+03  0.68741624723E+02  0.10683942877E+03  0.18611299247E+03  0.00000000000E+00 0. -1.
<mgrwt>
<rscale>  2 0.15239220E+03</rscale>
<asrwt>0</asrwt>
<pdfrwt beam="2">  1       21 0.53120682E-01 0.15239220E+03</pdfrwt>
<pdfrwt beam="1">  1        2 0.25457144E-01 0.15239220E+03</pdfrwt>
<totfact> 0.87652213E+03</totfact>
</mgrwt>
</event>
<event>
 4    1  0.5045766E+003  0.1410231E+03  0.7546771E-02  0.1211959E+00
          2   -1    0    0  502    0 -0.00000000000E+00  0.00000000000E+00  0.13731531936E+04  0.13731531936E+04  0.00000000000E+00 0. -1.
         21   -1    0    0  503  502  0.00000000000E+00 -0.00000000000E+00 -0.37973259728E+02  0.37973259728E+02  0.00000000000E+00 0.  1.
         21    1    1    2  503  501  0.68332857382E+01 -0.14085741906E+03  0.11265761882E+03  0.18049721709E+03  0.00000000000E+00 0.  1.
          2    1    1    2  501    0 -0.68332857382E+01  0.14085741906E+03  0.12225223150E+04  0.12306292362E+04  0.00000000000E+00 0. -1.
<mgrwt>
<rscale>  2 0.14102307E+03</rscale>
<asrwt>0</asrwt>
<pdfrwt beam="2">  1       21 0.58420410E-02 0.14102307E+03</pdfrwt>
<pdfrwt beam="1">  1        2 0.21125430E+00 0.14102307E+03</pdfrwt>
<totfact> 0.42699149E+04</totfact>
</mgrwt>
</event>
<event>
 4    1  0.5045766E+003  0.1010614E+03  0.7546771E-02  0.1278080E+00
         21   -1    0    0  501  502  0.00000000000E+00  0.00000000000E+00  0.13044568365E+03  0.13044568365E+03  0.00000000000E+00 0.  1.
          3   -1    0    0  503    0 -0.00000000000E+00 -0.00000000000E+00 -0.53050320696E+03  0.53050320696E+03  0.00000000000E+00 0.  1.
         21    1    1    2  503  502  0.33234871997E+02 -0.95440316572E+02  0.10508548361E+03  0.14579564332E+03  0.00000000000E+00 0.  1.
          3    1    1    2  501    0 -0.33234871997E+02  0.95440316572E+02 -0.50514300692E+03  0.51515324728E+03  0.00000000000E+00 0.  1.
<mgrwt>
<rscale>  2 0.10106142E+03</rscale>
<asrwt>0</asrwt>
<pdfrwt beam="1">  1       21 0.20068566E-01 0.10106142E+03</pdfrwt>
<pdfrwt beam="2">  1        3 0.81615879E-01 0.10106142E+03</pdfrwt>
<totfact> 0.16048627E+03</totfact>
</mgrwt>
</event>
<event>
 4    1  0.5045766E+003  0.1118321E+03  0.7546771E-02  0.1257214E+00
         21   -1    0    0  501  502  0.00000000000E+00  0.00000000000E+00  0.48482379312E+02  0.48482379312E+02  0.00000000000E+00 0.  1.
          1   -1    0    0  503    0 -0.00000000000E+00 -0.00000000000E+00 -0.11039116089E+04  0.11039116089E+04  0.00000000000E+00 0. -1.
         21    1    1    2  503  502  0.29922150135E+02 -0.10775473124E+03 -0.23312249888E+02  0.11423606335E+03  0.00000000000E+00 0.  1.
          1    1    1    2  501    0 -0.29922150135E+02  0.10775473124E+03 -0.10321169797E+04  0.10381579248E+04  0.00000000000E+00 0. -1.
<mgrwt>
<rscale>  2 0.11183209E+03</rscale>
<asrwt>0</asrwt>
<pdfrwt beam="1">  1       21 0.74588274E-02 0.11183209E+03</pdfrwt>
<pdfrwt beam="2">  1        1 0.16983256E+00 0.11183209E+03</pdfrwt>
<totfact> 0.20829151E+04</totfact>
</mgrwt>
</event>
