<event>
 4    1  0.5134057E+003  0.1075356E+03  0.7546771E-02  0.1265203E+00
          2   -1    0    0  503    0 -0.00000000000E+00  0.00000000000E+00  0.33081660714E+03  0.33081660714E+03  0.00000000000E+00 0.  1.
         21   -1    0    0  501  502  0.00000000000E+00 -0.00000000000E+00 -0.35242067305E+02  0.35242067305E+02  0.00000000000E+00 0.  1.
         21    1    1    2  503  502  0.10699856587E+03  0.10733286104E+02  0.16428861889E+03  0.19635337233E+03  0.00000000000E+00 0.  1.
          2    1    1    2  501    0 -0.10699856587E+03 -0.10733286104E+02  0.13128592095E+03  0.16970530212E+03  0.00000000000E+00 0.  1.
<mgrwt>
<rscale>  2 0.10753556E+03</rscale>
<asrwt>0</asrwt>
<pdfrwt beam="2">  1       21 0.54218567E-02 0.10753556E+03</pdfrwt>
<pdfrwt beam="1">  1        2 0.50894860E-01 0.10753556E+03</pdfrwt>
<totfact> 0.27781381E+05</totfact>
</mgrwt>
</event>
<event>
 4    1  0.5134057E+003  0.1075388E+03  0.7546771E-02  0.1265197E+00
          2   -1    0    0  502    0 -0.00000000000E+00  0.00000000000E+00  0.17598246502E+03  0.17598246502E+03  0.00000000000E+00 0.  1.
         21   -1    0    0  503  502  0.00000000000E+00 -0.00000000000E+00 -0.63383006256E+03  0.63383006256E+03  0.00000000000E+00 0. -1.
         21    1    1    2  503  501  0.16977020010E+02  0.10619027920E+03 -0.61226582355E+03  0.62163818520E+03  0.00000000000E+00 0. -1.
          2    1    1    2  501    0 -0.16977020010E+02 -0.10619027920E+03  0.15441822601E+03  0.18817434238E+03  0.00000000000E+00 0.  1.
<mgrwt>
<rscale>  2 0.10753881E+03</rscale>
<asrwt>0</asrwt>
<pdfrwt beam="2">  1       21 0.97512316E-01 0.10753881E+03</pdfrwt>
<pdfrwt beam="1">  1        2 0.27074226E-01 0.10753881E+03</pdfrwt>
<totfact> 0.21991120E+03</totfact>
</mgrwt>
</event>
<event>
 4    1  0.5134057E+003  0.1082690E+03  0.7546771E-02  0.1263809E+00
         21   -1    0    0  501  502  0.00000000000E+00  0.00000000000E+00  0.54235932132E+02  0.54235932132E+02  0.00000000000E+00 0. -1.
          1   -1    0    0  503    0 -0.00000000000E+00 -0.00000000000E+00 -0.59239786773E+03  0.59239786773E+03  0.00000000000E+00 0.  1.
         21    1    1    2  503  502  0.46998125424E+02  0.97536430808E+02 -0.11408242658E+02  0.10886839362E+03  0.00000000000E+00 0. -1.
          1    1    1    2  501    0 -0.46998125424E+02 -0.97536430808E+02 -0.52675369294E+03  0.53776540625E+03  0.00000000000E+00 0.  1.
<mgrwt>
<rscale>  2 0.10826901E+03</rscale>
<asrwt>0</asrwt>
<pdfrwt beam="1">  1       21 0.83439898E-02 0.10826901E+03</pdfrwt>
<pdfrwt beam="2">  1        1 0.91138131E-01 0.10826901E+03</pdfrwt>
<totfact> 0.44287909E+04</totfact>
</mgrwt>
</event>
<event>
 4    1  0.5134057E+003  0.1044939E+03  0.7546771E-02  0.1271120E+00
          3   -1    0    0  503    0 -0.00000000000E+00  0.00000000000E+00  0.14115178850E+04  0.14115178850E+04  0.00000000000E+00 0. -1.
         21   -1    0    0  501  502  0.00000000000E+00 -0.00000000000E+00 -0.13063716792E+02  0.13063716792E+02  0.00000000000E+00 0.  1.
         21    1    1    2  503  502 -0.68565269360E+02  0.78852953640E+02  0.24433385089E+03  0.26574050340E+03  0.00000000000E+00 0.  1.
          3    1    1    2  501    0  0.68565269360E+02 -0.78852953640E+02  0.11541203173E+04  0.11588410984E+04  0.00000000000E+00 0. -1.
<mgrwt>
<rscale>  2 0.10449394E+03</rscale>
<asrwt>0</asrwt>
<pdfrwt beam="2">  1       21 0.20098037E-02 0.10449394E+03</pdfrwt>
<pdfrwt beam="1">  1        3 0.21715648E+00 0.10449394E+03</pdfrwt>
<totfact> 0.75147700E+03</totfact>
</mgrwt>
</event>
<event>
 4    1  0.5134057E+003  0.1171025E+03  0.7546771E-02  0.1247955E+00
          3   -1    0    0  502    0 -0.00000000000E+00  0.00000000000E+00  0.60091399614E+03  0.60091399614E+03  0.00000000000E+00 0.  1.
         21   -1    0    0  503  502  0.00000000000E+00 -0.00000000000E+00 -0.58670632473E+02  0.58670632473E+02  0.00000000000E+00 0.  1.
         21    1    1    2  503  501 -0.89082862347E+01  0.11676320509E+03  0.13325142966E+02  0.11785823290E+03  0.00000000000E+00 0.  1.
          3    1    1    2  501    0  0.89082862347E+01 -0.11676320509E+03  0.52891822070E+03  0.54172639572E+03  0.00000000000E+00 0.  1.
<mgrwt>
<rscale>  2 0.11710253E+03</rscale>
<asrwt>0</asrwt>
<pdfrwt beam="2">  1       21 0.90262515E-02 0.11710253E+03</pdfrwt>
<pdfrwt beam="1">  1        3 0.92448303E-01 0.11710253E+03</pdfrwt>
<totfact> 0.50985772E+03</totfact>
</mgrwt>
</event>
<event>
 4    1  0.5134057E+003  0.1067581E+03  0.7546771E-02  0.1266694E+00
          1   -1    0    0  502    0 -0.00000000000E+00  0.00000000000E+00  0.10270896135E+03  0.10270896135E+03  0.00000000000E+00 0. -1.
         21   -1    0    0  503  502  0.00000000000E+00 -0.00000000000E+00 -0.11981898276E+03  0.11981898276E+03  0.00000000000E+00 0. -1.
         21    1    1    2  503  501  0.28167855065E+01  0.10672097581E+03 -0.38797188763E+02  0.11358927244E+03  0.00000000000E+00 0. -1.
          1    1    1    2  501    0 -0.28167855065E+01 -0.10672097581E+03  0.21687167359E+02  0.10893867167E+03  0.00000000000E+00 0. -1.
<mgrwt>
<rscale>  2 0.10675814E+03</rscale>
<asrwt>0</asrwt>
<pdfrwt beam="2">  1       21 0.18433690E-01 0.10675814E+03</pdfrwt>
<pdfrwt beam="1">  1        1 0.15801379E-01 0.10675814E+03</pdfrwt>
<totfact> 0.98036451E+04</totfact>
</mgrwt>
</event>
<event>
 4    1  0.5134057E+003  0.1088362E+03  0.7546771E-02  0.1262740E+00
         21   -1    0    0  501  502  0.00000000000E+00  0.00000000000E+00  0.53977588724E+02  0.53977588724E+02  0.00000000000E+00 0.  1.
          2   -1    0    0  503    0 -0.00000000000E+00 -0.00000000000E+00 -0.14208877367E+04  0.14208877367E+04  0.00000000000E+00 0.  1.
         21    1    1    2  503  502  0.10866397998E+03  0.61196646688E+01 -0.53556759441E+01  0.10896785813E+03  0.00000000000E+00 0.  1.
          2    1    1    2  501    0 -0.10866397998E+03 -0.61196646688E+01 -0.13615544720E+04  0.13658974672E+04  0.00000000000E+00 0.  1.
<mgrwt>
<rscale>  2 0.10883617E+03</rscale>
<asrwt>0</asrwt>
<pdfrwt beam="1">  1       21 0.83042453E-02 0.10883617E+03</pdfrwt>
<pdfrwt beam="2">  1        2 0.21859809E+00 0.10883617E+03</pdfrwt>
<totfact> 0.22260647E+04</totfact>
</mgrwt>
</event>
<event>
 4    1  0.5134057E+003  0.1377156E+03  0.7546771E-02  0.1216436E+00
          3   -1    0    0  503    0 -0.00000000000E+00  0.00000000000E+00  0.33586672079E+03  0.33586672079E+03  0.00000000000E+00 0. -1.
         21   -1    0    0  501  502  0.00000000000E+00 -0.00000000000E+00 -0.58450761249E+02  0.58450761249E+02  0.00000000000E+00 0. -1.
         21    1    1    2  503  502  0.12761585049E+03  0.51766518805E+02  0.10239154687E+03  0.17160887691E+03  0.00000000000E+00 0. -1.
          3    1    1    2  501    0 -0.12761585049E+03 -0.51766518805E+02  0.17502441268E+03  0.22270860513E+03  0.00000000000E+00 0. -1.
<mgrwt>
<rscale>  2 0.13771557E+03</rscale>
<asrwt>0</asrwt>
<pdfrwt beam="2">  1       21 0.89924250E-02 0.13771557E+03</pdfrwt>
<pdfrwt beam="1">  1        3 0.51671802E-01 0.13771557E+03</pdfrwt>
<totfact> 0.17684961E+04</totfact>
</mgrwt>
</event>
<event>
 4    1  0.5134057E+003  0.1059194E+03  0.7546771E-02  0.1268319E+00
         -2   -1    0    0    0  501 -0.00000000000E+00  0.00000000000E+00  0.24190175225E+03  0.24190175225E+03  0.00000000000E+00 0.  1.
         21   -1    0    0  503  502  0.00000000000E+00 -0.00000000000E+00 -0.47099589690E+02  0.47099589690E+02  0.00000000000E+00 0.  1.
         21    1    1    2  503  501 -0.54084441985E+02  0.91070236410E+02  0.79515122094E+02  0.13244459017E+03  0.00000000000E+00 0.  1.
         -2    1    1    2    0  502  0.54084441985E+02 -0.91070236410E+02  0.11528704047E+03  0.15655675177E+03  0.00000000000E+00 0.  1.
<mgrwt>
<rscale>  2 0.10591938E+03</rscale>
<asrwt>0</asrwt>
<pdfrwt beam="2">  1       21 0.72460908E-02 0.10591938E+03</pdfrwt>
<pdfrwt beam="1">  1       -2 0.37215654E-01 0.10591938E+03</pdfrwt>
<totfact> 0.76333762E+04</totfact>
</mgrwt>
</event>
<event>
 4    1  0.5134057E+003  0.1667198E+03  0.7546771E-02  0.1181312E+00
          1   -1    0    0  503    0 -0.00000000000E+00  0.00000000000E+00  0.42712061488E+02  0.42712061488E+02  0.00000000000E+00 0.  1.
         21   -1    0    0  501  502  0.00000000000E+00 -0.00000000000E+00 -0.13008646560E+04  0.13008646560E+04  0.00000000000E+00 0.  1.
         21    1    1    2  503  502 -0.41642092829E+02 -0.16143554475E+03 -0.11039810407E+04  0.11164988300E+04  0.00000000000E+00 0.  1.
          1    1    1    2  501    0  0.41642092829E+02  0.16143554475E+03 -0.15417155373E+03  0.22707788748E+03  0.00000000000E+00 0.  1.
<mgrwt>
<rscale>  2 0.16671982E+03</rscale>
<asrwt>0</asrwt>
<pdfrwt beam="2">  1       21 0.20013300E+00 0.16671982E+03</pdfrwt>
<pdfrwt beam="1">  1        1 0.65710871E-02 0.16671982E+03</pdfrwt>
<totfact> 0.16377699E+03</totfact>
</mgrwt>
</event>
<event>
 4    1  0.5134057E+003  0.1451112E+03  0.7546771E-02  0.1206612E+00
          1   -1    0    0  503    0 -0.00000000000E+00  0.00000000000E+00  0.67394351469E+03  0.67394351469E+03  0.00000000000E+00 0. -1.
         21   -1    0    0  501  502  0.00000000000E+00 -0.00000000000E+00 -0.17434617791E+03  0.17434617791E+03  0.00000000000E+00 0. -1.
         21    1    1    2  503  502  0.13918381042E+03  0.41050447868E+02 -0.13446541367E+03  0.19783381871E+03  0.00000000000E+00 0. -1.
          1    1    1    2  501    0 -0.13918381042E+03 -0.41050447868E+02  0.63406275046E+03  0.65045587388E+03  0.00000000000E+00 0. -1.
<mgrwt>
<rscale>  2 0.14511124E+03</rscale>
<asrwt>0</asrwt>
<pdfrwt beam="2">  1       21 0.26822489E-01 0.14511124E+03</pdfrwt>
<pdfrwt beam="1">  1        1 0.10368362E+00 0.14511124E+03</pdfrwt>
<totfact> 0.44686508E+03</totfact>
</mgrwt>
</event>
<event>
 4    1  0.5134057E+003  0.1115543E+03  0.7546771E-02  0.1257718E+00
         21   -1    0    0  503  502  0.00000000000E+00  0.00000000000E+00  0.88331879348E+01  0.88331879348E+01  0.00000000000E+00 0. -1.
          1   -1    0    0  502    0 -0.00000000000E+00 -0.00000000000E+00 -0.14230972089E+04  0.14230972089E+04  0.00000000000E+00 0.  1.
         21    1    1    2  503  501  0.95429864587E+02  0.57771076609E+02 -0.77884914632E+03  0.78679752737E+03  0.00000000000E+00 0. -1.
          1    1    1    2  501    0 -0.95429864587E+02 -0.57771076609E+02 -0.63541487467E+03  0.64513286949E+03  0.00000000000E+00 0.  1.
<mgrwt>
<rscale>  2 0.11155428E+03</rscale>
<asrwt>0</asrwt>
<pdfrwt beam="1">  1       21 0.13589520E-02 0.11155428E+03</pdfrwt>
<pdfrwt beam="2">  1        1 0.21893803E+00 0.11155428E+03</pdfrwt>
<totfact> 0.20833724E+05</totfact>
</mgrwt>
</event>
<event>
 4    1  0.5134057E+003  0.1123019E+03  0.7546771E-02  0.1256366E+00
          2   -1    0    0  502    0 -0.00000000000E+00  0.00000000000E+00  0.30088072504E+03  0.30088072504E+03  0.00000000000E+00 0. -1.
         21   -1    0    0  503  502  0.00000000000E+00 -0.00000000000E+00 -0.24446874913E+03  0.24446874913E+03  0.00000000000E+00 0. -1.
         21    1    1    2  503  501  0.11160622715E+03  0.12480704633E+02 -0.21999430723E+03  0.24700043146E+03  0.00000000000E+00 0. -1.
          2    1    1    2  501    0 -0.11160622715E+03 -0.12480704633E+02  0.27640628314E+03  0.29834904271E+03  0.00000000000E+00 0. -1.
<mgrwt>
<rscale>  2 0.11230191E+03</rscale>
<asrwt>0</asrwt>
<pdfrwt beam="2">  1       21 0.37610577E-01 0.11230191E+03</pdfrwt>
<pdfrwt beam="1">  1        2 0.46289342E-01 0.11230191E+03</pdfrwt>
<totfact> 0.93919204E+03</totfact>
</mgrwt>
</event>
<event>
 4    1  0.5134057E+003  0.1047670E+03  0.7546771E-02  0.1270579E+00
         21   -1    0    0  501  502  0.00000000000E+00  0.00000000000E+00  0.28558102329E+02  0.28558102329E+02  0.00000000000E+00 0. -1.
          4   -1    0    0  503    0 -0.00000000000E+00 -0.00000000000E+00 -0.40355290593E+03  0.40355290593E+03  0.00000000000E+00 0. -1.
         21    1    1    2  503  502  0.60078909413E+02  0.85829198038E+02 -0.14035954316E+03  0.17514830273E+03  0.00000000000E+00 0. -1.
          4    1    1    2  501    0 -0.60078909413E+02 -0.85829198038E+02 -0.23463526044E+03  0.25696270553E+03  0.00000000000E+00 0. -1.
<mgrwt>
<rscale>  2 0.10476701E+03</rscale>
<asrwt>0</asrwt>
<pdfrwt beam="1">  1       21 0.43935544E-02 0.10476701E+03</pdfrwt>
<pdfrwt beam="2">  1        4 0.62085060E-01 0.10476701E+03</pdfrwt>
<totfact> 0.32381822E+04</totfact>
</mgrwt>
</event>
<event>
 4    1  0.5134057E+003  0.1113731E+03  0.7546771E-02  0.1258048E+00
         21   -1    0    0  503  502  0.00000000000E+00  0.00000000000E+00  0.13963841164E+02  0.13963841164E+02  0.00000000000E+00 0. -1.
          2   -1    0    0  502    0 -0.00000000000E+00 -0.00000000000E+00 -0.13208262746E+04  0.13208262746E+04  0.00000000000E+00 0. -1.
         21    1    1    2  503  501  0.10398695658E+03  0.39883445464E+02 -0.27151322870E+03  0.29346790237E+03  0.00000000000E+00 0. -1.
          2    1    1    2  501    0 -0.10398695658E+03 -0.39883445464E+02 -0.10353492047E+04  0.10413222134E+04  0.00000000000E+00 0. -1.
<mgrwt>
<rscale>  2 0.11137314E+03</rscale>
<asrwt>0</asrwt>
<pdfrwt beam="1">  1       21 0.21482822E-02 0.11137314E+03</pdfrwt>
<pdfrwt beam="2">  1        2 0.20320414E+00 0.11137314E+03</pdfrwt>
<totfact> 0.23757881E+05</totfact>
</mgrwt>
</event>
<event>
 4    1  0.5134057E+003  0.1546208E+03  0.7546771E-02  0.1194907E+00
          1   -1    0    0  503    0 -0.00000000000E+00  0.00000000000E+00  0.11560599465E+03  0.11560599465E+03  0.00000000000E+00 0. -1.
         21   -1    0    0  501  502  0.00000000000E+00 -0.00000000000E+00 -0.21436364239E+03  0.21436364239E+03  0.00000000000E+00 0. -1.
         21    1    1    2  503  502  0.68792648569E+02  0.13847444186E+03 -0.80364744493E+02  0.17425869190E+03  0.00000000000E+00 0. -1.
          1    1    1    2  501    0 -0.68792648569E+02 -0.13847444186E+03 -0.18392903250E+02  0.15571094514E+03  0.00000000000E+00 0. -1.
<mgrwt>
<rscale>  2 0.15462083E+03</rscale>
<asrwt>0</asrwt>
<pdfrwt beam="2">  1       21 0.32979022E-01 0.15462083E+03</pdfrwt>
<pdfrwt beam="1">  1        1 0.17785538E-01 0.15462083E+03</pdfrwt>
<totfact> 0.28315495E+04</totfact>
</mgrwt>
</event>
<event>
 4    1  0.5134057E+003  0.1354502E+03  0.7546771E-02  0.1219586E+00
          1   -1    0    0  503    0 -0.00000000000E+00  0.00000000000E+00  0.18730321449E+03  0.18730321449E+03  0.00000000000E+00 0.  1.
         21   -1    0    0  501  502  0.00000000000E+00 -0.00000000000E+00 -0.14424849297E+03  0.14424849297E+03  0.00000000000E+00 0. -1.
         21    1    1    2  503  502  0.76491705539E+02 -0.11178455081E+03 -0.72388429503E+02  0.15358011441E+03  0.00000000000E+00 0. -1.
          1    1    1    2  501    0 -0.76491705539E+02  0.11178455081E+03  0.11544315102E+03  0.17797159305E+03  0.00000000000E+00 0.  1.
<mgrwt>
<rscale>  2 0.13545024E+03</rscale>
<asrwt>0</asrwt>
<pdfrwt beam="2">  1       21 0.22192076E-01 0.13545024E+03</pdfrwt>
<pdfrwt beam="1">  1        1 0.28815879E-01 0.13545024E+03</pdfrwt>
<totfact> 0.32793849E+04</totfact>
</mgrwt>
</event>
<event>
 4    1  0.5134057E+003  0.1194595E+03  0.7546771E-02  0.1243991E+00
         21   -1    0    0  501  502  0.00000000000E+00  0.00000000000E+00  0.35552714992E+02  0.35552714992E+02  0.00000000000E+00 0.  1.
         -3   -1    0    0    0  501 -0.00000000000E+00 -0.00000000000E+00 -0.16807060597E+04  0.16807060597E+04  0.00000000000E+00 0. -1.
         21    1    1    2  503  502 -0.67111878572E+02 -0.98825957397E+02 -0.73897960332E+02  0.14046879597E+03  0.00000000000E+00 0.  1.
         -3    1    1    2    0  503  0.67111878572E+02  0.98825957397E+02 -0.15712553844E+04  0.15757899788E+04  0.00000000000E+00 0. -1.
<mgrwt>
<rscale>  2 0.11945951E+03</rscale>
<asrwt>0</asrwt>
<pdfrwt beam="1">  1       21 0.54696487E-02 0.11945951E+03</pdfrwt>
<pdfrwt beam="2">  1       -3 0.25857015E+00 0.11945951E+03</pdfrwt>
<totfact> 0.85626446E+02</totfact>
</mgrwt>
</event>
<event>
 4    1  0.5134057E+003  0.1112857E+03  0.7546771E-02  0.1258207E+00
          2   -1    0    0  502    0 -0.00000000000E+00  0.00000000000E+00  0.22237744068E+04  0.22237744068E+04  0.00000000000E+00 0. -1.
         21   -1    0    0  503  502  0.00000000000E+00 -0.00000000000E+00 -0.22338589661E+02  0.22338589661E+02  0.00000000000E+00 0. -1.
         21    1    1    2  503  501 -0.10743015572E+03 -0.29039179178E+02  0.12767245590E+03  0.16936578250E+03  0.00000000000E+00 0. -1.
          2    1    1    2  501    0  0.10743015572E+03  0.29039179178E+02  0.20737633613E+04  0.20767472140E+04  0.00000000000E+00 0. -1.
<mgrwt>
<rscale>  2 0.11128572E+03</rscale>
<asrwt>0</asrwt>
<pdfrwt beam="2">  1       21 0.34367079E-02 0.11128572E+03</pdfrwt>
<pdfrwt beam="1">  1        2 0.34211896E+00 0.11128572E+03</pdfrwt>
<totfact> 0.38154049E+04</totfact>
</mgrwt>
</event>
<event>
 4    1  0.5134057E+003  0.1853145E+03  0.7546771E-02  0.1162756E+00
          1   -1    0    0  502    0 -0.00000000000E+00  0.00000000000E+00  0.25168458574E+04  0.25168458574E+04  0.00000000000E+00 0.  1.
         21   -1    0    0  503  502  0.00000000000E+00 -0.00000000000E+00 -0.34857852227E+02  0.34857852227E+02  0.00000000000E+00 0. -1.
         21    1    1    2  503  501  0.59613045389E+01 -0.18521862448E+03  0.24569613689E+03  0.30774675902E+03  0.00000000000E+00 0. -1.
          1    1    1    2  501    0 -0.59613045389E+01  0.18521862448E+03  0.22362918682E+04  0.22439569506E+04  0.00000000000E+00 0.  1.
<mgrwt>
<rscale>  2 0.18531453E+03</rscale>
<asrwt>0</asrwt>
<pdfrwt beam="2">  1       21 0.53627485E-02 0.18531453E+03</pdfrwt>
<pdfrwt beam="1">  1        1 0.38720691E+00 0.18531453E+03</pdfrwt>
<totfact> 0.42739949E+03</totfact>
</mgrwt>
</event>
<event>
 4    1  0.5134057E+003  0.1057695E+03  0.7546771E-02  0.1268611E+00
         21   -1    0    0  501  502  0.00000000000E+00  0.00000000000E+00  0.79849764698E+01  0.79849764698E+01  0.00000000000E+00 0. -1.
          2   -1    0    0  503    0 -0.00000000000E+00 -0.00000000000E+00 -0.16916213420E+04  0.16916213420E+04  0.00000000000E+00 0. -1.
         21    1    1    2  503  502  0.76114843834E+02 -0.73441867782E+02 -0.48960190225E+03  0.50089639656E+03  0.00000000000E+00 0. -1.
          2    1    1    2  501    0 -0.76114843834E+02  0.73441867782E+02 -0.11940344632E+04  0.11987099219E+04  0.00000000000E+00 0. -1.
<mgrwt>
<rscale>  2 0.10576945E+03</rscale>
<asrwt>0</asrwt>
<pdfrwt beam="1">  1       21 0.12284557E-02 0.10576945E+03</pdfrwt>
<pdfrwt beam="2">  1        2 0.26024991E+00 0.10576945E+03</pdfrwt>
<totfact> 0.37231208E+05</totfact>
</mgrwt>
</event>
<event>
 4    1  0.5134057E+003  0.1065055E+03  0.7546771E-02  0.1267181E+00
         21   -1    0    0  503  502  0.00000000000E+00  0.00000000000E+00  0.31986527742E+02  0.31986527742E+02  0.00000000000E+00 0.  1.
          1   -1    0    0  502    0 -0.00000000000E+00 -0.00000000000E+00 -0.12208999734E+04  0.12208999734E+04  0.00000000000E+00 0.  1.
         21    1    1    2  503  501  0.80528151221E+02  0.69703910771E+02 -0.66779873489E+02  0.12570986365E+03  0.00000000000E+00 0.  1.
          1    1    1    2  501    0 -0.80528151221E+02 -0.69703910771E+02 -0.11221335721E+04  0.11271766375E+04  0.00000000000E+00 0.  1.
<mgrwt>
<rscale>  2 0.10650548E+03</rscale>
<asrwt>0</asrwt>
<pdfrwt beam="1">  1       21 0.49210047E-02 0.10650548E+03</pdfrwt>
<pdfrwt beam="2">  1        1 0.18783075E+00 0.10650548E+03</pdfrwt>
<totfact> 0.35003598E+04</totfact>
</mgrwt>
</event>
<event>
 4    1  0.5134057E+003  0.1141341E+03  0.7546771E-02  0.1253100E+00
          2   -1    0    0  502    0 -0.00000000000E+00  0.00000000000E+00  0.23091425827E+03  0.23091425827E+03  0.00000000000E+00 0. -1.
         21   -1    0    0  503  502  0.00000000000E+00 -0.00000000000E+00 -0.27117269946E+03  0.27117269946E+03  0.00000000000E+00 0. -1.
         21    1    1    2  503  501 -0.93903083808E+02 -0.64875301389E+02 -0.24353902805E+03  0.26895697065E+03  0.00000000000E+00 0. -1.
          2    1    1    2  501    0  0.93903083808E+02  0.64875301389E+02  0.20328058686E+03  0.23312998708E+03  0.00000000000E+00 0. -1.
<mgrwt>
<rscale>  2 0.11413410E+03</rscale>
<asrwt>0</asrwt>
<pdfrwt beam="2">  1       21 0.41718877E-01 0.11413410E+03</pdfrwt>
<pdfrwt beam="1">  1        2 0.35525271E-01 0.11413410E+03</pdfrwt>
<totfact> 0.10103510E+04</totfact>
</mgrwt>
</event>
<event>
 4    1  0.5134057E+003  0.1514913E+03  0.7546771E-02  0.1198652E+00
          1   -1    0    0  503    0 -0.00000000000E+00  0.00000000000E+00  0.48341112961E+03  0.48341112961E+03  0.00000000000E+00 0. -1.
         21   -1    0    0  501  502  0.00000000000E+00 -0.00000000000E+00 -0.16151673713E+03  0.16151673713E+03  0.00000000000E+00 0. -1.
         21    1    1    2  503  502  0.15088796475E+03  0.13506453113E+02 -0.11001308647E+03  0.18722307918E+03  0.00000000000E+00 0. -1.
          1    1    1    2  501    0 -0.15088796475E+03 -0.13506453113E+02  0.43190747895E+03  0.45770478756E+03  0.00000000000E+00 0. -1.
<mgrwt>
<rscale>  2 0.15149126E+03</rscale>
<asrwt>0</asrwt>
<pdfrwt beam="2">  1       21 0.24848729E-01 0.15149126E+03</pdfrwt>
<pdfrwt beam="1">  1        1 0.74370942E-01 0.15149126E+03</pdfrwt>
<totfact> 0.80799143E+03</totfact>
</mgrwt>
</event>
<event>
 4    1  0.5134057E+003  0.1009706E+03  0.7546771E-02  0.1278268E+00
          2   -1    0    0  503    0 -0.00000000000E+00  0.00000000000E+00  0.10044090931E+04  0.10044090931E+04  0.00000000000E+00 0.  1.
         21   -1    0    0  501  502  0.00000000000E+00 -0.00000000000E+00 -0.24311000284E+02  0.24311000284E+02  0.00000000000E+00 0.  1.
         21    1    1    2  503  502 -0.88627591462E+02 -0.48375653997E+02  0.97487121522E+02  0.14035238769E+03  0.00000000000E+00 0.  1.
          2    1    1    2  501    0  0.88627591462E+02  0.48375653997E+02  0.88261097126E+03  0.88836770566E+03  0.00000000000E+00 0.  1.
<mgrwt>
<rscale>  2 0.10097056E+03</rscale>
<asrwt>0</asrwt>
<pdfrwt beam="2">  1       21 0.37401547E-02 0.10097056E+03</pdfrwt>
<pdfrwt beam="1">  1        2 0.15452444E+00 0.10097056E+03</pdfrwt>
<totfact> 0.14397992E+05</totfact>
</mgrwt>
</event>
<event>
 4    1  0.5134057E+003  0.1181224E+03  0.7546771E-02  0.1246227E+00
          1   -1    0    0  503    0 -0.00000000000E+00  0.00000000000E+00  0.68008668623E+03  0.68008668623E+03  0.00000000000E+00 0. -1.
         21   -1    0    0  501  502  0.00000000000E+00 -0.00000000000E+00 -0.82184904534E+02  0.82184904534E+02  0.00000000000E+00 0. -1.
         21    1    1    2  503  502 -0.84432325927E+02  0.82608028485E+02 -0.31202343751E+02  0.12217401642E+03  0.00000000000E+00 0. -1.
          1    1    1    2  501    0  0.84432325927E+02 -0.82608028485E+02  0.62910412544E+03  0.64009757435E+03  0.00000000000E+00 0. -1.
<mgrwt>
<rscale>  2 0.11812241E+03</rscale>
<asrwt>0</asrwt>
<pdfrwt beam="2">  1       21 0.12643832E-01 0.11812241E+03</pdfrwt>
<pdfrwt beam="1">  1        1 0.10462872E+00 0.11812241E+03</pdfrwt>
<totfact> 0.17713982E+04</totfact>
</mgrwt>
</event>
<event>
 4    1  0.5134057E+003  0.1081642E+03  0.7546771E-02  0.1264008E+00
          2   -1    0    0  502    0 -0.00000000000E+00  0.00000000000E+00  0.16507252401E+04  0.16507252401E+04  0.00000000000E+00 0.  1.
         21   -1    0    0  503  502  0.00000000000E+00 -0.00000000000E+00 -0.10835696266E+02  0.10835696266E+02  0.00000000000E+00 0. -1.
         21    1    1    2  503  501  0.82628433250E+02  0.69799992366E+02  0.33132654030E+03  0.34853518219E+03  0.00000000000E+00 0. -1.
          2    1    1    2  501    0 -0.82628433250E+02 -0.69799992366E+02  0.13085630036E+04  0.13130257542E+04  0.00000000000E+00 0.  1.
<mgrwt>
<rscale>  2 0.10816421E+03</rscale>
<asrwt>0</asrwt>
<pdfrwt beam="2">  1       21 0.16670315E-02 0.10816421E+03</pdfrwt>
<pdfrwt beam="1">  1        2 0.25395753E+00 0.10816421E+03</pdfrwt>
<totfact> 0.24066578E+05</totfact>
</mgrwt>
</event>
<event>
 4    1  0.5134057E+003  0.1005725E+03  0.7546771E-02  0.1279097E+00
          2   -1    0    0  503    0 -0.00000000000E+00  0.00000000000E+00  0.58786873433E+03  0.58786873433E+03  0.00000000000E+00 0.  1.
         21   -1    0    0  501  502  0.00000000000E+00 -0.00000000000E+00 -0.37636456115E+02  0.37636456115E+02  0.00000000000E+00 0. -1.
         21    1    1    2  503  502  0.43871383497E+02 -0.90499355574E+02  0.44687595390E+02  0.11005368159E+03  0.00000000000E+00 0. -1.
          2    1    1    2  501    0 -0.43871383497E+02  0.90499355574E+02  0.50554468283E+03  0.51545150886E+03  0.00000000000E+00 0.  1.
<mgrwt>
<rscale>  2 0.10057252E+03</rscale>
<asrwt>0</asrwt>
<pdfrwt beam="2">  1       21 0.57902244E-02 0.10057252E+03</pdfrwt>
<pdfrwt beam="1">  1        2 0.90441337E-01 0.10057252E+03</pdfrwt>
<totfact> 0.13370224E+05</totfact>
</mgrwt>
</event>
<event>
 4    1  0.5134057E+003  0.1262588E+03  0.7546771E-02  0.1233115E+00
         21   -1    0    0  503  502  0.00000000000E+00  0.00000000000E+00  0.19243013200E+03  0.19243013200E+03  0.00000000000E+00 0. -1.
          1   -1    0    0  502    0 -0.00000000000E+00 -0.00000000000E+00 -0.36508288313E+03  0.36508288313E+03  0.00000000000E+00 0.  1.
         21    1    1    2  503  501  0.73676452380E+02 -0.10253322722E+03  0.15877135998E+03  0.20285370854E+03  0.00000000000E+00 0. -1.
          1    1    1    2  501    0 -0.73676452380E+02  0.10253322722E+03 -0.33142411111E+03  0.35465930658E+03  0.00000000000E+00 0.  1.
<mgrwt>
<rscale>  2 0.12625879E+03</rscale>
<asrwt>0</asrwt>
<pdfrwt beam="1">  1       21 0.29604636E-01 0.12625879E+03</pdfrwt>
<pdfrwt beam="2">  1        1 0.56166597E-01 0.12625879E+03</pdfrwt>
<totfact> 0.83145156E+03</totfact>
</mgrwt>
</event>
<event>
 4    1  0.5134057E+003  0.1137348E+03  0.7546771E-02  0.1253806E+00
          2   -1    0    0  502    0 -0.00000000000E+00  0.00000000000E+00  0.65938837879E+03  0.65938837879E+03  0.00000000000E+00 0.  1.
         21   -1    0    0  503  502  0.00000000000E+00 -0.00000000000E+00 -0.26672821277E+02  0.26672821277E+02  0.00000000000E+00 0. -1.
         21    1    1    2  503  501  0.99744855001E+02  0.54649595832E+02  0.13993532956E+03  0.18032612368E+03  0.00000000000E+00 0. -1.
          2    1    1    2  501    0 -0.99744855001E+02 -0.54649595832E+02  0.49278022796E+03  0.50573507639E+03  0.00000000000E+00 0.  1.
<mgrwt>
<rscale>  2 0.11373484E+03</rscale>
<asrwt>0</asrwt>
<pdfrwt beam="2">  1       21 0.41035115E-02 0.11373484E+03</pdfrwt>
<pdfrwt beam="1">  1        2 0.10144435E+00 0.11373484E+03</pdfrwt>
<totfact> 0.20953245E+05</totfact>
</mgrwt>
</event>
<event>
 4    1  0.5134057E+003  0.1451540E+03  0.7546771E-02  0.1206557E+00
          1   -1    0    0  502    0 -0.00000000000E+00  0.00000000000E+00  0.29565394458E+03  0.29565394458E+03  0.00000000000E+00 0. -1.
         21   -1    0    0  503  502  0.00000000000E+00 -0.00000000000E+00 -0.10941991698E+03  0.10941991698E+03  0.00000000000E+00 0. -1.
         21    1    1    2  503  501 -0.14468278942E+03 -0.11687012814E+02 -0.26483454259E+02  0.14755022593E+03  0.00000000000E+00 0. -1.
          1    1    1    2  501    0  0.14468278942E+03  0.11687012814E+02  0.21271748186E+03  0.25752363563E+03  0.00000000000E+00 0. -1.
<mgrwt>
<rscale>  2 0.14515404E+03</rscale>
<asrwt>0</asrwt>
<pdfrwt beam="2">  1       21 0.16833833E-01 0.14515404E+03</pdfrwt>
<pdfrwt beam="1">  1        1 0.45485222E-01 0.14515404E+03</pdfrwt>
<totfact> 0.31030324E+04</totfact>
</mgrwt>
</event>
<event>
 4    1  0.5134057E+003  0.1173550E+03  0.7546771E-02  0.1247525E+00
         21   -1    0    0  501  502  0.00000000000E+00  0.00000000000E+00  0.71458023007E+02  0.71458023007E+02  0.00000000000E+00 0.  1.
          2   -1    0    0  503    0 -0.00000000000E+00 -0.00000000000E+00 -0.74918321611E+03  0.74918321611E+03  0.00000000000E+00 0. -1.
         21    1    1    2  503  502  0.82906465363E+02  0.83058473261E+02  0.14762577585E+02  0.11827986167E+03  0.00000000000E+00 0.  1.
          2    1    1    2  501    0 -0.82906465363E+02 -0.83058473261E+02 -0.69248777069E+03  0.70236137745E+03  0.00000000000E+00 0. -1.
<mgrwt>
<rscale>  2 0.11735498E+03</rscale>
<asrwt>0</asrwt>
<pdfrwt beam="1">  1       21 0.10993543E-01 0.11735498E+03</pdfrwt>
<pdfrwt beam="2">  1        2 0.11525895E+00 0.11735498E+03</pdfrwt>
<totfact> 0.33643293E+04</totfact>
</mgrwt>
</event>
<event>
 4    1  0.5134057E+003  0.1317195E+03  0.7546771E-02  0.1224926E+00
          1   -1    0    0  503    0 -0.00000000000E+00  0.00000000000E+00  0.44254401555E+02  0.44254401555E+02  0.00000000000E+00 0.  1.
         21   -1    0    0  501  502  0.00000000000E+00 -0.00000000000E+00 -0.62531155251E+03  0.62531155251E+03  0.00000000000E+00 0.  1.
         21    1    1    2  503  502 -0.12578820154E+03  0.39081245294E+02 -0.49500116482E+03  0.51222667692E+03  0.00000000000E+00 0.  1.
          1    1    1    2  501    0  0.12578820154E+03 -0.39081245294E+02 -0.86055986137E+02  0.15733927714E+03  0.00000000000E+00 0.  1.
<mgrwt>
<rscale>  2 0.13171946E+03</rscale>
<asrwt>0</asrwt>
<pdfrwt beam="2">  1       21 0.96201778E-01 0.13171946E+03</pdfrwt>
<pdfrwt beam="1">  1        1 0.68083694E-02 0.13171946E+03</pdfrwt>
<totfact> 0.10423291E+04</totfact>
</mgrwt>
</event>
<event>
 4    1  0.5134057E+003  0.1115306E+03  0.7546771E-02  0.1257761E+00
         21   -1    0    0  503  502  0.00000000000E+00  0.00000000000E+00  0.44905973837E+02  0.44905973837E+02  0.00000000000E+00 0. -1.
          2   -1    0    0  502    0 -0.00000000000E+00 -0.00000000000E+00 -0.17582129090E+04  0.17582129090E+04  0.00000000000E+00 0.  1.
         21    1    1    2  503  501 -0.97601906756E+02  0.53971728174E+02 -0.29155434660E+02  0.11527844124E+03  0.00000000000E+00 0. -1.
          2    1    1    2  501    0  0.97601906756E+02 -0.53971728174E+02 -0.16841515005E+04  0.16878404416E+04  0.00000000000E+00 0.  1.
<mgrwt>
<rscale>  2 0.11153062E+03</rscale>
<asrwt>0</asrwt>
<pdfrwt beam="1">  1       21 0.69086110E-02 0.11153062E+03</pdfrwt>
<pdfrwt beam="2">  1        2 0.27049431E+00 0.11153062E+03</pdfrwt>
<totfact> 0.20472001E+04</totfact>
</mgrwt>
</event>
<event>
 4    1  0.5134057E+003  0.1670938E+03  0.7546771E-02  0.1180913E+00
         21   -1    0    0  501  502  0.00000000000E+00  0.00000000000E+00  0.71230720277E+03  0.71230720277E+03  0.00000000000E+00 0.  1.
          2   -1    0    0  503    0 -0.00000000000E+00 -0.00000000000E+00 -0.74292674526E+03  0.74292674526E+03  0.00000000000E+00 0. -1.
         21    1    1    2  503  502 -0.11486742922E+03  0.12134995669E+03  0.69285246733E+03  0.71271654939E+03  0.00000000000E+00 0.  1.
          2    1    1    2  501    0  0.11486742922E+03 -0.12134995669E+03 -0.72347200983E+03  0.74251739864E+03  0.00000000000E+00 0. -1.
<mgrwt>
<rscale>  2 0.16709380E+03</rscale>
<asrwt>0</asrwt>
<pdfrwt beam="1">  1       21 0.10958572E+00 0.16709380E+03</pdfrwt>
<pdfrwt beam="2">  1        2 0.11429642E+00 0.16709380E+03</pdfrwt>
<totfact> 0.33090933E+02</totfact>
</mgrwt>
</event>
<event>
 4    1  0.5134057E+003  0.1461702E+03  0.7546771E-02  0.1205260E+00
         -1   -1    0    0    0  501 -0.00000000000E+00  0.00000000000E+00  0.24857048353E+03  0.24857048353E+03  0.00000000000E+00 0.  1.
         21   -1    0    0  503  502  0.00000000000E+00 -0.00000000000E+00 -0.11465181120E+03  0.11465181120E+03  0.00000000000E+00 0. -1.
         21    1    1    2  503  501 -0.12698746862E+03  0.72387274859E+02 -0.23900753217E+02  0.14811137955E+03  0.00000000000E+00 0. -1.
         -1    1    1    2    0  502  0.12698746862E+03 -0.72387274859E+02  0.15781942555E+03  0.21511091518E+03  0.00000000000E+00 0.  1.
<mgrwt>
<rscale>  2 0.14617023E+03</rscale>
<asrwt>0</asrwt>
<pdfrwt beam="2">  1       21 0.17638740E-01 0.14617023E+03</pdfrwt>
<pdfrwt beam="1">  1       -1 0.38241613E-01 0.14617023E+03</pdfrwt>
<totfact> 0.17934789E+04</totfact>
</mgrwt>
</event>
<event>
 4    1  0.5134057E+003  0.1503290E+03  0.7546771E-02  0.1200069E+00
          2   -1    0    0  503    0 -0.00000000000E+00  0.00000000000E+00  0.15509928423E+04  0.15509928423E+04  0.00000000000E+00 0. -1.
         21   -1    0    0  501  502  0.00000000000E+00 -0.00000000000E+00 -0.15190734507E+02  0.15190734507E+02  0.00000000000E+00 0.  1.
         21    1    1    2  503  502 -0.14618138480E+03  0.35068827181E+02  0.60967300191E+03  0.62793310883E+03  0.00000000000E+00 0.  1.
          2    1    1    2  501    0  0.14618138480E+03 -0.35068827181E+02  0.92612910590E+03  0.93825046800E+03  0.00000000000E+00 0. -1.
<mgrwt>
<rscale>  2 0.15032904E+03</rscale>
<asrwt>0</asrwt>
<pdfrwt beam="2">  1       21 0.23370373E-02 0.15032904E+03</pdfrwt>
<pdfrwt beam="1">  1        2 0.23861416E+00 0.15032904E+03</pdfrwt>
<totfact> 0.15761781E+05</totfact>
</mgrwt>
</event>
<event>
 4    1  0.5134057E+003  0.1014099E+03  0.7546771E-02  0.1277359E+00
          2   -1    0    0  503    0 -0.00000000000E+00  0.00000000000E+00  0.11679791355E+04  0.11679791355E+04  0.00000000000E+00 0. -1.
         21   -1    0    0  501  502  0.00000000000E+00 -0.00000000000E+00 -0.36578443802E+02  0.36578443802E+02  0.00000000000E+00 0. -1.
         21    1    1    2  503  502 -0.83417376967E+02  0.57667308606E+02  0.40892459602E+02  0.10934427518E+03  0.00000000000E+00 0. -1.
          2    1    1    2  501    0  0.83417376967E+02 -0.57667308606E+02  0.10905082321E+04  0.10952133041E+04  0.00000000000E+00 0. -1.
<mgrwt>
<rscale>  2 0.10140995E+03</rscale>
<asrwt>0</asrwt>
<pdfrwt beam="2">  1       21 0.56274538E-02 0.10140995E+03</pdfrwt>
<pdfrwt beam="1">  1        2 0.17968907E+00 0.10140995E+03</pdfrwt>
<totfact> 0.58943952E+04</totfact>
</mgrwt>
</event>
<event>
 4    1  0.5134057E+003  0.1352995E+03  0.7546771E-02  0.1219798E+00
          1   -1    0    0  502    0 -0.00000000000E+00  0.00000000000E+00  0.81268882380E+03  0.81268882380E+03  0.00000000000E+00 0.  1.
         21   -1    0    0  503  502  0.00000000000E+00 -0.00000000000E+00 -0.60401695340E+02  0.60401695340E+02  0.00000000000E+00 0. -1.
         21    1    1    2  503  501  0.11302624183E+03  0.74370873330E+02  0.30451230662E+02  0.13868394136E+03  0.00000000000E+00 0. -1.
          1    1    1    2  501    0 -0.11302624183E+03 -0.74370873330E+02  0.72183589780E+03  0.73440657778E+03  0.00000000000E+00 0.  1.
<mgrwt>
<rscale>  2 0.13529951E+03</rscale>
<asrwt>0</asrwt>
<pdfrwt beam="2">  1       21 0.92925691E-02 0.13529951E+03</pdfrwt>
<pdfrwt beam="1">  1        1 0.12502904E+00 0.13529951E+03</pdfrwt>
<totfact> 0.23414224E+04</totfact>
</mgrwt>
</event>
<event>
 4    1  0.5134057E+003  0.1116874E+03  0.7546771E-02  0.1257477E+00
         -2   -1    0    0    0  501 -0.00000000000E+00  0.00000000000E+00  0.72440376792E+03  0.72440376792E+03  0.00000000000E+00 0.  1.
         21   -1    0    0  503  502  0.00000000000E+00 -0.00000000000E+00 -0.23648917778E+02  0.23648917778E+02  0.00000000000E+00 0.  1.
         21    1    1    2  503  501  0.11055654836E+03 -0.15853361538E+02  0.15536034727E+03  0.19133979450E+03  0.00000000000E+00 0.  1.
         -2    1    1    2    0  502 -0.11055654836E+03  0.15853361538E+02  0.54539450288E+03  0.55671289120E+03  0.00000000000E+00 0.  1.
<mgrwt>
<rscale>  2 0.11168742E+03</rscale>
<asrwt>0</asrwt>
<pdfrwt beam="2">  1       21 0.36382956E-02 0.11168742E+03</pdfrwt>
<pdfrwt beam="1">  1       -2 0.11144672E+00 0.11168742E+03</pdfrwt>
<totfact> 0.24631783E+04</totfact>
</mgrwt>
</event>
<event>
 4    1  0.5134057E+003  0.1168533E+03  0.7546771E-02  0.1248380E+00
         -4   -1    0    0    0  501 -0.00000000000E+00  0.00000000000E+00  0.43897088595E+03  0.43897088595E+03  0.00000000000E+00 0.  1.
         21   -1    0    0  503  502  0.00000000000E+00 -0.00000000000E+00 -0.64156244390E+02  0.64156244390E+02  0.00000000000E+00 0.  1.
         21    1    1    2  503  501  0.88320792895E+00  0.11684996482E+03  0.68501982984E+01  0.11705391728E+03  0.00000000000E+00 0.  1.
         -4    1    1    2    0  502 -0.88320792895E+00 -0.11684996482E+03  0.36796444326E+03  0.38607321305E+03  0.00000000000E+00 0.  1.
<mgrwt>
<rscale>  2 0.11685330E+03</rscale>
<asrwt>0</asrwt>
<pdfrwt beam="2">  1       21 0.98701917E-02 0.11685330E+03</pdfrwt>
<pdfrwt beam="1">  1       -4 0.67533981E-01 0.11685330E+03</pdfrwt>
<totfact> 0.69325356E+03</totfact>
</mgrwt>
</event>
<event>
 4    1  0.5134057E+003  0.1057591E+03  0.7546771E-02  0.1268631E+00
         21   -1    0    0  501  502  0.00000000000E+00  0.00000000000E+00  0.14165745679E+03  0.14165745679E+03  0.00000000000E+00 0.  1.
          2   -1    0    0  503    0 -0.00000000000E+00 -0.00000000000E+00 -0.37910291949E+04  0.37910291949E+04  0.00000000000E+00 0. -1.
         21    1    1    2  503  502  0.84906470309E+02 -0.63054579252E+02  0.12107261530E+03  0.16075934449E+03  0.00000000000E+00 0.  1.
          2    1    1    2  501    0 -0.84906470309E+02  0.63054579252E+02 -0.37704443534E+04  0.37719273072E+04  0.00000000000E+00 0. -1.
<mgrwt>
<rscale>  2 0.10575911E+03</rscale>
<asrwt>0</asrwt>
<pdfrwt beam="1">  1       21 0.21793453E-01 0.10575911E+03</pdfrwt>
<pdfrwt beam="2">  1        2 0.58323530E+00 0.10575911E+03</pdfrwt>
<totfact> 0.18990276E+02</totfact>
</mgrwt>
</event>
<event>
 4    1  0.5134057E+003  0.1363138E+03  0.7546771E-02  0.1218377E+00
          2   -1    0    0  503    0 -0.00000000000E+00  0.00000000000E+00  0.12861473892E+04  0.12861473892E+04  0.00000000000E+00 0.  1.
         21   -1    0    0  501  502  0.00000000000E+00 -0.00000000000E+00 -0.93843915406E+02  0.93843915406E+02  0.00000000000E+00 0.  1.
         21    1    1    2  503  502  0.98107205771E+02 -0.94638418397E+02 -0.38512582600E+02  0.14164982555E+03  0.00000000000E+00 0.  1.
          2    1    1    2  501    0 -0.98107205771E+02  0.94638418397E+02  0.12308160564E+04  0.12383414790E+04  0.00000000000E+00 0.  1.
<mgrwt>
<rscale>  2 0.13631381E+03</rscale>
<asrwt>0</asrwt>
<pdfrwt beam="2">  1       21 0.14437526E-01 0.13631381E+03</pdfrwt>
<pdfrwt beam="1">  1        2 0.19786882E+00 0.13631381E+03</pdfrwt>
<totfact> 0.98221145E+03</totfact>
</mgrwt>
</event>
<event>
 4    1  0.5134057E+003  0.1109743E+03  0.7546771E-02  0.1258776E+00
         -1   -1    0    0    0  501 -0.00000000000E+00  0.00000000000E+00  0.91078911631E+02  0.91078911631E+02  0.00000000000E+00 0.  1.
         21   -1    0    0  503  502  0.00000000000E+00 -0.00000000000E+00 -0.24948608387E+03  0.24948608387E+03  0.00000000000E+00 0.  1.
         21    1    1    2  503  501  0.17280396793E+02  0.10962060500E+03 -0.19444641041E+03  0.22388545213E+03  0.00000000000E+00 0.  1.
         -1    1    1    2    0  502 -0.17280396793E+02 -0.10962060500E+03  0.36039238170E+02  0.11667954337E+03  0.00000000000E+00 0.  1.
<mgrwt>
<rscale>  2 0.11097427E+03</rscale>
<asrwt>0</asrwt>
<pdfrwt beam="2">  1       21 0.38382474E-01 0.11097427E+03</pdfrwt>
<pdfrwt beam="1">  1       -1 0.14012140E-01 0.11097427E+03</pdfrwt>
<totfact> 0.21037003E+04</totfact>
</mgrwt>
</event>
<event>
 4    1  0.5134057E+003  0.1209201E+03  0.7546771E-02  0.1241587E+00
         -4   -1    0    0    0  501 -0.00000000000E+00  0.00000000000E+00  0.30649904594E+03  0.30649904594E+03  0.00000000000E+00 0. -1.
         21   -1    0    0  503  502  0.00000000000E+00 -0.00000000000E+00 -0.60940681648E+02  0.60940681648E+02  0.00000000000E+00 0.  1.
         21    1    1    2  503  501  0.12087324009E+03  0.33664850793E+01  0.37160543985E+02  0.12650130205E+03  0.00000000000E+00 0.  1.
         -4    1    1    2    0  502 -0.12087324009E+03 -0.33664850793E+01  0.20839782031E+03  0.24093842554E+03  0.00000000000E+00 0. -1.
<mgrwt>
<rscale>  2 0.12092011E+03</rscale>
<asrwt>0</asrwt>
<pdfrwt beam="2">  1       21 0.93754897E-02 0.12092011E+03</pdfrwt>
<pdfrwt beam="1">  1       -4 0.47153698E-01 0.12092011E+03</pdfrwt>
<totfact> 0.16018046E+04</totfact>
</mgrwt>
</event>
<event>
 4    1  0.5134057E+003  0.1385746E+03  0.7546771E-02  0.1215260E+00
         21   -1    0    0  503  502  0.00000000000E+00  0.00000000000E+00  0.10891394115E+04  0.10891394115E+04  0.00000000000E+00 0.  1.
          4   -1    0    0  502    0 -0.00000000000E+00 -0.00000000000E+00 -0.47595245787E+02  0.47595245787E+02  0.00000000000E+00 0.  1.
         21    1    1    2  503  501  0.11417118525E+03 -0.78535671635E+02  0.97174144280E+03  0.98157238292E+03  0.00000000000E+00 0.  1.
          4    1    1    2  501    0 -0.11417118525E+03  0.78535671635E+02  0.69802722910E+02  0.15516227436E+03  0.00000000000E+00 0.  1.
<mgrwt>
<rscale>  2 0.13857457E+03</rscale>
<asrwt>0</asrwt>
<pdfrwt beam="1">  1       21 0.16755989E+00 0.13857457E+03</pdfrwt>
<pdfrwt beam="2">  1        4 0.73223463E-02 0.13857457E+03</pdfrwt>
<totfact> 0.12016791E+03</totfact>
</mgrwt>
</event>
<event>
 4    1  0.5134057E+003  0.1331056E+03  0.7546771E-02  0.1222919E+00
         -2   -1    0    0    0  501 -0.00000000000E+00  0.00000000000E+00  0.61647675822E+03  0.61647675822E+03  0.00000000000E+00 0. -1.
         21   -1    0    0  501  502  0.00000000000E+00 -0.00000000000E+00 -0.82706672656E+02  0.82706672656E+02  0.00000000000E+00 0.  1.
         21    1    1    2  503  502  0.43606950723E+02 -0.12575979386E+03 -0.15509706065E+02  0.13400613003E+03  0.00000000000E+00 0.  1.
         -2    1    1    2    0  503 -0.43606950723E+02  0.12575979386E+03  0.54927979163E+03  0.56517730085E+03  0.00000000000E+00 0. -1.
<mgrwt>
<rscale>  2 0.13310557E+03</rscale>
<asrwt>0</asrwt>
<pdfrwt beam="2">  1       21 0.12724104E-01 0.13310557E+03</pdfrwt>
<pdfrwt beam="1">  1       -2 0.94842575E-01 0.13310557E+03</pdfrwt>
<totfact> 0.42270331E+03</totfact>
</mgrwt>
</event>
<event>
 4    1  0.5134057E+003  0.1393671E+03  0.7546771E-02  0.1214183E+00
         21   -1    0    0  501  502  0.00000000000E+00  0.00000000000E+00  0.20270292438E+02  0.20270292438E+02  0.00000000000E+00 0.  1.
          1   -1    0    0  503    0 -0.00000000000E+00 -0.00000000000E+00 -0.22592128323E+04  0.22592128323E+04  0.00000000000E+00 0.  1.
         21    1    1    2  503  502  0.12204360754E+03  0.67294484303E+02 -0.25456908821E+03  0.29022165741E+03  0.00000000000E+00 0.  1.
          1    1    1    2  501    0 -0.12204360754E+03 -0.67294484303E+02 -0.19843734516E+04  0.19892614673E+04  0.00000000000E+00 0.  1.
<mgrwt>
<rscale>  2 0.13936710E+03</rscale>
<asrwt>0</asrwt>
<pdfrwt beam="1">  1       21 0.31185084E-02 0.13936710E+03</pdfrwt>
<pdfrwt beam="2">  1        1 0.34757100E+00 0.13936710E+03</pdfrwt>
<totfact> 0.15904314E+04</totfact>
</mgrwt>
</event>
<event>
 4    1  0.5134057E+003  0.2052179E+03  0.7546771E-02  0.1145410E+00
          2   -1    0    0  503    0 -0.00000000000E+00  0.00000000000E+00  0.19597836375E+04  0.19597836375E+04  0.00000000000E+00 0. -1.
         21   -1    0    0  501  502  0.00000000000E+00 -0.00000000000E+00 -0.23742436766E+02  0.23742436766E+02  0.00000000000E+00 0. -1.
         21    1    1    2  503  502 -0.78049742849E+02 -0.18979626389E+03  0.66250121364E+03  0.69355767043E+03  0.00000000000E+00 0. -1.
          2    1    1    2  501    0  0.78049742849E+02  0.18979626389E+03  0.12735399871E+04  0.12899684038E+04  0.00000000000E+00 0. -1.
<mgrwt>
<rscale>  2 0.20521789E+03</rscale>
<asrwt>0</asrwt>
<pdfrwt beam="2">  1       21 0.36526841E-02 0.20521789E+03</pdfrwt>
<pdfrwt beam="1">  1        2 0.30150505E+00 0.20521789E+03</pdfrwt>
<totfact> 0.45974576E+04</totfact>
</mgrwt>
</event>
<event>
 4    1  0.5134057E+003  0.1128032E+03  0.7546771E-02  0.1255465E+00
         21   -1    0    0  501  502  0.00000000000E+00  0.00000000000E+00  0.30876204351E+02  0.30876204351E+02  0.00000000000E+00 0.  1.
          2   -1    0    0  503    0 -0.00000000000E+00 -0.00000000000E+00 -0.46615496518E+03  0.46615496518E+03  0.00000000000E+00 0.  1.
         21    1    1    2  503  502  0.11065384962E+03  0.21915663774E+02 -0.13302524812E+03  0.17441412612E+03  0.00000000000E+00 0.  1.
          2    1    1    2  501    0 -0.11065384962E+03 -0.21915663774E+02 -0.30225351271E+03  0.32261704341E+03  0.00000000000E+00 0.  1.
<mgrwt>
<rscale>  2 0.11280324E+03</rscale>
<asrwt>0</asrwt>
<pdfrwt beam="1">  1       21 0.47501852E-02 0.11280324E+03</pdfrwt>
<pdfrwt beam="2">  1        2 0.71716150E-01 0.11280324E+03</pdfrwt>
<totfact> 0.24153096E+05</totfact>
</mgrwt>
</event>
<event>
 4    1  0.5134057E+003  0.1314306E+03  0.7546771E-02  0.1225348E+00
         21   -1    0    0  503  502  0.00000000000E+00  0.00000000000E+00  0.45689505863E+02  0.45689505863E+02  0.00000000000E+00 0.  1.
          2   -1    0    0  502    0 -0.00000000000E+00 -0.00000000000E+00 -0.31709792328E+04  0.31709792328E+04  0.00000000000E+00 0. -1.
         21    1    1    2  503  501  0.12556761870E+03 -0.38817120807E+02 -0.53232944059E+02  0.14180177033E+03  0.00000000000E+00 0.  1.
          2    1    1    2  501    0 -0.12556761870E+03  0.38817120807E+02 -0.30720567829E+04  0.30748669684E+04  0.00000000000E+00 0. -1.
<mgrwt>
<rscale>  2 0.13143057E+03</rscale>
<asrwt>0</asrwt>
<pdfrwt beam="1">  1       21 0.70291565E-02 0.13143057E+03</pdfrwt>
<pdfrwt beam="2">  1        2 0.48784284E+00 0.13143057E+03</pdfrwt>
<totfact> 0.34210611E+03</totfact>
</mgrwt>
</event>
<event>
 4    1  0.5134057E+003  0.1090245E+03  0.7546771E-02  0.1262387E+00
         -4   -1    0    0    0  501 -0.00000000000E+00  0.00000000000E+00  0.18871569695E+02  0.18871569695E+02  0.00000000000E+00 0. -1.
         21   -1    0    0  501  502  0.00000000000E+00 -0.00000000000E+00 -0.76852580780E+03  0.76852580780E+03  0.00000000000E+00 0. -1.
         21    1    1    2  503  502  0.10688895794E+03  0.21473226306E+02 -0.54206227305E+03  0.55291758576E+03  0.00000000000E+00 0. -1.
         -4    1    1    2    0  503 -0.10688895794E+03 -0.21473226306E+02 -0.20759196506E+03  0.23447979174E+03  0.00000000000E+00 0. -1.
<mgrwt>
<rscale>  2 0.10902453E+03</rscale>
<asrwt>0</asrwt>
<pdfrwt beam="2">  1       21 0.11823475E+00 0.10902453E+03</pdfrwt>
<pdfrwt beam="1">  1       -4 0.29033181E-02 0.10902453E+03</pdfrwt>
<totfact> 0.12710519E+04</totfact>
</mgrwt>
</event>
<event>
 4    1  0.5134057E+003  0.1001130E+03  0.7546771E-02  0.1280059E+00
         21   -1    0    0  501  502  0.00000000000E+00  0.00000000000E+00  0.13408692873E+02  0.13408692873E+02  0.00000000000E+00 0. -1.
          2   -1    0    0  503    0 -0.00000000000E+00 -0.00000000000E+00 -0.12088518775E+04  0.12088518775E+04  0.00000000000E+00 0. -1.
         21    1    1    2  503  502  0.41076848940E+02  0.91297847480E+02 -0.22016920719E+03  0.24186170484E+03  0.00000000000E+00 0. -1.
          2    1    1    2  501    0 -0.41076848940E+02 -0.91297847480E+02 -0.97527397748E+03  0.98039886557E+03  0.00000000000E+00 0. -1.
<mgrwt>
<rscale>  2 0.10011296E+03</rscale>
<asrwt>0</asrwt>
<pdfrwt beam="1">  1       21 0.20628754E-02 0.10011296E+03</pdfrwt>
<pdfrwt beam="2">  1        2 0.18597725E+00 0.10011296E+03</pdfrwt>
<totfact> 0.29030025E+05</totfact>
</mgrwt>
</event>
<event>
 4    1  0.5134057E+003  0.1211323E+03  0.7546771E-02  0.1241241E+00
         21   -1    0    0  501  502  0.00000000000E+00  0.00000000000E+00  0.92530395786E+02  0.92530395786E+02  0.00000000000E+00 0. -1.
          2   -1    0    0  503    0 -0.00000000000E+00 -0.00000000000E+00 -0.61932708856E+03  0.61932708856E+03  0.00000000000E+00 0. -1.
         21    1    1    2  503  502 -0.30992440090E+02  0.11710039948E+03  0.43600355167E+02  0.12874014864E+03  0.00000000000E+00 0. -1.
          2    1    1    2  501    0  0.30992440090E+02 -0.11710039948E+03 -0.57039704794E+03  0.58311733570E+03  0.00000000000E+00 0. -1.
<mgrwt>
<rscale>  2 0.12113230E+03</rscale>
<asrwt>0</asrwt>
<pdfrwt beam="1">  1       21 0.14235445E-01 0.12113230E+03</pdfrwt>
<pdfrwt beam="2">  1        2 0.95281092E-01 0.12113230E+03</pdfrwt>
<totfact> 0.26581425E+04</totfact>
</mgrwt>
</event>
<event>
 4    1  0.5134057E+003  0.1038590E+03  0.7546771E-02  0.1272384E+00
          1   -1    0    0  502    0 -0.00000000000E+00  0.00000000000E+00  0.78249200007E+03  0.78249200007E+03  0.00000000000E+00 0.  1.
         21   -1    0    0  503  502  0.00000000000E+00 -0.00000000000E+00 -0.40610168463E+02  0.40610168463E+02  0.00000000000E+00 0.  1.
         21    1    1    2  503  501 -0.94776229529E+02 -0.42475395360E+02  0.36455518130E+02  0.11007133004E+03  0.00000000000E+00 0.  1.
          1    1    1    2  501    0  0.94776229529E+02  0.42475395360E+02  0.70542631348E+03  0.71303083850E+03  0.00000000000E+00 0.  1.
<mgrwt>
<rscale>  2 0.10385900E+03</rscale>
<asrwt>0</asrwt>
<pdfrwt beam="2">  1       21 0.62477188E-02 0.10385900E+03</pdfrwt>
<pdfrwt beam="1">  1        1 0.12038337E+00 0.10385900E+03</pdfrwt>
<totfact> 0.49048006E+04</totfact>
</mgrwt>
</event>
<event>
 4    1  0.5134057E+003  0.1375832E+03  0.7546771E-02  0.1216618E+00
         21   -1    0    0  501  502  0.00000000000E+00  0.00000000000E+00  0.47614751064E+02  0.47614751064E+02  0.00000000000E+00 0.  1.
          1   -1    0    0  503    0 -0.00000000000E+00 -0.00000000000E+00 -0.43374099558E+03  0.43374099558E+03  0.00000000000E+00 0. -1.
         21    1    1    2  503  502  0.93290999739E+01  0.13726654554E+03 -0.12353912083E+03  0.18490822320E+03  0.00000000000E+00 0.  1.
          1    1    1    2  501    0 -0.93290999739E+01 -0.13726654554E+03 -0.26258712369E+03  0.29644752344E+03  0.00000000000E+00 0. -1.
<mgrwt>
<rscale>  2 0.13758320E+03</rscale>
<asrwt>0</asrwt>
<pdfrwt beam="1">  1       21 0.73253463E-02 0.13758320E+03</pdfrwt>
<pdfrwt beam="2">  1        1 0.66729384E-01 0.13758320E+03</pdfrwt>
<totfact> 0.83526653E+04</totfact>
</mgrwt>
</event>
<event>
 4    1  0.5134057E+003  0.1089911E+03  0.7546771E-02  0.1262450E+00
         21   -1    0    0  503  502  0.00000000000E+00  0.00000000000E+00  0.29622454107E+03  0.29622454107E+03  0.00000000000E+00 0.  1.
         -2   -1    0    0    0  501 -0.00000000000E+00 -0.00000000000E+00 -0.23198718392E+03  0.23198718392E+03  0.00000000000E+00 0.  1.
         21    1    1    2  503  501  0.86622995467E+02 -0.66147707772E+02  0.27231551226E+03  0.29331689485E+03  0.00000000000E+00 0.  1.
         -2    1    1    2    0  502 -0.86622995467E+02  0.66147707772E+02 -0.20807815511E+03  0.23489483013E+03  0.00000000000E+00 0.  1.
<mgrwt>
<rscale>  2 0.10899111E+03</rscale>
<asrwt>0</asrwt>
<pdfrwt beam="1">  1       21 0.45573006E-01 0.10899111E+03</pdfrwt>
<pdfrwt beam="2">  1       -2 0.35690336E-01 0.10899111E+03</pdfrwt>
<totfact> 0.28137925E+03</totfact>
</mgrwt>
</event>
<event>
 4    1  0.5134057E+003  0.1382004E+03  0.7546771E-02  0.1215771E+00
         21   -1    0    0  501  502  0.00000000000E+00  0.00000000000E+00  0.25084541565E+02  0.25084541565E+02  0.00000000000E+00 0. -1.
          1   -1    0    0  503    0 -0.00000000000E+00 -0.00000000000E+00 -0.11390127409E+04  0.11390127409E+04  0.00000000000E+00 0.  1.
         21    1    1    2  503  502 -0.13643496105E+03  0.22019408207E+02 -0.22182993897E+03  0.26135775243E+03  0.00000000000E+00 0. -1.
          1    1    1    2  501    0  0.13643496105E+03 -0.22019408207E+02 -0.89209826035E+03  0.90273953002E+03  0.00000000000E+00 0.  1.
<mgrwt>
<rscale>  2 0.13820041E+03</rscale>
<asrwt>0</asrwt>
<pdfrwt beam="1">  1       21 0.38591611E-02 0.13820041E+03</pdfrwt>
<pdfrwt beam="2">  1        1 0.17523269E+00 0.13820041E+03</pdfrwt>
<totfact> 0.59564025E+04</totfact>
</mgrwt>
</event>
<event>
 4    1  0.5134057E+003  0.1401350E+03  0.7546771E-02  0.1213147E+00
         -1   -1    0    0    0  501 -0.00000000000E+00  0.00000000000E+00  0.32014061615E+03  0.32014061615E+03  0.00000000000E+00 0.  1.
         21   -1    0    0  503  502  0.00000000000E+00 -0.00000000000E+00 -0.91090170199E+02  0.91090170199E+02  0.00000000000E+00 0.  1.
         21    1    1    2  503  501 -0.10801229707E+03  0.89281410046E+02 -0.29795343549E+01  0.14016670120E+03  0.00000000000E+00 0.  1.
         -1    1    1    2    0  502  0.10801229707E+03 -0.89281410046E+02  0.23202998031E+03  0.27106408515E+03  0.00000000000E+00 0.  1.
<mgrwt>
<rscale>  2 0.14013503E+03</rscale>
<asrwt>0</asrwt>
<pdfrwt beam="2">  1       21 0.14013872E-01 0.14013503E+03</pdfrwt>
<pdfrwt beam="1">  1       -1 0.49252402E-01 0.14013503E+03</pdfrwt>
<totfact> 0.17346970E+04</totfact>
</mgrwt>
</event>
<event>
 4    1  0.5134057E+003  0.1435527E+03  0.7546771E-02  0.1208627E+00
         21   -1    0    0  501  502  0.00000000000E+00  0.00000000000E+00  0.15070304093E+04  0.15070304093E+04  0.00000000000E+00 0. -1.
          2   -1    0    0  503    0 -0.00000000000E+00 -0.00000000000E+00 -0.88453687408E+02  0.88453687408E+02  0.00000000000E+00 0. -1.
         21    1    1    2  503  502 -0.92315779994E+02  0.10993254966E+03  0.14427812079E+04  0.14499051633E+04  0.00000000000E+00 0. -1.
          2    1    1    2  501    0  0.92315779994E+02 -0.10993254966E+03 -0.24204486003E+02  0.14557893341E+03  0.00000000000E+00 0. -1.
<mgrwt>
<rscale>  2 0.14355267E+03</rscale>
<asrwt>0</asrwt>
<pdfrwt beam="1">  1       21 0.23185081E+00 0.14355267E+03</pdfrwt>
<pdfrwt beam="2">  1        2 0.13608261E-01 0.14355267E+03</pdfrwt>
<totfact> 0.47497393E+02</totfact>
</mgrwt>
</event>
<event>
 4    1  0.5134057E+003  0.1489884E+03  0.7546771E-02  0.1201722E+00
         21   -1    0    0  503  502  0.00000000000E+00  0.00000000000E+00  0.35253797335E+03  0.35253797335E+03  0.00000000000E+00 0. -1.
         -1   -1    0    0    0  501 -0.00000000000E+00 -0.00000000000E+00 -0.40098761719E+03  0.40098761719E+03  0.00000000000E+00 0.  1.
         21    1    1    2  503  501  0.11619914291E+03 -0.93248651347E+02  0.32169497133E+03  0.35452109440E+03  0.00000000000E+00 0. -1.
         -1    1    1    2    0  502 -0.11619914291E+03  0.93248651347E+02 -0.37014461517E+03  0.39900449613E+03  0.00000000000E+00 0.  1.
<mgrwt>
<rscale>  2 0.14898843E+03</rscale>
<asrwt>0</asrwt>
<pdfrwt beam="1">  1       21 0.54236612E-01 0.14898843E+03</pdfrwt>
<pdfrwt beam="2">  1       -1 0.61690402E-01 0.14898843E+03</pdfrwt>
<totfact> 0.83886037E+02</totfact>
</mgrwt>
</event>
<event>
 4    1  0.5134057E+003  0.1374015E+03  0.7546771E-02  0.1216869E+00
          2   -1    0    0  503    0 -0.00000000000E+00  0.00000000000E+00  0.12306765469E+04  0.12306765469E+04  0.00000000000E+00 0. -1.
         21   -1    0    0  501  502  0.00000000000E+00 -0.00000000000E+00 -0.35494499506E+02  0.35494499506E+02  0.00000000000E+00 0. -1.
         21    1    1    2  503  502  0.91345028023E+02 -0.10264144358E+03  0.12054245840E+03  0.18278310743E+03  0.00000000000E+00 0. -1.
          2    1    1    2  501    0 -0.91345028023E+02  0.10264144358E+03  0.10746395890E+04  0.10833879390E+04  0.00000000000E+00 0. -1.
<mgrwt>
<rscale>  2 0.13740153E+03</rscale>
<asrwt>0</asrwt>
<pdfrwt beam="2">  1       21 0.54606932E-02 0.13740153E+03</pdfrwt>
<pdfrwt beam="1">  1        2 0.18933482E+00 0.13740153E+03</pdfrwt>
<totfact> 0.57167935E+04</totfact>
</mgrwt>
</event>
<event>
 4    1  0.5134057E+003  0.1122198E+03  0.7546771E-02  0.1256513E+00
         21   -1    0    0  501  502  0.00000000000E+00  0.00000000000E+00  0.50014194279E+02  0.50014194279E+02  0.00000000000E+00 0.  1.
          2   -1    0    0  503    0 -0.00000000000E+00 -0.00000000000E+00 -0.36862699129E+03  0.36862699129E+03  0.00000000000E+00 0.  1.
         21    1    1    2  503  502 -0.76729856079E+02  0.81889089349E+02 -0.41464317050E+02  0.11963520952E+03  0.00000000000E+00 0.  1.
          2    1    1    2  501    0  0.76729856079E+02 -0.81889089349E+02 -0.27714847996E+03  0.29900597605E+03  0.00000000000E+00 0.  1.
<mgrwt>
<rscale>  2 0.11221985E+03</rscale>
<asrwt>0</asrwt>
<pdfrwt beam="1">  1       21 0.76944912E-02 0.11221985E+03</pdfrwt>
<pdfrwt beam="2">  1        2 0.56711847E-01 0.11221985E+03</pdfrwt>
<totfact> 0.13718038E+05</totfact>
</mgrwt>
</event>
<event>
 4    1  0.5134057E+003  0.1045449E+03  0.7546771E-02  0.1271019E+00
          2   -1    0    0  502    0 -0.00000000000E+00  0.00000000000E+00  0.33124098391E+04  0.33124098391E+04  0.00000000000E+00 0.  1.
         21   -1    0    0  503  502  0.00000000000E+00 -0.00000000000E+00 -0.10532588287E+02  0.10532588287E+02  0.00000000000E+00 0.  1.
         21    1    1    2  503  501  0.45843985520E+02 -0.93957288949E+02  0.27409694037E+03  0.29335776089E+03  0.00000000000E+00 0.  1.
          2    1    1    2  501    0 -0.45843985520E+02  0.93957288949E+02  0.30277803104E+04  0.30295846664E+04  0.00000000000E+00 0.  1.
<mgrwt>
<rscale>  2 0.10454493E+03</rscale>
<asrwt>0</asrwt>
<pdfrwt beam="2">  1       21 0.16204008E-02 0.10454493E+03</pdfrwt>
<pdfrwt beam="1">  1        2 0.50960068E+00 0.10454493E+03</pdfrwt>
<totfact> 0.32188340E+04</totfact>
</mgrwt>
</event>
<event>
 4    1  0.5134057E+003  0.1012613E+03  0.7546771E-02  0.1277666E+00
         -2   -1    0    0    0  501 -0.00000000000E+00  0.00000000000E+00  0.85454580656E+02  0.85454580656E+02  0.00000000000E+00 0. -1.
         21   -1    0    0  501  502  0.00000000000E+00 -0.00000000000E+00 -0.20649017357E+03  0.20649017357E+03  0.00000000000E+00 0. -1.
         21    1    1    2  503  502 -0.82705662740E+02  0.58426237196E+02 -0.15499453046E+03  0.18514090935E+03  0.00000000000E+00 0. -1.
         -2    1    1    2    0  503  0.82705662740E+02 -0.58426237196E+02  0.33958937541E+02  0.10680384488E+03  0.00000000000E+00 0. -1.
<mgrwt>
<rscale>  2 0.10126130E+03</rscale>
<asrwt>0</asrwt>
<pdfrwt beam="2">  1       21 0.31767719E-01 0.10126130E+03</pdfrwt>
<pdfrwt beam="1">  1       -2 0.13146859E-01 0.10126130E+03</pdfrwt>
<totfact> 0.31587262E+04</totfact>
</mgrwt>
</event>
<event>
 4    1  0.5134057E+003  0.1627540E+03  0.7546771E-02  0.1185622E+00
         21   -1    0    0  503  502  0.00000000000E+00  0.00000000000E+00  0.71490069608E+02  0.71490069608E+02  0.00000000000E+00 0.  1.
         -2   -1    0    0    0  501 -0.00000000000E+00 -0.00000000000E+00 -0.79942937317E+03  0.79942937317E+03  0.00000000000E+00 0.  1.
         21    1    1    2  503  501  0.16260115113E+03 -0.70523872196E+01 -0.45008281406E+02  0.16886271321E+03  0.00000000000E+00 0.  1.
         -2    1    1    2    0  502 -0.16260115113E+03  0.70523872196E+01 -0.68293102215E+03  0.70205672957E+03  0.00000000000E+00 0.  1.
<mgrwt>
<rscale>  2 0.16275402E+03</rscale>
<asrwt>0</asrwt>
<pdfrwt beam="1">  1       21 0.10998472E-01 0.16275402E+03</pdfrwt>
<pdfrwt beam="2">  1       -2 0.12298914E+00 0.16275402E+03</pdfrwt>
<totfact> 0.29664565E+03</totfact>
</mgrwt>
</event>
<event>
 4    1  0.5134057E+003  0.1383475E+03  0.7546771E-02  0.1215570E+00
          2   -1    0    0  503    0 -0.00000000000E+00  0.00000000000E+00  0.71639211684E+03  0.71639211684E+03  0.00000000000E+00 0. -1.
         21   -1    0    0  501  502  0.00000000000E+00 -0.00000000000E+00 -0.61385147004E+02  0.61385147004E+02  0.00000000000E+00 0. -1.
         21    1    1    2  503  502  0.82225780540E+02 -0.11126079932E+03  0.35251683670E+02  0.14276808345E+03  0.00000000000E+00 0. -1.
          2    1    1    2  501    0 -0.82225780540E+02  0.11126079932E+03  0.61975528616E+03  0.63500918039E+03  0.00000000000E+00 0. -1.
<mgrwt>
<rscale>  2 0.13834755E+03</rscale>
<asrwt>0</asrwt>
<pdfrwt beam="2">  1       21 0.94438693E-02 0.13834755E+03</pdfrwt>
<pdfrwt beam="1">  1        2 0.11021417E+00 0.13834755E+03</pdfrwt>
<totfact> 0.46289662E+04</totfact>
</mgrwt>
</event>
<event>
 4    1  0.5134057E+003  0.1546394E+03  0.7546771E-02  0.1194885E+00
         21   -1    0    0  501  502  0.00000000000E+00  0.00000000000E+00  0.16762636957E+02  0.16762636957E+02  0.00000000000E+00 0. -1.
          2   -1    0    0  503    0 -0.00000000000E+00 -0.00000000000E+00 -0.14365717408E+04  0.14365717408E+04  0.00000000000E+00 0. -1.
         21    1    1    2  503  502  0.14171156146E+03 -0.61896622660E+02 -0.77048634644E+03  0.78585149271E+03  0.00000000000E+00 0. -1.
          2    1    1    2  501    0 -0.14171156146E+03  0.61896622660E+02 -0.64932275744E+03  0.66748288508E+03  0.00000000000E+00 0. -1.
<mgrwt>
<rscale>  2 0.15463945E+03</rscale>
<asrwt>0</asrwt>
<pdfrwt beam="1">  1       21 0.25788679E-02 0.15463945E+03</pdfrwt>
<pdfrwt beam="2">  1        2 0.22101098E+00 0.15463945E+03</pdfrwt>
<totfact> 0.15410114E+05</totfact>
</mgrwt>
</event>
<event>
 4    1  0.5134057E+003  0.1055574E+03  0.7546771E-02  0.1269025E+00
          1   -1    0    0  503    0 -0.00000000000E+00  0.00000000000E+00  0.11261196106E+04  0.11261196106E+04  0.00000000000E+00 0.  1.
         21   -1    0    0  501  502  0.00000000000E+00 -0.00000000000E+00 -0.13769967067E+02  0.13769967067E+02  0.00000000000E+00 0. -1.
         21    1    1    2  503  502  0.56881308284E+01  0.10540401490E+03  0.25381100462E+03  0.27488613508E+03  0.00000000000E+00 0. -1.
          1    1    1    2  501    0 -0.56881308284E+01 -0.10540401490E+03  0.85853863890E+03  0.86500344258E+03  0.00000000000E+00 0.  1.
<mgrwt>
<rscale>  2 0.10555738E+03</rscale>
<asrwt>0</asrwt>
<pdfrwt beam="2">  1       21 0.21184574E-02 0.10555738E+03</pdfrwt>
<pdfrwt beam="1">  1        1 0.17324910E+00 0.10555738E+03</pdfrwt>
<totfact> 0.16157566E+05</totfact>
</mgrwt>
</event>
<event>
 4    1  0.5134057E+003  0.1212599E+03  0.7546771E-02  0.1241033E+00
         21   -1    0    0  503  502  0.00000000000E+00  0.00000000000E+00  0.21766142922E+03  0.21766142922E+03  0.00000000000E+00 0. -1.
          2   -1    0    0  502    0 -0.00000000000E+00 -0.00000000000E+00 -0.12609223526E+04  0.12609223526E+04  0.00000000000E+00 0. -1.
         21    1    1    2  503  501 -0.27043530040E+02  0.11820577576E+03  0.19758494273E+03  0.23182702071E+03  0.00000000000E+00 0. -1.
          2    1    1    2  501    0  0.27043530040E+02 -0.11820577576E+03 -0.12408458661E+04  0.12467567611E+04  0.00000000000E+00 0. -1.
<mgrwt>
<rscale>  2 0.12125988E+03</rscale>
<asrwt>0</asrwt>
<pdfrwt beam="1">  1       21 0.33486373E-01 0.12125988E+03</pdfrwt>
<pdfrwt beam="2">  1        2 0.19398806E+00 0.12125988E+03</pdfrwt>
<totfact> 0.21228268E+03</totfact>
</mgrwt>
</event>
<event>
 4    1  0.5134057E+003  0.1149551E+03  0.7546771E-02  0.1251659E+00
          2   -1    0    0  502    0 -0.00000000000E+00  0.00000000000E+00  0.22240130886E+04  0.22240130886E+04  0.00000000000E+00 0. -1.
         21   -1    0    0  503  502  0.00000000000E+00 -0.00000000000E+00 -0.42130897814E+02  0.42130897814E+02  0.00000000000E+00 0.  1.
         21    1    1    2  503  501  0.63539780382E+02 -0.95798609741E+02  0.40804173772E+02  0.12198220328E+03  0.00000000000E+00 0.  1.
          2    1    1    2  501    0 -0.63539780382E+02  0.95798609741E+02  0.21410780170E+04  0.21441617832E+04  0.00000000000E+00 0. -1.
<mgrwt>
<rscale>  2 0.11495511E+03</rscale>
<asrwt>0</asrwt>
<pdfrwt beam="2">  1       21 0.64816783E-02 0.11495511E+03</pdfrwt>
<pdfrwt beam="1">  1        2 0.34215577E+00 0.11495511E+03</pdfrwt>
<totfact> 0.13199652E+04</totfact>
</mgrwt>
</event>
<event>
 4    1  0.5134057E+003  0.1191524E+03  0.7546771E-02  0.1244502E+00
          2   -1    0    0  502    0 -0.00000000000E+00  0.00000000000E+00  0.17615401051E+04  0.17615401051E+04  0.00000000000E+00 0.  1.
         21   -1    0    0  503  502  0.00000000000E+00 -0.00000000000E+00 -0.47461111320E+02  0.47461111320E+02  0.00000000000E+00 0.  1.
         21    1    1    2  503  501  0.88883437559E+02 -0.79353875799E+02  0.32908271854E+02  0.12361333841E+03  0.00000000000E+00 0.  1.
          2    1    1    2  501    0 -0.88883437559E+02  0.79353875799E+02  0.16811707219E+04  0.16853878780E+04  0.00000000000E+00 0.  1.
<mgrwt>
<rscale>  2 0.11915244E+03</rscale>
<asrwt>0</asrwt>
<pdfrwt beam="2">  1       21 0.73017108E-02 0.11915244E+03</pdfrwt>
<pdfrwt beam="1">  1        2 0.27100612E+00 0.11915244E+03</pdfrwt>
<totfact> 0.18495186E+04</totfact>
</mgrwt>
</event>
<event>
 4    1  0.5134057E+003  0.1188234E+03  0.7546771E-02  0.1245051E+00
         21   -1    0    0  501  502  0.00000000000E+00  0.00000000000E+00  0.81817068039E+03  0.81817068039E+03  0.00000000000E+00 0. -1.
          2   -1    0    0  503    0 -0.00000000000E+00 -0.00000000000E+00 -0.56299729373E+03  0.56299729373E+03  0.00000000000E+00 0. -1.
         21    1    1    2  503  502 -0.11660498557E+03 -0.22853427627E+02  0.80750454332E+03  0.81620009146E+03  0.00000000000E+00 0. -1.
          2    1    1    2  501    0  0.11660498557E+03  0.22853427627E+02 -0.55233115666E+03  0.56496788265E+03  0.00000000000E+00 0. -1.
<mgrwt>
<rscale>  2 0.11882341E+03</rscale>
<asrwt>0</asrwt>
<pdfrwt beam="1">  1       21 0.12587241E+00 0.11882341E+03</pdfrwt>
<pdfrwt beam="2">  1        2 0.86614969E-01 0.11882341E+03</pdfrwt>
<totfact> 0.34174358E+02</totfact>
</mgrwt>
</event>
<event>
 4    1  0.5134057E+003  0.1674908E+03  0.7546771E-02  0.1180490E+00
          2   -1    0    0  503    0 -0.00000000000E+00  0.00000000000E+00  0.20234190393E+04  0.20234190393E+04  0.00000000000E+00 0.  1.
         21   -1    0    0  501  502  0.00000000000E+00 -0.00000000000E+00 -0.44438132836E+02  0.44438132836E+02  0.00000000000E+00 0.  1.
         21    1    1    2  503  502 -0.44288767063E+02 -0.16152917676E+03  0.13188407632E+03  0.21318203353E+03  0.00000000000E+00 0.  1.
          2    1    1    2  501    0  0.44288767063E+02  0.16152917676E+03  0.18470968301E+04  0.18546751386E+04  0.00000000000E+00 0.  1.
<mgrwt>
<rscale>  2 0.16749081E+03</rscale>
<asrwt>0</asrwt>
<pdfrwt beam="2">  1       21 0.68366374E-02 0.16749081E+03</pdfrwt>
<pdfrwt beam="1">  1        2 0.31129517E+00 0.16749081E+03</pdfrwt>
<totfact> 0.14910173E+04</totfact>
</mgrwt>
</event>
<event>
 4    1  0.5134057E+003  0.1169071E+03  0.7546771E-02  0.1248288E+00
         21   -1    0    0  501  502  0.00000000000E+00  0.00000000000E+00  0.12182392847E+03  0.12182392847E+03  0.00000000000E+00 0. -1.
          1   -1    0    0  503    0 -0.00000000000E+00 -0.00000000000E+00 -0.77941136595E+03  0.77941136595E+03  0.00000000000E+00 0. -1.
         21    1    1    2  503  502 -0.14957086455E+02  0.11594630765E+03  0.88133495442E+02  0.14640619424E+03  0.00000000000E+00 0. -1.
          1    1    1    2  501    0  0.14957086455E+02 -0.11594630765E+03 -0.74572093292E+03  0.75482910018E+03  0.00000000000E+00 0. -1.
<mgrwt>
<rscale>  2 0.11690706E+03</rscale>
<asrwt>0</asrwt>
<pdfrwt beam="1">  1       21 0.18742143E-01 0.11690706E+03</pdfrwt>
<pdfrwt beam="2">  1        1 0.11990944E+00 0.11690706E+03</pdfrwt>
<totfact> 0.71606304E+03</totfact>
</mgrwt>
</event>
<event>
 4    1  0.5134057E+003  0.1300614E+03  0.7546771E-02  0.1227365E+00
         21   -1    0    0  503  502  0.00000000000E+00  0.00000000000E+00  0.24178622800E+02  0.24178622800E+02  0.00000000000E+00 0.  1.
          1   -1    0    0  502    0 -0.00000000000E+00 -0.00000000000E+00 -0.90455376632E+03  0.90455376632E+03  0.00000000000E+00 0.  1.
         21    1    1    2  503  501  0.45333038389E+02 -0.12190519023E+03 -0.21916060235E+03  0.25484765919E+03  0.00000000000E+00 0.  1.
          1    1    1    2  501    0 -0.45333038389E+02  0.12190519023E+03 -0.66121454117E+03  0.67388472993E+03  0.00000000000E+00 0.  1.
<mgrwt>
<rscale>  2 0.13006137E+03</rscale>
<asrwt>0</asrwt>
<pdfrwt beam="1">  1       21 0.37197887E-02 0.13006137E+03</pdfrwt>
<pdfrwt beam="2">  1        1 0.13916209E+00 0.13006137E+03</pdfrwt>
<totfact> 0.93707267E+04</totfact>
</mgrwt>
</event>
<event>
 4    1  0.5134057E+003  0.1413748E+03  0.7546771E-02  0.1211491E+00
         -1   -1    0    0    0  501 -0.00000000000E+00  0.00000000000E+00  0.64624643337E+03  0.64624643337E+03  0.00000000000E+00 0.  1.
         21   -1    0    0  503  502  0.00000000000E+00 -0.00000000000E+00 -0.31759705093E+02  0.31759705093E+02  0.00000000000E+00 0. -1.
         21    1    1    2  503  501  0.86545856662E+02  0.11178845277E+03  0.25237050307E+03  0.28927100494E+03  0.00000000000E+00 0. -1.
         -1    1    1    2    0  502 -0.86545856662E+02 -0.11178845277E+03  0.36211622520E+03  0.38873513352E+03  0.00000000000E+00 0.  1.
<mgrwt>
<rscale>  2 0.14137483E+03</rscale>
<asrwt>0</asrwt>
<pdfrwt beam="2">  1       21 0.48861090E-02 0.14137483E+03</pdfrwt>
<pdfrwt beam="1">  1       -1 0.99422518E-01 0.14137483E+03</pdfrwt>
<totfact> 0.26733641E+04</totfact>
</mgrwt>
</event>
<event>
 4    1  0.5134057E+003  0.1557205E+03  0.7546771E-02  0.1193615E+00
         21   -1    0    0  503  502  0.00000000000E+00  0.00000000000E+00  0.14822146136E+03  0.14822146136E+03  0.00000000000E+00 0.  1.
         -3   -1    0    0    0  501 -0.00000000000E+00 -0.00000000000E+00 -0.39723541143E+03  0.39723541143E+03  0.00000000000E+00 0. -1.
         21    1    1    2  503  501 -0.32447562246E+02  0.15230242630E+03  0.84652126403E+02  0.17724236473E+03  0.00000000000E+00 0.  1.
         -3    1    1    2    0  502  0.32447562246E+02 -0.15230242630E+03 -0.33366607648E+03  0.36821450805E+03  0.00000000000E+00 0. -1.
<mgrwt>
<rscale>  2 0.15572050E+03</rscale>
<asrwt>0</asrwt>
<pdfrwt beam="1">  1       21 0.22803302E-01 0.15572050E+03</pdfrwt>
<pdfrwt beam="2">  1       -3 0.61113140E-01 0.15572050E+03</pdfrwt>
<totfact> 0.23546858E+03</totfact>
</mgrwt>
</event>
<event>
 4    1  0.5134057E+003  0.1033907E+03  0.7546771E-02  0.1273323E+00
          2   -1    0    0  503    0 -0.00000000000E+00  0.00000000000E+00  0.14963731426E+04  0.14963731426E+04  0.00000000000E+00 0.  1.
         21   -1    0    0  501  502  0.00000000000E+00 -0.00000000000E+00 -0.78511649120E+01  0.78511649120E+01  0.00000000000E+00 0. -1.
         21    1    1    2  503  502  0.38001502556E+02  0.96153629084E+02  0.51848940034E+03  0.52869735468E+03  0.00000000000E+00 0. -1.
          2    1    1    2  501    0 -0.38001502556E+02 -0.96153629084E+02  0.97003257739E+03  0.97552695287E+03  0.00000000000E+00 0.  1.
<mgrwt>
<rscale>  2 0.10339069E+03</rscale>
<asrwt>0</asrwt>
<pdfrwt beam="2">  1       21 0.12078727E-02 0.10339069E+03</pdfrwt>
<pdfrwt beam="1">  1        2 0.23021103E+00 0.10339069E+03</pdfrwt>
<totfact> 0.48051241E+05</totfact>
</mgrwt>
</event>
<event>
 4    1  0.5134057E+003  0.1564258E+03  0.7546771E-02  0.1192792E+00
          2   -1    0    0  503    0 -0.00000000000E+00  0.00000000000E+00  0.29231602701E+04  0.29231602701E+04  0.00000000000E+00 0.  1.
         21   -1    0    0  501  502  0.00000000000E+00 -0.00000000000E+00 -0.18798687388E+03  0.18798687388E+03  0.00000000000E+00 0.  1.
         21    1    1    2  503  502 -0.15484212420E+03 -0.22202631532E+02 -0.15295892271E+03  0.21878179154E+03  0.00000000000E+00 0.  1.
          2    1    1    2  501    0  0.15484212420E+03  0.22202631532E+02  0.28881323190E+04  0.28923653525E+04  0.00000000000E+00 0.  1.
<mgrwt>
<rscale>  2 0.15642583E+03</rscale>
<asrwt>0</asrwt>
<pdfrwt beam="2">  1       21 0.28921060E-01 0.15642583E+03</pdfrwt>
<pdfrwt beam="1">  1        2 0.44971693E+00 0.15642583E+03</pdfrwt>
<totfact> 0.36149617E+02</totfact>
</mgrwt>
</event>
<event>
 4    1  0.5134057E+003  0.1073170E+03  0.7546771E-02  0.1265621E+00
         21   -1    0    0  503  502  0.00000000000E+00  0.00000000000E+00  0.20581569788E+04  0.20581569788E+04  0.00000000000E+00 0. -1.
         -2   -1    0    0    0  501 -0.00000000000E+00 -0.00000000000E+00 -0.57164331483E+02  0.57164331483E+02  0.00000000000E+00 0. -1.
         21    1    1    2  503  501  0.69757846649E+02 -0.81552300143E+02  0.20050574569E+04  0.20079273743E+04  0.00000000000E+00 0. -1.
         -2    1    1    2    0  502 -0.69757846649E+02  0.81552300143E+02 -0.40648095395E+01  0.10739393607E+03  0.00000000000E+00 0. -1.
<mgrwt>
<rscale>  2 0.10731698E+03</rscale>
<asrwt>0</asrwt>
<pdfrwt beam="1">  1       21 0.31663948E+00 0.10731698E+03</pdfrwt>
<pdfrwt beam="2">  1       -2 0.87945142E-02 0.10731698E+03</pdfrwt>
<totfact> 0.19644213E+02</totfact>
</mgrwt>
</event>
<event>
 4    1  0.5134057E+003  0.1097084E+03  0.7546771E-02  0.1261111E+00
          1   -1    0    0  502    0 -0.00000000000E+00  0.00000000000E+00  0.17239665377E+03  0.17239665377E+03  0.00000000000E+00 0.  1.
         21   -1    0    0  503  502  0.00000000000E+00 -0.00000000000E+00 -0.76455186417E+03  0.76455186417E+03  0.00000000000E+00 0.  1.
         21    1    1    2  503  501 -0.12561216308E+02  0.10898690670E+03 -0.74265046413E+03  0.75071009176E+03  0.00000000000E+00 0.  1.
          1    1    1    2  501    0  0.12561216308E+02 -0.10898690670E+03  0.15049525374E+03  0.18623842618E+03  0.00000000000E+00 0.  1.
<mgrwt>
<rscale>  2 0.10970839E+03</rscale>
<asrwt>0</asrwt>
<pdfrwt beam="2">  1       21 0.11762336E+00 0.10970839E+03</pdfrwt>
<pdfrwt beam="1">  1        1 0.26522562E-01 0.10970839E+03</pdfrwt>
<totfact> 0.11206105E+03</totfact>
</mgrwt>
</event>
<event>
 4    1  0.5134057E+003  0.1175089E+03  0.7546771E-02  0.1247264E+00
          2   -1    0    0  503    0 -0.00000000000E+00  0.00000000000E+00  0.23421342384E+04  0.23421342384E+04  0.00000000000E+00 0. -1.
         21   -1    0    0  501  502  0.00000000000E+00 -0.00000000000E+00 -0.61559745482E+01  0.61559745482E+01  0.00000000000E+00 0. -1.
         21    1    1    2  503  502 -0.11597965498E+03  0.18896358906E+02  0.92652697274E+03  0.93394891936E+03  0.00000000000E+00 0. -1.
          2    1    1    2  501    0  0.11597965498E+03 -0.18896358906E+02  0.14094512911E+04  0.14143412936E+04  0.00000000000E+00 0. -1.
<mgrwt>
<rscale>  2 0.11750895E+03</rscale>
<asrwt>0</asrwt>
<pdfrwt beam="2">  1       21 0.94707488E-03 0.11750895E+03</pdfrwt>
<pdfrwt beam="1">  1        2 0.36032763E+00 0.11750895E+03</pdfrwt>
<totfact> 0.26168700E+05</totfact>
</mgrwt>
</event>
<event>
 4    1  0.5134057E+003  0.1507681E+03  0.7546771E-02  0.1199532E+00
         -2   -1    0    0    0  501 -0.00000000000E+00  0.00000000000E+00  0.91109229984E+02  0.91109229984E+02  0.00000000000E+00 0.  1.
         21   -1    0    0  503  502  0.00000000000E+00 -0.00000000000E+00 -0.69251887555E+03  0.69251887555E+03  0.00000000000E+00 0. -1.
         21    1    1    2  503  501 -0.18150191528E+02 -0.14967159695E+03 -0.61409059688E+03  0.63232766630E+03  0.00000000000E+00 0. -1.
         -2    1    1    2    0  502  0.18150191528E+02  0.14967159695E+03  0.12680951315E+02  0.15130043924E+03  0.00000000000E+00 0.  1.
<mgrwt>
<rscale>  2 0.15076809E+03</rscale>
<asrwt>0</asrwt>
<pdfrwt beam="2">  1       21 0.10654137E+00 0.15076809E+03</pdfrwt>
<pdfrwt beam="1">  1       -2 0.14016804E-01 0.15076809E+03</pdfrwt>
<totfact> 0.21666803E+03</totfact>
</mgrwt>
</event>
<event>
 4    1  0.5134057E+003  0.1041524E+03  0.7546771E-02  0.1271799E+00
         21   -1    0    0  503  502  0.00000000000E+00  0.00000000000E+00  0.86822267168E+01  0.86822267168E+01  0.00000000000E+00 0. -1.
          2   -1    0    0  502    0 -0.00000000000E+00 -0.00000000000E+00 -0.28200511700E+04  0.28200511700E+04  0.00000000000E+00 0.  1.
         21    1    1    2  503  501 -0.30114077489E+02 -0.99703873636E+02 -0.35015327461E+03  0.36531498162E+03  0.00000000000E+00 0. -1.
          2    1    1    2  501    0  0.30114077489E+02  0.99703873636E+02 -0.24612156687E+04  0.24634184151E+04  0.00000000000E+00 0.  1.
<mgrwt>
<rscale>  2 0.10415239E+03</rscale>
<asrwt>0</asrwt>
<pdfrwt beam="1">  1       21 0.13357243E-02 0.10415239E+03</pdfrwt>
<pdfrwt beam="2">  1        2 0.43385498E+00 0.10415239E+03</pdfrwt>
<totfact> 0.84553943E+04</totfact>
</mgrwt>
</event>
<event>
 4    1  0.5134057E+003  0.1387627E+03  0.7546771E-02  0.1215004E+00
         -2   -1    0    0    0  501 -0.00000000000E+00  0.00000000000E+00  0.30582068299E+02  0.30582068299E+02  0.00000000000E+00 0.  1.
         21   -1    0    0  501  502  0.00000000000E+00 -0.00000000000E+00 -0.20988022057E+04  0.20988022057E+04  0.00000000000E+00 0. -1.
         21    1    1    2  503  502 -0.56045752638E+02 -0.12694074146E+03 -0.19249017199E+04  0.19298968132E+04  0.00000000000E+00 0. -1.
         -2    1    1    2    0  503  0.56045752638E+02  0.12694074146E+03 -0.14331841750E+03  0.19948746082E+03  0.00000000000E+00 0.  1.
<mgrwt>
<rscale>  2 0.13876267E+03</rscale>
<asrwt>0</asrwt>
<pdfrwt beam="2">  1       21 0.32289271E+00 0.13876267E+03</pdfrwt>
<pdfrwt beam="1">  1       -2 0.47049327E-02 0.13876267E+03</pdfrwt>
<totfact> 0.44596453E+02</totfact>
</mgrwt>
</event>
<event>
 4    1  0.5134057E+003  0.1036895E+03  0.7546771E-02  0.1272723E+00
         21   -1    0    0  503  502  0.00000000000E+00  0.00000000000E+00  0.10557435594E+02  0.10557435594E+02  0.00000000000E+00 0.  1.
          2   -1    0    0  502    0 -0.00000000000E+00 -0.00000000000E+00 -0.16559712052E+04  0.16559712052E+04  0.00000000000E+00 0.  1.
         21    1    1    2  503  501 -0.47454685691E+02 -0.92193119343E+02 -0.30566425125E+03  0.32277260253E+03  0.00000000000E+00 0.  1.
          2    1    1    2  501    0  0.47454685691E+02  0.92193119343E+02 -0.13397495183E+04  0.13437560383E+04  0.00000000000E+00 0.  1.
<mgrwt>
<rscale>  2 0.10368953E+03</rscale>
<asrwt>0</asrwt>
<pdfrwt beam="1">  1       21 0.16242202E-02 0.10368953E+03</pdfrwt>
<pdfrwt beam="2">  1        2 0.25476491E+00 0.10368953E+03</pdfrwt>
<totfact> 0.24912025E+05</totfact>
</mgrwt>
</event>
<event>
 4    1  0.5134057E+003  0.1058211E+03  0.7546771E-02  0.1268510E+00
         21   -1    0    0  503  502  0.00000000000E+00  0.00000000000E+00  0.69638903773E+01  0.69638903773E+01  0.00000000000E+00 0.  1.
          1   -1    0    0  502    0 -0.00000000000E+00 -0.00000000000E+00 -0.28086549337E+04  0.28086549337E+04  0.00000000000E+00 0.  1.
         21    1    1    2  503  501  0.98706484112E+02 -0.38146319067E+02 -0.48039763038E+03  0.49191462159E+03  0.00000000000E+00 0.  1.
          1    1    1    2  501    0 -0.98706484112E+02  0.38146319067E+02 -0.23212934130E+04  0.23237042025E+04  0.00000000000E+00 0.  1.
<mgrwt>
<rscale>  2 0.10582113E+03</rscale>
<asrwt>0</asrwt>
<pdfrwt beam="1">  1       21 0.10713698E-02 0.10582113E+03</pdfrwt>
<pdfrwt beam="2">  1        1 0.43209994E+00 0.10582113E+03</pdfrwt>
<totfact> 0.39272802E+04</totfact>
</mgrwt>
</event>
<event>
 4    1  0.5134057E+003  0.1091322E+03  0.7546771E-02  0.1262185E+00
         21   -1    0    0  501  502  0.00000000000E+00  0.00000000000E+00  0.84468555729E+02  0.84468555729E+02  0.00000000000E+00 0. -1.
          2   -1    0    0  503    0 -0.00000000000E+00 -0.00000000000E+00 -0.65614499211E+03  0.65614499211E+03  0.00000000000E+00 0. -1.
         21    1    1    2  503  502 -0.57376608786E+02  0.92831924441E+02  0.42277934706E+02  0.11703531601E+03  0.00000000000E+00 0. -1.
          2    1    1    2  501    0  0.57376608786E+02 -0.92831924441E+02 -0.61395437108E+03  0.62357823182E+03  0.00000000000E+00 0. -1.
<mgrwt>
<rscale>  2 0.10913222E+03</rscale>
<asrwt>0</asrwt>
<pdfrwt beam="1">  1       21 0.12995163E-01 0.10913222E+03</pdfrwt>
<pdfrwt beam="2">  1        2 0.10094538E+00 0.10913222E+03</pdfrwt>
<totfact> 0.29298474E+04</totfact>
</mgrwt>
</event>
<event>
 4    1  0.5134057E+003  0.1058929E+03  0.7546771E-02  0.1268370E+00
         -1   -1    0    0    0  501 -0.00000000000E+00  0.00000000000E+00  0.46813585564E+03  0.46813585564E+03  0.00000000000E+00 0. -1.
         21   -1    0    0  501  502  0.00000000000E+00 -0.00000000000E+00 -0.83529659455E+03  0.83529659455E+03  0.00000000000E+00 0. -1.
         21    1    1    2  503  502  0.10498139828E+03 -0.13863821837E+02 -0.82588427112E+03  0.83264525989E+03  0.00000000000E+00 0. -1.
         -1    1    1    2    0  503 -0.10498139828E+03  0.13863821837E+02  0.45872353221E+03  0.47078719029E+03  0.00000000000E+00 0. -1.
<mgrwt>
<rscale>  2 0.10589287E+03</rscale>
<asrwt>0</asrwt>
<pdfrwt beam="2">  1       21 0.12850717E+00 0.10589287E+03</pdfrwt>
<pdfrwt beam="1">  1       -1 0.72020902E-01 0.10589287E+03</pdfrwt>
<totfact> 0.91538046E+01</totfact>
</mgrwt>
</event>
<event>
 4    1  0.5134057E+003  0.4983075E+03  0.7546771E-02  0.1014222E+00
          1   -1    0    0  503    0 -0.00000000000E+00  0.00000000000E+00  0.97456938091E+03  0.97456938091E+03  0.00000000000E+00 0.  1.
         21   -1    0    0  501  502  0.00000000000E+00 -0.00000000000E+00 -0.32228255322E+03  0.32228255322E+03  0.00000000000E+00 0.  1.
         21    1    1    2  503  502 -0.11417439372E+03  0.48505107736E+03  0.29407190013E+02  0.49917444111E+03  0.00000000000E+00 0.  1.
          1    1    1    2  501    0  0.11417439372E+03 -0.48505107736E+03  0.62287963768E+03  0.79767749302E+03  0.00000000000E+00 0.  1.
<mgrwt>
<rscale>  2 0.49830748E+03</rscale>
<asrwt>0</asrwt>
<pdfrwt beam="2">  1       21 0.49581931E-01 0.49830748E+03</pdfrwt>
<pdfrwt beam="1">  1        1 0.14993375E+00 0.49830748E+03</pdfrwt>
<totfact> 0.64939705E+02</totfact>
</mgrwt>
</event>
<event>
 4    1  0.5134057E+003  0.1608853E+03  0.7546771E-02  0.1187701E+00
         21   -1    0    0  503  502  0.00000000000E+00  0.00000000000E+00  0.47339511561E+03  0.47339511561E+03  0.00000000000E+00 0. -1.
          2   -1    0    0  502    0 -0.00000000000E+00 -0.00000000000E+00 -0.28281178813E+03  0.28281178813E+03  0.00000000000E+00 0. -1.
         21    1    1    2  503  501 -0.12722381989E+03  0.98479271350E+02  0.43488343534E+03  0.46368919500E+03  0.00000000000E+00 0. -1.
          2    1    1    2  501    0  0.12722381989E+03 -0.98479271350E+02 -0.24430010786E+03  0.29251770875E+03  0.00000000000E+00 0. -1.
<mgrwt>
<rscale>  2 0.16088526E+03</rscale>
<asrwt>0</asrwt>
<pdfrwt beam="1">  1       21 0.72830018E-01 0.16088526E+03</pdfrwt>
<pdfrwt beam="2">  1        2 0.43509506E-01 0.16088526E+03</pdfrwt>
<totfact> 0.24854911E+03</totfact>
</mgrwt>
</event>
<event>
 4    1  0.5134057E+003  0.2389957E+03  0.7546771E-02  0.1120464E+00
         21   -1    0    0  501  502  0.00000000000E+00  0.00000000000E+00  0.32701219994E+02  0.32701219994E+02  0.00000000000E+00 0.  1.
          2   -1    0    0  503    0 -0.00000000000E+00 -0.00000000000E+00 -0.20991844657E+04  0.20991844657E+04  0.00000000000E+00 0.  1.
         21    1    1    2  503  502  0.19072301895E+03  0.14402662124E+03 -0.59644029954E+03  0.64254180292E+03  0.00000000000E+00 0.  1.
          2    1    1    2  501    0 -0.19072301895E+03 -0.14402662124E+03 -0.14700429462E+04  0.14893438828E+04  0.00000000000E+00 0.  1.
<mgrwt>
<rscale>  2 0.23899569E+03</rscale>
<asrwt>0</asrwt>
<pdfrwt beam="1">  1       21 0.50309567E-02 0.23899569E+03</pdfrwt>
<pdfrwt beam="2">  1        2 0.32295147E+00 0.23899569E+03</pdfrwt>
<totfact> 0.22436325E+04</totfact>
</mgrwt>
</event>
<event>
 4    1  0.5134057E+003  0.1033330E+03  0.7546771E-02  0.1273439E+00
         21   -1    0    0  503  502  0.00000000000E+00  0.00000000000E+00  0.13570263786E+03  0.13570263786E+03  0.00000000000E+00 0. -1.
          2   -1    0    0  502    0 -0.00000000000E+00 -0.00000000000E+00 -0.79064224936E+02  0.79064224936E+02  0.00000000000E+00 0. -1.
         21    1    1    2  503  501  0.13756917612E+02 -0.10241316343E+03  0.20878396346E+02  0.10542113763E+03  0.00000000000E+00 0. -1.
          2    1    1    2  501    0 -0.13756917612E+02  0.10241316343E+03  0.35760016577E+02  0.10934572516E+03  0.00000000000E+00 0. -1.
<mgrwt>
<rscale>  2 0.10333300E+03</rscale>
<asrwt>0</asrwt>
<pdfrwt beam="1">  1       21 0.20877329E-01 0.10333300E+03</pdfrwt>
<pdfrwt beam="2">  1        2 0.12163727E-01 0.10333300E+03</pdfrwt>
<totfact> 0.12664647E+05</totfact>
</mgrwt>
</event>
<event>
 4    1  0.5134057E+003  0.1745996E+03  0.7546771E-02  0.1173134E+00
         21   -1    0    0  503  502  0.00000000000E+00  0.00000000000E+00  0.24578991916E+02  0.24578991916E+02  0.00000000000E+00 0. -1.
          2   -1    0    0  502    0 -0.00000000000E+00 -0.00000000000E+00 -0.14497844489E+04  0.14497844489E+04  0.00000000000E+00 0. -1.
         21    1    1    2  503  501 -0.82617319977E+02 -0.15381607575E+03 -0.43237435881E+03  0.46629667903E+03  0.00000000000E+00 0. -1.
          2    1    1    2  501    0  0.82617319977E+02  0.15381607575E+03 -0.99283109821E+03  0.10080667618E+04  0.00000000000E+00 0. -1.
<mgrwt>
<rscale>  2 0.17459956E+03</rscale>
<asrwt>0</asrwt>
<pdfrwt beam="1">  1       21 0.37813816E-02 0.17459956E+03</pdfrwt>
<pdfrwt beam="2">  1        2 0.22304386E+00 0.17459956E+03</pdfrwt>
<totfact> 0.80490675E+04</totfact>
</mgrwt>
</event>
<event>
 4    1  0.5134057E+003  0.1078617E+03  0.7546771E-02  0.1264582E+00
          2   -1    0    0  502    0 -0.00000000000E+00  0.00000000000E+00  0.25892616564E+04  0.25892616564E+04  0.00000000000E+00 0.  1.
         21   -1    0    0  503  502  0.00000000000E+00 -0.00000000000E+00 -0.11079594097E+03  0.11079594097E+03  0.00000000000E+00 0. -1.
         21    1    1    2  503  501  0.97153415559E+02  0.46854765594E+02 -0.83138007951E+02  0.13618400633E+03  0.00000000000E+00 0. -1.
          2    1    1    2  501    0 -0.97153415559E+02 -0.46854765594E+02  0.25616037233E+04  0.25638735910E+04  0.00000000000E+00 0.  1.
<mgrwt>
<rscale>  2 0.10786174E+03</rscale>
<asrwt>0</asrwt>
<pdfrwt beam="2">  1       21 0.17045531E-01 0.10786174E+03</pdfrwt>
<pdfrwt beam="1">  1        2 0.39834790E+00 0.10786174E+03</pdfrwt>
<totfact> 0.15726504E+03</totfact>
</mgrwt>
</event>
<event>
 4    1  0.5134057E+003  0.1295782E+03  0.7546771E-02  0.1228083E+00
         -4   -1    0    0    0  501 -0.00000000000E+00  0.00000000000E+00  0.35252810225E+02  0.35252810225E+02  0.00000000000E+00 0. -1.
         21   -1    0    0  503  502  0.00000000000E+00 -0.00000000000E+00 -0.47750438689E+03  0.47750438689E+03  0.00000000000E+00 0. -1.
         21    1    1    2  503  501 -0.67527975957E+02  0.11059152332E+03 -0.23406229618E+03  0.26753629859E+03  0.00000000000E+00 0. -1.
         -4    1    1    2    0  502  0.67527975957E+02 -0.11059152332E+03 -0.20818928048E+03  0.24522089853E+03  0.00000000000E+00 0. -1.
<mgrwt>
<rscale>  2 0.12957821E+03</rscale>
<asrwt>0</asrwt>
<pdfrwt beam="2">  1       21 0.73462214E-01 0.12957821E+03</pdfrwt>
<pdfrwt beam="1">  1       -4 0.54235092E-02 0.12957821E+03</pdfrwt>
<totfact> 0.14303072E+04</totfact>
</mgrwt>
</event>
<event>
 4    1  0.5134057E+003  0.1045615E+03  0.7546771E-02  0.1270986E+00
         21   -1    0    0  501  502  0.00000000000E+00  0.00000000000E+00  0.95740677113E+02  0.95740677113E+02  0.00000000000E+00 0.  1.
          2   -1    0    0  503    0 -0.00000000000E+00 -0.00000000000E+00 -0.11399376495E+04  0.11399376495E+04  0.00000000000E+00 0.  1.
         21    1    1    2  503  502  0.96902084265E+02 -0.39282286705E+02  0.63977706138E+02  0.12258164164E+03  0.00000000000E+00 0.  1.
          2    1    1    2  501    0 -0.96902084265E+02  0.39282286705E+02 -0.11081746786E+04  0.11130966850E+04  0.00000000000E+00 0.  1.
<mgrwt>
<rscale>  2 0.10456152E+03</rscale>
<asrwt>0</asrwt>
<pdfrwt beam="1">  1       21 0.14729335E-01 0.10456152E+03</pdfrwt>
<pdfrwt beam="2">  1        2 0.17537502E+00 0.10456152E+03</pdfrwt>
<totfact> 0.11550820E+04</totfact>
</mgrwt>
</event>
<event>
 4    1  0.5134057E+003  0.1248270E+03  0.7546771E-02  0.1235340E+00
          2   -1    0    0  502    0 -0.00000000000E+00  0.00000000000E+00  0.22694558209E+04  0.22694558209E+04  0.00000000000E+00 0. -1.
         21   -1    0    0  503  502  0.00000000000E+00 -0.00000000000E+00 -0.18108524677E+02  0.18108524677E+02  0.00000000000E+00 0. -1.
         21    1    1    2  503  501  0.97066793075E+02  0.78484495119E+02  0.22444225294E+03  0.25681920332E+03  0.00000000000E+00 0. -1.
          2    1    1    2  501    0 -0.97066793075E+02 -0.78484495119E+02  0.20269050433E+04  0.20307451423E+04  0.00000000000E+00 0. -1.
<mgrwt>
<rscale>  2 0.12482699E+03</rscale>
<asrwt>0</asrwt>
<pdfrwt beam="2">  1       21 0.27859287E-02 0.12482699E+03</pdfrwt>
<pdfrwt beam="1">  1        2 0.34914682E+00 0.12482699E+03</pdfrwt>
<totfact> 0.50744778E+04</totfact>
</mgrwt>
</event>
<event>
 4    1  0.5134057E+003  0.1220178E+03  0.7546771E-02  0.1239805E+00
          2   -1    0    0  502    0 -0.00000000000E+00  0.00000000000E+00  0.87089523090E+03  0.87089523090E+03  0.00000000000E+00 0.  1.
         21   -1    0    0  503  502  0.00000000000E+00 -0.00000000000E+00 -0.22796835445E+02  0.22796835445E+02  0.00000000000E+00 0. -1.
         21    1    1    2  503  501  0.65533036871E+01 -0.12184171053E+03  0.20058357414E+03  0.23478100100E+03  0.00000000000E+00 0. -1.
          2    1    1    2  501    0 -0.65533036871E+01  0.12184171053E+03  0.64751482131E+03  0.65891106534E+03  0.00000000000E+00 0.  1.
<mgrwt>
<rscale>  2 0.12201782E+03</rscale>
<asrwt>0</asrwt>
<pdfrwt beam="2">  1       21 0.35072061E-02 0.12201782E+03</pdfrwt>
<pdfrwt beam="1">  1        2 0.13398386E+00 0.12201782E+03</pdfrwt>
<totfact> 0.19427762E+05</totfact>
</mgrwt>
</event>
<event>
 4    1  0.5134057E+003  0.1756209E+03  0.7546771E-02  0.1172110E+00
          2   -1    0    0  502    0 -0.00000000000E+00  0.00000000000E+00  0.89439714994E+03  0.89439714994E+03  0.00000000000E+00 0. -1.
         21   -1    0    0  503  502  0.00000000000E+00 -0.00000000000E+00 -0.12392346935E+03  0.12392346935E+03  0.00000000000E+00 0. -1.
         21    1    1    2  503  501  0.16319964873E+03 -0.64873654174E+02 -0.47318307470E+02  0.18188386012E+03  0.00000000000E+00 0. -1.
          2    1    1    2  501    0 -0.16319964873E+03  0.64873654174E+02  0.81779198806E+03  0.83643675916E+03  0.00000000000E+00 0. -1.
<mgrwt>
<rscale>  2 0.17562095E+03</rscale>
<asrwt>0</asrwt>
<pdfrwt beam="2">  1       21 0.19065150E-01 0.17562095E+03</pdfrwt>
<pdfrwt beam="1">  1        2 0.13759956E+00 0.17562095E+03</pdfrwt>
<totfact> 0.98554237E+03</totfact>
</mgrwt>
</event>
<event>
 4    1  0.5134057E+003  0.1036269E+03  0.7546771E-02  0.1272849E+00
         -1   -1    0    0    0  501 -0.00000000000E+00  0.00000000000E+00  0.60533608890E+03  0.60533608890E+03  0.00000000000E+00 0. -1.
         21   -1    0    0  503  502  0.00000000000E+00 -0.00000000000E+00 -0.31548019021E+02  0.31548019021E+02  0.00000000000E+00 0.  1.
         21    1    1    2  503  501 -0.19313980760E+02  0.10181114170E+03  0.76218903406E+02  0.12863848438E+03  0.00000000000E+00 0.  1.
         -1    1    1    2    0  502  0.19313980760E+02 -0.10181114170E+03  0.49756916647E+03  0.50824562354E+03  0.00000000000E+00 0. -1.
<mgrwt>
<rscale>  2 0.10362692E+03</rscale>
<asrwt>0</asrwt>
<pdfrwt beam="2">  1       21 0.48535418E-02 0.10362692E+03</pdfrwt>
<pdfrwt beam="1">  1       -1 0.93128620E-01 0.10362692E+03</pdfrwt>
<totfact> 0.30935767E+04</totfact>
</mgrwt>
</event>
<event>
 4    1  0.5134057E+003  0.1709213E+03  0.7546771E-02  0.1176891E+00
         21   -1    0    0  503  502  0.00000000000E+00  0.00000000000E+00  0.23854802483E+03  0.23854802483E+03  0.00000000000E+00 0.  1.
          3   -1    0    0  502    0 -0.00000000000E+00 -0.00000000000E+00 -0.28885215586E+03  0.28885215586E+03  0.00000000000E+00 0. -1.
         21    1    1    2  503  501 -0.11222323328E+03 -0.12891867600E+03  0.17498648761E+03  0.24461060883E+03  0.00000000000E+00 0.  1.
          3    1    1    2  501    0  0.11222323328E+03  0.12891867600E+03 -0.22529061864E+03  0.28278957186E+03  0.00000000000E+00 0. -1.
<mgrwt>
<rscale>  2 0.17092127E+03</rscale>
<asrwt>0</asrwt>
<pdfrwt beam="1">  1       21 0.36699696E-01 0.17092127E+03</pdfrwt>
<pdfrwt beam="2">  1        3 0.44438793E-01 0.17092127E+03</pdfrwt>
<totfact> 0.17866674E+03</totfact>
</mgrwt>
</event>
<event>
 4    1  0.5134057E+003  0.1263076E+03  0.7546771E-02  0.1233040E+00
          1   -1    0    0  502    0 -0.00000000000E+00  0.00000000000E+00  0.34445963357E+03  0.34445963357E+03  0.00000000000E+00 0.  1.
         21   -1    0    0  503  502  0.00000000000E+00 -0.00000000000E+00 -0.17793265608E+03  0.17793265608E+03  0.00000000000E+00 0.  1.
         21    1    1    2  503  501 -0.64639982911E+02  0.10851401513E+03 -0.14138119589E+03  0.18958444404E+03  0.00000000000E+00 0.  1.
          1    1    1    2  501    0  0.64639982911E+02 -0.10851401513E+03  0.30790817337E+03  0.33280784561E+03  0.00000000000E+00 0.  1.
<mgrwt>
<rscale>  2 0.12630764E+03</rscale>
<asrwt>0</asrwt>
<pdfrwt beam="2">  1       21 0.27374255E-01 0.12630764E+03</pdfrwt>
<pdfrwt beam="1">  1        1 0.52993790E-01 0.12630764E+03</pdfrwt>
<totfact> 0.10386773E+04</totfact>
</mgrwt>
</event>
<event>
 4    1  0.5134057E+003  0.1184466E+03  0.7546771E-02  0.1245682E+00
         21   -1    0    0  501  502  0.00000000000E+00  0.00000000000E+00  0.56320216701E+02  0.56320216701E+02  0.00000000000E+00 0.  1.
         -1   -1    0    0    0  501 -0.00000000000E+00 -0.00000000000E+00 -0.31861863095E+03  0.31861863095E+03  0.00000000000E+00 0. -1.
         21    1    1    2  503  502 -0.46217677513E+02  0.10905746885E+03 -0.43583875409E+02  0.12621077379E+03  0.00000000000E+00 0.  1.
         -1    1    1    2    0  503  0.46217677513E+02 -0.10905746885E+03 -0.21871453884E+03  0.24872807386E+03  0.00000000000E+00 0. -1.
<mgrwt>
<rscale>  2 0.11844663E+03</rscale>
<asrwt>0</asrwt>
<pdfrwt beam="1">  1       21 0.86646489E-02 0.11844663E+03</pdfrwt>
<pdfrwt beam="2">  1       -1 0.49018250E-01 0.11844663E+03</pdfrwt>
<totfact> 0.40693278E+04</totfact>
</mgrwt>
</event>
<event>
 4    1  0.5134057E+003  0.1214317E+03  0.7546771E-02  0.1240754E+00
         21   -1    0    0  503  502  0.00000000000E+00  0.00000000000E+00  0.16163928676E+03  0.16163928676E+03  0.00000000000E+00 0. -1.
          1   -1    0    0  502    0 -0.00000000000E+00 -0.00000000000E+00 -0.37938325517E+03  0.37938325517E+03  0.00000000000E+00 0.  1.
         21    1    1    2  503  501  0.12143025063E+03  0.60219375987E+00  0.12688319276E+03  0.17562748364E+03  0.00000000000E+00 0. -1.
          1    1    1    2  501    0 -0.12143025063E+03 -0.60219375987E+00 -0.34462716117E+03  0.36539505829E+03  0.00000000000E+00 0.  1.
<mgrwt>
<rscale>  2 0.12143174E+03</rscale>
<asrwt>0</asrwt>
<pdfrwt beam="1">  1       21 0.24867583E-01 0.12143174E+03</pdfrwt>
<pdfrwt beam="2">  1        1 0.58366653E-01 0.12143174E+03</pdfrwt>
<totfact> 0.11059399E+04</totfact>
</mgrwt>
</event>
<event>
 4    1  0.5134057E+003  0.2903142E+03  0.7546771E-02  0.1090185E+00
         21   -1    0    0  503  502  0.00000000000E+00  0.00000000000E+00  0.12872529650E+03  0.12872529650E+03  0.00000000000E+00 0. -1.
          2   -1    0    0  502    0 -0.00000000000E+00 -0.00000000000E+00 -0.16085480138E+04  0.16085480138E+04  0.00000000000E+00 0.  1.
         21    1    1    2  503  501 -0.22422995129E+03  0.18439976852E+03 -0.71028135125E+02  0.29887680014E+03  0.00000000000E+00 0. -1.
          2    1    1    2  501    0  0.22422995129E+03 -0.18439976852E+03 -0.14087945822E+04  0.14383965102E+04  0.00000000000E+00 0.  1.
<mgrwt>
<rscale>  2 0.29031422E+03</rscale>
<asrwt>0</asrwt>
<pdfrwt beam="1">  1       21 0.19803891E-01 0.29031422E+03</pdfrwt>
<pdfrwt beam="2">  1        2 0.24746893E+00 0.29031422E+03</pdfrwt>
<totfact> 0.34714871E+03</totfact>
</mgrwt>
</event>
<event>
 4    1  0.5134057E+003  0.1003621E+03  0.7546771E-02  0.1279536E+00
         21   -1    0    0  503  502  0.00000000000E+00  0.00000000000E+00  0.46432951864E+02  0.46432951864E+02  0.00000000000E+00 0.  1.
          1   -1    0    0  502    0 -0.00000000000E+00 -0.00000000000E+00 -0.16720112576E+04  0.16720112576E+04  0.00000000000E+00 0. -1.
         21    1    1    2  503  501 -0.85663104748E+02  0.52291240231E+02 -0.11240336911E+02  0.10098953656E+03  0.00000000000E+00 0.  1.
          1    1    1    2  501    0  0.85663104748E+02 -0.52291240231E+02 -0.16143379688E+04  0.16174546729E+04  0.00000000000E+00 0. -1.
<mgrwt>
<rscale>  2 0.10036205E+03</rscale>
<asrwt>0</asrwt>
<pdfrwt beam="1">  1       21 0.71435324E-02 0.10036205E+03</pdfrwt>
<pdfrwt beam="2">  1        1 0.25723245E+00 0.10036205E+03</pdfrwt>
<totfact> 0.95478067E+03</totfact>
</mgrwt>
</event>
<event>
 4    1  0.5134057E+003  0.1650076E+03  0.7546771E-02  0.1183156E+00
         21   -1    0    0  503  502  0.00000000000E+00  0.00000000000E+00  0.67654957930E+02  0.67654957930E+02  0.00000000000E+00 0.  1.
          2   -1    0    0  502    0 -0.00000000000E+00 -0.00000000000E+00 -0.85159870347E+03  0.85159870347E+03  0.00000000000E+00 0.  1.
         21    1    1    2  503  501  0.16320785820E+03 -0.24304673039E+02 -0.58173286068E+02  0.17496186247E+03  0.00000000000E+00 0.  1.
          2    1    1    2  501    0 -0.16320785820E+03  0.24304673039E+02 -0.72577045947E+03  0.74429179893E+03  0.00000000000E+00 0.  1.
<mgrwt>
<rscale>  2 0.16500764E+03</rscale>
<asrwt>0</asrwt>
<pdfrwt beam="1">  1       21 0.10408455E-01 0.16500764E+03</pdfrwt>
<pdfrwt beam="2">  1        2 0.13101519E+00 0.16500764E+03</pdfrwt>
<totfact> 0.31440852E+04</totfact>
</mgrwt>
</event>
<event>
 4    1  0.5134057E+003  0.1377311E+03  0.7546771E-02  0.1216415E+00
         21   -1    0    0  503  502  0.00000000000E+00  0.00000000000E+00  0.54194837885E+02  0.54194837885E+02  0.00000000000E+00 0. -1.
          2   -1    0    0  502    0 -0.00000000000E+00 -0.00000000000E+00 -0.89298995782E+03  0.89298995782E+03  0.00000000000E+00 0. -1.
         21    1    1    2  503  501 -0.13767812010E+03  0.38182215366E+01 -0.50109593896E+02  0.14656334798E+03  0.00000000000E+00 0. -1.
          2    1    1    2  501    0  0.13767812010E+03 -0.38182215366E+01 -0.78868552604E+03  0.80062144772E+03  0.00000000000E+00 0. -1.
<mgrwt>
<rscale>  2 0.13773106E+03</rscale>
<asrwt>0</asrwt>
<pdfrwt beam="1">  1       21 0.83376671E-02 0.13773106E+03</pdfrwt>
<pdfrwt beam="2">  1        2 0.13738308E+00 0.13773106E+03</pdfrwt>
<totfact> 0.43680946E+04</totfact>
</mgrwt>
</event>
<event>
 4    1  0.5134057E+003  0.1126030E+03  0.7546771E-02  0.1255824E+00
          1   -1    0    0  502    0 -0.00000000000E+00  0.00000000000E+00  0.18983358234E+04  0.18983358234E+04  0.00000000000E+00 0. -1.
         21   -1    0    0  503  502  0.00000000000E+00 -0.00000000000E+00 -0.66891832550E+02  0.66891832550E+02  0.00000000000E+00 0. -1.
         21    1    1    2  503  501 -0.10638236107E+03  0.36908483711E+02 -0.16544300467E+02  0.11381193609E+03  0.00000000000E+00 0. -1.
          1    1    1    2  501    0  0.10638236107E+03 -0.36908483711E+02  0.18479882914E+04  0.18514157199E+04  0.00000000000E+00 0. -1.
<mgrwt>
<rscale>  2 0.11260303E+03</rscale>
<asrwt>0</asrwt>
<pdfrwt beam="2">  1       21 0.10291053E-01 0.11260303E+03</pdfrwt>
<pdfrwt beam="1">  1        1 0.29205162E+00 0.11260303E+03</pdfrwt>
<totfact> 0.36333137E+03</totfact>
</mgrwt>
</event>
<event>
 4    1  0.5134057E+003  0.1302397E+03  0.7546771E-02  0.1227101E+00
         21   -1    0    0  501  502  0.00000000000E+00  0.00000000000E+00  0.15575465168E+03  0.15575465168E+03  0.00000000000E+00 0.  1.
          2   -1    0    0  503    0 -0.00000000000E+00 -0.00000000000E+00 -0.23006477507E+03  0.23006477507E+03  0.00000000000E+00 0.  1.
         21    1    1    2  503  502  0.64610342360E+02 -0.11308349081E+03  0.10283889041E+03  0.16594640585E+03  0.00000000000E+00 0.  1.
          2    1    1    2  501    0 -0.64610342360E+02  0.11308349081E+03 -0.17714901379E+03  0.21987302090E+03  0.00000000000E+00 0.  1.
<mgrwt>
<rscale>  2 0.13023967E+03</rscale>
<asrwt>0</asrwt>
<pdfrwt beam="1">  1       21 0.23962254E-01 0.13023967E+03</pdfrwt>
<pdfrwt beam="2">  1        2 0.35394580E-01 0.13023967E+03</pdfrwt>
<totfact> 0.29679722E+04</totfact>
</mgrwt>
</event>
<event>
 4    1  0.5134057E+003  0.1213294E+03  0.7546771E-02  0.1240920E+00
         21   -1    0    0  501  502  0.00000000000E+00  0.00000000000E+00  0.19451577712E+02  0.19451577712E+02  0.00000000000E+00 0. -1.
          1   -1    0    0  503    0 -0.00000000000E+00 -0.00000000000E+00 -0.23964756733E+04  0.23964756733E+04  0.00000000000E+00 0. -1.
         21    1    1    2  503  502  0.11815110992E+03  0.27588777517E+02 -0.18932407756E+03  0.22486536363E+03  0.00000000000E+00 0. -1.
          1    1    1    2  501    0 -0.11815110992E+03 -0.27588777517E+02 -0.21877000180E+04  0.21910618874E+04  0.00000000000E+00 0. -1.
<mgrwt>
<rscale>  2 0.12132941E+03</rscale>
<asrwt>0</asrwt>
<pdfrwt beam="1">  1       21 0.29925512E-02 0.12132941E+03</pdfrwt>
<pdfrwt beam="2">  1        1 0.36868847E+00 0.12132941E+03</pdfrwt>
<totfact> 0.13997618E+04</totfact>
</mgrwt>
</event>
<event>
 4    1  0.5134057E+003  0.1520469E+03  0.7546771E-02  0.1197980E+00
         21   -1    0    0  503  502  0.00000000000E+00  0.00000000000E+00  0.53902450716E+02  0.53902450716E+02  0.00000000000E+00 0. -1.
          1   -1    0    0  502    0 -0.00000000000E+00 -0.00000000000E+00 -0.35424061215E+04  0.35424061215E+04  0.00000000000E+00 0. -1.
         21    1    1    2  503  501 -0.10049884934E+03 -0.11409750010E+03 -0.58462545698E+02  0.16289913289E+03  0.00000000000E+00 0. -1.
          1    1    1    2  501    0  0.10049884934E+03  0.11409750010E+03 -0.34300411251E+04  0.34334094394E+04  0.00000000000E+00 0. -1.
<mgrwt>
<rscale>  2 0.15204689E+03</rscale>
<asrwt>0</asrwt>
<pdfrwt beam="1">  1       21 0.82926810E-02 0.15204689E+03</pdfrwt>
<pdfrwt beam="2">  1        1 0.54498580E+00 0.15204689E+03</pdfrwt>
<totfact> 0.39911593E+02</totfact>
</mgrwt>
</event>
<event>
 4    1  0.5134057E+003  0.1079517E+03  0.7546771E-02  0.1264411E+00
          2   -1    0    0  503    0 -0.00000000000E+00  0.00000000000E+00  0.10922977921E+04  0.10922977921E+04  0.00000000000E+00 0. -1.
         21   -1    0    0  501  502  0.00000000000E+00 -0.00000000000E+00 -0.35101492735E+02  0.35101492735E+02  0.00000000000E+00 0.  1.
         21    1    1    2  503  502 -0.14302548903E+02 -0.10700006452E+03  0.58303472590E+02  0.12269014479E+03  0.00000000000E+00 0.  1.
          2    1    1    2  501    0  0.14302548903E+02  0.10700006452E+03  0.99889282682E+03  0.10047091401E+04  0.00000000000E+00 0. -1.
<mgrwt>
<rscale>  2 0.10795173E+03</rscale>
<asrwt>0</asrwt>
<pdfrwt beam="2">  1       21 0.54002305E-02 0.10795173E+03</pdfrwt>
<pdfrwt beam="1">  1        2 0.16804579E+00 0.10795173E+03</pdfrwt>
<totfact> 0.69640826E+04</totfact>
</mgrwt>
</event>
<event>
 4    1  0.5134057E+003  0.1067330E+03  0.7546771E-02  0.1266742E+00
         21   -1    0    0  503  502  0.00000000000E+00  0.00000000000E+00  0.23379136423E+03  0.23379136423E+03  0.00000000000E+00 0.  1.
         -3   -1    0    0    0  501 -0.00000000000E+00 -0.00000000000E+00 -0.33975771778E+03  0.33975771778E+03  0.00000000000E+00 0.  1.
         21    1    1    2  503  501 -0.10437060579E+03  0.22331779403E+02  0.21243178885E+03  0.23773766349E+03  0.00000000000E+00 0.  1.
         -3    1    1    2    0  502  0.10437060579E+03 -0.22331779403E+02 -0.31839814241E+03  0.33581141853E+03  0.00000000000E+00 0.  1.
<mgrwt>
<rscale>  2 0.10673299E+03</rscale>
<asrwt>0</asrwt>
<pdfrwt beam="1">  1       21 0.35967903E-01 0.10673299E+03</pdfrwt>
<pdfrwt beam="2">  1       -3 0.52270418E-01 0.10673299E+03</pdfrwt>
<totfact> 0.13412929E+03</totfact>
</mgrwt>
</event>
<event>
 4    1  0.5134057E+003  0.1091051E+03  0.7546771E-02  0.1262236E+00
          4   -1    0    0  503    0 -0.00000000000E+00  0.00000000000E+00  0.95518414907E+02  0.95518414907E+02  0.00000000000E+00 0. -1.
         21   -1    0    0  501  502  0.00000000000E+00 -0.00000000000E+00 -0.26120737957E+03  0.26120737957E+03  0.00000000000E+00 0.  1.
         21    1    1    2  503  502 -0.58464168789E+02 -0.92118697605E+02 -0.21182089178E+03  0.23826876353E+03  0.00000000000E+00 0.  1.
          4    1    1    2  501    0  0.58464168789E+02  0.92118697605E+02  0.46131927117E+02  0.11845703094E+03  0.00000000000E+00 0. -1.
<mgrwt>
<rscale>  2 0.10910506E+03</rscale>
<asrwt>0</asrwt>
<pdfrwt beam="2">  1       21 0.40185750E-01 0.10910506E+03</pdfrwt>
<pdfrwt beam="1">  1        4 0.14695141E-01 0.10910506E+03</pdfrwt>
<totfact> 0.94265044E+03</totfact>
</mgrwt>
</event>
<event>
 4    1  0.5134057E+003  0.1006085E+03  0.7546771E-02  0.1279022E+00
         21   -1    0    0  503  502  0.00000000000E+00  0.00000000000E+00  0.24852330603E+03  0.24852330603E+03  0.00000000000E+00 0. -1.
          1   -1    0    0  502    0 -0.00000000000E+00 -0.00000000000E+00 -0.82500291230E+02  0.82500291230E+02  0.00000000000E+00 0.  1.
         21    1    1    2  503  501 -0.53186358879E+02  0.85400656323E+02  0.20078325131E+03  0.22457955134E+03  0.00000000000E+00 0. -1.
          1    1    1    2  501    0  0.53186358879E+02 -0.85400656323E+02 -0.34760236509E+02  0.10644404593E+03  0.00000000000E+00 0.  1.
<mgrwt>
<rscale>  2 0.10060845E+03</rscale>
<asrwt>0</asrwt>
<pdfrwt beam="1">  1       21 0.38234354E-01 0.10060845E+03</pdfrwt>
<pdfrwt beam="2">  1        1 0.12692353E-01 0.10060845E+03</pdfrwt>
<totfact> 0.32596418E+04</totfact>
</mgrwt>
</event>
<event>
 4    1  0.5134057E+003  0.1435749E+03  0.7546771E-02  0.1208598E+00
         -4   -1    0    0    0  501 -0.00000000000E+00  0.00000000000E+00  0.14003696762E+03  0.14003696762E+03  0.00000000000E+00 0. -1.
         21   -1    0    0  503  502  0.00000000000E+00 -0.00000000000E+00 -0.18600618184E+03  0.18600618184E+03  0.00000000000E+00 0. -1.
         21    1    1    2  503  501  0.11847574542E+03 -0.81100325543E+02 -0.97443903549E+02  0.17351968014E+03  0.00000000000E+00 0. -1.
         -4    1    1    2    0  502 -0.11847574542E+03  0.81100325543E+02  0.51474689330E+02  0.15252346933E+03  0.00000000000E+00 0. -1.
<mgrwt>
<rscale>  2 0.14357495E+03</rscale>
<asrwt>0</asrwt>
<pdfrwt beam="2">  1       21 0.28616336E-01 0.14357495E+03</pdfrwt>
<pdfrwt beam="1">  1       -4 0.21544149E-01 0.14357495E+03</pdfrwt>
<totfact> 0.94955645E+03</totfact>
</mgrwt>
</event>
<event>
 4    1  0.5134057E+003  0.1200711E+03  0.7546771E-02  0.1242980E+00
         21   -1    0    0  503  502  0.00000000000E+00  0.00000000000E+00  0.24279510972E+03  0.24279510972E+03  0.00000000000E+00 0. -1.
         -2   -1    0    0    0  501 -0.00000000000E+00 -0.00000000000E+00 -0.52497654839E+03  0.52497654839E+03  0.00000000000E+00 0. -1.
         21    1    1    2  503  501 -0.77420334415E+02 -0.91777719582E+02  0.22043335869E+03  0.25101379169E+03  0.00000000000E+00 0. -1.
         -2    1    1    2    0  502  0.77420334415E+02  0.91777719582E+02 -0.50261479735E+03  0.51675786643E+03  0.00000000000E+00 0. -1.
<mgrwt>
<rscale>  2 0.12007105E+03</rscale>
<asrwt>0</asrwt>
<pdfrwt beam="1">  1       21 0.37353094E-01 0.12007105E+03</pdfrwt>
<pdfrwt beam="2">  1       -2 0.80765623E-01 0.12007105E+03</pdfrwt>
<totfact> 0.81104525E+02</totfact>
</mgrwt>
</event>
<event>
 4    1  0.5134057E+003  0.1067423E+03  0.7546771E-02  0.1266724E+00
         21   -1    0    0  501  502  0.00000000000E+00  0.00000000000E+00  0.18106131911E+03  0.18106131911E+03  0.00000000000E+00 0.  1.
          2   -1    0    0  503    0 -0.00000000000E+00 -0.00000000000E+00 -0.13537748220E+04  0.13537748220E+04  0.00000000000E+00 0.  1.
         21    1    1    2  503  502 -0.49231454429E+02  0.94711007889E+02  0.16301286696E+03  0.19485149708E+03  0.00000000000E+00 0.  1.
          2    1    1    2  501    0  0.49231454429E+02 -0.94711007889E+02 -0.13357263698E+04  0.13399846440E+04  0.00000000000E+00 0.  1.
<mgrwt>
<rscale>  2 0.10674226E+03</rscale>
<asrwt>0</asrwt>
<pdfrwt beam="1">  1       21 0.27855589E-01 0.10674226E+03</pdfrwt>
<pdfrwt beam="2">  1        2 0.20827304E+00 0.10674226E+03</pdfrwt>
<totfact> 0.27322173E+03</totfact>
</mgrwt>
</event>
<event>
 4    1  0.5134057E+003  0.1001457E+03  0.7546771E-02  0.1279990E+00
          2   -1    0    0  503    0 -0.00000000000E+00  0.00000000000E+00  0.10037612300E+04  0.10037612300E+04  0.00000000000E+00 0.  1.
         21   -1    0    0  501  502  0.00000000000E+00 -0.00000000000E+00 -0.23571165695E+02  0.23571165695E+02  0.00000000000E+00 0.  1.
         21    1    1    2  503  502 -0.96999416558E+02 -0.24905375411E+02  0.10021261038E+03  0.14167473951E+03  0.00000000000E+00 0.  1.
          2    1    1    2  501    0  0.96999416558E+02  0.24905375411E+02  0.87997745395E+03  0.88565765621E+03  0.00000000000E+00 0.  1.
<mgrwt>
<rscale>  2 0.10014572E+03</rscale>
<asrwt>0</asrwt>
<pdfrwt beam="2">  1       21 0.36263340E-02 0.10014572E+03</pdfrwt>
<pdfrwt beam="1">  1        2 0.15442477E+00 0.10014572E+03</pdfrwt>
<totfact> 0.15158669E+05</totfact>
</mgrwt>
</event>
<event>
 4    1  0.5134057E+003  0.1769503E+03  0.7546771E-02  0.1170788E+00
         21   -1    0    0  501  502  0.00000000000E+00  0.00000000000E+00  0.27759828068E+02  0.27759828068E+02  0.00000000000E+00 0.  1.
          2   -1    0    0  503    0 -0.00000000000E+00 -0.00000000000E+00 -0.11279741601E+04  0.11279741601E+04  0.00000000000E+00 0. -1.
         21    1    1    2  503  502  0.20974885520E+02  0.17570281064E+03 -0.55328218180E+03  0.58088948707E+03  0.00000000000E+00 0.  1.
          2    1    1    2  501    0 -0.20974885520E+02 -0.17570281064E+03 -0.54693215027E+03  0.57484450114E+03  0.00000000000E+00 0. -1.
<mgrwt>
<rscale>  2 0.17695034E+03</rscale>
<asrwt>0</asrwt>
<pdfrwt beam="1">  1       21 0.42707412E-02 0.17695034E+03</pdfrwt>
<pdfrwt beam="2">  1        2 0.17353455E+00 0.17695034E+03</pdfrwt>
<totfact> 0.98561249E+04</totfact>
</mgrwt>
</event>
<event>
 4    1  0.5134057E+003  0.1048032E+03  0.7546771E-02  0.1270508E+00
         21   -1    0    0  501  502  0.00000000000E+00  0.00000000000E+00  0.39957210009E+02  0.39957210009E+02  0.00000000000E+00 0.  1.
         -2   -1    0    0    0  501 -0.00000000000E+00 -0.00000000000E+00 -0.29979596176E+03  0.29979596176E+03  0.00000000000E+00 0.  1.
         21    1    1    2  503  502 -0.10458207896E+03  0.68044314927E+01 -0.80952796175E+02  0.13242759054E+03  0.00000000000E+00 0.  1.
         -2    1    1    2    0  503  0.10458207896E+03 -0.68044314927E+01 -0.17888595558E+03  0.20732558123E+03  0.00000000000E+00 0.  1.
<mgrwt>
<rscale>  2 0.10480320E+03</rscale>
<asrwt>0</asrwt>
<pdfrwt beam="1">  1       21 0.61472629E-02 0.10480320E+03</pdfrwt>
<pdfrwt beam="2">  1       -2 0.46122457E-01 0.10480320E+03</pdfrwt>
<totfact> 0.67145789E+04</totfact>
</mgrwt>
</event>
<event>
 4    1  0.5134057E+003  0.1090757E+03  0.7546771E-02  0.1262291E+00
          1   -1    0    0  503    0 -0.00000000000E+00  0.00000000000E+00  0.15061797050E+04  0.15061797050E+04  0.00000000000E+00 0.  1.
         21   -1    0    0  501  502  0.00000000000E+00 -0.00000000000E+00 -0.10527532385E+02  0.10527532385E+02  0.00000000000E+00 0. -1.
         21    1    1    2  503  502 -0.22498856236E+02 -0.10673003566E+03  0.36889960341E+03  0.38468742694E+03  0.00000000000E+00 0. -1.
          1    1    1    2  501    0  0.22498856236E+02  0.10673003566E+03  0.11267525692E+04  0.11320198104E+04  0.00000000000E+00 0.  1.
<mgrwt>
<rscale>  2 0.10907566E+03</rscale>
<asrwt>0</asrwt>
<pdfrwt beam="2">  1       21 0.16196216E-02 0.10907566E+03</pdfrwt>
<pdfrwt beam="1">  1        1 0.23171978E+00 0.10907566E+03</pdfrwt>
<totfact> 0.13922258E+05</totfact>
</mgrwt>
</event>
<event>
 4    1  0.5134057E+003  0.1105398E+03  0.7546771E-02  0.1259574E+00
         21   -1    0    0  501  502  0.00000000000E+00  0.00000000000E+00  0.16593236776E+02  0.16593236776E+02  0.00000000000E+00 0. -1.
          2   -1    0    0  503    0 -0.00000000000E+00 -0.00000000000E+00 -0.12362965502E+04  0.12362965502E+04  0.00000000000E+00 0. -1.
         21    1    1    2  503  502  0.11011840544E+03  0.96428530676E+01 -0.21149951428E+03  0.23864427999E+03  0.00000000000E+00 0. -1.
          2    1    1    2  501    0 -0.11011840544E+03 -0.96428530676E+01 -0.10082037991E+04  0.10142455070E+04  0.00000000000E+00 0. -1.
<mgrwt>
<rscale>  2 0.11053980E+03</rscale>
<asrwt>0</asrwt>
<pdfrwt beam="1">  1       21 0.25528052E-02 0.11053980E+03</pdfrwt>
<pdfrwt beam="2">  1        2 0.19019951E+00 0.11053980E+03</pdfrwt>
<totfact> 0.19948357E+05</totfact>
</mgrwt>
</event>
<event>
 4    1  0.5134057E+003  0.1047184E+03  0.7546771E-02  0.1270676E+00
          2   -1    0    0  503    0 -0.00000000000E+00  0.00000000000E+00  0.19731466407E+03  0.19731466407E+03  0.00000000000E+00 0.  1.
         21   -1    0    0  501  502  0.00000000000E+00 -0.00000000000E+00 -0.15550071349E+03  0.15550071349E+03  0.00000000000E+00 0. -1.
         21    1    1    2  503  502 -0.36903572177E+01 -0.10465331855E+03 -0.12050560173E+03  0.15964816275E+03  0.00000000000E+00 0. -1.
          2    1    1    2  501    0  0.36903572177E+01  0.10465331855E+03  0.16231955231E+03  0.19316721482E+03  0.00000000000E+00 0.  1.
<mgrwt>
<rscale>  2 0.10471836E+03</rscale>
<asrwt>0</asrwt>
<pdfrwt beam="2">  1       21 0.23923187E-01 0.10471836E+03</pdfrwt>
<pdfrwt beam="1">  1        2 0.30356102E-01 0.10471836E+03</pdfrwt>
<totfact> 0.35045283E+04</totfact>
</mgrwt>
</event>
<event>
 4    1  0.5134057E+003  0.1102640E+03  0.7546771E-02  0.1260082E+00
         21   -1    0    0  501  502  0.00000000000E+00  0.00000000000E+00  0.46803001916E+02  0.46803001916E+02  0.00000000000E+00 0.  1.
         -2   -1    0    0    0  501 -0.00000000000E+00 -0.00000000000E+00 -0.41333277669E+03  0.41333277669E+03  0.00000000000E+00 0.  1.
         21    1    1    2  503  502 -0.10074601217E+03 -0.44815133638E+02 -0.43033622005E+02  0.11836404773E+03  0.00000000000E+00 0.  1.
         -2    1    1    2    0  503  0.10074601217E+03  0.44815133638E+02 -0.32349615276E+03  0.34177173087E+03  0.00000000000E+00 0.  1.
<mgrwt>
<rscale>  2 0.11026402E+03</rscale>
<asrwt>0</asrwt>
<pdfrwt beam="1">  1       21 0.72004616E-02 0.11026402E+03</pdfrwt>
<pdfrwt beam="2">  1       -2 0.63589660E-01 0.11026402E+03</pdfrwt>
<totfact> 0.27056523E+04</totfact>
</mgrwt>
</event>
<event>
 4    1  0.5134057E+003  0.1080590E+03  0.7546771E-02  0.1264207E+00
          1   -1    0    0  502    0 -0.00000000000E+00  0.00000000000E+00  0.14013665255E+04  0.14013665255E+04  0.00000000000E+00 0.  1.
         21   -1    0    0  503  502  0.00000000000E+00 -0.00000000000E+00 -0.16541320363E+02  0.16541320363E+02  0.00000000000E+00 0.  1.
         21    1    1    2  503  501 -0.32999062146E+02 -0.10289707765E+03  0.19298109176E+03  0.22117515337E+03  0.00000000000E+00 0.  1.
          1    1    1    2  501    0  0.32999062146E+02  0.10289707765E+03  0.11918441134E+04  0.11967326925E+04  0.00000000000E+00 0.  1.
<mgrwt>
<rscale>  2 0.10805900E+03</rscale>
<asrwt>0</asrwt>
<pdfrwt beam="2">  1       21 0.25448196E-02 0.10805900E+03</pdfrwt>
<pdfrwt beam="1">  1        1 0.21559476E+00 0.10805900E+03</pdfrwt>
<totfact> 0.78677494E+04</totfact>
</mgrwt>
</event>
<event>
 4    1  0.5134057E+003  0.1149579E+03  0.7546771E-02  0.1251655E+00
         21   -1    0    0  501  502  0.00000000000E+00  0.00000000000E+00  0.78855630429E+01  0.78855630429E+01  0.00000000000E+00 0. -1.
          1   -1    0    0  503    0 -0.00000000000E+00 -0.00000000000E+00 -0.16817590171E+04  0.16817590171E+04  0.00000000000E+00 0. -1.
         21    1    1    2  503  502 -0.89607907078E+02 -0.72012128605E+02 -0.78702240886E+03  0.79537387167E+03  0.00000000000E+00 0. -1.
          1    1    1    2  501    0  0.89607907078E+02  0.72012128605E+02 -0.88685104521E+03  0.89427070850E+03  0.00000000000E+00 0. -1.
<mgrwt>
<rscale>  2 0.11495792E+03</rscale>
<asrwt>0</asrwt>
<pdfrwt beam="1">  1       21 0.12131635E-02 0.11495792E+03</pdfrwt>
<pdfrwt beam="2">  1        1 0.25873217E+00 0.11495792E+03</pdfrwt>
<totfact> 0.17030910E+05</totfact>
</mgrwt>
</event>
<event>
 4    1  0.5134057E+003  0.1041086E+03  0.7546771E-02  0.1271886E+00
         21   -1    0    0  501  502  0.00000000000E+00  0.00000000000E+00  0.47510688335E+02  0.47510688335E+02  0.00000000000E+00 0. -1.
          4   -1    0    0  503    0 -0.00000000000E+00 -0.00000000000E+00 -0.53041042739E+03  0.53041042739E+03  0.00000000000E+00 0.  1.
         21    1    1    2  503  502  0.51935711902E+02 -0.90229026558E+02 -0.23308605548E+02  0.10668592455E+03  0.00000000000E+00 0. -1.
          4    1    1    2  501    0 -0.51935711902E+02  0.90229026558E+02 -0.45959113351E+03  0.47123519118E+03  0.00000000000E+00 0.  1.
<mgrwt>
<rscale>  2 0.10410858E+03</rscale>
<asrwt>0</asrwt>
<pdfrwt beam="1">  1       21 0.73093370E-02 0.10410858E+03</pdfrwt>
<pdfrwt beam="2">  1        4 0.81601600E-01 0.10410858E+03</pdfrwt>
<totfact> 0.76332263E+03</totfact>
</mgrwt>
</event>
<event>
 4    1  0.5134057E+003  0.1122206E+03  0.7546771E-02  0.1256512E+00
         21   -1    0    0  501  502  0.00000000000E+00  0.00000000000E+00  0.13065760679E+02  0.13065760679E+02  0.00000000000E+00 0. -1.
         -2   -1    0    0    0  501 -0.00000000000E+00 -0.00000000000E+00 -0.14396507349E+04  0.14396507349E+04  0.00000000000E+00 0. -1.
         21    1    1    2  503  502  0.11221693729E+03  0.91132759008E+00 -0.29571841570E+03  0.31629551517E+03  0.00000000000E+00 0. -1.
         -2    1    1    2    0  503 -0.11221693729E+03 -0.91132759008E+00 -0.11308665585E+04  0.11364209804E+04  0.00000000000E+00 0. -1.
<mgrwt>
<rscale>  2 0.11222064E+03</rscale>
<asrwt>0</asrwt>
<pdfrwt beam="1">  1       21 0.20101169E-02 0.11222064E+03</pdfrwt>
<pdfrwt beam="2">  1       -2 0.22148475E+00 0.11222064E+03</pdfrwt>
<totfact> 0.10741665E+04</totfact>
</mgrwt>
</event>
<event>
 4    1  0.5134057E+003  0.1003369E+03  0.7546771E-02  0.1279589E+00
         -2   -1    0    0    0  501 -0.00000000000E+00  0.00000000000E+00  0.57340762780E+02  0.57340762780E+02  0.00000000000E+00 0. -1.
         21   -1    0    0  501  502  0.00000000000E+00 -0.00000000000E+00 -0.22651800621E+03  0.22651800621E+03  0.00000000000E+00 0. -1.
         21    1    1    2  503  502 -0.97699938463E+02 -0.22851996628E+02 -0.15189738587E+03  0.18204479547E+03  0.00000000000E+00 0. -1.
         -2    1    1    2    0  503  0.97699938463E+02  0.22851996628E+02 -0.17279857562E+02  0.10181397352E+03  0.00000000000E+00 0. -1.
<mgrwt>
<rscale>  2 0.10033689E+03</rscale>
<asrwt>0</asrwt>
<pdfrwt beam="2">  1       21 0.34848924E-01 0.10033689E+03</pdfrwt>
<pdfrwt beam="1">  1       -2 0.88216559E-02 0.10033689E+03</pdfrwt>
<totfact> 0.49369775E+04</totfact>
</mgrwt>
</event>
<event>
 4    1  0.5134057E+003  0.1035596E+03  0.7546771E-02  0.1272984E+00
         21   -1    0    0  501  502  0.00000000000E+00  0.00000000000E+00  0.75679156029E+01  0.75679156029E+01  0.00000000000E+00 0. -1.
          2   -1    0    0  503    0 -0.00000000000E+00 -0.00000000000E+00 -0.15286623795E+04  0.15286623795E+04  0.00000000000E+00 0. -1.
         21    1    1    2  503  502 -0.46268887881E+02  0.92648707430E+02 -0.55305408254E+03  0.56266634091E+03  0.00000000000E+00 0. -1.
          2    1    1    2  501    0  0.46268887881E+02 -0.92648707430E+02 -0.96804038139E+03  0.97356395423E+03  0.00000000000E+00 0. -1.
<mgrwt>
<rscale>  2 0.10355961E+03</rscale>
<asrwt>0</asrwt>
<pdfrwt beam="1">  1       21 0.11642936E-02 0.10355961E+03</pdfrwt>
<pdfrwt beam="2">  1        2 0.23517906E+00 0.10355961E+03</pdfrwt>
<totfact> 0.49012718E+05</totfact>
</mgrwt>
</event>
<event>
 4    1  0.5134057E+003  0.1174714E+03  0.7546771E-02  0.1247328E+00
         21   -1    0    0  501  502  0.00000000000E+00  0.00000000000E+00  0.44153160230E+02  0.44153160230E+02  0.00000000000E+00 0.  1.
          1   -1    0    0  503    0 -0.00000000000E+00 -0.00000000000E+00 -0.43368393928E+03  0.43368393928E+03  0.00000000000E+00 0. -1.
         21    1    1    2  503  502 -0.87777066889E+02  0.78068608680E+02 -0.68490088371E+02  0.13597945925E+03  0.00000000000E+00 0.  1.
          1    1    1    2  501    0  0.87777066889E+02 -0.78068608680E+02 -0.32104069068E+03  0.34185764026E+03  0.00000000000E+00 0. -1.
<mgrwt>
<rscale>  2 0.11747136E+03</rscale>
<asrwt>0</asrwt>
<pdfrwt beam="1">  1       21 0.67927939E-02 0.11747136E+03</pdfrwt>
<pdfrwt beam="2">  1        1 0.66720606E-01 0.11747136E+03</pdfrwt>
<totfact> 0.94646648E+04</totfact>
</mgrwt>
</event>
<event>
 4    1  0.5134057E+003  0.1048723E+03  0.7546771E-02  0.1270371E+00
         21   -1    0    0  503  502  0.00000000000E+00  0.00000000000E+00  0.21091141892E+02  0.21091141892E+02  0.00000000000E+00 0.  1.
          1   -1    0    0  502    0 -0.00000000000E+00 -0.00000000000E+00 -0.71335328395E+03  0.71335328395E+03  0.00000000000E+00 0.  1.
         21    1    1    2  503  501  0.97232940207E+02  0.39293234839E+02 -0.15567025798E+03  0.18770037875E+03  0.00000000000E+00 0.  1.
          1    1    1    2  501    0 -0.97232940207E+02 -0.39293234839E+02 -0.53659188408E+03  0.54674404709E+03  0.00000000000E+00 0.  1.
<mgrwt>
<rscale>  2 0.10487232E+03</rscale>
<asrwt>0</asrwt>
<pdfrwt beam="1">  1       21 0.32447912E-02 0.10487232E+03</pdfrwt>
<pdfrwt beam="2">  1        1 0.10974665E+00 0.10487232E+03</pdfrwt>
<totfact> 0.16671837E+05</totfact>
</mgrwt>
</event>
<event>
 4    1  0.5134057E+003  0.1008106E+03  0.7546771E-02  0.1278600E+00
         21   -1    0    0  501  502  0.00000000000E+00  0.00000000000E+00  0.36694550226E+01  0.36694550226E+01  0.00000000000E+00 0. -1.
          2   -1    0    0  503    0 -0.00000000000E+00 -0.00000000000E+00 -0.36061350958E+04  0.36061350958E+04  0.00000000000E+00 0.  1.
         21    1    1    2  503  502  0.54449348470E+02 -0.84841349379E+02 -0.93190328249E+03  0.93734012718E+03  0.00000000000E+00 0. -1.
          2    1    1    2  501    0 -0.54449348470E+02  0.84841349379E+02 -0.26705623583E+04  0.26724644236E+04  0.00000000000E+00 0.  1.
<mgrwt>
<rscale>  2 0.10081064E+03</rscale>
<asrwt>0</asrwt>
<pdfrwt beam="1">  1       21 0.56453000E-03 0.10081064E+03</pdfrwt>
<pdfrwt beam="2">  1        2 0.55479153E+00 0.10081064E+03</pdfrwt>
<totfact> 0.10949305E+05</totfact>
</mgrwt>
</event>
<event>
 4    1  0.5134057E+003  0.1016048E+03  0.7546771E-02  0.1276957E+00
          1   -1    0    0  503    0 -0.00000000000E+00  0.00000000000E+00  0.24786342868E+04  0.24786342868E+04  0.00000000000E+00 0.  1.
         21   -1    0    0  501  502  0.00000000000E+00 -0.00000000000E+00 -0.10048070084E+03  0.10048070084E+03  0.00000000000E+00 0.  1.
         21    1    1    2  503  502 -0.88625961409E+02  0.49688757264E+02 -0.73471230909E+02  0.12538562679E+03  0.00000000000E+00 0.  1.
          1    1    1    2  501    0  0.88625961409E+02 -0.49688757264E+02  0.24516248169E+04  0.24537293609E+04  0.00000000000E+00 0.  1.
<mgrwt>
<rscale>  2 0.10160479E+03</rscale>
<asrwt>0</asrwt>
<pdfrwt beam="2">  1       21 0.15458571E-01 0.10160479E+03</pdfrwt>
<pdfrwt beam="1">  1        1 0.38132830E+00 0.10160479E+03</pdfrwt>
<totfact> 0.76496824E+02</totfact>
</mgrwt>
</event>
<event>
 4    1  0.5134057E+003  0.1496785E+03  0.7546771E-02  0.1200869E+00
         -3   -1    0    0    0  501 -0.00000000000E+00  0.00000000000E+00  0.42105847583E+03  0.42105847583E+03  0.00000000000E+00 0.  1.
         21   -1    0    0  501  502  0.00000000000E+00 -0.00000000000E+00 -0.55473802087E+02  0.55473802087E+02  0.00000000000E+00 0.  1.
         21    1    1    2  503  502  0.79176419596E+02 -0.12702261993E+03  0.13463796553E+03  0.20132320571E+03  0.00000000000E+00 0.  1.
         -3    1    1    2    0  503 -0.79176419596E+02  0.12702261993E+03  0.23094670821E+03  0.27520907221E+03  0.00000000000E+00 0.  1.
<mgrwt>
<rscale>  2 0.14967849E+03</rscale>
<asrwt>0</asrwt>
<pdfrwt beam="2">  1       21 0.85344314E-02 0.14967849E+03</pdfrwt>
<pdfrwt beam="1">  1       -3 0.64778225E-01 0.14967849E+03</pdfrwt>
<totfact> 0.12250549E+04</totfact>
</mgrwt>
</event>
<event>
 4    1  0.5134057E+003  0.1258122E+03  0.7546771E-02  0.1233805E+00
         21   -1    0    0  503  502  0.00000000000E+00  0.00000000000E+00  0.11318155075E+03  0.11318155075E+03  0.00000000000E+00 0. -1.
         -2   -1    0    0    0  501 -0.00000000000E+00 -0.00000000000E+00 -0.14267803941E+03  0.14267803941E+03  0.00000000000E+00 0. -1.
         21    1    1    2  503  501 -0.66387533777E+02 -0.10687102606E+03  0.32547673290E+01  0.12585433788E+03  0.00000000000E+00 0. -1.
         -2    1    1    2    0  502  0.66387533777E+02  0.10687102606E+03 -0.32751255989E+02  0.13000525228E+03  0.00000000000E+00 0. -1.
<mgrwt>
<rscale>  2 0.12581224E+03</rscale>
<asrwt>0</asrwt>
<pdfrwt beam="1">  1       21 0.17412546E-01 0.12581224E+03</pdfrwt>
<pdfrwt beam="2">  1       -2 0.21950468E-01 0.12581224E+03</pdfrwt>
<totfact> 0.42067266E+04</totfact>
</mgrwt>
</event>
<event>
 4    1  0.5134057E+003  0.1169872E+03  0.7546771E-02  0.1248152E+00
          1   -1    0    0  503    0 -0.00000000000E+00  0.00000000000E+00  0.15438738825E+03  0.15438738825E+03  0.00000000000E+00 0.  1.
         21   -1    0    0  501  502  0.00000000000E+00 -0.00000000000E+00 -0.14365977456E+03  0.14365977456E+03  0.00000000000E+00 0.  1.
         21    1    1    2  503  502  0.75927535530E+02 -0.89000132488E+02 -0.86854740075E+02  0.14570435858E+03  0.00000000000E+00 0.  1.
          1    1    1    2  501    0 -0.75927535530E+02  0.89000132488E+02  0.97582353761E+02  0.15234280423E+03  0.00000000000E+00 0.  1.
<mgrwt>
<rscale>  2 0.11698724E+03</rscale>
<asrwt>0</asrwt>
<pdfrwt beam="2">  1       21 0.22101504E-01 0.11698724E+03</pdfrwt>
<pdfrwt beam="1">  1        1 0.23751906E-01 0.11698724E+03</pdfrwt>
<totfact> 0.41991146E+04</totfact>
</mgrwt>
</event>
<event>
 4    1  0.5134057E+003  0.1089065E+03  0.7546771E-02  0.1262608E+00
          1   -1    0    0  502    0 -0.00000000000E+00  0.00000000000E+00  0.20783002844E+04  0.20783002844E+04  0.00000000000E+00 0. -1.
         21   -1    0    0  503  502  0.00000000000E+00 -0.00000000000E+00 -0.34885190739E+03  0.34885190739E+03  0.00000000000E+00 0.  1.
         21    1    1    2  503  501 -0.93695357009E+02  0.55514013337E+02 -0.33888449622E+03  0.35595410854E+03  0.00000000000E+00 0.  1.
          1    1    1    2  501    0  0.93695357009E+02 -0.55514013337E+02  0.20683328732E+04  0.20711980833E+04  0.00000000000E+00 0. -1.
<mgrwt>
<rscale>  2 0.10890650E+03</rscale>
<asrwt>0</asrwt>
<pdfrwt beam="2">  1       21 0.53669525E-01 0.10890650E+03</pdfrwt>
<pdfrwt beam="1">  1        1 0.31973850E+00 0.10890650E+03</pdfrwt>
<totfact> 0.12515626E+02</totfact>
</mgrwt>
</event>
<event>
 4    1  0.5134057E+003  0.1060066E+03  0.7546771E-02  0.1268149E+00
          4   -1    0    0  503    0 -0.00000000000E+00  0.00000000000E+00  0.98238659037E+02  0.98238659037E+02  0.00000000000E+00 0. -1.
         21   -1    0    0  501  502  0.00000000000E+00 -0.00000000000E+00 -0.73728552405E+03  0.73728552405E+03  0.00000000000E+00 0.  1.
         21    1    1    2  503  502  0.94711600987E+02  0.47614220168E+02 -0.70351280279E+03  0.71145461206E+03  0.00000000000E+00 0.  1.
          4    1    1    2  501    0 -0.94711600987E+02 -0.47614220168E+02  0.64465937775E+02  0.12406957104E+03  0.00000000000E+00 0. -1.
<mgrwt>
<rscale>  2 0.10600661E+03</rscale>
<asrwt>0</asrwt>
<pdfrwt beam="2">  1       21 0.11342855E+00 0.10600661E+03</pdfrwt>
<pdfrwt beam="1">  1        4 0.15113639E-01 0.10600661E+03</pdfrwt>
<totfact> 0.94641555E+02</totfact>
</mgrwt>
</event>
<event>
 4    1  0.5134057E+003  0.1353919E+03  0.7546771E-02  0.1219668E+00
         21   -1    0    0  501  502  0.00000000000E+00  0.00000000000E+00  0.39513287640E+02  0.39513287640E+02  0.00000000000E+00 0.  1.
          1   -1    0    0  503    0 -0.00000000000E+00 -0.00000000000E+00 -0.52002207667E+03  0.52002207667E+03  0.00000000000E+00 0.  1.
         21    1    1    2  503  502  0.49978777334E+02 -0.12582957470E+03 -0.14836180986E+03  0.20085364492E+03  0.00000000000E+00 0.  1.
          1    1    1    2  501    0 -0.49978777334E+02  0.12582957470E+03 -0.33214697918E+03  0.35868171940E+03  0.00000000000E+00 0.  1.
<mgrwt>
<rscale>  2 0.13539188E+03</rscale>
<asrwt>0</asrwt>
<pdfrwt beam="1">  1       21 0.60789676E-02 0.13539188E+03</pdfrwt>
<pdfrwt beam="2">  1        1 0.80003393E-01 0.13539188E+03</pdfrwt>
<totfact> 0.90823109E+04</totfact>
</mgrwt>
</event>
<event>
 4    1  0.5134057E+003  0.1346465E+03  0.7546771E-02  0.1220720E+00
         -1   -1    0    0    0  501 -0.00000000000E+00  0.00000000000E+00  0.16928390379E+03  0.16928390379E+03  0.00000000000E+00 0. -1.
         21   -1    0    0  501  502  0.00000000000E+00 -0.00000000000E+00 -0.54361583261E+03  0.54361583261E+03  0.00000000000E+00 0.  1.
         21    1    1    2  503  502  0.12902456485E+02 -0.13402686332E+03 -0.50658020104E+03  0.52416903147E+03  0.00000000000E+00 0.  1.
         -1    1    1    2    0  503 -0.12902456485E+02  0.13402686332E+03  0.13224827222E+03  0.18873070492E+03  0.00000000000E+00 0. -1.
<mgrwt>
<rscale>  2 0.13464648E+03</rscale>
<asrwt>0</asrwt>
<pdfrwt beam="2">  1       21 0.83633206E-01 0.13464648E+03</pdfrwt>
<pdfrwt beam="1">  1       -1 0.26043677E-01 0.13464648E+03</pdfrwt>
<totfact> 0.15090680E+03</totfact>
</mgrwt>
</event>
<event>
 4    1  0.5134057E+003  0.1104108E+03  0.7546771E-02  0.1259811E+00
          1   -1    0    0  503    0 -0.00000000000E+00  0.00000000000E+00  0.50159082414E+03  0.50159082414E+03  0.00000000000E+00 0.  1.
         21   -1    0    0  501  502  0.00000000000E+00 -0.00000000000E+00 -0.14672603646E+04  0.14672603646E+04  0.00000000000E+00 0. -1.
         21    1    1    2  503  502  0.15978381455E+02 -0.10924850471E+03 -0.14590732866E+04  0.14632448189E+04  0.00000000000E+00 0. -1.
          1    1    1    2  501    0 -0.15978381455E+02  0.10924850471E+03  0.49340374615E+03  0.50560636979E+03  0.00000000000E+00 0.  1.
<mgrwt>
<rscale>  2 0.11041080E+03</rscale>
<asrwt>0</asrwt>
<pdfrwt beam="2">  1       21 0.22573236E+00 0.11041080E+03</pdfrwt>
<pdfrwt beam="1">  1        1 0.77167820E-01 0.11041080E+03</pdfrwt>
<totfact> 0.52003726E+01</totfact>
</mgrwt>
</event>
<event>
 4    1  0.5134057E+003  0.1430769E+03  0.7546771E-02  0.1209248E+00
         21   -1    0    0  503  502  0.00000000000E+00  0.00000000000E+00  0.68113696817E+03  0.68113696817E+03  0.00000000000E+00 0. -1.
          1   -1    0    0  502    0 -0.00000000000E+00 -0.00000000000E+00 -0.46506663148E+02  0.46506663148E+02  0.00000000000E+00 0.  1.
         21    1    1    2  503  501 -0.80093980218E+02  0.11855779877E+03  0.53371013118E+03  0.55255542838E+03  0.00000000000E+00 0. -1.
          1    1    1    2  501    0  0.80093980218E+02 -0.11855779877E+03  0.10092017384E+03  0.17508820293E+03  0.00000000000E+00 0.  1.
<mgrwt>
<rscale>  2 0.14307689E+03</rscale>
<asrwt>0</asrwt>
<pdfrwt beam="1">  1       21 0.10479030E+00 0.14307689E+03</pdfrwt>
<pdfrwt beam="2">  1        1 0.71548718E-02 0.14307689E+03</pdfrwt>
<totfact> 0.79558209E+03</totfact>
</mgrwt>
</event>
<event>
 4    1  0.5134057E+003  0.3842346E+03  0.7546771E-02  0.1049380E+00
          1   -1    0    0  503    0 -0.00000000000E+00  0.00000000000E+00  0.13677564928E+04  0.13677564928E+04  0.00000000000E+00 0.  1.
         21   -1    0    0  501  502  0.00000000000E+00 -0.00000000000E+00 -0.26128749961E+03  0.26128749961E+03  0.00000000000E+00 0. -1.
         21    1    1    2  503  502  0.13690731124E+03  0.35901614409E+03 -0.70760722455E+02  0.39069589636E+03  0.00000000000E+00 0. -1.
          1    1    1    2  501    0 -0.13690731124E+03 -0.35901614409E+03  0.11772297156E+04  0.12383480960E+04  0.00000000000E+00 0.  1.
<mgrwt>
<rscale>  2 0.38423457E+03</rscale>
<asrwt>0</asrwt>
<pdfrwt beam="2">  1       21 0.40198078E-01 0.38423457E+03</pdfrwt>
<pdfrwt beam="1">  1        1 0.21042407E+00 0.38423457E+03</pdfrwt>
<totfact> 0.54115930E+02</totfact>
</mgrwt>
</event>
<event>
 4    1  0.5134057E+003  0.1535193E+03  0.7546771E-02  0.1196214E+00
         -3   -1    0    0    0  501 -0.00000000000E+00  0.00000000000E+00  0.91471860535E+03  0.91471860535E+03  0.00000000000E+00 0.  1.
         21   -1    0    0  503  502  0.00000000000E+00 -0.00000000000E+00 -0.30347117707E+02  0.30347117707E+02  0.00000000000E+00 0.  1.
         21    1    1    2  503  501  0.28308672451E+01  0.15349316568E+03  0.25858113818E+03  0.30071975450E+03  0.00000000000E+00 0.  1.
         -3    1    1    2    0  502 -0.28308672451E+01 -0.15349316568E+03  0.62579034946E+03  0.64434596856E+03  0.00000000000E+00 0.  1.
<mgrwt>
<rscale>  2 0.15351927E+03</rscale>
<asrwt>0</asrwt>
<pdfrwt beam="2">  1       21 0.46687880E-02 0.15351927E+03</pdfrwt>
<pdfrwt beam="1">  1       -3 0.14072592E+00 0.15351927E+03</pdfrwt>
<totfact> 0.59527862E+03</totfact>
</mgrwt>
</event>
<event>
 4    1  0.5134057E+003  0.1311059E+03  0.7546771E-02  0.1225824E+00
          2   -1    0    0  503    0 -0.00000000000E+00  0.00000000000E+00  0.17018993508E+03  0.17018993508E+03  0.00000000000E+00 0.  1.
         21   -1    0    0  501  502  0.00000000000E+00 -0.00000000000E+00 -0.72884552987E+03  0.72884552987E+03  0.00000000000E+00 0. -1.
         21    1    1    2  503  502 -0.79276865468E+02  0.10442196478E+03 -0.69653935270E+03  0.70877065260E+03  0.00000000000E+00 0. -1.
          2    1    1    2  501    0  0.79276865468E+02 -0.10442196478E+03  0.13788375790E+03  0.19026481236E+03  0.00000000000E+00 0.  1.
<mgrwt>
<rscale>  2 0.13110594E+03</rscale>
<asrwt>0</asrwt>
<pdfrwt beam="2">  1       21 0.11213008E+00 0.13110594E+03</pdfrwt>
<pdfrwt beam="1">  1        2 0.26183067E-01 0.13110594E+03</pdfrwt>
<totfact> 0.16159958E+03</totfact>
</mgrwt>
</event>
<event>
 4    1  0.5134057E+003  0.1115403E+03  0.7546771E-02  0.1257744E+00
          1   -1    0    0  502    0 -0.00000000000E+00  0.00000000000E+00  0.24218524483E+03  0.24218524483E+03  0.00000000000E+00 0. -1.
         21   -1    0    0  503  502  0.00000000000E+00 -0.00000000000E+00 -0.20629889375E+03  0.20629889375E+03  0.00000000000E+00 0. -1.
         21    1    1    2  503  501 -0.14126098403E+02  0.11064214675E+03 -0.17638413424E+03  0.20869258278E+03  0.00000000000E+00 0. -1.
          1    1    1    2  501    0  0.14126098403E+02 -0.11064214675E+03  0.21227048532E+03  0.23979155580E+03  0.00000000000E+00 0. -1.
<mgrwt>
<rscale>  2 0.11154027E+03</rscale>
<asrwt>0</asrwt>
<pdfrwt beam="2">  1       21 0.31738291E-01 0.11154027E+03</pdfrwt>
<pdfrwt beam="1">  1        1 0.37259268E-01 0.11154027E+03</pdfrwt>
<totfact> 0.12103422E+04</totfact>
</mgrwt>
</event>
<event>
 4    1  0.5134057E+003  0.1775076E+03  0.7546771E-02  0.1170237E+00
         -1   -1    0    0    0  501 -0.00000000000E+00  0.00000000000E+00  0.51429532233E+02  0.51429532233E+02  0.00000000000E+00 0.  1.
         21   -1    0    0  501  502  0.00000000000E+00 -0.00000000000E+00 -0.92187152870E+03  0.92187152870E+03  0.00000000000E+00 0.  1.
         21    1    1    2  503  502  0.97578085742E+02 -0.14828170113E+03 -0.71706453782E+03  0.73870866863E+03  0.00000000000E+00 0.  1.
         -1    1    1    2    0  503 -0.97578085742E+02  0.14828170113E+03 -0.15337745865E+03  0.23459239231E+03  0.00000000000E+00 0.  1.
<mgrwt>
<rscale>  2 0.17750759E+03</rscale>
<asrwt>0</asrwt>
<pdfrwt beam="2">  1       21 0.14182638E+00 0.17750759E+03</pdfrwt>
<pdfrwt beam="1">  1       -1 0.79122360E-02 0.17750759E+03</pdfrwt>
<totfact> 0.27119036E+03</totfact>
</mgrwt>
</event>
<event>
 4    1  0.5134057E+003  0.1217095E+03  0.7546771E-02  0.1240303E+00
          1   -1    0    0  503    0 -0.00000000000E+00  0.00000000000E+00  0.10850218269E+04  0.10850218269E+04  0.00000000000E+00 0.  1.
         21   -1    0    0  501  502  0.00000000000E+00 -0.00000000000E+00 -0.64333910290E+02  0.64333910290E+02  0.00000000000E+00 0. -1.
         21    1    1    2  503  502 -0.12114493974E+03 -0.11709451409E+02  0.27481456209E+00  0.12170983197E+03  0.00000000000E+00 0. -1.
          1    1    1    2  501    0  0.12114493974E+03  0.11709451409E+02  0.10204131020E+04  0.10276459052E+04  0.00000000000E+00 0.  1.
<mgrwt>
<rscale>  2 0.12170952E+03</rscale>
<asrwt>0</asrwt>
<pdfrwt beam="2">  1       21 0.98975254E-02 0.12170952E+03</pdfrwt>
<pdfrwt beam="1">  1        1 0.16692642E+00 0.12170952E+03</pdfrwt>
<totfact> 0.13136818E+04</totfact>
</mgrwt>
</event>
<event>
 4    1  0.5134057E+003  0.1370531E+03  0.7546771E-02  0.1217350E+00
          2   -1    0    0  502    0 -0.00000000000E+00  0.00000000000E+00  0.58511676861E+03  0.58511676861E+03  0.00000000000E+00 0. -1.
         21   -1    0    0  503  502  0.00000000000E+00 -0.00000000000E+00 -0.36924837792E+02  0.36924837792E+02  0.00000000000E+00 0. -1.
         21    1    1    2  503  501 -0.84656697310E+02 -0.10778123002E+03  0.16169466035E+03  0.21196394300E+03  0.00000000000E+00 0. -1.
          2    1    1    2  501    0  0.84656697310E+02  0.10778123002E+03  0.38649727047E+03  0.41007766341E+03  0.00000000000E+00 0. -1.
<mgrwt>
<rscale>  2 0.13705309E+03</rscale>
<asrwt>0</asrwt>
<pdfrwt beam="2">  1       21 0.56807447E-02 0.13705309E+03</pdfrwt>
<pdfrwt beam="1">  1        2 0.90017958E-01 0.13705309E+03</pdfrwt>
<totfact> 0.14025279E+05</totfact>
</mgrwt>
</event>
<event>
 4    1  0.5134057E+003  0.3013567E+03  0.7546771E-02  0.1084564E+00
          2   -1    0    0  503    0 -0.00000000000E+00  0.00000000000E+00  0.54399012016E+03  0.54399012016E+03  0.00000000000E+00 0. -1.
         21   -1    0    0  501  502  0.00000000000E+00 -0.00000000000E+00 -0.69381063479E+03  0.69381063479E+03  0.00000000000E+00 0. -1.
         21    1    1    2  503  502 -0.26647979956E+03 -0.14072805774E+03 -0.61423535696E+03  0.68417902887E+03  0.00000000000E+00 0. -1.
          2    1    1    2  501    0  0.26647979956E+03  0.14072805774E+03  0.46441484233E+03  0.55362172608E+03  0.00000000000E+00 0. -1.
<mgrwt>
<rscale>  2 0.30135672E+03</rscale>
<asrwt>0</asrwt>
<pdfrwt beam="2">  1       21 0.10674010E+00 0.30135672E+03</pdfrwt>
<pdfrwt beam="1">  1        2 0.83690788E-01 0.30135672E+03</pdfrwt>
<totfact> 0.47027183E+02</totfact>
</mgrwt>
</event>
<event>
 4    1  0.5134057E+003  0.1006286E+03  0.7546771E-02  0.1278980E+00
         -4   -1    0    0    0  501 -0.00000000000E+00  0.00000000000E+00  0.10290415133E+03  0.10290415133E+03  0.00000000000E+00 0.  1.
         21   -1    0    0  503  502  0.00000000000E+00 -0.00000000000E+00 -0.11094623413E+03  0.11094623413E+03  0.00000000000E+00 0.  1.
         21    1    1    2  503  501  0.83471287486E+02  0.56201999332E+02 -0.39972890209E+02  0.10827720219E+03  0.00000000000E+00 0.  1.
         -4    1    1    2    0  502 -0.83471287486E+02 -0.56201999332E+02  0.31930807407E+02  0.10557318327E+03  0.00000000000E+00 0.  1.
<mgrwt>
<rscale>  2 0.10062863E+03</rscale>
<asrwt>0</asrwt>
<pdfrwt beam="2">  1       21 0.17068651E-01 0.10062863E+03</pdfrwt>
<pdfrwt beam="1">  1       -4 0.15831408E-01 0.10062863E+03</pdfrwt>
<totfact> 0.41495977E+04</totfact>
</mgrwt>
</event>
<event>
 4    1  0.5134057E+003  0.1456218E+03  0.7546771E-02  0.1205958E+00
          2   -1    0    0  503    0 -0.00000000000E+00  0.00000000000E+00  0.18321308004E+04  0.18321308004E+04  0.00000000000E+00 0.  1.
         21   -1    0    0  501  502  0.00000000000E+00 -0.00000000000E+00 -0.21540417183E+02  0.21540417183E+02  0.00000000000E+00 0.  1.
         21    1    1    2  503  502  0.92564594631E+02  0.11241666939E+03  0.27486399401E+03  0.31105614756E+03  0.00000000000E+00 0.  1.
          2    1    1    2  501    0 -0.92564594631E+02 -0.11241666939E+03  0.15357263892E+04  0.15426150700E+04  0.00000000000E+00 0.  1.
<mgrwt>
<rscale>  2 0.14562181E+03</rscale>
<asrwt>0</asrwt>
<pdfrwt beam="2">  1       21 0.33139118E-02 0.14562181E+03</pdfrwt>
<pdfrwt beam="1">  1        2 0.28186616E+00 0.14562181E+03</pdfrwt>
<totfact> 0.63707577E+04</totfact>
</mgrwt>
</event>
<event>
 4    1  0.5134057E+003  0.1549007E+03  0.7546771E-02  0.1194577E+00
         21   -1    0    0  503  502  0.00000000000E+00  0.00000000000E+00  0.14472986250E+03  0.14472986250E+03  0.00000000000E+00 0. -1.
         -1   -1    0    0    0  501 -0.00000000000E+00 -0.00000000000E+00 -0.20547876894E+03  0.20547876894E+03  0.00000000000E+00 0.  1.
         21    1    1    2  503  501  0.88502975883E+02 -0.12712772826E+03  0.46585915709E+02  0.16175439275E+03  0.00000000000E+00 0. -1.
         -1    1    1    2    0  502 -0.88502975883E+02  0.12712772826E+03 -0.10733482216E+03  0.18845423869E+03  0.00000000000E+00 0.  1.
<mgrwt>
<rscale>  2 0.15490073E+03</rscale>
<asrwt>0</asrwt>
<pdfrwt beam="1">  1       21 0.22266133E-01 0.15490073E+03</pdfrwt>
<pdfrwt beam="2">  1       -1 0.31612118E-01 0.15490073E+03</pdfrwt>
<totfact> 0.16153069E+04</totfact>
</mgrwt>
</event>
<event>
 4    1  0.5134057E+003  0.1073230E+03  0.7546771E-02  0.1265609E+00
         21   -1    0    0  501  502  0.00000000000E+00  0.00000000000E+00  0.37395021169E+03  0.37395021169E+03  0.00000000000E+00 0. -1.
          2   -1    0    0  503    0 -0.00000000000E+00 -0.00000000000E+00 -0.96785042095E+02  0.96785042095E+02  0.00000000000E+00 0. -1.
         21    1    1    2  503  502 -0.79651891842E+02  0.71929192619E+02  0.33292176843E+03  0.34979299095E+03  0.00000000000E+00 0. -1.
          2    1    1    2  501    0  0.79651891842E+02 -0.71929192619E+02 -0.55756598837E+02  0.12094226283E+03  0.00000000000E+00 0. -1.
<mgrwt>
<rscale>  2 0.10732303E+03</rscale>
<asrwt>0</asrwt>
<pdfrwt beam="1">  1       21 0.57530801E-01 0.10732303E+03</pdfrwt>
<pdfrwt beam="2">  1        2 0.14890007E-01 0.10732303E+03</pdfrwt>
<totfact> 0.13729902E+04</totfact>
</mgrwt>
</event>
<event>
 4    1  0.5134057E+003  0.1370781E+03  0.7546771E-02  0.1217316E+00
         -1   -1    0    0    0  501 -0.00000000000E+00  0.00000000000E+00  0.27452983852E+03  0.27452983852E+03  0.00000000000E+00 0. -1.
         21   -1    0    0  503  502  0.00000000000E+00 -0.00000000000E+00 -0.68446064700E+02  0.68446064700E+02  0.00000000000E+00 0. -1.
         21    1    1    2  503  501 -0.13527859894E+03 -0.22138331328E+02  0.10340022245E+03  0.17170326452E+03  0.00000000000E+00 0. -1.
         -1    1    1    2    0  502  0.13527859894E+03  0.22138331328E+02  0.10268355136E+03  0.17127263869E+03  0.00000000000E+00 0. -1.
<mgrwt>
<rscale>  2 0.13707810E+03</rscale>
<asrwt>0</asrwt>
<pdfrwt beam="2">  1       21 0.10530164E-01 0.13707810E+03</pdfrwt>
<pdfrwt beam="1">  1       -1 0.42235359E-01 0.13707810E+03</pdfrwt>
<totfact> 0.37970939E+04</totfact>
</mgrwt>
</event>
<event>
 4    1  0.5134057E+003  0.1504941E+03  0.7546771E-02  0.1199867E+00
         21   -1    0    0  503  502  0.00000000000E+00  0.00000000000E+00  0.15941531050E+03  0.15941531050E+03  0.00000000000E+00 0. -1.
         -1   -1    0    0    0  501 -0.00000000000E+00 -0.00000000000E+00 -0.18582672066E+03  0.18582672066E+03  0.00000000000E+00 0.  1.
         21    1    1    2  503  501 -0.50229670402E+02  0.14186422550E+03  0.70557102537E+02  0.16621306502E+03  0.00000000000E+00 0. -1.
         -1    1    1    2    0  502  0.50229670402E+02 -0.14186422550E+03 -0.96968512698E+02  0.17902896615E+03  0.00000000000E+00 0.  1.
<mgrwt>
<rscale>  2 0.15049411E+03</rscale>
<asrwt>0</asrwt>
<pdfrwt beam="1">  1       21 0.24525432E-01 0.15049411E+03</pdfrwt>
<pdfrwt beam="2">  1       -1 0.28588726E-01 0.15049411E+03</pdfrwt>
<totfact> 0.15947558E+04</totfact>
</mgrwt>
</event>
<event>
 4    1  0.5134057E+003  0.1006335E+03  0.7546771E-02  0.1278969E+00
          2   -1    0    0  502    0 -0.00000000000E+00  0.00000000000E+00  0.11863581787E+04  0.11863581787E+04  0.00000000000E+00 0.  1.
         21   -1    0    0  503  502  0.00000000000E+00 -0.00000000000E+00 -0.26850077710E+02  0.26850077710E+02  0.00000000000E+00 0. -1.
         21    1    1    2  503  501 -0.59601858269E+02  0.81084687908E+02  0.78772688315E+02  0.12779767035E+03  0.00000000000E+00 0. -1.
          2    1    1    2  501    0  0.59601858269E+02 -0.81084687908E+02  0.10807354127E+04  0.10854105861E+04  0.00000000000E+00 0.  1.
<mgrwt>
<rscale>  2 0.10063353E+03</rscale>
<asrwt>0</asrwt>
<pdfrwt beam="2">  1       21 0.41307821E-02 0.10063353E+03</pdfrwt>
<pdfrwt beam="1">  1        2 0.18251660E+00 0.10063353E+03</pdfrwt>
<totfact> 0.96399447E+04</totfact>
</mgrwt>
</event>
<event>
 4    1  0.5134057E+003  0.1021325E+03  0.7546771E-02  0.1275874E+00
         21   -1    0    0  503  502  0.00000000000E+00  0.00000000000E+00  0.31195011963E+02  0.31195011963E+02  0.00000000000E+00 0. -1.
         -1   -1    0    0    0  501 -0.00000000000E+00 -0.00000000000E+00 -0.10661297185E+04  0.10661297185E+04  0.00000000000E+00 0.  1.
         21    1    1    2  503  501  0.99042481852E+02  0.24932749588E+02 -0.62918265855E+02  0.11995733988E+03  0.00000000000E+00 0. -1.
         -1    1    1    2    0  502 -0.99042481852E+02 -0.24932749588E+02 -0.97201644073E+03  0.97736739062E+03  0.00000000000E+00 0.  1.
<mgrwt>
<rscale>  2 0.10213254E+03</rscale>
<asrwt>0</asrwt>
<pdfrwt beam="1">  1       21 0.47992320E-02 0.10213254E+03</pdfrwt>
<pdfrwt beam="2">  1       -1 0.16401998E+00 0.10213254E+03</pdfrwt>
<totfact> 0.82039568E+03</totfact>
</mgrwt>
</event>
<event>
 4    1  0.5134057E+003  0.1511857E+03  0.7546771E-02  0.1199024E+00
          1   -1    0    0  503    0 -0.00000000000E+00  0.00000000000E+00  0.17957880409E+04  0.17957880409E+04  0.00000000000E+00 0. -1.
         21   -1    0    0  501  502  0.00000000000E+00 -0.00000000000E+00 -0.12841166732E+02  0.12841166732E+02  0.00000000000E+00 0. -1.
         21    1    1    2  503  502 -0.10436534856E+03 -0.10938463406E+03  0.97629759340E+03  0.98793426656E+03  0.00000000000E+00 0. -1.
          1    1    1    2  501    0  0.10436534856E+03  0.10938463406E+03  0.80664928076E+03  0.82069494107E+03  0.00000000000E+00 0. -1.
<mgrwt>
<rscale>  2 0.15118573E+03</rscale>
<asrwt>0</asrwt>
<pdfrwt beam="2">  1       21 0.19755655E-02 0.15118573E+03</pdfrwt>
<pdfrwt beam="1">  1        1 0.27627488E+00 0.15118573E+03</pdfrwt>
<totfact> 0.66007128E+04</totfact>
</mgrwt>
</event>
<event>
 4    1  0.5134057E+003  0.1881397E+03  0.7546771E-02  0.1160150E+00
         21   -1    0    0  501  502  0.00000000000E+00  0.00000000000E+00  0.18410001629E+03  0.18410001629E+03  0.00000000000E+00 0.  1.
          4   -1    0    0  503    0 -0.00000000000E+00 -0.00000000000E+00 -0.21151875138E+03  0.21151875138E+03  0.00000000000E+00 0. -1.
         21    1    1    2  503  502  0.18366288060E+03 -0.40798199627E+02  0.45966122926E+02  0.19367351719E+03  0.00000000000E+00 0.  1.
          4    1    1    2  501    0 -0.18366288060E+03  0.40798199627E+02 -0.73384858022E+02  0.20194525048E+03  0.00000000000E+00 0. -1.
<mgrwt>
<rscale>  2 0.18813970E+03</rscale>
<asrwt>0</asrwt>
<pdfrwt beam="1">  1       21 0.28323079E-01 0.18813970E+03</pdfrwt>
<pdfrwt beam="2">  1        4 0.32541346E-01 0.18813970E+03</pdfrwt>
<totfact> 0.45549567E+03</totfact>
</mgrwt>
</event>
<event>
 4    1  0.5134057E+003  0.1046852E+03  0.7546771E-02  0.1270741E+00
         21   -1    0    0  501  502  0.00000000000E+00  0.00000000000E+00  0.36200444816E+01  0.36200444816E+01  0.00000000000E+00 0. -1.
          2   -1    0    0  503    0 -0.00000000000E+00 -0.00000000000E+00 -0.33535038978E+04  0.33535038978E+04  0.00000000000E+00 0.  1.
         21    1    1    2  503  502 -0.92857557690E+02 -0.48336988387E+02 -0.11514294172E+04  0.11561784867E+04  0.00000000000E+00 0. -1.
          2    1    1    2  501    0  0.92857557690E+02  0.48336988387E+02 -0.21984544361E+04  0.22009454555E+04  0.00000000000E+00 0.  1.
<mgrwt>
<rscale>  2 0.10468520E+03</rscale>
<asrwt>0</asrwt>
<pdfrwt beam="1">  1       21 0.55692806E-03 0.10468520E+03</pdfrwt>
<pdfrwt beam="2">  1        2 0.51592540E+00 0.10468520E+03</pdfrwt>
<totfact> 0.16178563E+05</totfact>
</mgrwt>
</event>
<event>
 4    1  0.5134057E+003  0.1094725E+03  0.7546771E-02  0.1261550E+00
          2   -1    0    0  502    0 -0.00000000000E+00  0.00000000000E+00  0.10272836985E+04  0.10272836985E+04  0.00000000000E+00 0.  1.
         21   -1    0    0  503  502  0.00000000000E+00 -0.00000000000E+00 -0.90832495216E+02  0.90832495216E+02  0.00000000000E+00 0. -1.
         21    1    1    2  503  501  0.39895336768E+02  0.10194409146E+03 -0.53698290649E+02  0.12193335105E+03  0.00000000000E+00 0. -1.
          2    1    1    2  501    0 -0.39895336768E+02 -0.10194409146E+03  0.99014949396E+03  0.99618284269E+03  0.00000000000E+00 0.  1.
<mgrwt>
<rscale>  2 0.10947253E+03</rscale>
<asrwt>0</asrwt>
<pdfrwt beam="2">  1       21 0.13974231E-01 0.10947253E+03</pdfrwt>
<pdfrwt beam="1">  1        2 0.15804364E+00 0.10947253E+03</pdfrwt>
<totfact> 0.14685216E+04</totfact>
</mgrwt>
</event>
<event>
 4    1  0.5134057E+003  0.1167869E+03  0.7546771E-02  0.1248494E+00
         21   -1    0    0  503  502  0.00000000000E+00  0.00000000000E+00  0.19566274994E+02  0.19566274994E+02  0.00000000000E+00 0.  1.
          2   -1    0    0  502    0 -0.00000000000E+00 -0.00000000000E+00 -0.71815437480E+03  0.71815437480E+03  0.00000000000E+00 0. -1.
         21    1    1    2  503  501 -0.15608369945E+02 -0.11573918452E+03 -0.28610061690E+03  0.30901900109E+03  0.00000000000E+00 0.  1.
          2    1    1    2  501    0  0.15608369945E+02  0.11573918452E+03 -0.41248748291E+03  0.42870164870E+03  0.00000000000E+00 0. -1.
<mgrwt>
<rscale>  2 0.11678690E+03</rscale>
<asrwt>0</asrwt>
<pdfrwt beam="1">  1       21 0.30101965E-02 0.11678690E+03</pdfrwt>
<pdfrwt beam="2">  1        2 0.11048527E+00 0.11678690E+03</pdfrwt>
<totfact> 0.31615390E+05</totfact>
</mgrwt>
</event>
<event>
 4    1  0.5134057E+003  0.1059974E+03  0.7546771E-02  0.1268167E+00
          3   -1    0    0  502    0 -0.00000000000E+00  0.00000000000E+00  0.11580147658E+03  0.11580147658E+03  0.00000000000E+00 0.  1.
         21   -1    0    0  503  502  0.00000000000E+00 -0.00000000000E+00 -0.15897660344E+03  0.15897660344E+03  0.00000000000E+00 0.  1.
         21    1    1    2  503  501  0.10479020052E+03  0.15952142373E+02 -0.10735397604E+03  0.15086528144E+03  0.00000000000E+00 0.  1.
          3    1    1    2  501    0 -0.10479020052E+03 -0.15952142373E+02  0.64178849184E+02  0.12391279859E+03  0.00000000000E+00 0.  1.
<mgrwt>
<rscale>  2 0.10599744E+03</rscale>
<asrwt>0</asrwt>
<pdfrwt beam="2">  1       21 0.24457939E-01 0.10599744E+03</pdfrwt>
<pdfrwt beam="1">  1        3 0.17815612E-01 0.10599744E+03</pdfrwt>
<totfact> 0.20573875E+04</totfact>
</mgrwt>
</event>
<event>
 4    1  0.5134057E+003  0.1009592E+03  0.7546771E-02  0.1278292E+00
         21   -1    0    0  503  502  0.00000000000E+00  0.00000000000E+00  0.26940718599E+03  0.26940718599E+03  0.00000000000E+00 0.  1.
          1   -1    0    0  502    0 -0.00000000000E+00 -0.00000000000E+00 -0.35552043938E+04  0.35552043938E+04  0.00000000000E+00 0. -1.
         21    1    1    2  503  501 -0.32011782374E+02 -0.95749705714E+02  0.25920471254E+03  0.27817232673E+03  0.00000000000E+00 0.  1.
          1    1    1    2  501    0  0.32011782374E+02  0.95749705714E+02 -0.35450019204E+04  0.35464392531E+04  0.00000000000E+00 0. -1.
<mgrwt>
<rscale>  2 0.10095920E+03</rscale>
<asrwt>0</asrwt>
<pdfrwt beam="1">  1       21 0.41447261E-01 0.10095920E+03</pdfrwt>
<pdfrwt beam="2">  1        1 0.54695450E+00 0.10095920E+03</pdfrwt>
<totfact> 0.21742924E+01</totfact>
</mgrwt>
</event>
<event>
 4    1  0.5134057E+003  0.1113968E+03  0.7546771E-02  0.1258005E+00
         21   -1    0    0  503  502  0.00000000000E+00  0.00000000000E+00  0.14984468781E+03  0.14984468781E+03  0.00000000000E+00 0. -1.
          2   -1    0    0  502    0 -0.00000000000E+00 -0.00000000000E+00 -0.34822564277E+03  0.34822564277E+03  0.00000000000E+00 0.  1.
         21    1    1    2  503  501  0.90065811384E+02  0.65554565388E+02  0.11822487791E+03  0.16243882904E+03  0.00000000000E+00 0. -1.
          2    1    1    2  501    0 -0.90065811384E+02 -0.65554565388E+02 -0.31660583286E+03  0.33563150154E+03  0.00000000000E+00 0.  1.
<mgrwt>
<rscale>  2 0.11139682E+03</rscale>
<asrwt>0</asrwt>
<pdfrwt beam="1">  1       21 0.23053029E-01 0.11139682E+03</pdfrwt>
<pdfrwt beam="2">  1        2 0.53573176E-01 0.11139682E+03</pdfrwt>
<totfact> 0.20594994E+04</totfact>
</mgrwt>
</event>
<event>
 4    1  0.5134057E+003  0.1008729E+03  0.7546771E-02  0.1278471E+00
          1   -1    0    0  502    0 -0.00000000000E+00  0.00000000000E+00  0.43700851362E+03  0.43700851362E+03  0.00000000000E+00 0.  1.
         21   -1    0    0  503  502  0.00000000000E+00 -0.00000000000E+00 -0.68372063623E+02  0.68372063623E+02  0.00000000000E+00 0. -1.
         21    1    1    2  503  501  0.95293993213E+02 -0.33081566013E+02 -0.20882873252E+02  0.10301179324E+03  0.00000000000E+00 0. -1.
          1    1    1    2  501    0 -0.95293993213E+02  0.33081566013E+02  0.38951932325E+03  0.40236878400E+03  0.00000000000E+00 0.  1.
<mgrwt>
<rscale>  2 0.10087287E+03</rscale>
<asrwt>0</asrwt>
<pdfrwt beam="2">  1       21 0.10518779E-01 0.10087287E+03</pdfrwt>
<pdfrwt beam="1">  1        1 0.67232077E-01 0.10087287E+03</pdfrwt>
<totfact> 0.43973673E+04</totfact>
</mgrwt>
</event>
<event>
 4    1  0.5134057E+003  0.1224328E+03  0.7546771E-02  0.1239137E+00
          2   -1    0    0  502    0 -0.00000000000E+00  0.00000000000E+00  0.38441624886E+03  0.38441624886E+03  0.00000000000E+00 0. -1.
         21   -1    0    0  503  502  0.00000000000E+00 -0.00000000000E+00 -0.39772220839E+02  0.39772220839E+02  0.00000000000E+00 0. -1.
         21    1    1    2  503  501 -0.96187811569E+02 -0.75747572127E+02  0.14264705675E+03  0.18798396894E+03  0.00000000000E+00 0. -1.
          2    1    1    2  501    0  0.96187811569E+02  0.75747572127E+02  0.20199697127E+03  0.23620450076E+03  0.00000000000E+00 0. -1.
<mgrwt>
<rscale>  2 0.12243280E+03</rscale>
<asrwt>0</asrwt>
<pdfrwt beam="2">  1       21 0.61188035E-02 0.12243280E+03</pdfrwt>
<pdfrwt beam="1">  1        2 0.59140959E-01 0.12243280E+03</pdfrwt>
<totfact> 0.19466088E+05</totfact>
</mgrwt>
</event>
<event>
 4    1  0.5134057E+003  0.1003366E+03  0.7546771E-02  0.1279590E+00
          2   -1    0    0  503    0 -0.00000000000E+00  0.00000000000E+00  0.10267610419E+03  0.10267610419E+03  0.00000000000E+00 0. -1.
         21   -1    0    0  501  502  0.00000000000E+00 -0.00000000000E+00 -0.31104195939E+03  0.31104195939E+03  0.00000000000E+00 0.  1.
         21    1    1    2  503  502  0.87392111867E+02  0.49295629392E+02 -0.27536020836E+03  0.29307112557E+03  0.00000000000E+00 0.  1.
          2    1    1    2  501    0 -0.87392111867E+02 -0.49295629392E+02  0.66994353162E+02  0.12064693800E+03  0.00000000000E+00 0. -1.
<mgrwt>
<rscale>  2 0.10033663E+03</rscale>
<asrwt>0</asrwt>
<pdfrwt beam="2">  1       21 0.47852609E-01 0.10033663E+03</pdfrwt>
<pdfrwt beam="1">  1        2 0.15796324E-01 0.10033663E+03</pdfrwt>
<totfact> 0.18768447E+04</totfact>
</mgrwt>
</event>
<event>
 4    1  0.5134057E+003  0.1374046E+03  0.7546771E-02  0.1216865E+00
         -3   -1    0    0    0  501 -0.00000000000E+00  0.00000000000E+00  0.58465630031E+03  0.58465630031E+03  0.00000000000E+00 0.  1.
         21   -1    0    0  503  502  0.00000000000E+00 -0.00000000000E+00 -0.49883526591E+02  0.49883526591E+02  0.00000000000E+00 0. -1.
         21    1    1    2  503  501  0.48188545178E+02  0.12867745178E+03  0.78979956998E+02  0.15848613848E+03  0.00000000000E+00 0. -1.
         -3    1    1    2    0  502 -0.48188545178E+02 -0.12867745178E+03  0.45579281672E+03  0.47605368842E+03  0.00000000000E+00 0.  1.
<mgrwt>
<rscale>  2 0.13740459E+03</rscale>
<asrwt>0</asrwt>
<pdfrwt beam="2">  1       21 0.76743891E-02 0.13740459E+03</pdfrwt>
<pdfrwt beam="1">  1       -3 0.89947118E-01 0.13740459E+03</pdfrwt>
<totfact> 0.72215298E+03</totfact>
</mgrwt>
</event>
<event>
 4    1  0.5134057E+003  0.1039032E+03  0.7546771E-02  0.1272296E+00
         21   -1    0    0  501  502  0.00000000000E+00  0.00000000000E+00  0.22378599788E+02  0.22378599788E+02  0.00000000000E+00 0. -1.
         -1   -1    0    0    0  501 -0.00000000000E+00 -0.00000000000E+00 -0.10771042336E+04  0.10771042336E+04  0.00000000000E+00 0. -1.
         21    1    1    2  503  502 -0.77299777893E+02  0.69430725998E+02 -0.11888088849E+03  0.15788776717E+03  0.00000000000E+00 0. -1.
         -1    1    1    2    0  503  0.77299777893E+02 -0.69430725998E+02 -0.93584474527E+03  0.94159506617E+03  0.00000000000E+00 0. -1.
<mgrwt>
<rscale>  2 0.10390323E+03</rscale>
<asrwt>0</asrwt>
<pdfrwt beam="1">  1       21 0.34428608E-02 0.10390323E+03</pdfrwt>
<pdfrwt beam="2">  1       -1 0.16570838E+00 0.10390323E+03</pdfrwt>
<totfact> 0.13821300E+04</totfact>
</mgrwt>
</event>
<event>
 4    1  0.5134057E+003  0.1105840E+03  0.7546771E-02  0.1259492E+00
         21   -1    0    0  503  502  0.00000000000E+00  0.00000000000E+00  0.27287242565E+03  0.27287242565E+03  0.00000000000E+00 0.  1.
          2   -1    0    0  502    0 -0.00000000000E+00 -0.00000000000E+00 -0.29196899545E+04  0.29196899545E+04  0.00000000000E+00 0. -1.
         21    1    1    2  503  501  0.19107655718E+01 -0.11056745904E+03  0.26057416890E+03  0.28306838665E+03  0.00000000000E+00 0.  1.
          2    1    1    2  501    0 -0.19107655718E+01  0.11056745904E+03 -0.29073916977E+04  0.29094939935E+04  0.00000000000E+00 0. -1.
<mgrwt>
<rscale>  2 0.11058397E+03</rscale>
<asrwt>0</asrwt>
<pdfrwt beam="1">  1       21 0.41980373E-01 0.11058397E+03</pdfrwt>
<pdfrwt beam="2">  1        2 0.44918307E+00 0.11058397E+03</pdfrwt>
<totfact> 0.18608862E+02</totfact>
</mgrwt>
</event>
<event>
 4    1  0.5134057E+003  0.1047655E+03  0.7546771E-02  0.1270582E+00
         21   -1    0    0  501  502  0.00000000000E+00  0.00000000000E+00  0.20526866032E+03  0.20526866032E+03  0.00000000000E+00 0. -1.
          1   -1    0    0  503    0 -0.00000000000E+00 -0.00000000000E+00 -0.89313686547E+02  0.89313686547E+02  0.00000000000E+00 0. -1.
         21    1    1    2  503  502  0.75750035992E+02  0.72372256401E+02  0.15128598754E+03  0.18401973121E+03  0.00000000000E+00 0. -1.
          1    1    1    2  501    0 -0.75750035992E+02 -0.72372256401E+02 -0.35331013758E+02  0.11056261566E+03  0.00000000000E+00 0. -1.
<mgrwt>
<rscale>  2 0.10476551E+03</rscale>
<asrwt>0</asrwt>
<pdfrwt beam="1">  1       21 0.31579794E-01 0.10476551E+03</pdfrwt>
<pdfrwt beam="2">  1        1 0.13740567E-01 0.10476551E+03</pdfrwt>
<totfact> 0.42747486E+04</totfact>
</mgrwt>
</event>
<event>
 4    1  0.5134057E+003  0.1381637E+03  0.7546771E-02  0.1215821E+00
          2   -1    0    0  502    0 -0.00000000000E+00  0.00000000000E+00  0.26729292105E+03  0.26729292105E+03  0.00000000000E+00 0. -1.
         21   -1    0    0  503  502  0.00000000000E+00 -0.00000000000E+00 -0.47600285623E+03  0.47600285623E+03  0.00000000000E+00 0.  1.
         21    1    1    2  503  501  0.58907303654E+02 -0.12497660072E+03 -0.44699043301E+03  0.46785646127E+03  0.00000000000E+00 0.  1.
          2    1    1    2  501    0 -0.58907303654E+02  0.12497660072E+03  0.23828049784E+03  0.27543931600E+03  0.00000000000E+00 0. -1.
<mgrwt>
<rscale>  2 0.13816375E+03</rscale>
<asrwt>0</asrwt>
<pdfrwt beam="2">  1       21 0.73231208E-01 0.13816375E+03</pdfrwt>
<pdfrwt beam="1">  1        2 0.41121988E-01 0.13816375E+03</pdfrwt>
<totfact> 0.26344520E+03</totfact>
</mgrwt>
</event>
<event>
 4    1  0.5134057E+003  0.1067049E+03  0.7546771E-02  0.1266796E+00
         -3   -1    0    0    0  501 -0.00000000000E+00  0.00000000000E+00  0.86551390997E+02  0.86551390997E+02  0.00000000000E+00 0.  1.
         21   -1    0    0  501  502  0.00000000000E+00 -0.00000000000E+00 -0.44793409576E+03  0.44793409576E+03  0.00000000000E+00 0. -1.
         21    1    1    2  503  502 -0.10552974818E+03  0.15792876234E+02 -0.40528906687E+03  0.41910042999E+03  0.00000000000E+00 0. -1.
         -3    1    1    2    0  503  0.10552974818E+03 -0.15792876234E+02  0.43906362108E+02  0.11538505677E+03  0.00000000000E+00 0.  1.
<mgrwt>
<rscale>  2 0.10670493E+03</rscale>
<asrwt>0</asrwt>
<pdfrwt beam="2">  1       21 0.68912940E-01 0.10670493E+03</pdfrwt>
<pdfrwt beam="1">  1       -3 0.13315598E-01 0.10670493E+03</pdfrwt>
<totfact> 0.42464104E+03</totfact>
</mgrwt>
</event>
<event>
 4    1  0.5134057E+003  0.1150060E+03  0.7546771E-02  0.1251571E+00
          1   -1    0    0  503    0 -0.00000000000E+00  0.00000000000E+00  0.54706225934E+03  0.54706225934E+03  0.00000000000E+00 0.  1.
         21   -1    0    0  501  502  0.00000000000E+00 -0.00000000000E+00 -0.94351013512E+02  0.94351013512E+02  0.00000000000E+00 0. -1.
         21    1    1    2  503  502  0.94134312043E+02 -0.66068921010E+02 -0.50225512752E+02  0.12549491288E+03  0.00000000000E+00 0. -1.
          1    1    1    2  501    0 -0.94134312043E+02  0.66068921010E+02  0.50293675858E+03  0.51591835998E+03  0.00000000000E+00 0.  1.
<mgrwt>
<rscale>  2 0.11500596E+03</rscale>
<asrwt>0</asrwt>
<pdfrwt beam="2">  1       21 0.14515541E-01 0.11500596E+03</pdfrwt>
<pdfrwt beam="1">  1        1 0.84163423E-01 0.11500596E+03</pdfrwt>
<totfact> 0.18632047E+04</totfact>
</mgrwt>
</event>
<event>
 4    1  0.5134057E+003  0.1128464E+03  0.7546771E-02  0.1255388E+00
          2   -1    0    0  503    0 -0.00000000000E+00  0.00000000000E+00  0.12300158016E+04  0.12300158016E+04  0.00000000000E+00 0.  1.
         21   -1    0    0  501  502  0.00000000000E+00 -0.00000000000E+00 -0.66505643712E+02  0.66505643712E+02  0.00000000000E+00 0. -1.
         21    1    1    2  503  502 -0.10599362128E+03 -0.38725370827E+02 -0.13914915779E+02  0.11370104212E+03  0.00000000000E+00 0. -1.
          2    1    1    2  501    0  0.10599362128E+03  0.38725370827E+02  0.11774250737E+04  0.11828204032E+04  0.00000000000E+00 0.  1.
<mgrwt>
<rscale>  2 0.11284637E+03</rscale>
<asrwt>0</asrwt>
<pdfrwt beam="2">  1       21 0.10231638E-01 0.11284637E+03</pdfrwt>
<pdfrwt beam="1">  1        2 0.18923318E+00 0.11284637E+03</pdfrwt>
<totfact> 0.19559216E+04</totfact>
</mgrwt>
</event>
<event>
 4    1  0.5134057E+003  0.1159557E+03  0.7546771E-02  0.1249922E+00
         21   -1    0    0  503  502  0.00000000000E+00  0.00000000000E+00  0.20020175405E+02  0.20020175405E+02  0.00000000000E+00 0.  1.
          1   -1    0    0  502    0 -0.00000000000E+00 -0.00000000000E+00 -0.10733328168E+04  0.10733328168E+04  0.00000000000E+00 0. -1.
         21    1    1    2  503  501  0.78712479165E+02  0.85147312774E+02 -0.19220934112E+03  0.22447750458E+03  0.00000000000E+00 0.  1.
          1    1    1    2  501    0 -0.78712479165E+02 -0.85147312774E+02 -0.86110330027E+03  0.86887548762E+03  0.00000000000E+00 0. -1.
<mgrwt>
<rscale>  2 0.11595568E+03</rscale>
<asrwt>0</asrwt>
<pdfrwt beam="1">  1       21 0.30800274E-02 0.11595568E+03</pdfrwt>
<pdfrwt beam="2">  1        1 0.16512810E+00 0.11595568E+03</pdfrwt>
<totfact> 0.95994489E+04</totfact>
</mgrwt>
</event>
<event>
 4    1  0.5134057E+003  0.1811418E+03  0.7546771E-02  0.1166703E+00
         21   -1    0    0  501  502  0.00000000000E+00  0.00000000000E+00  0.25739035295E+03  0.25739035295E+03  0.00000000000E+00 0. -1.
          2   -1    0    0  503    0 -0.00000000000E+00 -0.00000000000E+00 -0.38262030650E+03  0.38262030650E+03  0.00000000000E+00 0. -1.
         21    1    1    2  503  502 -0.74467996324E+02  0.16512683016E+03  0.19869860264E+03  0.26887448225E+03  0.00000000000E+00 0. -1.
          2    1    1    2  501    0  0.74467996324E+02 -0.16512683016E+03 -0.32392855619E+03  0.37113617720E+03  0.00000000000E+00 0. -1.
<mgrwt>
<rscale>  2 0.18114180E+03</rscale>
<asrwt>0</asrwt>
<pdfrwt beam="1">  1       21 0.39598516E-01 0.18114180E+03</pdfrwt>
<pdfrwt beam="2">  1        2 0.58864662E-01 0.18114180E+03</pdfrwt>
<totfact> 0.64406324E+03</totfact>
</mgrwt>
</event>
<event>
 4    1  0.5134057E+003  0.1732288E+03  0.7546771E-02  0.1174522E+00
         21   -1    0    0  501  502  0.00000000000E+00  0.00000000000E+00  0.20126659394E+03  0.20126659394E+03  0.00000000000E+00 0. -1.
          1   -1    0    0  503    0 -0.00000000000E+00 -0.00000000000E+00 -0.27242176827E+03  0.27242176827E+03  0.00000000000E+00 0. -1.
         21    1    1    2  503  502  0.16656970205E+03  0.47568407469E+02  0.12377796512E+03  0.21290656092E+03  0.00000000000E+00 0. -1.
          1    1    1    2  501    0 -0.16656970205E+03 -0.47568407469E+02 -0.19493313945E+03  0.26078180129E+03  0.00000000000E+00 0. -1.
<mgrwt>
<rscale>  2 0.17322881E+03</rscale>
<asrwt>0</asrwt>
<pdfrwt beam="1">  1       21 0.30964091E-01 0.17322881E+03</pdfrwt>
<pdfrwt beam="2">  1        1 0.41911041E-01 0.17322881E+03</pdfrwt>
<totfact> 0.10864078E+04</totfact>
</mgrwt>
</event>
<event>
 4    1  0.5134057E+003  0.1324146E+03  0.7546771E-02  0.1223916E+00
         -2   -1    0    0    0  501 -0.00000000000E+00  0.00000000000E+00  0.11415214653E+04  0.11415214653E+04  0.00000000000E+00 0.  1.
         21   -1    0    0  503  502  0.00000000000E+00 -0.00000000000E+00 -0.18037547321E+02  0.18037547321E+02  0.00000000000E+00 0.  1.
         21    1    1    2  503  501 -0.11583761427E+03 -0.64150299393E+02  0.33835707980E+03  0.36334436454E+03  0.00000000000E+00 0.  1.
         -2    1    1    2    0  502  0.11583761427E+03  0.64150299393E+02  0.78512683816E+03  0.79621464807E+03  0.00000000000E+00 0.  1.
<mgrwt>
<rscale>  2 0.13241455E+03</rscale>
<asrwt>0</asrwt>
<pdfrwt beam="2">  1       21 0.27750082E-02 0.13241455E+03</pdfrwt>
<pdfrwt beam="1">  1       -2 0.17561863E+00 0.13241455E+03</pdfrwt>
<totfact> 0.12367134E+04</totfact>
</mgrwt>
</event>
<event>
 4    1  0.5134057E+003  0.1236082E+03  0.7546771E-02  0.1237261E+00
         21   -1    0    0  501  502  0.00000000000E+00  0.00000000000E+00  0.14464315109E+03  0.14464315109E+03  0.00000000000E+00 0. -1.
          1   -1    0    0  503    0 -0.00000000000E+00 -0.00000000000E+00 -0.17695006529E+03  0.17695006529E+03  0.00000000000E+00 0. -1.
         21    1    1    2  503  502 -0.12219365998E+03 -0.18646611199E+02  0.85928838305E+02  0.15054152882E+03  0.00000000000E+00 0. -1.
          1    1    1    2  501    0  0.12219365998E+03  0.18646611199E+02 -0.11823575250E+03  0.17105168756E+03  0.00000000000E+00 0. -1.
<mgrwt>
<rscale>  2 0.12360820E+03</rscale>
<asrwt>0</asrwt>
<pdfrwt beam="1">  1       21 0.22252793E-01 0.12360820E+03</pdfrwt>
<pdfrwt beam="2">  1        1 0.27223087E-01 0.12360820E+03</pdfrwt>
<totfact> 0.34990839E+04</totfact>
</mgrwt>
</event>
<event>
 4    1  0.5134057E+003  0.1827389E+03  0.7546771E-02  0.1165178E+00
         21   -1    0    0  501  502  0.00000000000E+00  0.00000000000E+00  0.48621102396E+02  0.48621102396E+02  0.00000000000E+00 0.  1.
         -1   -1    0    0    0  501 -0.00000000000E+00 -0.00000000000E+00 -0.10203590558E+04  0.10203590558E+04  0.00000000000E+00 0.  1.
         21    1    1    2  503  502 -0.16232347297E+03 -0.83931996412E+02 -0.18027655122E+03  0.25669656176E+03  0.00000000000E+00 0.  1.
         -1    1    1    2    0  503  0.16232347297E+03  0.83931996412E+02 -0.79146140216E+03  0.81228359641E+03  0.00000000000E+00 0.  1.
<mgrwt>
<rscale>  2 0.18273886E+03</rscale>
<asrwt>0</asrwt>
<pdfrwt beam="1">  1       21 0.74801698E-02 0.18273886E+03</pdfrwt>
<pdfrwt beam="2">  1       -1 0.15697831E+00 0.18273886E+03</pdfrwt>
<totfact> 0.42899490E+03</totfact>
</mgrwt>
</event>
<event>
 4    1  0.5134057E+003  0.1083431E+03  0.7546771E-02  0.1263669E+00
          1   -1    0    0  502    0 -0.00000000000E+00  0.00000000000E+00  0.17042699237E+03  0.17042699237E+03  0.00000000000E+00 0.  1.
         21   -1    0    0  503  502  0.00000000000E+00 -0.00000000000E+00 -0.10512420884E+04  0.10512420884E+04  0.00000000000E+00 0. -1.
         21    1    1    2  503  501  0.85495711588E+02  0.66548497601E+02 -0.10308927804E+04  0.10365703758E+04  0.00000000000E+00 0. -1.
          1    1    1    2  501    0 -0.85495711588E+02 -0.66548497601E+02  0.15007768439E+03  0.18509870498E+03  0.00000000000E+00 0.  1.
<mgrwt>
<rscale>  2 0.10834306E+03</rscale>
<asrwt>0</asrwt>
<pdfrwt beam="2">  1       21 0.16172955E+00 0.10834306E+03</pdfrwt>
<pdfrwt beam="1">  1        1 0.26219537E-01 0.10834306E+03</pdfrwt>
<totfact> 0.51075447E+02</totfact>
</mgrwt>
</event>
<event>
 4    1  0.5134057E+003  0.1455112E+03  0.7546771E-02  0.1206100E+00
         -2   -1    0    0    0  501 -0.00000000000E+00  0.00000000000E+00  0.16659895759E+03  0.16659895759E+03  0.00000000000E+00 0.  1.
         21   -1    0    0  503  502  0.00000000000E+00 -0.00000000000E+00 -0.23118135263E+03  0.23118135263E+03  0.00000000000E+00 0.  1.
         21    1    1    2  503  501  0.92744963879E+02 -0.11212435695E+03 -0.16574738834E+03  0.22055769424E+03  0.00000000000E+00 0.  1.
         -2    1    1    2    0  502 -0.92744963879E+02  0.11212435695E+03  0.10116499330E+03  0.17722261598E+03  0.00000000000E+00 0.  1.
<mgrwt>
<rscale>  2 0.14551117E+03</rscale>
<asrwt>0</asrwt>
<pdfrwt beam="2">  1       21 0.35566362E-01 0.14551117E+03</pdfrwt>
<pdfrwt beam="1">  1       -2 0.25630609E-01 0.14551117E+03</pdfrwt>
<totfact> 0.83274325E+03</totfact>
</mgrwt>
</event>
<event>
 4    1  0.5134057E+003  0.1920678E+03  0.7546771E-02  0.1156609E+00
         21   -1    0    0  501  502  0.00000000000E+00  0.00000000000E+00  0.18218498476E+02  0.18218498476E+02  0.00000000000E+00 0.  1.
          2   -1    0    0  503    0 -0.00000000000E+00 -0.00000000000E+00 -0.21791618681E+04  0.21791618681E+04  0.00000000000E+00 0.  1.
         21    1    1    2  503  502  0.19206778173E+03 -0.10459132743E-01 -0.78811938993E+03  0.81118567891E+03  0.00000000000E+00 0.  1.
          2    1    1    2  501    0 -0.19206778173E+03  0.10459132743E-01 -0.13728239797E+04  0.13861946877E+04  0.00000000000E+00 0.  1.
<mgrwt>
<rscale>  2 0.19206778E+03</rscale>
<asrwt>0</asrwt>
<pdfrwt beam="1">  1       21 0.28028472E-02 0.19206778E+03</pdfrwt>
<pdfrwt beam="2">  1        2 0.33525552E+00 0.19206778E+03</pdfrwt>
<totfact> 0.55017681E+04</totfact>
</mgrwt>
</event>
<event>
 4    1  0.5134057E+003  0.1224511E+03  0.7546771E-02  0.1239107E+00
          1   -1    0    0  503    0 -0.00000000000E+00  0.00000000000E+00  0.18023453091E+03  0.18023453091E+03  0.00000000000E+00 0. -1.
         21   -1    0    0  501  502  0.00000000000E+00 -0.00000000000E+00 -0.10813952688E+03  0.10813952688E+03  0.00000000000E+00 0.  1.
         21    1    1    2  503  502  0.37168601982E+02 -0.11667374033E+03 -0.33205445980E+02  0.12687343417E+03  0.00000000000E+00 0.  1.
          1    1    1    2  501    0 -0.37168601982E+02  0.11667374033E+03  0.10530045002E+03  0.16150062362E+03  0.00000000000E+00 0. -1.
<mgrwt>
<rscale>  2 0.12245108E+03</rscale>
<asrwt>0</asrwt>
<pdfrwt beam="2">  1       21 0.16636850E-01 0.12245108E+03</pdfrwt>
<pdfrwt beam="1">  1        1 0.27728389E-01 0.12245108E+03</pdfrwt>
<totfact> 0.58392444E+04</totfact>
</mgrwt>
</event>
<event>
 4    1  0.5134057E+003  0.1300393E+03  0.7546771E-02  0.1227397E+00
          2   -1    0    0  503    0 -0.00000000000E+00  0.00000000000E+00  0.62097133522E+03  0.62097133522E+03  0.00000000000E+00 0. -1.
         21   -1    0    0  501  502  0.00000000000E+00 -0.00000000000E+00 -0.47410857946E+02  0.47410857946E+02  0.00000000000E+00 0.  1.
         21    1    1    2  503  502 -0.12634569243E+03  0.30773148517E+02  0.68755645109E+02  0.14709710874E+03  0.00000000000E+00 0.  1.
          2    1    1    2  501    0  0.12634569243E+03 -0.30773148517E+02  0.50480483216E+03  0.52128508442E+03  0.00000000000E+00 0. -1.
<mgrwt>
<rscale>  2 0.13003930E+03</rscale>
<asrwt>0</asrwt>
<pdfrwt beam="2">  1       21 0.72939786E-02 0.13003930E+03</pdfrwt>
<pdfrwt beam="1">  1        2 0.95534046E-01 0.13003930E+03</pdfrwt>
<totfact> 0.85503996E+04</totfact>
</mgrwt>
</event>
<event>
 4    1  0.5134057E+003  0.1246562E+03  0.7546771E-02  0.1235608E+00
          2   -1    0    0  502    0 -0.00000000000E+00  0.00000000000E+00  0.30889285354E+03  0.30889285354E+03  0.00000000000E+00 0. -1.
         21   -1    0    0  503  502  0.00000000000E+00 -0.00000000000E+00 -0.47889570044E+03  0.47889570044E+03  0.00000000000E+00 0.  1.
         21    1    1    2  503  501 -0.12290414882E+03  0.20826227295E+02 -0.45763335769E+03  0.47430733877E+03  0.00000000000E+00 0.  1.
          2    1    1    2  501    0  0.12290414882E+03 -0.20826227295E+02  0.28763051080E+03  0.31348121520E+03  0.00000000000E+00 0. -1.
<mgrwt>
<rscale>  2 0.12465617E+03</rscale>
<asrwt>0</asrwt>
<pdfrwt beam="2">  1       21 0.73676262E-01 0.12465617E+03</pdfrwt>
<pdfrwt beam="1">  1        2 0.47521978E-01 0.12465617E+03</pdfrwt>
<totfact> 0.22463084E+03</totfact>
</mgrwt>
</event>
<event>
 4    1  0.5134057E+003  0.1279591E+03  0.7546771E-02  0.1230516E+00
         21   -1    0    0  503  502  0.00000000000E+00  0.00000000000E+00  0.11523985590E+04  0.11523985590E+04  0.00000000000E+00 0.  1.
          1   -1    0    0  502    0 -0.00000000000E+00 -0.00000000000E+00 -0.48903022799E+03  0.48903022799E+03  0.00000000000E+00 0.  1.
         21    1    1    2  503  501  0.99808735877E+02  0.80073386402E+02  0.11403882161E+04  0.11475446895E+04  0.00000000000E+00 0.  1.
          1    1    1    2  501    0 -0.99808735877E+02 -0.80073386402E+02 -0.47701988510E+03  0.49388409748E+03  0.00000000000E+00 0.  1.
<mgrwt>
<rscale>  2 0.12795910E+03</rscale>
<asrwt>0</asrwt>
<pdfrwt beam="1">  1       21 0.17729209E+00 0.12795910E+03</pdfrwt>
<pdfrwt beam="2">  1        1 0.75235420E-01 0.12795910E+03</pdfrwt>
<totfact> 0.10490390E+02</totfact>
</mgrwt>
</event>
<event>
 4    1  0.5134057E+003  0.1766992E+03  0.7546771E-02  0.1171036E+00
          2   -1    0    0  503    0 -0.00000000000E+00  0.00000000000E+00  0.83336779255E+03  0.83336779255E+03  0.00000000000E+00 0.  1.
         21   -1    0    0  501  502  0.00000000000E+00 -0.00000000000E+00 -0.68888574464E+02  0.68888574464E+02  0.00000000000E+00 0. -1.
         21    1    1    2  503  502  0.14731238711E+03 -0.97578952428E+02  0.77555165395E+02  0.19296993297E+03  0.00000000000E+00 0. -1.
          2    1    1    2  501    0 -0.14731238711E+03  0.97578952428E+02  0.68692405269E+03  0.70928643404E+03  0.00000000000E+00 0.  1.
<mgrwt>
<rscale>  2 0.17669915E+03</rscale>
<asrwt>0</asrwt>
<pdfrwt beam="2">  1       21 0.10598243E-01 0.17669915E+03</pdfrwt>
<pdfrwt beam="1">  1        2 0.12821042E+00 0.17669915E+03</pdfrwt>
<totfact> 0.31256872E+04</totfact>
</mgrwt>
</event>
<event>
 4    1  0.5134057E+003  0.1005470E+03  0.7546771E-02  0.1279150E+00
          1   -1    0    0  503    0 -0.00000000000E+00  0.00000000000E+00  0.16155379036E+04  0.16155379036E+04  0.00000000000E+00 0. -1.
         21   -1    0    0  501  502  0.00000000000E+00 -0.00000000000E+00 -0.16973893403E+02  0.16973893403E+02  0.00000000000E+00 0.  1.
         21    1    1    2  503  502 -0.99788863095E+02 -0.12324156296E+02  0.15071629837E+03  0.18117699805E+03  0.00000000000E+00 0.  1.
          1    1    1    2  501    0  0.99788863095E+02  0.12324156296E+02  0.14478477118E+04  0.14513347989E+04  0.00000000000E+00 0. -1.
<mgrwt>
<rscale>  2 0.10054701E+03</rscale>
<asrwt>0</asrwt>
<pdfrwt beam="2">  1       21 0.26113695E-02 0.10054701E+03</pdfrwt>
<pdfrwt beam="1">  1        1 0.24854417E+00 0.10054701E+03</pdfrwt>
<totfact> 0.55003557E+04</totfact>
</mgrwt>
</event>
<event>
 4    1  0.5134057E+003  0.1406222E+03  0.7546771E-02  0.1212494E+00
          2   -1    0    0  503    0 -0.00000000000E+00  0.00000000000E+00  0.94320348975E+03  0.94320348975E+03  0.00000000000E+00 0.  1.
         21   -1    0    0  501  502  0.00000000000E+00 -0.00000000000E+00 -0.65826098305E+02  0.65826098305E+02  0.00000000000E+00 0. -1.
         21    1    1    2  503  502  0.13006645320E+03 -0.53453811205E+02  0.22195317603E+02  0.14236300187E+03  0.00000000000E+00 0. -1.
          2    1    1    2  501    0 -0.13006645320E+03  0.53453811205E+02  0.85518207384E+03  0.86666658618E+03  0.00000000000E+00 0.  1.
<mgrwt>
<rscale>  2 0.14062216E+03</rscale>
<asrwt>0</asrwt>
<pdfrwt beam="2">  1       21 0.10127093E-01 0.14062216E+03</pdfrwt>
<pdfrwt beam="1">  1        2 0.14510822E+00 0.14062216E+03</pdfrwt>
<totfact> 0.28948908E+04</totfact>
</mgrwt>
</event>
<event>
 4    1  0.5134057E+003  0.1811800E+03  0.7546771E-02  0.1166666E+00
          2   -1    0    0  503    0 -0.00000000000E+00  0.00000000000E+00  0.39675219523E+04  0.39675219523E+04  0.00000000000E+00 0. -1.
         21   -1    0    0  501  502  0.00000000000E+00 -0.00000000000E+00 -0.86134872024E+01  0.86134872024E+01  0.00000000000E+00 0.  1.
         21    1    1    2  503  502  0.16549416292E+03 -0.73741897256E+02  0.15846068804E+04  0.15949310802E+04  0.00000000000E+00 0.  1.
          2    1    1    2  501    0 -0.16549416292E+03  0.73741897256E+02  0.23743015847E+04  0.23812043592E+04  0.00000000000E+00 0. -1.
<mgrwt>
<rscale>  2 0.18117998E+03</rscale>
<asrwt>0</asrwt>
<pdfrwt beam="2">  1       21 0.13251550E-02 0.18117998E+03</pdfrwt>
<pdfrwt beam="1">  1        2 0.61038653E+00 0.18117998E+03</pdfrwt>
<totfact> 0.15296665E+04</totfact>
</mgrwt>
</event>
<event>
 4    1  0.5134057E+003  0.1644509E+03  0.7546771E-02  0.1183761E+00
         21   -1    0    0  503  502  0.00000000000E+00  0.00000000000E+00  0.11438400549E+03  0.11438400549E+03  0.00000000000E+00 0.  1.
          2   -1    0    0  502    0 -0.00000000000E+00 -0.00000000000E+00 -0.90056821915E+03  0.90056821915E+03  0.00000000000E+00 0. -1.
         21    1    1    2  503  501  0.15029280967E+03 -0.66754575595E+02  0.42706360923E+02  0.16990566579E+03  0.00000000000E+00 0.  1.
          2    1    1    2  501    0 -0.15029280967E+03  0.66754575595E+02 -0.82889057458E+03  0.84504655886E+03  0.00000000000E+00 0. -1.
<mgrwt>
<rscale>  2 0.16445091E+03</rscale>
<asrwt>0</asrwt>
<pdfrwt beam="1">  1       21 0.17597539E-01 0.16445091E+03</pdfrwt>
<pdfrwt beam="2">  1        2 0.13854896E+00 0.16445091E+03</pdfrwt>
<totfact> 0.11362199E+04</totfact>
</mgrwt>
</event>
<event>
 4    1  0.5134057E+003  0.1209550E+03  0.7546771E-02  0.1241530E+00
         21   -1    0    0  501  502  0.00000000000E+00  0.00000000000E+00  0.10839196799E+03  0.10839196799E+03  0.00000000000E+00 0.  1.
          2   -1    0    0  503    0 -0.00000000000E+00 -0.00000000000E+00 -0.56412012202E+03  0.56412012202E+03  0.00000000000E+00 0. -1.
         21    1    1    2  503  502 -0.29544956819E+02  0.11729113907E+03  0.65418872825E+02  0.13751270741E+03  0.00000000000E+00 0.  1.
          2    1    1    2  501    0  0.29544956819E+02 -0.11729113907E+03 -0.52114702686E+03  0.53499938260E+03  0.00000000000E+00 0. -1.
<mgrwt>
<rscale>  2 0.12095502E+03</rscale>
<asrwt>0</asrwt>
<pdfrwt beam="1">  1       21 0.16675687E-01 0.12095502E+03</pdfrwt>
<pdfrwt beam="2">  1        2 0.86787711E-01 0.12095502E+03</pdfrwt>
<totfact> 0.22203504E+04</totfact>
</mgrwt>
</event>
<event>
 4    1  0.5134057E+003  0.1084624E+03  0.7546771E-02  0.1263444E+00
         21   -1    0    0  503  502  0.00000000000E+00  0.00000000000E+00  0.28915558452E+03  0.28915558452E+03  0.00000000000E+00 0. -1.
          2   -1    0    0  502    0 -0.00000000000E+00 -0.00000000000E+00 -0.26441040497E+03  0.26441040497E+03  0.00000000000E+00 0.  1.
         21    1    1    2  503  501  0.10495814662E+03 -0.27347386647E+02  0.26697262869E+03  0.28816397514E+03  0.00000000000E+00 0. -1.
          2    1    1    2  501    0 -0.10495814662E+03  0.27347386647E+02 -0.24222744915E+03  0.26540201435E+03  0.00000000000E+00 0.  1.
<mgrwt>
<rscale>  2 0.10846240E+03</rscale>
<asrwt>0</asrwt>
<pdfrwt beam="1">  1       21 0.44485475E-01 0.10846240E+03</pdfrwt>
<pdfrwt beam="2">  1        2 0.40678524E-01 0.10846240E+03</pdfrwt>
<totfact> 0.77045284E+03</totfact>
</mgrwt>
</event>
<event>
 4    1  0.5134057E+003  0.1068063E+03  0.7546771E-02  0.1266601E+00
          2   -1    0    0  503    0 -0.00000000000E+00  0.00000000000E+00  0.58161874960E+03  0.58161874960E+03  0.00000000000E+00 0.  1.
         21   -1    0    0  501  502  0.00000000000E+00 -0.00000000000E+00 -0.46919392381E+02  0.46919392381E+02  0.00000000000E+00 0. -1.
         21    1    1    2  503  502 -0.96327970085E+02 -0.46135785426E+02  0.27602495144E+02  0.11031539446E+03  0.00000000000E+00 0. -1.
          2    1    1    2  501    0  0.96327970085E+02  0.46135785426E+02  0.50709686208E+03  0.51822274752E+03  0.00000000000E+00 0.  1.
<mgrwt>
<rscale>  2 0.10680631E+03</rscale>
<asrwt>0</asrwt>
<pdfrwt beam="2">  1       21 0.72183685E-02 0.10680631E+03</pdfrwt>
<pdfrwt beam="1">  1        2 0.89479802E-01 0.10680631E+03</pdfrwt>
<totfact> 0.93333167E+04</totfact>
</mgrwt>
</event>
<event>
 4    1  0.5134057E+003  0.1066790E+03  0.7546771E-02  0.1266846E+00
         21   -1    0    0  501  502  0.00000000000E+00  0.00000000000E+00  0.38937220222E+03  0.38937220222E+03  0.00000000000E+00 0.  1.
         -3   -1    0    0    0  501 -0.00000000000E+00 -0.00000000000E+00 -0.51509411063E+02  0.51509411063E+02  0.00000000000E+00 0.  1.
         21    1    1    2  503  502  0.68986843696E+02 -0.81370938758E+02  0.31391669191E+03  0.33154804137E+03  0.00000000000E+00 0.  1.
         -3    1    1    2    0  503 -0.68986843696E+02  0.81370938758E+02  0.23946099245E+02  0.10933357191E+03  0.00000000000E+00 0.  1.
<mgrwt>
<rscale>  2 0.10667902E+03</rscale>
<asrwt>0</asrwt>
<pdfrwt beam="1">  1       21 0.59903414E-01 0.10667902E+03</pdfrwt>
<pdfrwt beam="2">  1       -3 0.79245250E-02 0.10667902E+03</pdfrwt>
<totfact> 0.13470221E+04</totfact>
</mgrwt>
</event>
<event>
 4    1  0.5134057E+003  0.1347608E+03  0.7546771E-02  0.1220558E+00
          1   -1    0    0  503    0 -0.00000000000E+00  0.00000000000E+00  0.39292798281E+03  0.39292798281E+03  0.00000000000E+00 0. -1.
         21   -1    0    0  501  502  0.00000000000E+00 -0.00000000000E+00 -0.39746167676E+03  0.39746167676E+03  0.00000000000E+00 0. -1.
         21    1    1    2  503  502  0.27676908588E+02  0.13188805251E+03 -0.37377443275E+03  0.39732580616E+03  0.00000000000E+00 0. -1.
          1    1    1    2  501    0 -0.27676908588E+02 -0.13188805251E+03  0.36924073880E+03  0.39306385341E+03  0.00000000000E+00 0. -1.
<mgrwt>
<rscale>  2 0.13476079E+03</rscale>
<asrwt>0</asrwt>
<pdfrwt beam="2">  1       21 0.61147950E-01 0.13476079E+03</pdfrwt>
<pdfrwt beam="1">  1        1 0.60450459E-01 0.13476079E+03</pdfrwt>
<totfact> 0.17452197E+03</totfact>
</mgrwt>
</event>
<event>
 4    1  0.5134057E+003  0.1044500E+03  0.7546771E-02  0.1271207E+00
         -1   -1    0    0    0  501 -0.00000000000E+00  0.00000000000E+00  0.10680718377E+03  0.10680718377E+03  0.00000000000E+00 0. -1.
         21   -1    0    0  501  502  0.00000000000E+00 -0.00000000000E+00 -0.29365221011E+03  0.29365221011E+03  0.00000000000E+00 0.  1.
         21    1    1    2  503  502  0.47124695720E+02 -0.93215122208E+02 -0.25512052158E+03  0.27567422166E+03  0.00000000000E+00 0.  1.
         -1    1    1    2    0  503 -0.47124695720E+02  0.93215122208E+02  0.68275495245E+02  0.12478517222E+03  0.00000000000E+00 0. -1.
<mgrwt>
<rscale>  2 0.10444997E+03</rscale>
<asrwt>0</asrwt>
<pdfrwt beam="2">  1       21 0.45177262E-01 0.10444997E+03</pdfrwt>
<pdfrwt beam="1">  1       -1 0.16431875E-01 0.10444997E+03</pdfrwt>
<totfact> 0.11840832E+04</totfact>
</mgrwt>
</event>
<event>
 4    1  0.5134057E+003  0.1051112E+03  0.7546771E-02  0.1269901E+00
          2   -1    0    0  503    0 -0.00000000000E+00  0.00000000000E+00  0.40971050750E+03  0.40971050750E+03  0.00000000000E+00 0. -1.
         21   -1    0    0  501  502  0.00000000000E+00 -0.00000000000E+00 -0.32466565695E+02  0.32466565695E+02  0.00000000000E+00 0. -1.
         21    1    1    2  503  502 -0.24065106877E+02 -0.10231922878E+03  0.97621832459E+02  0.14345165081E+03  0.00000000000E+00 0. -1.
          2    1    1    2  501    0  0.24065106877E+02  0.10231922878E+03  0.27962210935E+03  0.29872542239E+03  0.00000000000E+00 0. -1.
<mgrwt>
<rscale>  2 0.10511115E+03</rscale>
<asrwt>0</asrwt>
<pdfrwt beam="2">  1       21 0.49948565E-02 0.10511115E+03</pdfrwt>
<pdfrwt beam="1">  1        2 0.63032382E-01 0.10511115E+03</pdfrwt>
<totfact> 0.25396925E+05</totfact>
</mgrwt>
</event>
<event>
 4    1  0.5134057E+003  0.1138216E+03  0.7546771E-02  0.1253652E+00
          2   -1    0    0  502    0 -0.00000000000E+00  0.00000000000E+00  0.17648269075E+04  0.17648269075E+04  0.00000000000E+00 0.  1.
         21   -1    0    0  503  502  0.00000000000E+00 -0.00000000000E+00 -0.16215733675E+02  0.16215733675E+02  0.00000000000E+00 0.  1.
         21    1    1    2  503  501 -0.86975239839E+02 -0.73421082501E+02  0.21550025713E+03  0.24371234791E+03  0.00000000000E+00 0.  1.
          2    1    1    2  501    0  0.86975239839E+02  0.73421082501E+02  0.15331109166E+04  0.15373302932E+04  0.00000000000E+00 0.  1.
<mgrwt>
<rscale>  2 0.11382156E+03</rscale>
<asrwt>0</asrwt>
<pdfrwt beam="2">  1       21 0.24947296E-02 0.11382156E+03</pdfrwt>
<pdfrwt beam="1">  1        2 0.27151168E+00 0.11382156E+03</pdfrwt>
<totfact> 0.11013375E+05</totfact>
</mgrwt>
</event>
<event>
 4    1  0.5134057E+003  0.1034979E+03  0.7546771E-02  0.1273108E+00
         21   -1    0    0  501  502  0.00000000000E+00  0.00000000000E+00  0.53675443216E+02  0.53675443216E+02  0.00000000000E+00 0.  1.
         -1   -1    0    0    0  501 -0.00000000000E+00 -0.00000000000E+00 -0.13146713200E+04  0.13146713200E+04  0.00000000000E+00 0. -1.
         21    1    1    2  503  502 -0.41881776070E+02  0.94645323936E+02 -0.38931231001E+00  0.10349865735E+03  0.00000000000E+00 0.  1.
         -1    1    1    2    0  503  0.41881776070E+02 -0.94645323936E+02 -0.12606065645E+04  0.12648481059E+04  0.00000000000E+00 0. -1.
<mgrwt>
<rscale>  2 0.10349793E+03</rscale>
<asrwt>0</asrwt>
<pdfrwt beam="1">  1       21 0.82577612E-02 0.10349793E+03</pdfrwt>
<pdfrwt beam="2">  1       -1 0.20225711E+00 0.10349793E+03</pdfrwt>
<totfact> 0.18031313E+03</totfact>
</mgrwt>
</event>
<event>
 4    1  0.5134057E+003  0.1322304E+03  0.7546771E-02  0.1224183E+00
          1   -1    0    0  503    0 -0.00000000000E+00  0.00000000000E+00  0.15379789274E+04  0.15379789274E+04  0.00000000000E+00 0.  1.
         21   -1    0    0  501  502  0.00000000000E+00 -0.00000000000E+00 -0.14305407750E+02  0.14305407750E+02  0.00000000000E+00 0.  1.
         21    1    1    2  503  502 -0.12946248867E+03  0.26913808061E+02  0.41018058011E+03  0.43096751309E+03  0.00000000000E+00 0.  1.
          1    1    1    2  501    0  0.12946248867E+03 -0.26913808061E+02  0.11134929396E+04  0.11213168221E+04  0.00000000000E+00 0.  1.
<mgrwt>
<rscale>  2 0.13223044E+03</rscale>
<asrwt>0</asrwt>
<pdfrwt beam="2">  1       21 0.22008332E-02 0.13223044E+03</pdfrwt>
<pdfrwt beam="1">  1        1 0.23661201E+00 0.13223044E+03</pdfrwt>
<totfact> 0.81187417E+04</totfact>
</mgrwt>
</event>
<event>
 4    1  0.5134057E+003  0.1573997E+03  0.7546771E-02  0.1191664E+00
          2   -1    0    0  503    0 -0.00000000000E+00  0.00000000000E+00  0.12914995135E+04  0.12914995135E+04  0.00000000000E+00 0. -1.
         21   -1    0    0  501  502  0.00000000000E+00 -0.00000000000E+00 -0.19554936945E+03  0.19554936945E+03  0.00000000000E+00 0.  1.
         21    1    1    2  503  502 -0.15475228238E+03 -0.28747101860E+02 -0.15813936228E+03  0.22312042190E+03  0.00000000000E+00 0.  1.
          2    1    1    2  501    0  0.15475228238E+03  0.28747101860E+02  0.12540895064E+04  0.12639284611E+04  0.00000000000E+00 0. -1.
<mgrwt>
<rscale>  2 0.15739970E+03</rscale>
<asrwt>0</asrwt>
<pdfrwt beam="2">  1       21 0.30084519E-01 0.15739970E+03</pdfrwt>
<pdfrwt beam="1">  1        2 0.19869223E+00 0.15739970E+03</pdfrwt>
<totfact> 0.24559077E+03</totfact>
</mgrwt>
</event>
<event>
 4    1  0.5134057E+003  0.1322519E+03  0.7546771E-02  0.1224152E+00
         21   -1    0    0  503  502  0.00000000000E+00  0.00000000000E+00  0.60291466846E+02  0.60291466846E+02  0.00000000000E+00 0. -1.
          2   -1    0    0  502    0 -0.00000000000E+00 -0.00000000000E+00 -0.49475695180E+03  0.49475695180E+03  0.00000000000E+00 0. -1.
         21    1    1    2  503  501  0.79105615304E+02  0.10598523188E+03 -0.38741077973E+02  0.13780942954E+03  0.00000000000E+00 0. -1.
          2    1    1    2  501    0 -0.79105615304E+02 -0.10598523188E+03 -0.39572440698E+03  0.41723898910E+03  0.00000000000E+00 0. -1.
<mgrwt>
<rscale>  2 0.13225191E+03</rscale>
<asrwt>0</asrwt>
<pdfrwt beam="1">  1       21 0.92756098E-02 0.13225191E+03</pdfrwt>
<pdfrwt beam="2">  1        2 0.76116458E-01 0.13225191E+03</pdfrwt>
<totfact> 0.72793178E+04</totfact>
</mgrwt>
</event>
<event>
 4    1  0.5134057E+003  0.1347092E+03  0.7546771E-02  0.1220631E+00
         21   -1    0    0  501  502  0.00000000000E+00  0.00000000000E+00  0.36097909116E+03  0.36097909116E+03  0.00000000000E+00 0. -1.
         -4   -1    0    0    0  501 -0.00000000000E+00 -0.00000000000E+00 -0.65922893292E+02  0.65922893292E+02  0.00000000000E+00 0. -1.
         21    1    1    2  503  502 -0.22897743643E+02  0.13274887137E+03  0.25153725502E+03  0.28533762489E+03  0.00000000000E+00 0. -1.
         -4    1    1    2    0  503  0.22897743643E+02 -0.13274887137E+03  0.43518942851E+02  0.14156435957E+03  0.00000000000E+00 0. -1.
<mgrwt>
<rscale>  2 0.13470920E+03</rscale>
<asrwt>0</asrwt>
<pdfrwt beam="1">  1       21 0.55535243E-01 0.13470920E+03</pdfrwt>
<pdfrwt beam="2">  1       -4 0.10141984E-01 0.13470920E+03</pdfrwt>
<totfact> 0.93252702E+03</totfact>
</mgrwt>
</event>
<event>
 4    1  0.5134057E+003  0.1008483E+03  0.7546771E-02  0.1278522E+00
         21   -1    0    0  501  502  0.00000000000E+00  0.00000000000E+00  0.80567569925E+02  0.80567569925E+02  0.00000000000E+00 0. -1.
          1   -1    0    0  503    0 -0.00000000000E+00 -0.00000000000E+00 -0.15651120466E+04  0.15651120466E+04  0.00000000000E+00 0.  1.
         21    1    1    2  503  502 -0.10027924367E+03 -0.10698320314E+02  0.46686960096E+02  0.11113079237E+03  0.00000000000E+00 0. -1.
          1    1    1    2  501    0  0.10027924367E+03  0.10698320314E+02 -0.15312314368E+04  0.15345488241E+04  0.00000000000E+00 0.  1.
<mgrwt>
<rscale>  2 0.10084831E+03</rscale>
<asrwt>0</asrwt>
<pdfrwt beam="1">  1       21 0.12395011E-01 0.10084831E+03</pdfrwt>
<pdfrwt beam="2">  1        1 0.24078646E+00 0.10084831E+03</pdfrwt>
<totfact> 0.42969858E+03</totfact>
</mgrwt>
</event>
<event>
 4    1  0.5134057E+003  0.1090924E+03  0.7546771E-02  0.1262260E+00
         21   -1    0    0  501  502  0.00000000000E+00  0.00000000000E+00  0.13400811291E+02  0.13400811291E+02  0.00000000000E+00 0. -1.
          2   -1    0    0  503    0 -0.00000000000E+00 -0.00000000000E+00 -0.17178037856E+04  0.17178037856E+04  0.00000000000E+00 0. -1.
         21    1    1    2  503  502 -0.83674910401E+02 -0.69997648431E+02 -0.25061912556E+03  0.27333332675E+03  0.00000000000E+00 0. -1.
          2    1    1    2  501    0  0.83674910401E+02  0.69997648431E+02 -0.14537838487E+04  0.14578712701E+04  0.00000000000E+00 0. -1.
<mgrwt>
<rscale>  2 0.10909244E+03</rscale>
<asrwt>0</asrwt>
<pdfrwt beam="1">  1       21 0.20616634E-02 0.10909244E+03</pdfrwt>
<pdfrwt beam="2">  1        2 0.26427749E+00 0.10909244E+03</pdfrwt>
<totfact> 0.15832510E+05</totfact>
</mgrwt>
</event>
<event>
 4    1  0.5134057E+003  0.1355968E+03  0.7546771E-02  0.1219380E+00
          2   -1    0    0  502    0 -0.00000000000E+00  0.00000000000E+00  0.78373377140E+03  0.78373377140E+03  0.00000000000E+00 0.  1.
         21   -1    0    0  503  502  0.00000000000E+00 -0.00000000000E+00 -0.24479914085E+02  0.24479914085E+02  0.00000000000E+00 0.  1.
         21    1    1    2  503  501  0.19391986422E+02  0.13420295937E+03  0.29714689479E+03  0.32662327003E+03  0.00000000000E+00 0.  1.
          2    1    1    2  501    0 -0.19391986422E+02 -0.13420295937E+03  0.46210696253E+03  0.48159041546E+03  0.00000000000E+00 0.  1.
<mgrwt>
<rscale>  2 0.13559677E+03</rscale>
<asrwt>0</asrwt>
<pdfrwt beam="2">  1       21 0.37661412E-02 0.13559677E+03</pdfrwt>
<pdfrwt beam="1">  1        2 0.12057441E+00 0.13559677E+03</pdfrwt>
<totfact> 0.19785071E+05</totfact>
</mgrwt>
</event>
<event>
 4    1  0.5134057E+003  0.1405156E+03  0.7546771E-02  0.1212637E+00
          2   -1    0    0  503    0 -0.00000000000E+00  0.00000000000E+00  0.11067230036E+04  0.11067230036E+04  0.00000000000E+00 0.  1.
         21   -1    0    0  501  502  0.00000000000E+00 -0.00000000000E+00 -0.20882890725E+02  0.20882890725E+02  0.00000000000E+00 0. -1.
         21    1    1    2  503  502 -0.40585399889E+02 -0.13452683084E+03  0.32772624404E+03  0.35657977219E+03  0.00000000000E+00 0. -1.
          2    1    1    2  501    0  0.40585399889E+02  0.13452683084E+03  0.75811386888E+03  0.77102612218E+03  0.00000000000E+00 0.  1.
<mgrwt>
<rscale>  2 0.14051563E+03</rscale>
<asrwt>0</asrwt>
<pdfrwt beam="2">  1       21 0.32127533E-02 0.14051563E+03</pdfrwt>
<pdfrwt beam="1">  1        2 0.17026503E+00 0.14051563E+03</pdfrwt>
<totfact> 0.16250608E+05</totfact>
</mgrwt>
</event>
<event>
 4    1  0.5134057E+003  0.1423749E+03  0.7546771E-02  0.1210169E+00
          2   -1    0    0  502    0 -0.00000000000E+00  0.00000000000E+00  0.23988294501E+04  0.23988294501E+04  0.00000000000E+00 0. -1.
         21   -1    0    0  503  502  0.00000000000E+00 -0.00000000000E+00 -0.49863126038E+02  0.49863126038E+02  0.00000000000E+00 0.  1.
         21    1    1    2  503  501 -0.41673199751E+02 -0.13613948199E+03  0.58693275909E+02  0.15399842457E+03  0.00000000000E+00 0.  1.
          2    1    1    2  501    0  0.41673199751E+02  0.13613948199E+03  0.22902730481E+04  0.22946941515E+04  0.00000000000E+00 0. -1.
<mgrwt>
<rscale>  2 0.14237491E+03</rscale>
<asrwt>0</asrwt>
<pdfrwt beam="2">  1       21 0.76712520E-02 0.14237491E+03</pdfrwt>
<pdfrwt beam="1">  1        2 0.36905060E+00 0.14237491E+03</pdfrwt>
<totfact> 0.78880747E+03</totfact>
</mgrwt>
</event>
<event>
 4    1  0.5134057E+003  0.1210854E+03  0.7546771E-02  0.1241317E+00
          2   -1    0    0  503    0 -0.00000000000E+00  0.00000000000E+00  0.59846816349E+03  0.59846816349E+03  0.00000000000E+00 0.  1.
         21   -1    0    0  501  502  0.00000000000E+00 -0.00000000000E+00 -0.10896816847E+03  0.10896816847E+03  0.00000000000E+00 0.  1.
         21    1    1    2  503  502 -0.29737998419E+02 -0.11737684239E+03 -0.66677895002E+02  0.13823029104E+03  0.00000000000E+00 0.  1.
          2    1    1    2  501    0  0.29737998419E+02  0.11737684239E+03  0.55617789001E+03  0.56920604092E+03  0.00000000000E+00 0.  1.
<mgrwt>
<rscale>  2 0.12108539E+03</rscale>
<asrwt>0</asrwt>
<pdfrwt beam="2">  1       21 0.16764334E-01 0.12108539E+03</pdfrwt>
<pdfrwt beam="1">  1        2 0.92072024E-01 0.12108539E+03</pdfrwt>
<totfact> 0.20576662E+04</totfact>
</mgrwt>
</event>
<event>
 4    1  0.5134057E+003  0.1075587E+03  0.7546771E-02  0.1265159E+00
          2   -1    0    0  503    0 -0.00000000000E+00  0.00000000000E+00  0.29726193837E+03  0.29726193837E+03  0.00000000000E+00 0.  1.
         21   -1    0    0  501  502  0.00000000000E+00 -0.00000000000E+00 -0.13937440173E+03  0.13937440173E+03  0.00000000000E+00 0. -1.
         21    1    1    2  503  502 -0.23761032330E+02  0.10490127178E+03 -0.10640385156E+03  0.15129654030E+03  0.00000000000E+00 0. -1.
          2    1    1    2  501    0  0.23761032330E+02 -0.10490127178E+03  0.26429138820E+03  0.28533979980E+03  0.00000000000E+00 0.  1.
<mgrwt>
<rscale>  2 0.10755865E+03</rscale>
<asrwt>0</asrwt>
<pdfrwt beam="2">  1       21 0.21442216E-01 0.10755865E+03</pdfrwt>
<pdfrwt beam="1">  1        2 0.45732606E-01 0.10755865E+03</pdfrwt>
<totfact> 0.27837594E+04</totfact>
</mgrwt>
</event>
<event>
 4    1  0.5134057E+003  0.1193183E+03  0.7546771E-02  0.1244226E+00
          2   -1    0    0  502    0 -0.00000000000E+00  0.00000000000E+00  0.10000315441E+04  0.10000315441E+04  0.00000000000E+00 0.  1.
         21   -1    0    0  503  502  0.00000000000E+00 -0.00000000000E+00 -0.15937370555E+02  0.15937370555E+02  0.00000000000E+00 0.  1.
         21    1    1    2  503  501 -0.11131762311E+03 -0.42956375713E+02  0.32609273143E+03  0.34723671021E+03  0.00000000000E+00 0.  1.
          2    1    1    2  501    0  0.11131762311E+03  0.42956375713E+02  0.65800144210E+03  0.66873220443E+03  0.00000000000E+00 0.  1.
<mgrwt>
<rscale>  2 0.11931833E+03</rscale>
<asrwt>0</asrwt>
<pdfrwt beam="2">  1       21 0.24519039E-02 0.11931833E+03</pdfrwt>
<pdfrwt beam="1">  1        2 0.15385096E+00 0.11931833E+03</pdfrwt>
<totfact> 0.29037865E+05</totfact>
</mgrwt>
</event>
<event>
 4    1  0.5134057E+003  0.1209925E+03  0.7546771E-02  0.1241469E+00
          2   -1    0    0  502    0 -0.00000000000E+00  0.00000000000E+00  0.19909651065E+04  0.19909651065E+04  0.00000000000E+00 0. -1.
         21   -1    0    0  503  502  0.00000000000E+00 -0.00000000000E+00 -0.79657816004E+01  0.79657816004E+01  0.00000000000E+00 0. -1.
         21    1    1    2  503  501  0.58410375511E+02  0.10595952022E+03  0.71424867886E+03  0.72442416245E+03  0.00000000000E+00 0. -1.
          2    1    1    2  501    0 -0.58410375511E+02 -0.10595952022E+03  0.12687506461E+04  0.12745067257E+04  0.00000000000E+00 0. -1.
<mgrwt>
<rscale>  2 0.12099253E+03</rscale>
<asrwt>0</asrwt>
<pdfrwt beam="2">  1       21 0.12255064E-02 0.12099253E+03</pdfrwt>
<pdfrwt beam="1">  1        2 0.30630193E+00 0.12099253E+03</pdfrwt>
<totfact> 0.26417509E+05</totfact>
</mgrwt>
</event>
<event>
 4    1  0.5134057E+003  0.1111970E+03  0.7546771E-02  0.1258369E+00
         21   -1    0    0  501  502  0.00000000000E+00  0.00000000000E+00  0.12634175000E+02  0.12634175000E+02  0.00000000000E+00 0.  1.
          1   -1    0    0  503    0 -0.00000000000E+00 -0.00000000000E+00 -0.98369845811E+03  0.98369845811E+03  0.00000000000E+00 0.  1.
         21    1    1    2  503  502  0.80299353683E+02  0.76920686158E+02 -0.44994012831E+03  0.46347696515E+03  0.00000000000E+00 0.  1.
          1    1    1    2  501    0 -0.80299353683E+02 -0.76920686158E+02 -0.52112415480E+03  0.53285566796E+03  0.00000000000E+00 0.  1.
<mgrwt>
<rscale>  2 0.11119702E+03</rscale>
<asrwt>0</asrwt>
<pdfrwt beam="1">  1       21 0.19437198E-02 0.11119702E+03</pdfrwt>
<pdfrwt beam="2">  1        1 0.15133818E+00 0.11119702E+03</pdfrwt>
<totfact> 0.23462219E+05</totfact>
</mgrwt>
</event>
<event>
 4    1  0.5134057E+003  0.1171039E+03  0.7546771E-02  0.1247953E+00
         21   -1    0    0  501  502  0.00000000000E+00  0.00000000000E+00  0.41738760540E+03  0.41738760540E+03  0.00000000000E+00 0.  1.
          2   -1    0    0  503    0 -0.00000000000E+00 -0.00000000000E+00 -0.41623614246E+02  0.41623614246E+02  0.00000000000E+00 0.  1.
         21    1    1    2  503  502 -0.93367681895E+02  0.70680993590E+02  0.29322010171E+03  0.31573937816E+03  0.00000000000E+00 0.  1.
          2    1    1    2  501    0  0.93367681895E+02 -0.70680993590E+02  0.82543889448E+02  0.14327184148E+03  0.00000000000E+00 0.  1.
<mgrwt>
<rscale>  2 0.11710391E+03</rscale>
<asrwt>0</asrwt>
<pdfrwt beam="1">  1       21 0.64213475E-01 0.11710391E+03</pdfrwt>
<pdfrwt beam="2">  1        2 0.64036332E-02 0.11710391E+03</pdfrwt>
<totfact> 0.30486124E+04</totfact>
</mgrwt>
</event>
<event>
 4    1  0.5134057E+003  0.1095256E+03  0.7546771E-02  0.1261451E+00
         -1   -1    0    0    0  501 -0.00000000000E+00  0.00000000000E+00  0.30026872738E+02  0.30026872738E+02  0.00000000000E+00 0.  1.
         21   -1    0    0  501  502  0.00000000000E+00 -0.00000000000E+00 -0.68804783311E+03  0.68804783311E+03  0.00000000000E+00 0. -1.
         21    1    1    2  503  502  0.30099725065E+02  0.10530840368E+03 -0.56151761103E+03  0.57209953752E+03  0.00000000000E+00 0. -1.
         -1    1    1    2    0  503 -0.30099725065E+02 -0.10530840368E+03 -0.96503349340E+02  0.14597516833E+03  0.00000000000E+00 0.  1.
<mgrwt>
<rscale>  2 0.10952558E+03</rscale>
<asrwt>0</asrwt>
<pdfrwt beam="2">  1       21 0.10585350E+00 0.10952558E+03</pdfrwt>
<pdfrwt beam="1">  1       -1 0.46195193E-02 0.10952558E+03</pdfrwt>
<totfact> 0.12645853E+04</totfact>
</mgrwt>
</event>
<event>
 4    1  0.5134057E+003  0.1585400E+03  0.7546771E-02  0.1190355E+00
          2   -1    0    0  503    0 -0.00000000000E+00  0.00000000000E+00  0.29450249617E+03  0.29450249617E+03  0.00000000000E+00 0. -1.
         21   -1    0    0  501  502  0.00000000000E+00 -0.00000000000E+00 -0.16525656536E+03  0.16525656536E+03  0.00000000000E+00 0. -1.
         21    1    1    2  503  502 -0.15448134171E+03 -0.35643303072E+02 -0.95229776597E+02  0.18494226218E+03  0.00000000000E+00 0. -1.
          2    1    1    2  501    0  0.15448134171E+03  0.35643303072E+02  0.22447570740E+03  0.27481679935E+03  0.00000000000E+00 0. -1.
<mgrwt>
<rscale>  2 0.15853999E+03</rscale>
<asrwt>0</asrwt>
<pdfrwt beam="2">  1       21 0.25424087E-01 0.15853999E+03</pdfrwt>
<pdfrwt beam="1">  1        2 0.45308076E-01 0.15853999E+03</pdfrwt>
<totfact> 0.20370782E+04</totfact>
</mgrwt>
</event>
<event>
 4    1  0.5134057E+003  0.1807747E+03  0.7546771E-02  0.1167055E+00
          1   -1    0    0  502    0 -0.00000000000E+00  0.00000000000E+00  0.13599821077E+04  0.13599821077E+04  0.00000000000E+00 0.  1.
         21   -1    0    0  503  502  0.00000000000E+00 -0.00000000000E+00 -0.54006070778E+02  0.54006070778E+02  0.00000000000E+00 0.  1.
         21    1    1    2  503  501 -0.13872345987E+03 -0.11591065335E+03  0.12625978577E+03  0.22050172648E+03  0.00000000000E+00 0.  1.
          1    1    1    2  501    0  0.13872345987E+03  0.11591065335E+03  0.11797162512E+04  0.11934864520E+04  0.00000000000E+00 0.  1.
<mgrwt>
<rscale>  2 0.18077466E+03</rscale>
<asrwt>0</asrwt>
<pdfrwt beam="2">  1       21 0.83086273E-02 0.18077466E+03</pdfrwt>
<pdfrwt beam="1">  1        1 0.20922799E+00 0.18077466E+03</pdfrwt>
<totfact> 0.11348415E+04</totfact>
</mgrwt>
</event>
<event>
 4    1  0.5134057E+003  0.1012212E+03  0.7546771E-02  0.1277749E+00
         21   -1    0    0  501  502  0.00000000000E+00  0.00000000000E+00  0.34868245812E+02  0.34868245812E+02  0.00000000000E+00 0.  1.
          2   -1    0    0  503    0 -0.00000000000E+00 -0.00000000000E+00 -0.30341620086E+03  0.30341620086E+03  0.00000000000E+00 0. -1.
         21    1    1    2  503  502 -0.28644824263E+02  0.97083536646E+02 -0.10422744548E+03  0.14528970864E+03  0.00000000000E+00 0.  1.
          2    1    1    2  501    0  0.28644824263E+02 -0.97083536646E+02 -0.16432050957E+03  0.19299473804E+03  0.00000000000E+00 0. -1.
<mgrwt>
<rscale>  2 0.10122124E+03</rscale>
<asrwt>0</asrwt>
<pdfrwt beam="1">  1       21 0.53643454E-02 0.10122124E+03</pdfrwt>
<pdfrwt beam="2">  1        2 0.46679416E-01 0.10122124E+03</pdfrwt>
<totfact> 0.30847669E+05</totfact>
</mgrwt>
</event>
<event>
 4    1  0.5134057E+003  0.1453207E+03  0.7546771E-02  0.1206344E+00
         21   -1    0    0  501  502  0.00000000000E+00  0.00000000000E+00  0.23277170829E+03  0.23277170829E+03  0.00000000000E+00 0. -1.
          1   -1    0    0  503    0 -0.00000000000E+00 -0.00000000000E+00 -0.28088757038E+03  0.28088757038E+03  0.00000000000E+00 0. -1.
         21    1    1    2  503  502 -0.98087095028E+02  0.10722422994E+03  0.18726269514E+03  0.23703466136E+03  0.00000000000E+00 0. -1.
          1    1    1    2  501    0  0.98087095028E+02 -0.10722422994E+03 -0.23537855723E+03  0.27662461730E+03  0.00000000000E+00 0. -1.
<mgrwt>
<rscale>  2 0.14532073E+03</rscale>
<asrwt>0</asrwt>
<pdfrwt beam="1">  1       21 0.35811032E-01 0.14532073E+03</pdfrwt>
<pdfrwt beam="2">  1        1 0.43213472E-01 0.14532073E+03</pdfrwt>
<totfact> 0.79069116E+03</totfact>
</mgrwt>
</event>
<event>
 4    1  0.5134057E+003  0.1378737E+03  0.7546771E-02  0.1216219E+00
          2   -1    0    0  502    0 -0.00000000000E+00  0.00000000000E+00  0.39830955470E+04  0.39830955470E+04  0.00000000000E+00 0. -1.
         21   -1    0    0  503  502  0.00000000000E+00 -0.00000000000E+00 -0.12480737009E+02  0.12480737009E+02  0.00000000000E+00 0.  1.
         21    1    1    2  503  501  0.74065618600E+02  0.11629029963E+03  0.41527695850E+03  0.43756611147E+03  0.00000000000E+00 0.  1.
          2    1    1    2  501    0 -0.74065618600E+02 -0.11629029963E+03  0.35553378515E+04  0.35580101725E+04  0.00000000000E+00 0. -1.
<mgrwt>
<rscale>  2 0.13787367E+03</rscale>
<asrwt>0</asrwt>
<pdfrwt beam="2">  1       21 0.19201166E-02 0.13787367E+03</pdfrwt>
<pdfrwt beam="1">  1        2 0.61278292E+00 0.13787367E+03</pdfrwt>
<totfact> 0.84533071E+03</totfact>
</mgrwt>
</event>
<event>
 4    1  0.5134057E+003  0.1299125E+03  0.7546771E-02  0.1227586E+00
          2   -1    0    0  503    0 -0.00000000000E+00  0.00000000000E+00  0.89475805695E+02  0.89475805695E+02  0.00000000000E+00 0.  1.
         21   -1    0    0  501  502  0.00000000000E+00 -0.00000000000E+00 -0.10799555431E+04  0.10799555431E+04  0.00000000000E+00 0. -1.
         21    1    1    2  503  502 -0.11242529444E+03 -0.65098547881E+02 -0.10264440445E+04  0.10346326131E+04  0.00000000000E+00 0. -1.
          2    1    1    2  501    0  0.11242529444E+03  0.65098547881E+02  0.35964307012E+02  0.13479873570E+03  0.00000000000E+00 0.  1.
<mgrwt>
<rscale>  2 0.12991254E+03</rscale>
<asrwt>0</asrwt>
<pdfrwt beam="2">  1       21 0.16614700E+00 0.12991254E+03</pdfrwt>
<pdfrwt beam="1">  1        2 0.13765509E-01 0.12991254E+03</pdfrwt>
<totfact> 0.12431698E+03</totfact>
</mgrwt>
</event>
<event>
 4    1  0.5134057E+003  0.1067837E+03  0.7546771E-02  0.1266645E+00
         21   -1    0    0  501  502  0.00000000000E+00  0.00000000000E+00  0.70032801018E+02  0.70032801018E+02  0.00000000000E+00 0.  1.
          2   -1    0    0  503    0 -0.00000000000E+00 -0.00000000000E+00 -0.51120580285E+03  0.51120580285E+03  0.00000000000E+00 0. -1.
         21    1    1    2  503  502  0.10386044012E+03  0.24814817258E+02  0.19328036798E+02  0.10851884253E+03  0.00000000000E+00 0.  1.
          2    1    1    2  501    0 -0.10386044012E+03 -0.24814817258E+02 -0.46050103863E+03  0.47271976134E+03  0.00000000000E+00 0. -1.
<mgrwt>
<rscale>  2 0.10678374E+03</rscale>
<asrwt>0</asrwt>
<pdfrwt beam="1">  1       21 0.10774277E-01 0.10678374E+03</pdfrwt>
<pdfrwt beam="2">  1        2 0.78647047E-01 0.10678374E+03</pdfrwt>
<totfact> 0.53897502E+04</totfact>
</mgrwt>
</event>
<event>
 4    1  0.5134057E+003  0.1124323E+03  0.7546771E-02  0.1256131E+00
         21   -1    0    0  503  502  0.00000000000E+00  0.00000000000E+00  0.20187213327E+03  0.20187213327E+03  0.00000000000E+00 0.  1.
          1   -1    0    0  502    0 -0.00000000000E+00 -0.00000000000E+00 -0.64181036193E+02  0.64181036193E+02  0.00000000000E+00 0.  1.
         21    1    1    2  503  501  0.18998597588E+02 -0.11081546974E+03  0.89599064866E+02  0.14376719886E+03  0.00000000000E+00 0.  1.
          1    1    1    2  501    0 -0.18998597588E+02  0.11081546974E+03  0.48092032213E+02  0.12228597060E+03  0.00000000000E+00 0.  1.
<mgrwt>
<rscale>  2 0.11243227E+03</rscale>
<asrwt>0</asrwt>
<pdfrwt beam="1">  1       21 0.31057251E-01 0.11243227E+03</pdfrwt>
<pdfrwt beam="2">  1        1 0.98740057E-02 0.11243227E+03</pdfrwt>
<totfact> 0.68101192E+04</totfact>
</mgrwt>
</event>
<event>
 4    1  0.5134057E+003  0.1357644E+03  0.7546771E-02  0.1219145E+00
         21   -1    0    0  501  502  0.00000000000E+00  0.00000000000E+00  0.93257303414E+02  0.93257303414E+02  0.00000000000E+00 0. -1.
         -3   -1    0    0    0  501 -0.00000000000E+00 -0.00000000000E+00 -0.10275333297E+04  0.10275333297E+04  0.00000000000E+00 0.  1.
         21    1    1    2  503  502 -0.66683957850E+01  0.13560048733E+03  0.36485537234E+02  0.14058148560E+03  0.00000000000E+00 0. -1.
         -3    1    1    2    0  503  0.66683957850E+01 -0.13560048733E+03 -0.97076156348E+03  0.98020914747E+03  0.00000000000E+00 0.  1.
<mgrwt>
<rscale>  2 0.13576435E+03</rscale>
<asrwt>0</asrwt>
<pdfrwt beam="1">  1       21 0.14347278E-01 0.13576435E+03</pdfrwt>
<pdfrwt beam="2">  1       -3 0.15808205E+00 0.13576435E+03</pdfrwt>
<totfact> 0.63420493E+02</totfact>
</mgrwt>
</event>
<event>
 4    1  0.5134057E+003  0.1430523E+03  0.7546771E-02  0.1209280E+00
         -2   -1    0    0    0  501 -0.00000000000E+00  0.00000000000E+00  0.14555368422E+03  0.14555368422E+03  0.00000000000E+00 0.  1.
         21   -1    0    0  503  502  0.00000000000E+00 -0.00000000000E+00 -0.48234582912E+03  0.48234582912E+03  0.00000000000E+00 0.  1.
         21    1    1    2  503  501 -0.33824074252E+02  0.13899600536E+03 -0.43265908761E+03  0.45569490188E+03  0.00000000000E+00 0.  1.
         -2    1    1    2    0  502  0.33824074252E+02 -0.13899600536E+03  0.95866942708E+02  0.17220461146E+03  0.00000000000E+00 0.  1.
<mgrwt>
<rscale>  2 0.14305229E+03</rscale>
<asrwt>0</asrwt>
<pdfrwt beam="2">  1       21 0.74207050E-01 0.14305229E+03</pdfrwt>
<pdfrwt beam="1">  1       -2 0.22392875E-01 0.14305229E+03</pdfrwt>
<totfact> 0.22769623E+03</totfact>
</mgrwt>
</event>
<event>
 4    1  0.5134057E+003  0.1035928E+03  0.7546771E-02  0.1272917E+00
         -4   -1    0    0    0  501 -0.00000000000E+00  0.00000000000E+00  0.94536973062E+01  0.94536973062E+01  0.00000000000E+00 0. -1.
         21   -1    0    0  503  502  0.00000000000E+00 -0.00000000000E+00 -0.12864051291E+04  0.12864051291E+04  0.00000000000E+00 0.  1.
         21    1    1    2  503  501  0.63379317971E+02 -0.81942231257E+02 -0.86064206113E+03  0.86685421185E+03  0.00000000000E+00 0.  1.
         -4    1    1    2    0  502 -0.63379317971E+02  0.81942231257E+02 -0.41630937061E+03  0.42900461451E+03  0.00000000000E+00 0. -1.
<mgrwt>
<rscale>  2 0.10359280E+03</rscale>
<asrwt>0</asrwt>
<pdfrwt beam="2">  1       21 0.19790844E+00 0.10359280E+03</pdfrwt>
<pdfrwt beam="1">  1       -4 0.14544153E-02 0.10359280E+03</pdfrwt>
<totfact> 0.95861377E+03</totfact>
</mgrwt>
</event>
<event>
 4    1  0.5134057E+003  0.1079077E+03  0.7546771E-02  0.1264494E+00
         21   -1    0    0  503  502  0.00000000000E+00  0.00000000000E+00  0.17029425614E+03  0.17029425614E+03  0.00000000000E+00 0.  1.
          2   -1    0    0  502    0 -0.00000000000E+00 -0.00000000000E+00 -0.11388024160E+04  0.11388024160E+04  0.00000000000E+00 0. -1.
         21    1    1    2  503  501  0.34428184314E+02  0.10226808659E+03  0.15033985471E+03  0.18505710828E+03  0.00000000000E+00 0.  1.
          2    1    1    2  501    0 -0.34428184314E+02 -0.10226808659E+03 -0.11188480145E+04  0.11240395638E+04  0.00000000000E+00 0. -1.
<mgrwt>
<rscale>  2 0.10790765E+03</rscale>
<asrwt>0</asrwt>
<pdfrwt beam="1">  1       21 0.26199116E-01 0.10790765E+03</pdfrwt>
<pdfrwt beam="2">  1        2 0.17520037E+00 0.10790765E+03</pdfrwt>
<totfact> 0.40081174E+03</totfact>
</mgrwt>
</event>
<event>
 4    1  0.5134057E+003  0.1197314E+03  0.7546771E-02  0.1243541E+00
         -2   -1    0    0    0  501 -0.00000000000E+00  0.00000000000E+00  0.16647556198E+03  0.16647556198E+03  0.00000000000E+00 0.  1.
         21   -1    0    0  503  502  0.00000000000E+00 -0.00000000000E+00 -0.13287949286E+03  0.13287949286E+03  0.00000000000E+00 0.  1.
         21    1    1    2  503  501  0.90072097875E+02 -0.78883580432E+02 -0.71998912075E+02  0.13971200885E+03  0.00000000000E+00 0.  1.
         -2    1    1    2    0  502 -0.90072097875E+02  0.78883580432E+02  0.10559498120E+03  0.15964304599E+03  0.00000000000E+00 0.  1.
<mgrwt>
<rscale>  2 0.11973137E+03</rscale>
<asrwt>0</asrwt>
<pdfrwt beam="2">  1       21 0.20442999E-01 0.11973137E+03</pdfrwt>
<pdfrwt beam="1">  1       -2 0.25611625E-01 0.11973137E+03</pdfrwt>
<totfact> 0.23963482E+04</totfact>
</mgrwt>
</event>
<event>
 4    1  0.5134057E+003  0.1517334E+03  0.7546771E-02  0.1198359E+00
          1   -1    0    0  503    0 -0.00000000000E+00  0.00000000000E+00  0.15811287994E+04  0.15811287994E+04  0.00000000000E+00 0.  1.
         21   -1    0    0  501  502  0.00000000000E+00 -0.00000000000E+00 -0.26311290351E+02  0.26311290351E+02  0.00000000000E+00 0.  1.
         21    1    1    2  503  502 -0.62209923893E+02 -0.13839419346E+03  0.24030825094E+03  0.28420253849E+03  0.00000000000E+00 0.  1.
          1    1    1    2  501    0  0.62209923893E+02  0.13839419346E+03  0.13145092581E+04  0.13232375513E+04  0.00000000000E+00 0.  1.
<mgrwt>
<rscale>  2 0.15173341E+03</rscale>
<asrwt>0</asrwt>
<pdfrwt beam="2">  1       21 0.40478920E-02 0.15173341E+03</pdfrwt>
<pdfrwt beam="1">  1        1 0.24325051E+00 0.15173341E+03</pdfrwt>
<totfact> 0.27895760E+04</totfact>
</mgrwt>
</event>
<event>
 4    1  0.5134057E+003  0.1136328E+03  0.7546771E-02  0.1253987E+00
          3   -1    0    0  502    0 -0.00000000000E+00  0.00000000000E+00  0.26255445621E+02  0.26255445621E+02  0.00000000000E+00 0. -1.
         21   -1    0    0  503  502  0.00000000000E+00 -0.00000000000E+00 -0.51267957300E+03  0.51267957300E+03  0.00000000000E+00 0. -1.
         21    1    1    2  503  501 -0.76262995365E+02  0.84239949866E+02 -0.29759341154E+03  0.31855023498E+03  0.00000000000E+00 0. -1.
          3    1    1    2  501    0  0.76262995365E+02 -0.84239949866E+02 -0.18883071584E+03  0.22038478364E+03  0.00000000000E+00 0. -1.
<mgrwt>
<rscale>  2 0.11363280E+03</rscale>
<asrwt>0</asrwt>
<pdfrwt beam="2">  1       21 0.78873778E-01 0.11363280E+03</pdfrwt>
<pdfrwt beam="1">  1        3 0.40392994E-02 0.11363280E+03</pdfrwt>
<totfact> 0.21710400E+04</totfact>
</mgrwt>
</event>
<event>
 4    1  0.5134057E+003  0.1244140E+03  0.7546771E-02  0.1235988E+00
         21   -1    0    0  501  502  0.00000000000E+00  0.00000000000E+00  0.84205077736E+03  0.84205077736E+03  0.00000000000E+00 0. -1.
          1   -1    0    0  503    0 -0.00000000000E+00 -0.00000000000E+00 -0.29073848148E+02  0.29073848148E+02  0.00000000000E+00 0. -1.
         21    1    1    2  503  502  0.83984641580E+02 -0.91790130311E+02  0.67061917486E+03  0.68206225943E+03  0.00000000000E+00 0. -1.
          1    1    1    2  501    0 -0.83984641580E+02  0.91790130311E+02  0.14235775435E+03  0.18906236608E+03  0.00000000000E+00 0. -1.
<mgrwt>
<rscale>  2 0.12441402E+03</rscale>
<asrwt>0</asrwt>
<pdfrwt beam="1">  1       21 0.12954625E+00 0.12441402E+03</pdfrwt>
<pdfrwt beam="2">  1        1 0.44729004E-02 0.12441402E+03</pdfrwt>
<totfact> 0.90481883E+03</totfact>
</mgrwt>
</event>
<event>
 4    1  0.5134057E+003  0.1351063E+03  0.7546771E-02  0.1220070E+00
         21   -1    0    0  501  502  0.00000000000E+00  0.00000000000E+00  0.18334029793E+03  0.18334029793E+03  0.00000000000E+00 0. -1.
          1   -1    0    0  503    0 -0.00000000000E+00 -0.00000000000E+00 -0.11976572233E+03  0.11976572233E+03  0.00000000000E+00 0. -1.
         21    1    1    2  503  502 -0.79328467266E+02  0.10936499117E+03  0.94033818313E+02  0.16460882722E+03  0.00000000000E+00 0. -1.
          1    1    1    2  501    0  0.79328467266E+02 -0.10936499117E+03 -0.30459242713E+02  0.13849719304E+03  0.00000000000E+00 0. -1.
<mgrwt>
<rscale>  2 0.13510628E+03</rscale>
<asrwt>0</asrwt>
<pdfrwt beam="1">  1       21 0.28206199E-01 0.13510628E+03</pdfrwt>
<pdfrwt beam="2">  1        1 0.18425496E-01 0.13510628E+03</pdfrwt>
<totfact> 0.36604564E+04</totfact>
</mgrwt>
</event>
<event>
 4    1  0.5134057E+003  0.1046579E+03  0.7546771E-02  0.1270795E+00
         21   -1    0    0  501  502  0.00000000000E+00  0.00000000000E+00  0.27655977781E+04  0.27655977781E+04  0.00000000000E+00 0. -1.
          3   -1    0    0  503    0 -0.00000000000E+00 -0.00000000000E+00 -0.43986379490E+01  0.43986379490E+01  0.00000000000E+00 0.  1.
         21    1    1    2  503  502  0.81980850803E+02 -0.65057034437E+02  0.18176913766E+04  0.18207018477E+04  0.00000000000E+00 0. -1.
          3    1    1    2  501    0 -0.81980850803E+02  0.65057034437E+02  0.94350776352E+03  0.94929456833E+03  0.00000000000E+00 0.  1.
<mgrwt>
<rscale>  2 0.10465791E+03</rscale>
<asrwt>0</asrwt>
<pdfrwt beam="1">  1       21 0.42547519E+00 0.10465791E+03</pdfrwt>
<pdfrwt beam="2">  1        3 0.67671574E-03 0.10465791E+03</pdfrwt>
<totfact> 0.15892627E+03</totfact>
</mgrwt>
</event>
<event>
 4    1  0.5134057E+003  0.1005564E+03  0.7546771E-02  0.1279130E+00
          1   -1    0    0  503    0 -0.00000000000E+00  0.00000000000E+00  0.85627870818E+03  0.85627870818E+03  0.00000000000E+00 0. -1.
         21   -1    0    0  501  502  0.00000000000E+00 -0.00000000000E+00 -0.23374105673E+02  0.23374105673E+02  0.00000000000E+00 0. -1.
         21    1    1    2  503  502 -0.58705746071E+01 -0.10038491526E+03  0.10707175914E+03  0.14688756401E+03  0.00000000000E+00 0. -1.
          1    1    1    2  501    0  0.58705746071E+01  0.10038491526E+03  0.72583284337E+03  0.73276524983E+03  0.00000000000E+00 0. -1.
<mgrwt>
<rscale>  2 0.10055643E+03</rscale>
<asrwt>0</asrwt>
<pdfrwt beam="2">  1       21 0.35960169E-02 0.10055643E+03</pdfrwt>
<pdfrwt beam="1">  1        1 0.13173516E+00 0.10055643E+03</pdfrwt>
<totfact> 0.10741506E+05</totfact>
</mgrwt>
</event>
<event>
 4    1  0.5134057E+003  0.1160586E+03  0.7546771E-02  0.1249744E+00
         21   -1    0    0  503  502  0.00000000000E+00  0.00000000000E+00  0.43323329105E+02  0.43323329105E+02  0.00000000000E+00 0. -1.
         -1   -1    0    0    0  501 -0.00000000000E+00 -0.00000000000E+00 -0.21947012723E+04  0.21947012723E+04  0.00000000000E+00 0.  1.
         21    1    1    2  503  501  0.11308093562E+03 -0.26120999672E+02 -0.38963711397E+02  0.12242457037E+03  0.00000000000E+00 0. -1.
         -1    1    1    2    0  502 -0.11308093562E+03  0.26120999672E+02 -0.21124142318E+04  0.21156000310E+04  0.00000000000E+00 0.  1.
<mgrwt>
<rscale>  2 0.11605863E+03</rscale>
<asrwt>0</asrwt>
<pdfrwt beam="1">  1       21 0.66651288E-02 0.11605863E+03</pdfrwt>
<pdfrwt beam="2">  1       -1 0.33764629E+00 0.11605863E+03</pdfrwt>
<totfact> 0.37450642E+02</totfact>
</mgrwt>
</event>
<event>
 4    1  0.5134057E+003  0.1200618E+03  0.7546771E-02  0.1242995E+00
         21   -1    0    0  501  502  0.00000000000E+00  0.00000000000E+00  0.13506480943E+02  0.13506480943E+02  0.00000000000E+00 0. -1.
          2   -1    0    0  503    0 -0.00000000000E+00 -0.00000000000E+00 -0.13145225123E+04  0.13145225123E+04  0.00000000000E+00 0. -1.
         21    1    1    2  503  502  0.74034288766E+02 -0.94518548688E+02 -0.36251705573E+03  0.38188145760E+03  0.00000000000E+00 0. -1.
          2    1    1    2  501    0 -0.74034288766E+02  0.94518548688E+02 -0.93849897558E+03  0.94614753560E+03  0.00000000000E+00 0. -1.
<mgrwt>
<rscale>  2 0.12006178E+03</rscale>
<asrwt>0</asrwt>
<pdfrwt beam="1">  1       21 0.20779206E-02 0.12006178E+03</pdfrwt>
<pdfrwt beam="2">  1        2 0.20223419E+00 0.12006178E+03</pdfrwt>
<totfact> 0.25312250E+05</totfact>
</mgrwt>
</event>
<event>
 4    1  0.5134057E+003  0.1498404E+03  0.7546771E-02  0.1200669E+00
          1   -1    0    0  503    0 -0.00000000000E+00  0.00000000000E+00  0.17005879043E+03  0.17005879043E+03  0.00000000000E+00 0. -1.
         21   -1    0    0  501  502  0.00000000000E+00 -0.00000000000E+00 -0.13267742289E+03  0.13267742289E+03  0.00000000000E+00 0. -1.
         21    1    1    2  503  502 -0.11835852634E+03  0.91887947535E+02  0.80820874061E+01  0.15005817471E+03  0.00000000000E+00 0. -1.
          1    1    1    2  501    0  0.11835852634E+03 -0.91887947535E+02  0.29299280135E+02  0.15267803862E+03  0.00000000000E+00 0. -1.
<mgrwt>
<rscale>  2 0.14984037E+03</rscale>
<asrwt>0</asrwt>
<pdfrwt beam="2">  1       21 0.20411911E-01 0.14984037E+03</pdfrwt>
<pdfrwt beam="1">  1        1 0.26162891E-01 0.14984037E+03</pdfrwt>
<totfact> 0.43290259E+04</totfact>
</mgrwt>
</event>
<event>
 4    1  0.5134057E+003  0.1684452E+03  0.7546771E-02  0.1179479E+00
          2   -1    0    0  503    0 -0.00000000000E+00  0.00000000000E+00  0.28091436278E+04  0.28091436278E+04  0.00000000000E+00 0. -1.
         21   -1    0    0  501  502  0.00000000000E+00 -0.00000000000E+00 -0.41852141789E+02  0.41852141789E+02  0.00000000000E+00 0.  1.
         21    1    1    2  503  502 -0.15306201947E+03 -0.70326475722E+02  0.14201993937E+03  0.22032580006E+03  0.00000000000E+00 0.  1.
          2    1    1    2  501    0  0.15306201947E+03  0.70326475722E+02  0.26252715467E+04  0.26306699695E+04  0.00000000000E+00 0. -1.
<mgrwt>
<rscale>  2 0.16844523E+03</rscale>
<asrwt>0</asrwt>
<pdfrwt beam="2">  1       21 0.64387932E-02 0.16844523E+03</pdfrwt>
<pdfrwt beam="1">  1        2 0.43217580E+00 0.16844523E+03</pdfrwt>
<totfact> 0.62694847E+03</totfact>
</mgrwt>
</event>
<event>
 4    1  0.5134057E+003  0.1024841E+03  0.7546771E-02  0.1275157E+00
         21   -1    0    0  501  502  0.00000000000E+00  0.00000000000E+00  0.41980468940E+03  0.41980468940E+03  0.00000000000E+00 0.  1.
         -1   -1    0    0    0  501 -0.00000000000E+00 -0.00000000000E+00 -0.24336757270E+03  0.24336757270E+03  0.00000000000E+00 0. -1.
         21    1    1    2  503  502  0.31646807734E+02 -0.97475464758E+02  0.40229866806E+03  0.41514720882E+03  0.00000000000E+00 0.  1.
         -1    1    1    2    0  503 -0.31646807734E+02  0.97475464758E+02 -0.22586155136E+03  0.24802505328E+03  0.00000000000E+00 0. -1.
<mgrwt>
<rscale>  2 0.10248408E+03</rscale>
<asrwt>0</asrwt>
<pdfrwt beam="1">  1       21 0.64585337E-01 0.10248408E+03</pdfrwt>
<pdfrwt beam="2">  1       -1 0.37441165E-01 0.10248408E+03</pdfrwt>
<totfact> 0.14683912E+03</totfact>
</mgrwt>
</event>
<event>
 4    1  0.5134057E+003  0.2448411E+03  0.7546771E-02  0.1116609E+00
         21   -1    0    0  501  502  0.00000000000E+00  0.00000000000E+00  0.23906906844E+04  0.23906906844E+04  0.00000000000E+00 0.  1.
          4   -1    0    0  503    0 -0.00000000000E+00 -0.00000000000E+00 -0.25076271993E+02  0.25076271993E+02  0.00000000000E+00 0. -1.
         21    1    1    2  503  502 -0.23746533847E+03 -0.59643856686E+02  0.11751119288E+04  0.12003479586E+04  0.00000000000E+00 0.  1.
          4    1    1    2  501    0  0.23746533847E+03  0.59643856686E+02  0.11905024836E+04  0.12154189977E+04  0.00000000000E+00 0. -1.
<mgrwt>
<rscale>  2 0.24484113E+03</rscale>
<asrwt>0</asrwt>
<pdfrwt beam="1">  1       21 0.36779839E+00 0.24484113E+03</pdfrwt>
<pdfrwt beam="2">  1        4 0.38578899E-02 0.24484113E+03</pdfrwt>
<totfact> 0.20140267E+02</totfact>
</mgrwt>
</event>
<event>
 4    1  0.5134057E+003  0.1043180E+03  0.7546771E-02  0.1271469E+00
         21   -1    0    0  501  502  0.00000000000E+00  0.00000000000E+00  0.44611847596E+03  0.44611847596E+03  0.00000000000E+00 0. -1.
         -2   -1    0    0    0  501 -0.00000000000E+00 -0.00000000000E+00 -0.43812962443E+02  0.43812962443E+02  0.00000000000E+00 0. -1.
         21    1    1    2  503  502 -0.13326512354E+02 -0.10346330341E+03  0.36424229881E+03  0.37888613504E+03  0.00000000000E+00 0. -1.
         -2    1    1    2    0  503  0.13326512354E+02  0.10346330341E+03  0.38063214709E+02  0.11104530336E+03  0.00000000000E+00 0. -1.
<mgrwt>
<rscale>  2 0.10431803E+03</rscale>
<asrwt>0</asrwt>
<pdfrwt beam="1">  1       21 0.68633609E-01 0.10431803E+03</pdfrwt>
<pdfrwt beam="2">  1       -2 0.67404561E-02 0.10431803E+03</pdfrwt>
<totfact> 0.18628929E+04</totfact>
</mgrwt>
</event>
<event>
 4    1  0.5134057E+003  0.1165219E+03  0.7546771E-02  0.1248948E+00
         21   -1    0    0  503  502  0.00000000000E+00  0.00000000000E+00  0.37417873723E+02  0.37417873723E+02  0.00000000000E+00 0. -1.
          2   -1    0    0  502    0 -0.00000000000E+00 -0.00000000000E+00 -0.72080135005E+03  0.72080135005E+03  0.00000000000E+00 0. -1.
         21    1    1    2  503  501  0.48947900875E+01 -0.11641901276E+03 -0.74535927542E+02  0.13832190714E+03  0.00000000000E+00 0. -1.
          2    1    1    2  501    0 -0.48947900875E+01  0.11641901276E+03 -0.60884754879E+03  0.61989731663E+03  0.00000000000E+00 0. -1.
<mgrwt>
<rscale>  2 0.11652187E+03</rscale>
<asrwt>0</asrwt>
<pdfrwt beam="1">  1       21 0.57565958E-02 0.11652187E+03</pdfrwt>
<pdfrwt beam="2">  1        2 0.11089252E+00 0.11652187E+03</pdfrwt>
<totfact> 0.10722938E+05</totfact>
</mgrwt>
</event>
<event>
 4    1  0.5134057E+003  0.1665996E+03  0.7546771E-02  0.1181441E+00
          1   -1    0    0  502    0 -0.00000000000E+00  0.00000000000E+00  0.29198725653E+03  0.29198725653E+03  0.00000000000E+00 0.  1.
         21   -1    0    0  503  502  0.00000000000E+00 -0.00000000000E+00 -0.41902261575E+03  0.41902261575E+03  0.00000000000E+00 0.  1.
         21    1    1    2  503  501 -0.56749583735E+02 -0.15663629247E+03 -0.37610858480E+03  0.41135521260E+03  0.00000000000E+00 0.  1.
          1    1    1    2  501    0  0.56749583735E+02  0.15663629247E+03  0.24907322558E+03  0.29965465969E+03  0.00000000000E+00 0.  1.
<mgrwt>
<rscale>  2 0.16659965E+03</rscale>
<asrwt>0</asrwt>
<pdfrwt beam="2">  1       21 0.64465017E-01 0.16659965E+03</pdfrwt>
<pdfrwt beam="1">  1        1 0.44921117E-01 0.16659965E+03</pdfrwt>
<totfact> 0.22229031E+03</totfact>
</mgrwt>
</event>
<event>
 4    1  0.5134057E+003  0.1467399E+03  0.7546771E-02  0.1204537E+00
         21   -1    0    0  503  502  0.00000000000E+00  0.00000000000E+00  0.30922713626E+03  0.30922713626E+03  0.00000000000E+00 0.  1.
          2   -1    0    0  502    0 -0.00000000000E+00 -0.00000000000E+00 -0.14948209131E+03  0.14948209131E+03  0.00000000000E+00 0.  1.
         21    1    1    2  503  501  0.12192908816E+03  0.81644849944E+02  0.24750045350E+03  0.28773087868E+03  0.00000000000E+00 0.  1.
          2    1    1    2  501    0 -0.12192908816E+03 -0.81644849944E+02 -0.87755408551E+02  0.17097834890E+03  0.00000000000E+00 0.  1.
<mgrwt>
<rscale>  2 0.14673985E+03</rscale>
<asrwt>0</asrwt>
<pdfrwt beam="1">  1       21 0.47573405E-01 0.14673985E+03</pdfrwt>
<pdfrwt beam="2">  1        2 0.22997245E-01 0.14673985E+03</pdfrwt>
<totfact> 0.12345104E+04</totfact>
</mgrwt>
</event>
<event>
 4    1  0.5134057E+003  0.1488105E+03  0.7546771E-02  0.1201942E+00
          2   -1    0    0  502    0 -0.00000000000E+00  0.00000000000E+00  0.12386424185E+04  0.12386424185E+04  0.00000000000E+00 0.  1.
         21   -1    0    0  503  502  0.00000000000E+00 -0.00000000000E+00 -0.40516897769E+02  0.40516897769E+02  0.00000000000E+00 0. -1.
         21    1    1    2  503  501 -0.76169797113E+01  0.14861541243E+03  0.12097972097E+03  0.19178282529E+03  0.00000000000E+00 0. -1.
          2    1    1    2  501    0  0.76169797113E+01 -0.14861541243E+03  0.10771457998E+04  0.10873764910E+04  0.00000000000E+00 0.  1.
<mgrwt>
<rscale>  2 0.14881048E+03</rscale>
<asrwt>0</asrwt>
<pdfrwt beam="2">  1       21 0.62333698E-02 0.14881048E+03</pdfrwt>
<pdfrwt beam="1">  1        2 0.19056034E+00 0.14881048E+03</pdfrwt>
<totfact> 0.45158212E+04</totfact>
</mgrwt>
</event>
<event>
 4    1  0.5134057E+003  0.1394145E+03  0.7546771E-02  0.1214119E+00
         21   -1    0    0  501  502  0.00000000000E+00  0.00000000000E+00  0.40595811411E+02  0.40595811411E+02  0.00000000000E+00 0.  1.
          2   -1    0    0  503    0 -0.00000000000E+00 -0.00000000000E+00 -0.48189767404E+03  0.48189767404E+03  0.00000000000E+00 0.  1.
         21    1    1    2  503  502  0.11957934545E+03  0.71674177712E+02 -0.19963333099E+03  0.24349512203E+03  0.00000000000E+00 0.  1.
          2    1    1    2  501    0 -0.11957934545E+03 -0.71674177712E+02 -0.24166853164E+03  0.27899836342E+03  0.00000000000E+00 0.  1.
<mgrwt>
<rscale>  2 0.13941452E+03</rscale>
<asrwt>0</asrwt>
<pdfrwt beam="1">  1       21 0.62455099E-02 0.13941452E+03</pdfrwt>
<pdfrwt beam="2">  1        2 0.74138098E-01 0.13941452E+03</pdfrwt>
<totfact> 0.14821047E+05</totfact>
</mgrwt>
</event>
<event>
 4    1  0.5134057E+003  0.1036234E+03  0.7546771E-02  0.1272856E+00
          1   -1    0    0  503    0 -0.00000000000E+00  0.00000000000E+00  0.19644294488E+02  0.19644294488E+02  0.00000000000E+00 0.  1.
         21   -1    0    0  501  502  0.00000000000E+00 -0.00000000000E+00 -0.97742490481E+03  0.97742490481E+03  0.00000000000E+00 0. -1.
         21    1    1    2  503  502 -0.14376812593E+02  0.10262125758E+03 -0.80986725353E+03  0.81646970770E+03  0.00000000000E+00 0. -1.
          1    1    1    2  501    0  0.14376812593E+02 -0.10262125758E+03 -0.14791335679E+03  0.18059949159E+03  0.00000000000E+00 0.  1.
<mgrwt>
<rscale>  2 0.10362343E+03</rscale>
<asrwt>0</asrwt>
<pdfrwt beam="2">  1       21 0.15037303E+00 0.10362343E+03</pdfrwt>
<pdfrwt beam="1">  1        1 0.30221999E-02 0.10362343E+03</pdfrwt>
<totfact> 0.10687980E+04</totfact>
</mgrwt>
</event>
<event>
 4    1  0.5134057E+003  0.1111582E+03  0.7546771E-02  0.1258440E+00
         21   -1    0    0  501  502  0.00000000000E+00  0.00000000000E+00  0.59299653205E+02  0.59299653205E+02  0.00000000000E+00 0.  1.
         -3   -1    0    0    0  501 -0.00000000000E+00 -0.00000000000E+00 -0.35809552567E+03  0.35809552567E+03  0.00000000000E+00 0.  1.
         21    1    1    2  503  502 -0.57467879433E+02 -0.95150311739E+02 -0.14449119169E+02  0.11209333627E+03  0.00000000000E+00 0.  1.
         -3    1    1    2    0  503  0.57467879433E+02  0.95150311739E+02 -0.28434675329E+03  0.30530184261E+03  0.00000000000E+00 0.  1.
<mgrwt>
<rscale>  2 0.11115817E+03</rscale>
<asrwt>0</asrwt>
<pdfrwt beam="1">  1       21 0.91230234E-02 0.11115817E+03</pdfrwt>
<pdfrwt beam="2">  1       -3 0.55091620E-01 0.11115817E+03</pdfrwt>
<totfact> 0.14910205E+04</totfact>
</mgrwt>
</event>
<event>
 4    1  0.5134057E+003  0.1796478E+03  0.7546771E-02  0.1168144E+00
         21   -1    0    0  503  502  0.00000000000E+00  0.00000000000E+00  0.20074910482E+04  0.20074910482E+04  0.00000000000E+00 0. -1.
          2   -1    0    0  502    0 -0.00000000000E+00 -0.00000000000E+00 -0.53316550503E+02  0.53316550503E+02  0.00000000000E+00 0.  1.
         21    1    1    2  503  501  0.17111974120E+03 -0.54693418862E+02  0.18382432514E+04  0.18470007004E+04  0.00000000000E+00 0. -1.
          2    1    1    2  501    0 -0.17111974120E+03  0.54693418862E+02  0.11593124627E+03  0.21380689829E+03  0.00000000000E+00 0.  1.
<mgrwt>
<rscale>  2 0.17964781E+03</rscale>
<asrwt>0</asrwt>
<pdfrwt beam="1">  1       21 0.30884472E+00 0.17964781E+03</pdfrwt>
<pdfrwt beam="2">  1        2 0.82025478E-02 0.17964781E+03</pdfrwt>
<totfact> 0.30585007E+02</totfact>
</mgrwt>
</event>
<event>
 4    1  0.5134057E+003  0.1929117E+03  0.7546771E-02  0.1155861E+00
         21   -1    0    0  503  502  0.00000000000E+00  0.00000000000E+00  0.32977664629E+03  0.32977664629E+03  0.00000000000E+00 0. -1.
          1   -1    0    0  502    0 -0.00000000000E+00 -0.00000000000E+00 -0.17505492676E+03  0.17505492676E+03  0.00000000000E+00 0.  1.
         21    1    1    2  503  501  0.12603013038E+03 -0.14605246300E+03  0.22782941307E+03  0.29853166862E+03  0.00000000000E+00 0. -1.
          1    1    1    2  501    0 -0.12603013038E+03  0.14605246300E+03 -0.73107693535E+02  0.20629990442E+03  0.00000000000E+00 0.  1.
<mgrwt>
<rscale>  2 0.19291168E+03</rscale>
<asrwt>0</asrwt>
<pdfrwt beam="1">  1       21 0.50734869E-01 0.19291168E+03</pdfrwt>
<pdfrwt beam="2">  1        1 0.26931527E-01 0.19291168E+03</pdfrwt>
<totfact> 0.69525728E+03</totfact>
</mgrwt>
</event>
<event>
 4    1  0.5134057E+003  0.1427902E+03  0.7546771E-02  0.1209623E+00
         21   -1    0    0  503  502  0.00000000000E+00  0.00000000000E+00  0.11930328582E+02  0.11930328582E+02  0.00000000000E+00 0. -1.
          2   -1    0    0  502    0 -0.00000000000E+00 -0.00000000000E+00 -0.30534840765E+04  0.30534840765E+04  0.00000000000E+00 0. -1.
         21    1    1    2  503  501  0.14120905874E+03 -0.21190369058E+02 -0.50373726510E+03  0.52358405463E+03  0.00000000000E+00 0. -1.
          2    1    1    2  501    0 -0.14120905874E+03  0.21190369058E+02 -0.25378164829E+04  0.25418303505E+04  0.00000000000E+00 0. -1.
<mgrwt>
<rscale>  2 0.14279016E+03</rscale>
<asrwt>0</asrwt>
<pdfrwt beam="1">  1       21 0.18354353E-02 0.14279016E+03</pdfrwt>
<pdfrwt beam="2">  1        2 0.46976676E+00 0.14279016E+03</pdfrwt>
<totfact> 0.36904575E+04</totfact>
</mgrwt>
</event>
<event>
 4    1  0.5134057E+003  0.1381010E+03  0.7546771E-02  0.1215907E+00
         21   -1    0    0  501  502  0.00000000000E+00  0.00000000000E+00  0.52900664944E+02  0.52900664944E+02  0.00000000000E+00 0. -1.
          1   -1    0    0  503    0 -0.00000000000E+00 -0.00000000000E+00 -0.95372304832E+03  0.95372304832E+03  0.00000000000E+00 0.  1.
         21    1    1    2  503  502  0.56708769469E+02 -0.12592061460E+03 -0.53469465146E+02  0.14809074724E+03  0.00000000000E+00 0. -1.
          1    1    1    2  501    0 -0.56708769469E+02  0.12592061460E+03 -0.84735291823E+03  0.85853296602E+03  0.00000000000E+00 0.  1.
<mgrwt>
<rscale>  2 0.13810100E+03</rscale>
<asrwt>0</asrwt>
<pdfrwt beam="1">  1       21 0.81385642E-02 0.13810100E+03</pdfrwt>
<pdfrwt beam="2">  1        1 0.14672662E+00 0.13810100E+03</pdfrwt>
<totfact> 0.22890815E+04</totfact>
</mgrwt>
</event>
<event>
 4    1  0.5134057E+003  0.1368447E+03  0.7546771E-02  0.1217639E+00
          2   -1    0    0  503    0 -0.00000000000E+00  0.00000000000E+00  0.97119887614E+03  0.97119887614E+03  0.00000000000E+00 0.  1.
         21   -1    0    0  501  502  0.00000000000E+00 -0.00000000000E+00 -0.30549091784E+02  0.30549091784E+02  0.00000000000E+00 0. -1.
         21    1    1    2  503  502  0.61076431034E+02  0.12245878035E+03  0.16613927167E+03  0.21524112271E+03  0.00000000000E+00 0. -1.
          2    1    1    2  501    0 -0.61076431034E+02 -0.12245878035E+03  0.77451051269E+03  0.78650684522E+03  0.00000000000E+00 0.  1.
<mgrwt>
<rscale>  2 0.13684474E+03</rscale>
<asrwt>0</asrwt>
<pdfrwt beam="2">  1       21 0.46998610E-02 0.13684474E+03</pdfrwt>
<pdfrwt beam="1">  1        2 0.14941519E+00 0.13684474E+03</pdfrwt>
<totfact> 0.10370516E+05</totfact>
</mgrwt>
</event>
<event>
 4    1  0.5134057E+003  0.1128664E+03  0.7546771E-02  0.1255352E+00
          2   -1    0    0  503    0 -0.00000000000E+00  0.00000000000E+00  0.24820274224E+03  0.24820274224E+03  0.00000000000E+00 0. -1.
         21   -1    0    0  501  502  0.00000000000E+00 -0.00000000000E+00 -0.63583910318E+02  0.63583910318E+02  0.00000000000E+00 0.  1.
         21    1    1    2  503  502  0.11169181061E+03  0.16240456916E+02  0.23856240963E+02  0.11536001574E+03  0.00000000000E+00 0.  1.
          2    1    1    2  501    0 -0.11169181061E+03 -0.16240456916E+02  0.16076259095E+03  0.19642663681E+03  0.00000000000E+00 0. -1.
<mgrwt>
<rscale>  2 0.11286635E+03</rscale>
<asrwt>0</asrwt>
<pdfrwt beam="2">  1       21 0.97821402E-02 0.11286635E+03</pdfrwt>
<pdfrwt beam="1">  1        2 0.38185037E-01 0.11286635E+03</pdfrwt>
<totfact> 0.13756064E+05</totfact>
</mgrwt>
</event>
<event>
 4    1  0.5134057E+003  0.1233116E+03  0.7546771E-02  0.1237732E+00
         21   -1    0    0  503  502  0.00000000000E+00  0.00000000000E+00  0.40000234400E+02  0.40000234400E+02  0.00000000000E+00 0. -1.
          1   -1    0    0  502    0 -0.00000000000E+00 -0.00000000000E+00 -0.20628301949E+04  0.20628301949E+04  0.00000000000E+00 0.  1.
         21    1    1    2  503  501 -0.10730346798E+03 -0.60759590042E+02 -0.61806981458E+02  0.13793427776E+03  0.00000000000E+00 0. -1.
          1    1    1    2  501    0  0.10730346798E+03  0.60759590042E+02 -0.19610229791E+04  0.19648961516E+04  0.00000000000E+00 0.  1.
<mgrwt>
<rscale>  2 0.12331165E+03</rscale>
<asrwt>0</asrwt>
<pdfrwt beam="1">  1       21 0.61538825E-02 0.12331165E+03</pdfrwt>
<pdfrwt beam="2">  1        1 0.31735847E+00 0.12331165E+03</pdfrwt>
<totfact> 0.68755210E+03</totfact>
</mgrwt>
</event>
<event>
 4    1  0.5134057E+003  0.1391750E+03  0.7546771E-02  0.1214443E+00
          2   -1    0    0  502    0 -0.00000000000E+00  0.00000000000E+00  0.13102309752E+04  0.13102309752E+04  0.00000000000E+00 0. -1.
         21   -1    0    0  503  502  0.00000000000E+00 -0.00000000000E+00 -0.12597877687E+03  0.12597877687E+03  0.00000000000E+00 0.  1.
         21    1    1    2  503  501 -0.21254829850E+02  0.13754239632E+03 -0.82530126915E+02  0.16180513103E+03  0.00000000000E+00 0.  1.
          2    1    1    2  501    0  0.21254829850E+02 -0.13754239632E+03  0.12667823252E+04  0.12744046210E+04  0.00000000000E+00 0. -1.
<mgrwt>
<rscale>  2 0.13917499E+03</rscale>
<asrwt>0</asrwt>
<pdfrwt beam="2">  1       21 0.19381351E-01 0.13917499E+03</pdfrwt>
<pdfrwt beam="1">  1        2 0.20157399E+00 0.13917499E+03</pdfrwt>
<totfact> 0.55661713E+03</totfact>
</mgrwt>
</event>
<event>
 4    1  0.5134057E+003  0.1038400E+03  0.7546771E-02  0.1272422E+00
         21   -1    0    0  501  502  0.00000000000E+00  0.00000000000E+00  0.34000290830E+02  0.34000290830E+02  0.00000000000E+00 0.  1.
         -2   -1    0    0    0  501 -0.00000000000E+00 -0.00000000000E+00 -0.35045914875E+03  0.35045914875E+03  0.00000000000E+00 0.  1.
         21    1    1    2  503  502  0.61412035182E+01  0.10365819966E+03 -0.98954516962E+02  0.14343895275E+03  0.00000000000E+00 0.  1.
         -2    1    1    2    0  503 -0.61412035182E+01 -0.10365819966E+03 -0.21750434096E+03  0.24102048683E+03  0.00000000000E+00 0.  1.
<mgrwt>
<rscale>  2 0.10383996E+03</rscale>
<asrwt>0</asrwt>
<pdfrwt beam="1">  1       21 0.52308141E-02 0.10383996E+03</pdfrwt>
<pdfrwt beam="2">  1       -2 0.53916791E-01 0.10383996E+03</pdfrwt>
<totfact> 0.64760826E+04</totfact>
</mgrwt>
</event>
<event>
 4    1  0.5134057E+003  0.3563554E+03  0.7546771E-02  0.1060036E+00
         21   -1    0    0  501  502  0.00000000000E+00  0.00000000000E+00  0.77994889924E+03  0.77994889924E+03  0.00000000000E+00 0.  1.
          4   -1    0    0  503    0 -0.00000000000E+00 -0.00000000000E+00 -0.17447946981E+03  0.17447946981E+03  0.00000000000E+00 0.  1.
         21    1    1    2  503  502  0.21418779856E+03 -0.28480300254E+03  0.42611083556E+03  0.55548141957E+03  0.00000000000E+00 0.  1.
          4    1    1    2  501    0 -0.21418779856E+03  0.28480300254E+03  0.17935859387E+03  0.39894694948E+03  0.00000000000E+00 0.  1.
<mgrwt>
<rscale>  2 0.35635539E+03</rscale>
<asrwt>0</asrwt>
<pdfrwt beam="1">  1       21 0.11999214E+00 0.35635539E+03</pdfrwt>
<pdfrwt beam="2">  1        4 0.26842996E-01 0.35635539E+03</pdfrwt>
<totfact> 0.28309395E+02</totfact>
</mgrwt>
</event>
<event>
 4    1  0.5134057E+003  0.1010652E+03  0.7546771E-02  0.1278072E+00
         21   -1    0    0  503  502  0.00000000000E+00  0.00000000000E+00  0.12023885482E+04  0.12023885482E+04  0.00000000000E+00 0.  1.
         -4   -1    0    0    0  501 -0.00000000000E+00 -0.00000000000E+00 -0.33066895349E+02  0.33066895349E+02  0.00000000000E+00 0.  1.
         21    1    1    2  503  501 -0.33765474835E+02  0.95257935095E+02  0.11171619304E+04  0.11217241016E+04  0.00000000000E+00 0.  1.
         -4    1    1    2    0  502  0.33765474835E+02 -0.95257935095E+02  0.52159722497E+02  0.11373134194E+03  0.00000000000E+00 0.  1.
<mgrwt>
<rscale>  2 0.10106523E+03</rscale>
<asrwt>0</asrwt>
<pdfrwt beam="1">  1       21 0.18498282E+00 0.10106523E+03</pdfrwt>
<pdfrwt beam="2">  1       -4 0.50872156E-02 0.10106523E+03</pdfrwt>
<totfact> 0.16573429E+03</totfact>
</mgrwt>
</event>
<event>
 4    1  0.5134057E+003  0.1073067E+03  0.7546771E-02  0.1265640E+00
         21   -1    0    0  503  502  0.00000000000E+00  0.00000000000E+00  0.17511494053E+03  0.17511494053E+03  0.00000000000E+00 0. -1.
          2   -1    0    0  502    0 -0.00000000000E+00 -0.00000000000E+00 -0.20118536368E+03  0.20118536368E+03  0.00000000000E+00 0. -1.
         21    1    1    2  503  501 -0.10530507598E+03  0.20629374733E+02  0.14133516820E+03  0.17745523351E+03  0.00000000000E+00 0. -1.
          2    1    1    2  501    0  0.10530507598E+03 -0.20629374733E+02 -0.16740559135E+03  0.19884507070E+03  0.00000000000E+00 0. -1.
<mgrwt>
<rscale>  2 0.10730671E+03</rscale>
<asrwt>0</asrwt>
<pdfrwt beam="1">  1       21 0.26940760E-01 0.10730671E+03</pdfrwt>
<pdfrwt beam="2">  1        2 0.30951594E-01 0.10730671E+03</pdfrwt>
<totfact> 0.27449528E+04</totfact>
</mgrwt>
</event>
<event>
 4    1  0.5134057E+003  0.1001161E+03  0.7546771E-02  0.1280052E+00
         21   -1    0    0  501  502  0.00000000000E+00  0.00000000000E+00  0.72076945072E+03  0.72076945072E+03  0.00000000000E+00 0.  1.
          1   -1    0    0  503    0 -0.00000000000E+00 -0.00000000000E+00 -0.22895036303E+02  0.22895036303E+02  0.00000000000E+00 0.  1.
         21    1    1    2  503  502  0.10006820350E+03 -0.30973720213E+01  0.58192094216E+03  0.59047033964E+03  0.00000000000E+00 0.  1.
          1    1    1    2  501    0 -0.10006820350E+03  0.30973720213E+01  0.11595347225E+03  0.15319414739E+03  0.00000000000E+00 0.  1.
<mgrwt>
<rscale>  2 0.10011613E+03</rscale>
<asrwt>0</asrwt>
<pdfrwt beam="1">  1       21 0.11088759E+00 0.10011613E+03</pdfrwt>
<pdfrwt beam="2">  1        1 0.35223138E-02 0.10011613E+03</pdfrwt>
<totfact> 0.18358723E+04</totfact>
</mgrwt>
</event>
<event>
 4    1  0.5134057E+003  0.1072116E+03  0.7546771E-02  0.1265822E+00
          2   -1    0    0  502    0 -0.00000000000E+00  0.00000000000E+00  0.18534829367E+03  0.18534829367E+03  0.00000000000E+00 0.  1.
         21   -1    0    0  503  502  0.00000000000E+00 -0.00000000000E+00 -0.11485840648E+03  0.11485840648E+03  0.00000000000E+00 0.  1.
         21    1    1    2  503  501  0.10721048181E+03  0.49688417150E+00 -0.66568537002E+02  0.12619708563E+03  0.00000000000E+00 0.  1.
          2    1    1    2  501    0 -0.10721048181E+03 -0.49688417150E+00  0.13705842419E+03  0.17400961452E+03  0.00000000000E+00 0.  1.
<mgrwt>
<rscale>  2 0.10721163E+03</rscale>
<asrwt>0</asrwt>
<pdfrwt beam="2">  1       21 0.17670524E-01 0.10721163E+03</pdfrwt>
<pdfrwt beam="1">  1        2 0.28515122E-01 0.10721163E+03</pdfrwt>
<totfact> 0.65570582E+04</totfact>
</mgrwt>
</event>
<event>
 4    1  0.5134057E+003  0.2358450E+03  0.7546771E-02  0.1122592E+00
          2   -1    0    0  502    0 -0.00000000000E+00  0.00000000000E+00  0.49322987273E+03  0.49322987273E+03  0.00000000000E+00 0.  1.
         21   -1    0    0  503  502  0.00000000000E+00 -0.00000000000E+00 -0.16211412827E+04  0.16211412827E+04  0.00000000000E+00 0.  1.
         21    1    1    2  503  501 -0.23447187746E+03 -0.25412915575E+02 -0.15837076265E+04  0.16011722967E+04  0.00000000000E+00 0.  1.
          2    1    1    2  501    0  0.23447187746E+03  0.25412915575E+02  0.45579621651E+03  0.51319885871E+03  0.00000000000E+00 0.  1.
<mgrwt>
<rscale>  2 0.23584503E+03</rscale>
<asrwt>0</asrwt>
<pdfrwt beam="2">  1       21 0.24940635E+00 0.23584503E+03</pdfrwt>
<pdfrwt beam="1">  1        2 0.75881520E-01 0.23584503E+03</pdfrwt>
<totfact> 0.50674181E+01</totfact>
</mgrwt>
</event>
<event>
 4    1  0.5134057E+003  0.1605496E+03  0.7546771E-02  0.1188078E+00
         21   -1    0    0  503  502  0.00000000000E+00  0.00000000000E+00  0.13796210771E+03  0.13796210771E+03  0.00000000000E+00 0.  1.
          2   -1    0    0  502    0 -0.00000000000E+00 -0.00000000000E+00 -0.21494134165E+03  0.21494134165E+03  0.00000000000E+00 0. -1.
         21    1    1    2  503  501  0.12188223389E+03  0.10450304860E+03  0.25317219175E+02  0.16253346637E+03  0.00000000000E+00 0.  1.
          2    1    1    2  501    0 -0.12188223389E+03 -0.10450304860E+03 -0.10229645312E+03  0.19036998299E+03  0.00000000000E+00 0. -1.
<mgrwt>
<rscale>  2 0.16054958E+03</rscale>
<asrwt>0</asrwt>
<pdfrwt beam="1">  1       21 0.21224940E-01 0.16054958E+03</pdfrwt>
<pdfrwt beam="2">  1        2 0.33067899E-01 0.16054958E+03</pdfrwt>
<totfact> 0.40118696E+04</totfact>
</mgrwt>
</event>
<event>
 4    1  0.5134057E+003  0.1453029E+03  0.7546771E-02  0.1206367E+00
          2   -1    0    0  502    0 -0.00000000000E+00  0.00000000000E+00  0.19542175168E+04  0.19542175168E+04  0.00000000000E+00 0.  1.
         21   -1    0    0  503  502  0.00000000000E+00 -0.00000000000E+00 -0.16137157242E+02  0.16137157242E+02  0.00000000000E+00 0. -1.
         21    1    1    2  503  501  0.11191058199E+03 -0.92676574183E+02  0.40266754055E+03  0.42808185429E+03  0.00000000000E+00 0. -1.
          2    1    1    2  501    0 -0.11191058199E+03  0.92676574183E+02  0.15354128190E+04  0.15422728197E+04  0.00000000000E+00 0.  1.
<mgrwt>
<rscale>  2 0.14530288E+03</rscale>
<asrwt>0</asrwt>
<pdfrwt beam="2">  1       21 0.24826411E-02 0.14530288E+03</pdfrwt>
<pdfrwt beam="1">  1        2 0.30064866E+00 0.14530288E+03</pdfrwt>
<totfact> 0.88626725E+04</totfact>
</mgrwt>
</event>
<event>
 4    1  0.5134057E+003  0.1494887E+03  0.7546771E-02  0.1201103E+00
          2   -1    0    0  502    0 -0.00000000000E+00  0.00000000000E+00  0.18954355414E+04  0.18954355414E+04  0.00000000000E+00 0. -1.
         21   -1    0    0  503  502  0.00000000000E+00 -0.00000000000E+00 -0.27427617395E+02  0.27427617395E+02  0.00000000000E+00 0.  1.
         21    1    1    2  503  501 -0.83510916351E+02 -0.12398714077E+03  0.20804539128E+03  0.25618307723E+03  0.00000000000E+00 0.  1.
          2    1    1    2  501    0  0.83510916351E+02  0.12398714077E+03  0.16599625327E+04  0.16666800816E+04  0.00000000000E+00 0. -1.
<mgrwt>
<rscale>  2 0.14948874E+03</rscale>
<asrwt>0</asrwt>
<pdfrwt beam="2">  1       21 0.42196349E-02 0.14948874E+03</pdfrwt>
<pdfrwt beam="1">  1        2 0.29160536E+00 0.14948874E+03</pdfrwt>
<totfact> 0.39544097E+04</totfact>
</mgrwt>
</event>
<event>
 4    1  0.5134057E+003  0.3353884E+03  0.7546771E-02  0.1068777E+00
          2   -1    0    0  503    0 -0.00000000000E+00  0.00000000000E+00  0.25544963875E+04  0.25544963875E+04  0.00000000000E+00 0.  1.
         21   -1    0    0  501  502  0.00000000000E+00 -0.00000000000E+00 -0.76032053850E+02  0.76032053850E+02  0.00000000000E+00 0.  1.
         21    1    1    2  503  502 -0.29365225391E+03 -0.16203000050E+03  0.38598542492E+03  0.51134148622E+03  0.00000000000E+00 0.  1.
          2    1    1    2  501    0  0.29365225391E+03  0.16203000050E+03  0.20924789087E+04  0.21191869551E+04  0.00000000000E+00 0.  1.
<mgrwt>
<rscale>  2 0.33538838E+03</rscale>
<asrwt>0</asrwt>
<pdfrwt beam="2">  1       21 0.11697241E-01 0.33538838E+03</pdfrwt>
<pdfrwt beam="1">  1        2 0.39299938E+00 0.33538838E+03</pdfrwt>
<totfact> 0.28101736E+03</totfact>
</mgrwt>
</event>
<event>
 4    1  0.5134057E+003  0.1008909E+03  0.7546771E-02  0.1278434E+00
         -1   -1    0    0    0  501 -0.00000000000E+00  0.00000000000E+00  0.16437842105E+03  0.16437842105E+03  0.00000000000E+00 0. -1.
         21   -1    0    0  501  502  0.00000000000E+00 -0.00000000000E+00 -0.15885377064E+03  0.15885377064E+03  0.00000000000E+00 0. -1.
         21    1    1    2  503  502 -0.93060887818E+02  0.38969675771E+02 -0.12348276772E+03  0.15945832808E+03  0.00000000000E+00 0. -1.
         -1    1    1    2    0  503  0.93060887818E+02 -0.38969675771E+02  0.12900741813E+03  0.16377386362E+03  0.00000000000E+00 0. -1.
<mgrwt>
<rscale>  2 0.10089085E+03</rscale>
<asrwt>0</asrwt>
<pdfrwt beam="2">  1       21 0.24439042E-01 0.10089085E+03</pdfrwt>
<pdfrwt beam="1">  1       -1 0.25288988E-01 0.10089085E+03</pdfrwt>
<totfact> 0.19604365E+04</totfact>
</mgrwt>
</event>
<event>
 4    1  0.5134057E+003  0.1122746E+03  0.7546771E-02  0.1256415E+00
         21   -1    0    0  501  502  0.00000000000E+00  0.00000000000E+00  0.81577972311E+03  0.81577972311E+03  0.00000000000E+00 0. -1.
         -3   -1    0    0    0  501 -0.00000000000E+00 -0.00000000000E+00 -0.69244203807E+02  0.69244203807E+02  0.00000000000E+00 0.  1.
         21    1    1    2  503  502  0.11227450857E+03  0.15033884505E+00  0.76329252332E+03  0.77150571225E+03  0.00000000000E+00 0. -1.
         -3    1    1    2    0  503 -0.11227450857E+03 -0.15033884505E+00 -0.16757004019E+02  0.11351821467E+03  0.00000000000E+00 0.  1.
<mgrwt>
<rscale>  2 0.11227461E+03</rscale>
<asrwt>0</asrwt>
<pdfrwt beam="1">  1       21 0.12550457E+00 0.11227461E+03</pdfrwt>
<pdfrwt beam="2">  1       -3 0.10652955E-01 0.11227461E+03</pdfrwt>
<totfact> 0.15558593E+03</totfact>
</mgrwt>
</event>
<event>
 4    1  0.5134057E+003  0.1624491E+03  0.7546771E-02  0.1185959E+00
         21   -1    0    0  501  502  0.00000000000E+00  0.00000000000E+00  0.71136973316E+03  0.71136973316E+03  0.00000000000E+00 0. -1.
         -4   -1    0    0    0  501 -0.00000000000E+00 -0.00000000000E+00 -0.26449173342E+03  0.26449173342E+03  0.00000000000E+00 0.  1.
         21    1    1    2  503  502  0.16124853715E+03  0.19713639912E+02  0.67585950051E+03  0.69510846834E+03  0.00000000000E+00 0. -1.
         -4    1    1    2    0  503 -0.16124853715E+03 -0.19713639912E+02 -0.22898150077E+03  0.28075299825E+03  0.00000000000E+00 0.  1.
<mgrwt>
<rscale>  2 0.16244913E+03</rscale>
<asrwt>0</asrwt>
<pdfrwt beam="1">  1       21 0.10944150E+00 0.16244913E+03</pdfrwt>
<pdfrwt beam="2">  1       -4 0.40691036E-01 0.16244913E+03</pdfrwt>
<totfact> 0.16462199E+02</totfact>
</mgrwt>
</event>
<event>
 4    1  0.5134057E+003  0.2018102E+03  0.7546771E-02  0.1148221E+00
          1   -1    0    0  503    0 -0.00000000000E+00  0.00000000000E+00  0.14116482332E+04  0.14116482332E+04  0.00000000000E+00 0. -1.
         21   -1    0    0  501  502  0.00000000000E+00 -0.00000000000E+00 -0.41579609381E+02  0.41579609381E+02  0.00000000000E+00 0. -1.
         21    1    1    2  503  502 -0.83939974386E+02  0.18352499296E+03  0.28300709862E+03  0.34759223267E+03  0.00000000000E+00 0. -1.
          1    1    1    2  501    0  0.83939974386E+02 -0.18352499296E+03  0.10870615252E+04  0.11056356099E+04  0.00000000000E+00 0. -1.
<mgrwt>
<rscale>  2 0.20181016E+03</rscale>
<asrwt>0</asrwt>
<pdfrwt beam="2">  1       21 0.63968641E-02 0.20181016E+03</pdfrwt>
<pdfrwt beam="1">  1        1 0.21717661E+00 0.20181016E+03</pdfrwt>
<totfact> 0.16381888E+04</totfact>
</mgrwt>
</event>
<event>
 4    1  0.5134057E+003  0.1086178E+03  0.7546771E-02  0.1263151E+00
          2   -1    0    0  502    0 -0.00000000000E+00  0.00000000000E+00  0.26599248711E+04  0.26599248711E+04  0.00000000000E+00 0. -1.
         21   -1    0    0  503  502  0.00000000000E+00 -0.00000000000E+00 -0.44412211658E+01  0.44412211658E+01  0.00000000000E+00 0.  1.
         21    1    1    2  503  501 -0.41720227787E+02  0.10028588378E+03  0.13759639002E+04  0.13802443590E+04  0.00000000000E+00 0.  1.
          2    1    1    2  501    0  0.41720227787E+02 -0.10028588378E+03  0.12795197498E+04  0.12841217333E+04  0.00000000000E+00 0. -1.
<mgrwt>
<rscale>  2 0.10861784E+03</rscale>
<asrwt>0</asrwt>
<pdfrwt beam="2">  1       21 0.68326692E-03 0.10861784E+03</pdfrwt>
<pdfrwt beam="1">  1        2 0.40921794E+00 0.10861784E+03</pdfrwt>
<totfact> 0.29552772E+05</totfact>
</mgrwt>
</event>
<event>
 4    1  0.5134057E+003  0.1089289E+03  0.7546771E-02  0.1262566E+00
         21   -1    0    0  503  502  0.00000000000E+00  0.00000000000E+00  0.13549224154E+02  0.13549224154E+02  0.00000000000E+00 0. -1.
         -3   -1    0    0    0  501 -0.00000000000E+00 -0.00000000000E+00 -0.34503884359E+04  0.34503884359E+04  0.00000000000E+00 0.  1.
         21    1    1    2  503  501  0.75858031381E+02 -0.78173285243E+02 -0.22230235543E+03  0.24755573247E+03  0.00000000000E+00 0. -1.
         -3    1    1    2    0  502 -0.75858031381E+02  0.78173285243E+02 -0.32145368563E+04  0.32163819276E+04  0.00000000000E+00 0.  1.
<mgrwt>
<rscale>  2 0.10892889E+03</rscale>
<asrwt>0</asrwt>
<pdfrwt beam="1">  1       21 0.20844939E-02 0.10892889E+03</pdfrwt>
<pdfrwt beam="2">  1       -3 0.53082954E+00 0.10892889E+03</pdfrwt>
<totfact> 0.16480099E+02</totfact>
</mgrwt>
</event>
<event>
 4    1  0.5134057E+003  0.1002585E+03  0.7546771E-02  0.1279753E+00
         21   -1    0    0  501  502  0.00000000000E+00  0.00000000000E+00  0.31476269984E+02  0.31476269984E+02  0.00000000000E+00 0. -1.
          2   -1    0    0  503    0 -0.00000000000E+00 -0.00000000000E+00 -0.32297285416E+03  0.32297285416E+03  0.00000000000E+00 0. -1.
         21    1    1    2  503  502 -0.48634226065E+02 -0.87672577251E+02 -0.12696355355E+03  0.16177611900E+03  0.00000000000E+00 0. -1.
          2    1    1    2  501    0  0.48634226065E+02  0.87672577251E+02 -0.16453303062E+03  0.19267300515E+03  0.00000000000E+00 0. -1.
<mgrwt>
<rscale>  2 0.10025851E+03</rscale>
<asrwt>0</asrwt>
<pdfrwt beam="1">  1       21 0.48425026E-02 0.10025851E+03</pdfrwt>
<pdfrwt beam="2">  1        2 0.49688136E-01 0.10025851E+03</pdfrwt>
<totfact> 0.34256782E+05</totfact>
</mgrwt>
</event>
<event>
 4    1  0.5134057E+003  0.1006178E+03  0.7546771E-02  0.1279002E+00
         21   -1    0    0  503  502  0.00000000000E+00  0.00000000000E+00  0.12671884748E+03  0.12671884748E+03  0.00000000000E+00 0.  1.
          1   -1    0    0  502    0 -0.00000000000E+00 -0.00000000000E+00 -0.18517380962E+03  0.18517380962E+03  0.00000000000E+00 0. -1.
         21    1    1    2  503  501 -0.93711835787E+02  0.36633741695E+02  0.88359743428E+02  0.13390811572E+03  0.00000000000E+00 0.  1.
          1    1    1    2  501    0  0.93711835787E+02 -0.36633741695E+02 -0.14681470558E+03  0.17798454138E+03  0.00000000000E+00 0. -1.
<mgrwt>
<rscale>  2 0.10061779E+03</rscale>
<asrwt>0</asrwt>
<pdfrwt beam="1">  1       21 0.19495207E-01 0.10061779E+03</pdfrwt>
<pdfrwt beam="2">  1        1 0.28488278E-01 0.10061779E+03</pdfrwt>
<totfact> 0.42104297E+04</totfact>
</mgrwt>
</event>
<event>
 4    1  0.5134057E+003  0.2093466E+03  0.7546771E-02  0.1142084E+00
         21   -1    0    0  503  502  0.00000000000E+00  0.00000000000E+00  0.46912592573E+03  0.46912592573E+03  0.00000000000E+00 0. -1.
         -2   -1    0    0    0  501 -0.00000000000E+00 -0.00000000000E+00 -0.10989953407E+03  0.10989953407E+03  0.00000000000E+00 0. -1.
         21    1    1    2  503  501  0.16712411193E+03 -0.12607741833E+03  0.29172089920E+03  0.35906415476E+03  0.00000000000E+00 0. -1.
         -2    1    1    2    0  502 -0.16712411193E+03  0.12607741833E+03  0.67505492471E+02  0.21996130504E+03  0.00000000000E+00 0. -1.
<mgrwt>
<rscale>  2 0.20934656E+03</rscale>
<asrwt>0</asrwt>
<pdfrwt beam="1">  1       21 0.72173218E-01 0.20934656E+03</pdfrwt>
<pdfrwt beam="2">  1       -2 0.16907621E-01 0.20934656E+03</pdfrwt>
<totfact> 0.38288864E+03</totfact>
</mgrwt>
</event>
<event>
 4    1  0.5134057E+003  0.1008582E+03  0.7546771E-02  0.1278502E+00
          2   -1    0    0  502    0 -0.00000000000E+00  0.00000000000E+00  0.25233510228E+03  0.25233510228E+03  0.00000000000E+00 0.  1.
         21   -1    0    0  503  502  0.00000000000E+00 -0.00000000000E+00 -0.98871360800E+02  0.98871360800E+02  0.00000000000E+00 0. -1.
         21    1    1    2  503  501 -0.78674917201E+02  0.63108044797E+02 -0.58410631023E+02  0.11655114642E+03  0.00000000000E+00 0. -1.
          2    1    1    2  501    0  0.78674917201E+02 -0.63108044797E+02  0.21187437250E+03  0.23465531666E+03  0.00000000000E+00 0.  1.
<mgrwt>
<rscale>  2 0.10085816E+03</rscale>
<asrwt>0</asrwt>
<pdfrwt beam="2">  1       21 0.15210979E-01 0.10085816E+03</pdfrwt>
<pdfrwt beam="1">  1        2 0.38820785E-01 0.10085816E+03</pdfrwt>
<totfact> 0.61751485E+04</totfact>
</mgrwt>
</event>
<event>
 4    1  0.5134057E+003  0.1751896E+03  0.7546771E-02  0.1172542E+00
         21   -1    0    0  501  502  0.00000000000E+00  0.00000000000E+00  0.14388896185E+03  0.14388896185E+03  0.00000000000E+00 0. -1.
          1   -1    0    0  503    0 -0.00000000000E+00 -0.00000000000E+00 -0.60379534234E+03  0.60379534234E+03  0.00000000000E+00 0. -1.
         21    1    1    2  503  502  0.16378839807E+03  0.62167048834E+02  0.70690322283E+02  0.18891400945E+03  0.00000000000E+00 0. -1.
          1    1    1    2  501    0 -0.16378839807E+03 -0.62167048834E+02 -0.53059670277E+03  0.55877029475E+03  0.00000000000E+00 0. -1.
<mgrwt>
<rscale>  2 0.17518956E+03</rscale>
<asrwt>0</asrwt>
<pdfrwt beam="1">  1       21 0.22136763E-01 0.17518956E+03</pdfrwt>
<pdfrwt beam="2">  1        1 0.92891592E-01 0.17518956E+03</pdfrwt>
<totfact> 0.74190472E+03</totfact>
</mgrwt>
</event>
<event>
 4    1  0.5134057E+003  0.1050438E+03  0.7546771E-02  0.1270033E+00
         -4   -1    0    0    0  501 -0.00000000000E+00  0.00000000000E+00  0.52030104731E+03  0.52030104731E+03  0.00000000000E+00 0. -1.
         21   -1    0    0  503  502  0.00000000000E+00 -0.00000000000E+00 -0.12977367151E+03  0.12977367151E+03  0.00000000000E+00 0.  1.
         21    1    1    2  503  501 -0.10485338226E+03  0.63212137630E+01 -0.10203131665E+03  0.14643967732E+03  0.00000000000E+00 0.  1.
         -4    1    1    2    0  502  0.10485338226E+03 -0.63212137630E+01  0.49255869245E+03  0.50363504150E+03  0.00000000000E+00 0. -1.
<mgrwt>
<rscale>  2 0.10504375E+03</rscale>
<asrwt>0</asrwt>
<pdfrwt beam="2">  1       21 0.19965180E-01 0.10504375E+03</pdfrwt>
<pdfrwt beam="1">  1       -4 0.80046314E-01 0.10504375E+03</pdfrwt>
<totfact> 0.13515668E+03</totfact>
</mgrwt>
</event>
<event>
 4    1  0.5134057E+003  0.1023322E+03  0.7546771E-02  0.1275467E+00
         21   -1    0    0  501  502  0.00000000000E+00  0.00000000000E+00  0.25456315228E+03  0.25456315228E+03  0.00000000000E+00 0. -1.
          1   -1    0    0  503    0 -0.00000000000E+00 -0.00000000000E+00 -0.15714350773E+04  0.15714350773E+04  0.00000000000E+00 0. -1.
         21    1    1    2  503  502 -0.37053785000E+02 -0.95388170960E+02  0.24253375633E+03  0.26323850232E+03  0.00000000000E+00 0. -1.
          1    1    1    2  501    0  0.37053785000E+02  0.95388170960E+02 -0.15594056813E+04  0.15627597272E+04  0.00000000000E+00 0. -1.
<mgrwt>
<rscale>  2 0.10233223E+03</rscale>
<asrwt>0</asrwt>
<pdfrwt beam="1">  1       21 0.39163562E-01 0.10233223E+03</pdfrwt>
<pdfrwt beam="2">  1        1 0.24175924E+00 0.10233223E+03</pdfrwt>
<totfact> 0.50024676E+02</totfact>
</mgrwt>
</event>
<event>
 4    1  0.5134057E+003  0.1486377E+03  0.7546771E-02  0.1202157E+00
         21   -1    0    0  501  502  0.00000000000E+00  0.00000000000E+00  0.92359009021E+02  0.92359009021E+02  0.00000000000E+00 0. -1.
          2   -1    0    0  503    0 -0.00000000000E+00 -0.00000000000E+00 -0.19151937167E+04  0.19151937167E+04  0.00000000000E+00 0.  1.
         21    1    1    2  503  502  0.14131621759E+03 -0.46074897427E+02  0.27582551802E+02  0.15117528465E+03  0.00000000000E+00 0. -1.
          2    1    1    2  501    0 -0.14131621759E+03  0.46074897427E+02 -0.18504172595E+04  0.18563774410E+04  0.00000000000E+00 0.  1.
<mgrwt>
<rscale>  2 0.14863771E+03</rscale>
<asrwt>0</asrwt>
<pdfrwt beam="1">  1       21 0.14209077E-01 0.14863771E+03</pdfrwt>
<pdfrwt beam="2">  1        2 0.29464521E+00 0.14863771E+03</pdfrwt>
<totfact> 0.47299503E+03</totfact>
</mgrwt>
</event>
<event>
 4    1  0.5134057E+003  0.1056213E+03  0.7546771E-02  0.1268900E+00
         -1   -1    0    0    0  501 -0.00000000000E+00  0.00000000000E+00  0.38185129931E+02  0.38185129931E+02  0.00000000000E+00 0.  1.
         21   -1    0    0  503  502  0.00000000000E+00 -0.00000000000E+00 -0.30132871053E+03  0.30132871053E+03  0.00000000000E+00 0.  1.
         21    1    1    2  503  501 -0.10278292770E+03 -0.24321253417E+02 -0.10194695087E+03  0.14679589363E+03  0.00000000000E+00 0.  1.
         -1    1    1    2    0  502  0.10278292770E+03  0.24321253417E+02 -0.16119662973E+03  0.19271794683E+03  0.00000000000E+00 0.  1.
<mgrwt>
<rscale>  2 0.10562127E+03</rscale>
<asrwt>0</asrwt>
<pdfrwt beam="2">  1       21 0.46358263E-01 0.10562127E+03</pdfrwt>
<pdfrwt beam="1">  1       -1 0.58746354E-02 0.10562127E+03</pdfrwt>
<totfact> 0.53518739E+04</totfact>
</mgrwt>
</event>
<event>
 4    1  0.5134057E+003  0.1270277E+03  0.7546771E-02  0.1231934E+00
         21   -1    0    0  503  502  0.00000000000E+00  0.00000000000E+00  0.12515276489E+03  0.12515276489E+03  0.00000000000E+00 0. -1.
         -3   -1    0    0    0  501 -0.00000000000E+00 -0.00000000000E+00 -0.20414425038E+03  0.20414425038E+03  0.00000000000E+00 0.  1.
         21    1    1    2  503  501  0.81457727850E+02 -0.97471380700E+02  0.60443790218E+02  0.14067509822E+03  0.00000000000E+00 0. -1.
         -3    1    1    2    0  502 -0.81457727850E+02  0.97471380700E+02 -0.13943527571E+03  0.18862191706E+03  0.00000000000E+00 0.  1.
<mgrwt>
<rscale>  2 0.12702768E+03</rscale>
<asrwt>0</asrwt>
<pdfrwt beam="1">  1       21 0.19254272E-01 0.12702768E+03</pdfrwt>
<pdfrwt beam="2">  1       -3 0.31406807E-01 0.12702768E+03</pdfrwt>
<totfact> 0.11783668E+04</totfact>
</mgrwt>
</event>
<event>
 4    1  0.5134057E+003  0.1513784E+03  0.7546771E-02  0.1198789E+00
          1   -1    0    0  502    0 -0.00000000000E+00  0.00000000000E+00  0.13461213524E+04  0.13461213524E+04  0.00000000000E+00 0. -1.
         21   -1    0    0  503  502  0.00000000000E+00 -0.00000000000E+00 -0.25803450025E+02  0.25803450025E+02  0.00000000000E+00 0. -1.
         21    1    1    2  503  501  0.93582581855E+02  0.11898625423E+03  0.26001857239E+03  0.30087387110E+03  0.00000000000E+00 0. -1.
          1    1    1    2  501    0 -0.93582581855E+02 -0.11898625423E+03  0.10602993300E+04  0.10710509314E+04  0.00000000000E+00 0. -1.
<mgrwt>
<rscale>  2 0.15137843E+03</rscale>
<asrwt>0</asrwt>
<pdfrwt beam="2">  1       21 0.39697626E-02 0.15137843E+03</pdfrwt>
<pdfrwt beam="1">  1        1 0.20709554E+00 0.15137843E+03</pdfrwt>
<totfact> 0.41061343E+04</totfact>
</mgrwt>
</event>
<event>
 4    1  0.5134057E+003  0.1187984E+03  0.7546771E-02  0.1245093E+00
          4   -1    0    0  503    0 -0.00000000000E+00  0.00000000000E+00  0.42835677201E+02  0.42835677201E+02  0.00000000000E+00 0. -1.
         21   -1    0    0  501  502  0.00000000000E+00 -0.00000000000E+00 -0.54925809275E+03  0.54925809275E+03  0.00000000000E+00 0. -1.
         21    1    1    2  503  502 -0.10938139803E+03  0.46354747949E+02 -0.44048402825E+03  0.45622278772E+03  0.00000000000E+00 0. -1.
          4    1    1    2  501    0  0.10938139803E+03 -0.46354747949E+02 -0.65938387301E+02  0.13587098223E+03  0.00000000000E+00 0. -1.
<mgrwt>
<rscale>  2 0.11879837E+03</rscale>
<asrwt>0</asrwt>
<pdfrwt beam="2">  1       21 0.84501237E-01 0.11879837E+03</pdfrwt>
<pdfrwt beam="1">  1        4 0.65901048E-02 0.11879837E+03</pdfrwt>
<totfact> 0.75895912E+03</totfact>
</mgrwt>
</event>
<event>
 4    1  0.5134057E+003  0.1293972E+03  0.7546771E-02  0.1228353E+00
          1   -1    0    0  503    0 -0.00000000000E+00  0.00000000000E+00  0.19680438246E+03  0.19680438246E+03  0.00000000000E+00 0.  1.
         21   -1    0    0  501  502  0.00000000000E+00 -0.00000000000E+00 -0.91749234608E+02  0.91749234608E+02  0.00000000000E+00 0.  1.
         21    1    1    2  503  502  0.12789293120E+03  0.19673042220E+02  0.13621826919E+02  0.13011220008E+03  0.00000000000E+00 0.  1.
          1    1    1    2  501    0 -0.12789293120E+03 -0.19673042220E+02  0.91433320934E+02  0.15844141699E+03  0.00000000000E+00 0.  1.
<mgrwt>
<rscale>  2 0.12939718E+03</rscale>
<asrwt>0</asrwt>
<pdfrwt beam="2">  1       21 0.14115267E-01 0.12939718E+03</pdfrwt>
<pdfrwt beam="1">  1        1 0.30277597E-01 0.12939718E+03</pdfrwt>
<totfact> 0.70529658E+04</totfact>
</mgrwt>
</event>
<event>
 4    1  0.5134057E+003  0.1236317E+03  0.7546771E-02  0.1237223E+00
          2   -1    0    0  502    0 -0.00000000000E+00  0.00000000000E+00  0.18269647939E+04  0.18269647939E+04  0.00000000000E+00 0. -1.
         21   -1    0    0  503  502  0.00000000000E+00 -0.00000000000E+00 -0.17121167084E+02  0.17121167084E+02  0.00000000000E+00 0.  1.
         21    1    1    2  503  501 -0.11102004812E+03 -0.54399807395E+02  0.24557906215E+03  0.27494338671E+03  0.00000000000E+00 0.  1.
          2    1    1    2  501    0  0.11102004812E+03  0.54399807395E+02  0.15642645646E+04  0.15691425742E+04  0.00000000000E+00 0. -1.
<mgrwt>
<rscale>  2 0.12363167E+03</rscale>
<asrwt>0</asrwt>
<pdfrwt beam="2">  1       21 0.26340272E-02 0.12363167E+03</pdfrwt>
<pdfrwt beam="1">  1        2 0.28107135E+00 0.12363167E+03</pdfrwt>
<totfact> 0.93691896E+04</totfact>
</mgrwt>
</event>
<event>
 4    1  0.5134057E+003  0.1014907E+03  0.7546771E-02  0.1277192E+00
          4   -1    0    0  503    0 -0.00000000000E+00  0.00000000000E+00  0.15020801373E+03  0.15020801373E+03  0.00000000000E+00 0.  1.
         21   -1    0    0  501  502  0.00000000000E+00 -0.00000000000E+00 -0.10502688872E+03  0.10502688872E+03  0.00000000000E+00 0.  1.
         21    1    1    2  503  502  0.21894682861E+02  0.99100846116E+02 -0.52593565651E+02  0.11430852106E+03  0.00000000000E+00 0.  1.
          4    1    1    2  501    0 -0.21894682861E+02 -0.99100846116E+02  0.97774690663E+02  0.14092638139E+03  0.00000000000E+00 0.  1.
<mgrwt>
<rscale>  2 0.10149066E+03</rscale>
<asrwt>0</asrwt>
<pdfrwt beam="2">  1       21 0.16157983E-01 0.10149066E+03</pdfrwt>
<pdfrwt beam="1">  1        4 0.23108925E-01 0.10149066E+03</pdfrwt>
<totfact> 0.23399999E+04</totfact>
</mgrwt>
</event>
<event>
 4    1  0.5134057E+003  0.1015188E+03  0.7546771E-02  0.1277134E+00
         21   -1    0    0  503  502  0.00000000000E+00  0.00000000000E+00  0.23084232862E+02  0.23084232862E+02  0.00000000000E+00 0. -1.
          1   -1    0    0  502    0 -0.00000000000E+00 -0.00000000000E+00 -0.61380643307E+03  0.61380643307E+03  0.00000000000E+00 0. -1.
         21    1    1    2  503  501  0.52756784127E+02  0.86734034163E+02 -0.12908344123E+03  0.16422120982E+03  0.00000000000E+00 0. -1.
          1    1    1    2  501    0 -0.52756784127E+02 -0.86734034163E+02 -0.46163875898E+03  0.47266945612E+03  0.00000000000E+00 0. -1.
<mgrwt>
<rscale>  2 0.10151882E+03</rscale>
<asrwt>0</asrwt>
<pdfrwt beam="1">  1       21 0.35514212E-02 0.10151882E+03</pdfrwt>
<pdfrwt beam="2">  1        1 0.94431739E-01 0.10151882E+03</pdfrwt>
<totfact> 0.17687465E+05</totfact>
</mgrwt>
</event>
<event>
 4    1  0.5134057E+003  0.1059958E+03  0.7546771E-02  0.1268170E+00
          1   -1    0    0  502    0 -0.00000000000E+00  0.00000000000E+00  0.29844905800E+04  0.29844905800E+04  0.00000000000E+00 0. -1.
         21   -1    0    0  503  502  0.00000000000E+00 -0.00000000000E+00 -0.12752541329E+02  0.12752541329E+02  0.00000000000E+00 0. -1.
         21    1    1    2  503  501  0.88244550094E+02 -0.58719757301E+02  0.22773712647E+03  0.25119575890E+03  0.00000000000E+00 0. -1.
          1    1    1    2  501    0 -0.88244550094E+02  0.58719757301E+02  0.27440009122E+04  0.27460473624E+04  0.00000000000E+00 0. -1.
<mgrwt>
<rscale>  2 0.10599580E+03</rscale>
<asrwt>0</asrwt>
<pdfrwt beam="2">  1       21 0.19619318E-02 0.10599580E+03</pdfrwt>
<pdfrwt beam="1">  1        1 0.45915184E+00 0.10599580E+03</pdfrwt>
<totfact> 0.11437921E+04</totfact>
</mgrwt>
</event>
<event>
 4    1  0.5134057E+003  0.1406482E+03  0.7546771E-02  0.1212459E+00
         -2   -1    0    0    0  501 -0.00000000000E+00  0.00000000000E+00  0.12010280684E+03  0.12010280684E+03  0.00000000000E+00 0.  1.
         21   -1    0    0  503  502  0.00000000000E+00 -0.00000000000E+00 -0.17194699596E+03  0.17194699596E+03  0.00000000000E+00 0. -1.
         21    1    1    2  503  501 -0.11905929102E+03 -0.74878567832E+02  0.40393949685E+01  0.14070618824E+03  0.00000000000E+00 0. -1.
         -2    1    1    2    0  502  0.11905929102E+03  0.74878567832E+02 -0.55883584088E+02  0.15134361456E+03  0.00000000000E+00 0.  1.
<mgrwt>
<rscale>  2 0.14064819E+03</rscale>
<asrwt>0</asrwt>
<pdfrwt beam="2">  1       21 0.26453384E-01 0.14064819E+03</pdfrwt>
<pdfrwt beam="1">  1       -2 0.18477355E-01 0.14064819E+03</pdfrwt>
<totfact> 0.25908702E+04</totfact>
</mgrwt>
</event>
<event>
 4    1  0.5134057E+003  0.1012186E+03  0.7546771E-02  0.1277754E+00
          1   -1    0    0  503    0 -0.00000000000E+00  0.00000000000E+00  0.69786936419E+03  0.69786936419E+03  0.00000000000E+00 0.  1.
         21   -1    0    0  501  502  0.00000000000E+00 -0.00000000000E+00 -0.45667886795E+03  0.45667886795E+03  0.00000000000E+00 0. -1.
         21    1    1    2  503  502  0.61853213809E+02  0.80121013908E+02 -0.44732437036E+03  0.45863306602E+03  0.00000000000E+00 0. -1.
          1    1    1    2  501    0 -0.61853213809E+02 -0.80121013908E+02  0.68851486660E+03  0.69591516613E+03  0.00000000000E+00 0.  1.
<mgrwt>
<rscale>  2 0.10121856E+03</rscale>
<asrwt>0</asrwt>
<pdfrwt beam="2">  1       21 0.70258287E-01 0.10121856E+03</pdfrwt>
<pdfrwt beam="1">  1        1 0.10736452E+00 0.10121856E+03</pdfrwt>
<totfact> 0.62408504E+02</totfact>
</mgrwt>
</event>
<event>
 4    1  0.5134057E+003  0.1476780E+03  0.7546771E-02  0.1203356E+00
          1   -1    0    0  503    0 -0.00000000000E+00  0.00000000000E+00  0.85980424580E+02  0.85980424580E+02  0.00000000000E+00 0.  1.
         21   -1    0    0  501  502  0.00000000000E+00 -0.00000000000E+00 -0.27280500204E+03  0.27280500204E+03  0.00000000000E+00 0.  1.
         21    1    1    2  503  502  0.10178734814E+03  0.10699594513E+03 -0.14094996549E+03  0.20414624485E+03  0.00000000000E+00 0.  1.
          1    1    1    2  501    0 -0.10178734814E+03 -0.10699594513E+03 -0.45874611972E+02  0.15463918177E+03  0.00000000000E+00 0.  1.
<mgrwt>
<rscale>  2 0.14767802E+03</rscale>
<asrwt>0</asrwt>
<pdfrwt beam="2">  1       21 0.41969999E-01 0.14767802E+03</pdfrwt>
<pdfrwt beam="1">  1        1 0.13227758E-01 0.14767802E+03</pdfrwt>
<totfact> 0.25731978E+04</totfact>
</mgrwt>
</event>
<event>
 4    1  0.5134057E+003  0.1077676E+03  0.7546771E-02  0.1264761E+00
          2   -1    0    0  503    0 -0.00000000000E+00  0.00000000000E+00  0.17035938587E+04  0.17035938587E+04  0.00000000000E+00 0.  1.
         21   -1    0    0  501  502  0.00000000000E+00 -0.00000000000E+00 -0.73554347411E+02  0.73554347411E+02  0.00000000000E+00 0. -1.
         21    1    1    2  503  502 -0.30303265069E+02  0.10341938359E+03 -0.31375217299E+02  0.11224197537E+03  0.00000000000E+00 0. -1.
          2    1    1    2  501    0  0.30303265069E+02 -0.10341938359E+03  0.16614147286E+04  0.16649062308E+04  0.00000000000E+00 0.  1.
<mgrwt>
<rscale>  2 0.10776761E+03</rscale>
<asrwt>0</asrwt>
<pdfrwt beam="2">  1       21 0.11316055E-01 0.10776761E+03</pdfrwt>
<pdfrwt beam="1">  1        2 0.26209133E+00 0.10776761E+03</pdfrwt>
<totfact> 0.93168458E+03</totfact>
</mgrwt>
</event>
<event>
 4    1  0.5134057E+003  0.1126628E+03  0.7546771E-02  0.1255717E+00
          1   -1    0    0  503    0 -0.00000000000E+00  0.00000000000E+00  0.85889441688E+03  0.85889441688E+03  0.00000000000E+00 0.  1.
         21   -1    0    0  501  502  0.00000000000E+00 -0.00000000000E+00 -0.26620519691E+02  0.26620519691E+02  0.00000000000E+00 0. -1.
         21    1    1    2  503  502 -0.10293950571E+03  0.45786167485E+02  0.12082842036E+03  0.16520418316E+03  0.00000000000E+00 0. -1.
          1    1    1    2  501    0  0.10293950571E+03 -0.45786167485E+02  0.71144547683E+03  0.72031075341E+03  0.00000000000E+00 0.  1.
<mgrwt>
<rscale>  2 0.11266284E+03</rscale>
<asrwt>0</asrwt>
<pdfrwt beam="2">  1       21 0.40954652E-02 0.11266284E+03</pdfrwt>
<pdfrwt beam="1">  1        1 0.13213758E+00 0.11266284E+03</pdfrwt>
<totfact> 0.86473142E+04</totfact>
</mgrwt>
</event>
<event>
 4    1  0.5134057E+003  0.2472486E+03  0.7546771E-02  0.1115056E+00
         21   -1    0    0  501  502  0.00000000000E+00  0.00000000000E+00  0.49349354501E+02  0.49349354501E+02  0.00000000000E+00 0.  1.
          2   -1    0    0  503    0 -0.00000000000E+00 -0.00000000000E+00 -0.20961356099E+04  0.20961356099E+04  0.00000000000E+00 0.  1.
         21    1    1    2  503  502 -0.23412188610E+03 -0.79490894890E+02 -0.33731731974E+03  0.41822820818E+03  0.00000000000E+00 0.  1.
          2    1    1    2  501    0  0.23412188610E+03  0.79490894890E+02 -0.17094689356E+04  0.17272567562E+04  0.00000000000E+00 0.  1.
<mgrwt>
<rscale>  2 0.24724858E+03</rscale>
<asrwt>0</asrwt>
<pdfrwt beam="1">  1       21 0.75922071E-02 0.24724858E+03</pdfrwt>
<pdfrwt beam="2">  1        2 0.32248245E+00 0.24724858E+03</pdfrwt>
<totfact> 0.11049025E+04</totfact>
</mgrwt>
</event>
<event>
 4    1  0.5134057E+003  0.1243487E+03  0.7546771E-02  0.1236091E+00
          1   -1    0    0  502    0 -0.00000000000E+00  0.00000000000E+00  0.51675207047E+03  0.51675207047E+03  0.00000000000E+00 0. -1.
         21   -1    0    0  503  502  0.00000000000E+00 -0.00000000000E+00 -0.28665668970E+03  0.28665668970E+03  0.00000000000E+00 0.  1.
         21    1    1    2  503  501 -0.56703844328E+02  0.11066735278E+03 -0.26511304380E+03  0.29282676607E+03  0.00000000000E+00 0.  1.
          1    1    1    2  501    0  0.56703844328E+02 -0.11066735278E+03  0.49520842457E+03  0.51058199410E+03  0.00000000000E+00 0. -1.
<mgrwt>
<rscale>  2 0.12434866E+03</rscale>
<asrwt>0</asrwt>
<pdfrwt beam="2">  1       21 0.44101029E-01 0.12434866E+03</pdfrwt>
<pdfrwt beam="1">  1        1 0.79500319E-01 0.12434866E+03</pdfrwt>
<totfact> 0.24366478E+03</totfact>
</mgrwt>
</event>
<event>
 4    1  0.5134057E+003  0.1368483E+03  0.7546771E-02  0.1217634E+00
          1   -1    0    0  503    0 -0.00000000000E+00  0.00000000000E+00  0.12708904807E+04  0.12708904807E+04  0.00000000000E+00 0. -1.
         21   -1    0    0  501  502  0.00000000000E+00 -0.00000000000E+00 -0.39157454533E+03  0.39157454533E+03  0.00000000000E+00 0.  1.
         21    1    1    2  503  502 -0.11918004278E+03 -0.67257483357E+02 -0.37578413709E+03  0.39992645493E+03  0.00000000000E+00 0.  1.
          1    1    1    2  501    0  0.11918004278E+03  0.67257483357E+02  0.12551000725E+04  0.12625385712E+04  0.00000000000E+00 0. -1.
<mgrwt>
<rscale>  2 0.13684828E+03</rscale>
<asrwt>0</asrwt>
<pdfrwt beam="2">  1       21 0.60242238E-01 0.13684828E+03</pdfrwt>
<pdfrwt beam="1">  1        1 0.19552161E+00 0.13684828E+03</pdfrwt>
<totfact> 0.31195315E+02</totfact>
</mgrwt>
</event>
<event>
 4    1  0.5134057E+003  0.2687306E+03  0.7546771E-02  0.1102008E+00
         21   -1    0    0  501  502  0.00000000000E+00  0.00000000000E+00  0.97983435450E+02  0.97983435450E+02  0.00000000000E+00 0.  1.
          2   -1    0    0  503    0 -0.00000000000E+00 -0.00000000000E+00 -0.75121161028E+03  0.75121161028E+03  0.00000000000E+00 0.  1.
         21    1    1    2  503  502  0.20448091187E+03 -0.17436653120E+03 -0.26826246077E+03  0.37971157262E+03  0.00000000000E+00 0.  1.
          2    1    1    2  501    0 -0.20448091187E+03  0.17436653120E+03 -0.38496571406E+03  0.46948347311E+03  0.00000000000E+00 0.  1.
<mgrwt>
<rscale>  2 0.26873059E+03</rscale>
<asrwt>0</asrwt>
<pdfrwt beam="1">  1       21 0.15074376E-01 0.26873059E+03</pdfrwt>
<pdfrwt beam="2">  1        2 0.11557101E+00 0.26873059E+03</pdfrwt>
<totfact> 0.18606459E+04</totfact>
</mgrwt>
</event>
<event>
 4    1  0.5134057E+003  0.3442926E+03  0.7546771E-02  0.1064982E+00
         21   -1    0    0  501  502  0.00000000000E+00  0.00000000000E+00  0.11970668399E+03  0.11970668399E+03  0.00000000000E+00 0.  1.
          2   -1    0    0  503    0 -0.00000000000E+00 -0.00000000000E+00 -0.11933511410E+04  0.11933511410E+04  0.00000000000E+00 0.  1.
         21    1    1    2  503  502  0.69225426715E+02 -0.33726140623E+03 -0.26596220178E+03  0.43505552360E+03  0.00000000000E+00 0.  1.
          2    1    1    2  501    0 -0.69225426715E+02  0.33726140623E+03 -0.80768225518E+03  0.87800230135E+03  0.00000000000E+00 0.  1.
<mgrwt>
<rscale>  2 0.34429263E+03</rscale>
<asrwt>0</asrwt>
<pdfrwt beam="1">  1       21 0.18416413E-01 0.34429263E+03</pdfrwt>
<pdfrwt beam="2">  1        2 0.18359249E+00 0.34429263E+03</pdfrwt>
<totfact> 0.66302423E+03</totfact>
</mgrwt>
</event>
<event>
 4    1  0.5134057E+003  0.1195913E+03  0.7546771E-02  0.1243773E+00
         -4   -1    0    0    0  501 -0.00000000000E+00  0.00000000000E+00  0.13669746446E+04  0.13669746446E+04  0.00000000000E+00 0. -1.
         21   -1    0    0  501  502  0.00000000000E+00 -0.00000000000E+00 -0.17859131684E+02  0.17859131684E+02  0.00000000000E+00 0.  1.
         21    1    1    2  503  502 -0.35930564028E+01  0.11953729537E+03  0.22895048341E+03  0.25830292080E+03  0.00000000000E+00 0.  1.
         -4    1    1    2    0  503  0.35930564028E+01 -0.11953729537E+03  0.11201650295E+04  0.11265308555E+04  0.00000000000E+00 0. -1.
<mgrwt>
<rscale>  2 0.11959128E+03</rscale>
<asrwt>0</asrwt>
<pdfrwt beam="2">  1       21 0.27475598E-02 0.11959128E+03</pdfrwt>
<pdfrwt beam="1">  1       -4 0.21030371E+00 0.11959128E+03</pdfrwt>
<totfact> 0.37710264E+03</totfact>
</mgrwt>
</event>
<event>
 4    1  0.5134057E+003  0.1484796E+03  0.7546771E-02  0.1202354E+00
          2   -1    0    0  503    0 -0.00000000000E+00  0.00000000000E+00  0.66111604898E+02  0.66111604898E+02  0.00000000000E+00 0. -1.
         21   -1    0    0  501  502  0.00000000000E+00 -0.00000000000E+00 -0.15397735095E+04  0.15397735095E+04  0.00000000000E+00 0.  1.
         21    1    1    2  503  502  0.13230866101E+03 -0.67384144074E+02 -0.14475278806E+04  0.14551230772E+04  0.00000000000E+00 0.  1.
          2    1    1    2  501    0 -0.13230866101E+03  0.67384144074E+02 -0.26134023998E+02  0.15076203721E+03  0.00000000000E+00 0. -1.
<mgrwt>
<rscale>  2 0.14847964E+03</rscale>
<asrwt>0</asrwt>
<pdfrwt beam="2">  1       21 0.23688825E+00 0.14847964E+03</pdfrwt>
<pdfrwt beam="1">  1        2 0.10171016E-01 0.14847964E+03</pdfrwt>
<totfact> 0.62725252E+02</totfact>
</mgrwt>
</event>
<event>
 4    1  0.5134057E+003  0.1413775E+03  0.7546771E-02  0.1211487E+00
         21   -1    0    0  501  502  0.00000000000E+00  0.00000000000E+00  0.56494162931E+02  0.56494162931E+02  0.00000000000E+00 0. -1.
          2   -1    0    0  503    0 -0.00000000000E+00 -0.00000000000E+00 -0.46489525862E+03  0.46489525862E+03  0.00000000000E+00 0.  1.
         21    1    1    2  503  502 -0.74151340822E+01  0.14118293545E+03 -0.76761229527E+02  0.16087228423E+03  0.00000000000E+00 0. -1.
          2    1    1    2  501    0  0.74151340822E+01 -0.14118293545E+03 -0.33163986616E+03  0.36051713732E+03  0.00000000000E+00 0.  1.
<mgrwt>
<rscale>  2 0.14137753E+03</rscale>
<asrwt>0</asrwt>
<pdfrwt beam="1">  1       21 0.86914098E-02 0.14137753E+03</pdfrwt>
<pdfrwt beam="2">  1        2 0.71522347E-01 0.14137753E+03</pdfrwt>
<totfact> 0.87350075E+04</totfact>
</mgrwt>
</event>
<event>
 4    1  0.5134057E+003  0.1107219E+03  0.7546771E-02  0.1259239E+00
         21   -1    0    0  503  502  0.00000000000E+00  0.00000000000E+00  0.17426243274E+03  0.17426243274E+03  0.00000000000E+00 0. -1.
          3   -1    0    0  502    0 -0.00000000000E+00 -0.00000000000E+00 -0.11941349003E+03  0.11941349003E+03  0.00000000000E+00 0.  1.
         21    1    1    2  503  501 -0.97935398753E+02 -0.51652710860E+02  0.12154650631E+03  0.16441684240E+03  0.00000000000E+00 0. -1.
          3    1    1    2  501    0  0.97935398753E+02  0.51652710860E+02 -0.66697563597E+02  0.12925908037E+03  0.00000000000E+00 0.  1.
<mgrwt>
<rscale>  2 0.11072193E+03</rscale>
<asrwt>0</asrwt>
<pdfrwt beam="1">  1       21 0.26809605E-01 0.11072193E+03</pdfrwt>
<pdfrwt beam="2">  1        3 0.18371306E-01 0.11072193E+03</pdfrwt>
<totfact> 0.16463436E+04</totfact>
</mgrwt>
</event>
<event>
 4    1  0.5134057E+003  0.2249926E+03  0.7546771E-02  0.1130215E+00
         21   -1    0    0  501  502  0.00000000000E+00  0.00000000000E+00  0.24070963850E+03  0.24070963850E+03  0.00000000000E+00 0.  1.
         -4   -1    0    0    0  501 -0.00000000000E+00 -0.00000000000E+00 -0.24262436685E+03  0.24262436685E+03  0.00000000000E+00 0. -1.
         21    1    1    2  503  502 -0.15325273969E+03  0.16472789978E+03  0.87249566101E+02  0.24131757079E+03  0.00000000000E+00 0.  1.
         -4    1    1    2    0  503  0.15325273969E+03 -0.16472789978E+03 -0.89164294459E+02  0.24201643456E+03  0.00000000000E+00 0. -1.
<mgrwt>
<rscale>  2 0.22499263E+03</rscale>
<asrwt>0</asrwt>
<pdfrwt beam="1">  1       21 0.37032252E-01 0.22499263E+03</pdfrwt>
<pdfrwt beam="2">  1       -4 0.37326826E-01 0.22499263E+03</pdfrwt>
<totfact> 0.20663713E+03</totfact>
</mgrwt>
</event>
<event>
 4    1  0.5134057E+003  0.1294781E+03  0.7546771E-02  0.1228232E+00
         21   -1    0    0  501  502  0.00000000000E+00  0.00000000000E+00  0.27430003690E+03  0.27430003690E+03  0.00000000000E+00 0. -1.
          1   -1    0    0  503    0 -0.00000000000E+00 -0.00000000000E+00 -0.84585023074E+02  0.84585023074E+02  0.00000000000E+00 0. -1.
         21    1    1    2  503  502  0.12769988000E+03  0.21385033033E+02  0.18937467620E+03  0.22940651032E+03  0.00000000000E+00 0. -1.
          1    1    1    2  501    0 -0.12769988000E+03 -0.21385033033E+02  0.34033762065E+00  0.12947854965E+03  0.00000000000E+00 0. -1.
<mgrwt>
<rscale>  2 0.12947810E+03</rscale>
<asrwt>0</asrwt>
<pdfrwt beam="1">  1       21 0.42200005E-01 0.12947810E+03</pdfrwt>
<pdfrwt beam="2">  1        1 0.13013081E-01 0.12947810E+03</pdfrwt>
<totfact> 0.25988817E+04</totfact>
</mgrwt>
</event>
<event>
 4    1  0.5134057E+003  0.1662450E+03  0.7546771E-02  0.1181821E+00
         21   -1    0    0  501  502  0.00000000000E+00  0.00000000000E+00  0.86620410897E+01  0.86620410897E+01  0.00000000000E+00 0. -1.
          2   -1    0    0  503    0 -0.00000000000E+00 -0.00000000000E+00 -0.32229888145E+04  0.32229888145E+04  0.00000000000E+00 0. -1.
         21    1    1    2  503  502 -0.16139439055E+03  0.39865312802E+02 -0.14452650035E+04  0.14547949419E+04  0.00000000000E+00 0. -1.
          2    1    1    2  501    0  0.16139439055E+03 -0.39865312802E+02 -0.17690617698E+04  0.17768559137E+04  0.00000000000E+00 0. -1.
<mgrwt>
<rscale>  2 0.16624498E+03</rscale>
<asrwt>0</asrwt>
<pdfrwt beam="1">  1       21 0.13326203E-02 0.16624498E+03</pdfrwt>
<pdfrwt beam="2">  1        2 0.49584494E+00 0.16624498E+03</pdfrwt>
<totfact> 0.48393811E+04</totfact>
</mgrwt>
</event>
<event>
 4    1  0.5134057E+003  0.1226243E+03  0.7546771E-02  0.1238829E+00
         21   -1    0    0  503  502  0.00000000000E+00  0.00000000000E+00  0.22748793315E+02  0.22748793315E+02  0.00000000000E+00 0. -1.
          1   -1    0    0  502    0 -0.00000000000E+00 -0.00000000000E+00 -0.14907772482E+04  0.14907772482E+04  0.00000000000E+00 0. -1.
         21    1    1    2  503  501 -0.67873395149E+02  0.10212700097E+03 -0.16941934868E+03  0.20914023478E+03  0.00000000000E+00 0. -1.
          1    1    1    2  501    0  0.67873395149E+02 -0.10212700097E+03 -0.12986091062E+04  0.13043858067E+04  0.00000000000E+00 0. -1.
<mgrwt>
<rscale>  2 0.12262431E+03</rscale>
<asrwt>0</asrwt>
<pdfrwt beam="1">  1       21 0.34998144E-02 0.12262431E+03</pdfrwt>
<pdfrwt beam="2">  1        1 0.22935035E+00 0.12262431E+03</pdfrwt>
<totfact> 0.40840946E+04</totfact>
</mgrwt>
</event>
<event>
 4    1  0.5134057E+003  0.1027588E+03  0.7546771E-02  0.1274599E+00
          2   -1    0    0  503    0 -0.00000000000E+00  0.00000000000E+00  0.91489364282E+03  0.91489364282E+03  0.00000000000E+00 0. -1.
         21   -1    0    0  501  502  0.00000000000E+00 -0.00000000000E+00 -0.12847485712E+02  0.12847485712E+02  0.00000000000E+00 0. -1.
         21    1    1    2  503  502 -0.25854873528E+02 -0.99452943677E+02  0.30313417196E+03  0.32007762918E+03  0.00000000000E+00 0. -1.
          2    1    1    2  501    0  0.25854873528E+02  0.99452943677E+02  0.59891198515E+03  0.60766349935E+03  0.00000000000E+00 0. -1.
<mgrwt>
<rscale>  2 0.10275876E+03</rscale>
<asrwt>0</asrwt>
<pdfrwt beam="2">  1       21 0.19765370E-02 0.10275876E+03</pdfrwt>
<pdfrwt beam="1">  1        2 0.14075282E+00 0.10275876E+03</pdfrwt>
<totfact> 0.45963470E+05</totfact>
</mgrwt>
</event>
<event>
 4    1  0.5134057E+003  0.1234309E+03  0.7546771E-02  0.1237542E+00
         21   -1    0    0  503  502  0.00000000000E+00  0.00000000000E+00  0.19620960448E+03  0.19620960448E+03  0.00000000000E+00 0.  1.
          2   -1    0    0  502    0 -0.00000000000E+00 -0.00000000000E+00 -0.16584058427E+03  0.16584058427E+03  0.00000000000E+00 0. -1.
         21    1    1    2  503  501  0.11951580779E+03 -0.30841039542E+02  0.14719561873E+03  0.19209827746E+03  0.00000000000E+00 0.  1.
          2    1    1    2  501    0 -0.11951580779E+03  0.30841039542E+02 -0.11682659851E+03  0.16995191129E+03  0.00000000000E+00 0. -1.
<mgrwt>
<rscale>  2 0.12343094E+03</rscale>
<asrwt>0</asrwt>
<pdfrwt beam="1">  1       21 0.30186093E-01 0.12343094E+03</pdfrwt>
<pdfrwt beam="2">  1        2 0.25513936E-01 0.12343094E+03</pdfrwt>
<totfact> 0.27239437E+04</totfact>
</mgrwt>
</event>
<event>
 4    1  0.5134057E+003  0.1210701E+03  0.7546771E-02  0.1241342E+00
          2   -1    0    0  503    0 -0.00000000000E+00  0.00000000000E+00  0.66343945349E+03  0.66343945349E+03  0.00000000000E+00 0.  1.
         21   -1    0    0  501  502  0.00000000000E+00 -0.00000000000E+00 -0.40168327259E+02  0.40168327259E+02  0.00000000000E+00 0. -1.
         21    1    1    2  503  502  0.58152919060E+02 -0.10618952522E+03  0.75647077425E+02  0.14276014004E+03  0.00000000000E+00 0. -1.
          2    1    1    2  501    0 -0.58152919060E+02  0.10618952522E+03  0.54762404880E+03  0.56084764071E+03  0.00000000000E+00 0.  1.
<mgrwt>
<rscale>  2 0.12107013E+03</rscale>
<asrwt>0</asrwt>
<pdfrwt beam="2">  1       21 0.61797432E-02 0.12107013E+03</pdfrwt>
<pdfrwt beam="1">  1        2 0.10206760E+00 0.12107013E+03</pdfrwt>
<totfact> 0.10494287E+05</totfact>
</mgrwt>
</event>
<event>
 4    1  0.5134057E+003  0.1385822E+03  0.7546771E-02  0.1215250E+00
         21   -1    0    0  501  502  0.00000000000E+00  0.00000000000E+00  0.13358167466E+03  0.13358167466E+03  0.00000000000E+00 0.  1.
         -1   -1    0    0    0  501 -0.00000000000E+00 -0.00000000000E+00 -0.29798604044E+03  0.29798604044E+03  0.00000000000E+00 0.  1.
         21    1    1    2  503  502 -0.72509433050E+02 -0.11809913871E+03  0.73031479308E+02  0.15664808143E+03  0.00000000000E+00 0.  1.
         -1    1    1    2    0  503  0.72509433050E+02  0.11809913871E+03 -0.23743584509E+03  0.27491963368E+03  0.00000000000E+00 0.  1.
<mgrwt>
<rscale>  2 0.13858219E+03</rscale>
<asrwt>0</asrwt>
<pdfrwt beam="1">  1       21 0.20551027E-01 0.13858219E+03</pdfrwt>
<pdfrwt beam="2">  1       -1 0.45844005E-01 0.13858219E+03</pdfrwt>
<totfact> 0.98178417E+03</totfact>
</mgrwt>
</event>
<event>
 4    1  0.5134057E+003  0.1072836E+03  0.7546771E-02  0.1265685E+00
          1   -1    0    0  503    0 -0.00000000000E+00  0.00000000000E+00  0.11808223813E+04  0.11808223813E+04  0.00000000000E+00 0.  1.
         21   -1    0    0  501  502  0.00000000000E+00 -0.00000000000E+00 -0.10660570581E+02  0.10660570581E+02  0.00000000000E+00 0.  1.
         21    1    1    2  503  502 -0.10641605928E+03  0.13615758327E+02  0.41070755112E+03  0.42448846756E+03  0.00000000000E+00 0.  1.
          1    1    1    2  501    0  0.10641605928E+03 -0.13615758327E+02  0.75945425956E+03  0.76699448428E+03  0.00000000000E+00 0.  1.
<mgrwt>
<rscale>  2 0.10728358E+03</rscale>
<asrwt>0</asrwt>
<pdfrwt beam="2">  1       21 0.16400887E-02 0.10728358E+03</pdfrwt>
<pdfrwt beam="1">  1        1 0.18166488E+00 0.10728358E+03</pdfrwt>
<totfact> 0.22342179E+05</totfact>
</mgrwt>
</event>
<event>
 4    1  0.5134057E+003  0.1266944E+03  0.7546771E-02  0.1232445E+00
         21   -1    0    0  503  502  0.00000000000E+00  0.00000000000E+00  0.15334010292E+03  0.15334010292E+03  0.00000000000E+00 0. -1.
          2   -1    0    0  502    0 -0.00000000000E+00 -0.00000000000E+00 -0.11139056544E+03  0.11139056544E+03  0.00000000000E+00 0.  1.
         21    1    1    2  503  501 -0.98612655071E+02  0.79542611885E+02  0.53465777250E+02  0.13751389814E+03  0.00000000000E+00 0. -1.
          2    1    1    2  501    0  0.98612655071E+02 -0.79542611885E+02 -0.11516239768E+02  0.12721677021E+03  0.00000000000E+00 0.  1.
<mgrwt>
<rscale>  2 0.12669445E+03</rscale>
<asrwt>0</asrwt>
<pdfrwt beam="1">  1       21 0.23590785E-01 0.12669445E+03</pdfrwt>
<pdfrwt beam="2">  1        2 0.17137010E-01 0.12669445E+03</pdfrwt>
<totfact> 0.68084007E+04</totfact>
</mgrwt>
</event>
<event>
 4    1  0.5134057E+003  0.1045612E+03  0.7546771E-02  0.1270986E+00
         21   -1    0    0  501  502  0.00000000000E+00  0.00000000000E+00  0.10118112856E+03  0.10118112856E+03  0.00000000000E+00 0. -1.
          2   -1    0    0  503    0 -0.00000000000E+00 -0.00000000000E+00 -0.12512978614E+03  0.12512978614E+03  0.00000000000E+00 0.  1.
         21    1    1    2  503  502  0.20931661909E+02  0.10244471488E+03  0.29826215404E+02  0.10873204312E+03  0.00000000000E+00 0. -1.
          2    1    1    2  501    0 -0.20931661909E+02 -0.10244471488E+03 -0.53774872986E+02  0.11757887158E+03  0.00000000000E+00 0.  1.
<mgrwt>
<rscale>  2 0.10456125E+03</rscale>
<asrwt>0</asrwt>
<pdfrwt beam="1">  1       21 0.15566328E-01 0.10456125E+03</pdfrwt>
<pdfrwt beam="2">  1        2 0.19250736E-01 0.10456125E+03</pdfrwt>
<totfact> 0.12705070E+05</totfact>
</mgrwt>
</event>
<event>
 4    1  0.5134057E+003  0.1243831E+03  0.7546771E-02  0.1236037E+00
         21   -1    0    0  501  502  0.00000000000E+00  0.00000000000E+00  0.67260944775E+03  0.67260944775E+03  0.00000000000E+00 0.  1.
          3   -1    0    0  503    0 -0.00000000000E+00 -0.00000000000E+00 -0.17162690874E+03  0.17162690874E+03  0.00000000000E+00 0.  1.
         21    1    1    2  503  502  0.11500369609E+03 -0.47384526023E+02  0.64330588788E+03  0.65522027502E+03  0.00000000000E+00 0.  1.
          3    1    1    2  501    0 -0.11500369609E+03  0.47384526023E+02 -0.14232334887E+03  0.18901608147E+03  0.00000000000E+00 0.  1.
<mgrwt>
<rscale>  2 0.12438305E+03</rscale>
<asrwt>0</asrwt>
<pdfrwt beam="1">  1       21 0.10347838E+00 0.12438305E+03</pdfrwt>
<pdfrwt beam="2">  1        3 0.26404140E-01 0.12438305E+03</pdfrwt>
<totfact> 0.51500250E+02</totfact>
</mgrwt>
</event>
<event>
 4    1  0.5134057E+003  0.1238483E+03  0.7546771E-02  0.1236880E+00
          1   -1    0    0  503    0 -0.00000000000E+00  0.00000000000E+00  0.22005561046E+04  0.22005561046E+04  0.00000000000E+00 0. -1.
         21   -1    0    0  501  502  0.00000000000E+00 -0.00000000000E+00 -0.10424857842E+02  0.10424857842E+02  0.00000000000E+00 0. -1.
         21    1    1    2  503  502 -0.12287227504E+03  0.15517816961E+02  0.45868037861E+03  0.47510639686E+03  0.00000000000E+00 0. -1.
          1    1    1    2  501    0  0.12287227504E+03 -0.15517816961E+02  0.17314508681E+04  0.17358745656E+04  0.00000000000E+00 0. -1.
<mgrwt>
<rscale>  2 0.12384829E+03</rscale>
<asrwt>0</asrwt>
<pdfrwt beam="2">  1       21 0.16038260E-02 0.12384829E+03</pdfrwt>
<pdfrwt beam="1">  1        1 0.33854672E+00 0.12384829E+03</pdfrwt>
<totfact> 0.51219897E+04</totfact>
</mgrwt>
</event>
<event>
 4    1  0.5134057E+003  0.1136736E+03  0.7546771E-02  0.1253914E+00
         21   -1    0    0  503  502  0.00000000000E+00  0.00000000000E+00  0.78122069704E+02  0.78122069704E+02  0.00000000000E+00 0.  1.
         -2   -1    0    0    0  501 -0.00000000000E+00 -0.00000000000E+00 -0.16825371903E+03  0.16825371903E+03  0.00000000000E+00 0.  1.
         21    1    1    2  503  501 -0.58958549185E+02  0.97188368110E+02 -0.29033378638E+02  0.11732274499E+03  0.00000000000E+00 0.  1.
         -2    1    1    2    0  502  0.58958549185E+02 -0.97188368110E+02 -0.61098270691E+02  0.12905304374E+03  0.00000000000E+00 0.  1.
<mgrwt>
<rscale>  2 0.11367361E+03</rscale>
<asrwt>0</asrwt>
<pdfrwt beam="1">  1       21 0.12018780E-01 0.11367361E+03</pdfrwt>
<pdfrwt beam="2">  1       -2 0.25885187E-01 0.11367361E+03</pdfrwt>
<totfact> 0.61260998E+04</totfact>
</mgrwt>
</event>
<event>
 4    1  0.5134057E+003  0.1083118E+03  0.7546771E-02  0.1263728E+00
         -2   -1    0    0    0  501 -0.00000000000E+00  0.00000000000E+00  0.97507429753E+02  0.97507429753E+02  0.00000000000E+00 0.  1.
         21   -1    0    0  503  502  0.00000000000E+00 -0.00000000000E+00 -0.19782086006E+03  0.19782086006E+03  0.00000000000E+00 0. -1.
         21    1    1    2  503  501  0.48113857139E+02 -0.97038662736E+02 -0.14258628047E+03  0.17905946692E+03  0.00000000000E+00 0. -1.
         -2    1    1    2    0  502 -0.48113857139E+02  0.97038662736E+02  0.42272850170E+02  0.11626882289E+03  0.00000000000E+00 0.  1.
<mgrwt>
<rscale>  2 0.10831180E+03</rscale>
<asrwt>0</asrwt>
<pdfrwt beam="2">  1       21 0.30433978E-01 0.10831180E+03</pdfrwt>
<pdfrwt beam="1">  1       -2 0.15001143E-01 0.10831180E+03</pdfrwt>
<totfact> 0.27785970E+04</totfact>
</mgrwt>
</event>
<event>
 4    1  0.5134057E+003  0.1854238E+03  0.7546771E-02  0.1162655E+00
          2   -1    0    0  503    0 -0.00000000000E+00  0.00000000000E+00  0.17063087857E+04  0.17063087857E+04  0.00000000000E+00 0.  1.
         21   -1    0    0  501  502  0.00000000000E+00 -0.00000000000E+00 -0.88941627071E+02  0.88941627071E+02  0.00000000000E+00 0.  1.
         21    1    1    2  503  502 -0.18191502645E+03 -0.35901229461E+02  0.19259140363E+02  0.18642126921E+03  0.00000000000E+00 0.  1.
          2    1    1    2  501    0  0.18191502645E+03  0.35901229461E+02  0.15981080183E+04  0.16088291436E+04  0.00000000000E+00 0.  1.
<mgrwt>
<rscale>  2 0.18542377E+03</rscale>
<asrwt>0</asrwt>
<pdfrwt beam="2">  1       21 0.13683328E-01 0.18542377E+03</pdfrwt>
<pdfrwt beam="1">  1        2 0.26250902E+00 0.18542377E+03</pdfrwt>
<totfact> 0.63626645E+03</totfact>
</mgrwt>
</event>
<event>
 4    1  0.5134057E+003  0.1034588E+03  0.7546771E-02  0.1273186E+00
          2   -1    0    0  503    0 -0.00000000000E+00  0.00000000000E+00  0.13639787064E+03  0.13639787064E+03  0.00000000000E+00 0.  1.
         21   -1    0    0  501  502  0.00000000000E+00 -0.00000000000E+00 -0.16247267044E+03  0.16247267044E+03  0.00000000000E+00 0.  1.
         21    1    1    2  503  502  0.79737678530E+02  0.65921309990E+02 -0.12048546333E+03  0.15880951911E+03  0.00000000000E+00 0.  1.
          2    1    1    2  501    0 -0.79737678530E+02 -0.65921309990E+02  0.94410663522E+02  0.14006102197E+03  0.00000000000E+00 0.  1.
<mgrwt>
<rscale>  2 0.10345877E+03</rscale>
<asrwt>0</asrwt>
<pdfrwt beam="2">  1       21 0.24995795E-01 0.10345877E+03</pdfrwt>
<pdfrwt beam="1">  1        2 0.20984288E-01 0.10345877E+03</pdfrwt>
<totfact> 0.48320823E+04</totfact>
</mgrwt>
</event>
<event>
 4    1  0.5134057E+003  0.1485042E+03  0.7546771E-02  0.1202323E+00
          2   -1    0    0  502    0 -0.00000000000E+00  0.00000000000E+00  0.20727235753E+03  0.20727235753E+03  0.00000000000E+00 0.  1.
         21   -1    0    0  503  502  0.00000000000E+00 -0.00000000000E+00 -0.85622282759E+03  0.85622282759E+03  0.00000000000E+00 0.  1.
         21    1    1    2  503  501  0.10355357083E+03 -0.10644317270E+03 -0.82208840074E+03  0.83539381712E+03  0.00000000000E+00 0.  1.
          2    1    1    2  501    0 -0.10355357083E+03  0.10644317270E+03  0.17313793068E+03  0.22810136800E+03  0.00000000000E+00 0.  1.
<mgrwt>
<rscale>  2 0.14850418E+03</rscale>
<asrwt>0</asrwt>
<pdfrwt beam="2">  1       21 0.13172659E+00 0.14850418E+03</pdfrwt>
<pdfrwt beam="1">  1        2 0.31888056E-01 0.14850418E+03</pdfrwt>
<totfact> 0.86844780E+02</totfact>
</mgrwt>
</event>
<event>
 4    1  0.5134057E+003  0.1285628E+03  0.7546771E-02  0.1229604E+00
         21   -1    0    0  501  502  0.00000000000E+00  0.00000000000E+00  0.12752434783E+03  0.12752434783E+03  0.00000000000E+00 0. -1.
          1   -1    0    0  503    0 -0.00000000000E+00 -0.00000000000E+00 -0.17380499702E+03  0.17380499702E+03  0.00000000000E+00 0. -1.
         21    1    1    2  503  502 -0.65519612183E+02  0.11061447130E+03  0.52834337756E+02  0.13899585637E+03  0.00000000000E+00 0. -1.
          1    1    1    2  501    0  0.65519612183E+02 -0.11061447130E+03 -0.99114986948E+02  0.16233348847E+03  0.00000000000E+00 0. -1.
<mgrwt>
<rscale>  2 0.12856275E+03</rscale>
<asrwt>0</asrwt>
<pdfrwt beam="1">  1       21 0.19619131E-01 0.12856275E+03</pdfrwt>
<pdfrwt beam="2">  1        1 0.26739230E-01 0.12856275E+03</pdfrwt>
<totfact> 0.45230337E+04</totfact>
</mgrwt>
</event>
<event>
 4    1  0.5134057E+003  0.1133744E+03  0.7546771E-02  0.1254446E+00
         21   -1    0    0  501  502  0.00000000000E+00  0.00000000000E+00  0.13059865582E+04  0.13059865582E+04  0.00000000000E+00 0. -1.
          3   -1    0    0  503    0 -0.00000000000E+00 -0.00000000000E+00 -0.13514436200E+02  0.13514436200E+02  0.00000000000E+00 0. -1.
         21    1    1    2  503  502  0.11159713641E+03  0.19995589247E+02  0.99014836562E+03  0.99661804639E+03  0.00000000000E+00 0. -1.
          3    1    1    2  501    0 -0.11159713641E+03 -0.19995589247E+02  0.30232375636E+03  0.32288294800E+03  0.00000000000E+00 0. -1.
<mgrwt>
<rscale>  2 0.11337436E+03</rscale>
<asrwt>0</asrwt>
<pdfrwt beam="1">  1       21 0.20092091E+00 0.11337436E+03</pdfrwt>
<pdfrwt beam="2">  1        3 0.20791451E-02 0.11337436E+03</pdfrwt>
<totfact> 0.58985549E+03</totfact>
</mgrwt>
</event>
<event>
 4    1  0.5134057E+003  0.1061605E+03  0.7546771E-02  0.1267850E+00
          2   -1    0    0  503    0 -0.00000000000E+00  0.00000000000E+00  0.35896933376E+04  0.35896933376E+04  0.00000000000E+00 0. -1.
         21   -1    0    0  501  502  0.00000000000E+00 -0.00000000000E+00 -0.67063161539E+01  0.67063161539E+01  0.00000000000E+00 0. -1.
         21    1    1    2  503  502  0.82825391108E+02 -0.66407886302E+02  0.48010090215E+03  0.49169800592E+03  0.00000000000E+00 0. -1.
          2    1    1    2  501    0 -0.82825391108E+02  0.66407886302E+02  0.31028861193E+04  0.31047016479E+04  0.00000000000E+00 0. -1.
<mgrwt>
<rscale>  2 0.10616050E+03</rscale>
<asrwt>0</asrwt>
<pdfrwt beam="2">  1       21 0.10317438E-02 0.10616050E+03</pdfrwt>
<pdfrwt beam="1">  1        2 0.55225898E+00 0.10616050E+03</pdfrwt>
<totfact> 0.43812448E+04</totfact>
</mgrwt>
</event>
<event>
 4    1  0.5134057E+003  0.1821329E+03  0.7546771E-02  0.1165755E+00
         21   -1    0    0  501  502  0.00000000000E+00  0.00000000000E+00  0.28004068081E+02  0.28004068081E+02  0.00000000000E+00 0.  1.
          1   -1    0    0  503    0 -0.00000000000E+00 -0.00000000000E+00 -0.18394236840E+04  0.18394236840E+04  0.00000000000E+00 0. -1.
         21    1    1    2  503  502 -0.11513697718E+03  0.14112359547E+03 -0.34858866991E+03  0.39330198767E+03  0.00000000000E+00 0.  1.
          1    1    1    2  501    0  0.11513697718E+03 -0.14112359547E+03 -0.14628309460E+04  0.14741257644E+04  0.00000000000E+00 0. -1.
<mgrwt>
<rscale>  2 0.18213290E+03</rscale>
<asrwt>0</asrwt>
<pdfrwt beam="1">  1       21 0.43083175E-02 0.18213290E+03</pdfrwt>
<pdfrwt beam="2">  1        1 0.28298830E+00 0.18213290E+03</pdfrwt>
<totfact> 0.16999559E+04</totfact>
</mgrwt>
</event>
<event>
 4    1  0.5134057E+003  0.1161751E+03  0.7546771E-02  0.1249544E+00
          1   -1    0    0  503    0 -0.00000000000E+00  0.00000000000E+00  0.61107204259E+03  0.61107204259E+03  0.00000000000E+00 0.  1.
         21   -1    0    0  501  502  0.00000000000E+00 -0.00000000000E+00 -0.25423227037E+02  0.25423227037E+02  0.00000000000E+00 0. -1.
         21    1    1    2  503  502 -0.11195739032E+02 -0.11563433223E+03  0.17753515816E+03  0.21216827223E+03  0.00000000000E+00 0. -1.
          1    1    1    2  501    0  0.11195739032E+02  0.11563433223E+03  0.40811365740E+03  0.42432699740E+03  0.00000000000E+00 0.  1.
<mgrwt>
<rscale>  2 0.11617505E+03</rscale>
<asrwt>0</asrwt>
<pdfrwt beam="2">  1       21 0.39112662E-02 0.11617505E+03</pdfrwt>
<pdfrwt beam="1">  1        1 0.94011072E-01 0.11617505E+03</pdfrwt>
<totfact> 0.15261983E+05</totfact>
</mgrwt>
</event>
<event>
 4    1  0.5134057E+003  0.1085408E+03  0.7546771E-02  0.1263296E+00
         21   -1    0    0  501  502  0.00000000000E+00  0.00000000000E+00  0.70987062697E+01  0.70987062697E+01  0.00000000000E+00 0.  1.
          2   -1    0    0  503    0 -0.00000000000E+00 -0.00000000000E+00 -0.16956492850E+04  0.16956492850E+04  0.00000000000E+00 0.  1.
         21    1    1    2  503  502  0.10387495149E+03  0.31481639271E+02 -0.72015936470E+03  0.72829294224E+03  0.00000000000E+00 0.  1.
          2    1    1    2  501    0 -0.10387495149E+03 -0.31481639271E+02 -0.96839121407E+03  0.97445504906E+03  0.00000000000E+00 0.  1.
<mgrwt>
<rscale>  2 0.10854077E+03</rscale>
<asrwt>0</asrwt>
<pdfrwt beam="1">  1       21 0.10921090E-02 0.10854077E+03</pdfrwt>
<pdfrwt beam="2">  1        2 0.26086904E+00 0.10854077E+03</pdfrwt>
<totfact> 0.44643006E+05</totfact>
</mgrwt>
</event>
<event>
 4    1  0.5134057E+003  0.1003311E+03  0.7546771E-02  0.1279601E+00
         21   -1    0    0  503  502  0.00000000000E+00  0.00000000000E+00  0.92914023657E+02  0.92914023657E+02  0.00000000000E+00 0.  1.
          2   -1    0    0  502    0 -0.00000000000E+00 -0.00000000000E+00 -0.12956165810E+03  0.12956165810E+03  0.00000000000E+00 0. -1.
         21    1    1    2  503  501  0.88455399526E+02  0.47349457848E+02  0.26695755221E+02  0.10382192548E+03  0.00000000000E+00 0.  1.
          2    1    1    2  501    0 -0.88455399526E+02 -0.47349457848E+02 -0.63343389661E+02  0.11865375627E+03  0.00000000000E+00 0. -1.
<mgrwt>
<rscale>  2 0.10033110E+03</rscale>
<asrwt>0</asrwt>
<pdfrwt beam="1">  1       21 0.14294465E-01 0.10033110E+03</pdfrwt>
<pdfrwt beam="2">  1        2 0.19932563E-01 0.10033110E+03</pdfrwt>
<totfact> 0.14202687E+05</totfact>
</mgrwt>
</event>
<event>
 4    1  0.5134057E+003  0.1218212E+03  0.7546771E-02  0.1240122E+00
         21   -1    0    0  503  502  0.00000000000E+00  0.00000000000E+00  0.37646629196E+03  0.37646629196E+03  0.00000000000E+00 0.  1.
         -1   -1    0    0    0  501 -0.00000000000E+00 -0.00000000000E+00 -0.15255211602E+03  0.15255211602E+03  0.00000000000E+00 0. -1.
         21    1    1    2  503  501  0.12181705037E+03  0.10109403419E+01  0.33974152151E+03  0.36092203757E+03  0.00000000000E+00 0.  1.
         -1    1    1    2    0  502 -0.12181705037E+03 -0.10109403419E+01 -0.11582734557E+03  0.16809637041E+03  0.00000000000E+00 0. -1.
<mgrwt>
<rscale>  2 0.12182125E+03</rscale>
<asrwt>0</asrwt>
<pdfrwt beam="1">  1       21 0.57917891E-01 0.12182125E+03</pdfrwt>
<pdfrwt beam="2">  1       -1 0.23469556E-01 0.12182125E+03</pdfrwt>
<totfact> 0.40046542E+03</totfact>
</mgrwt>
</event>
<event>
 4    1  0.5134057E+003  0.1034247E+03  0.7546771E-02  0.1273255E+00
          1   -1    0    0  502    0 -0.00000000000E+00  0.00000000000E+00  0.33007483199E+02  0.33007483199E+02  0.00000000000E+00 0. -1.
         21   -1    0    0  503  502  0.00000000000E+00 -0.00000000000E+00 -0.10298049889E+04  0.10298049889E+04  0.00000000000E+00 0. -1.
         21    1    1    2  503  501  0.55169256173E+02  0.87481493947E+02 -0.93831569548E+03  0.94399841260E+03  0.00000000000E+00 0. -1.
          1    1    1    2  501    0 -0.55169256173E+02 -0.87481493947E+02 -0.58481810239E+02  0.11881405952E+03  0.00000000000E+00 0. -1.
<mgrwt>
<rscale>  2 0.10342465E+03</rscale>
<asrwt>0</asrwt>
<pdfrwt beam="2">  1       21 0.15843153E+00 0.10342465E+03</pdfrwt>
<pdfrwt beam="1">  1        1 0.50780745E-02 0.10342465E+03</pdfrwt>
<totfact> 0.45968637E+03</totfact>
</mgrwt>
</event>
<event>
 4    1  0.5134057E+003  0.1768288E+03  0.7546771E-02  0.1170908E+00
          2   -1    0    0  502    0 -0.00000000000E+00  0.00000000000E+00  0.64920560197E+03  0.64920560197E+03  0.00000000000E+00 0.  1.
         21   -1    0    0  503  502  0.00000000000E+00 -0.00000000000E+00 -0.51303965476E+02  0.51303965476E+02  0.00000000000E+00 0. -1.
         21    1    1    2  503  501  0.64826800561E+01  0.17670995496E+03  0.21230233686E+03  0.27629823662E+03  0.00000000000E+00 0. -1.
          2    1    1    2  501    0 -0.64826800561E+01 -0.17670995496E+03  0.38559929964E+03  0.42421133083E+03  0.00000000000E+00 0.  1.
<mgrwt>
<rscale>  2 0.17682882E+03</rscale>
<asrwt>0</asrwt>
<pdfrwt beam="2">  1       21 0.78929182E-02 0.17682882E+03</pdfrwt>
<pdfrwt beam="1">  1        2 0.99877779E-01 0.17682882E+03</pdfrwt>
<totfact> 0.71081939E+04</totfact>
</mgrwt>
</event>
<event>
 4    1  0.5134057E+003  0.1708981E+03  0.7546771E-02  0.1176915E+00
          2   -1    0    0  503    0 -0.00000000000E+00  0.00000000000E+00  0.11228143726E+04  0.11228143726E+04  0.00000000000E+00 0. -1.
         21   -1    0    0  501  502  0.00000000000E+00 -0.00000000000E+00 -0.10833512953E+03  0.10833512953E+03  0.00000000000E+00 0. -1.
         21    1    1    2  503  502 -0.15806492249E+03 -0.64974035274E+02 -0.29369759834E+02  0.17340336725E+03  0.00000000000E+00 0. -1.
          2    1    1    2  501    0  0.15806492249E+03  0.64974035274E+02  0.10438490029E+04  0.10577461349E+04  0.00000000000E+00 0. -1.
<mgrwt>
<rscale>  2 0.17089805E+03</rscale>
<asrwt>0</asrwt>
<pdfrwt beam="2">  1       21 0.16666944E-01 0.17089805E+03</pdfrwt>
<pdfrwt beam="1">  1        2 0.17274067E+00 0.17089805E+03</pdfrwt>
<totfact> 0.92088958E+03</totfact>
</mgrwt>
</event>
<event>
 4    1  0.5134057E+003  0.1067007E+03  0.7546771E-02  0.1266805E+00
         21   -1    0    0  501  502  0.00000000000E+00  0.00000000000E+00  0.67037033077E+02  0.67037033077E+02  0.00000000000E+00 0. -1.
         -4   -1    0    0    0  501 -0.00000000000E+00 -0.00000000000E+00 -0.60484982090E+03  0.60484982090E+03  0.00000000000E+00 0. -1.
         21    1    1    2  503  502 -0.23548620055E+02 -0.10406966008E+03  0.15995874589E+02  0.10789300098E+03  0.00000000000E+00 0. -1.
         -4    1    1    2    0  503  0.23548620055E+02  0.10406966008E+03 -0.55380866241E+03  0.56399385299E+03  0.00000000000E+00 0. -1.
<mgrwt>
<rscale>  2 0.10670066E+03</rscale>
<asrwt>0</asrwt>
<pdfrwt beam="1">  1       21 0.10313390E-01 0.10670066E+03</pdfrwt>
<pdfrwt beam="2">  1       -4 0.93053818E-01 0.10670066E+03</pdfrwt>
<totfact> 0.31514332E+03</totfact>
</mgrwt>
</event>
<event>
 4    1  0.5134057E+003  0.2000738E+03  0.7546771E-02  0.1149677E+00
         21   -1    0    0  503  502  0.00000000000E+00  0.00000000000E+00  0.43978206160E+03  0.43978206160E+03  0.00000000000E+00 0.  1.
          2   -1    0    0  502    0 -0.00000000000E+00 -0.00000000000E+00 -0.48547054782E+03  0.48547054782E+03  0.00000000000E+00 0. -1.
         21    1    1    2  503  501 -0.18910875066E+03  0.65325280084E+02  0.39416384096E+03  0.44203466529E+03  0.00000000000E+00 0.  1.
          2    1    1    2  501    0  0.18910875066E+03 -0.65325280084E+02 -0.43985232719E+03  0.48321794413E+03  0.00000000000E+00 0. -1.
<mgrwt>
<rscale>  2 0.20007377E+03</rscale>
<asrwt>0</asrwt>
<pdfrwt beam="1">  1       21 0.67658779E-01 0.20007377E+03</pdfrwt>
<pdfrwt beam="2">  1        2 0.74687776E-01 0.20007377E+03</pdfrwt>
<totfact> 0.16026614E+03</totfact>
</mgrwt>
</event>
<event>
 4    1  0.5134057E+003  0.1125369E+03  0.7546771E-02  0.1255943E+00
          1   -1    0    0  503    0 -0.00000000000E+00  0.00000000000E+00  0.13792613317E+03  0.13792613317E+03  0.00000000000E+00 0. -1.
         21   -1    0    0  501  502  0.00000000000E+00 -0.00000000000E+00 -0.14733881654E+03  0.14733881654E+03  0.00000000000E+00 0. -1.
         21    1    1    2  503  502  0.87573255696E+02 -0.70678678965E+02 -0.92260145094E+02  0.14552142504E+03  0.00000000000E+00 0. -1.
          1    1    1    2  501    0 -0.87573255696E+02  0.70678678965E+02  0.82847461723E+02  0.13974352467E+03  0.00000000000E+00 0. -1.
<mgrwt>
<rscale>  2 0.11253689E+03</rscale>
<asrwt>0</asrwt>
<pdfrwt beam="2">  1       21 0.22667510E-01 0.11253689E+03</pdfrwt>
<pdfrwt beam="1">  1        1 0.21219405E-01 0.11253689E+03</pdfrwt>
<totfact> 0.46120254E+04</totfact>
</mgrwt>
</event>
<event>
 4    1  0.5134057E+003  0.1073964E+03  0.7546771E-02  0.1265469E+00
         21   -1    0    0  501  502  0.00000000000E+00  0.00000000000E+00  0.10816476325E+02  0.10816476325E+02  0.00000000000E+00 0. -1.
          2   -1    0    0  503    0 -0.00000000000E+00 -0.00000000000E+00 -0.11753931670E+04  0.11753931670E+04  0.00000000000E+00 0. -1.
         21    1    1    2  503  502 -0.66496032260E+02 -0.84334277943E+02 -0.40162586617E+03  0.41573709134E+03  0.00000000000E+00 0. -1.
          2    1    1    2  501    0  0.66496032260E+02  0.84334277943E+02 -0.76295082449E+03  0.77047255197E+03  0.00000000000E+00 0. -1.
<mgrwt>
<rscale>  2 0.10739643E+03</rscale>
<asrwt>0</asrwt>
<pdfrwt beam="1">  1       21 0.16640739E-02 0.10739643E+03</pdfrwt>
<pdfrwt beam="2">  1        2 0.18082966E+00 0.10739643E+03</pdfrwt>
<totfact> 0.42836334E+05</totfact>
</mgrwt>
</event>
<event>
 4    1  0.5134057E+003  0.1148511E+03  0.7546771E-02  0.1251841E+00
         21   -1    0    0  501  502  0.00000000000E+00  0.00000000000E+00  0.16508537508E+02  0.16508537508E+02  0.00000000000E+00 0. -1.
          4   -1    0    0  503    0 -0.00000000000E+00 -0.00000000000E+00 -0.10419607061E+04  0.10419607061E+04  0.00000000000E+00 0. -1.
         21    1    1    2  503  502 -0.95814922750E+02  0.63326741036E+02 -0.25718189375E+03  0.28166168008E+03  0.00000000000E+00 0. -1.
          4    1    1    2  501    0  0.95814922750E+02 -0.63326741036E+02 -0.76827027484E+03  0.77680756353E+03  0.00000000000E+00 0. -1.
<mgrwt>
<rscale>  2 0.11485110E+03</rscale>
<asrwt>0</asrwt>
<pdfrwt beam="1">  1       21 0.25397755E-02 0.11485110E+03</pdfrwt>
<pdfrwt beam="2">  1        4 0.16030162E+00 0.11485110E+03</pdfrwt>
<totfact> 0.89890327E+03</totfact>
</mgrwt>
</event>
<event>
 4    1  0.5134057E+003  0.1829764E+03  0.7546771E-02  0.1164953E+00
         21   -1    0    0  501  502  0.00000000000E+00  0.00000000000E+00  0.53927904814E+03  0.53927904814E+03  0.00000000000E+00 0. -1.
          1   -1    0    0  503    0 -0.00000000000E+00 -0.00000000000E+00 -0.16222186938E+03  0.16222186938E+03  0.00000000000E+00 0.  1.
         21    1    1    2  503  502 -0.96931599270E+02 -0.15519228311E+03  0.46410599542E+03  0.49887348562E+03  0.00000000000E+00 0. -1.
          1    1    1    2  501    0  0.96931599270E+02  0.15519228311E+03 -0.87048816663E+02  0.20262743190E+03  0.00000000000E+00 0.  1.
<mgrwt>
<rscale>  2 0.18297645E+03</rscale>
<asrwt>0</asrwt>
<pdfrwt beam="1">  1       21 0.82966006E-01 0.18297645E+03</pdfrwt>
<pdfrwt beam="2">  1        1 0.24957211E-01 0.18297645E+03</pdfrwt>
<totfact> 0.26325429E+03</totfact>
</mgrwt>
</event>
<event>
 4    1  0.5134057E+003  0.1301143E+03  0.7546771E-02  0.1227286E+00
          1   -1    0    0  503    0 -0.00000000000E+00  0.00000000000E+00  0.31088004974E+03  0.31088004974E+03  0.00000000000E+00 0.  1.
         21   -1    0    0  501  502  0.00000000000E+00 -0.00000000000E+00 -0.58618088623E+02  0.58618088623E+02  0.00000000000E+00 0. -1.
         21    1    1    2  503  502 -0.12538758824E+03  0.34751664500E+02  0.76910257333E+02  0.15114533785E+03  0.00000000000E+00 0. -1.
          1    1    1    2  501    0  0.12538758824E+03 -0.34751664500E+02  0.17535170379E+03  0.21835280051E+03  0.00000000000E+00 0.  1.
<mgrwt>
<rscale>  2 0.13011428E+03</rscale>
<asrwt>0</asrwt>
<pdfrwt beam="2">  1       21 0.90181677E-02 0.13011428E+03</pdfrwt>
<pdfrwt beam="1">  1        1 0.47827699E-01 0.13011428E+03</pdfrwt>
<totfact> 0.88380371E+04</totfact>
</mgrwt>
</event>
<event>
 4    1  0.5134057E+003  0.1183832E+03  0.7546771E-02  0.1245788E+00
          1   -1    0    0  503    0 -0.00000000000E+00  0.00000000000E+00  0.33167352529E+03  0.33167352529E+03  0.00000000000E+00 0. -1.
         21   -1    0    0  501  502  0.00000000000E+00 -0.00000000000E+00 -0.11474502452E+03  0.11474502452E+03  0.00000000000E+00 0. -1.
         21    1    1    2  503  502 -0.25951824205E+02 -0.11550356789E+03 -0.68949419112E+02  0.13699851741E+03  0.00000000000E+00 0. -1.
          1    1    1    2  501    0  0.25951824205E+02  0.11550356789E+03  0.28587791988E+03  0.30942003240E+03  0.00000000000E+00 0. -1.
<mgrwt>
<rscale>  2 0.11838315E+03</rscale>
<asrwt>0</asrwt>
<pdfrwt beam="2">  1       21 0.17653081E-01 0.11838315E+03</pdfrwt>
<pdfrwt beam="1">  1        1 0.51026696E-01 0.11838315E+03</pdfrwt>
<totfact> 0.24677983E+04</totfact>
</mgrwt>
</event>
<event>
 4    1  0.5134057E+003  0.1010758E+03  0.7546771E-02  0.1278050E+00
         -4   -1    0    0    0  501 -0.00000000000E+00  0.00000000000E+00  0.32360444418E+03  0.32360444418E+03  0.00000000000E+00 0. -1.
         21   -1    0    0  503  502  0.00000000000E+00 -0.00000000000E+00 -0.41631730864E+02  0.41631730864E+02  0.00000000000E+00 0.  1.
         21    1    1    2  503  501  0.14322192270E+02  0.10005596265E+03  0.51210546803E+02  0.11330860937E+03  0.00000000000E+00 0.  1.
         -4    1    1    2    0  502 -0.14322192270E+02 -0.10005596265E+03  0.23076216652E+03  0.25192756568E+03  0.00000000000E+00 0. -1.
<mgrwt>
<rscale>  2 0.10107582E+03</rscale>
<asrwt>0</asrwt>
<pdfrwt beam="2">  1       21 0.64048819E-02 0.10107582E+03</pdfrwt>
<pdfrwt beam="1">  1       -4 0.49785298E-01 0.10107582E+03</pdfrwt>
<totfact> 0.27013089E+04</totfact>
</mgrwt>
</event>
<event>
 4    1  0.5134057E+003  0.1153430E+03  0.7546771E-02  0.1250984E+00
         -1   -1    0    0    0  501 -0.00000000000E+00  0.00000000000E+00  0.18180674622E+03  0.18180674622E+03  0.00000000000E+00 0. -1.
         21   -1    0    0  503  502  0.00000000000E+00 -0.00000000000E+00 -0.12968568061E+03  0.12968568061E+03  0.00000000000E+00 0. -1.
         21    1    1    2  503  501 -0.11170113935E+03  0.28755179701E+02 -0.76748314910E+02  0.13854352649E+03  0.00000000000E+00 0. -1.
         -1    1    1    2    0  502  0.11170113935E+03 -0.28755179701E+02  0.12886938052E+03  0.17294890034E+03  0.00000000000E+00 0. -1.
<mgrwt>
<rscale>  2 0.11534299E+03</rscale>
<asrwt>0</asrwt>
<pdfrwt beam="2">  1       21 0.19951643E-01 0.11534299E+03</pdfrwt>
<pdfrwt beam="1">  1       -1 0.27970269E-01 0.11534299E+03</pdfrwt>
<totfact> 0.24263575E+04</totfact>
</mgrwt>
</event>
<event>
 4    1  0.5134057E+003  0.1190706E+03  0.7546771E-02  0.1244638E+00
         -3   -1    0    0    0  501 -0.00000000000E+00  0.00000000000E+00  0.15355770506E+04  0.15355770506E+04  0.00000000000E+00 0. -1.
         21   -1    0    0  503  502  0.00000000000E+00 -0.00000000000E+00 -0.92649800378E+01  0.92649800378E+01  0.00000000000E+00 0. -1.
         21    1    1    2  503  501 -0.56136114717E+02 -0.10500732240E+03  0.71769140950E+03  0.72750172536E+03  0.00000000000E+00 0. -1.
         -3    1    1    2    0  502  0.56136114717E+02  0.10500732240E+03  0.80862066102E+03  0.81734030524E+03  0.00000000000E+00 0. -1.
<mgrwt>
<rscale>  2 0.11907057E+03</rscale>
<asrwt>0</asrwt>
<pdfrwt beam="2">  1       21 0.14253828E-02 0.11907057E+03</pdfrwt>
<pdfrwt beam="1">  1       -3 0.23624242E+00 0.11907057E+03</pdfrwt>
<totfact> 0.10181480E+04</totfact>
</mgrwt>
</event>
<event>
 4    1  0.5134057E+003  0.1159808E+03  0.7546771E-02  0.1249879E+00
         -2   -1    0    0    0  501 -0.00000000000E+00  0.00000000000E+00  0.27388375949E+03  0.27388375949E+03  0.00000000000E+00 0. -1.
         21   -1    0    0  501  502  0.00000000000E+00 -0.00000000000E+00 -0.49864892649E+03  0.49864892649E+03  0.00000000000E+00 0.  1.
         21    1    1    2  503  502 -0.21238853918E+02  0.11401959582E+03 -0.47913340079E+03  0.49297096558E+03  0.00000000000E+00 0.  1.
         -2    1    1    2    0  503  0.21238853918E+02 -0.11401959582E+03  0.25436823380E+03  0.27956172040E+03  0.00000000000E+00 0. -1.
<mgrwt>
<rscale>  2 0.11598085E+03</rscale>
<asrwt>0</asrwt>
<pdfrwt beam="2">  1       21 0.76715218E-01 0.11598085E+03</pdfrwt>
<pdfrwt beam="1">  1       -2 0.42135964E-01 0.11598085E+03</pdfrwt>
<totfact> 0.68382890E+02</totfact>
</mgrwt>
</event>
<event>
 4    1  0.5134057E+003  0.1142587E+03  0.7546771E-02  0.1252881E+00
         -1   -1    0    0    0  501 -0.00000000000E+00  0.00000000000E+00  0.26771257287E+03  0.26771257287E+03  0.00000000000E+00 0. -1.
         21   -1    0    0  503  502  0.00000000000E+00 -0.00000000000E+00 -0.11633244352E+03  0.11633244352E+03  0.00000000000E+00 0.  1.
         21    1    1    2  503  501 -0.55204552797E+02 -0.10003756555E+03 -0.70652214204E+02  0.13433835098E+03  0.00000000000E+00 0.  1.
         -1    1    1    2    0  502  0.55204552797E+02  0.10003756555E+03  0.22203234355E+03  0.24970666542E+03  0.00000000000E+00 0. -1.
<mgrwt>
<rscale>  2 0.11425873E+03</rscale>
<asrwt>0</asrwt>
<pdfrwt beam="2">  1       21 0.17897299E-01 0.11425873E+03</pdfrwt>
<pdfrwt beam="1">  1       -1 0.41186550E-01 0.11425873E+03</pdfrwt>
<totfact> 0.15321423E+04</totfact>
</mgrwt>
</event>
<event>
 4    1  0.5134057E+003  0.1115380E+03  0.7546771E-02  0.1257748E+00
          2   -1    0    0  503    0 -0.00000000000E+00  0.00000000000E+00  0.11977723032E+03  0.11977723032E+03  0.00000000000E+00 0. -1.
         21   -1    0    0  501  502  0.00000000000E+00 -0.00000000000E+00 -0.14168903031E+03  0.14168903031E+03  0.00000000000E+00 0.  1.
         21    1    1    2  503  502 -0.22586767369E+02  0.10922716365E+03 -0.78501635289E+02  0.13639370250E+03  0.00000000000E+00 0.  1.
          2    1    1    2  501    0  0.22586767369E+02 -0.10922716365E+03  0.56589835295E+02  0.12507255813E+03  0.00000000000E+00 0. -1.
<mgrwt>
<rscale>  2 0.11153804E+03</rscale>
<asrwt>0</asrwt>
<pdfrwt beam="2">  1       21 0.21798313E-01 0.11153804E+03</pdfrwt>
<pdfrwt beam="1">  1        2 0.18427266E-01 0.11153804E+03</pdfrwt>
<totfact> 0.72361886E+04</totfact>
</mgrwt>
</event>
<event>
 4    1  0.5134057E+003  0.1003412E+03  0.7546771E-02  0.1279580E+00
         -1   -1    0    0    0  501 -0.00000000000E+00  0.00000000000E+00  0.60089941988E+03  0.60089941988E+03  0.00000000000E+00 0.  1.
         21   -1    0    0  503  502  0.00000000000E+00 -0.00000000000E+00 -0.19236845542E+02  0.19236845542E+02  0.00000000000E+00 0. -1.
         21    1    1    2  503  501  0.94245494896E+02  0.34440319466E+02  0.17946931010E+03  0.20561513120E+03  0.00000000000E+00 0. -1.
         -1    1    1    2    0  502 -0.94245494896E+02 -0.34440319466E+02  0.40219326424E+03  0.41452113422E+03  0.00000000000E+00 0.  1.
<mgrwt>
<rscale>  2 0.10034116E+03</rscale>
<asrwt>0</asrwt>
<pdfrwt beam="2">  1       21 0.29595152E-02 0.10034116E+03</pdfrwt>
<pdfrwt beam="1">  1       -1 0.92446050E-01 0.10034116E+03</pdfrwt>
<totfact> 0.70912524E+04</totfact>
</mgrwt>
</event>
<event>
 4    1  0.5134057E+003  0.1172276E+03  0.7546771E-02  0.1247742E+00
          2   -1    0    0  503    0 -0.00000000000E+00  0.00000000000E+00  0.48108409799E+03  0.48108409799E+03  0.00000000000E+00 0.  1.
         21   -1    0    0  501  502  0.00000000000E+00 -0.00000000000E+00 -0.10750401066E+04  0.10750401066E+04  0.00000000000E+00 0. -1.
         21    1    1    2  503  502  0.85309303377E+02  0.80402997783E+02 -0.10646334131E+04  0.10710679827E+04  0.00000000000E+00 0. -1.
          2    1    1    2  501    0 -0.85309303377E+02 -0.80402997783E+02  0.47067740448E+03  0.48505622188E+03  0.00000000000E+00 0.  1.
<mgrwt>
<rscale>  2 0.11722764E+03</rscale>
<asrwt>0</asrwt>
<pdfrwt beam="2">  1       21 0.16539078E+00 0.11722764E+03</pdfrwt>
<pdfrwt beam="1">  1        2 0.74012939E-01 0.11722764E+03</pdfrwt>
<totfact> 0.20257764E+02</totfact>
</mgrwt>
</event>
<event>
 4    1  0.5134057E+003  0.1066005E+03  0.7546771E-02  0.1266998E+00
         21   -1    0    0  501  502  0.00000000000E+00  0.00000000000E+00  0.11225685016E+03  0.11225685016E+03  0.00000000000E+00 0.  1.
          1   -1    0    0  503    0 -0.00000000000E+00 -0.00000000000E+00 -0.35303903785E+03  0.35303903785E+03  0.00000000000E+00 0. -1.
         21    1    1    2  503  502  0.10471622139E+03 -0.19954314895E+02  0.76091585856E+02  0.13097171887E+03  0.00000000000E+00 0.  1.
          1    1    1    2  501    0 -0.10471622139E+03  0.19954314895E+02 -0.31687377355E+03  0.33432416913E+03  0.00000000000E+00 0. -1.
<mgrwt>
<rscale>  2 0.10660048E+03</rscale>
<asrwt>0</asrwt>
<pdfrwt beam="1">  1       21 0.17270284E-01 0.10660048E+03</pdfrwt>
<pdfrwt beam="2">  1        1 0.54313699E-01 0.10660048E+03</pdfrwt>
<totfact> 0.23777063E+04</totfact>
</mgrwt>
</event>
<event>
 4    1  0.5134057E+003  0.1045497E+03  0.7546771E-02  0.1271009E+00
         21   -1    0    0  503  502  0.00000000000E+00  0.00000000000E+00  0.76016122892E+02  0.76016122892E+02  0.00000000000E+00 0. -1.
          2   -1    0    0  502    0 -0.00000000000E+00 -0.00000000000E+00 -0.12413944723E+04  0.12413944723E+04  0.00000000000E+00 0. -1.
         21    1    1    2  503  501  0.91826621022E+02 -0.49985073563E+02  0.36692659948E+02  0.11080156678E+03  0.00000000000E+00 0. -1.
          2    1    1    2  501    0 -0.91826621022E+02  0.49985073563E+02 -0.12020710094E+04  0.12066090284E+04  0.00000000000E+00 0. -1.
<mgrwt>
<rscale>  2 0.10454968E+03</rscale>
<asrwt>0</asrwt>
<pdfrwt beam="1">  1       21 0.11694788E-01 0.10454968E+03</pdfrwt>
<pdfrwt beam="2">  1        2 0.19098376E+00 0.10454968E+03</pdfrwt>
<totfact> 0.15300566E+04</totfact>
</mgrwt>
</event>
<event>
 4    1  0.5134057E+003  0.1095199E+03  0.7546771E-02  0.1261462E+00
          1   -1    0    0  502    0 -0.00000000000E+00  0.00000000000E+00  0.22411369905E+04  0.22411369905E+04  0.00000000000E+00 0.  1.
         21   -1    0    0  503  502  0.00000000000E+00 -0.00000000000E+00 -0.15792463230E+02  0.15792463230E+02  0.00000000000E+00 0. -1.
         21    1    1    2  503  501 -0.86616135456E+02 -0.67024249166E+02  0.19513741754E+03  0.22377045521E+03  0.00000000000E+00 0. -1.
          1    1    1    2  501    0  0.86616135456E+02  0.67024249166E+02  0.20302071097E+04  0.20331589985E+04  0.00000000000E+00 0.  1.
<mgrwt>
<rscale>  2 0.10951988E+03</rscale>
<asrwt>0</asrwt>
<pdfrwt beam="2">  1       21 0.24296115E-02 0.10951988E+03</pdfrwt>
<pdfrwt beam="1">  1        1 0.34479006E+00 0.10951988E+03</pdfrwt>
<totfact> 0.24838904E+04</totfact>
</mgrwt>
</event>
<event>
 4    1  0.5134057E+003  0.1062466E+03  0.7546771E-02  0.1267683E+00
         21   -1    0    0  501  502  0.00000000000E+00  0.00000000000E+00  0.62351038696E+03  0.62351038696E+03  0.00000000000E+00 0.  1.
         -3   -1    0    0    0  501 -0.00000000000E+00 -0.00000000000E+00 -0.38289013167E+02  0.38289013167E+02  0.00000000000E+00 0.  1.
         21    1    1    2  503  502 -0.10602513247E+03  0.68569971435E+01  0.53286343778E+03  0.54335236306E+03  0.00000000000E+00 0.  1.
         -3    1    1    2    0  503  0.10602513247E+03 -0.68569971435E+01  0.52357936015E+02  0.11844703706E+03  0.00000000000E+00 0.  1.
<mgrwt>
<rscale>  2 0.10624663E+03</rscale>
<asrwt>0</asrwt>
<pdfrwt beam="1">  1       21 0.95924668E-01 0.10624663E+03</pdfrwt>
<pdfrwt beam="2">  1       -3 0.58906179E-02 0.10624663E+03</pdfrwt>
<totfact> 0.76799401E+03</totfact>
</mgrwt>
</event>
<event>
 4    1  0.5134057E+003  0.1013247E+03  0.7546771E-02  0.1277535E+00
          2   -1    0    0  503    0 -0.00000000000E+00  0.00000000000E+00  0.19688633608E+04  0.19688633608E+04  0.00000000000E+00 0. -1.
         21   -1    0    0  501  502  0.00000000000E+00 -0.00000000000E+00 -0.17818294959E+02  0.17818294959E+02  0.00000000000E+00 0. -1.
         21    1    1    2  503  502 -0.10069733683E+03  0.11258039255E+02  0.14008234697E+03  0.17288655536E+03  0.00000000000E+00 0. -1.
          2    1    1    2  501    0  0.10069733683E+03 -0.11258039255E+02  0.18109627188E+04  0.18137951004E+04  0.00000000000E+00 0. -1.
<mgrwt>
<rscale>  2 0.10132471E+03</rscale>
<asrwt>0</asrwt>
<pdfrwt beam="2">  1       21 0.27412777E-02 0.10132471E+03</pdfrwt>
<pdfrwt beam="1">  1        2 0.30290188E+00 0.10132471E+03</pdfrwt>
<totfact> 0.74629207E+04</totfact>
</mgrwt>
</event>
<event>
 4    1  0.5134057E+003  0.1024088E+03  0.7546771E-02  0.1275311E+00
         21   -1    0    0  503  502  0.00000000000E+00  0.00000000000E+00  0.15175644572E+03  0.15175644572E+03  0.00000000000E+00 0. -1.
          2   -1    0    0  502    0 -0.00000000000E+00 -0.00000000000E+00 -0.79343085587E+03  0.79343085587E+03  0.00000000000E+00 0. -1.
         21    1    1    2  503  501  0.90887695972E+02 -0.47190970147E+02  0.13070617639E+03  0.16604717851E+03  0.00000000000E+00 0. -1.
          2    1    1    2  501    0 -0.90887695972E+02  0.47190970147E+02 -0.77238058654E+03  0.77914012309E+03  0.00000000000E+00 0. -1.
<mgrwt>
<rscale>  2 0.10240879E+03</rscale>
<asrwt>0</asrwt>
<pdfrwt beam="1">  1       21 0.23347146E-01 0.10240879E+03</pdfrwt>
<pdfrwt beam="2">  1        2 0.12206628E+00 0.10240879E+03</pdfrwt>
<totfact> 0.80765004E+03</totfact>
</mgrwt>
</event>
<event>
 4    1  0.5134057E+003  0.1095321E+03  0.7546771E-02  0.1261439E+00
         21   -1    0    0  501  502  0.00000000000E+00  0.00000000000E+00  0.77715999263E+02  0.77715999263E+02  0.00000000000E+00 0. -1.
          2   -1    0    0  503    0 -0.00000000000E+00 -0.00000000000E+00 -0.22481647337E+04  0.22481647337E+04  0.00000000000E+00 0. -1.
         21    1    1    2  503  502 -0.72965374479E+02  0.81690502357E+02  0.37078513382E+02  0.11563779747E+03  0.00000000000E+00 0. -1.
          2    1    1    2  501    0  0.72965374479E+02 -0.81690502357E+02 -0.22075272478E+04  0.22102429355E+04  0.00000000000E+00 0. -1.
<mgrwt>
<rscale>  2 0.10953211E+03</rscale>
<asrwt>0</asrwt>
<pdfrwt beam="1">  1       21 0.11956308E-01 0.10953211E+03</pdfrwt>
<pdfrwt beam="2">  1        2 0.34587149E+00 0.10953211E+03</pdfrwt>
<totfact> 0.44670940E+03</totfact>
</mgrwt>
</event>
<event>
 4    1  0.5134057E+003  0.1063269E+03  0.7546771E-02  0.1267527E+00
         21   -1    0    0  503  502  0.00000000000E+00  0.00000000000E+00  0.55826860348E+02  0.55826860348E+02  0.00000000000E+00 0.  1.
         -4   -1    0    0    0  501 -0.00000000000E+00 -0.00000000000E+00 -0.29686018999E+03  0.29686018999E+03  0.00000000000E+00 0.  1.
         21    1    1    2  503  501 -0.91588713063E+02  0.54008501671E+02 -0.21100155856E+02  0.10840030992E+03  0.00000000000E+00 0.  1.
         -4    1    1    2    0  502  0.91588713063E+02 -0.54008501671E+02 -0.21993317378E+03  0.24428674042E+03  0.00000000000E+00 0.  1.
<mgrwt>
<rscale>  2 0.10632690E+03</rscale>
<asrwt>0</asrwt>
<pdfrwt beam="1">  1       21 0.85887478E-02 0.10632690E+03</pdfrwt>
<pdfrwt beam="2">  1       -4 0.45670798E-01 0.10632690E+03</pdfrwt>
<totfact> 0.19595059E+04</totfact>
</mgrwt>
</event>
<event>
 4    1  0.5134057E+003  0.1039051E+03  0.7546771E-02  0.1272292E+00
          1   -1    0    0  503    0 -0.00000000000E+00  0.00000000000E+00  0.70073999230E+03  0.70073999230E+03  0.00000000000E+00 0.  1.
         21   -1    0    0  501  502  0.00000000000E+00 -0.00000000000E+00 -0.15783900959E+02  0.15783900959E+02  0.00000000000E+00 0.  1.
         21    1    1    2  503  502  0.99702362905E+02 -0.29252421831E+02  0.28711289490E+03  0.30533601126E+03  0.00000000000E+00 0.  1.
          1    1    1    2  501    0 -0.99702362905E+02  0.29252421831E+02  0.39784319643E+03  0.41118788200E+03  0.00000000000E+00 0.  1.
<mgrwt>
<rscale>  2 0.10390508E+03</rscale>
<asrwt>0</asrwt>
<pdfrwt beam="2">  1       21 0.24282930E-02 0.10390508E+03</pdfrwt>
<pdfrwt beam="1">  1        1 0.10780613E+00 0.10390508E+03</pdfrwt>
<totfact> 0.27391625E+05</totfact>
</mgrwt>
</event>
<event>
 4    1  0.5134057E+003  0.1127017E+03  0.7546771E-02  0.1255647E+00
          2   -1    0    0  503    0 -0.00000000000E+00  0.00000000000E+00  0.76654738205E+03  0.76654738205E+03  0.00000000000E+00 0.  1.
         21   -1    0    0  501  502  0.00000000000E+00 -0.00000000000E+00 -0.27294858113E+02  0.27294858113E+02  0.00000000000E+00 0.  1.
         21    1    1    2  503  502  0.55660660861E+02 -0.97997754934E+02  0.12082068001E+03  0.16522501584E+03  0.00000000000E+00 0.  1.
          2    1    1    2  501    0 -0.55660660861E+02  0.97997754934E+02  0.61843184393E+03  0.62861722433E+03  0.00000000000E+00 0.  1.
<mgrwt>
<rscale>  2 0.11270168E+03</rscale>
<asrwt>0</asrwt>
<pdfrwt beam="2">  1       21 0.41992095E-02 0.11270168E+03</pdfrwt>
<pdfrwt beam="1">  1        2 0.11793035E+00 0.11270168E+03</pdfrwt>
<totfact> 0.16866926E+05</totfact>
</mgrwt>
</event>
<event>
 4    1  0.5134057E+003  0.1804811E+03  0.7546771E-02  0.1167338E+00
         21   -1    0    0  501  502  0.00000000000E+00  0.00000000000E+00  0.56685561586E+02  0.56685561586E+02  0.00000000000E+00 0. -1.
          2   -1    0    0  503    0 -0.00000000000E+00 -0.00000000000E+00 -0.68923079405E+03  0.68923079405E+03  0.00000000000E+00 0. -1.
         21    1    1    2  503  502 -0.20033782614E+02  0.17936578942E+03 -0.16419530078E+03  0.24399495007E+03  0.00000000000E+00 0. -1.
          2    1    1    2  501    0  0.20033782614E+02 -0.17936578942E+03 -0.46834993168E+03  0.50192140557E+03  0.00000000000E+00 0. -1.
<mgrwt>
<rscale>  2 0.18048113E+03</rscale>
<asrwt>0</asrwt>
<pdfrwt beam="1">  1       21 0.87208557E-02 0.18048113E+03</pdfrwt>
<pdfrwt beam="2">  1        2 0.10603551E+00 0.18048113E+03</pdfrwt>
<totfact> 0.55656212E+04</totfact>
</mgrwt>
</event>
<event>
 4    1  0.5134057E+003  0.1030699E+03  0.7546771E-02  0.1273970E+00
         21   -1    0    0  503  502  0.00000000000E+00  0.00000000000E+00  0.31877981276E+02  0.31877981276E+02  0.00000000000E+00 0.  1.
          2   -1    0    0  502    0 -0.00000000000E+00 -0.00000000000E+00 -0.57481641463E+03  0.57481641463E+03  0.00000000000E+00 0.  1.
         21    1    1    2  503  501 -0.93956902590E+02  0.42373450358E+02 -0.74820251561E+02  0.12736356969E+03  0.00000000000E+00 0.  1.
          2    1    1    2  501    0  0.93956902590E+02 -0.42373450358E+02 -0.46811818179E+03  0.47933082622E+03  0.00000000000E+00 0.  1.
<mgrwt>
<rscale>  2 0.10306992E+03</rscale>
<asrwt>0</asrwt>
<pdfrwt beam="1">  1       21 0.49043051E-02 0.10306992E+03</pdfrwt>
<pdfrwt beam="2">  1        2 0.88433290E-01 0.10306992E+03</pdfrwt>
<totfact> 0.18124008E+05</totfact>
</mgrwt>
</event>
<event>
 4    1  0.5134057E+003  0.1308322E+03  0.7546771E-02  0.1226226E+00
         21   -1    0    0  501  502  0.00000000000E+00  0.00000000000E+00  0.44650579084E+03  0.44650579084E+03  0.00000000000E+00 0.  1.
          2   -1    0    0  503    0 -0.00000000000E+00 -0.00000000000E+00 -0.50426942331E+03  0.50426942331E+03  0.00000000000E+00 0. -1.
         21    1    1    2  503  502  0.12360498473E+03  0.42882221892E+02  0.42807866916E+03  0.44762531675E+03  0.00000000000E+00 0.  1.
          2    1    1    2  501    0 -0.12360498473E+03 -0.42882221892E+02 -0.48584230162E+03  0.50314989740E+03  0.00000000000E+00 0. -1.
<mgrwt>
<rscale>  2 0.13083225E+03</rscale>
<asrwt>0</asrwt>
<pdfrwt beam="1">  1       21 0.68693199E-01 0.13083225E+03</pdfrwt>
<pdfrwt beam="2">  1        2 0.77579911E-01 0.13083225E+03</pdfrwt>
<totfact> 0.15438159E+03</totfact>
</mgrwt>
</event>
<event>
 4    1  0.5134057E+003  0.1299676E+03  0.7546771E-02  0.1227504E+00
          2   -1    0    0  503    0 -0.00000000000E+00  0.00000000000E+00  0.15862327063E+03  0.15862327063E+03  0.00000000000E+00 0.  1.
         21   -1    0    0  501  502  0.00000000000E+00 -0.00000000000E+00 -0.28673088593E+03  0.28673088593E+03  0.00000000000E+00 0.  1.
         21    1    1    2  503  502  0.30100230803E+02 -0.12643403633E+03 -0.24060329951E+03  0.27346213115E+03  0.00000000000E+00 0.  1.
          2    1    1    2  501    0 -0.30100230803E+02  0.12643403633E+03  0.11249568420E+03  0.17189202542E+03  0.00000000000E+00 0.  1.
<mgrwt>
<rscale>  2 0.12996765E+03</rscale>
<asrwt>0</asrwt>
<pdfrwt beam="2">  1       21 0.44112443E-01 0.12996765E+03</pdfrwt>
<pdfrwt beam="1">  1        2 0.24403580E-01 0.12996765E+03</pdfrwt>
<totfact> 0.13517851E+04</totfact>
</mgrwt>
</event>
<event>
 4    1  0.5134057E+003  0.1351325E+03  0.7546771E-02  0.1220033E+00
          2   -1    0    0  503    0 -0.00000000000E+00  0.00000000000E+00  0.13928415364E+03  0.13928415364E+03  0.00000000000E+00 0.  1.
         21   -1    0    0  501  502  0.00000000000E+00 -0.00000000000E+00 -0.64561337945E+03  0.64561337945E+03  0.00000000000E+00 0.  1.
         21    1    1    2  503  502 -0.95761336774E+02 -0.95344482401E+02 -0.60350731076E+03  0.61845119297E+03  0.00000000000E+00 0.  1.
          2    1    1    2  501    0  0.95761336774E+02  0.95344482401E+02  0.97178084944E+02  0.16644634012E+03  0.00000000000E+00 0.  1.
<mgrwt>
<rscale>  2 0.13513254E+03</rscale>
<asrwt>0</asrwt>
<pdfrwt beam="2">  1       21 0.99325136E-01 0.13513254E+03</pdfrwt>
<pdfrwt beam="1">  1        2 0.21428331E-01 0.13513254E+03</pdfrwt>
<totfact> 0.26852053E+03</totfact>
</mgrwt>
</event>
<event>
 4    1  0.5134057E+003  0.1177125E+03  0.7546771E-02  0.1246919E+00
         -3   -1    0    0    0  501 -0.00000000000E+00  0.00000000000E+00  0.95872069732E+03  0.95872069732E+03  0.00000000000E+00 0.  1.
         21   -1    0    0  501  502  0.00000000000E+00 -0.00000000000E+00 -0.20147527148E+02  0.20147527148E+02  0.00000000000E+00 0. -1.
         21    1    1    2  503  502  0.10709416316E+03 -0.48857682732E+02  0.20907989972E+03  0.23993882015E+03  0.00000000000E+00 0. -1.
         -3    1    1    2    0  503 -0.10709416316E+03  0.48857682732E+02  0.72949327044E+03  0.73892940432E+03  0.00000000000E+00 0.  1.
<mgrwt>
<rscale>  2 0.11771250E+03</rscale>
<asrwt>0</asrwt>
<pdfrwt beam="2">  1       21 0.30996203E-02 0.11771250E+03</pdfrwt>
<pdfrwt beam="1">  1       -3 0.14749546E+00 0.11771250E+03</pdfrwt>
<totfact> 0.10303723E+04</totfact>
</mgrwt>
</event>
<event>
 4    1  0.5134057E+003  0.1790532E+03  0.7546771E-02  0.1168723E+00
         21   -1    0    0  503  502  0.00000000000E+00  0.00000000000E+00  0.18807905795E+02  0.18807905795E+02  0.00000000000E+00 0.  1.
          2   -1    0    0  502    0 -0.00000000000E+00 -0.00000000000E+00 -0.26414786851E+04  0.26414786851E+04  0.00000000000E+00 0. -1.
         21    1    1    2  503  501  0.17675221275E+03 -0.28613059283E+02 -0.51917089185E+03  0.54917981283E+03  0.00000000000E+00 0.  1.
          2    1    1    2  501    0 -0.17675221275E+03  0.28613059283E+02 -0.21034998874E+04  0.21111067780E+04  0.00000000000E+00 0. -1.
<mgrwt>
<rscale>  2 0.17905321E+03</rscale>
<asrwt>0</asrwt>
<pdfrwt beam="1">  1       21 0.28935234E-02 0.17905321E+03</pdfrwt>
<pdfrwt beam="2">  1        2 0.40638141E+00 0.17905321E+03</pdfrwt>
<totfact> 0.29633843E+04</totfact>
</mgrwt>
</event>
<event>
 4    1  0.5134057E+003  0.1443756E+03  0.7546771E-02  0.1207560E+00
          4   -1    0    0  502    0 -0.00000000000E+00  0.00000000000E+00  0.32244521952E+03  0.32244521952E+03  0.00000000000E+00 0.  1.
         21   -1    0    0  503  502  0.00000000000E+00 -0.00000000000E+00 -0.22618199897E+03  0.22618199897E+03  0.00000000000E+00 0.  1.
         21    1    1    2  503  501  0.72736944089E+02 -0.12471422251E+03 -0.18369060570E+03  0.23363762316E+03  0.00000000000E+00 0.  1.
          4    1    1    2  501    0 -0.72736944089E+02  0.12471422251E+03  0.27995382625E+03  0.31498959533E+03  0.00000000000E+00 0.  1.
<mgrwt>
<rscale>  2 0.14437555E+03</rscale>
<asrwt>0</asrwt>
<pdfrwt beam="2">  1       21 0.34797230E-01 0.14437555E+03</pdfrwt>
<pdfrwt beam="1">  1        4 0.49606957E-01 0.14437555E+03</pdfrwt>
<totfact> 0.13107993E+03</totfact>
</mgrwt>
</event>
<event>
 4    1  0.5134057E+003  0.1064264E+03  0.7546771E-02  0.1267335E+00
         21   -1    0    0  501  502  0.00000000000E+00  0.00000000000E+00  0.73670563918E+03  0.73670563918E+03  0.00000000000E+00 0.  1.
          2   -1    0    0  503    0 -0.00000000000E+00 -0.00000000000E+00 -0.15902052585E+02  0.15902052585E+02  0.00000000000E+00 0.  1.
         21    1    1    2  503  502  0.43941726353E+02  0.96931407467E+02  0.42893379408E+03  0.44193978410E+03  0.00000000000E+00 0.  1.
          2    1    1    2  501    0 -0.43941726353E+02 -0.96931407467E+02  0.29186979251E+03  0.31066790766E+03  0.00000000000E+00 0.  1.
<mgrwt>
<rscale>  2 0.10642637E+03</rscale>
<asrwt>0</asrwt>
<pdfrwt beam="1">  1       21 0.11333930E+00 0.10642637E+03</pdfrwt>
<pdfrwt beam="2">  1        2 0.24464702E-02 0.10642637E+03</pdfrwt>
<totfact> 0.29939241E+04</totfact>
</mgrwt>
</event>
<event>
 4    1  0.5134057E+003  0.1350265E+03  0.7546771E-02  0.1220182E+00
         21   -1    0    0  503  502  0.00000000000E+00  0.00000000000E+00  0.58209190838E+03  0.58209190838E+03  0.00000000000E+00 0.  1.
         -3   -1    0    0    0  501 -0.00000000000E+00 -0.00000000000E+00 -0.46808573856E+02  0.46808573856E+02  0.00000000000E+00 0.  1.
         21    1    1    2  503  501 -0.67226103450E+02  0.11710164904E+03  0.44851319837E+03  0.46839751740E+03  0.00000000000E+00 0.  1.
         -3    1    1    2    0  502  0.67226103450E+02 -0.11710164904E+03  0.86770136160E+02  0.16050296484E+03  0.00000000000E+00 0.  1.
<mgrwt>
<rscale>  2 0.13502646E+03</rscale>
<asrwt>0</asrwt>
<pdfrwt beam="1">  1       21 0.89552596E-01 0.13502646E+03</pdfrwt>
<pdfrwt beam="2">  1       -3 0.72013195E-02 0.13502646E+03</pdfrwt>
<totfact> 0.65755153E+03</totfact>
</mgrwt>
</event>
<event>
 4    1  0.5134057E+003  0.1123107E+03  0.7546771E-02  0.1256350E+00
          1   -1    0    0  503    0 -0.00000000000E+00  0.00000000000E+00  0.57362174836E+03  0.57362174836E+03  0.00000000000E+00 0.  1.
         21   -1    0    0  501  502  0.00000000000E+00 -0.00000000000E+00 -0.42414467157E+02  0.42414467157E+02  0.00000000000E+00 0.  1.
         21    1    1    2  503  502  0.10829819991E+02 -0.11178733174E+03  0.51857030108E+02  0.12370466487E+03  0.00000000000E+00 0.  1.
          1    1    1    2  501    0 -0.10829819991E+02  0.11178733174E+03  0.47935025109E+03  0.49233155064E+03  0.00000000000E+00 0.  1.
<mgrwt>
<rscale>  2 0.11231070E+03</rscale>
<asrwt>0</asrwt>
<pdfrwt beam="2">  1       21 0.65253030E-02 0.11231070E+03</pdfrwt>
<pdfrwt beam="1">  1        1 0.88249494E-01 0.11231070E+03</pdfrwt>
<totfact> 0.70426527E+04</totfact>
</mgrwt>
</event>
<event>
 4    1  0.5134057E+003  0.1544889E+03  0.7546771E-02  0.1195063E+00
         21   -1    0    0  501  502  0.00000000000E+00  0.00000000000E+00  0.26459171138E+02  0.26459171138E+02  0.00000000000E+00 0. -1.
          2   -1    0    0  503    0 -0.00000000000E+00 -0.00000000000E+00 -0.95386188865E+03  0.95386188865E+03  0.00000000000E+00 0.  1.
         21    1    1    2  503  502 -0.13740744908E+03  0.70611689117E+02 -0.34943520541E+03  0.38206253478E+03  0.00000000000E+00 0. -1.
          2    1    1    2  501    0  0.13740744908E+03 -0.70611689117E+02 -0.57796751210E+03  0.59825852501E+03  0.00000000000E+00 0.  1.
<mgrwt>
<rscale>  2 0.15448889E+03</rscale>
<asrwt>0</asrwt>
<pdfrwt beam="1">  1       21 0.40706420E-02 0.15448889E+03</pdfrwt>
<pdfrwt beam="2">  1        2 0.14674797E+00 0.15448889E+03</pdfrwt>
<totfact> 0.13537480E+05</totfact>
</mgrwt>
</event>
<event>
 4    1  0.5134057E+003  0.1104196E+03  0.7546771E-02  0.1259795E+00
         -4   -1    0    0    0  501 -0.00000000000E+00  0.00000000000E+00  0.35768503796E+03  0.35768503796E+03  0.00000000000E+00 0. -1.
         21   -1    0    0  501  502  0.00000000000E+00 -0.00000000000E+00 -0.37329491761E+02  0.37329491761E+02  0.00000000000E+00 0.  1.
         21    1    1    2  503  502 -0.89781947735E+02  0.64278261748E+02  0.10197001106E+03  0.15030095218E+03  0.00000000000E+00 0.  1.
         -4    1    1    2    0  503  0.89781947735E+02 -0.64278261748E+02  0.21838553515E+03  0.24471357754E+03  0.00000000000E+00 0. -1.
<mgrwt>
<rscale>  2 0.11041962E+03</rscale>
<asrwt>0</asrwt>
<pdfrwt beam="2">  1       21 0.57429990E-02 0.11041962E+03</pdfrwt>
<pdfrwt beam="1">  1       -4 0.55028465E-01 0.11041962E+03</pdfrwt>
<totfact> 0.26777657E+04</totfact>
</mgrwt>
</event>
<event>
 4    1  0.5134057E+003  0.1119423E+03  0.7546771E-02  0.1257015E+00
         21   -1    0    0  501  502  0.00000000000E+00  0.00000000000E+00  0.77555822030E+02  0.77555822030E+02  0.00000000000E+00 0. -1.
          2   -1    0    0  503    0 -0.00000000000E+00 -0.00000000000E+00 -0.13574745015E+04  0.13574745015E+04  0.00000000000E+00 0.  1.
         21    1    1    2  503  502  0.27999193103E+02  0.10838415349E+03  0.33501876436E+02  0.11684800070E+03  0.00000000000E+00 0. -1.
          2    1    1    2  501    0 -0.27999193103E+02 -0.10838415349E+03 -0.13134205559E+04  0.13181823228E+04  0.00000000000E+00 0.  1.
<mgrwt>
<rscale>  2 0.11194230E+03</rscale>
<asrwt>0</asrwt>
<pdfrwt beam="1">  1       21 0.11931664E-01 0.11194230E+03</pdfrwt>
<pdfrwt beam="2">  1        2 0.20884225E+00 0.11194230E+03</pdfrwt>
<totfact> 0.12767271E+04</totfact>
</mgrwt>
</event>
<event>
 4    1  0.5134057E+003  0.1258479E+03  0.7546771E-02  0.1233750E+00
         21   -1    0    0  503  502  0.00000000000E+00  0.00000000000E+00  0.13917557020E+03  0.13917557020E+03  0.00000000000E+00 0. -1.
          1   -1    0    0  502    0 -0.00000000000E+00 -0.00000000000E+00 -0.16908573203E+03  0.16908573203E+03  0.00000000000E+00 0. -1.
         21    1    1    2  503  501 -0.28766832414E+02  0.12251598518E+03  0.73181395491E+02  0.14557889242E+03  0.00000000000E+00 0. -1.
          1    1    1    2  501    0  0.28766832414E+02 -0.12251598518E+03 -0.10309155732E+03  0.16268240981E+03  0.00000000000E+00 0. -1.
<mgrwt>
<rscale>  2 0.12584791E+03</rscale>
<asrwt>0</asrwt>
<pdfrwt beam="1">  1       21 0.21411626E-01 0.12584791E+03</pdfrwt>
<pdfrwt beam="2">  1        1 0.26013189E-01 0.12584791E+03</pdfrwt>
<totfact> 0.39798798E+04</totfact>
</mgrwt>
</event>
<event>
 4    1  0.5134057E+003  0.1049257E+03  0.7546771E-02  0.1270266E+00
          2   -1    0    0  503    0 -0.00000000000E+00  0.00000000000E+00  0.10989938257E+04  0.10989938257E+04  0.00000000000E+00 0. -1.
         21   -1    0    0  501  502  0.00000000000E+00 -0.00000000000E+00 -0.10059911429E+02  0.10059911429E+02  0.00000000000E+00 0. -1.
         21    1    1    2  503  502  0.99138404417E+02 -0.34365308654E+02  0.50854940462E+03  0.51926091188E+03  0.00000000000E+00 0. -1.
          2    1    1    2  501    0 -0.99138404417E+02  0.34365308654E+02  0.58038450962E+03  0.58979282522E+03  0.00000000000E+00 0. -1.
<mgrwt>
<rscale>  2 0.10492568E+03</rscale>
<asrwt>0</asrwt>
<pdfrwt beam="2">  1       21 0.15476796E-02 0.10492568E+03</pdfrwt>
<pdfrwt beam="1">  1        2 0.16907588E+00 0.10492568E+03</pdfrwt>
<totfact> 0.52983340E+05</totfact>
</mgrwt>
</event>
<event>
 4    1  0.5134057E+003  0.1510243E+03  0.7546771E-02  0.1199220E+00
         -1   -1    0    0    0  501 -0.00000000000E+00  0.00000000000E+00  0.15178262559E+03  0.15178262559E+03  0.00000000000E+00 0.  1.
         21   -1    0    0  501  502  0.00000000000E+00 -0.00000000000E+00 -0.21911710911E+03  0.21911710911E+03  0.00000000000E+00 0.  1.
         21    1    1    2  503  502 -0.13724496245E+03  0.63025173955E+02 -0.13761896955E+03  0.20432164117E+03  0.00000000000E+00 0.  1.
         -1    1    1    2    0  503  0.13724496245E+03 -0.63025173955E+02  0.70284486027E+02  0.16657809353E+03  0.00000000000E+00 0.  1.
<mgrwt>
<rscale>  2 0.15102434E+03</rscale>
<asrwt>0</asrwt>
<pdfrwt beam="2">  1       21 0.33710324E-01 0.15102434E+03</pdfrwt>
<pdfrwt beam="1">  1       -1 0.23351173E-01 0.15102434E+03</pdfrwt>
<totfact> 0.12070226E+04</totfact>
</mgrwt>
</event>
<event>
 4    1  0.5134057E+003  0.1115825E+03  0.7546771E-02  0.1257667E+00
         -3   -1    0    0    0  501 -0.00000000000E+00  0.00000000000E+00  0.94020678700E+03  0.94020678700E+03  0.00000000000E+00 0. -1.
         21   -1    0    0  503  502  0.00000000000E+00 -0.00000000000E+00 -0.39438344386E+02  0.39438344386E+02  0.00000000000E+00 0. -1.
         21    1    1    2  503  501  0.11103319114E+03  0.11058221038E+02  0.51179235060E+02  0.12275979753E+03  0.00000000000E+00 0. -1.
         -3    1    1    2    0  502 -0.11103319114E+03 -0.11058221038E+02  0.84958920755E+03  0.85688533385E+03  0.00000000000E+00 0. -1.
<mgrwt>
<rscale>  2 0.11158250E+03</rscale>
<asrwt>0</asrwt>
<pdfrwt beam="2">  1       21 0.60674383E-02 0.11158250E+03</pdfrwt>
<pdfrwt beam="1">  1       -3 0.14464718E+00 0.11158250E+03</pdfrwt>
<totfact> 0.35265974E+03</totfact>
</mgrwt>
</event>
<event>
 4    1  0.5134057E+003  0.1038281E+03  0.7546771E-02  0.1272446E+00
         21   -1    0    0  501  502  0.00000000000E+00  0.00000000000E+00  0.48747171208E+01  0.48747171208E+01  0.00000000000E+00 0.  1.
          2   -1    0    0  503    0 -0.00000000000E+00 -0.00000000000E+00 -0.32388329040E+04  0.32388329040E+04  0.00000000000E+00 0.  1.
         21    1    1    2  503  502  0.45447478820E+02 -0.93353096836E+02 -0.70353894501E+03  0.71115913913E+03  0.00000000000E+00 0.  1.
          2    1    1    2  501    0 -0.45447478820E+02  0.93353096836E+02 -0.25304192419E+04  0.25325484820E+04  0.00000000000E+00 0.  1.
<mgrwt>
<rscale>  2 0.10382810E+03</rscale>
<asrwt>0</asrwt>
<pdfrwt beam="1">  1       21 0.74995660E-03 0.10382810E+03</pdfrwt>
<pdfrwt beam="2">  1        2 0.49828191E+00 0.10382810E+03</pdfrwt>
<totfact> 0.11992577E+05</totfact>
</mgrwt>
</event>
<event>
 4    1  0.5134057E+003  0.1010763E+03  0.7546771E-02  0.1278049E+00
         21   -1    0    0  503  502  0.00000000000E+00  0.00000000000E+00  0.70278524393E+02  0.70278524393E+02  0.00000000000E+00 0.  1.
          2   -1    0    0  502    0 -0.00000000000E+00 -0.00000000000E+00 -0.45019940285E+03  0.45019940285E+03  0.00000000000E+00 0. -1.
         21    1    1    2  503  501 -0.78109809096E+02  0.64150422751E+02  0.24179654173E+02  0.10392821894E+03  0.00000000000E+00 0.  1.
          2    1    1    2  501    0  0.78109809096E+02 -0.64150422751E+02 -0.40410053263E+03  0.41654970831E+03  0.00000000000E+00 0. -1.
<mgrwt>
<rscale>  2 0.10107630E+03</rscale>
<asrwt>0</asrwt>
<pdfrwt beam="1">  1       21 0.10812080E-01 0.10107630E+03</pdfrwt>
<pdfrwt beam="2">  1        2 0.69261450E-01 0.10107630E+03</pdfrwt>
<totfact> 0.61391059E+04</totfact>
</mgrwt>
</event>
<event>
 4    1  0.5134057E+003  0.1674068E+03  0.7546771E-02  0.1180579E+00
          1   -1    0    0  503    0 -0.00000000000E+00  0.00000000000E+00  0.76952140761E+03  0.76952140761E+03  0.00000000000E+00 0.  1.
         21   -1    0    0  501  502  0.00000000000E+00 -0.00000000000E+00 -0.76772497986E+02  0.76772497986E+02  0.00000000000E+00 0. -1.
         21    1    1    2  503  502 -0.19585918594E+02 -0.16625711694E+03  0.39592284725E+02  0.17202495793E+03  0.00000000000E+00 0. -1.
          1    1    1    2  501    0  0.19585918594E+02  0.16625711694E+03  0.65315662489E+03  0.67426894766E+03  0.00000000000E+00 0.  1.
<mgrwt>
<rscale>  2 0.16740680E+03</rscale>
<asrwt>0</asrwt>
<pdfrwt beam="2">  1       21 0.11811154E-01 0.16740680E+03</pdfrwt>
<pdfrwt beam="1">  1        1 0.11838790E+00 0.16740680E+03</pdfrwt>
<totfact> 0.16571319E+04</totfact>
</mgrwt>
</event>
<event>
 4    1  0.5134057E+003  0.1128156E+03  0.7546771E-02  0.1255443E+00
          2   -1    0    0  503    0 -0.00000000000E+00  0.00000000000E+00  0.22234367205E+04  0.22234367205E+04  0.00000000000E+00 0. -1.
         21   -1    0    0  501  502  0.00000000000E+00 -0.00000000000E+00 -0.96931289046E+01  0.96931289046E+01  0.00000000000E+00 0. -1.
         21    1    1    2  503  502  0.57714492674E+02 -0.96935012431E+02  0.39239264304E+03  0.40828831187E+03  0.00000000000E+00 0. -1.
          2    1    1    2  501    0 -0.57714492674E+02  0.96935012431E+02  0.18213509485E+04  0.18248415375E+04  0.00000000000E+00 0. -1.
<mgrwt>
<rscale>  2 0.11281560E+03</rscale>
<asrwt>0</asrwt>
<pdfrwt beam="2">  1       21 0.14912524E-02 0.11281560E+03</pdfrwt>
<pdfrwt beam="1">  1        2 0.34206678E+00 0.11281560E+03</pdfrwt>
<totfact> 0.14712567E+05</totfact>
</mgrwt>
</event>
<event>
 4    1  0.5134057E+003  0.1211784E+03  0.7546771E-02  0.1241166E+00
         21   -1    0    0  503  502  0.00000000000E+00  0.00000000000E+00  0.32274193410E+03  0.32274193410E+03  0.00000000000E+00 0. -1.
          1   -1    0    0  502    0 -0.00000000000E+00 -0.00000000000E+00 -0.48462262761E+02  0.48462262761E+02  0.00000000000E+00 0. -1.
         21    1    1    2  503  501 -0.12037043448E+03 -0.13970133463E+02  0.18304041208E+03  0.21951764981E+03  0.00000000000E+00 0. -1.
          1    1    1    2  501    0  0.12037043448E+03  0.13970133463E+02  0.91239259258E+02  0.15168654705E+03  0.00000000000E+00 0. -1.
<mgrwt>
<rscale>  2 0.12117841E+03</rscale>
<asrwt>0</asrwt>
<pdfrwt beam="1">  1       21 0.49652604E-01 0.12117841E+03</pdfrwt>
<pdfrwt beam="2">  1        1 0.74557329E-02 0.12117841E+03</pdfrwt>
<totfact> 0.38974654E+04</totfact>
</mgrwt>
</event>
<event>
 4    1  0.5134057E+003  0.1013729E+03  0.7546771E-02  0.1277435E+00
          2   -1    0    0  502    0 -0.00000000000E+00  0.00000000000E+00  0.21766405839E+03  0.21766405839E+03  0.00000000000E+00 0.  1.
         21   -1    0    0  503  502  0.00000000000E+00 -0.00000000000E+00 -0.25690702291E+03  0.25690702291E+03  0.00000000000E+00 0. -1.
         21    1    1    2  503  501  0.99724893594E+02  0.18204544312E+02 -0.23399782198E+03  0.25501262817E+03  0.00000000000E+00 0. -1.
          2    1    1    2  501    0 -0.99724893594E+02 -0.18204544312E+02  0.19475485746E+03  0.21955845313E+03  0.00000000000E+00 0.  1.
<mgrwt>
<rscale>  2 0.10137288E+03</rscale>
<asrwt>0</asrwt>
<pdfrwt beam="2">  1       21 0.39524157E-01 0.10137288E+03</pdfrwt>
<pdfrwt beam="1">  1        2 0.33486778E-01 0.10137288E+03</pdfrwt>
<totfact> 0.12015559E+04</totfact>
</mgrwt>
</event>
<event>
 4    1  0.5134057E+003  0.1567357E+03  0.7546771E-02  0.1192432E+00
          2   -1    0    0  503    0 -0.00000000000E+00  0.00000000000E+00  0.28271351082E+04  0.28271351082E+04  0.00000000000E+00 0.  1.
         21   -1    0    0  501  502  0.00000000000E+00 -0.00000000000E+00 -0.10951043901E+02  0.10951043901E+02  0.00000000000E+00 0. -1.
         21    1    1    2  503  502  0.10508726079E+03 -0.11628738401E+03  0.76320951625E+03  0.77913724963E+03  0.00000000000E+00 0. -1.
          2    1    1    2  501    0 -0.10508726079E+03  0.11628738401E+03  0.20529745480E+04  0.20589489024E+04  0.00000000000E+00 0.  1.
<mgrwt>
<rscale>  2 0.15673573E+03</rscale>
<asrwt>0</asrwt>
<pdfrwt beam="2">  1       21 0.16847782E-02 0.15673573E+03</pdfrwt>
<pdfrwt beam="1">  1        2 0.43494328E+00 0.15673573E+03</pdfrwt>
<totfact> 0.56845686E+04</totfact>
</mgrwt>
</event>
<event>
 4    1  0.5134057E+003  0.1197737E+03  0.7546771E-02  0.1243471E+00
         21   -1    0    0  503  502  0.00000000000E+00  0.00000000000E+00  0.38308661471E+02  0.38308661471E+02  0.00000000000E+00 0.  1.
         -1   -1    0    0    0  501 -0.00000000000E+00 -0.00000000000E+00 -0.63189758443E+03  0.63189758443E+03  0.00000000000E+00 0. -1.
         21    1    1    2  503  501  0.56670199068E+02 -0.10551889089E+03 -0.82911598386E+02  0.14567113971E+03  0.00000000000E+00 0.  1.
         -1    1    1    2    0  502 -0.56670199068E+02  0.10551889089E+03 -0.51067732457E+03  0.52453510619E+03  0.00000000000E+00 0. -1.
<mgrwt>
<rscale>  2 0.11977374E+03</rscale>
<asrwt>0</asrwt>
<pdfrwt beam="1">  1       21 0.58936412E-02 0.11977374E+03</pdfrwt>
<pdfrwt beam="2">  1       -1 0.97214997E-01 0.11977374E+03</pdfrwt>
<totfact> 0.20418880E+04</totfact>
</mgrwt>
</event>
<event>
 4    1  0.5134057E+003  0.2359059E+03  0.7546771E-02  0.1122551E+00
          2   -1    0    0  502    0 -0.00000000000E+00  0.00000000000E+00  0.47436434382E+04  0.47436434382E+04  0.00000000000E+00 0. -1.
         21   -1    0    0  503  502  0.00000000000E+00 -0.00000000000E+00 -0.21274476050E+03  0.21274476050E+03  0.00000000000E+00 0. -1.
         21    1    1    2  503  501  0.21718978276E+03  0.92087889846E+02 -0.14344576026E+03  0.27609467095E+03  0.00000000000E+00 0. -1.
          2    1    1    2  501    0 -0.21718978276E+03 -0.92087889846E+02  0.46743444379E+04  0.46802935277E+04  0.00000000000E+00 0. -1.
<mgrwt>
<rscale>  2 0.23590587E+03</rscale>
<asrwt>0</asrwt>
<pdfrwt beam="2">  1       21 0.32729967E-01 0.23590587E+03</pdfrwt>
<pdfrwt beam="1">  1        2 0.72979122E+00 0.23590587E+03</pdfrwt>
<totfact> 0.11308148E+01</totfact>
</mgrwt>
</event>
<event>
 4    1  0.5134057E+003  0.1108963E+03  0.7546771E-02  0.1258919E+00
         21   -1    0    0  501  502  0.00000000000E+00  0.00000000000E+00  0.83871635884E+02  0.83871635884E+02  0.00000000000E+00 0.  1.
          3   -1    0    0  503    0 -0.00000000000E+00 -0.00000000000E+00 -0.26842841227E+03  0.26842841227E+03  0.00000000000E+00 0.  1.
         21    1    1    2  503  502  0.10338877728E+03 -0.40109260054E+02  0.26378111156E+02  0.11399033624E+03  0.00000000000E+00 0.  1.
          3    1    1    2  501    0 -0.10338877728E+03  0.40109260054E+02 -0.21093488754E+03  0.23830971191E+03  0.00000000000E+00 0.  1.
<mgrwt>
<rscale>  2 0.11089631E+03</rscale>
<asrwt>0</asrwt>
<pdfrwt beam="1">  1       21 0.12903329E-01 0.11089631E+03</pdfrwt>
<pdfrwt beam="2">  1        3 0.41296679E-01 0.11089631E+03</pdfrwt>
<totfact> 0.14338489E+04</totfact>
</mgrwt>
</event>
<event>
 4    1  0.5134057E+003  0.1372174E+03  0.7546771E-02  0.1217123E+00
          1   -1    0    0  502    0 -0.00000000000E+00  0.00000000000E+00  0.79650763019E+03  0.79650763019E+03  0.00000000000E+00 0.  1.
         21   -1    0    0  503  502  0.00000000000E+00 -0.00000000000E+00 -0.33232940558E+02  0.33232940558E+02  0.00000000000E+00 0.  1.
         21    1    1    2  503  501  0.58930530134E+02  0.12391859998E+03  0.15872868470E+03  0.20981759256E+03  0.00000000000E+00 0.  1.
          1    1    1    2  501    0 -0.58930530134E+02 -0.12391859998E+03  0.60454600493E+03  0.61992297819E+03  0.00000000000E+00 0.  1.
<mgrwt>
<rscale>  2 0.13721744E+03</rscale>
<asrwt>0</asrwt>
<pdfrwt beam="2">  1       21 0.51127607E-02 0.13721744E+03</pdfrwt>
<pdfrwt beam="1">  1        1 0.12253962E+00 0.13721744E+03</pdfrwt>
<totfact> 0.67121540E+04</totfact>
</mgrwt>
</event>
<event>
 4    1  0.5134057E+003  0.1072766E+03  0.7546771E-02  0.1265698E+00
          2   -1    0    0  502    0 -0.00000000000E+00  0.00000000000E+00  0.12433719765E+04  0.12433719765E+04  0.00000000000E+00 0. -1.
         21   -1    0    0  503  502  0.00000000000E+00 -0.00000000000E+00 -0.17854173778E+03  0.17854173778E+03  0.00000000000E+00 0.  1.
         21    1    1    2  503  501  0.97018645780E+02  0.45778264946E+02 -0.15986833148E+03  0.19252571408E+03  0.00000000000E+00 0.  1.
          2    1    1    2  501    0 -0.97018645780E+02 -0.45778264946E+02  0.12246985702E+04  0.12293880002E+04  0.00000000000E+00 0. -1.
<mgrwt>
<rscale>  2 0.10727659E+03</rscale>
<asrwt>0</asrwt>
<pdfrwt beam="2">  1       21 0.27467960E-01 0.10727659E+03</pdfrwt>
<pdfrwt beam="1">  1        2 0.19128799E+00 0.10727659E+03</pdfrwt>
<totfact> 0.32121936E+03</totfact>
</mgrwt>
</event>
<event>
 4    1  0.5134057E+003  0.1036942E+03  0.7546771E-02  0.1272714E+00
         21   -1    0    0  503  502  0.00000000000E+00  0.00000000000E+00  0.97147810056E+02  0.97147810056E+02  0.00000000000E+00 0. -1.
          2   -1    0    0  502    0 -0.00000000000E+00 -0.00000000000E+00 -0.57671113621E+03  0.57671113621E+03  0.00000000000E+00 0. -1.
         21    1    1    2  503  501 -0.48316859211E+02 -0.91749461904E+02  0.63095493065E+02  0.12138172799E+03  0.00000000000E+00 0. -1.
          2    1    1    2  501    0  0.48316859211E+02  0.91749461904E+02 -0.54265881922E+03  0.55247721828E+03  0.00000000000E+00 0. -1.
<mgrwt>
<rscale>  2 0.10369418E+03</rscale>
<asrwt>0</asrwt>
<pdfrwt beam="1">  1       21 0.14945817E-01 0.10369418E+03</pdfrwt>
<pdfrwt beam="2">  1        2 0.88724788E-01 0.10369418E+03</pdfrwt>
<totfact> 0.26436988E+04</totfact>
</mgrwt>
</event>
<event>
 4    1  0.5134057E+003  0.1303689E+03  0.7546771E-02  0.1226909E+00
          2   -1    0    0  503    0 -0.00000000000E+00  0.00000000000E+00  0.56472208064E+03  0.56472208064E+03  0.00000000000E+00 0.  1.
         21   -1    0    0  501  502  0.00000000000E+00 -0.00000000000E+00 -0.58320194602E+03  0.58320194602E+03  0.00000000000E+00 0.  1.
         21    1    1    2  503  502  0.11718535526E+03 -0.57128213119E+02 -0.56819605499E+03  0.58296037355E+03  0.00000000000E+00 0.  1.
          2    1    1    2  501    0 -0.11718535526E+03  0.57128213119E+02  0.54971618961E+03  0.56496365311E+03  0.00000000000E+00 0.  1.
<mgrwt>
<rscale>  2 0.13036886E+03</rscale>
<asrwt>0</asrwt>
<pdfrwt beam="2">  1       21 0.89723376E-01 0.13036886E+03</pdfrwt>
<pdfrwt beam="1">  1        2 0.86880321E-01 0.13036886E+03</pdfrwt>
<totfact> 0.75125379E+02</totfact>
</mgrwt>
</event>
<event>
 4    1  0.5134057E+003  0.1055489E+03  0.7546771E-02  0.1269042E+00
         -3   -1    0    0    0  501 -0.00000000000E+00  0.00000000000E+00  0.61949137663E+02  0.61949137663E+02  0.00000000000E+00 0.  1.
         21   -1    0    0  503  502  0.00000000000E+00 -0.00000000000E+00 -0.78249164106E+03  0.78249164106E+03  0.00000000000E+00 0. -1.
         21    1    1    2  503  501 -0.59020545273E+02  0.87505115660E+02 -0.73081085386E+03  0.73839357672E+03  0.00000000000E+00 0. -1.
         -3    1    1    2    0  502  0.59020545273E+02 -0.87505115660E+02  0.10268350459E+02  0.10604720200E+03  0.00000000000E+00 0.  1.
<mgrwt>
<rscale>  2 0.10554890E+03</rscale>
<asrwt>0</asrwt>
<pdfrwt beam="2">  1       21 0.12038332E+00 0.10554890E+03</pdfrwt>
<pdfrwt beam="1">  1       -3 0.95306370E-02 0.10554890E+03</pdfrwt>
<totfact> 0.20688484E+03</totfact>
</mgrwt>
</event>
<event>
 4    1  0.5134057E+003  0.2780283E+03  0.7546771E-02  0.1096771E+00
          2   -1    0    0  502    0 -0.00000000000E+00  0.00000000000E+00  0.14399593525E+04  0.14399593525E+04  0.00000000000E+00 0.  1.
         21   -1    0    0  503  502  0.00000000000E+00 -0.00000000000E+00 -0.63408749786E+02  0.63408749786E+02  0.00000000000E+00 0.  1.
         21    1    1    2  503  501  0.12367037332E+03 -0.24900876305E+03  0.39386887257E+03  0.48211244963E+03  0.00000000000E+00 0.  1.
          2    1    1    2  501    0 -0.12367037332E+03  0.24900876305E+03  0.98268173019E+03  0.10212556527E+04  0.00000000000E+00 0.  1.
<mgrwt>
<rscale>  2 0.27802828E+03</rscale>
<asrwt>0</asrwt>
<pdfrwt beam="2">  1       21 0.97551934E-02 0.27802828E+03</pdfrwt>
<pdfrwt beam="1">  1        2 0.22153218E+00 0.27802828E+03</pdfrwt>
<totfact> 0.15645373E+04</totfact>
</mgrwt>
</event>
<event>
 4    1  0.5134057E+003  0.1268747E+03  0.7546771E-02  0.1232168E+00
         21   -1    0    0  503  502  0.00000000000E+00  0.00000000000E+00  0.18105548591E+03  0.18105548591E+03  0.00000000000E+00 0. -1.
          2   -1    0    0  502    0 -0.00000000000E+00 -0.00000000000E+00 -0.49940426233E+03  0.49940426233E+03  0.00000000000E+00 0.  1.
         21    1    1    2  503  501 -0.74540838673E+01 -0.12665556015E+03  0.14928726330E+03  0.19591804733E+03  0.00000000000E+00 0. -1.
          2    1    1    2  501    0  0.74540838673E+01  0.12665556015E+03 -0.46763603972E+03  0.48454170092E+03  0.00000000000E+00 0.  1.
<mgrwt>
<rscale>  2 0.12687472E+03</rscale>
<asrwt>0</asrwt>
<pdfrwt beam="1">  1       21 0.27854691E-01 0.12687472E+03</pdfrwt>
<pdfrwt beam="2">  1        2 0.76831424E-01 0.12687472E+03</pdfrwt>
<totfact> 0.97671542E+03</totfact>
</mgrwt>
</event>
<event>
 4    1  0.5134057E+003  0.1224117E+03  0.7546771E-02  0.1239171E+00
         21   -1    0    0  501  502  0.00000000000E+00  0.00000000000E+00  0.88496625546E+02  0.88496625546E+02  0.00000000000E+00 0. -1.
          2   -1    0    0  503    0 -0.00000000000E+00 -0.00000000000E+00 -0.73102734864E+03  0.73102734864E+03  0.00000000000E+00 0. -1.
         21    1    1    2  503  502  0.25496865642E+02 -0.11972690116E+03  0.37919712245E+02  0.12815040225E+03  0.00000000000E+00 0. -1.
          2    1    1    2  501    0 -0.25496865642E+02  0.11972690116E+03 -0.68045043534E+03  0.69137357194E+03  0.00000000000E+00 0. -1.
<mgrwt>
<rscale>  2 0.12241169E+03</rscale>
<asrwt>0</asrwt>
<pdfrwt beam="1">  1       21 0.13614866E-01 0.12241169E+03</pdfrwt>
<pdfrwt beam="2">  1        2 0.11246574E+00 0.12241169E+03</pdfrwt>
<totfact> 0.23714061E+04</totfact>
</mgrwt>
</event>
<event>
 4    1  0.5134057E+003  0.1022116E+03  0.7546771E-02  0.1275713E+00
          1   -1    0    0  503    0 -0.00000000000E+00  0.00000000000E+00  0.43123011915E+02  0.43123011915E+02  0.00000000000E+00 0.  1.
         21   -1    0    0  501  502  0.00000000000E+00 -0.00000000000E+00 -0.24356228635E+03  0.24356228635E+03  0.00000000000E+00 0.  1.
         21    1    1    2  503  502 -0.99381683064E+02  0.23884880081E+02 -0.11068007183E+03  0.15065618051E+03  0.00000000000E+00 0.  1.
          1    1    1    2  501    0  0.99381683064E+02 -0.23884880081E+02 -0.89759202603E+02  0.13602911775E+03  0.00000000000E+00 0.  1.
<mgrwt>
<rscale>  2 0.10221158E+03</rscale>
<asrwt>0</asrwt>
<pdfrwt beam="2">  1       21 0.37471121E-01 0.10221158E+03</pdfrwt>
<pdfrwt beam="1">  1        1 0.66343096E-02 0.10221158E+03</pdfrwt>
<totfact> 0.79882468E+04</totfact>
</mgrwt>
</event>
<event>
 4    1  0.5134057E+003  0.1882736E+03  0.7546771E-02  0.1160028E+00
         21   -1    0    0  503  502  0.00000000000E+00  0.00000000000E+00  0.21429952062E+03  0.21429952062E+03  0.00000000000E+00 0. -1.
          1   -1    0    0  502    0 -0.00000000000E+00 -0.00000000000E+00 -0.60039720020E+03  0.60039720020E+03  0.00000000000E+00 0. -1.
         21    1    1    2  503  501 -0.17822027405E+03 -0.60699909818E+02  0.15367657068E+03  0.24302969677E+03  0.00000000000E+00 0. -1.
          1    1    1    2  501    0  0.17822027405E+03  0.60699909818E+02 -0.53977425027E+03  0.57166702405E+03  0.00000000000E+00 0. -1.
<mgrwt>
<rscale>  2 0.18827359E+03</rscale>
<asrwt>0</asrwt>
<pdfrwt beam="1">  1       21 0.32969156E-01 0.18827359E+03</pdfrwt>
<pdfrwt beam="2">  1        1 0.92368802E-01 0.18827359E+03</pdfrwt>
<totfact> 0.34598113E+03</totfact>
</mgrwt>
</event>
<event>
 4    1  0.5134057E+003  0.1009064E+03  0.7546771E-02  0.1278401E+00
         21   -1    0    0  503  502  0.00000000000E+00  0.00000000000E+00  0.23204367089E+03  0.23204367089E+03  0.00000000000E+00 0. -1.
          2   -1    0    0  502    0 -0.00000000000E+00 -0.00000000000E+00 -0.28665200930E+03  0.28665200930E+03  0.00000000000E+00 0.  1.
         21    1    1    2  503  501  0.64869263013E+02 -0.77292193765E+02  0.21136940557E+03  0.23422025983E+03  0.00000000000E+00 0. -1.
          2    1    1    2  501    0 -0.64869263013E+02  0.77292193765E+02 -0.26597774398E+03  0.28447542037E+03  0.00000000000E+00 0.  1.
<mgrwt>
<rscale>  2 0.10090641E+03</rscale>
<asrwt>0</asrwt>
<pdfrwt beam="1">  1       21 0.35699026E-01 0.10090641E+03</pdfrwt>
<pdfrwt beam="2">  1        2 0.44100309E-01 0.10090641E+03</pdfrwt>
<totfact> 0.10980161E+04</totfact>
</mgrwt>
</event>
<event>
 4    1  0.5134057E+003  0.1091076E+03  0.7546771E-02  0.1262232E+00
          2   -1    0    0  502    0 -0.00000000000E+00  0.00000000000E+00  0.12989477513E+03  0.12989477513E+03  0.00000000000E+00 0.  1.
         21   -1    0    0  503  502  0.00000000000E+00 -0.00000000000E+00 -0.76019988014E+03  0.76019988014E+03  0.00000000000E+00 0. -1.
         21    1    1    2  503  501  0.39647062977E+02 -0.10164925537E+03 -0.73251194886E+03  0.74059315143E+03  0.00000000000E+00 0. -1.
          2    1    1    2  501    0 -0.39647062977E+02  0.10164925537E+03  0.10220684385E+03  0.14950150384E+03  0.00000000000E+00 0.  1.
<mgrwt>
<rscale>  2 0.10910756E+03</rscale>
<asrwt>0</asrwt>
<pdfrwt beam="2">  1       21 0.11695382E+00 0.10910756E+03</pdfrwt>
<pdfrwt beam="1">  1        2 0.19983812E-01 0.10910756E+03</pdfrwt>
<totfact> 0.20000765E+03</totfact>
</mgrwt>
</event>
<event>
 4    1  0.5134057E+003  0.1177019E+03  0.7546771E-02  0.1246937E+00
         21   -1    0    0  503  502  0.00000000000E+00  0.00000000000E+00  0.16550156813E+02  0.16550156813E+02  0.00000000000E+00 0. -1.
          1   -1    0    0  502    0 -0.00000000000E+00 -0.00000000000E+00 -0.18251109032E+04  0.18251109032E+04  0.00000000000E+00 0. -1.
         21    1    1    2  503  501  0.12517481068E+02 -0.11703439012E+03 -0.22676170415E+03  0.25548895529E+03  0.00000000000E+00 0. -1.
          1    1    1    2  501    0 -0.12517481068E+02  0.11703439012E+03 -0.15817990422E+04  0.15861721047E+04  0.00000000000E+00 0. -1.
<mgrwt>
<rscale>  2 0.11770189E+03</rscale>
<asrwt>0</asrwt>
<pdfrwt beam="1">  1       21 0.25461772E-02 0.11770189E+03</pdfrwt>
<pdfrwt beam="2">  1        1 0.28078638E+00 0.11770189E+03</pdfrwt>
<totfact> 0.42113962E+04</totfact>
</mgrwt>
</event>
<event>
 4    1  0.5134057E+003  0.1146054E+03  0.7546771E-02  0.1252272E+00
         21   -1    0    0  501  502  0.00000000000E+00  0.00000000000E+00  0.16038775613E+02  0.16038775613E+02  0.00000000000E+00 0. -1.
          3   -1    0    0  503    0 -0.00000000000E+00 -0.00000000000E+00 -0.90758558764E+03  0.90758558764E+03  0.00000000000E+00 0.  1.
         21    1    1    2  503  502  0.84411292828E+02  0.77518533483E+02 -0.30142497232E+03  0.32247698109E+03  0.00000000000E+00 0. -1.
          3    1    1    2  501    0 -0.84411292828E+02 -0.77518533483E+02 -0.59012183970E+03  0.60114738216E+03  0.00000000000E+00 0.  1.
<mgrwt>
<rscale>  2 0.11460536E+03</rscale>
<asrwt>0</asrwt>
<pdfrwt beam="1">  1       21 0.24675039E-02 0.11460536E+03</pdfrwt>
<pdfrwt beam="2">  1        3 0.13962855E+00 0.11460536E+03</pdfrwt>
<totfact> 0.17120220E+04</totfact>
</mgrwt>
</event>
<event>
 4    1  0.5134057E+003  0.1167448E+03  0.7546771E-02  0.1248566E+00
         -2   -1    0    0    0  501 -0.00000000000E+00  0.00000000000E+00  0.15618258898E+03  0.15618258898E+03  0.00000000000E+00 0. -1.
         21   -1    0    0  503  502  0.00000000000E+00 -0.00000000000E+00 -0.93876953383E+03  0.93876953383E+03  0.00000000000E+00 0. -1.
         21    1    1    2  503  501  0.49172472284E+02  0.10588400308E+03 -0.91270303488E+03  0.92013921991E+03  0.00000000000E+00 0. -1.
         -2    1    1    2    0  502 -0.49172472284E+02 -0.10588400308E+03  0.13011609002E+03  0.17481290290E+03  0.00000000000E+00 0. -1.
<mgrwt>
<rscale>  2 0.11674482E+03</rscale>
<asrwt>0</asrwt>
<pdfrwt beam="2">  1       21 0.14442608E+00 0.11674482E+03</pdfrwt>
<pdfrwt beam="1">  1       -2 0.24028091E-01 0.11674482E+03</pdfrwt>
<totfact> 0.42369024E+02</totfact>
</mgrwt>
</event>
<event>
 4    1  0.5134057E+003  0.1879927E+03  0.7546771E-02  0.1160284E+00
         21   -1    0    0  501  502  0.00000000000E+00  0.00000000000E+00  0.10476156595E+02  0.10476156595E+02  0.00000000000E+00 0. -1.
          2   -1    0    0  503    0 -0.00000000000E+00 -0.00000000000E+00 -0.36694350153E+04  0.36694350153E+04  0.00000000000E+00 0. -1.
         21    1    1    2  503  502  0.16726149362E+03  0.85818641823E+02 -0.13069501134E+04  0.13204013956E+04  0.00000000000E+00 0. -1.
          2    1    1    2  501    0 -0.16726149362E+03 -0.85818641823E+02 -0.23520087453E+04  0.23595097764E+04  0.00000000000E+00 0. -1.
<mgrwt>
<rscale>  2 0.18799268E+03</rscale>
<asrwt>0</asrwt>
<pdfrwt beam="1">  1       21 0.16117153E-02 0.18799268E+03</pdfrwt>
<pdfrwt beam="2">  1        2 0.56452884E+00 0.18799268E+03</pdfrwt>
<totfact> 0.18176728E+04</totfact>
</mgrwt>
</event>
<event>
 4    1  0.5134057E+003  0.1105753E+03  0.7546771E-02  0.1259508E+00
         21   -1    0    0  503  502  0.00000000000E+00  0.00000000000E+00  0.86846995495E+01  0.86846995495E+01  0.00000000000E+00 0.  1.
          2   -1    0    0  502    0 -0.00000000000E+00 -0.00000000000E+00 -0.34021148174E+04  0.34021148174E+04  0.00000000000E+00 0. -1.
         21    1    1    2  503  501  0.59785282630E+02  0.93019449965E+02 -0.39102131159E+03  0.40635521924E+03  0.00000000000E+00 0.  1.
          2    1    1    2  501    0 -0.59785282630E+02 -0.93019449965E+02 -0.30024088063E+04  0.30044442977E+04  0.00000000000E+00 0. -1.
<mgrwt>
<rscale>  2 0.11057531E+03</rscale>
<asrwt>0</asrwt>
<pdfrwt beam="1">  1       21 0.13361085E-02 0.11057531E+03</pdfrwt>
<pdfrwt beam="2">  1        2 0.52340193E+00 0.11057531E+03</pdfrwt>
<totfact> 0.38336644E+04</totfact>
</mgrwt>
</event>
<event>
 4    1  0.5134057E+003  0.1058103E+03  0.7546771E-02  0.1268531E+00
          2   -1    0    0  503    0 -0.00000000000E+00  0.00000000000E+00  0.21238077366E+03  0.21238077366E+03  0.00000000000E+00 0.  1.
         21   -1    0    0  501  502  0.00000000000E+00 -0.00000000000E+00 -0.19253123198E+03  0.19253123198E+03  0.00000000000E+00 0.  1.
         21    1    1    2  503  502 -0.78693022316E+02  0.70733550304E+02 -0.16260243336E+03  0.19399839750E+03  0.00000000000E+00 0.  1.
          2    1    1    2  501    0  0.78693022316E+02 -0.70733550304E+02  0.18245197504E+03  0.21091360814E+03  0.00000000000E+00 0.  1.
<mgrwt>
<rscale>  2 0.10581033E+03</rscale>
<asrwt>0</asrwt>
<pdfrwt beam="2">  1       21 0.29620189E-01 0.10581033E+03</pdfrwt>
<pdfrwt beam="1">  1        2 0.32673965E-01 0.10581033E+03</pdfrwt>
<totfact> 0.21621772E+04</totfact>
</mgrwt>
</event>
<event>
 4    1  0.5134057E+003  0.1114658E+03  0.7546771E-02  0.1257879E+00
         -1   -1    0    0    0  501 -0.00000000000E+00  0.00000000000E+00  0.26349938943E+03  0.26349938943E+03  0.00000000000E+00 0.  1.
         21   -1    0    0  503  502  0.00000000000E+00 -0.00000000000E+00 -0.18348624080E+03  0.18348624080E+03  0.00000000000E+00 0.  1.
         21    1    1    2  503  501 -0.26789832340E+02  0.10819852113E+03 -0.15264108249E+03  0.18900771190E+03  0.00000000000E+00 0.  1.
         -1    1    1    2    0  502  0.26789832340E+02 -0.10819852113E+03  0.23265423112E+03  0.25797791834E+03  0.00000000000E+00 0.  1.
<mgrwt>
<rscale>  2 0.11146576E+03</rscale>
<asrwt>0</asrwt>
<pdfrwt beam="2">  1       21 0.28228652E-01 0.11146576E+03</pdfrwt>
<pdfrwt beam="1">  1       -1 0.40538368E-01 0.11146576E+03</pdfrwt>
<totfact> 0.67386982E+03</totfact>
</mgrwt>
</event>
<event>
 4    1  0.5134057E+003  0.1351254E+03  0.7546771E-02  0.1220043E+00
         21   -1    0    0  501  502  0.00000000000E+00  0.00000000000E+00  0.16133552803E+04  0.16133552803E+04  0.00000000000E+00 0. -1.
          1   -1    0    0  503    0 -0.00000000000E+00 -0.00000000000E+00 -0.39533884814E+02  0.39533884814E+02  0.00000000000E+00 0. -1.
         21    1    1    2  503  502  0.13376499092E+03  0.19125903896E+02  0.14851125382E+04  0.14912471707E+04  0.00000000000E+00 0. -1.
          1    1    1    2  501    0 -0.13376499092E+03 -0.19125903896E+02  0.88708857266E+02  0.16164199440E+03  0.00000000000E+00 0. -1.
<mgrwt>
<rscale>  2 0.13512540E+03</rscale>
<asrwt>0</asrwt>
<pdfrwt beam="1">  1       21 0.24820845E+00 0.13512540E+03</pdfrwt>
<pdfrwt beam="2">  1        1 0.60821374E-02 0.13512540E+03</pdfrwt>
<totfact> 0.95671488E+02</totfact>
</mgrwt>
</event>
<event>
 4    1  0.5134057E+003  0.1675346E+03  0.7546771E-02  0.1180444E+00
         21   -1    0    0  503  502  0.00000000000E+00  0.00000000000E+00  0.67286266859E+03  0.67286266859E+03  0.00000000000E+00 0. -1.
         -1   -1    0    0    0  501 -0.00000000000E+00 -0.00000000000E+00 -0.67923997761E+02  0.67923997761E+02  0.00000000000E+00 0. -1.
         21    1    1    2  503  501  0.16348135168E+03 -0.36628999926E+02  0.53255232337E+03  0.55828291494E+03  0.00000000000E+00 0. -1.
         -1    1    1    2    0  502 -0.16348135168E+03  0.36628999926E+02  0.72386347462E+02  0.18250375142E+03  0.00000000000E+00 0. -1.
<mgrwt>
<rscale>  2 0.16753458E+03</rscale>
<asrwt>0</asrwt>
<pdfrwt beam="1">  1       21 0.10351733E+00 0.16753458E+03</pdfrwt>
<pdfrwt beam="2">  1       -1 0.10449846E-01 0.16753458E+03</pdfrwt>
<totfact> 0.38750135E+03</totfact>
</mgrwt>
</event>
<event>
 4    1  0.5134057E+003  0.1148795E+03  0.7546771E-02  0.1251792E+00
         21   -1    0    0  501  502  0.00000000000E+00  0.00000000000E+00  0.24320267208E+03  0.24320267208E+03  0.00000000000E+00 0. -1.
         -3   -1    0    0    0  501 -0.00000000000E+00 -0.00000000000E+00 -0.10972889252E+03  0.10972889252E+03  0.00000000000E+00 0.  1.
         21    1    1    2  503  502 -0.18559640526E+02 -0.11337034253E+03  0.19219731672E+03  0.22391316034E+03  0.00000000000E+00 0. -1.
         -3    1    1    2    0  503  0.18559640526E+02  0.11337034253E+03 -0.58723537155E+02  0.12901840426E+03  0.00000000000E+00 0.  1.
<mgrwt>
<rscale>  2 0.11487948E+03</rscale>
<asrwt>0</asrwt>
<pdfrwt beam="1">  1       21 0.37415796E-01 0.11487948E+03</pdfrwt>
<pdfrwt beam="2">  1       -3 0.16881368E-01 0.11487948E+03</pdfrwt>
<totfact> 0.10024783E+04</totfact>
</mgrwt>
</event>
<event>
 4    1  0.5134057E+003  0.1005802E+03  0.7546771E-02  0.1279081E+00
          1   -1    0    0  503    0 -0.00000000000E+00  0.00000000000E+00  0.20484396940E+04  0.20484396940E+04  0.00000000000E+00 0. -1.
         21   -1    0    0  501  502  0.00000000000E+00 -0.00000000000E+00 -0.63421171991E+01  0.63421171991E+01  0.00000000000E+00 0. -1.
         21    1    1    2  503  502 -0.90986989010E+01  0.10016783858E+03  0.53773338998E+03  0.54705902872E+03  0.00000000000E+00 0. -1.
          1    1    1    2  501    0  0.90986989010E+01 -0.10016783858E+03  0.15043641868E+04  0.15077227825E+04  0.00000000000E+00 0. -1.
<mgrwt>
<rscale>  2 0.10058023E+03</rscale>
<asrwt>0</asrwt>
<pdfrwt beam="2">  1       21 0.97571198E-03 0.10058023E+03</pdfrwt>
<pdfrwt beam="1">  1        1 0.31514404E+00 0.10058023E+03</pdfrwt>
<totfact> 0.14069964E+05</totfact>
</mgrwt>
</event>
<event>
 4    1  0.5134057E+003  0.1624267E+03  0.7546771E-02  0.1185984E+00
         21   -1    0    0  503  502  0.00000000000E+00  0.00000000000E+00  0.20574946050E+03  0.20574946050E+03  0.00000000000E+00 0.  1.
         -2   -1    0    0    0  501 -0.00000000000E+00 -0.00000000000E+00 -0.27679300157E+03  0.27679300157E+03  0.00000000000E+00 0. -1.
         21    1    1    2  503  501 -0.89863977742E+02  0.13530294369E+03  0.14124036199E+03  0.21524697657E+03  0.00000000000E+00 0.  1.
         -2    1    1    2    0  502  0.89863977742E+02 -0.13530294369E+03 -0.21228390307E+03  0.26729548550E+03  0.00000000000E+00 0. -1.
<mgrwt>
<rscale>  2 0.16242666E+03</rscale>
<asrwt>0</asrwt>
<pdfrwt beam="1">  1       21 0.31653763E-01 0.16242666E+03</pdfrwt>
<pdfrwt beam="2">  1       -2 0.42583539E-01 0.16242666E+03</pdfrwt>
<totfact> 0.41164390E+03</totfact>
</mgrwt>
</event>
<event>
 4    1  0.5134057E+003  0.1053957E+03  0.7546771E-02  0.1269342E+00
         21   -1    0    0  501  502  0.00000000000E+00  0.00000000000E+00  0.35854744952E+03  0.35854744952E+03  0.00000000000E+00 0.  1.
         -2   -1    0    0    0  501 -0.00000000000E+00 -0.00000000000E+00 -0.99651488227E+02  0.99651488227E+02  0.00000000000E+00 0. -1.
         21    1    1    2  503  502  0.10526004430E+03  0.53448993882E+01  0.31962870357E+03  0.33655720617E+03  0.00000000000E+00 0.  1.
         -2    1    1    2    0  503 -0.10526004430E+03 -0.53448993882E+01 -0.60732742279E+02  0.12164173158E+03  0.00000000000E+00 0. -1.
<mgrwt>
<rscale>  2 0.10539566E+03</rscale>
<asrwt>0</asrwt>
<pdfrwt beam="1">  1       21 0.55161145E-01 0.10539566E+03</pdfrwt>
<pdfrwt beam="2">  1       -2 0.15330998E-01 0.10539566E+03</pdfrwt>
<totfact> 0.81748976E+03</totfact>
</mgrwt>
</event>
<event>
 4    1  0.5134057E+003  0.1004620E+03  0.7546771E-02  0.1279327E+00
         21   -1    0    0  501  502  0.00000000000E+00  0.00000000000E+00  0.27965070464E+03  0.27965070464E+03  0.00000000000E+00 0.  1.
          1   -1    0    0  503    0 -0.00000000000E+00 -0.00000000000E+00 -0.86155987973E+02  0.86155987973E+02  0.00000000000E+00 0.  1.
         21    1    1    2  503  502 -0.12102065483E+02 -0.99730399103E+02  0.23617536713E+03  0.25665427433E+03  0.00000000000E+00 0.  1.
          1    1    1    2  501    0  0.12102065483E+02  0.99730399103E+02 -0.42680650457E+02  0.10915241829E+03  0.00000000000E+00 0.  1.
<mgrwt>
<rscale>  2 0.10046200E+03</rscale>
<asrwt>0</asrwt>
<pdfrwt beam="1">  1       21 0.43023185E-01 0.10046200E+03</pdfrwt>
<pdfrwt beam="2">  1        1 0.13254768E-01 0.10046200E+03</pdfrwt>
<totfact> 0.24370396E+04</totfact>
</mgrwt>
</event>
<event>
 4    1  0.5134057E+003  0.1481241E+03  0.7546771E-02  0.1202797E+00
         -4   -1    0    0    0  501 -0.00000000000E+00  0.00000000000E+00  0.33402689694E+02  0.33402689694E+02  0.00000000000E+00 0. -1.
         21   -1    0    0  503  502  0.00000000000E+00 -0.00000000000E+00 -0.78976237539E+03  0.78976237539E+03  0.00000000000E+00 0. -1.
         21    1    1    2  503  501  0.68589963185E+02  0.13128660126E+03 -0.54702232991E+03  0.56672231661E+03  0.00000000000E+00 0. -1.
         -4    1    1    2    0  502 -0.68589963185E+02 -0.13128660126E+03 -0.20933735578E+03  0.25644274848E+03  0.00000000000E+00 0. -1.
<mgrwt>
<rscale>  2 0.14812412E+03</rscale>
<asrwt>0</asrwt>
<pdfrwt beam="2">  1       21 0.12150190E+00 0.14812412E+03</pdfrwt>
<pdfrwt beam="1">  1       -4 0.51388753E-02 0.14812412E+03</pdfrwt>
<totfact> 0.48922884E+03</totfact>
</mgrwt>
</event>
<event>
 4    1  0.5134057E+003  0.1095168E+03  0.7546771E-02  0.1261467E+00
         21   -1    0    0  503  502  0.00000000000E+00  0.00000000000E+00  0.35897098429E+02  0.35897098429E+02  0.00000000000E+00 0.  1.
          1   -1    0    0  502    0 -0.00000000000E+00 -0.00000000000E+00 -0.23554503064E+04  0.23554503064E+04  0.00000000000E+00 0.  1.
         21    1    1    2  503  501 -0.91863737373E+02 -0.59623638868E+02 -0.52147420297E+02  0.12129830172E+03  0.00000000000E+00 0.  1.
          1    1    1    2  501    0  0.91863737373E+02  0.59623638868E+02 -0.22674057877E+04  0.22700491031E+04  0.00000000000E+00 0.  1.
<mgrwt>
<rscale>  2 0.10951678E+03</rscale>
<asrwt>0</asrwt>
<pdfrwt beam="1">  1       21 0.55226284E-02 0.10951678E+03</pdfrwt>
<pdfrwt beam="2">  1        1 0.36237711E+00 0.10951678E+03</pdfrwt>
<totfact> 0.54224063E+03</totfact>
</mgrwt>
</event>
<event>
 4    1  0.5134057E+003  0.1044484E+03  0.7546771E-02  0.1271210E+00
          2   -1    0    0  503    0 -0.00000000000E+00  0.00000000000E+00  0.13209350215E+04  0.13209350215E+04  0.00000000000E+00 0.  1.
         21   -1    0    0  501  502  0.00000000000E+00 -0.00000000000E+00 -0.42067273232E+02  0.42067273232E+02  0.00000000000E+00 0.  1.
         21    1    1    2  503  502  0.10302364419E+03 -0.17192974561E+02  0.28482634593E+02  0.10826232082E+03  0.00000000000E+00 0.  1.
          2    1    1    2  501    0 -0.10302364419E+03  0.17192974561E+02  0.12503851137E+04  0.12547399740E+04  0.00000000000E+00 0.  1.
<mgrwt>
<rscale>  2 0.10444841E+03</rscale>
<asrwt>0</asrwt>
<pdfrwt beam="2">  1       21 0.64718892E-02 0.10444841E+03</pdfrwt>
<pdfrwt beam="1">  1        2 0.20322074E+00 0.10444841E+03</pdfrwt>
<totfact> 0.38488612E+04</totfact>
</mgrwt>
</event>
<event>
 4    1  0.5134057E+003  0.1662296E+03  0.7546771E-02  0.1181838E+00
          1   -1    0    0  502    0 -0.00000000000E+00  0.00000000000E+00  0.76945452599E+03  0.76945452599E+03  0.00000000000E+00 0.  1.
         21   -1    0    0  503  502  0.00000000000E+00 -0.00000000000E+00 -0.35911667103E+02  0.35911667103E+02  0.00000000000E+00 0.  1.
         21    1    1    2  503  501  0.29893679332E+02 -0.16351953704E+03  0.36762352793E+03  0.40345920407E+03  0.00000000000E+00 0.  1.
          1    1    1    2  501    0 -0.29893679332E+02  0.16351953704E+03  0.36591933095E+03  0.40190698902E+03  0.00000000000E+00 0.  1.
<mgrwt>
<rscale>  2 0.16622957E+03</rscale>
<asrwt>0</asrwt>
<pdfrwt beam="2">  1       21 0.55248725E-02 0.16622957E+03</pdfrwt>
<pdfrwt beam="1">  1        1 0.11837761E+00 0.16622957E+03</pdfrwt>
<totfact> 0.62052548E+04</totfact>
</mgrwt>
</event>
<event>
 4    1  0.5134057E+003  0.1468728E+03  0.7546771E-02  0.1204369E+00
          1   -1    0    0  503    0 -0.00000000000E+00  0.00000000000E+00  0.85885114960E+02  0.85885114960E+02  0.00000000000E+00 0. -1.
         21   -1    0    0  501  502  0.00000000000E+00 -0.00000000000E+00 -0.28553478411E+04  0.28553478411E+04  0.00000000000E+00 0.  1.
         21    1    1    2  503  502  0.14684711121E+03 -0.27493603659E+01 -0.27891783927E+04  0.27930427386E+04  0.00000000000E+00 0.  1.
          1    1    1    2  501    0 -0.14684711121E+03  0.27493603659E+01  0.19715666577E+02  0.14819021749E+03  0.00000000000E+00 0. -1.
<mgrwt>
<rscale>  2 0.14687285E+03</rscale>
<asrwt>0</asrwt>
<pdfrwt beam="2">  1       21 0.43928433E+00 0.14687285E+03</pdfrwt>
<pdfrwt beam="1">  1        1 0.13213093E-01 0.14687285E+03</pdfrwt>
<totfact> 0.25033115E+01</totfact>
</mgrwt>
</event>
<event>
 4    1  0.5134057E+003  0.1139697E+03  0.7546771E-02  0.1253390E+00
         21   -1    0    0  501  502  0.00000000000E+00  0.00000000000E+00  0.13633572771E+03  0.13633572771E+03  0.00000000000E+00 0.  1.
          2   -1    0    0  503    0 -0.00000000000E+00 -0.00000000000E+00 -0.26123929440E+03  0.26123929440E+03  0.00000000000E+00 0. -1.
         21    1    1    2  503  502 -0.39804819951E+02 -0.10679268293E+03  0.95993719898E+02  0.14900971471E+03  0.00000000000E+00 0.  1.
          2    1    1    2  501    0  0.39804819951E+02  0.10679268293E+03 -0.22089728659E+03  0.24856530740E+03  0.00000000000E+00 0. -1.
<mgrwt>
<rscale>  2 0.11396974E+03</rscale>
<asrwt>0</asrwt>
<pdfrwt beam="1">  1       21 0.20974728E-01 0.11396974E+03</pdfrwt>
<pdfrwt beam="2">  1        2 0.40190660E-01 0.11396974E+03</pdfrwt>
<totfact> 0.33229212E+04</totfact>
</mgrwt>
</event>
<event>
 4    1  0.5134057E+003  0.1073222E+03  0.7546771E-02  0.1265611E+00
         21   -1    0    0  501  502  0.00000000000E+00  0.00000000000E+00  0.34584107995E+02  0.34584107995E+02  0.00000000000E+00 0. -1.
          2   -1    0    0  503    0 -0.00000000000E+00 -0.00000000000E+00 -0.74970496745E+03  0.74970496745E+03  0.00000000000E+00 0. -1.
         21    1    1    2  503  502  0.10205742118E+03  0.33201417299E+02 -0.65217861287E+02  0.12558431733E+03  0.00000000000E+00 0. -1.
          2    1    1    2  501    0 -0.10205742118E+03 -0.33201417299E+02 -0.64990299816E+03  0.65870475811E+03  0.00000000000E+00 0. -1.
<mgrwt>
<rscale>  2 0.10732218E+03</rscale>
<asrwt>0</asrwt>
<pdfrwt beam="1">  1       21 0.53206323E-02 0.10732218E+03</pdfrwt>
<pdfrwt beam="2">  1        2 0.11533922E+00 0.10732218E+03</pdfrwt>
<totfact> 0.11656091E+05</totfact>
</mgrwt>
</event>
<event>
 4    1  0.5134057E+003  0.1007275E+03  0.7546771E-02  0.1278774E+00
         21   -1    0    0  501  502  0.00000000000E+00  0.00000000000E+00  0.31477561221E+03  0.31477561221E+03  0.00000000000E+00 0. -1.
          1   -1    0    0  503    0 -0.00000000000E+00 -0.00000000000E+00 -0.75836061040E+03  0.75836061040E+03  0.00000000000E+00 0. -1.
         21    1    1    2  503  502  0.73648112591E+02 -0.68716646249E+02  0.30324894240E+03  0.31954020565E+03  0.00000000000E+00 0. -1.
          1    1    1    2  501    0 -0.73648112591E+02  0.68716646249E+02 -0.74683394059E+03  0.75359601696E+03  0.00000000000E+00 0. -1.
<mgrwt>
<rscale>  2 0.10072746E+03</rscale>
<asrwt>0</asrwt>
<pdfrwt beam="1">  1       21 0.48427017E-01 0.10072746E+03</pdfrwt>
<pdfrwt beam="2">  1        1 0.11667086E+00 0.10072746E+03</pdfrwt>
<totfact> 0.12108940E+03</totfact>
</mgrwt>
</event>
<event>
 4    1  0.5134057E+003  0.1190774E+03  0.7546771E-02  0.1244627E+00
         21   -1    0    0  501  502  0.00000000000E+00  0.00000000000E+00  0.11224740694E+02  0.11224740694E+02  0.00000000000E+00 0. -1.
         -1   -1    0    0    0  501 -0.00000000000E+00 -0.00000000000E+00 -0.25674037762E+04  0.25674037762E+04  0.00000000000E+00 0. -1.
         21    1    1    2  503  502 -0.11556175676E+03 -0.28721275127E+02 -0.35916593224E+03  0.37839080083E+03  0.00000000000E+00 0. -1.
         -1    1    1    2    0  503  0.11556175676E+03  0.28721275127E+02 -0.21970131033E+04  0.22002377161E+04  0.00000000000E+00 0. -1.
<mgrwt>
<rscale>  2 0.11907742E+03</rscale>
<asrwt>0</asrwt>
<pdfrwt beam="1">  1       21 0.17268829E-02 0.11907742E+03</pdfrwt>
<pdfrwt beam="2">  1       -1 0.39498527E+00 0.11907742E+03</pdfrwt>
<totfact> 0.14890436E+03</totfact>
</mgrwt>
</event>
<event>
 4    1  0.5134057E+003  0.1353183E+03  0.7546771E-02  0.1219771E+00
          2   -1    0    0  502    0 -0.00000000000E+00  0.00000000000E+00  0.71591418213E+03  0.71591418213E+03  0.00000000000E+00 0.  1.
         21   -1    0    0  503  502  0.00000000000E+00 -0.00000000000E+00 -0.40131328290E+02  0.40131328290E+02  0.00000000000E+00 0.  1.
         21    1    1    2  503  501  0.11107614030E+03  0.77286095494E+02  0.11024024185E+03  0.17453928046E+03  0.00000000000E+00 0.  1.
          2    1    1    2  501    0 -0.11107614030E+03 -0.77286095494E+02  0.56554261199E+03  0.58150622996E+03  0.00000000000E+00 0.  1.
<mgrwt>
<rscale>  2 0.13531833E+03</rscale>
<asrwt>0</asrwt>
<pdfrwt beam="2">  1       21 0.61740510E-02 0.13531833E+03</pdfrwt>
<pdfrwt beam="1">  1        2 0.11014063E+00 0.13531833E+03</pdfrwt>
<totfact> 0.96308646E+04</totfact>
</mgrwt>
</event>
<event>
 4    1  0.5134057E+003  0.1073767E+03  0.7546771E-02  0.1265506E+00
          2   -1    0    0  503    0 -0.00000000000E+00  0.00000000000E+00  0.16498147203E+02  0.16498147203E+02  0.00000000000E+00 0.  1.
         21   -1    0    0  501  502  0.00000000000E+00 -0.00000000000E+00 -0.75562076032E+03  0.75562076032E+03  0.00000000000E+00 0.  1.
         21    1    1    2  503  502 -0.68709839027E+02  0.82514970682E+02 -0.47537872025E+03  0.48735478866E+03  0.00000000000E+00 0.  1.
          2    1    1    2  501    0  0.68709839027E+02 -0.82514970682E+02 -0.26374389287E+03  0.28476411887E+03  0.00000000000E+00 0.  1.
<mgrwt>
<rscale>  2 0.10737673E+03</rscale>
<asrwt>0</asrwt>
<pdfrwt beam="2">  1       21 0.11624937E+00 0.10737673E+03</pdfrwt>
<pdfrwt beam="1">  1        2 0.25381760E-02 0.10737673E+03</pdfrwt>
<totfact> 0.26820307E+04</totfact>
</mgrwt>
</event>
<event>
 4    1  0.5134057E+003  0.1334193E+03  0.7546771E-02  0.1222468E+00
         21   -1    0    0  503  502  0.00000000000E+00  0.00000000000E+00  0.65017006873E+03  0.65017006873E+03  0.00000000000E+00 0.  1.
          2   -1    0    0  502    0 -0.00000000000E+00 -0.00000000000E+00 -0.65991473863E+03  0.65991473863E+03  0.00000000000E+00 0.  1.
         21    1    1    2  503  501 -0.43085703951E+02  0.12627089760E+03  0.63643792401E+03  0.65027221114E+03  0.00000000000E+00 0.  1.
          2    1    1    2  501    0  0.43085703951E+02 -0.12627089760E+03 -0.64618259391E+03  0.65981259622E+03  0.00000000000E+00 0.  1.
<mgrwt>
<rscale>  2 0.13341933E+03</rscale>
<asrwt>0</asrwt>
<pdfrwt beam="1">  1       21 0.10002616E+00 0.13341933E+03</pdfrwt>
<pdfrwt beam="2">  1        2 0.10152534E+00 0.13341933E+03</pdfrwt>
<totfact> 0.48771978E+02</totfact>
</mgrwt>
</event>
<event>
 4    1  0.5134057E+003  0.1629675E+03  0.7546771E-02  0.1185387E+00
         21   -1    0    0  503  502  0.00000000000E+00  0.00000000000E+00  0.81204917199E+03  0.81204917199E+03  0.00000000000E+00 0.  1.
          1   -1    0    0  502    0 -0.00000000000E+00 -0.00000000000E+00 -0.22626951109E+04  0.22626951109E+04  0.00000000000E+00 0.  1.
         21    1    1    2  503  501 -0.15570385837E+03  0.48111555083E+02  0.80089799553E+03  0.81731023026E+03  0.00000000000E+00 0.  1.
          1    1    1    2  501    0  0.15570385837E+03 -0.48111555083E+02 -0.22515439344E+04  0.22574340526E+04  0.00000000000E+00 0.  1.
<mgrwt>
<rscale>  2 0.16296752E+03</rscale>
<asrwt>0</asrwt>
<pdfrwt beam="1">  1       21 0.12493064E+00 0.16296752E+03</pdfrwt>
<pdfrwt beam="2">  1        1 0.34810694E+00 0.16296752E+03</pdfrwt>
<totfact> 0.13012415E+01</totfact>
</mgrwt>
</event>
<event>
 4    1  0.5134057E+003  0.1025027E+03  0.7546771E-02  0.1275119E+00
         21   -1    0    0  501  502  0.00000000000E+00  0.00000000000E+00  0.17050540768E+03  0.17050540768E+03  0.00000000000E+00 0. -1.
         -4   -1    0    0    0  501 -0.00000000000E+00 -0.00000000000E+00 -0.75313173041E+02  0.75313173041E+02  0.00000000000E+00 0.  1.
         21    1    1    2  503  502 -0.25920217671E+02 -0.99171342454E+02  0.10000153760E+03  0.14320307388E+03  0.00000000000E+00 0. -1.
         -4    1    1    2    0  503  0.25920217671E+02  0.99171342454E+02 -0.48093029578E+01  0.10261550684E+03  0.00000000000E+00 0.  1.
<mgrwt>
<rscale>  2 0.10250275E+03</rscale>
<asrwt>0</asrwt>
<pdfrwt beam="1">  1       21 0.26231601E-01 0.10250275E+03</pdfrwt>
<pdfrwt beam="2">  1       -4 0.11586642E-01 0.10250275E+03</pdfrwt>
<totfact> 0.32156666E+04</totfact>
</mgrwt>
</event>
<event>
 4    1  0.5134057E+003  0.1393075E+03  0.7546771E-02  0.1214264E+00
         -2   -1    0    0    0  501 -0.00000000000E+00  0.00000000000E+00  0.85789457854E+02  0.85789457854E+02  0.00000000000E+00 0.  1.
         21   -1    0    0  501  502  0.00000000000E+00 -0.00000000000E+00 -0.50777357565E+03  0.50777357565E+03  0.00000000000E+00 0. -1.
         21    1    1    2  503  502  0.13633354028E+03  0.28631031938E+02 -0.43199029462E+03  0.45389666758E+03  0.00000000000E+00 0. -1.
         -2    1    1    2    0  503 -0.13633354028E+03 -0.28631031938E+02  0.10006176820E+02  0.13966636593E+03  0.00000000000E+00 0.  1.
<mgrwt>
<rscale>  2 0.13930747E+03</rscale>
<asrwt>0</asrwt>
<pdfrwt beam="2">  1       21 0.78119013E-01 0.13930747E+03</pdfrwt>
<pdfrwt beam="1">  1       -2 0.13198378E-01 0.13930747E+03</pdfrwt>
<totfact> 0.48990720E+03</totfact>
</mgrwt>
</event>
<event>
 4    1  0.5134057E+003  0.1118711E+03  0.7546771E-02  0.1257144E+00
         21   -1    0    0  503  502  0.00000000000E+00  0.00000000000E+00  0.84979311693E+02  0.84979311693E+02  0.00000000000E+00 0. -1.
          2   -1    0    0  502    0 -0.00000000000E+00 -0.00000000000E+00 -0.20336792925E+04  0.20336792925E+04  0.00000000000E+00 0. -1.
         21    1    1    2  503  501 -0.83872528738E+02 -0.74030620204E+02  0.45901888898E+02  0.12092194676E+03  0.00000000000E+00 0. -1.
          2    1    1    2  501    0  0.83872528738E+02  0.74030620204E+02 -0.19946018697E+04  0.19977366574E+04  0.00000000000E+00 0. -1.
<mgrwt>
<rscale>  2 0.11187106E+03</rscale>
<asrwt>0</asrwt>
<pdfrwt beam="1">  1       21 0.13073740E-01 0.11187106E+03</pdfrwt>
<pdfrwt beam="2">  1        2 0.31287373E+00 0.11187106E+03</pdfrwt>
<totfact> 0.48995213E+03</totfact>
</mgrwt>
</event>
<event>
 4    1  0.5134057E+003  0.1058929E+03  0.7546771E-02  0.1268370E+00
          2   -1    0    0  502    0 -0.00000000000E+00  0.00000000000E+00  0.43788022521E+03  0.43788022521E+03  0.00000000000E+00 0.  1.
         21   -1    0    0  503  502  0.00000000000E+00 -0.00000000000E+00 -0.13534562182E+03  0.13534562182E+03  0.00000000000E+00 0.  1.
         21    1    1    2  503  501 -0.87955622366E+02  0.58967038067E+02 -0.10681078822E+03  0.15040561015E+03  0.00000000000E+00 0.  1.
          2    1    1    2  501    0  0.87955622366E+02 -0.58967038067E+02  0.40934539161E+03  0.42282023688E+03  0.00000000000E+00 0.  1.
<mgrwt>
<rscale>  2 0.10589288E+03</rscale>
<asrwt>0</asrwt>
<pdfrwt beam="2">  1       21 0.20822404E-01 0.10589288E+03</pdfrwt>
<pdfrwt beam="1">  1        2 0.67366188E-01 0.10589288E+03</pdfrwt>
<totfact> 0.19525753E+04</totfact>
</mgrwt>
</event>
<event>
 4    1  0.5134057E+003  0.1353028E+03  0.7546771E-02  0.1219793E+00
          2   -1    0    0  502    0 -0.00000000000E+00  0.00000000000E+00  0.95185622964E+03  0.95185622964E+03  0.00000000000E+00 0. -1.
         21   -1    0    0  503  502  0.00000000000E+00 -0.00000000000E+00 -0.33698426660E+02  0.33698426660E+02  0.00000000000E+00 0. -1.
         21    1    1    2  503  501  0.13418822938E+03  0.17331126077E+02  0.13621854934E+03  0.19199568230E+03  0.00000000000E+00 0. -1.
          2    1    1    2  501    0 -0.13418822938E+03 -0.17331126077E+02  0.78193925364E+03  0.79355897400E+03  0.00000000000E+00 0. -1.
<mgrwt>
<rscale>  2 0.13530280E+03</rscale>
<asrwt>0</asrwt>
<pdfrwt beam="2">  1       21 0.51843741E-02 0.13530280E+03</pdfrwt>
<pdfrwt beam="1">  1        2 0.14643940E+00 0.13530280E+03</pdfrwt>
<totfact> 0.90348573E+04</totfact>
</mgrwt>
</event>
<event>
 4    1  0.5134057E+003  0.1006312E+03  0.7546771E-02  0.1278974E+00
         21   -1    0    0  503  502  0.00000000000E+00  0.00000000000E+00  0.43036343578E+01  0.43036343578E+01  0.00000000000E+00 0.  1.
         -3   -1    0    0    0  501 -0.00000000000E+00 -0.00000000000E+00 -0.24101489569E+04  0.24101489569E+04  0.00000000000E+00 0.  1.
         21    1    1    2  503  501 -0.67423383713E+02  0.74704268626E+02 -0.13887476702E+04  0.13923888580E+04  0.00000000000E+00 0.  1.
         -3    1    1    2    0  502  0.67423383713E+02 -0.74704268626E+02 -0.10170976523E+04  0.10220637332E+04  0.00000000000E+00 0.  1.
<mgrwt>
<rscale>  2 0.10063121E+03</rscale>
<asrwt>0</asrwt>
<pdfrwt beam="1">  1       21 0.66209702E-03 0.10063121E+03</pdfrwt>
<pdfrwt beam="2">  1       -3 0.37079247E+00 0.10063121E+03</pdfrwt>
<totfact> 0.66555600E+03</totfact>
</mgrwt>
</event>
<event>
 4    1  0.5134057E+003  0.1488842E+03  0.7546771E-02  0.1201851E+00
         21   -1    0    0  503  502  0.00000000000E+00  0.00000000000E+00  0.88698432934E+02  0.88698432934E+02  0.00000000000E+00 0. -1.
         -2   -1    0    0    0  501 -0.00000000000E+00 -0.00000000000E+00 -0.21997791777E+04  0.21997791777E+04  0.00000000000E+00 0. -1.
         21    1    1    2  503  501  0.85677422990E+02 -0.12176158703E+03  0.21743150117E+02  0.15046351539E+03  0.00000000000E+00 0. -1.
         -2    1    1    2    0  502 -0.85677422990E+02  0.12176158703E+03 -0.21328238948E+04  0.21380140952E+04  0.00000000000E+00 0. -1.
<mgrwt>
<rscale>  2 0.14888420E+03</rscale>
<asrwt>0</asrwt>
<pdfrwt beam="1">  1       21 0.13645912E-01 0.14888420E+03</pdfrwt>
<pdfrwt beam="2">  1       -2 0.33842758E+00 0.14888420E+03</pdfrwt>
<totfact> 0.88181628E+01</totfact>
</mgrwt>
</event>
<event>
 4    1  0.5134057E+003  0.1316953E+03  0.7546771E-02  0.1224962E+00
          4   -1    0    0  502    0 -0.00000000000E+00  0.00000000000E+00  0.69822064240E+02  0.69822064240E+02  0.00000000000E+00 0.  1.
         21   -1    0    0  503  502  0.00000000000E+00 -0.00000000000E+00 -0.32857992425E+03  0.32857992425E+03  0.00000000000E+00 0.  1.
         21    1    1    2  503  501  0.62326444822E+02  0.11601320955E+03 -0.22778222422E+03  0.26311288868E+03  0.00000000000E+00 0.  1.
          4    1    1    2  501    0 -0.62326444822E+02 -0.11601320955E+03 -0.30975635781E+02  0.13528909981E+03  0.00000000000E+00 0.  1.
<mgrwt>
<rscale>  2 0.13169529E+03</rscale>
<asrwt>0</asrwt>
<pdfrwt beam="2">  1       21 0.50550758E-01 0.13169529E+03</pdfrwt>
<pdfrwt beam="1">  1        4 0.10741856E-01 0.13169529E+03</pdfrwt>
<totfact> 0.10276679E+04</totfact>
</mgrwt>
</event>
<event>
 4    1  0.5134057E+003  0.1151642E+03  0.7546771E-02  0.1251295E+00
          1   -1    0    0  502    0 -0.00000000000E+00  0.00000000000E+00  0.12430607598E+04  0.12430607598E+04  0.00000000000E+00 0.  1.
         21   -1    0    0  503  502  0.00000000000E+00 -0.00000000000E+00 -0.48304081998E+02  0.48304081998E+02  0.00000000000E+00 0. -1.
         21    1    1    2  503  501 -0.75265927708E+02  0.87165530645E+02  0.27449263405E+02  0.11839025157E+03  0.00000000000E+00 0. -1.
          1    1    1    2  501    0  0.75265927708E+02 -0.87165530645E+02  0.11673074144E+04  0.11729745902E+04  0.00000000000E+00 0.  1.
<mgrwt>
<rscale>  2 0.11516419E+03</rscale>
<asrwt>0</asrwt>
<pdfrwt beam="2">  1       21 0.74313981E-02 0.11516419E+03</pdfrwt>
<pdfrwt beam="1">  1        1 0.19124009E+00 0.11516419E+03</pdfrwt>
<totfact> 0.16818136E+04</totfact>
</mgrwt>
</event>
<event>
 4    1  0.5134057E+003  0.1163209E+03  0.7546771E-02  0.1249293E+00
          2   -1    0    0  503    0 -0.00000000000E+00  0.00000000000E+00  0.80284104589E+03  0.80284104589E+03  0.00000000000E+00 0.  1.
         21   -1    0    0  501  502  0.00000000000E+00 -0.00000000000E+00 -0.18635856414E+02  0.18635856414E+02  0.00000000000E+00 0. -1.
         21    1    1    2  503  502 -0.10867191745E+03  0.41484556188E+02  0.26507229854E+03  0.28947172141E+03  0.00000000000E+00 0. -1.
          2    1    1    2  501    0  0.10867191745E+03 -0.41484556188E+02  0.51913289094E+03  0.53200518089E+03  0.00000000000E+00 0.  1.
<mgrwt>
<rscale>  2 0.11632091E+03</rscale>
<asrwt>0</asrwt>
<pdfrwt beam="2">  1       21 0.28670555E-02 0.11632091E+03</pdfrwt>
<pdfrwt beam="1">  1        2 0.12351398E+00 0.11632091E+03</pdfrwt>
<totfact> 0.29903022E+05</totfact>
</mgrwt>
</event>
<event>
 4    1  0.5134057E+003  0.1061767E+03  0.7546771E-02  0.1267818E+00
          2   -1    0    0  503    0 -0.00000000000E+00  0.00000000000E+00  0.76480533777E+03  0.76480533777E+03  0.00000000000E+00 0. -1.
         21   -1    0    0  501  502  0.00000000000E+00 -0.00000000000E+00 -0.49942907726E+02  0.49942907726E+02  0.00000000000E+00 0. -1.
         21    1    1    2  503  502 -0.13575723010E+02 -0.10530519995E+03  0.15417327810E+02  0.10729016445E+03  0.00000000000E+00 0. -1.
          2    1    1    2  501    0  0.13575723010E+02  0.10530519995E+03  0.69944510223E+03  0.70745808104E+03  0.00000000000E+00 0. -1.
<mgrwt>
<rscale>  2 0.10617667E+03</rscale>
<asrwt>0</asrwt>
<pdfrwt beam="2">  1       21 0.76835248E-02 0.10617667E+03</pdfrwt>
<pdfrwt beam="1">  1        2 0.11766235E+00 0.10617667E+03</pdfrwt>
<totfact> 0.61051048E+04</totfact>
</mgrwt>
</event>
<event>
 4    1  0.5134057E+003  0.1105787E+03  0.7546771E-02  0.1259502E+00
         21   -1    0    0  501  502  0.00000000000E+00  0.00000000000E+00  0.20530777635E+02  0.20530777635E+02  0.00000000000E+00 0.  1.
         -3   -1    0    0    0  501 -0.00000000000E+00 -0.00000000000E+00 -0.14483889320E+04  0.14483889320E+04  0.00000000000E+00 0. -1.
         21    1    1    2  503  502 -0.10086421104E+03  0.45321766635E+02 -0.15035346823E+03  0.18663819815E+03  0.00000000000E+00 0.  1.
         -3    1    1    2    0  503  0.10086421104E+03 -0.45321766635E+02 -0.12775046861E+04  0.12822815115E+04  0.00000000000E+00 0. -1.
<mgrwt>
<rscale>  2 0.11057871E+03</rscale>
<asrwt>0</asrwt>
<pdfrwt beam="1">  1       21 0.31585793E-02 0.11057871E+03</pdfrwt>
<pdfrwt beam="2">  1       -3 0.22282920E+00 0.11057871E+03</pdfrwt>
<totfact> 0.33384718E+03</totfact>
</mgrwt>
</event>
<event>
 4    1  0.5134057E+003  0.1225026E+03  0.7546771E-02  0.1239025E+00
         -4   -1    0    0    0  501 -0.00000000000E+00  0.00000000000E+00  0.24118578646E+04  0.24118578646E+04  0.00000000000E+00 0. -1.
         21   -1    0    0  503  502  0.00000000000E+00 -0.00000000000E+00 -0.22029199257E+03  0.22029199257E+03  0.00000000000E+00 0. -1.
         21    1    1    2  503  501  0.12190042437E+03  0.12131200256E+02 -0.20157266498E+03  0.23587797428E+03  0.00000000000E+00 0. -1.
         -4    1    1    2    0  502 -0.12190042437E+03 -0.12131200256E+02  0.23931385371E+04  0.23962718829E+04  0.00000000000E+00 0. -1.
<mgrwt>
<rscale>  2 0.12250257E+03</rscale>
<asrwt>0</asrwt>
<pdfrwt beam="2">  1       21 0.33891077E-01 0.12250257E+03</pdfrwt>
<pdfrwt beam="1">  1       -4 0.37105504E+00 0.12250257E+03</pdfrwt>
<totfact> 0.51829413E+00</totfact>
</mgrwt>
</event>
<event>
 4    1  0.5134057E+003  0.1029417E+03  0.7546771E-02  0.1274229E+00
          4   -1    0    0  503    0 -0.00000000000E+00  0.00000000000E+00  0.19818770774E+03  0.19818770774E+03  0.00000000000E+00 0. -1.
         21   -1    0    0  501  502  0.00000000000E+00 -0.00000000000E+00 -0.58836371833E+02  0.58836371833E+02  0.00000000000E+00 0. -1.
         21    1    1    2  503  502 -0.64068165572E+02 -0.80574556983E+02  0.30862129631E+02  0.10746841451E+03  0.00000000000E+00 0. -1.
          4    1    1    2  501    0  0.64068165572E+02  0.80574556983E+02  0.10848920628E+03  0.14955566506E+03  0.00000000000E+00 0. -1.
<mgrwt>
<rscale>  2 0.10294168E+03</rscale>
<asrwt>0</asrwt>
<pdfrwt beam="2">  1       21 0.90517496E-02 0.10294168E+03</pdfrwt>
<pdfrwt beam="1">  1        4 0.30490416E-01 0.10294168E+03</pdfrwt>
<totfact> 0.38998814E+04</totfact>
</mgrwt>
</event>
<event>
 4    1  0.5134057E+003  0.1427613E+03  0.7546771E-02  0.1209661E+00
         -2   -1    0    0    0  501 -0.00000000000E+00  0.00000000000E+00  0.36967313017E+03  0.36967313017E+03  0.00000000000E+00 0.  1.
         21   -1    0    0  503  502  0.00000000000E+00 -0.00000000000E+00 -0.48442991181E+03  0.48442991181E+03  0.00000000000E+00 0.  1.
         21    1    1    2  503  501  0.62299720154E+02 -0.12845048337E+03 -0.45939522216E+03  0.48106626566E+03  0.00000000000E+00 0.  1.
         -2    1    1    2    0  502 -0.62299720154E+02  0.12845048337E+03  0.34463844052E+03  0.37303677633E+03  0.00000000000E+00 0.  1.
<mgrwt>
<rscale>  2 0.14276128E+03</rscale>
<asrwt>0</asrwt>
<pdfrwt beam="2">  1       21 0.74527679E-01 0.14276128E+03</pdfrwt>
<pdfrwt beam="1">  1       -2 0.56872789E-01 0.14276128E+03</pdfrwt>
<totfact> 0.39760788E+02</totfact>
</mgrwt>
</event>
<event>
 4    1  0.5134057E+003  0.1020750E+03  0.7546771E-02  0.1275992E+00
         21   -1    0    0  503  502  0.00000000000E+00  0.00000000000E+00  0.42191540496E+03  0.42191540496E+03  0.00000000000E+00 0. -1.
          3   -1    0    0  502    0 -0.00000000000E+00 -0.00000000000E+00 -0.12023847565E+03  0.12023847565E+03  0.00000000000E+00 0. -1.
         21    1    1    2  503  501 -0.91623073073E+02 -0.44994754273E+02  0.39247953195E+03  0.40553606304E+03  0.00000000000E+00 0. -1.
          3    1    1    2  501    0  0.91623073073E+02  0.44994754273E+02 -0.90802602635E+02  0.13661781757E+03  0.00000000000E+00 0. -1.
<mgrwt>
<rscale>  2 0.10207505E+03</rscale>
<asrwt>0</asrwt>
<pdfrwt beam="1">  1       21 0.64910062E-01 0.10207505E+03</pdfrwt>
<pdfrwt beam="2">  1        3 0.18498227E-01 0.10207505E+03</pdfrwt>
<totfact> 0.27508831E+03</totfact>
</mgrwt>
</event>
<event>
 4    1  0.5134057E+003  0.1212586E+03  0.7546771E-02  0.1241035E+00
         21   -1    0    0  501  502  0.00000000000E+00  0.00000000000E+00  0.90954048573E+03  0.90954048573E+03  0.00000000000E+00 0. -1.
          1   -1    0    0  503    0 -0.00000000000E+00 -0.00000000000E+00 -0.16203993957E+02  0.16203993957E+02  0.00000000000E+00 0.  1.
         21    1    1    2  503  502 -0.12083673119E+03  0.10105696874E+02  0.46907863584E+03  0.48449809836E+03  0.00000000000E+00 0. -1.
          1    1    1    2  501    0  0.12083673119E+03 -0.10105696874E+02  0.42425785594E+03  0.44124638133E+03  0.00000000000E+00 0.  1.
<mgrwt>
<rscale>  2 0.12125857E+03</rscale>
<asrwt>0</asrwt>
<pdfrwt beam="1">  1       21 0.13992927E+00 0.12125857E+03</pdfrwt>
<pdfrwt beam="2">  1        1 0.24929229E-02 0.12125857E+03</pdfrwt>
<totfact> 0.16699990E+04</totfact>
</mgrwt>
</event>
<event>
 4    1  0.5134057E+003  0.1986779E+03  0.7546771E-02  0.1150859E+00
         21   -1    0    0  501  502  0.00000000000E+00  0.00000000000E+00  0.41547921308E+02  0.41547921308E+02  0.00000000000E+00 0. -1.
         -3   -1    0    0    0  501 -0.00000000000E+00 -0.00000000000E+00 -0.14768234434E+04  0.14768234434E+04  0.00000000000E+00 0. -1.
         21    1    1    2  503  502  0.22108979869E+01 -0.19866557101E+03 -0.26422604909E+03  0.33058781313E+03  0.00000000000E+00 0. -1.
         -3    1    1    2    0  503 -0.22108979869E+01  0.19866557101E+03 -0.11710494730E+04  0.11877835516E+04  0.00000000000E+00 0. -1.
<mgrwt>
<rscale>  2 0.19867787E+03</rscale>
<asrwt>0</asrwt>
<pdfrwt beam="1">  1       21 0.63919884E-02 0.19867787E+03</pdfrwt>
<pdfrwt beam="2">  1       -3 0.22720359E+00 0.19867787E+03</pdfrwt>
<totfact> 0.97054260E+02</totfact>
</mgrwt>
</event>
<event>
 4    1  0.5134057E+003  0.1366172E+03  0.7546771E-02  0.1217955E+00
          2   -1    0    0  502    0 -0.00000000000E+00  0.00000000000E+00  0.60436098636E+03  0.60436098636E+03  0.00000000000E+00 0.  1.
         21   -1    0    0  503  502  0.00000000000E+00 -0.00000000000E+00 -0.88702287220E+02  0.88702287220E+02  0.00000000000E+00 0.  1.
         21    1    1    2  503  501 -0.62556769243E+02  0.12145329946E+03 -0.21948455145E+02  0.13836902837E+03  0.00000000000E+00 0.  1.
          2    1    1    2  501    0  0.62556769243E+02 -0.12145329946E+03  0.53760715428E+03  0.55469424521E+03  0.00000000000E+00 0.  1.
<mgrwt>
<rscale>  2 0.13661718E+03</rscale>
<asrwt>0</asrwt>
<pdfrwt beam="2">  1       21 0.13646506E-01 0.13661718E+03</pdfrwt>
<pdfrwt beam="1">  1        2 0.92978611E-01 0.13661718E+03</pdfrwt>
<totfact> 0.29448778E+04</totfact>
</mgrwt>
</event>
<event>
 4    1  0.5134057E+003  0.1177931E+03  0.7546771E-02  0.1246783E+00
         21   -1    0    0  503  502  0.00000000000E+00  0.00000000000E+00  0.13012566878E+02  0.13012566878E+02  0.00000000000E+00 0. -1.
         -2   -1    0    0    0  501 -0.00000000000E+00 -0.00000000000E+00 -0.15526891114E+04  0.15526891114E+04  0.00000000000E+00 0. -1.
         21    1    1    2  503  501  0.31144636088E+02 -0.11360121772E+03 -0.33167974902E+03  0.35197539820E+03  0.00000000000E+00 0. -1.
         -2    1    1    2    0  502 -0.31144636088E+02  0.11360121772E+03 -0.12079967955E+04  0.12137262801E+04  0.00000000000E+00 0. -1.
<mgrwt>
<rscale>  2 0.11779315E+03</rscale>
<asrwt>0</asrwt>
<pdfrwt beam="1">  1       21 0.20019342E-02 0.11779315E+03</pdfrwt>
<pdfrwt beam="2">  1       -2 0.23887515E+00 0.11779315E+03</pdfrwt>
<totfact> 0.85600114E+03</totfact>
</mgrwt>
</event>
<event>
 4    1  0.5134057E+003  0.1489270E+03  0.7546771E-02  0.1201798E+00
         -1   -1    0    0    0  501 -0.00000000000E+00  0.00000000000E+00  0.17017717797E+03  0.17017717797E+03  0.00000000000E+00 0. -1.
         21   -1    0    0  501  502  0.00000000000E+00 -0.00000000000E+00 -0.96421648363E+03  0.96421648363E+03  0.00000000000E+00 0.  1.
         21    1    1    2  503  502  0.68494847885E+02  0.13224109125E+03 -0.92449224342E+03  0.93641078515E+03  0.00000000000E+00 0.  1.
         -1    1    1    2    0  503 -0.68494847885E+02 -0.13224109125E+03  0.13045293775E+03  0.19798287646E+03  0.00000000000E+00 0. -1.
<mgrwt>
<rscale>  2 0.14892700E+03</rscale>
<asrwt>0</asrwt>
<pdfrwt beam="2">  1       21 0.14834100E+00 0.14892700E+03</pdfrwt>
<pdfrwt beam="1">  1       -1 0.26181104E-01 0.14892700E+03</pdfrwt>
<totfact> 0.37238590E+02</totfact>
</mgrwt>
</event>
<event>
 4    1  0.5134057E+003  0.1167217E+03  0.7546771E-02  0.1248605E+00
         21   -1    0    0  503  502  0.00000000000E+00  0.00000000000E+00  0.20111217827E+02  0.20111217827E+02  0.00000000000E+00 0. -1.
          2   -1    0    0  502    0 -0.00000000000E+00 -0.00000000000E+00 -0.73477343620E+03  0.73477343620E+03  0.00000000000E+00 0.  1.
         21    1    1    2  503  501 -0.11582775526E+03 -0.14418404656E+02 -0.25188937608E+03  0.27761883413E+03  0.00000000000E+00 0. -1.
          2    1    1    2  501    0  0.11582775526E+03  0.14418404656E+02 -0.46277284229E+03  0.47726581990E+03  0.00000000000E+00 0.  1.
<mgrwt>
<rscale>  2 0.11672172E+03</rscale>
<asrwt>0</asrwt>
<pdfrwt beam="1">  1       21 0.30940333E-02 0.11672172E+03</pdfrwt>
<pdfrwt beam="2">  1        2 0.11304207E+00 0.11672172E+03</pdfrwt>
<totfact> 0.29409799E+05</totfact>
</mgrwt>
</event>
<event>
 4    1  0.5134057E+003  0.1004395E+03  0.7546771E-02  0.1279374E+00
         -2   -1    0    0    0  501 -0.00000000000E+00  0.00000000000E+00  0.21137213461E+02  0.21137213461E+02  0.00000000000E+00 0. -1.
         21   -1    0    0  503  502  0.00000000000E+00 -0.00000000000E+00 -0.69195381927E+03  0.69195381927E+03  0.00000000000E+00 0.  1.
         21    1    1    2  503  501  0.76026234925E+02 -0.65636129809E+02 -0.53400834279E+03  0.54337188012E+03  0.00000000000E+00 0.  1.
         -2    1    1    2    0  502 -0.76026234925E+02  0.65636129809E+02 -0.13680826301E+03  0.16971915261E+03  0.00000000000E+00 0. -1.
<mgrwt>
<rscale>  2 0.10043948E+03</rscale>
<asrwt>0</asrwt>
<pdfrwt beam="2">  1       21 0.10645445E+00 0.10043948E+03</pdfrwt>
<pdfrwt beam="1">  1       -2 0.32518785E-02 0.10043948E+03</pdfrwt>
<totfact> 0.20497743E+04</totfact>
</mgrwt>
</event>
<event>
 4    1  0.5134057E+003  0.1169739E+03  0.7546771E-02  0.1248174E+00
         21   -1    0    0  501  502  0.00000000000E+00  0.00000000000E+00  0.67542534702E+02  0.67542534702E+02  0.00000000000E+00 0.  1.
          2   -1    0    0  503    0 -0.00000000000E+00 -0.00000000000E+00 -0.34669213466E+03  0.34669213466E+03  0.00000000000E+00 0. -1.
         21    1    1    2  503  502  0.91461594548E+02 -0.72922288956E+02 -0.60407184638E+01  0.11712973057E+03  0.00000000000E+00 0.  1.
          2    1    1    2  501    0 -0.91461594548E+02  0.72922288956E+02 -0.27310888149E+03  0.29710493879E+03  0.00000000000E+00 0. -1.
<mgrwt>
<rscale>  2 0.11697386E+03</rscale>
<asrwt>0</asrwt>
<pdfrwt beam="1">  1       21 0.10391159E-01 0.11697386E+03</pdfrwt>
<pdfrwt beam="2">  1        2 0.53337250E-01 0.11697386E+03</pdfrwt>
<totfact> 0.87128928E+04</totfact>
</mgrwt>
</event>
<event>
 4    1  0.5134057E+003  0.1294069E+03  0.7546771E-02  0.1228338E+00
         21   -1    0    0  503  502  0.00000000000E+00  0.00000000000E+00  0.21512793568E+03  0.21512793568E+03  0.00000000000E+00 0. -1.
         -2   -1    0    0    0  501 -0.00000000000E+00 -0.00000000000E+00 -0.11250942797E+03  0.11250942797E+03  0.00000000000E+00 0.  1.
         21    1    1    2  503  501  0.12826147476E+03  0.17179535139E+02  0.14224304722E+03  0.19229983572E+03  0.00000000000E+00 0. -1.
         -2    1    1    2    0  502 -0.12826147476E+03 -0.17179535139E+02 -0.39624539508E+02  0.13533752793E+03  0.00000000000E+00 0.  1.
<mgrwt>
<rscale>  2 0.12940689E+03</rscale>
<asrwt>0</asrwt>
<pdfrwt beam="1">  1       21 0.33096606E-01 0.12940689E+03</pdfrwt>
<pdfrwt beam="2">  1       -2 0.17309143E-01 0.12940689E+03</pdfrwt>
<totfact> 0.18732686E+04</totfact>
</mgrwt>
</event>
<event>
 4    1  0.5134057E+003  0.1099091E+03  0.7546771E-02  0.1260738E+00
          4   -1    0    0  503    0 -0.00000000000E+00  0.00000000000E+00  0.38253453089E+03  0.38253453089E+03  0.00000000000E+00 0. -1.
         21   -1    0    0  501  502  0.00000000000E+00 -0.00000000000E+00 -0.50123511543E+02  0.50123511543E+02  0.00000000000E+00 0.  1.
         21    1    1    2  503  502  0.46908975154E+02 -0.99395939481E+02  0.34621423410E+02  0.11523301478E+03  0.00000000000E+00 0.  1.
          4    1    1    2  501    0 -0.46908975154E+02  0.99395939481E+02  0.29778959594E+03  0.31742502766E+03  0.00000000000E+00 0. -1.
<mgrwt>
<rscale>  2 0.10990907E+03</rscale>
<asrwt>0</asrwt>
<pdfrwt beam="2">  1       21 0.77113097E-02 0.10990907E+03</pdfrwt>
<pdfrwt beam="1">  1        4 0.58851464E-01 0.10990907E+03</pdfrwt>
<totfact> 0.14114602E+04</totfact>
</mgrwt>
</event>
<event>
 4    1  0.5134057E+003  0.1187402E+03  0.7546771E-02  0.1245190E+00
          1   -1    0    0  503    0 -0.00000000000E+00  0.00000000000E+00  0.22050283215E+04  0.22050283215E+04  0.00000000000E+00 0.  1.
         21   -1    0    0  501  502  0.00000000000E+00 -0.00000000000E+00 -0.77443146530E+01  0.77443146530E+01  0.00000000000E+00 0.  1.
         21    1    1    2  503  502 -0.51660831291E+02 -0.10691298641E+03  0.63667326846E+03  0.64765120160E+03  0.00000000000E+00 0.  1.
          1    1    1    2  501    0  0.51660831291E+02  0.10691298641E+03  0.15606107384E+04  0.15651214345E+04  0.00000000000E+00 0.  1.
<mgrwt>
<rscale>  2 0.11874017E+03</rscale>
<asrwt>0</asrwt>
<pdfrwt beam="2">  1       21 0.11914348E-02 0.11874017E+03</pdfrwt>
<pdfrwt beam="1">  1        1 0.33923463E+00 0.11874017E+03</pdfrwt>
<totfact> 0.81704194E+04</totfact>
</mgrwt>
</event>
<event>
 4    1  0.5134057E+003  0.1046393E+03  0.7546771E-02  0.1270832E+00
         21   -1    0    0  501  502  0.00000000000E+00  0.00000000000E+00  0.10108285448E+02  0.10108285448E+02  0.00000000000E+00 0.  1.
          2   -1    0    0  503    0 -0.00000000000E+00 -0.00000000000E+00 -0.20194098059E+04  0.20194098059E+04  0.00000000000E+00 0. -1.
         21    1    1    2  503  502 -0.10379948116E+03 -0.13230850825E+02 -0.31371899121E+03  0.33070983225E+03  0.00000000000E+00 0.  1.
          2    1    1    2  501    0  0.10379948116E+03  0.13230850825E+02 -0.16955825292E+04  0.16988082591E+04  0.00000000000E+00 0. -1.
<mgrwt>
<rscale>  2 0.10463932E+03</rscale>
<asrwt>0</asrwt>
<pdfrwt beam="1">  1       21 0.15551216E-02 0.10463932E+03</pdfrwt>
<pdfrwt beam="2">  1        2 0.31067828E+00 0.10463932E+03</pdfrwt>
<totfact> 0.17494749E+05</totfact>
</mgrwt>
</event>
<event>
 4    1  0.5134057E+003  0.1024639E+03  0.7546771E-02  0.1275198E+00
         21   -1    0    0  501  502  0.00000000000E+00  0.00000000000E+00  0.70956351098E+02  0.70956351098E+02  0.00000000000E+00 0.  1.
         -1   -1    0    0    0  501 -0.00000000000E+00 -0.00000000000E+00 -0.17774083882E+03  0.17774083882E+03  0.00000000000E+00 0.  1.
         21    1    1    2  503  502 -0.67116993583E+02 -0.77421957165E+02 -0.24942734301E+01  0.10249425193E+03  0.00000000000E+00 0.  1.
         -1    1    1    2    0  503  0.67116993583E+02  0.77421957165E+02 -0.10429021429E+03  0.14620293799E+03  0.00000000000E+00 0.  1.
<mgrwt>
<rscale>  2 0.10246390E+03</rscale>
<asrwt>0</asrwt>
<pdfrwt beam="1">  1       21 0.10916362E-01 0.10246390E+03</pdfrwt>
<pdfrwt beam="2">  1       -1 0.27344744E-01 0.10246390E+03</pdfrwt>
<totfact> 0.73978241E+04</totfact>
</mgrwt>
</event>
<event>
 4    1  0.5134057E+003  0.1005080E+03  0.7546771E-02  0.1279231E+00
          1   -1    0    0  503    0 -0.00000000000E+00  0.00000000000E+00  0.18360225033E+03  0.18360225033E+03  0.00000000000E+00 0.  1.
         21   -1    0    0  501  502  0.00000000000E+00 -0.00000000000E+00 -0.63497893364E+02  0.63497893364E+02  0.00000000000E+00 0. -1.
         21    1    1    2  503  502  0.63977831480E+02  0.77515824380E+02  0.14908438704E+02  0.10160771376E+03  0.00000000000E+00 0. -1.
          1    1    1    2  501    0 -0.63977831480E+02 -0.77515824380E+02  0.10519591826E+03  0.14549242994E+03  0.00000000000E+00 0.  1.
<mgrwt>
<rscale>  2 0.10050804E+03</rscale>
<asrwt>0</asrwt>
<pdfrwt beam="2">  1       21 0.97689068E-02 0.10050804E+03</pdfrwt>
<pdfrwt beam="1">  1        1 0.28246500E-01 0.10050804E+03</pdfrwt>
<totfact> 0.14558079E+05</totfact>
</mgrwt>
</event>
<event>
 4    1  0.5134057E+003  0.1078720E+03  0.7546771E-02  0.1264562E+00
         21   -1    0    0  501  502  0.00000000000E+00  0.00000000000E+00  0.52137068509E+02  0.52137068509E+02  0.00000000000E+00 0. -1.
          1   -1    0    0  503    0 -0.00000000000E+00 -0.00000000000E+00 -0.15622067681E+04  0.15622067681E+04  0.00000000000E+00 0. -1.
         21    1    1    2  503  502  0.83805335823E+02  0.67919281517E+02 -0.77431918121E+01  0.10814952674E+03  0.00000000000E+00 0. -1.
          1    1    1    2  501    0 -0.83805335823E+02 -0.67919281517E+02 -0.15023265078E+04  0.15061943099E+04  0.00000000000E+00 0. -1.
<mgrwt>
<rscale>  2 0.10787198E+03</rscale>
<asrwt>0</asrwt>
<pdfrwt beam="1">  1       21 0.80210884E-02 0.10787198E+03</pdfrwt>
<pdfrwt beam="2">  1        1 0.24033948E+00 0.10787198E+03</pdfrwt>
<totfact> 0.91598402E+03</totfact>
</mgrwt>
</event>
<event>
 4    1  0.5134057E+003  0.1085441E+03  0.7546771E-02  0.1263290E+00
         -3   -1    0    0    0  501 -0.00000000000E+00  0.00000000000E+00  0.48540451417E+03  0.48540451417E+03  0.00000000000E+00 0. -1.
         21   -1    0    0  501  502  0.00000000000E+00 -0.00000000000E+00 -0.44286344710E+02  0.44286344710E+02  0.00000000000E+00 0. -1.
         21    1    1    2  503  502  0.44239339529E+02 -0.99119619557E+02  0.42515442905E+02  0.11657350054E+03  0.00000000000E+00 0. -1.
         -3    1    1    2    0  503 -0.44239339529E+02  0.99119619557E+02  0.39860272655E+03  0.41311735833E+03  0.00000000000E+00 0. -1.
<mgrwt>
<rscale>  2 0.10854408E+03</rscale>
<asrwt>0</asrwt>
<pdfrwt beam="2">  1       21 0.68132841E-02 0.10854408E+03</pdfrwt>
<pdfrwt beam="1">  1       -3 0.74677614E-01 0.10854408E+03</pdfrwt>
<totfact> 0.13065279E+04</totfact>
</mgrwt>
</event>
<event>
 4    1  0.5134057E+003  0.1295208E+03  0.7546771E-02  0.1228169E+00
          2   -1    0    0  502    0 -0.00000000000E+00  0.00000000000E+00  0.77931482630E+03  0.77931482630E+03  0.00000000000E+00 0.  1.
         21   -1    0    0  503  502  0.00000000000E+00 -0.00000000000E+00 -0.31329775522E+02  0.31329775522E+02  0.00000000000E+00 0. -1.
         21    1    1    2  503  501 -0.30876813045E+02 -0.12578653571E+03  0.14725901202E+03  0.19611437166E+03  0.00000000000E+00 0. -1.
          2    1    1    2  501    0  0.30876813045E+02  0.12578653571E+03  0.60072603875E+03  0.61453023016E+03  0.00000000000E+00 0.  1.
<mgrwt>
<rscale>  2 0.12952077E+03</rscale>
<asrwt>0</asrwt>
<pdfrwt beam="2">  1       21 0.48199660E-02 0.12952077E+03</pdfrwt>
<pdfrwt beam="1">  1        2 0.11989457E+00 0.12952077E+03</pdfrwt>
<totfact> 0.13186804E+05</totfact>
</mgrwt>
</event>
<event>
 4    1  0.5134057E+003  0.1289795E+03  0.7546771E-02  0.1228978E+00
          2   -1    0    0  502    0 -0.00000000000E+00  0.00000000000E+00  0.90769101760E+03  0.90769101760E+03  0.00000000000E+00 0.  1.
         21   -1    0    0  503  502  0.00000000000E+00 -0.00000000000E+00 -0.31120645039E+02  0.31120645039E+02  0.00000000000E+00 0.  1.
         21    1    1    2  503  501  0.10564812657E+03  0.73987680738E+02  0.13732232014E+03  0.18839618668E+03  0.00000000000E+00 0.  1.
          2    1    1    2  501    0 -0.10564812657E+03 -0.73987680738E+02  0.73924805243E+03  0.75041547596E+03  0.00000000000E+00 0.  1.
<mgrwt>
<rscale>  2 0.12897947E+03</rscale>
<asrwt>0</asrwt>
<pdfrwt beam="2">  1       21 0.47877922E-02 0.12897947E+03</pdfrwt>
<pdfrwt beam="1">  1        2 0.13964475E+00 0.12897947E+03</pdfrwt>
<totfact> 0.10991782E+05</totfact>
</mgrwt>
</event>
<event>
 4    1  0.5134057E+003  0.1266100E+03  0.7546771E-02  0.1232574E+00
          2   -1    0    0  503    0 -0.00000000000E+00  0.00000000000E+00  0.34174691064E+03  0.34174691064E+03  0.00000000000E+00 0. -1.
         21   -1    0    0  501  502  0.00000000000E+00 -0.00000000000E+00 -0.16459116027E+03  0.16459116027E+03  0.00000000000E+00 0. -1.
         21    1    1    2  503  502  0.49320080321E+02  0.11660886017E+03 -0.12549791653E+03  0.17826896434E+03  0.00000000000E+00 0. -1.
          2    1    1    2  501    0 -0.49320080321E+02 -0.11660886017E+03  0.30265366690E+03  0.32806910656E+03  0.00000000000E+00 0. -1.
<mgrwt>
<rscale>  2 0.12661002E+03</rscale>
<asrwt>0</asrwt>
<pdfrwt beam="2">  1       21 0.25321717E-01 0.12661002E+03</pdfrwt>
<pdfrwt beam="1">  1        2 0.52576448E-01 0.12661002E+03</pdfrwt>
<totfact> 0.17583314E+04</totfact>
</mgrwt>
</event>
<event>
 4    1  0.5134057E+003  0.1383244E+03  0.7546771E-02  0.1215602E+00
          1   -1    0    0  502    0 -0.00000000000E+00  0.00000000000E+00  0.99841571531E+03  0.99841571531E+03  0.00000000000E+00 0.  1.
         21   -1    0    0  503  502  0.00000000000E+00 -0.00000000000E+00 -0.62202185192E+02  0.62202185192E+02  0.00000000000E+00 0. -1.
         21    1    1    2  503  501  0.88965155169E+02  0.10591906057E+03  0.26990498281E+02  0.14093308066E+03  0.00000000000E+00 0. -1.
          1    1    1    2  501    0 -0.88965155169E+02 -0.10591906057E+03  0.90922303184E+03  0.91968481985E+03  0.00000000000E+00 0.  1.
<mgrwt>
<rscale>  2 0.13832442E+03</rscale>
<asrwt>0</asrwt>
<pdfrwt beam="2">  1       21 0.95695677E-02 0.13832442E+03</pdfrwt>
<pdfrwt beam="1">  1        1 0.15360241E+00 0.13832442E+03</pdfrwt>
<totfact> 0.16006886E+04</totfact>
</mgrwt>
</event>
<event>
 4    1  0.5134057E+003  0.1481450E+03  0.7546771E-02  0.1202771E+00
         21   -1    0    0  501  502  0.00000000000E+00  0.00000000000E+00  0.41594277587E+02  0.41594277587E+02  0.00000000000E+00 0.  1.
          2   -1    0    0  503    0 -0.00000000000E+00 -0.00000000000E+00 -0.66115496836E+03  0.66115496836E+03  0.00000000000E+00 0.  1.
         21    1    1    2  503  502  0.82904300259E+02  0.12277553669E+03 -0.15188190428E+03  0.21216754761E+03  0.00000000000E+00 0.  1.
          2    1    1    2  501    0 -0.82904300259E+02 -0.12277553669E+03 -0.46767878649E+03  0.49058169833E+03  0.00000000000E+00 0.  1.
<mgrwt>
<rscale>  2 0.14814505E+03</rscale>
<asrwt>0</asrwt>
<pdfrwt beam="1">  1       21 0.63991198E-02 0.14814505E+03</pdfrwt>
<pdfrwt beam="2">  1        2 0.10171615E+00 0.14814505E+03</pdfrwt>
<totfact> 0.99703698E+04</totfact>
</mgrwt>
</event>
<event>
 4    1  0.5134057E+003  0.1449468E+03  0.7546771E-02  0.1206824E+00
         21   -1    0    0  501  502  0.00000000000E+00  0.00000000000E+00  0.17378985848E+03  0.17378985848E+03  0.00000000000E+00 0. -1.
         -2   -1    0    0    0  501 -0.00000000000E+00 -0.00000000000E+00 -0.54044734392E+03  0.54044734392E+03  0.00000000000E+00 0. -1.
         21    1    1    2  503  502  0.13314869256E+03  0.57279970429E+02  0.13132369778E+03  0.19559008906E+03  0.00000000000E+00 0. -1.
         -2    1    1    2    0  503 -0.13314869256E+03 -0.57279970429E+02 -0.49798118321E+03  0.51864711334E+03  0.00000000000E+00 0. -1.
<mgrwt>
<rscale>  2 0.14494678E+03</rscale>
<asrwt>0</asrwt>
<pdfrwt beam="1">  1       21 0.26736902E-01 0.14494678E+03</pdfrwt>
<pdfrwt beam="2">  1       -2 0.83145743E-01 0.14494678E+03</pdfrwt>
<totfact> 0.14437231E+03</totfact>
</mgrwt>
</event>
<event>
 4    1  0.5134057E+003  0.1037340E+03  0.7546771E-02  0.1272634E+00
          2   -1    0    0  503    0 -0.00000000000E+00  0.00000000000E+00  0.45209948005E+03  0.45209948005E+03  0.00000000000E+00 0. -1.
         21   -1    0    0  501  502  0.00000000000E+00 -0.00000000000E+00 -0.26840308031E+02  0.26840308031E+02  0.00000000000E+00 0. -1.
         21    1    1    2  503  502  0.59514357971E+02 -0.84963438897E+02  0.13205591298E+03  0.16792709402E+03  0.00000000000E+00 0. -1.
          2    1    1    2  501    0 -0.59514357971E+02  0.84963438897E+02  0.29320325903E+03  0.31101269405E+03  0.00000000000E+00 0. -1.
<mgrwt>
<rscale>  2 0.10373401E+03</rscale>
<asrwt>0</asrwt>
<pdfrwt beam="2">  1       21 0.41292785E-02 0.10373401E+03</pdfrwt>
<pdfrwt beam="1">  1        2 0.69553760E-01 0.10373401E+03</pdfrwt>
<totfact> 0.31353740E+05</totfact>
</mgrwt>
</event>
<event>
 4    1  0.5134057E+003  0.1094060E+03  0.7546771E-02  0.1261674E+00
         21   -1    0    0  501  502  0.00000000000E+00  0.00000000000E+00  0.11400010830E+02  0.11400010830E+02  0.00000000000E+00 0.  1.
          1   -1    0    0  503    0 -0.00000000000E+00 -0.00000000000E+00 -0.11996880001E+04  0.11996880001E+04  0.00000000000E+00 0. -1.
         21    1    1    2  503  502 -0.69887377786E+02 -0.84174935061E+02 -0.38022513106E+03  0.39565239233E+03  0.00000000000E+00 0.  1.
          1    1    1    2  501    0  0.69887377786E+02  0.84174935061E+02 -0.80806285822E+03  0.81543561862E+03  0.00000000000E+00 0. -1.
<mgrwt>
<rscale>  2 0.10940597E+03</rscale>
<asrwt>0</asrwt>
<pdfrwt beam="1">  1       21 0.17538485E-02 0.10940597E+03</pdfrwt>
<pdfrwt beam="2">  1        1 0.18456732E+00 0.10940597E+03</pdfrwt>
<totfact> 0.19500630E+05</totfact>
</mgrwt>
</event>
<event>
 4    1  0.5134057E+003  0.1047778E+03  0.7546771E-02  0.1270558E+00
         21   -1    0    0  501  502  0.00000000000E+00  0.00000000000E+00  0.11111300171E+03  0.11111300171E+03  0.00000000000E+00 0. -1.
          4   -1    0    0  503    0 -0.00000000000E+00 -0.00000000000E+00 -0.34543577898E+03  0.34543577898E+03  0.00000000000E+00 0. -1.
         21    1    1    2  503  502  0.41511143980E+02 -0.96203984332E+02  0.75723527677E+02  0.12927658071E+03  0.00000000000E+00 0. -1.
          4    1    1    2  501    0 -0.41511143980E+02  0.96203984332E+02 -0.31004630495E+03  0.32727219999E+03  0.00000000000E+00 0. -1.
<mgrwt>
<rscale>  2 0.10477777E+03</rscale>
<asrwt>0</asrwt>
<pdfrwt beam="1">  1       21 0.17094308E-01 0.10477777E+03</pdfrwt>
<pdfrwt beam="2">  1        4 0.53143966E-01 0.10477777E+03</pdfrwt>
<totfact> 0.42741926E+03</totfact>
</mgrwt>
</event>
<event>
 4    1  0.5134057E+003  0.1221590E+03  0.7546771E-02  0.1239577E+00
         21   -1    0    0  501  502  0.00000000000E+00  0.00000000000E+00  0.58359770211E+01  0.58359770211E+01  0.00000000000E+00 0.  1.
          2   -1    0    0  503    0 -0.00000000000E+00 -0.00000000000E+00 -0.25587677188E+04  0.25587677188E+04  0.00000000000E+00 0.  1.
         21    1    1    2  503  502  0.96369044089E+02 -0.75072196875E+02 -0.13097851694E+04  0.13154695045E+04  0.00000000000E+00 0.  1.
          2    1    1    2  501    0 -0.96369044089E+02  0.75072196875E+02 -0.12431465723E+04  0.12491341912E+04  0.00000000000E+00 0.  1.
<mgrwt>
<rscale>  2 0.12215903E+03</rscale>
<asrwt>0</asrwt>
<pdfrwt beam="1">  1       21 0.89784260E-03 0.12215903E+03</pdfrwt>
<pdfrwt beam="2">  1        2 0.39365658E+00 0.12215903E+03</pdfrwt>
<totfact> 0.21861052E+05</totfact>
</mgrwt>
</event>
<event>
 4    1  0.5134057E+003  0.1109507E+03  0.7546771E-02  0.1258819E+00
         21   -1    0    0  501  502  0.00000000000E+00  0.00000000000E+00  0.62452446366E+03  0.62452446366E+03  0.00000000000E+00 0.  1.
         -3   -1    0    0    0  501 -0.00000000000E+00 -0.00000000000E+00 -0.31599879156E+03  0.31599879156E+03  0.00000000000E+00 0. -1.
         21    1    1    2  503  502  0.32244860649E+02  0.10616175276E+03  0.60962155324E+03  0.61963576960E+03  0.00000000000E+00 0.  1.
         -3    1    1    2    0  503 -0.32244860649E+02 -0.10616175276E+03 -0.30109588115E+03  0.32088748563E+03  0.00000000000E+00 0. -1.
<mgrwt>
<rscale>  2 0.11095066E+03</rscale>
<asrwt>0</asrwt>
<pdfrwt beam="1">  1       21 0.96080687E-01 0.11095066E+03</pdfrwt>
<pdfrwt beam="2">  1       -3 0.48615199E-01 0.11095066E+03</pdfrwt>
<totfact> 0.19379695E+02</totfact>
</mgrwt>
</event>
<event>
 4    1  0.5134057E+003  0.1111478E+03  0.7546771E-02  0.1258459E+00
          2   -1    0    0  503    0 -0.00000000000E+00  0.00000000000E+00  0.26388019105E+03  0.26388019105E+03  0.00000000000E+00 0. -1.
         21   -1    0    0  501  502  0.00000000000E+00 -0.00000000000E+00 -0.60920451163E+02  0.60920451163E+02  0.00000000000E+00 0.  1.
         21    1    1    2  503  502  0.92417091545E+01 -0.11076296702E+03  0.23338372339E+02  0.11357166757E+03  0.00000000000E+00 0.  1.
          2    1    1    2  501    0 -0.92417091545E+01  0.11076296702E+03  0.17962136755E+03  0.21122897465E+03  0.00000000000E+00 0. -1.
<mgrwt>
<rscale>  2 0.11114785E+03</rscale>
<asrwt>0</asrwt>
<pdfrwt beam="2">  1       21 0.93723773E-02 0.11114785E+03</pdfrwt>
<pdfrwt beam="1">  1        2 0.40596952E-01 0.11114785E+03</pdfrwt>
<totfact> 0.13879880E+05</totfact>
</mgrwt>
</event>
<event>
 4    1  0.5134057E+003  0.1373789E+03  0.7546771E-02  0.1216900E+00
          1   -1    0    0  502    0 -0.00000000000E+00  0.00000000000E+00  0.42084548220E+03  0.42084548220E+03  0.00000000000E+00 0.  1.
         21   -1    0    0  503  502  0.00000000000E+00 -0.00000000000E+00 -0.60167230599E+02  0.60167230599E+02  0.00000000000E+00 0. -1.
         21    1    1    2  503  501  0.54086205672E+02  0.12628394232E+03  0.58971470371E+02  0.14950112390E+03  0.00000000000E+00 0. -1.
          1    1    1    2  501    0 -0.54086205672E+02 -0.12628394232E+03  0.30170678123E+03  0.33151158889E+03  0.00000000000E+00 0.  1.
<mgrwt>
<rscale>  2 0.13737886E+03</rscale>
<asrwt>0</asrwt>
<pdfrwt beam="2">  1       21 0.92564973E-02 0.13737886E+03</pdfrwt>
<pdfrwt beam="1">  1        1 0.64745457E-01 0.13737886E+03</pdfrwt>
<totfact> 0.57899102E+04</totfact>
</mgrwt>
</event>
<event>
 4    1  0.5134057E+003  0.1417214E+03  0.7546771E-02  0.1211031E+00
         -4   -1    0    0    0  501 -0.00000000000E+00  0.00000000000E+00  0.15460562092E+04  0.15460562092E+04  0.00000000000E+00 0. -1.
         21   -1    0    0  503  502  0.00000000000E+00 -0.00000000000E+00 -0.74009976704E+03  0.74009976704E+03  0.00000000000E+00 0. -1.
         21    1    1    2  503  501  0.40116448382E+02  0.13592511060E+03 -0.73002303104E+03  0.74365219758E+03  0.00000000000E+00 0. -1.
         -4    1    1    2    0  502 -0.40116448382E+02 -0.13592511060E+03  0.15359794732E+04  0.15425037787E+04  0.00000000000E+00 0. -1.
<mgrwt>
<rscale>  2 0.14172143E+03</rscale>
<asrwt>0</asrwt>
<pdfrwt beam="2">  1       21 0.11386150E+00 0.14172143E+03</pdfrwt>
<pdfrwt beam="1">  1       -4 0.23785480E+00 0.14172143E+03</pdfrwt>
<totfact> 0.22659217E+00</totfact>
</mgrwt>
</event>
<event>
 4    1  0.5134057E+003  0.1029542E+03  0.7546771E-02  0.1274204E+00
         21   -1    0    0  503  502  0.00000000000E+00  0.00000000000E+00  0.23308758013E+03  0.23308758013E+03  0.00000000000E+00 0. -1.
          3   -1    0    0  502    0 -0.00000000000E+00 -0.00000000000E+00 -0.59238363621E+02  0.59238363621E+02  0.00000000000E+00 0. -1.
         21    1    1    2  503  501 -0.90376684802E+02 -0.49311430739E+02  0.15737843450E+03  0.18806258002E+03  0.00000000000E+00 0. -1.
          3    1    1    2  501    0  0.90376684802E+02  0.49311430739E+02  0.16470782011E+02  0.10426336374E+03  0.00000000000E+00 0. -1.
<mgrwt>
<rscale>  2 0.10295418E+03</rscale>
<asrwt>0</asrwt>
<pdfrwt beam="1">  1       21 0.35859627E-01 0.10295418E+03</pdfrwt>
<pdfrwt beam="2">  1        3 0.91135945E-02 0.10295418E+03</pdfrwt>
<totfact> 0.30341180E+04</totfact>
</mgrwt>
</event>
<event>
 4    1  0.5134057E+003  0.1414277E+03  0.7546771E-02  0.1211421E+00
         21   -1    0    0  501  502  0.00000000000E+00  0.00000000000E+00  0.21808825473E+03  0.21808825473E+03  0.00000000000E+00 0. -1.
          1   -1    0    0  503    0 -0.00000000000E+00 -0.00000000000E+00 -0.11895000229E+03  0.11895000229E+03  0.00000000000E+00 0. -1.
         21    1    1    2  503  502  0.13707366423E+03 -0.34822649188E+02  0.13020651577E+03  0.19223824560E+03  0.00000000000E+00 0. -1.
          1    1    1    2  501    0 -0.13707366423E+03  0.34822649188E+02 -0.31068263339E+02  0.14480001142E+03  0.00000000000E+00 0. -1.
<mgrwt>
<rscale>  2 0.14142774E+03</rscale>
<asrwt>0</asrwt>
<pdfrwt beam="1">  1       21 0.33552039E-01 0.14142774E+03</pdfrwt>
<pdfrwt beam="2">  1        1 0.18300000E-01 0.14142774E+03</pdfrwt>
<totfact> 0.26385554E+04</totfact>
</mgrwt>
</event>
<event>
 4    1  0.5134057E+003  0.1054041E+03  0.7546771E-02  0.1269326E+00
         21   -1    0    0  503  502  0.00000000000E+00  0.00000000000E+00  0.92796020891E+02  0.92796020891E+02  0.00000000000E+00 0. -1.
          3   -1    0    0  502    0 -0.00000000000E+00 -0.00000000000E+00 -0.69410689278E+03  0.69410689278E+03  0.00000000000E+00 0.  1.
         21    1    1    2  503  501 -0.10524516217E+03 -0.57860109632E+01  0.57258224247E+02  0.11995218351E+03  0.00000000000E+00 0. -1.
          3    1    1    2  501    0  0.10524516217E+03  0.57860109632E+01 -0.65856909614E+03  0.66695073017E+03  0.00000000000E+00 0.  1.
<mgrwt>
<rscale>  2 0.10540409E+03</rscale>
<asrwt>0</asrwt>
<pdfrwt beam="1">  1       21 0.14276311E-01 0.10540409E+03</pdfrwt>
<pdfrwt beam="2">  1        3 0.10678568E+00 0.10540409E+03</pdfrwt>
<totfact> 0.16383630E+03</totfact>
</mgrwt>
</event>
<event>
 4    1  0.5134057E+003  0.1162620E+03  0.7546771E-02  0.1249394E+00
         -1   -1    0    0    0  501 -0.00000000000E+00  0.00000000000E+00  0.48658741244E+03  0.48658741244E+03  0.00000000000E+00 0. -1.
         21   -1    0    0  503  502  0.00000000000E+00 -0.00000000000E+00 -0.97306964788E+02  0.97306964788E+02  0.00000000000E+00 0.  1.
         21    1    1    2  503  501 -0.45482224144E+02 -0.10699640571E+03 -0.52141163912E+02  0.12741885466E+03  0.00000000000E+00 0.  1.
         -1    1    1    2    0  502  0.45482224144E+02  0.10699640571E+03  0.44142161156E+03  0.45647552257E+03  0.00000000000E+00 0. -1.
<mgrwt>
<rscale>  2 0.11626205E+03</rscale>
<asrwt>0</asrwt>
<pdfrwt beam="2">  1       21 0.14970303E-01 0.11626205E+03</pdfrwt>
<pdfrwt beam="1">  1       -1 0.74859600E-01 0.11626205E+03</pdfrwt>
<totfact> 0.69466448E+03</totfact>
</mgrwt>
</event>
<event>
 4    1  0.5134057E+003  0.1351404E+03  0.7546771E-02  0.1220022E+00
          2   -1    0    0  503    0 -0.00000000000E+00  0.00000000000E+00  0.28322616440E+04  0.28322616440E+04  0.00000000000E+00 0. -1.
         21   -1    0    0  501  502  0.00000000000E+00 -0.00000000000E+00 -0.35369468469E+02  0.35369468469E+02  0.00000000000E+00 0. -1.
         21    1    1    2  503  502  0.59427742826E+02 -0.12137240414E+03  0.10190023068E+03  0.16925298850E+03  0.00000000000E+00 0. -1.
          2    1    1    2  501    0 -0.59427742826E+02  0.12137240414E+03  0.26949919448E+04  0.26983781240E+04  0.00000000000E+00 0. -1.
<mgrwt>
<rscale>  2 0.13514036E+03</rscale>
<asrwt>0</asrwt>
<pdfrwt beam="2">  1       21 0.54414590E-02 0.13514036E+03</pdfrwt>
<pdfrwt beam="1">  1        2 0.43573238E+00 0.13514036E+03</pdfrwt>
<totfact> 0.82776591E+03</totfact>
</mgrwt>
</event>
<event>
 4    1  0.5134057E+003  0.1187400E+03  0.7546771E-02  0.1245190E+00
         21   -1    0    0  501  502  0.00000000000E+00  0.00000000000E+00  0.30318742836E+03  0.30318742836E+03  0.00000000000E+00 0.  1.
          3   -1    0    0  503    0 -0.00000000000E+00 -0.00000000000E+00 -0.18061173694E+03  0.18061173694E+03  0.00000000000E+00 0.  1.
         21    1    1    2  503  502  0.11536003168E+03 -0.28129303468E+02  0.26973227770E+03  0.29471120823E+03  0.00000000000E+00 0.  1.
          3    1    1    2  501    0 -0.11536003168E+03  0.28129303468E+02 -0.14715658628E+03  0.18908795707E+03  0.00000000000E+00 0.  1.
<mgrwt>
<rscale>  2 0.11874003E+03</rscale>
<asrwt>0</asrwt>
<pdfrwt beam="1">  1       21 0.46644220E-01 0.11874003E+03</pdfrwt>
<pdfrwt beam="2">  1        3 0.27786421E-01 0.11874003E+03</pdfrwt>
<totfact> 0.26679545E+03</totfact>
</mgrwt>
</event>
<event>
 4    1  0.5134057E+003  0.1087761E+03  0.7546771E-02  0.1262853E+00
         21   -1    0    0  503  502  0.00000000000E+00  0.00000000000E+00  0.37306332172E+03  0.37306332172E+03  0.00000000000E+00 0.  1.
          2   -1    0    0  502    0 -0.00000000000E+00 -0.00000000000E+00 -0.22505646079E+04  0.22505646079E+04  0.00000000000E+00 0.  1.
         21    1    1    2  503  501  0.30380599866E+02 -0.10444735541E+03  0.36378705788E+03  0.37970153329E+03  0.00000000000E+00 0.  1.
          2    1    1    2  501    0 -0.30380599866E+02  0.10444735541E+03 -0.22412883440E+04  0.22439263963E+04  0.00000000000E+00 0.  1.
<mgrwt>
<rscale>  2 0.10877606E+03</rscale>
<asrwt>0</asrwt>
<pdfrwt beam="1">  1       21 0.57394357E-01 0.10877606E+03</pdfrwt>
<pdfrwt beam="2">  1        2 0.34624071E+00 0.10877606E+03</pdfrwt>
<totfact> 0.22492372E+02</totfact>
</mgrwt>
</event>
<event>
 4    1  0.5134057E+003  0.1168284E+03  0.7546771E-02  0.1248423E+00
         21   -1    0    0  501  502  0.00000000000E+00  0.00000000000E+00  0.44976187289E+02  0.44976187289E+02  0.00000000000E+00 0.  1.
          2   -1    0    0  503    0 -0.00000000000E+00 -0.00000000000E+00 -0.36426439432E+03  0.36426439432E+03  0.00000000000E+00 0.  1.
         21    1    1    2  503  502 -0.10259124253E+03  0.55891919357E+02 -0.76049858098E+02  0.13940032500E+03  0.00000000000E+00 0.  1.
          2    1    1    2  501    0  0.10259124253E+03 -0.55891919357E+02 -0.24323834894E+03  0.26984025661E+03  0.00000000000E+00 0.  1.
<mgrwt>
<rscale>  2 0.11682838E+03</rscale>
<asrwt>0</asrwt>
<pdfrwt beam="1">  1       21 0.69194136E-02 0.11682838E+03</pdfrwt>
<pdfrwt beam="2">  1        2 0.56040675E-01 0.11682838E+03</pdfrwt>
<totfact> 0.16684909E+05</totfact>
</mgrwt>
</event>
<event>
 4    1  0.5134057E+003  0.1024203E+03  0.7546771E-02  0.1275287E+00
          2   -1    0    0  502    0 -0.00000000000E+00  0.00000000000E+00  0.25932754427E+03  0.25932754427E+03  0.00000000000E+00 0. -1.
         21   -1    0    0  503  502  0.00000000000E+00 -0.00000000000E+00 -0.11478227103E+03  0.11478227103E+03  0.00000000000E+00 0.  1.
         21    1    1    2  503  501  0.97135280079E+02 -0.32475425254E+02 -0.78255985556E+02  0.12889497724E+03  0.00000000000E+00 0.  1.
          2    1    1    2  501    0 -0.97135280079E+02  0.32475425254E+02  0.22280125880E+03  0.24521483806E+03  0.00000000000E+00 0. -1.
<mgrwt>
<rscale>  2 0.10242029E+03</rscale>
<asrwt>0</asrwt>
<pdfrwt beam="2">  1       21 0.17658811E-01 0.10242029E+03</pdfrwt>
<pdfrwt beam="1">  1        2 0.39896545E-01 0.10242029E+03</pdfrwt>
<totfact> 0.45852111E+04</totfact>
</mgrwt>
</event>
<event>
 4    1  0.5134057E+003  0.1489652E+03  0.7546771E-02  0.1201750E+00
          1   -1    0    0  502    0 -0.00000000000E+00  0.00000000000E+00  0.19006205561E+04  0.19006205561E+04  0.00000000000E+00 0. -1.
         21   -1    0    0  503  502  0.00000000000E+00 -0.00000000000E+00 -0.90989754901E+03  0.90989754901E+03  0.00000000000E+00 0.  1.
         21    1    1    2  503  501  0.40593713805E+02  0.14332754704E+03 -0.90085255791E+03  0.91308595785E+03  0.00000000000E+00 0.  1.
          1    1    1    2  501    0 -0.40593713805E+02 -0.14332754704E+03  0.18915755650E+04  0.18974321473E+04  0.00000000000E+00 0. -1.
<mgrwt>
<rscale>  2 0.14896522E+03</rscale>
<asrwt>0</asrwt>
<pdfrwt beam="2">  1       21 0.13998424E+00 0.14896522E+03</pdfrwt>
<pdfrwt beam="1">  1        1 0.29240316E+00 0.14896522E+03</pdfrwt>
<totfact> 0.17032078E+01</totfact>
</mgrwt>
</event>
<event>
 4    1  0.5134057E+003  0.1118510E+03  0.7546771E-02  0.1257180E+00
         21   -1    0    0  503  502  0.00000000000E+00  0.00000000000E+00  0.68161584375E+02  0.68161584375E+02  0.00000000000E+00 0. -1.
          2   -1    0    0  502    0 -0.00000000000E+00 -0.00000000000E+00 -0.22149457665E+03  0.22149457665E+03  0.00000000000E+00 0. -1.
         21    1    1    2  503  501 -0.76472309021E+02  0.81624949971E+02 -0.16717668261E+02  0.11309344339E+03  0.00000000000E+00 0. -1.
          2    1    1    2  501    0  0.76472309021E+02 -0.81624949971E+02 -0.13661532401E+03  0.17656271764E+03  0.00000000000E+00 0. -1.
<mgrwt>
<rscale>  2 0.11185100E+03</rscale>
<asrwt>0</asrwt>
<pdfrwt beam="1">  1       21 0.10486397E-01 0.11185100E+03</pdfrwt>
<pdfrwt beam="2">  1        2 0.34076089E-01 0.11185100E+03</pdfrwt>
<totfact> 0.13746845E+05</totfact>
</mgrwt>
</event>
<event>
 4    1  0.5134057E+003  0.1024698E+03  0.7546771E-02  0.1275186E+00
         21   -1    0    0  503  502  0.00000000000E+00  0.00000000000E+00  0.13201206859E+04  0.13201206859E+04  0.00000000000E+00 0.  1.
         -2   -1    0    0    0  501 -0.00000000000E+00 -0.00000000000E+00 -0.34490211917E+02  0.34490211917E+02  0.00000000000E+00 0. -1.
         21    1    1    2  503  501  0.96889396195E+02  0.33354357360E+02  0.12369119722E+04  0.12411491833E+04  0.00000000000E+00 0.  1.
         -2    1    1    2    0  502 -0.96889396195E+02 -0.33354357360E+02  0.48718501829E+02  0.11346171456E+03  0.00000000000E+00 0. -1.
<mgrwt>
<rscale>  2 0.10246984E+03</rscale>
<asrwt>0</asrwt>
<pdfrwt beam="1">  1       21 0.20309545E+00 0.10246984E+03</pdfrwt>
<pdfrwt beam="2">  1       -2 0.53061875E-02 0.10246984E+03</pdfrwt>
<totfact> 0.18876184E+03</totfact>
</mgrwt>
</event>
<event>
 4    1  0.5134057E+003  0.1013450E+03  0.7546771E-02  0.1277493E+00
          2   -1    0    0  503    0 -0.00000000000E+00  0.00000000000E+00  0.14936904547E+03  0.14936904547E+03  0.00000000000E+00 0.  1.
         21   -1    0    0  501  502  0.00000000000E+00 -0.00000000000E+00 -0.77303612097E+02  0.77303612097E+02  0.00000000000E+00 0.  1.
         21    1    1    2  503  502  0.40314641576E+02  0.92981376841E+02 -0.16426485995E+01  0.10135830040E+03  0.00000000000E+00 0.  1.
          2    1    1    2  501    0 -0.40314641576E+02 -0.92981376841E+02  0.73708081971E+02  0.12531435717E+03  0.00000000000E+00 0.  1.
<mgrwt>
<rscale>  2 0.10134499E+03</rscale>
<asrwt>0</asrwt>
<pdfrwt beam="2">  1       21 0.11892863E-01 0.10134499E+03</pdfrwt>
<pdfrwt beam="1">  1        2 0.22979853E-01 0.10134499E+03</pdfrwt>
<totfact> 0.16804110E+05</totfact>
</mgrwt>
</event>
<event>
 4    1  0.5134057E+003  0.1110390E+03  0.7546771E-02  0.1258658E+00
          2   -1    0    0  503    0 -0.00000000000E+00  0.00000000000E+00  0.81121816414E+03  0.81121816414E+03  0.00000000000E+00 0. -1.
         21   -1    0    0  501  502  0.00000000000E+00 -0.00000000000E+00 -0.37048192194E+02  0.37048192194E+02  0.00000000000E+00 0.  1.
         21    1    1    2  503  502  0.84568016403E+02  0.71957645816E+02  0.61370499786E+02  0.12686997452E+03  0.00000000000E+00 0.  1.
          2    1    1    2  501    0 -0.84568016403E+02 -0.71957645816E+02  0.71279947216E+03  0.72139638182E+03  0.00000000000E+00 0. -1.
<mgrwt>
<rscale>  2 0.11103897E+03</rscale>
<asrwt>0</asrwt>
<pdfrwt beam="2">  1       21 0.56997225E-02 0.11103897E+03</pdfrwt>
<pdfrwt beam="1">  1        2 0.12480278E+00 0.11103897E+03</pdfrwt>
<totfact> 0.94376509E+04</totfact>
</mgrwt>
</event>
<event>
 4    1  0.5134057E+003  0.1060623E+03  0.7546771E-02  0.1268041E+00
          2   -1    0    0  503    0 -0.00000000000E+00  0.00000000000E+00  0.18949434401E+04  0.18949434401E+04  0.00000000000E+00 0.  1.
         21   -1    0    0  501  502  0.00000000000E+00 -0.00000000000E+00 -0.75888883121E+01  0.75888883121E+01  0.00000000000E+00 0.  1.
         21    1    1    2  503  502  0.97035379057E+02 -0.42817676005E+02  0.49978570150E+03  0.51091581066E+03  0.00000000000E+00 0.  1.
          2    1    1    2  501    0 -0.97035379057E+02  0.42817676005E+02  0.13875688503E+04  0.13916165177E+04  0.00000000000E+00 0.  1.
<mgrwt>
<rscale>  2 0.10606233E+03</rscale>
<asrwt>0</asrwt>
<pdfrwt beam="2">  1       21 0.11675228E-02 0.10606233E+03</pdfrwt>
<pdfrwt beam="1">  1        2 0.29152938E+00 0.10606233E+03</pdfrwt>
<totfact> 0.31846238E+05</totfact>
</mgrwt>
</event>
<event>
 4    1  0.5134057E+003  0.1056241E+03  0.7546771E-02  0.1268895E+00
          2   -1    0    0  503    0 -0.00000000000E+00  0.00000000000E+00  0.11656955607E+04  0.11656955607E+04  0.00000000000E+00 0. -1.
         21   -1    0    0  501  502  0.00000000000E+00 -0.00000000000E+00 -0.44528779087E+02  0.44528779087E+02  0.00000000000E+00 0. -1.
         21    1    1    2  503  502  0.11965058290E+02  0.10494421373E+03  0.24429259203E+02  0.10841235779E+03  0.00000000000E+00 0. -1.
          2    1    1    2  501    0 -0.11965058290E+02 -0.10494421373E+03  0.10967375224E+04  0.11018119820E+04  0.00000000000E+00 0. -1.
<mgrwt>
<rscale>  2 0.10562410E+03</rscale>
<asrwt>0</asrwt>
<pdfrwt beam="2">  1       21 0.68505823E-02 0.10562410E+03</pdfrwt>
<pdfrwt beam="1">  1        2 0.17933776E+00 0.10562410E+03</pdfrwt>
<totfact> 0.42391673E+04</totfact>
</mgrwt>
</event>
<event>
 4    1  0.5134057E+003  0.1129004E+03  0.7546771E-02  0.1255291E+00
         21   -1    0    0  503  502  0.00000000000E+00  0.00000000000E+00  0.12089066528E+03  0.12089066528E+03  0.00000000000E+00 0.  1.
         -1   -1    0    0    0  501 -0.00000000000E+00 -0.00000000000E+00 -0.48407645989E+03  0.48407645989E+03  0.00000000000E+00 0. -1.
         21    1    1    2  503  501 -0.34828701923E+02 -0.10739400709E+03  0.85927539075E+02  0.14188041869E+03  0.00000000000E+00 0.  1.
         -1    1    1    2    0  502  0.34828701923E+02  0.10739400709E+03 -0.44911333368E+03  0.46308670648E+03  0.00000000000E+00 0. -1.
<mgrwt>
<rscale>  2 0.11290045E+03</rscale>
<asrwt>0</asrwt>
<pdfrwt beam="1">  1       21 0.18598564E-01 0.11290045E+03</pdfrwt>
<pdfrwt beam="2">  1       -1 0.74473301E-01 0.11290045E+03</pdfrwt>
<totfact> 0.47386883E+03</totfact>
</mgrwt>
</event>
<event>
 4    1  0.5134057E+003  0.1925445E+03  0.7546771E-02  0.1156186E+00
          2   -1    0    0  502    0 -0.00000000000E+00  0.00000000000E+00  0.23025028025E+03  0.23025028025E+03  0.00000000000E+00 0.  1.
         21   -1    0    0  503  502  0.00000000000E+00 -0.00000000000E+00 -0.25411771114E+03  0.25411771114E+03  0.00000000000E+00 0. -1.
         21    1    1    2  503  501  0.37245120056E+02  0.18890783786E+03 -0.15852662766E+03  0.24940742140E+03  0.00000000000E+00 0. -1.
          2    1    1    2  501    0 -0.37245120056E+02 -0.18890783786E+03  0.13465919677E+03  0.23496056998E+03  0.00000000000E+00 0.  1.
<mgrwt>
<rscale>  2 0.19254446E+03</rscale>
<asrwt>0</asrwt>
<pdfrwt beam="2">  1       21 0.39095032E-01 0.19254446E+03</pdfrwt>
<pdfrwt beam="1">  1        2 0.35423120E-01 0.19254446E+03</pdfrwt>
<totfact> 0.11370048E+04</totfact>
</mgrwt>
</event>
<event>
 4    1  0.5134057E+003  0.1028597E+03  0.7546771E-02  0.1274395E+00
         21   -1    0    0  501  502  0.00000000000E+00  0.00000000000E+00  0.88819256508E+02  0.88819256508E+02  0.00000000000E+00 0.  1.
          4   -1    0    0  503    0 -0.00000000000E+00 -0.00000000000E+00 -0.12073792599E+03  0.12073792599E+03  0.00000000000E+00 0.  1.
         21    1    1    2  503  502  0.63469189956E+01  0.10266371709E+03 -0.38290275780E+01  0.10293096541E+03  0.00000000000E+00 0.  1.
          4    1    1    2  501    0 -0.63469189956E+01 -0.10266371709E+03 -0.28089641908E+02  0.10662621709E+03  0.00000000000E+00 0.  1.
<mgrwt>
<rscale>  2 0.10285972E+03</rscale>
<asrwt>0</asrwt>
<pdfrwt beam="1">  1       21 0.13664501E-01 0.10285972E+03</pdfrwt>
<pdfrwt beam="2">  1        4 0.18575065E-01 0.10285972E+03</pdfrwt>
<totfact> 0.46832938E+04</totfact>
</mgrwt>
</event>
<event>
 4    1  0.5134057E+003  0.1079810E+03  0.7546771E-02  0.1264355E+00
         -2   -1    0    0    0  501 -0.00000000000E+00  0.00000000000E+00  0.41218816617E+03  0.41218816617E+03  0.00000000000E+00 0.  1.
         21   -1    0    0  501  502  0.00000000000E+00 -0.00000000000E+00 -0.33812387440E+02  0.33812387440E+02  0.00000000000E+00 0. -1.
         21    1    1    2  503  502  0.10641198295E+03 -0.18340643098E+02  0.99047778697E+02  0.14652764848E+03  0.00000000000E+00 0. -1.
         -2    1    1    2    0  503 -0.10641198295E+03  0.18340643098E+02  0.27932800003E+03  0.29947290513E+03  0.00000000000E+00 0.  1.
<mgrwt>
<rscale>  2 0.10798097E+03</rscale>
<asrwt>0</asrwt>
<pdfrwt beam="2">  1       21 0.52019061E-02 0.10798097E+03</pdfrwt>
<pdfrwt beam="1">  1       -2 0.63413560E-01 0.10798097E+03</pdfrwt>
<totfact> 0.47103892E+04</totfact>
</mgrwt>
</event>
<event>
 4    1  0.5134057E+003  0.2119120E+03  0.7546771E-02  0.1140061E+00
         21   -1    0    0  503  502  0.00000000000E+00  0.00000000000E+00  0.29138614829E+03  0.29138614829E+03  0.00000000000E+00 0.  1.
          1   -1    0    0  502    0 -0.00000000000E+00 -0.00000000000E+00 -0.96409064297E+03  0.96409064297E+03  0.00000000000E+00 0.  1.
         21    1    1    2  503  501 -0.41233981962E+02 -0.20786163283E+03  0.23902938408E+03  0.31943973786E+03  0.00000000000E+00 0.  1.
          1    1    1    2  501    0  0.41233981962E+02  0.20786163283E+03 -0.91173387876E+03  0.93603705340E+03  0.00000000000E+00 0.  1.
<mgrwt>
<rscale>  2 0.21191201E+03</rscale>
<asrwt>0</asrwt>
<pdfrwt beam="1">  1       21 0.44828639E-01 0.21191201E+03</pdfrwt>
<pdfrwt beam="2">  1        1 0.14832163E+00 0.21191201E+03</pdfrwt>
<totfact> 0.90310900E+02</totfact>
</mgrwt>
</event>
<event>
 4    1  0.5134057E+003  0.2305931E+03  0.7546771E-02  0.1126223E+00
         -1   -1    0    0    0  501 -0.00000000000E+00  0.00000000000E+00  0.85144316717E+03  0.85144316717E+03  0.00000000000E+00 0.  1.
         21   -1    0    0  501  502  0.00000000000E+00 -0.00000000000E+00 -0.12341911115E+03  0.12341911115E+03  0.00000000000E+00 0.  1.
         21    1    1    2  503  502  0.10226116758E+03  0.20667809724E+03  0.21422039734E+02  0.23158602302E+03  0.00000000000E+00 0.  1.
         -1    1    1    2    0  503 -0.10226116758E+03 -0.20667809724E+03  0.70660201629E+03  0.74327625530E+03  0.00000000000E+00 0.  1.
<mgrwt>
<rscale>  2 0.23059311E+03</rscale>
<asrwt>0</asrwt>
<pdfrwt beam="2">  1       21 0.18987556E-01 0.23059311E+03</pdfrwt>
<pdfrwt beam="1">  1       -1 0.13099125E+00 0.23059311E+03</pdfrwt>
<totfact> 0.12655380E+03</totfact>
</mgrwt>
</event>
<event>
 4    1  0.5134057E+003  0.1474124E+03  0.7546771E-02  0.1203689E+00
         -4   -1    0    0    0  501 -0.00000000000E+00  0.00000000000E+00  0.21684058189E+03  0.21684058189E+03  0.00000000000E+00 0.  1.
         21   -1    0    0  503  502  0.00000000000E+00 -0.00000000000E+00 -0.37465327417E+03  0.37465327417E+03  0.00000000000E+00 0. -1.
         21    1    1    2  503  501 -0.10405784878E+03 -0.10441440175E+03 -0.33202772172E+03  0.36328062317E+03  0.00000000000E+00 0. -1.
         -4    1    1    2    0  502  0.10405784878E+03  0.10441440175E+03  0.17421502943E+03  0.22821323289E+03  0.00000000000E+00 0.  1.
<mgrwt>
<rscale>  2 0.14741236E+03</rscale>
<asrwt>0</asrwt>
<pdfrwt beam="2">  1       21 0.57638965E-01 0.14741236E+03</pdfrwt>
<pdfrwt beam="1">  1       -4 0.33360090E-01 0.14741236E+03</pdfrwt>
<totfact> 0.10268589E+03</totfact>
</mgrwt>
</event>
<event>
 4    1  0.5134057E+003  0.1065008E+03  0.7546771E-02  0.1267190E+00
          2   -1    0    0  502    0 -0.00000000000E+00  0.00000000000E+00  0.15886749044E+04  0.15886749044E+04  0.00000000000E+00 0.  1.
         21   -1    0    0  503  502  0.00000000000E+00 -0.00000000000E+00 -0.38928500448E+03  0.38928500448E+03  0.00000000000E+00 0. -1.
         21    1    1    2  503  501 -0.73428180343E+02  0.77140982372E+02 -0.38017400669E+03  0.39480970631E+03  0.00000000000E+00 0. -1.
          2    1    1    2  501    0  0.73428180343E+02 -0.77140982372E+02  0.15795639066E+04  0.15831502026E+04  0.00000000000E+00 0.  1.
<mgrwt>
<rscale>  2 0.10650084E+03</rscale>
<asrwt>0</asrwt>
<pdfrwt beam="2">  1       21 0.59890002E-01 0.10650084E+03</pdfrwt>
<pdfrwt beam="1">  1        2 0.24441152E+00 0.10650084E+03</pdfrwt>
<totfact> 0.44750975E+02</totfact>
</mgrwt>
</event>
<event>
 4    1  0.5134057E+003  0.1439825E+03  0.7546771E-02  0.1208069E+00
         21   -1    0    0  503  502  0.00000000000E+00  0.00000000000E+00  0.10828473023E+03  0.10828473023E+03  0.00000000000E+00 0.  1.
         -1   -1    0    0    0  501 -0.00000000000E+00 -0.00000000000E+00 -0.22916615196E+03  0.22916615196E+03  0.00000000000E+00 0.  1.
         21    1    1    2  503  501  0.40246229387E+02 -0.13824323343E+03  0.80099406745E+01  0.14420509602E+03  0.00000000000E+00 0.  1.
         -1    1    1    2    0  502 -0.40246229387E+02  0.13824323343E+03 -0.12889136241E+03  0.19324578617E+03  0.00000000000E+00 0.  1.
<mgrwt>
<rscale>  2 0.14398247E+03</rscale>
<asrwt>0</asrwt>
<pdfrwt beam="1">  1       21 0.16659189E-01 0.14398247E+03</pdfrwt>
<pdfrwt beam="2">  1       -1 0.35256331E-01 0.14398247E+03</pdfrwt>
<totfact> 0.22915201E+04</totfact>
</mgrwt>
</event>
<event>
 4    1  0.5134057E+003  0.1056134E+03  0.7546771E-02  0.1268916E+00
         21   -1    0    0  501  502  0.00000000000E+00  0.00000000000E+00  0.49515337135E+02  0.49515337135E+02  0.00000000000E+00 0. -1.
          2   -1    0    0  503    0 -0.00000000000E+00 -0.00000000000E+00 -0.22776812561E+03  0.22776812561E+03  0.00000000000E+00 0. -1.
         21    1    1    2  503  502 -0.20874119229E+02  0.10353000912E+03 -0.10365352500E+03  0.14798055577E+03  0.00000000000E+00 0. -1.
          2    1    1    2  501    0  0.20874119229E+02 -0.10353000912E+03 -0.74599263471E+02  0.12930290697E+03  0.00000000000E+00 0. -1.
<mgrwt>
<rscale>  2 0.10561341E+03</rscale>
<asrwt>0</asrwt>
<pdfrwt beam="1">  1       21 0.76177443E-02 0.10561341E+03</pdfrwt>
<pdfrwt beam="2">  1        2 0.35041249E-01 0.10561341E+03</pdfrwt>
<totfact> 0.23115993E+05</totfact>
</mgrwt>
</event>
<event>
 4    1  0.5134057E+003  0.1212149E+03  0.7546771E-02  0.1241106E+00
         21   -1    0    0  501  502  0.00000000000E+00  0.00000000000E+00  0.43616490882E+03  0.43616490882E+03  0.00000000000E+00 0. -1.
         -4   -1    0    0    0  501 -0.00000000000E+00 -0.00000000000E+00 -0.37912626538E+02  0.37912626538E+02  0.00000000000E+00 0. -1.
         21    1    1    2  503  502 -0.11959238379E+03 -0.19766748707E+02  0.27826247126E+03  0.30351781748E+03  0.00000000000E+00 0. -1.
         -4    1    1    2    0  503  0.11959238379E+03  0.19766748707E+02  0.11998981102E+03  0.17055971788E+03  0.00000000000E+00 0. -1.
<mgrwt>
<rscale>  2 0.12121494E+03</rscale>
<asrwt>0</asrwt>
<pdfrwt beam="1">  1       21 0.67102290E-01 0.12121494E+03</pdfrwt>
<pdfrwt beam="2">  1       -4 0.58327121E-02 0.12121494E+03</pdfrwt>
<totfact> 0.15408620E+04</totfact>
</mgrwt>
</event>
<event>
 4    1  0.5134057E+003  0.1322422E+03  0.7546771E-02  0.1224166E+00
         21   -1    0    0  501  502  0.00000000000E+00  0.00000000000E+00  0.53826235691E+02  0.53826235691E+02  0.00000000000E+00 0. -1.
          2   -1    0    0  503    0 -0.00000000000E+00 -0.00000000000E+00 -0.10321036672E+04  0.10321036672E+04  0.00000000000E+00 0. -1.
         21    1    1    2  503  502 -0.12726061216E+03 -0.35954686329E+02 -0.39686844420E+02  0.13806899904E+03  0.00000000000E+00 0. -1.
          2    1    1    2  501    0  0.12726061216E+03  0.35954686329E+02 -0.93859058711E+03  0.94786090387E+03  0.00000000000E+00 0. -1.
<mgrwt>
<rscale>  2 0.13224221E+03</rscale>
<asrwt>0</asrwt>
<pdfrwt beam="1">  1       21 0.82809589E-02 0.13224221E+03</pdfrwt>
<pdfrwt beam="2">  1        2 0.15878519E+00 0.13224221E+03</pdfrwt>
<totfact> 0.36381867E+04</totfact>
</mgrwt>
</event>
<event>
 4    1  0.5134057E+003  0.1239200E+03  0.7546771E-02  0.1236767E+00
         21   -1    0    0  501  502  0.00000000000E+00  0.00000000000E+00  0.55598383866E+02  0.55598383866E+02  0.00000000000E+00 0.  1.
          2   -1    0    0  503    0 -0.00000000000E+00 -0.00000000000E+00 -0.21780637252E+04  0.21780637252E+04  0.00000000000E+00 0.  1.
         21    1    1    2  503  502 -0.12232562299E+03 -0.19814316571E+02 -0.17613350102E+02  0.12516547161E+03  0.00000000000E+00 0.  1.
          2    1    1    2  501    0  0.12232562299E+03  0.19814316571E+02 -0.21048519913E+04  0.21084966375E+04  0.00000000000E+00 0.  1.
<mgrwt>
<rscale>  2 0.12392000E+03</rscale>
<asrwt>0</asrwt>
<pdfrwt beam="1">  1       21 0.85535982E-02 0.12392000E+03</pdfrwt>
<pdfrwt beam="2">  1        2 0.33508670E+00 0.12392000E+03</pdfrwt>
<totfact> 0.86180704E+03</totfact>
</mgrwt>
</event>
<event>
 4    1  0.5134057E+003  0.1318464E+03  0.7546771E-02  0.1224741E+00
         21   -1    0    0  501  502  0.00000000000E+00  0.00000000000E+00  0.18529435164E+02  0.18529435164E+02  0.00000000000E+00 0. -1.
          1   -1    0    0  503    0 -0.00000000000E+00 -0.00000000000E+00 -0.94523194748E+03  0.94523194748E+03  0.00000000000E+00 0. -1.
         21    1    1    2  503  502 -0.10911002057E+03  0.74016783770E+02 -0.42165514078E+03  0.44178788871E+03  0.00000000000E+00 0. -1.
          1    1    1    2  501    0  0.10911002057E+03 -0.74016783770E+02 -0.50504737154E+03  0.52197349393E+03  0.00000000000E+00 0. -1.
<mgrwt>
<rscale>  2 0.13184643E+03</rscale>
<asrwt>0</asrwt>
<pdfrwt beam="1">  1       21 0.28506819E-02 0.13184643E+03</pdfrwt>
<pdfrwt beam="2">  1        1 0.14542032E+00 0.13184643E+03</pdfrwt>
<totfact> 0.13532162E+05</totfact>
</mgrwt>
</event>
<event>
 4    1  0.5134057E+003  0.1092659E+03  0.7546771E-02  0.1261935E+00
          1   -1    0    0  502    0 -0.00000000000E+00  0.00000000000E+00  0.63666230593E+03  0.63666230593E+03  0.00000000000E+00 0.  1.
         21   -1    0    0  503  502  0.00000000000E+00 -0.00000000000E+00 -0.32261625417E+03  0.32261625417E+03  0.00000000000E+00 0.  1.
         21    1    1    2  503  501 -0.96591434242E+02 -0.51079663943E+02 -0.30846770674E+03  0.32724816782E+03  0.00000000000E+00 0.  1.
          1    1    1    2  501    0  0.96591434242E+02  0.51079663943E+02  0.62251375851E+03  0.63203039228E+03  0.00000000000E+00 0.  1.
<mgrwt>
<rscale>  2 0.10926590E+03</rscale>
<asrwt>0</asrwt>
<pdfrwt beam="2">  1       21 0.49633270E-01 0.10926590E+03</pdfrwt>
<pdfrwt beam="1">  1        1 0.97948047E-01 0.10926590E+03</pdfrwt>
<totfact> 0.14632252E+03</totfact>
</mgrwt>
</event>
<event>
 4    1  0.5134057E+003  0.1968811E+03  0.7546771E-02  0.1152397E+00
         21   -1    0    0  501  502  0.00000000000E+00  0.00000000000E+00  0.28747234345E+03  0.28747234345E+03  0.00000000000E+00 0. -1.
          4   -1    0    0  503    0 -0.00000000000E+00 -0.00000000000E+00 -0.51164137828E+03  0.51164137828E+03  0.00000000000E+00 0. -1.
         21    1    1    2  503  502  0.11720840744E+03 -0.15819083194E+03  0.23080424177E+03  0.30336899660E+03  0.00000000000E+00 0. -1.
          4    1    1    2  501    0 -0.11720840744E+03  0.15819083194E+03 -0.45497327659E+03  0.49574472513E+03  0.00000000000E+00 0. -1.
<mgrwt>
<rscale>  2 0.19688106E+03</rscale>
<asrwt>0</asrwt>
<pdfrwt beam="1">  1       21 0.44226515E-01 0.19688106E+03</pdfrwt>
<pdfrwt beam="2">  1        4 0.78714057E-01 0.19688106E+03</pdfrwt>
<totfact> 0.30401277E+02</totfact>
</mgrwt>
</event>
<event>
 4    1  0.5134057E+003  0.1244138E+03  0.7546771E-02  0.1235988E+00
          3   -1    0    0  502    0 -0.00000000000E+00  0.00000000000E+00  0.23801180978E+02  0.23801180978E+02  0.00000000000E+00 0. -1.
         21   -1    0    0  503  502  0.00000000000E+00 -0.00000000000E+00 -0.88900076288E+03  0.88900076288E+03  0.00000000000E+00 0.  1.
         21    1    1    2  503  501  0.93039371415E+02 -0.82598205723E+02 -0.66907670607E+03  0.68054568314E+03  0.00000000000E+00 0.  1.
          3    1    1    2  501    0 -0.93039371415E+02  0.82598205723E+02 -0.19612287583E+03  0.23225626072E+03  0.00000000000E+00 0. -1.
<mgrwt>
<rscale>  2 0.12441378E+03</rscale>
<asrwt>0</asrwt>
<pdfrwt beam="2">  1       21 0.13676935E+00 0.12441378E+03</pdfrwt>
<pdfrwt beam="1">  1        3 0.36617200E-02 0.12441378E+03</pdfrwt>
<totfact> 0.69387497E+03</totfact>
</mgrwt>
</event>
<event>
 4    1  0.5134057E+003  0.1141548E+03  0.7546771E-02  0.1253064E+00
         21   -1    0    0  501  502  0.00000000000E+00  0.00000000000E+00  0.36836432143E+03  0.36836432143E+03  0.00000000000E+00 0. -1.
          2   -1    0    0  503    0 -0.00000000000E+00 -0.00000000000E+00 -0.36454042586E+02  0.36454042586E+02  0.00000000000E+00 0.  1.
         21    1    1    2  503  502 -0.91911912961E+01  0.11378417146E+03  0.13115004501E+03  0.17387251071E+03  0.00000000000E+00 0. -1.
          2    1    1    2  501    0  0.91911912961E+01 -0.11378417146E+03  0.20076023383E+03  0.23094585331E+03  0.00000000000E+00 0.  1.
<mgrwt>
<rscale>  2 0.11415479E+03</rscale>
<asrwt>0</asrwt>
<pdfrwt beam="1">  1       21 0.56671431E-01 0.11415479E+03</pdfrwt>
<pdfrwt beam="2">  1        2 0.56083145E-02 0.11415479E+03</pdfrwt>
<totfact> 0.47068897E+04</totfact>
</mgrwt>
</event>
<event>
 4    1  0.5134057E+003  0.1058660E+03  0.7546771E-02  0.1268423E+00
          2   -1    0    0  503    0 -0.00000000000E+00  0.00000000000E+00  0.12222593497E+04  0.12222593497E+04  0.00000000000E+00 0. -1.
         21   -1    0    0  501  502  0.00000000000E+00 -0.00000000000E+00 -0.91791145955E+01  0.91791145955E+01  0.00000000000E+00 0. -1.
         21    1    1    2  503  502 -0.15257768939E+02 -0.10476069007E+03  0.58669320770E+03  0.59616819914E+03  0.00000000000E+00 0. -1.
          2    1    1    2  501    0  0.15257768939E+02  0.10476069007E+03  0.62638702737E+03  0.63527026513E+03  0.00000000000E+00 0. -1.
<mgrwt>
<rscale>  2 0.10586596E+03</rscale>
<asrwt>0</asrwt>
<pdfrwt beam="2">  1       21 0.14121724E-02 0.10586596E+03</pdfrwt>
<pdfrwt beam="1">  1        2 0.18803977E+00 0.10586596E+03</pdfrwt>
<totfact> 0.52393521E+05</totfact>
</mgrwt>
</event>
<event>
 4    1  0.5134057E+003  0.1031097E+03  0.7546771E-02  0.1273889E+00
         21   -1    0    0  503  502  0.00000000000E+00  0.00000000000E+00  0.22771177115E+02  0.22771177115E+02  0.00000000000E+00 0. -1.
          3   -1    0    0  502    0 -0.00000000000E+00 -0.00000000000E+00 -0.67280428076E+03  0.67280428076E+03  0.00000000000E+00 0. -1.
         21    1    1    2  503  501 -0.15226213746E+01  0.10309847048E+03 -0.13261253741E+03  0.16798124320E+03  0.00000000000E+00 0. -1.
          3    1    1    2  501    0  0.15226213746E+01 -0.10309847048E+03 -0.51742056623E+03  0.52759421467E+03  0.00000000000E+00 0. -1.
<mgrwt>
<rscale>  2 0.10310971E+03</rscale>
<asrwt>0</asrwt>
<pdfrwt beam="1">  1       21 0.35032579E-02 0.10310971E+03</pdfrwt>
<pdfrwt beam="2">  1        3 0.10350835E+00 0.10310971E+03</pdfrwt>
<totfact> 0.19303043E+04</totfact>
</mgrwt>
</event>
<event>
 4    1  0.5134057E+003  0.1022086E+03  0.7546771E-02  0.1275719E+00
          1   -1    0    0  503    0 -0.00000000000E+00  0.00000000000E+00  0.96068874899E+03  0.96068874899E+03  0.00000000000E+00 0. -1.
         21   -1    0    0  501  502  0.00000000000E+00 -0.00000000000E+00 -0.20916342733E+02  0.20916342733E+02  0.00000000000E+00 0.  1.
         21    1    1    2  503  502  0.80555878509E+02  0.62907395513E+02  0.12980698807E+03  0.16521635550E+03  0.00000000000E+00 0.  1.
          1    1    1    2  501    0 -0.80555878509E+02 -0.62907395513E+02  0.80996541819E+03  0.81638873623E+03  0.00000000000E+00 0. -1.
<mgrwt>
<rscale>  2 0.10220856E+03</rscale>
<asrwt>0</asrwt>
<pdfrwt beam="2">  1       21 0.32178996E-02 0.10220856E+03</pdfrwt>
<pdfrwt beam="1">  1        1 0.14779823E+00 0.10220856E+03</pdfrwt>
<totfact> 0.10748526E+05</totfact>
</mgrwt>
</event>
<event>
 4    1  0.5134057E+003  0.1094738E+03  0.7546771E-02  0.1261547E+00
          1   -1    0    0  503    0 -0.00000000000E+00  0.00000000000E+00  0.97980698259E+03  0.97980698259E+03  0.00000000000E+00 0. -1.
         21   -1    0    0  501  502  0.00000000000E+00 -0.00000000000E+00 -0.10578425349E+03  0.10578425349E+03  0.00000000000E+00 0.  1.
         21    1    1    2  503  502 -0.26531874151E+02 -0.10621006354E+03 -0.73439667717E+02  0.13182527352E+03  0.00000000000E+00 0.  1.
          1    1    1    2  501    0  0.26531874151E+02  0.10621006354E+03  0.94746239682E+03  0.95376596255E+03  0.00000000000E+00 0. -1.
<mgrwt>
<rscale>  2 0.10947382E+03</rscale>
<asrwt>0</asrwt>
<pdfrwt beam="2">  1       21 0.16274501E-01 0.10947382E+03</pdfrwt>
<pdfrwt beam="1">  1        1 0.15073953E+00 0.10947382E+03</pdfrwt>
<totfact> 0.64987360E+03</totfact>
</mgrwt>
</event>
<event>
 4    1  0.5134057E+003  0.1620731E+03  0.7546771E-02  0.1186376E+00
         21   -1    0    0  503  502  0.00000000000E+00  0.00000000000E+00  0.24074786983E+02  0.24074786983E+02  0.00000000000E+00 0.  1.
          1   -1    0    0  502    0 -0.00000000000E+00 -0.00000000000E+00 -0.11303533287E+04  0.11303533287E+04  0.00000000000E+00 0.  1.
         21    1    1    2  503  501  0.69478075507E+02  0.14642574151E+03 -0.44555796681E+03  0.47411981876E+03  0.00000000000E+00 0.  1.
          1    1    1    2  501    0 -0.69478075507E+02 -0.14642574151E+03 -0.66072057486E+03  0.68030829687E+03  0.00000000000E+00 0.  1.
<mgrwt>
<rscale>  2 0.16207313E+03</rscale>
<asrwt>0</asrwt>
<pdfrwt beam="1">  1       21 0.37038131E-02 0.16207313E+03</pdfrwt>
<pdfrwt beam="2">  1        1 0.17390052E+00 0.16207313E+03</pdfrwt>
<totfact> 0.64619771E+04</totfact>
</mgrwt>
</event>
<event>
 4    1  0.5134057E+003  0.1279562E+03  0.7546771E-02  0.1230520E+00
         21   -1    0    0  501  502  0.00000000000E+00  0.00000000000E+00  0.33437324980E+02  0.33437324980E+02  0.00000000000E+00 0.  1.
          2   -1    0    0  503    0 -0.00000000000E+00 -0.00000000000E+00 -0.10834791895E+04  0.10834791895E+04  0.00000000000E+00 0. -1.
         21    1    1    2  503  502 -0.88411689938E+02  0.92499510711E+02 -0.11158424641E+03  0.16977582409E+03  0.00000000000E+00 0.  1.
          2    1    1    2  501    0  0.88411689938E+02 -0.92499510711E+02 -0.93845761811E+03  0.94714069039E+03  0.00000000000E+00 0. -1.
<mgrwt>
<rscale>  2 0.12795619E+03</rscale>
<asrwt>0</asrwt>
<pdfrwt beam="1">  1       21 0.51442046E-02 0.12795619E+03</pdfrwt>
<pdfrwt beam="2">  1        2 0.16668908E+00 0.12795619E+03</pdfrwt>
<totfact> 0.76476880E+04</totfact>
</mgrwt>
</event>
<event>
 4    1  0.5134057E+003  0.1261204E+03  0.7546771E-02  0.1233329E+00
         21   -1    0    0  503  502  0.00000000000E+00  0.00000000000E+00  0.30177147240E+03  0.30177147240E+03  0.00000000000E+00 0.  1.
          3   -1    0    0  502    0 -0.00000000000E+00 -0.00000000000E+00 -0.62570848000E+02  0.62570848000E+02  0.00000000000E+00 0.  1.
         21    1    1    2  503  501 -0.48918206889E+02  0.11624704679E+03  0.19191912368E+03  0.22965042323E+03  0.00000000000E+00 0.  1.
          3    1    1    2  501    0  0.48918206889E+02 -0.11624704679E+03  0.47281500718E+02  0.13469189717E+03  0.00000000000E+00 0.  1.
<mgrwt>
<rscale>  2 0.12612045E+03</rscale>
<asrwt>0</asrwt>
<pdfrwt beam="1">  1       21 0.46426379E-01 0.12612045E+03</pdfrwt>
<pdfrwt beam="2">  1        3 0.96262845E-02 0.12612045E+03</pdfrwt>
<totfact> 0.16815121E+04</totfact>
</mgrwt>
</event>
<event>
 4    1  0.5134057E+003  0.2987844E+03  0.7546771E-02  0.1085850E+00
         -4   -1    0    0    0  501 -0.00000000000E+00  0.00000000000E+00  0.18080088228E+03  0.18080088228E+03  0.00000000000E+00 0.  1.
         21   -1    0    0  503  502  0.00000000000E+00 -0.00000000000E+00 -0.70725487751E+03  0.70725487751E+03  0.00000000000E+00 0. -1.
         21    1    1    2  503  501 -0.24741487173E+03  0.16750517052E+03 -0.50718597074E+03  0.58865075369E+03  0.00000000000E+00 0. -1.
         -4    1    1    2    0  502  0.24741487173E+03 -0.16750517052E+03 -0.19268024494E+02  0.29940500609E+03  0.00000000000E+00 0.  1.
<mgrwt>
<rscale>  2 0.29878437E+03</rscale>
<asrwt>0</asrwt>
<pdfrwt beam="2">  1       21 0.10880844E+00 0.29878437E+03</pdfrwt>
<pdfrwt beam="1">  1       -4 0.27815521E-01 0.29878437E+03</pdfrwt>
<totfact> 0.34005617E+02</totfact>
</mgrwt>
</event>
<event>
 4    1  0.5134057E+003  0.2039188E+03  0.7546771E-02  0.1146474E+00
          2   -1    0    0  502    0 -0.00000000000E+00  0.00000000000E+00  0.17543925308E+04  0.17543925308E+04  0.00000000000E+00 0.  1.
         21   -1    0    0  503  502  0.00000000000E+00 -0.00000000000E+00 -0.23723491829E+02  0.23723491829E+02  0.00000000000E+00 0. -1.
         21    1    1    2  503  501  0.19477975402E+03  0.60363235889E+02  0.89200119007E+03  0.91501311242E+03  0.00000000000E+00 0. -1.
          2    1    1    2  501    0 -0.19477975402E+03 -0.60363235889E+02  0.83866784889E+03  0.86310291020E+03  0.00000000000E+00 0.  1.
<mgrwt>
<rscale>  2 0.20391879E+03</rscale>
<asrwt>0</asrwt>
<pdfrwt beam="2">  1       21 0.36497693E-02 0.20391879E+03</pdfrwt>
<pdfrwt beam="1">  1        2 0.26990644E+00 0.20391879E+03</pdfrwt>
<totfact> 0.58880640E+04</totfact>
</mgrwt>
</event>
<event>
 4    1  0.5134057E+003  0.1104886E+03  0.7546771E-02  0.1259668E+00
         21   -1    0    0  501  502  0.00000000000E+00  0.00000000000E+00  0.21414943153E+03  0.21414943153E+03  0.00000000000E+00 0.  1.
          2   -1    0    0  503    0 -0.00000000000E+00 -0.00000000000E+00 -0.17316266394E+03  0.17316266394E+03  0.00000000000E+00 0. -1.
         21    1    1    2  503  502 -0.39717635822E+02 -0.10310308971E+03  0.17910192321E+03  0.21044057736E+03  0.00000000000E+00 0.  1.
          2    1    1    2  501    0  0.39717635822E+02  0.10310308971E+03 -0.13811515562E+03  0.17687151810E+03  0.00000000000E+00 0. -1.
<mgrwt>
<rscale>  2 0.11048863E+03</rscale>
<asrwt>0</asrwt>
<pdfrwt beam="1">  1       21 0.32946066E-01 0.11048863E+03</pdfrwt>
<pdfrwt beam="2">  1        2 0.26640410E-01 0.11048863E+03</pdfrwt>
<totfact> 0.21939455E+04</totfact>
</mgrwt>
</event>
<event>
 4    1  0.5134057E+003  0.1752636E+03  0.7546771E-02  0.1172467E+00
         21   -1    0    0  501  502  0.00000000000E+00  0.00000000000E+00  0.41551698761E+03  0.41551698761E+03  0.00000000000E+00 0.  1.
          1   -1    0    0  503    0 -0.00000000000E+00 -0.00000000000E+00 -0.87332930196E+02  0.87332930196E+02  0.00000000000E+00 0.  1.
         21    1    1    2  503  502  0.80601334783E+02  0.15563016469E+03  0.26260451417E+03  0.31571894810E+03  0.00000000000E+00 0.  1.
          1    1    1    2  501    0 -0.80601334783E+02 -0.15563016469E+03  0.65579543249E+02  0.18713096971E+03  0.00000000000E+00 0.  1.
<mgrwt>
<rscale>  2 0.17526358E+03</rscale>
<asrwt>0</asrwt>
<pdfrwt beam="1">  1       21 0.63925689E-01 0.17526358E+03</pdfrwt>
<pdfrwt beam="2">  1        1 0.13435836E-01 0.17526358E+03</pdfrwt>
<totfact> 0.10444344E+04</totfact>
</mgrwt>
</event>
<event>
 4    1  0.5134057E+003  0.1016551E+03  0.7546771E-02  0.1276854E+00
         21   -1    0    0  501  502  0.00000000000E+00  0.00000000000E+00  0.62931522162E+01  0.62931522162E+01  0.00000000000E+00 0. -1.
          2   -1    0    0  503    0 -0.00000000000E+00 -0.00000000000E+00 -0.22233405320E+04  0.22233405320E+04  0.00000000000E+00 0. -1.
         21    1    1    2  503  502  0.10165504667E+03 -0.54067017146E-01 -0.53850072275E+03  0.54801166031E+03  0.00000000000E+00 0. -1.
          2    1    1    2  501    0 -0.10165504667E+03  0.54067017146E-01 -0.16785466570E+04  0.16816220239E+04  0.00000000000E+00 0. -1.
<mgrwt>
<rscale>  2 0.10165506E+03</rscale>
<asrwt>0</asrwt>
<pdfrwt beam="1">  1       21 0.96817500E-03 0.10165506E+03</pdfrwt>
<pdfrwt beam="2">  1        2 0.34205319E+00 0.10165506E+03</pdfrwt>
<totfact> 0.29096850E+05</totfact>
</mgrwt>
</event>
<event>
 4    1  0.5134057E+003  0.2077502E+03  0.7546771E-02  0.1143360E+00
          2   -1    0    0  502    0 -0.00000000000E+00  0.00000000000E+00  0.17889606047E+04  0.17889606047E+04  0.00000000000E+00 0. -1.
         21   -1    0    0  503  502  0.00000000000E+00 -0.00000000000E+00 -0.11485503239E+03  0.11485503239E+03  0.00000000000E+00 0.  1.
         21    1    1    2  503  501  0.19330974949E+03 -0.76101835082E+02 -0.89921699419E+01  0.20794472263E+03  0.00000000000E+00 0.  1.
          2    1    1    2  501    0 -0.19330974949E+03  0.76101835082E+02  0.16830977423E+04  0.16958709145E+04  0.00000000000E+00 0. -1.
<mgrwt>
<rscale>  2 0.20775021E+03</rscale>
<asrwt>0</asrwt>
<pdfrwt beam="2">  1       21 0.17670006E-01 0.20775021E+03</pdfrwt>
<pdfrwt beam="1">  1        2 0.27522469E+00 0.20775021E+03</pdfrwt>
<totfact> 0.35734424E+03</totfact>
</mgrwt>
</event>
<event>
 4    1  0.5134057E+003  0.1402666E+03  0.7546771E-02  0.1212971E+00
         -2   -1    0    0    0  501 -0.00000000000E+00  0.00000000000E+00  0.17126556714E+03  0.17126556714E+03  0.00000000000E+00 0. -1.
         21   -1    0    0  503  502  0.00000000000E+00 -0.00000000000E+00 -0.20031263055E+03  0.20031263055E+03  0.00000000000E+00 0.  1.
         21    1    1    2  503  501  0.10872082985E+02  0.13984457589E+03 -0.13585742053E+03  0.19527402876E+03  0.00000000000E+00 0.  1.
         -2    1    1    2    0  502 -0.10872082985E+02 -0.13984457589E+03  0.10681035712E+03  0.17630416893E+03  0.00000000000E+00 0. -1.
<mgrwt>
<rscale>  2 0.14026656E+03</rscale>
<asrwt>0</asrwt>
<pdfrwt beam="2">  1       21 0.30817328E-01 0.14026656E+03</pdfrwt>
<pdfrwt beam="1">  1       -2 0.26348549E-01 0.14026656E+03</pdfrwt>
<totfact> 0.10503053E+04</totfact>
</mgrwt>
</event>
<event>
 4    1  0.5134057E+003  0.1179985E+03  0.7546771E-02  0.1246436E+00
          1   -1    0    0  503    0 -0.00000000000E+00  0.00000000000E+00  0.83061846104E+02  0.83061846104E+02  0.00000000000E+00 0.  1.
         21   -1    0    0  501  502  0.00000000000E+00 -0.00000000000E+00 -0.25153818569E+03  0.25153818569E+03  0.00000000000E+00 0.  1.
         21    1    1    2  503  502 -0.96381661404E+02 -0.68075106791E+02 -0.18086474196E+03  0.21595300346E+03  0.00000000000E+00 0.  1.
          1    1    1    2  501    0  0.96381661404E+02  0.68075106791E+02  0.12388402370E+02  0.11864702834E+03  0.00000000000E+00 0.  1.
<mgrwt>
<rscale>  2 0.11799849E+03</rscale>
<asrwt>0</asrwt>
<pdfrwt beam="2">  1       21 0.38698182E-01 0.11799849E+03</pdfrwt>
<pdfrwt beam="1">  1        1 0.12778746E-01 0.11799849E+03</pdfrwt>
<totfact> 0.31619305E+04</totfact>
</mgrwt>
</event>
<event>
 4    1  0.5134057E+003  0.1035846E+03  0.7546771E-02  0.1272934E+00
         21   -1    0    0  503  502  0.00000000000E+00  0.00000000000E+00  0.21631982967E+03  0.21631982967E+03  0.00000000000E+00 0. -1.
          2   -1    0    0  502    0 -0.00000000000E+00 -0.00000000000E+00 -0.13902816168E+03  0.13902816168E+03  0.00000000000E+00 0.  1.
         21    1    1    2  503  501  0.89517290100E+02 -0.52119254750E+02  0.18114301776E+03  0.20866852860E+03  0.00000000000E+00 0. -1.
          2    1    1    2  501    0 -0.89517290100E+02  0.52119254750E+02 -0.10385134977E+03  0.14667946275E+03  0.00000000000E+00 0.  1.
<mgrwt>
<rscale>  2 0.10358456E+03</rscale>
<asrwt>0</asrwt>
<pdfrwt beam="1">  1       21 0.33279974E-01 0.10358456E+03</pdfrwt>
<pdfrwt beam="2">  1        2 0.21388948E-01 0.10358456E+03</pdfrwt>
<totfact> 0.27391164E+04</totfact>
</mgrwt>
</event>
<event>
 4    1  0.5134057E+003  0.1069347E+03  0.7546771E-02  0.1266354E+00
          1   -1    0    0  502    0 -0.00000000000E+00  0.00000000000E+00  0.12366485205E+04  0.12366485205E+04  0.00000000000E+00 0.  1.
         21   -1    0    0  503  502  0.00000000000E+00 -0.00000000000E+00 -0.27756195688E+02  0.27756195688E+02  0.00000000000E+00 0.  1.
         21    1    1    2  503  501 -0.13072473400E+02  0.10613264999E+03  0.88181522466E+02  0.13860378732E+03  0.00000000000E+00 0.  1.
          1    1    1    2  501    0  0.13072473400E+02 -0.10613264999E+03  0.11207108024E+04  0.11258009289E+04  0.00000000000E+00 0.  1.
<mgrwt>
<rscale>  2 0.10693469E+03</rscale>
<asrwt>0</asrwt>
<pdfrwt beam="2">  1       21 0.42701849E-02 0.10693469E+03</pdfrwt>
<pdfrwt beam="1">  1        1 0.19025358E+00 0.10693469E+03</pdfrwt>
<totfact> 0.43256120E+04</totfact>
</mgrwt>
</event>
<event>
 4    1  0.5134057E+003  0.1235985E+03  0.7546771E-02  0.1237276E+00
         21   -1    0    0  503  502  0.00000000000E+00  0.00000000000E+00  0.84084686313E+03  0.84084686313E+03  0.00000000000E+00 0.  1.
         -2   -1    0    0    0  501 -0.00000000000E+00 -0.00000000000E+00 -0.34286623654E+02  0.34286623654E+02  0.00000000000E+00 0. -1.
         21    1    1    2  503  501 -0.12187772197E+03  0.20552690863E+02  0.70329620487E+03  0.71407432666E+03  0.00000000000E+00 0.  1.
         -2    1    1    2    0  502  0.12187772197E+03 -0.20552690863E+02  0.10326403461E+03  0.16105916012E+03  0.00000000000E+00 0. -1.
<mgrwt>
<rscale>  2 0.12359851E+03</rscale>
<asrwt>0</asrwt>
<pdfrwt beam="1">  1       21 0.12936104E+00 0.12359851E+03</pdfrwt>
<pdfrwt beam="2">  1       -2 0.52748658E-02 0.12359851E+03</pdfrwt>
<totfact> 0.62404990E+03</totfact>
</mgrwt>
</event>
<event>
 4    1  0.5134057E+003  0.1248442E+03  0.7546771E-02  0.1235313E+00
          1   -1    0    0  502    0 -0.00000000000E+00  0.00000000000E+00  0.66475896427E+03  0.66475896427E+03  0.00000000000E+00 0.  1.
         21   -1    0    0  503  502  0.00000000000E+00 -0.00000000000E+00 -0.23759183642E+02  0.23759183642E+02  0.00000000000E+00 0. -1.
         21    1    1    2  503  501 -0.44476432242E+02 -0.11665296324E+03  0.28098730580E+03  0.30747346695E+03  0.00000000000E+00 0. -1.
          1    1    1    2  501    0  0.44476432242E+02  0.11665296324E+03  0.36001247483E+03  0.38104468097E+03  0.00000000000E+00 0.  1.
<mgrwt>
<rscale>  2 0.12484417E+03</rscale>
<asrwt>0</asrwt>
<pdfrwt beam="2">  1       21 0.36552595E-02 0.12484417E+03</pdfrwt>
<pdfrwt beam="1">  1        1 0.10227060E+00 0.12484417E+03</pdfrwt>
<totfact> 0.15236993E+05</totfact>
</mgrwt>
</event>
<event>
 4    1  0.5134057E+003  0.1097694E+03  0.7546771E-02  0.1260997E+00
          2   -1    0    0  502    0 -0.00000000000E+00  0.00000000000E+00  0.71918594964E+03  0.71918594964E+03  0.00000000000E+00 0.  1.
         21   -1    0    0  503  502  0.00000000000E+00 -0.00000000000E+00 -0.50753433457E+02  0.50753433457E+02  0.00000000000E+00 0.  1.
         21    1    1    2  503  501 -0.10309741512E+03  0.37686264650E+02  0.19130433634E+02  0.11142398772E+03  0.00000000000E+00 0.  1.
          2    1    1    2  501    0  0.10309741512E+03 -0.37686264650E+02  0.64930208254E+03  0.65851539537E+03  0.00000000000E+00 0.  1.
<mgrwt>
<rscale>  2 0.10976945E+03</rscale>
<asrwt>0</asrwt>
<pdfrwt beam="2">  1       21 0.78082210E-02 0.10976945E+03</pdfrwt>
<pdfrwt beam="1">  1        2 0.11064398E+00 0.10976945E+03</pdfrwt>
<totfact> 0.63957036E+04</totfact>
</mgrwt>
</event>
<event>
 4    1  0.5134057E+003  0.1744745E+03  0.7546771E-02  0.1173260E+00
         21   -1    0    0  503  502  0.00000000000E+00  0.00000000000E+00  0.91540864394E+03  0.91540864394E+03  0.00000000000E+00 0.  1.
          2   -1    0    0  502    0 -0.00000000000E+00 -0.00000000000E+00 -0.56021837154E+03  0.56021837154E+03  0.00000000000E+00 0.  1.
         21    1    1    2  503  501  0.48969665689E+02 -0.16746140697E+03  0.89317547056E+03  0.91005701591E+03  0.00000000000E+00 0.  1.
          2    1    1    2  501    0 -0.48969665689E+02  0.16746140697E+03 -0.53798519816E+03  0.56556999958E+03  0.00000000000E+00 0.  1.
<mgrwt>
<rscale>  2 0.17447450E+03</rscale>
<asrwt>0</asrwt>
<pdfrwt beam="1">  1       21 0.14083210E+00 0.17447450E+03</pdfrwt>
<pdfrwt beam="2">  1        2 0.86187442E-01 0.17447450E+03</pdfrwt>
<totfact> 0.24540076E+02</totfact>
</mgrwt>
</event>
<event>
 4    1  0.5134057E+003  0.1036759E+03  0.7546771E-02  0.1272751E+00
         21   -1    0    0  501  502  0.00000000000E+00  0.00000000000E+00  0.18682996990E+02  0.18682996990E+02  0.00000000000E+00 0. -1.
          2   -1    0    0  503    0 -0.00000000000E+00 -0.00000000000E+00 -0.15660260330E+04  0.15660260330E+04  0.00000000000E+00 0. -1.
         21    1    1    2  503  502 -0.72304653263E+02 -0.74301586684E+02 -0.14345090102E+03  0.17699392552E+03  0.00000000000E+00 0. -1.
          2    1    1    2  501    0  0.72304653263E+02  0.74301586684E+02 -0.14038921350E+04  0.14077151045E+04  0.00000000000E+00 0. -1.
<mgrwt>
<rscale>  2 0.10367588E+03</rscale>
<asrwt>0</asrwt>
<pdfrwt beam="1">  1       21 0.28743055E-02 0.10367588E+03</pdfrwt>
<pdfrwt beam="2">  1        2 0.24092723E+00 0.10367588E+03</pdfrwt>
<totfact> 0.11041548E+05</totfact>
</mgrwt>
</event>
<event>
 4    1  0.5134057E+003  0.1572066E+03  0.7546771E-02  0.1191887E+00
         21   -1    0    0  503  502  0.00000000000E+00  0.00000000000E+00  0.15065453916E+03  0.15065453916E+03  0.00000000000E+00 0. -1.
          1   -1    0    0  502    0 -0.00000000000E+00 -0.00000000000E+00 -0.35691123581E+03  0.35691123581E+03  0.00000000000E+00 0.  1.
         21    1    1    2  503  501  0.11783515120E+03 -0.10406145951E+03  0.83428812332E+02  0.17797268594E+03  0.00000000000E+00 0. -1.
          1    1    1    2  501    0 -0.11783515120E+03  0.10406145951E+03 -0.28968550899E+03  0.32959308903E+03  0.00000000000E+00 0.  1.
<mgrwt>
<rscale>  2 0.15720658E+03</rscale>
<asrwt>0</asrwt>
<pdfrwt beam="1">  1       21 0.23177622E-01 0.15720658E+03</pdfrwt>
<pdfrwt beam="2">  1        1 0.54909420E-01 0.15720658E+03</pdfrwt>
<totfact> 0.13549972E+04</totfact>
</mgrwt>
</event>
<event>
 4    1  0.5134057E+003  0.1143384E+03  0.7546771E-02  0.1252740E+00
         21   -1    0    0  501  502  0.00000000000E+00  0.00000000000E+00  0.37845501549E+03  0.37845501549E+03  0.00000000000E+00 0.  1.
          3   -1    0    0  503    0 -0.00000000000E+00 -0.00000000000E+00 -0.15438452002E+03  0.15438452002E+03  0.00000000000E+00 0. -1.
         21    1    1    2  503  502  0.88167247288E+02 -0.72799697750E+02  0.34676430011E+03  0.36512838745E+03  0.00000000000E+00 0.  1.
          3    1    1    2  501    0 -0.88167247288E+02  0.72799697750E+02 -0.12269380464E+03  0.16771114806E+03  0.00000000000E+00 0. -1.
<mgrwt>
<rscale>  2 0.11433836E+03</rscale>
<asrwt>0</asrwt>
<pdfrwt beam="1">  1       21 0.58223848E-01 0.11433836E+03</pdfrwt>
<pdfrwt beam="2">  1        3 0.23751465E-01 0.11433836E+03</pdfrwt>
<totfact> 0.22363730E+03</totfact>
</mgrwt>
</event>
<event>
 4    1  0.5134057E+003  0.1254383E+03  0.7546771E-02  0.1234386E+00
          2   -1    0    0  503    0 -0.00000000000E+00  0.00000000000E+00  0.87173005869E+03  0.87173005869E+03  0.00000000000E+00 0. -1.
         21   -1    0    0  501  502  0.00000000000E+00 -0.00000000000E+00 -0.52653128564E+02  0.52653128564E+02  0.00000000000E+00 0. -1.
         21    1    1    2  503  502 -0.11543920102E+03 -0.49076986944E+02  0.34852519736E+02  0.13019008376E+03  0.00000000000E+00 0. -1.
          2    1    1    2  501    0  0.11543920102E+03  0.49076986944E+02  0.78422441039E+03  0.79419310349E+03  0.00000000000E+00 0. -1.
<mgrwt>
<rscale>  2 0.12543827E+03</rscale>
<asrwt>0</asrwt>
<pdfrwt beam="2">  1       21 0.81004819E-02 0.12543827E+03</pdfrwt>
<pdfrwt beam="1">  1        2 0.13411231E+00 0.12543827E+03</pdfrwt>
<totfact> 0.47391572E+04</totfact>
</mgrwt>
</event>
<event>
 4    1  0.5134057E+003  0.1263822E+03  0.7546771E-02  0.1232925E+00
         21   -1    0    0  501  502  0.00000000000E+00  0.00000000000E+00  0.44582498689E+02  0.44582498689E+02  0.00000000000E+00 0. -1.
          1   -1    0    0  503    0 -0.00000000000E+00 -0.00000000000E+00 -0.71662834032E+03  0.71662834032E+03  0.00000000000E+00 0.  1.
         21    1    1    2  503  502  0.90863932291E+02  0.87841899798E+02 -0.66876664134E+02  0.14298580964E+03  0.00000000000E+00 0. -1.
          1    1    1    2  501    0 -0.90863932291E+02 -0.87841899798E+02 -0.60516917749E+03  0.61822502937E+03  0.00000000000E+00 0.  1.
<mgrwt>
<rscale>  2 0.12638217E+03</rscale>
<asrwt>0</asrwt>
<pdfrwt beam="1">  1       21 0.68588461E-02 0.12638217E+03</pdfrwt>
<pdfrwt beam="2">  1        1 0.11025051E+00 0.12638217E+03</pdfrwt>
<totfact> 0.47617668E+04</totfact>
</mgrwt>
</event>
<event>
 4    1  0.5134057E+003  0.1105738E+03  0.7546771E-02  0.1259511E+00
         21   -1    0    0  501  502  0.00000000000E+00  0.00000000000E+00  0.22795135807E+03  0.22795135807E+03  0.00000000000E+00 0.  1.
          1   -1    0    0  503    0 -0.00000000000E+00 -0.00000000000E+00 -0.10625880434E+03  0.10625880434E+03  0.00000000000E+00 0. -1.
         21    1    1    2  503  502 -0.59219355106E+02 -0.93378937656E+02  0.17844194117E+03  0.20992399669E+03  0.00000000000E+00 0.  1.
          1    1    1    2  501    0  0.59219355106E+02  0.93378937656E+02 -0.56749387432E+02  0.12428616573E+03  0.00000000000E+00 0. -1.
<mgrwt>
<rscale>  2 0.11057377E+03</rscale>
<asrwt>0</asrwt>
<pdfrwt beam="1">  1       21 0.35069440E-01 0.11057377E+03</pdfrwt>
<pdfrwt beam="2">  1        1 0.16347508E-01 0.11057377E+03</pdfrwt>
<totfact> 0.27918180E+04</totfact>
</mgrwt>
</event>
<event>
 4    1  0.5134057E+003  0.1214896E+03  0.7546771E-02  0.1240660E+00
         21   -1    0    0  503  502  0.00000000000E+00  0.00000000000E+00  0.10702156119E+03  0.10702156119E+03  0.00000000000E+00 0. -1.
          1   -1    0    0  502    0 -0.00000000000E+00 -0.00000000000E+00 -0.23039086100E+03  0.23039086100E+03  0.00000000000E+00 0. -1.
         21    1    1    2  503  501  0.67867832566E+02 -0.10076546322E+03  0.45200185275E+02  0.12962552998E+03  0.00000000000E+00 0. -1.
          1    1    1    2  501    0 -0.67867832566E+02  0.10076546322E+03 -0.16856948508E+03  0.20778689221E+03  0.00000000000E+00 0. -1.
<mgrwt>
<rscale>  2 0.12148959E+03</rscale>
<asrwt>0</asrwt>
<pdfrwt beam="1">  1       21 0.16464856E-01 0.12148959E+03</pdfrwt>
<pdfrwt beam="2">  1        1 0.35444747E-01 0.12148959E+03</pdfrwt>
<totfact> 0.43899483E+04</totfact>
</mgrwt>
</event>
<event>
 4    1  0.5134057E+003  0.1205578E+03  0.7546771E-02  0.1242180E+00
          1   -1    0    0  503    0 -0.00000000000E+00  0.00000000000E+00  0.12228606368E+04  0.12228606368E+04  0.00000000000E+00 0.  1.
         21   -1    0    0  501  502  0.00000000000E+00 -0.00000000000E+00 -0.25576332817E+02  0.25576332817E+02  0.00000000000E+00 0.  1.
         21    1    1    2  503  502  0.11839791066E+03 -0.22718032129E+02  0.14193881629E+03  0.18622782231E+03  0.00000000000E+00 0.  1.
          1    1    1    2  501    0 -0.11839791066E+03  0.22718032129E+02  0.10553454877E+04  0.10622091473E+04  0.00000000000E+00 0.  1.
<mgrwt>
<rscale>  2 0.12055776E+03</rscale>
<asrwt>0</asrwt>
<pdfrwt beam="2">  1       21 0.39348214E-02 0.12055776E+03</pdfrwt>
<pdfrwt beam="1">  1        1 0.18813236E+00 0.12055776E+03</pdfrwt>
<totfact> 0.50557845E+04</totfact>
</mgrwt>
</event>
<event>
 4    1  0.5134057E+003  0.1018123E+03  0.7546771E-02  0.1276530E+00
         21   -1    0    0  501  502  0.00000000000E+00  0.00000000000E+00  0.70274610717E+01  0.70274610717E+01  0.00000000000E+00 0.  1.
          2   -1    0    0  503    0 -0.00000000000E+00 -0.00000000000E+00 -0.22970750170E+04  0.22970750170E+04  0.00000000000E+00 0. -1.
         21    1    1    2  503  502  0.27272754705E+02  0.98091476848E+02 -0.45584631952E+03  0.46707773229E+03  0.00000000000E+00 0.  1.
          2    1    1    2  501    0 -0.27272754705E+02 -0.98091476848E+02 -0.18342012364E+04  0.18370247458E+04  0.00000000000E+00 0. -1.
<mgrwt>
<rscale>  2 0.10181228E+03</rscale>
<asrwt>0</asrwt>
<pdfrwt beam="1">  1       21 0.10811483E-02 0.10181228E+03</pdfrwt>
<pdfrwt beam="2">  1        2 0.35339602E+00 0.10181228E+03</pdfrwt>
<totfact> 0.22427354E+05</totfact>
</mgrwt>
</event>
<event>
 4    1  0.5134057E+003  0.1062200E+03  0.7546771E-02  0.1267734E+00
          2   -1    0    0  503    0 -0.00000000000E+00  0.00000000000E+00  0.29492856631E+04  0.29492856631E+04  0.00000000000E+00 0.  1.
         21   -1    0    0  501  502  0.00000000000E+00 -0.00000000000E+00 -0.55053572693E+01  0.55053572693E+01  0.00000000000E+00 0. -1.
         21    1    1    2  503  502  0.42830911158E+02  0.97201814611E+02  0.65581153639E+03  0.66435792384E+03  0.00000000000E+00 0. -1.
          2    1    1    2  501    0 -0.42830911158E+02 -0.97201814611E+02  0.22879687694E+04  0.22904330965E+04  0.00000000000E+00 0.  1.
<mgrwt>
<rscale>  2 0.10621996E+03</rscale>
<asrwt>0</asrwt>
<pdfrwt beam="2">  1       21 0.84698040E-03 0.10621996E+03</pdfrwt>
<pdfrwt beam="1">  1        2 0.45373499E+00 0.10621996E+03</pdfrwt>
<totfact> 0.14634272E+05</totfact>
</mgrwt>
</event>
<event>
 4    1  0.5134057E+003  0.1072559E+03  0.7546771E-02  0.1265738E+00
          1   -1    0    0  503    0 -0.00000000000E+00  0.00000000000E+00  0.20460437884E+03  0.20460437884E+03  0.00000000000E+00 0.  1.
         21   -1    0    0  501  502  0.00000000000E+00 -0.00000000000E+00 -0.18459402383E+03  0.18459402383E+03  0.00000000000E+00 0. -1.
         21    1    1    2  503  502  0.10162286867E+03 -0.34301999869E+02 -0.15227397819E+03  0.18625573565E+03  0.00000000000E+00 0. -1.
          1    1    1    2  501    0 -0.10162286867E+03  0.34301999869E+02  0.17228433319E+03  0.20294266701E+03  0.00000000000E+00 0.  1.
<mgrwt>
<rscale>  2 0.10725593E+03</rscale>
<asrwt>0</asrwt>
<pdfrwt beam="2">  1       21 0.28399081E-01 0.10725593E+03</pdfrwt>
<pdfrwt beam="1">  1        1 0.31477597E-01 0.10725593E+03</pdfrwt>
<totfact> 0.18447580E+04</totfact>
</mgrwt>
</event>
<event>
 4    1  0.5134057E+003  0.1654710E+03  0.7546771E-02  0.1182655E+00
          1   -1    0    0  503    0 -0.00000000000E+00  0.00000000000E+00  0.38585062594E+03  0.38585062594E+03  0.00000000000E+00 0.  1.
         21   -1    0    0  501  502  0.00000000000E+00 -0.00000000000E+00 -0.11630852714E+03  0.11630852714E+03  0.00000000000E+00 0.  1.
         21    1    1    2  503  502  0.16546995002E+03  0.58532938483E+00 -0.22004626691E+02  0.16692768065E+03  0.00000000000E+00 0.  1.
          1    1    1    2  501    0 -0.16546995002E+03 -0.58532938483E+00  0.29154672549E+03  0.33523147244E+03  0.00000000000E+00 0.  1.
<mgrwt>
<rscale>  2 0.16547099E+03</rscale>
<asrwt>0</asrwt>
<pdfrwt beam="2">  1       21 0.17893620E-01 0.16547099E+03</pdfrwt>
<pdfrwt beam="1">  1        1 0.59361634E-01 0.16547099E+03</pdfrwt>
<totfact> 0.19866461E+04</totfact>
</mgrwt>
</event>
<event>
 4    1  0.5134057E+003  0.2209918E+03  0.7546771E-02  0.1133146E+00
          1   -1    0    0  503    0 -0.00000000000E+00  0.00000000000E+00  0.19636088269E+04  0.19636088269E+04  0.00000000000E+00 0. -1.
         21   -1    0    0  501  502  0.00000000000E+00 -0.00000000000E+00 -0.27557814081E+02  0.27557814081E+02  0.00000000000E+00 0. -1.
         21    1    1    2  503  502  0.31482712140E+02  0.21873779159E+03  0.65717269870E+03  0.69333493966E+03  0.00000000000E+00 0. -1.
          1    1    1    2  501    0 -0.31482712140E+02 -0.21873779159E+03  0.12788783141E+04  0.12978317013E+04  0.00000000000E+00 0. -1.
<mgrwt>
<rscale>  2 0.22099182E+03</rscale>
<asrwt>0</asrwt>
<pdfrwt beam="2">  1       21 0.42396652E-02 0.22099182E+03</pdfrwt>
<pdfrwt beam="1">  1        1 0.30209356E+00 0.22099182E+03</pdfrwt>
<totfact> 0.14349852E+04</totfact>
</mgrwt>
</event>
<event>
 4    1  0.5134057E+003  0.1106710E+03  0.7546771E-02  0.1259332E+00
         21   -1    0    0  503  502  0.00000000000E+00  0.00000000000E+00  0.10658839874E+02  0.10658839874E+02  0.00000000000E+00 0.  1.
          2   -1    0    0  502    0 -0.00000000000E+00 -0.00000000000E+00 -0.14335409792E+04  0.14335409792E+04  0.00000000000E+00 0.  1.
         21    1    1    2  503  501  0.10955910253E+03 -0.15648100719E+02 -0.38978685927E+03  0.40519360270E+03  0.00000000000E+00 0.  1.
          2    1    1    2  501    0 -0.10955910253E+03  0.15648100719E+02 -0.10330952801E+04  0.10390062164E+04  0.00000000000E+00 0.  1.
<mgrwt>
<rscale>  2 0.11067095E+03</rscale>
<asrwt>0</asrwt>
<pdfrwt beam="1">  1       21 0.16398214E-02 0.11067095E+03</pdfrwt>
<pdfrwt beam="2">  1        2 0.22054478E+00 0.11067095E+03</pdfrwt>
<totfact> 0.31960632E+05</totfact>
</mgrwt>
</event>
<event>
 4    1  0.5134057E+003  0.1134625E+03  0.7546771E-02  0.1254289E+00
          1   -1    0    0  503    0 -0.00000000000E+00  0.00000000000E+00  0.44579185231E+03  0.44579185231E+03  0.00000000000E+00 0. -1.
         21   -1    0    0  501  502  0.00000000000E+00 -0.00000000000E+00 -0.47074313726E+02  0.47074313726E+02  0.00000000000E+00 0.  1.
         21    1    1    2  503  502 -0.10728986525E+03  0.36913758467E+02  0.46146219908E+02  0.12248760901E+03  0.00000000000E+00 0.  1.
          1    1    1    2  501    0  0.10728986525E+03 -0.36913758467E+02  0.35257131868E+03  0.37037855703E+03  0.00000000000E+00 0. -1.
<mgrwt>
<rscale>  2 0.11346251E+03</rscale>
<asrwt>0</asrwt>
<pdfrwt beam="2">  1       21 0.72422024E-02 0.11346251E+03</pdfrwt>
<pdfrwt beam="1">  1        1 0.68583359E-01 0.11346251E+03</pdfrwt>
<totfact> 0.81854930E+04</totfact>
</mgrwt>
</event>
<event>
 4    1  0.5134057E+003  0.1227838E+03  0.7546771E-02  0.1238574E+00
         21   -1    0    0  501  502  0.00000000000E+00  0.00000000000E+00  0.80504429498E+01  0.80504429498E+01  0.00000000000E+00 0. -1.
          2   -1    0    0  503    0 -0.00000000000E+00 -0.00000000000E+00 -0.23722864651E+04  0.23722864651E+04  0.00000000000E+00 0.  1.
         21    1    1    2  503  502  0.15572465745E+02 -0.12179232887E+03 -0.63593204408E+03  0.64767695478E+03  0.00000000000E+00 0. -1.
          2    1    1    2  501    0 -0.15572465745E+02  0.12179232887E+03 -0.17283039780E+04  0.17326599532E+04  0.00000000000E+00 0.  1.
<mgrwt>
<rscale>  2 0.12278385E+03</rscale>
<asrwt>0</asrwt>
<pdfrwt beam="1">  1       21 0.12385294E-02 0.12278385E+03</pdfrwt>
<pdfrwt beam="2">  1        2 0.36496722E+00 0.12278385E+03</pdfrwt>
<totfact> 0.16524287E+05</totfact>
</mgrwt>
</event>
<event>
 4    1  0.5134057E+003  0.1139665E+03  0.7546771E-02  0.1253396E+00
         21   -1    0    0  501  502  0.00000000000E+00  0.00000000000E+00  0.44265691533E+03  0.44265691533E+03  0.00000000000E+00 0. -1.
          1   -1    0    0  503    0 -0.00000000000E+00 -0.00000000000E+00 -0.16286623087E+03  0.16286623087E+03  0.00000000000E+00 0. -1.
         21    1    1    2  503  502 -0.59857259590E+02 -0.96981764540E+02  0.41403103515E+03  0.42942991540E+03  0.00000000000E+00 0. -1.
          1    1    1    2  501    0  0.59857259590E+02  0.96981764540E+02 -0.13424035069E+03  0.17609323080E+03  0.00000000000E+00 0. -1.
<mgrwt>
<rscale>  2 0.11396646E+03</rscale>
<asrwt>0</asrwt>
<pdfrwt beam="1">  1       21 0.68101063E-01 0.11396646E+03</pdfrwt>
<pdfrwt beam="2">  1        1 0.25056343E-01 0.11396646E+03</pdfrwt>
<totfact> 0.41679225E+03</totfact>
</mgrwt>
</event>
<event>
 4    1  0.5134057E+003  0.1002730E+03  0.7546771E-02  0.1279723E+00
         -2   -1    0    0    0  501 -0.00000000000E+00  0.00000000000E+00  0.14052986827E+03  0.14052986827E+03  0.00000000000E+00 0. -1.
         21   -1    0    0  503  502  0.00000000000E+00 -0.00000000000E+00 -0.17410846046E+03  0.17410846046E+03  0.00000000000E+00 0. -1.
         21    1    1    2  503  501 -0.59751739201E+02 -0.80525824044E+02 -0.13753201640E+03  0.17020497704E+03  0.00000000000E+00 0. -1.
         -2    1    1    2    0  502  0.59751739201E+02  0.80525824044E+02  0.10395342421E+03  0.14443335169E+03  0.00000000000E+00 0. -1.
<mgrwt>
<rscale>  2 0.10027302E+03</rscale>
<asrwt>0</asrwt>
<pdfrwt beam="2">  1       21 0.26785917E-01 0.10027302E+03</pdfrwt>
<pdfrwt beam="1">  1       -2 0.21619980E-01 0.10027302E+03</pdfrwt>
<totfact> 0.19291315E+04</totfact>
</mgrwt>
</event>
<event>
 4    1  0.5134057E+003  0.1155114E+03  0.7546771E-02  0.1250691E+00
         21   -1    0    0  503  502  0.00000000000E+00  0.00000000000E+00  0.31177245684E+02  0.31177245684E+02  0.00000000000E+00 0. -1.
          1   -1    0    0  502    0 -0.00000000000E+00 -0.00000000000E+00 -0.88587766140E+03  0.88587766140E+03  0.00000000000E+00 0.  1.
         21    1    1    2  503  501 -0.52350324205E+02 -0.10296756386E+03 -0.97688741233E+02  0.15128108215E+03  0.00000000000E+00 0. -1.
          1    1    1    2  501    0  0.52350324205E+02  0.10296756386E+03 -0.75701167449E+03  0.76577382494E+03  0.00000000000E+00 0.  1.
<mgrwt>
<rscale>  2 0.11551137E+03</rscale>
<asrwt>0</asrwt>
<pdfrwt beam="1">  1       21 0.47964989E-02 0.11551137E+03</pdfrwt>
<pdfrwt beam="2">  1        1 0.13628888E+00 0.11551137E+03</pdfrwt>
<totfact> 0.63367738E+04</totfact>
</mgrwt>
</event>
<event>
 4    1  0.5134057E+003  0.1196492E+03  0.7546771E-02  0.1243677E+00
          2   -1    0    0  503    0 -0.00000000000E+00  0.00000000000E+00  0.52069320863E+03  0.52069320863E+03  0.00000000000E+00 0.  1.
         21   -1    0    0  501  502  0.00000000000E+00 -0.00000000000E+00 -0.13302048621E+03  0.13302048621E+03  0.00000000000E+00 0.  1.
         21    1    1    2  503  502 -0.54864021824E+02  0.10632901134E+03 -0.97288395088E+02  0.15421073685E+03  0.00000000000E+00 0.  1.
          2    1    1    2  501    0  0.54864021824E+02 -0.10632901134E+03  0.48496111751E+03  0.49950295799E+03  0.00000000000E+00 0.  1.
<mgrwt>
<rscale>  2 0.11964915E+03</rscale>
<asrwt>0</asrwt>
<pdfrwt beam="2">  1       21 0.20464690E-01 0.11964915E+03</pdfrwt>
<pdfrwt beam="1">  1        2 0.80106646E-01 0.11964915E+03</pdfrwt>
<totfact> 0.16678885E+04</totfact>
</mgrwt>
</event>
<event>
 4    1  0.5134057E+003  0.1076595E+03  0.7546771E-02  0.1264966E+00
          2   -1    0    0  503    0 -0.00000000000E+00  0.00000000000E+00  0.25751300029E+03  0.25751300029E+03  0.00000000000E+00 0.  1.
         21   -1    0    0  501  502  0.00000000000E+00 -0.00000000000E+00 -0.54961211443E+03  0.54961211443E+03  0.00000000000E+00 0. -1.
         21    1    1    2  503  502 -0.64079212213E+02  0.86512604627E+02 -0.53273461478E+03  0.54350413612E+03  0.00000000000E+00 0. -1.
          2    1    1    2  501    0  0.64079212213E+02 -0.86512604627E+02  0.24063550063E+03  0.26362097861E+03  0.00000000000E+00 0.  1.
<mgrwt>
<rscale>  2 0.10765954E+03</rscale>
<asrwt>0</asrwt>
<pdfrwt beam="2">  1       21 0.84555709E-01 0.10765954E+03</pdfrwt>
<pdfrwt beam="1">  1        2 0.39617385E-01 0.10765954E+03</pdfrwt>
<totfact> 0.20255090E+03</totfact>
</mgrwt>
</event>
<event>
 4    1  0.5134057E+003  0.1149456E+03  0.7546771E-02  0.1251676E+00
          1   -1    0    0  502    0 -0.00000000000E+00  0.00000000000E+00  0.21542768123E+04  0.21542768123E+04  0.00000000000E+00 0.  1.
         21   -1    0    0  503  502  0.00000000000E+00 -0.00000000000E+00 -0.13389605205E+02  0.13389605205E+02  0.00000000000E+00 0. -1.
         21    1    1    2  503  501  0.10374237858E+03 -0.49497542957E+02  0.27255725448E+03  0.29580389592E+03  0.00000000000E+00 0. -1.
          1    1    1    2  501    0 -0.10374237858E+03  0.49497542957E+02  0.18683299527E+04  0.18718625216E+04  0.00000000000E+00 0.  1.
<mgrwt>
<rscale>  2 0.11494559E+03</rscale>
<asrwt>0</asrwt>
<pdfrwt beam="2">  1       21 0.20599410E-02 0.11494559E+03</pdfrwt>
<pdfrwt beam="1">  1        1 0.33142693E+00 0.11494559E+03</pdfrwt>
<totfact> 0.36759681E+04</totfact>
</mgrwt>
</event>
<event>
 4    1  0.5134057E+003  0.1068608E+03  0.7546771E-02  0.1266496E+00
         21   -1    0    0  503  502  0.00000000000E+00  0.00000000000E+00  0.12490448719E+02  0.12490448719E+02  0.00000000000E+00 0.  1.
         -1   -1    0    0    0  501 -0.00000000000E+00 -0.00000000000E+00 -0.99516353724E+03  0.99516353724E+03  0.00000000000E+00 0. -1.
         21    1    1    2  503  501  0.81292536876E+02 -0.69359614214E+02 -0.34766220941E+03  0.36371450959E+03  0.00000000000E+00 0.  1.
         -1    1    1    2    0  502 -0.81292536876E+02  0.69359614214E+02 -0.63501087911E+03  0.64393947637E+03  0.00000000000E+00 0. -1.
<mgrwt>
<rscale>  2 0.10686081E+03</rscale>
<asrwt>0</asrwt>
<pdfrwt beam="1">  1       21 0.19216081E-02 0.10686081E+03</pdfrwt>
<pdfrwt beam="2">  1       -1 0.15310203E+00 0.10686081E+03</pdfrwt>
<totfact> 0.43920585E+04</totfact>
</mgrwt>
</event>
<event>
 4    1  0.5134057E+003  0.1554596E+03  0.7546771E-02  0.1193920E+00
         21   -1    0    0  501  502  0.00000000000E+00  0.00000000000E+00  0.13192086161E+02  0.13192086161E+02  0.00000000000E+00 0. -1.
          1   -1    0    0  503    0 -0.00000000000E+00 -0.00000000000E+00 -0.28594573180E+04  0.28594573180E+04  0.00000000000E+00 0. -1.
         21    1    1    2  503  502  0.15196763628E+03  0.32764789557E+02 -0.56214670157E+03  0.58324660993E+03  0.00000000000E+00 0. -1.
          1    1    1    2  501    0 -0.15196763628E+03 -0.32764789557E+02 -0.22841185303E+04  0.22894027943E+04  0.00000000000E+00 0. -1.
<mgrwt>
<rscale>  2 0.15545962E+03</rscale>
<asrwt>0</asrwt>
<pdfrwt beam="1">  1       21 0.20295549E-02 0.15545962E+03</pdfrwt>
<pdfrwt beam="2">  1        1 0.43991582E+00 0.15545962E+03</pdfrwt>
<totfact> 0.12829695E+04</totfact>
</mgrwt>
</event>
<event>
 4    1  0.5134057E+003  0.1404937E+03  0.7546771E-02  0.1212666E+00
         21   -1    0    0  501  502  0.00000000000E+00  0.00000000000E+00  0.32510156323E+03  0.32510156323E+03  0.00000000000E+00 0. -1.
          1   -1    0    0  503    0 -0.00000000000E+00 -0.00000000000E+00 -0.17414536817E+04  0.17414536817E+04  0.00000000000E+00 0. -1.
         21    1    1    2  503  502  0.13428493688E+03 -0.41304149554E+02  0.30692944669E+03  0.33755616168E+03  0.00000000000E+00 0. -1.
          1    1    1    2  501    0 -0.13428493688E+03  0.41304149554E+02 -0.17232815652E+04  0.17289990833E+04  0.00000000000E+00 0. -1.
<mgrwt>
<rscale>  2 0.14049369E+03</rscale>
<asrwt>0</asrwt>
<pdfrwt beam="1">  1       21 0.50015626E-01 0.14049369E+03</pdfrwt>
<pdfrwt beam="2">  1        1 0.26791595E+00 0.14049369E+03</pdfrwt>
<totfact> 0.22683249E+02</totfact>
</mgrwt>
</event>
<event>
 4    1  0.5134057E+003  0.1351364E+03  0.7546771E-02  0.1220027E+00
         -1   -1    0    0    0  501 -0.00000000000E+00  0.00000000000E+00  0.30915398245E+03  0.30915398245E+03  0.00000000000E+00 0. -1.
         21   -1    0    0  503  502  0.00000000000E+00 -0.00000000000E+00 -0.10581961885E+03  0.10581961885E+03  0.00000000000E+00 0. -1.
         21    1    1    2  503  501 -0.25655011027E+02  0.13267877637E+03 -0.36242494443E+02  0.13991195694E+03  0.00000000000E+00 0. -1.
         -1    1    1    2    0  502  0.25655011027E+02 -0.13267877637E+03  0.23957685805E+03  0.27506164437E+03  0.00000000000E+00 0. -1.
<mgrwt>
<rscale>  2 0.13513637E+03</rscale>
<asrwt>0</asrwt>
<pdfrwt beam="2">  1       21 0.16279941E-01 0.13513637E+03</pdfrwt>
<pdfrwt beam="1">  1       -1 0.47562151E-01 0.13513637E+03</pdfrwt>
<totfact> 0.14096322E+04</totfact>
</mgrwt>
</event>
<event>
 4    1  0.5134057E+003  0.1411629E+03  0.7546771E-02  0.1211773E+00
         21   -1    0    0  501  502  0.00000000000E+00  0.00000000000E+00  0.29496455938E+03  0.29496455938E+03  0.00000000000E+00 0.  1.
          2   -1    0    0  503    0 -0.00000000000E+00 -0.00000000000E+00 -0.80672423014E+03  0.80672423014E+03  0.00000000000E+00 0. -1.
         21    1    1    2  503  502 -0.10881422198E+03  0.89924563831E+02  0.27139578961E+03  0.30591279265E+03  0.00000000000E+00 0.  1.
          2    1    1    2  501    0  0.10881422198E+03 -0.89924563831E+02 -0.78315546037E+03  0.79577599687E+03  0.00000000000E+00 0. -1.
<mgrwt>
<rscale>  2 0.14116289E+03</rscale>
<asrwt>0</asrwt>
<pdfrwt beam="1">  1       21 0.45379163E-01 0.14116289E+03</pdfrwt>
<pdfrwt beam="2">  1        2 0.12411142E+00 0.14116289E+03</pdfrwt>
<totfact> 0.21256187E+03</totfact>
</mgrwt>
</event>
<event>
 4    1  0.5134057E+003  0.1096068E+03  0.7546771E-02  0.1261300E+00
         -3   -1    0    0    0  501 -0.00000000000E+00  0.00000000000E+00  0.12242802371E+04  0.12242802371E+04  0.00000000000E+00 0. -1.
         21   -1    0    0  503  502  0.00000000000E+00 -0.00000000000E+00 -0.11342644844E+02  0.11342644844E+02  0.00000000000E+00 0. -1.
         21    1    1    2  503  501 -0.10720381877E+03 -0.22825194569E+02  0.37957696445E+03  0.39508520626E+03  0.00000000000E+00 0. -1.
         -3    1    1    2    0  502  0.10720381877E+03  0.22825194569E+02  0.83336062783E+03  0.84053767571E+03  0.00000000000E+00 0. -1.
<mgrwt>
<rscale>  2 0.10960679E+03</rscale>
<asrwt>0</asrwt>
<pdfrwt beam="2">  1       21 0.17450233E-02 0.10960679E+03</pdfrwt>
<pdfrwt beam="1">  1       -3 0.18835070E+00 0.10960679E+03</pdfrwt>
<totfact> 0.13882994E+04</totfact>
</mgrwt>
</event>
<event>
 4    1  0.5134057E+003  0.1311148E+03  0.7546771E-02  0.1225811E+00
         21   -1    0    0  501  502  0.00000000000E+00  0.00000000000E+00  0.13889705776E+03  0.13889705776E+03  0.00000000000E+00 0.  1.
          2   -1    0    0  503    0 -0.00000000000E+00 -0.00000000000E+00 -0.26988811117E+04  0.26988811117E+04  0.00000000000E+00 0. -1.
         21    1    1    2  503  502 -0.87749639913E+02 -0.97422198407E+02  0.10598069114E+03  0.16859119473E+03  0.00000000000E+00 0.  1.
          2    1    1    2  501    0  0.87749639913E+02  0.97422198407E+02 -0.26659647451E+04  0.26691869748E+04  0.00000000000E+00 0. -1.
<mgrwt>
<rscale>  2 0.13111477E+03</rscale>
<asrwt>0</asrwt>
<pdfrwt beam="1">  1       21 0.21368779E-01 0.13111477E+03</pdfrwt>
<pdfrwt beam="2">  1        2 0.41521246E+00 0.13111477E+03</pdfrwt>
<totfact> 0.88116820E+02</totfact>
</mgrwt>
</event>
<event>
 4    1  0.5134057E+003  0.1527954E+03  0.7546771E-02  0.1197079E+00
         -2   -1    0    0    0  501 -0.00000000000E+00  0.00000000000E+00  0.14050101157E+03  0.14050101157E+03  0.00000000000E+00 0.  1.
         21   -1    0    0  503  502  0.00000000000E+00 -0.00000000000E+00 -0.38647329738E+03  0.38647329738E+03  0.00000000000E+00 0.  1.
         21    1    1    2  503  501  0.13768167798E+03  0.66258546410E+02 -0.32192265757E+03  0.35634342548E+03  0.00000000000E+00 0.  1.
         -2    1    1    2    0  502 -0.13768167798E+03 -0.66258546410E+02  0.75950371763E+02  0.17063088347E+03  0.00000000000E+00 0.  1.
<mgrwt>
<rscale>  2 0.15279542E+03</rscale>
<asrwt>0</asrwt>
<pdfrwt beam="2">  1       21 0.59457429E-01 0.15279542E+03</pdfrwt>
<pdfrwt beam="1">  1       -2 0.21615541E-01 0.15279542E+03</pdfrwt>
<totfact> 0.39025972E+03</totfact>
</mgrwt>
</event>
<event>
 4    1  0.5134057E+003  0.1059062E+03  0.7546771E-02  0.1268344E+00
          3   -1    0    0  502    0 -0.00000000000E+00  0.00000000000E+00  0.30719473220E+03  0.30719473220E+03  0.00000000000E+00 0.  1.
         21   -1    0    0  503  502  0.00000000000E+00 -0.00000000000E+00 -0.24327538627E+03  0.24327538627E+03  0.00000000000E+00 0.  1.
         21    1    1    2  503  501  0.34139290638E+02 -0.10025286797E+03 -0.22178214741E+03  0.24577113258E+03  0.00000000000E+00 0.  1.
          3    1    1    2  501    0 -0.34139290638E+02  0.10025286797E+03  0.28570149334E+03  0.30469898589E+03  0.00000000000E+00 0.  1.
<mgrwt>
<rscale>  2 0.10590623E+03</rscale>
<asrwt>0</asrwt>
<pdfrwt beam="2">  1       21 0.37426982E-01 0.10590623E+03</pdfrwt>
<pdfrwt beam="1">  1        3 0.47260728E-01 0.10590623E+03</pdfrwt>
<totfact> 0.15150965E+03</totfact>
</mgrwt>
</event>
<event>
 4    1  0.5134057E+003  0.1232890E+03  0.7546771E-02  0.1237768E+00
         21   -1    0    0  503  502  0.00000000000E+00  0.00000000000E+00  0.33821086866E+02  0.33821086866E+02  0.00000000000E+00 0.  1.
          2   -1    0    0  502    0 -0.00000000000E+00 -0.00000000000E+00 -0.18162399816E+04  0.18162399816E+04  0.00000000000E+00 0.  1.
         21    1    1    2  503  501  0.12136411993E+03  0.21700852603E+02 -0.88748907899E+02  0.15190966152E+03  0.00000000000E+00 0.  1.
          2    1    1    2  501    0 -0.12136411993E+03 -0.21700852603E+02 -0.16936699869E+04  0.16981514070E+04  0.00000000000E+00 0.  1.
<mgrwt>
<rscale>  2 0.12328900E+03</rscale>
<asrwt>0</asrwt>
<pdfrwt beam="1">  1       21 0.52032437E-02 0.12328900E+03</pdfrwt>
<pdfrwt beam="2">  1        2 0.27942156E+00 0.12328900E+03</pdfrwt>
<totfact> 0.30770996E+04</totfact>
</mgrwt>
</event>
<event>
 4    1  0.5134057E+003  0.1104971E+03  0.7546771E-02  0.1259652E+00
         21   -1    0    0  503  502  0.00000000000E+00  0.00000000000E+00  0.93862257628E+02  0.93862257628E+02  0.00000000000E+00 0.  1.
         -3   -1    0    0    0  501 -0.00000000000E+00 -0.00000000000E+00 -0.13551880774E+03  0.13551880774E+03  0.00000000000E+00 0.  1.
         21    1    1    2  503  501 -0.23214406366E+02 -0.10803097566E+03  0.21480482363E+01  0.11051793735E+03  0.00000000000E+00 0.  1.
         -3    1    1    2    0  502  0.23214406366E+02  0.10803097566E+03 -0.43804598345E+02  0.11886312801E+03  0.00000000000E+00 0.  1.
<mgrwt>
<rscale>  2 0.11049706E+03</rscale>
<asrwt>0</asrwt>
<pdfrwt beam="1">  1       21 0.14440347E-01 0.11049706E+03</pdfrwt>
<pdfrwt beam="2">  1       -3 0.20849047E-01 0.11049706E+03</pdfrwt>
<totfact> 0.41188832E+04</totfact>
</mgrwt>
</event>
<event>
 4    1  0.5134057E+003  0.1394983E+03  0.7546771E-02  0.1214006E+00
          2   -1    0    0  503    0 -0.00000000000E+00  0.00000000000E+00  0.51207773518E+03  0.51207773518E+03  0.00000000000E+00 0.  1.
         21   -1    0    0  501  502  0.00000000000E+00 -0.00000000000E+00 -0.53249388992E+02  0.53249388992E+02  0.00000000000E+00 0.  1.
         21    1    1    2  503  502 -0.63418994772E+02  0.12424899975E+03  0.78157103074E+02  0.15990095559E+03  0.00000000000E+00 0.  1.
          2    1    1    2  501    0  0.63418994772E+02 -0.12424899975E+03  0.38067124312E+03  0.40542616859E+03  0.00000000000E+00 0.  1.
<mgrwt>
<rscale>  2 0.13949833E+03</rscale>
<asrwt>0</asrwt>
<pdfrwt beam="2">  1       21 0.81922140E-02 0.13949833E+03</pdfrwt>
<pdfrwt beam="1">  1        2 0.78781187E-01 0.13949833E+03</pdfrwt>
<totfact> 0.87033844E+04</totfact>
</mgrwt>
</event>
<event>
 4    1  0.5134057E+003  0.1071419E+03  0.7546771E-02  0.1265956E+00
          2   -1    0    0  503    0 -0.00000000000E+00  0.00000000000E+00  0.32324249810E+04  0.32324249810E+04  0.00000000000E+00 0. -1.
         21   -1    0    0  501  502  0.00000000000E+00 -0.00000000000E+00 -0.16768914061E+02  0.16768914061E+02  0.00000000000E+00 0. -1.
         21    1    1    2  503  502  0.23301386952E+01 -0.10711660220E+03  0.16548266638E+03  0.19713931339E+03  0.00000000000E+00 0. -1.
          2    1    1    2  501    0 -0.23301386952E+01  0.10711660220E+03  0.30501734006E+04  0.30520545817E+04  0.00000000000E+00 0. -1.
<mgrwt>
<rscale>  2 0.10714194E+03</rscale>
<asrwt>0</asrwt>
<pdfrwt beam="2">  1       21 0.25798355E-02 0.10714194E+03</pdfrwt>
<pdfrwt beam="1">  1        2 0.49729566E+00 0.10714194E+03</pdfrwt>
<totfact> 0.17011866E+04</totfact>
</mgrwt>
</event>
<event>
 4    1  0.5134057E+003  0.2466187E+03  0.7546771E-02  0.1115461E+00
         -2   -1    0    0    0  501 -0.00000000000E+00  0.00000000000E+00  0.48267565298E+03  0.48267565298E+03  0.00000000000E+00 0. -1.
         21   -1    0    0  501  502  0.00000000000E+00 -0.00000000000E+00 -0.34667116655E+03  0.34667116655E+03  0.00000000000E+00 0.  1.
         21    1    1    2  503  502 -0.16117330017E+03 -0.18666539670E+03 -0.26283366337E+03  0.36041966874E+03  0.00000000000E+00 0.  1.
         -2    1    1    2    0  503  0.16117330017E+03  0.18666539670E+03  0.39883814980E+03  0.46892715079E+03  0.00000000000E+00 0. -1.
<mgrwt>
<rscale>  2 0.24661874E+03</rscale>
<asrwt>0</asrwt>
<pdfrwt beam="2">  1       21 0.53334026E-01 0.24661874E+03</pdfrwt>
<pdfrwt beam="1">  1       -2 0.74257792E-01 0.24661874E+03</pdfrwt>
<totfact> 0.44668333E+02</totfact>
</mgrwt>
</event>
<event>
 4    1  0.5134057E+003  0.1355181E+03  0.7546771E-02  0.1219490E+00
          1   -1    0    0  502    0 -0.00000000000E+00  0.00000000000E+00  0.15193052354E+04  0.15193052354E+04  0.00000000000E+00 0.  1.
         21   -1    0    0  503  502  0.00000000000E+00 -0.00000000000E+00 -0.82935731653E+02  0.82935731653E+02  0.00000000000E+00 0. -1.
         21    1    1    2  503  501 -0.47825233651E+02 -0.12679863035E+03 -0.22256159727E+02  0.13733347107E+03  0.00000000000E+00 0. -1.
          1    1    1    2  501    0  0.47825233651E+02  0.12679863035E+03  0.14586256635E+04  0.14649074960E+04  0.00000000000E+00 0.  1.
<mgrwt>
<rscale>  2 0.13551806E+03</rscale>
<asrwt>0</asrwt>
<pdfrwt beam="2">  1       21 0.12759344E-01 0.13551806E+03</pdfrwt>
<pdfrwt beam="1">  1        1 0.23373925E+00 0.13551806E+03</pdfrwt>
<totfact> 0.42702633E+03</totfact>
</mgrwt>
</event>
<event>
 4    1  0.5134057E+003  0.1232911E+03  0.7546771E-02  0.1237764E+00
         21   -1    0    0  501  502  0.00000000000E+00  0.00000000000E+00  0.42873936260E+03  0.42873936260E+03  0.00000000000E+00 0. -1.
          1   -1    0    0  503    0 -0.00000000000E+00 -0.00000000000E+00 -0.65406725534E+03  0.65406725534E+03  0.00000000000E+00 0. -1.
         21    1    1    2  503  502  0.88950311091E+02 -0.85372942336E+02  0.41386126627E+03  0.43183543723E+03  0.00000000000E+00 0. -1.
          1    1    1    2  501    0 -0.88950311091E+02  0.85372942336E+02 -0.63918915901E+03  0.65097118071E+03  0.00000000000E+00 0. -1.
<mgrwt>
<rscale>  2 0.12329111E+03</rscale>
<asrwt>0</asrwt>
<pdfrwt beam="1">  1       21 0.65959902E-01 0.12329111E+03</pdfrwt>
<pdfrwt beam="2">  1        1 0.10062573E+00 0.12329111E+03</pdfrwt>
<totfact> 0.76654034E+02</totfact>
</mgrwt>
</event>
<event>
 4    1  0.5134057E+003  0.1031433E+03  0.7546771E-02  0.1273822E+00
          1   -1    0    0  503    0 -0.00000000000E+00  0.00000000000E+00  0.21398250381E+04  0.21398250381E+04  0.00000000000E+00 0.  1.
         21   -1    0    0  501  502  0.00000000000E+00 -0.00000000000E+00 -0.16425791737E+02  0.16425791737E+02  0.00000000000E+00 0.  1.
         21    1    1    2  503  502  0.10262692535E+03  0.10307568567E+02  0.16140060077E+03  0.19154290826E+03  0.00000000000E+00 0.  1.
          1    1    1    2  501    0 -0.10262692535E+03 -0.10307568567E+02  0.19619986456E+04  0.19647079216E+04  0.00000000000E+00 0.  1.
<mgrwt>
<rscale>  2 0.10314326E+03</rscale>
<asrwt>0</asrwt>
<pdfrwt beam="2">  1       21 0.25270466E-02 0.10314326E+03</pdfrwt>
<pdfrwt beam="1">  1        1 0.32920363E+00 0.10314326E+03</pdfrwt>
<totfact> 0.27088389E+04</totfact>
</mgrwt>
</event>
<event>
 4    1  0.5134057E+003  0.1071846E+03  0.7546771E-02  0.1265874E+00
         21   -1    0    0  503  502  0.00000000000E+00  0.00000000000E+00  0.13832965912E+04  0.13832965912E+04  0.00000000000E+00 0. -1.
          2   -1    0    0  502    0 -0.00000000000E+00 -0.00000000000E+00 -0.12327376926E+04  0.12327376926E+04  0.00000000000E+00 0.  1.
         21    1    1    2  503  501  0.12484877513E+02  0.10645497251E+03  0.13788829667E+04  0.13830425768E+04  0.00000000000E+00 0. -1.
          2    1    1    2  501    0 -0.12484877513E+02 -0.10645497251E+03 -0.12283240681E+04  0.12329917070E+04  0.00000000000E+00 0.  1.
<mgrwt>
<rscale>  2 0.10718458E+03</rscale>
<asrwt>0</asrwt>
<pdfrwt beam="1">  1       21 0.21281486E+00 0.10718458E+03</pdfrwt>
<pdfrwt beam="2">  1        2 0.18965195E+00 0.10718458E+03</pdfrwt>
<totfact> 0.31497920E+01</totfact>
</mgrwt>
</event>
<event>
 4    1  0.5134057E+003  0.1047691E+03  0.7546771E-02  0.1270575E+00
         -2   -1    0    0    0  501 -0.00000000000E+00  0.00000000000E+00  0.29973150237E+02  0.29973150237E+02  0.00000000000E+00 0. -1.
         21   -1    0    0  501  502  0.00000000000E+00 -0.00000000000E+00 -0.54611744011E+03  0.54611744011E+03  0.00000000000E+00 0. -1.
         21    1    1    2  503  502  0.96723467281E+02 -0.40263211654E+02 -0.42339724031E+03  0.43616714507E+03  0.00000000000E+00 0. -1.
         -2    1    1    2    0  503 -0.96723467281E+02  0.40263211654E+02 -0.92747049561E+02  0.13992344528E+03  0.00000000000E+00 0. -1.
<mgrwt>
<rscale>  2 0.10476906E+03</rscale>
<asrwt>0</asrwt>
<pdfrwt beam="2">  1       21 0.84018063E-01 0.10476906E+03</pdfrwt>
<pdfrwt beam="1">  1       -2 0.46112541E-02 0.10476906E+03</pdfrwt>
<totfact> 0.21105688E+04</totfact>
</mgrwt>
</event>
<event>
 4    1  0.5134057E+003  0.1239080E+03  0.7546771E-02  0.1236786E+00
         21   -1    0    0  501  502  0.00000000000E+00  0.00000000000E+00  0.45634281647E+02  0.45634281647E+02  0.00000000000E+00 0. -1.
         -2   -1    0    0    0  501 -0.00000000000E+00 -0.00000000000E+00 -0.11997189298E+04  0.11997189298E+04  0.00000000000E+00 0.  1.
         21    1    1    2  503  502  0.11330249821E+03 -0.50157190040E+02 -0.48842377837E+02  0.13318700269E+03  0.00000000000E+00 0. -1.
         -2    1    1    2    0  503 -0.11330249821E+03  0.50157190040E+02 -0.11052422704E+04  0.11121662088E+04  0.00000000000E+00 0.  1.
<mgrwt>
<rscale>  2 0.12390803E+03</rscale>
<asrwt>0</asrwt>
<pdfrwt beam="1">  1       21 0.70206603E-02 0.12390803E+03</pdfrwt>
<pdfrwt beam="2">  1       -2 0.18457210E+00 0.12390803E+03</pdfrwt>
<totfact> 0.22910735E+03</totfact>
</mgrwt>
</event>
<event>
 4    1  0.5134057E+003  0.1318213E+03  0.7546771E-02  0.1224778E+00
         21   -1    0    0  503  502  0.00000000000E+00  0.00000000000E+00  0.53046329821E+02  0.53046329821E+02  0.00000000000E+00 0.  1.
          1   -1    0    0  502    0 -0.00000000000E+00 -0.00000000000E+00 -0.97123909287E+03  0.97123909287E+03  0.00000000000E+00 0. -1.
         21    1    1    2  503  501 -0.13117026564E+03  0.13084842655E+02 -0.42172965940E+02  0.13840307349E+03  0.00000000000E+00 0.  1.
          1    1    1    2  501    0  0.13117026564E+03 -0.13084842655E+02 -0.87601979711E+03  0.88588234920E+03  0.00000000000E+00 0. -1.
<mgrwt>
<rscale>  2 0.13182129E+03</rscale>
<asrwt>0</asrwt>
<pdfrwt beam="1">  1       21 0.81609744E-02 0.13182129E+03</pdfrwt>
<pdfrwt beam="2">  1        1 0.14942139E+00 0.13182129E+03</pdfrwt>
<totfact> 0.22132986E+04</totfact>
</mgrwt>
</event>
<event>
 4    1  0.5134057E+003  0.1890250E+03  0.7546771E-02  0.1159344E+00
          2   -1    0    0  502    0 -0.00000000000E+00  0.00000000000E+00  0.33791050599E+03  0.33791050599E+03  0.00000000000E+00 0. -1.
         21   -1    0    0  503  502  0.00000000000E+00 -0.00000000000E+00 -0.15054615987E+03  0.15054615987E+03  0.00000000000E+00 0. -1.
         21    1    1    2  503  501  0.18710839001E+03 -0.26849859399E+02 -0.39557274897E+02  0.19311976222E+03  0.00000000000E+00 0. -1.
          2    1    1    2  501    0 -0.18710839001E+03  0.26849859399E+02  0.22692162102E+03  0.29533690364E+03  0.00000000000E+00 0. -1.
<mgrwt>
<rscale>  2 0.18902504E+03</rscale>
<asrwt>0</asrwt>
<pdfrwt beam="2">  1       21 0.23160948E-01 0.18902504E+03</pdfrwt>
<pdfrwt beam="1">  1        2 0.51986231E-01 0.18902504E+03</pdfrwt>
<totfact> 0.20917540E+04</totfact>
</mgrwt>
</event>
<event>
 4    1  0.5134057E+003  0.1228932E+03  0.7546771E-02  0.1238399E+00
          2   -1    0    0  502    0 -0.00000000000E+00  0.00000000000E+00  0.18281214643E+04  0.18281214643E+04  0.00000000000E+00 0.  1.
         21   -1    0    0  503  502  0.00000000000E+00 -0.00000000000E+00 -0.14273410265E+02  0.14273410265E+02  0.00000000000E+00 0.  1.
         21    1    1    2  503  501  0.69592758270E+02  0.10128966951E+03  0.30906257733E+03  0.33259949769E+03  0.00000000000E+00 0.  1.
          2    1    1    2  501    0 -0.69592758270E+02 -0.10128966951E+03  0.15047854767E+04  0.15097953769E+04  0.00000000000E+00 0.  1.
<mgrwt>
<rscale>  2 0.12289324E+03</rscale>
<asrwt>0</asrwt>
<pdfrwt beam="2">  1       21 0.21959107E-02 0.12289324E+03</pdfrwt>
<pdfrwt beam="1">  1        2 0.28124927E+00 0.12289324E+03</pdfrwt>
<totfact> 0.12571695E+05</totfact>
</mgrwt>
</event>
<event>
 4    1  0.5134057E+003  0.1170048E+03  0.7546771E-02  0.1248122E+00
          4   -1    0    0  502    0 -0.00000000000E+00  0.00000000000E+00  0.56108303689E+03  0.56108303689E+03  0.00000000000E+00 0.  1.
         21   -1    0    0  503  502  0.00000000000E+00 -0.00000000000E+00 -0.71681008593E+02  0.71681008593E+02  0.00000000000E+00 0. -1.
         21    1    1    2  503  501 -0.10592337907E+03  0.49702723828E+02 -0.12253109552E+02  0.11764464154E+03  0.00000000000E+00 0. -1.
          4    1    1    2  501    0  0.10592337907E+03 -0.49702723828E+02  0.50165513785E+03  0.51511940394E+03  0.00000000000E+00 0.  1.
<mgrwt>
<rscale>  2 0.11700480E+03</rscale>
<asrwt>0</asrwt>
<pdfrwt beam="2">  1       21 0.11027848E-01 0.11700480E+03</pdfrwt>
<pdfrwt beam="1">  1        4 0.86320464E-01 0.11700480E+03</pdfrwt>
<totfact> 0.33402181E+03</totfact>
</mgrwt>
</event>
<event>
 4    1  0.5134057E+003  0.1078646E+03  0.7546771E-02  0.1264576E+00
         21   -1    0    0  501  502  0.00000000000E+00  0.00000000000E+00  0.50078151323E+03  0.50078151323E+03  0.00000000000E+00 0.  1.
         -3   -1    0    0    0  501 -0.00000000000E+00 -0.00000000000E+00 -0.51801258808E+02  0.51801258808E+02  0.00000000000E+00 0. -1.
         21    1    1    2  503  502  0.82088010101E+02  0.69973802081E+02  0.42967119750E+03  0.44300351278E+03  0.00000000000E+00 0.  1.
         -3    1    1    2    0  503 -0.82088010101E+02 -0.69973802081E+02  0.19309056928E+02  0.10957925926E+03  0.00000000000E+00 0. -1.
<mgrwt>
<rscale>  2 0.10786461E+03</rscale>
<asrwt>0</asrwt>
<pdfrwt beam="1">  1       21 0.77043306E-01 0.10786461E+03</pdfrwt>
<pdfrwt beam="2">  1       -3 0.79694248E-02 0.10786461E+03</pdfrwt>
<totfact> 0.77599545E+03</totfact>
</mgrwt>
</event>
<event>
 4    1  0.5134057E+003  0.1360251E+03  0.7546771E-02  0.1218780E+00
         21   -1    0    0  501  502  0.00000000000E+00  0.00000000000E+00  0.36249766600E+02  0.36249766600E+02  0.00000000000E+00 0.  1.
          2   -1    0    0  503    0 -0.00000000000E+00 -0.00000000000E+00 -0.23352353228E+04  0.23352353228E+04  0.00000000000E+00 0. -1.
         21    1    1    2  503  502  0.13232146152E+03 -0.31525316401E+02 -0.10131764827E+03  0.16961155799E+03  0.00000000000E+00 0.  1.
          2    1    1    2  501    0 -0.13232146152E+03  0.31525316401E+02 -0.21976679079E+04  0.22018735314E+04  0.00000000000E+00 0. -1.
<mgrwt>
<rscale>  2 0.13602505E+03</rscale>
<asrwt>0</asrwt>
<pdfrwt beam="1">  1       21 0.55768867E-02 0.13602505E+03</pdfrwt>
<pdfrwt beam="2">  1        2 0.35926700E+00 0.13602505E+03</pdfrwt>
<totfact> 0.14736316E+04</totfact>
</mgrwt>
</event>
<event>
 4    1  0.5134057E+003  0.1566286E+03  0.7546771E-02  0.1192556E+00
         21   -1    0    0  501  502  0.00000000000E+00  0.00000000000E+00  0.11982694850E+03  0.11982694850E+03  0.00000000000E+00 0.  1.
          2   -1    0    0  503    0 -0.00000000000E+00 -0.00000000000E+00 -0.20490252110E+03  0.20490252110E+03  0.00000000000E+00 0. -1.
         21    1    1    2  503  502  0.95547439399E+02 -0.12410971168E+03 -0.47207574774E+02  0.16358816835E+03  0.00000000000E+00 0.  1.
          2    1    1    2  501    0 -0.95547439399E+02  0.12410971168E+03 -0.37867997835E+02  0.16114130125E+03  0.00000000000E+00 0. -1.
<mgrwt>
<rscale>  2 0.15662865E+03</rscale>
<asrwt>0</asrwt>
<pdfrwt beam="1">  1       21 0.18434915E-01 0.15662865E+03</pdfrwt>
<pdfrwt beam="2">  1        2 0.31523464E-01 0.15662865E+03</pdfrwt>
<totfact> 0.54874151E+04</totfact>
</mgrwt>
</event>
<event>
 4    1  0.5134057E+003  0.1147278E+03  0.7546771E-02  0.1252057E+00
         21   -1    0    0  501  502  0.00000000000E+00  0.00000000000E+00  0.72597842451E+03  0.72597842451E+03  0.00000000000E+00 0.  1.
          1   -1    0    0  503    0 -0.00000000000E+00 -0.00000000000E+00 -0.12295816325E+03  0.12295816325E+03  0.00000000000E+00 0. -1.
         21    1    1    2  503  502 -0.10896075773E+03  0.35916980197E+02  0.69343621604E+03  0.70286290406E+03  0.00000000000E+00 0.  1.
          1    1    1    2  501    0  0.10896075773E+03 -0.35916980197E+02 -0.90415954774E+02  0.14607368370E+03  0.00000000000E+00 0. -1.
<mgrwt>
<rscale>  2 0.11472784E+03</rscale>
<asrwt>0</asrwt>
<pdfrwt beam="1">  1       21 0.11168899E+00 0.11472784E+03</pdfrwt>
<pdfrwt beam="2">  1        1 0.18916641E-01 0.11472784E+03</pdfrwt>
<totfact> 0.19319045E+03</totfact>
</mgrwt>
</event>
<event>
 4    1  0.5134057E+003  0.1047137E+03  0.7546771E-02  0.1270685E+00
         -4   -1    0    0    0  501 -0.00000000000E+00  0.00000000000E+00  0.68884660173E+02  0.68884660173E+02  0.00000000000E+00 0. -1.
         21   -1    0    0  503  502  0.00000000000E+00 -0.00000000000E+00 -0.39415164573E+03  0.39415164573E+03  0.00000000000E+00 0.  1.
         21    1    1    2  503  501 -0.66755814282E+02  0.80676017771E+02 -0.34139025079E+03  0.35708859113E+03  0.00000000000E+00 0.  1.
         -4    1    1    2    0  502  0.66755814282E+02 -0.80676017771E+02  0.16123265229E+02  0.10594771477E+03  0.00000000000E+00 0. -1.
<mgrwt>
<rscale>  2 0.10471370E+03</rscale>
<asrwt>0</asrwt>
<pdfrwt beam="2">  1       21 0.60638714E-01 0.10471370E+03</pdfrwt>
<pdfrwt beam="1">  1       -4 0.10597640E-01 0.10471370E+03</pdfrwt>
<totfact> 0.70648007E+03</totfact>
</mgrwt>
</event>
<event>
 4    1  0.5134057E+003  0.1257517E+03  0.7546771E-02  0.1233899E+00
         -2   -1    0    0    0  501 -0.00000000000E+00  0.00000000000E+00  0.13278485256E+03  0.13278485256E+03  0.00000000000E+00 0.  1.
         21   -1    0    0  501  502  0.00000000000E+00 -0.00000000000E+00 -0.34674339306E+03  0.34674339306E+03  0.00000000000E+00 0.  1.
         21    1    1    2  503  502 -0.13949455654E+01 -0.12574399483E+03 -0.30125389853E+03  0.32644664110E+03  0.00000000000E+00 0.  1.
         -2    1    1    2    0  503  0.13949455654E+01  0.12574399483E+03  0.87295358031E+02  0.15308160452E+03  0.00000000000E+00 0.  1.
<mgrwt>
<rscale>  2 0.12575173E+03</rscale>
<asrwt>0</asrwt>
<pdfrwt beam="2">  1       21 0.53345137E-01 0.12575173E+03</pdfrwt>
<pdfrwt beam="1">  1       -2 0.20428439E-01 0.12575173E+03</pdfrwt>
<totfact> 0.54282006E+03</totfact>
</mgrwt>
</event>
<event>
 4    1  0.5134057E+003  0.1154882E+03  0.7546771E-02  0.1250731E+00
         21   -1    0    0  501  502  0.00000000000E+00  0.00000000000E+00  0.16257623056E+03  0.16257623056E+03  0.00000000000E+00 0. -1.
          2   -1    0    0  503    0 -0.00000000000E+00 -0.00000000000E+00 -0.15112614238E+03  0.15112614238E+03  0.00000000000E+00 0. -1.
         21    1    1    2  503  502 -0.83656810365E+02  0.79618161357E+02  0.11177686492E+03  0.16072206155E+03  0.00000000000E+00 0. -1.
          2    1    1    2  501    0  0.83656810365E+02 -0.79618161357E+02 -0.10032677675E+03  0.15298031138E+03  0.00000000000E+00 0. -1.
<mgrwt>
<rscale>  2 0.11548815E+03</rscale>
<asrwt>0</asrwt>
<pdfrwt beam="1">  1       21 0.25011728E-01 0.11548815E+03</pdfrwt>
<pdfrwt beam="2">  1        2 0.23250176E-01 0.11548815E+03</pdfrwt>
<totfact> 0.43156581E+04</totfact>
</mgrwt>
</event>
<event>
 4    1  0.5134057E+003  0.1727105E+03  0.7546771E-02  0.1175050E+00
         21   -1    0    0  503  502  0.00000000000E+00  0.00000000000E+00  0.47970391749E+02  0.47970391749E+02  0.00000000000E+00 0.  1.
          2   -1    0    0  502    0 -0.00000000000E+00 -0.00000000000E+00 -0.62209041201E+03  0.62209041201E+03  0.00000000000E+00 0.  1.
         21    1    1    2  503  501 -0.81683466351E+02 -0.15217329786E+03 -0.28006210334E+03  0.32903447082E+03  0.00000000000E+00 0.  1.
          2    1    1    2  501    0  0.81683466351E+02  0.15217329786E+03 -0.29405791692E+03  0.34102633295E+03  0.00000000000E+00 0.  1.
<mgrwt>
<rscale>  2 0.17271045E+03</rscale>
<asrwt>0</asrwt>
<pdfrwt beam="1">  1       21 0.73800606E-02 0.17271045E+03</pdfrwt>
<pdfrwt beam="2">  1        2 0.95706213E-01 0.17271045E+03</pdfrwt>
<totfact> 0.83922400E+04</totfact>
</mgrwt>
</event>
<event>
 4    1  0.5134057E+003  0.1208556E+03  0.7546771E-02  0.1241692E+00
          2   -1    0    0  503    0 -0.00000000000E+00  0.00000000000E+00  0.63867177010E+03  0.63867177010E+03  0.00000000000E+00 0.  1.
         21   -1    0    0  501  502  0.00000000000E+00 -0.00000000000E+00 -0.41247349081E+02  0.41247349081E+02  0.00000000000E+00 0.  1.
         21    1    1    2  503  502  0.11425292463E+03 -0.39399664621E+02  0.71789840107E+02  0.14056971758E+03  0.00000000000E+00 0.  1.
          2    1    1    2  501    0 -0.11425292463E+03  0.39399664621E+02  0.52563458092E+03  0.53934940161E+03  0.00000000000E+00 0.  1.
<mgrwt>
<rscale>  2 0.12085555E+03</rscale>
<asrwt>0</asrwt>
<pdfrwt beam="2">  1       21 0.63457465E-02 0.12085555E+03</pdfrwt>
<pdfrwt beam="1">  1        2 0.98257188E-01 0.12085555E+03</pdfrwt>
<totfact> 0.10483493E+05</totfact>
</mgrwt>
</event>
<event>
 4    1  0.5134057E+003  0.1152211E+03  0.7546771E-02  0.1251196E+00
         21   -1    0    0  501  502  0.00000000000E+00  0.00000000000E+00  0.41558712577E+03  0.41558712577E+03  0.00000000000E+00 0.  1.
          2   -1    0    0  503    0 -0.00000000000E+00 -0.00000000000E+00 -0.26579754641E+03  0.26579754641E+03  0.00000000000E+00 0.  1.
         21    1    1    2  503  502  0.53889687892E+02  0.10184201147E+03  0.39445891183E+03  0.41094248610E+03  0.00000000000E+00 0.  1.
          2    1    1    2  501    0 -0.53889687892E+02 -0.10184201147E+03 -0.24466933247E+03  0.27044218608E+03  0.00000000000E+00 0.  1.
<mgrwt>
<rscale>  2 0.11522106E+03</rscale>
<asrwt>0</asrwt>
<pdfrwt beam="1">  1       21 0.63936481E-01 0.11522106E+03</pdfrwt>
<pdfrwt beam="2">  1        2 0.40891930E-01 0.11522106E+03</pdfrwt>
<totfact> 0.35979829E+03</totfact>
</mgrwt>
</event>
<event>
 4    1  0.5134057E+003  0.1027403E+03  0.7546771E-02  0.1274637E+00
         -3   -1    0    0    0  501 -0.00000000000E+00  0.00000000000E+00  0.26549286473E+03  0.26549286473E+03  0.00000000000E+00 0. -1.
         21   -1    0    0  501  502  0.00000000000E+00 -0.00000000000E+00 -0.58950423657E+02  0.58950423657E+02  0.00000000000E+00 0.  1.
         21    1    1    2  503  502  0.23288780416E+01 -0.10271394964E+03  0.10710783960E+02  0.10329714428E+03  0.00000000000E+00 0.  1.
         -3    1    1    2    0  503 -0.23288780416E+01  0.10271394964E+03  0.19583165711E+03  0.22114614410E+03  0.00000000000E+00 0. -1.
<mgrwt>
<rscale>  2 0.10274035E+03</rscale>
<asrwt>0</asrwt>
<pdfrwt beam="2">  1       21 0.90692961E-02 0.10274035E+03</pdfrwt>
<pdfrwt beam="1">  1       -3 0.40845055E-01 0.10274035E+03</pdfrwt>
<totfact> 0.26959439E+04</totfact>
</mgrwt>
</event>
<event>
 4    1  0.5134057E+003  0.1219572E+03  0.7546771E-02  0.1239903E+00
         21   -1    0    0  503  502  0.00000000000E+00  0.00000000000E+00  0.16936495880E+02  0.16936495880E+02  0.00000000000E+00 0. -1.
          2   -1    0    0  502    0 -0.00000000000E+00 -0.00000000000E+00 -0.15979546918E+04  0.15979546918E+04  0.00000000000E+00 0. -1.
         21    1    1    2  503  501  0.49064551563E+02  0.11165231875E+03 -0.24860259500E+03  0.27690579759E+03  0.00000000000E+00 0. -1.
          2    1    1    2  501    0 -0.49064551563E+02 -0.11165231875E+03 -0.13324156009E+04  0.13379853901E+04  0.00000000000E+00 0. -1.
<mgrwt>
<rscale>  2 0.12195725E+03</rscale>
<asrwt>0</asrwt>
<pdfrwt beam="1">  1       21 0.26056155E-02 0.12195725E+03</pdfrwt>
<pdfrwt beam="2">  1        2 0.24583911E+00 0.12195725E+03</pdfrwt>
<totfact> 0.12479812E+05</totfact>
</mgrwt>
</event>
<event>
 4    1  0.5134057E+003  0.1111383E+03  0.7546771E-02  0.1258476E+00
          2   -1    0    0  502    0 -0.00000000000E+00  0.00000000000E+00  0.65057266422E+02  0.65057266422E+02  0.00000000000E+00 0.  1.
         21   -1    0    0  503  502  0.00000000000E+00 -0.00000000000E+00 -0.69802714098E+03  0.69802714098E+03  0.00000000000E+00 0.  1.
         21    1    1    2  503  501  0.26547711214E+02  0.10792101045E+03 -0.64202918685E+03  0.65157747216E+03  0.00000000000E+00 0.  1.
          2    1    1    2  501    0 -0.26547711214E+02 -0.10792101045E+03  0.90593122920E+01  0.11150693524E+03  0.00000000000E+00 0.  1.
<mgrwt>
<rscale>  2 0.11113832E+03</rscale>
<asrwt>0</asrwt>
<pdfrwt beam="2">  1       21 0.10738880E+00 0.11113832E+03</pdfrwt>
<pdfrwt beam="1">  1        2 0.10008810E-01 0.11113832E+03</pdfrwt>
<totfact> 0.55040437E+03</totfact>
</mgrwt>
</event>
<event>
 4    1  0.5134057E+003  0.1370698E+03  0.7546771E-02  0.1217327E+00
          1   -1    0    0  503    0 -0.00000000000E+00  0.00000000000E+00  0.26397089964E+03  0.26397089964E+03  0.00000000000E+00 0. -1.
         21   -1    0    0  501  502  0.00000000000E+00 -0.00000000000E+00 -0.83340076012E+03  0.83340076012E+03  0.00000000000E+00 0.  1.
         21    1    1    2  503  502  0.16586381908E+01 -0.13705974210E+03 -0.80944821669E+03  0.82097170444E+03  0.00000000000E+00 0.  1.
          1    1    1    2  501    0 -0.16586381908E+01  0.13705974210E+03  0.24001835621E+03  0.27639995533E+03  0.00000000000E+00 0. -1.
<mgrwt>
<rscale>  2 0.13706978E+03</rscale>
<asrwt>0</asrwt>
<pdfrwt beam="2">  1       21 0.12821550E+00 0.13706978E+03</pdfrwt>
<pdfrwt beam="1">  1        1 0.40610909E-01 0.13706978E+03</pdfrwt>
<totfact> 0.52344582E+02</totfact>
</mgrwt>
</event>
<event>
 4    1  0.5134057E+003  0.1086175E+03  0.7546771E-02  0.1263152E+00
         21   -1    0    0  501  502  0.00000000000E+00  0.00000000000E+00  0.83875981531E+01  0.83875981531E+01  0.00000000000E+00 0.  1.
         -1   -1    0    0    0  501 -0.00000000000E+00 -0.00000000000E+00 -0.22624336432E+04  0.22624336432E+04  0.00000000000E+00 0.  1.
         21    1    1    2  503  502  0.63680151923E+02  0.87992074736E+02 -0.42868350335E+03  0.44222993229E+03  0.00000000000E+00 0.  1.
         -1    1    1    2    0  503 -0.63680151923E+02 -0.87992074736E+02 -0.18253625417E+04  0.18285913091E+04  0.00000000000E+00 0.  1.
<mgrwt>
<rscale>  2 0.10861753E+03</rscale>
<asrwt>0</asrwt>
<pdfrwt beam="1">  1       21 0.12904002E-02 0.10861753E+03</pdfrwt>
<pdfrwt beam="2">  1       -1 0.34806659E+00 0.10861753E+03</pdfrwt>
<totfact> 0.47483245E+03</totfact>
</mgrwt>
</event>
<event>
 4    1  0.5134057E+003  0.1008098E+03  0.7546771E-02  0.1278602E+00
         21   -1    0    0  503  502  0.00000000000E+00  0.00000000000E+00  0.28467971857E+03  0.28467971857E+03  0.00000000000E+00 0. -1.
         -4   -1    0    0    0  501 -0.00000000000E+00 -0.00000000000E+00 -0.10064957242E+03  0.10064957242E+03  0.00000000000E+00 0.  1.
         21    1    1    2  503  501 -0.25545570815E+02 -0.97519481953E+02  0.24678599903E+03  0.26658198526E+03  0.00000000000E+00 0. -1.
         -4    1    1    2    0  502  0.25545570815E+02  0.97519481953E+02 -0.62755852871E+02  0.11874730573E+03  0.00000000000E+00 0.  1.
<mgrwt>
<rscale>  2 0.10080985E+03</rscale>
<asrwt>0</asrwt>
<pdfrwt beam="1">  1       21 0.43796879E-01 0.10080985E+03</pdfrwt>
<pdfrwt beam="2">  1       -4 0.15484550E-01 0.10080985E+03</pdfrwt>
<totfact> 0.71974396E+03</totfact>
</mgrwt>
</event>
<event>
 4    1  0.5134057E+003  0.2331791E+03  0.7546771E-02  0.1124422E+00
         21   -1    0    0  501  502  0.00000000000E+00  0.00000000000E+00  0.63226554605E+03  0.63226554605E+03  0.00000000000E+00 0. -1.
          2   -1    0    0  503    0 -0.00000000000E+00 -0.00000000000E+00 -0.32891526578E+03  0.32891526578E+03  0.00000000000E+00 0.  1.
         21    1    1    2  503  502  0.70303637792E+02 -0.22232830471E+03  0.56468823626E+03  0.61093803346E+03  0.00000000000E+00 0. -1.
          2    1    1    2  501    0 -0.70303637792E+02  0.22232830471E+03 -0.26133795599E+03  0.35024277837E+03  0.00000000000E+00 0.  1.
<mgrwt>
<rscale>  2 0.23317907E+03</rscale>
<asrwt>0</asrwt>
<pdfrwt beam="1">  1       21 0.97271622E-01 0.23317907E+03</pdfrwt>
<pdfrwt beam="2">  1        2 0.50602349E-01 0.23317907E+03</pdfrwt>
<totfact> 0.10556101E+03</totfact>
</mgrwt>
</event>
<event>
 4    1  0.5134057E+003  0.1221258E+03  0.7546771E-02  0.1239631E+00
         21   -1    0    0  501  502  0.00000000000E+00  0.00000000000E+00  0.90771870430E+02  0.90771870430E+02  0.00000000000E+00 0.  1.
          1   -1    0    0  503    0 -0.00000000000E+00 -0.00000000000E+00 -0.29821732639E+03  0.29821732639E+03  0.00000000000E+00 0.  1.
         21    1    1    2  503  502 -0.46764952383E+02  0.11281732857E+03  0.26607020471E+02  0.12499057538E+03  0.00000000000E+00 0.  1.
          1    1    1    2  501    0  0.46764952383E+02 -0.11281732857E+03 -0.23405247643E+03  0.26399862144E+03  0.00000000000E+00 0.  1.
<mgrwt>
<rscale>  2 0.12212580E+03</rscale>
<asrwt>0</asrwt>
<pdfrwt beam="1">  1       21 0.13964903E-01 0.12212580E+03</pdfrwt>
<pdfrwt beam="2">  1        1 0.45879589E-01 0.12212580E+03</pdfrwt>
<totfact> 0.42979833E+04</totfact>
</mgrwt>
</event>
<event>
 4    1  0.5134057E+003  0.1093266E+03  0.7546771E-02  0.1261822E+00
         21   -1    0    0  501  502  0.00000000000E+00  0.00000000000E+00  0.14680572226E+03  0.14680572226E+03  0.00000000000E+00 0.  1.
          1   -1    0    0  503    0 -0.00000000000E+00 -0.00000000000E+00 -0.20687063142E+03  0.20687063142E+03  0.00000000000E+00 0. -1.
         21    1    1    2  503  502 -0.38472073986E+01 -0.10925887853E+03  0.10767908238E+03  0.15345060549E+03  0.00000000000E+00 0.  1.
          1    1    1    2  501    0  0.38472073986E+01  0.10925887853E+03 -0.16774399154E+03  0.20022574819E+03  0.00000000000E+00 0. -1.
<mgrwt>
<rscale>  2 0.10932659E+03</rscale>
<asrwt>0</asrwt>
<pdfrwt beam="1">  1       21 0.22585496E-01 0.10932659E+03</pdfrwt>
<pdfrwt beam="2">  1        1 0.31826251E-01 0.10932659E+03</pdfrwt>
<totfact> 0.28018998E+04</totfact>
</mgrwt>
</event>
<event>
 4    1  0.5134057E+003  0.1085233E+03  0.7546771E-02  0.1263329E+00
         21   -1    0    0  501  502  0.00000000000E+00  0.00000000000E+00  0.40488478790E+02  0.40488478790E+02  0.00000000000E+00 0.  1.
          3   -1    0    0  503    0 -0.00000000000E+00 -0.00000000000E+00 -0.52700458860E+03  0.52700458860E+03  0.00000000000E+00 0.  1.
         21    1    1    2  503  502 -0.13601225038E+02  0.10766756111E+03 -0.53327960342E+02  0.12091802344E+03  0.00000000000E+00 0.  1.
          3    1    1    2  501    0  0.13601225038E+02 -0.10766756111E+03 -0.43318814947E+03  0.44657504395E+03  0.00000000000E+00 0.  1.
<mgrwt>
<rscale>  2 0.10852326E+03</rscale>
<asrwt>0</asrwt>
<pdfrwt beam="1">  1       21 0.62289970E-02 0.10852326E+03</pdfrwt>
<pdfrwt beam="2">  1        3 0.81077626E-01 0.10852326E+03</pdfrwt>
<totfact> 0.12764187E+04</totfact>
</mgrwt>
</event>
<event>
 4    1  0.5134057E+003  0.1067430E+03  0.7546771E-02  0.1266723E+00
         -2   -1    0    0    0  501 -0.00000000000E+00  0.00000000000E+00  0.17668580743E+03  0.17668580743E+03  0.00000000000E+00 0. -1.
         21   -1    0    0  501  502  0.00000000000E+00 -0.00000000000E+00 -0.14925684957E+03  0.14925684957E+03  0.00000000000E+00 0. -1.
         21    1    1    2  503  502  0.17142684675E+02 -0.10535748055E+03 -0.10910375642E+03  0.15263584117E+03  0.00000000000E+00 0. -1.
         -2    1    1    2    0  503 -0.17142684675E+02  0.10535748055E+03  0.13653271428E+03  0.17330681583E+03  0.00000000000E+00 0. -1.
<mgrwt>
<rscale>  2 0.10674301E+03</rscale>
<asrwt>0</asrwt>
<pdfrwt beam="2">  1       21 0.22962592E-01 0.10674301E+03</pdfrwt>
<pdfrwt beam="1">  1       -2 0.27182432E-01 0.10674301E+03</pdfrwt>
<totfact> 0.17361541E+04</totfact>
</mgrwt>
</event>
<event>
 4    1  0.5134057E+003  0.1445022E+03  0.7546771E-02  0.1207396E+00
          1   -1    0    0  503    0 -0.00000000000E+00  0.00000000000E+00  0.22435642546E+04  0.22435642546E+04  0.00000000000E+00 0. -1.
         21   -1    0    0  501  502  0.00000000000E+00 -0.00000000000E+00 -0.11577574309E+02  0.11577574309E+02  0.00000000000E+00 0. -1.
         21    1    1    2  503  502  0.74504965692E+02 -0.12381394359E+03  0.61664724700E+03  0.63335196358E+03  0.00000000000E+00 0. -1.
          1    1    1    2  501    0 -0.74504965692E+02  0.12381394359E+03  0.16153394333E+04  0.16217898653E+04  0.00000000000E+00 0. -1.
<mgrwt>
<rscale>  2 0.14450219E+03</rscale>
<asrwt>0</asrwt>
<pdfrwt beam="2">  1       21 0.17811671E-02 0.14450219E+03</pdfrwt>
<pdfrwt beam="1">  1        1 0.34516338E+00 0.14450219E+03</pdfrwt>
<totfact> 0.40436910E+04</totfact>
</mgrwt>
</event>
<event>
 4    1  0.5134057E+003  0.1337720E+03  0.7546771E-02  0.1221964E+00
          2   -1    0    0  502    0 -0.00000000000E+00  0.00000000000E+00  0.16611014670E+03  0.16611014670E+03  0.00000000000E+00 0. -1.
         21   -1    0    0  503  502  0.00000000000E+00 -0.00000000000E+00 -0.10781656001E+03  0.10781656001E+03  0.00000000000E+00 0.  1.
         21    1    1    2  503  501  0.13365603282E+03  0.55686693140E+01  0.25252406949E+02  0.13613459973E+03  0.00000000000E+00 0.  1.
          2    1    1    2  501    0 -0.13365603282E+03 -0.55686693140E+01  0.33041179740E+02  0.13779210698E+03  0.00000000000E+00 0. -1.
<mgrwt>
<rscale>  2 0.13377199E+03</rscale>
<asrwt>0</asrwt>
<pdfrwt beam="2">  1       21 0.16587163E-01 0.13377199E+03</pdfrwt>
<pdfrwt beam="1">  1        2 0.25555407E-01 0.13377199E+03</pdfrwt>
<totfact> 0.83430998E+04</totfact>
</mgrwt>
</event>
<event>
 4    1  0.5134057E+003  0.1417660E+03  0.7546771E-02  0.1210972E+00
         21   -1    0    0  503  502  0.00000000000E+00  0.00000000000E+00  0.80905419937E+02  0.80905419937E+02  0.00000000000E+00 0. -1.
          2   -1    0    0  502    0 -0.00000000000E+00 -0.00000000000E+00 -0.80088232943E+03  0.80088232943E+03  0.00000000000E+00 0.  1.
         21    1    1    2  503  501  0.94419991348E+02 -0.10574712359E+03  0.62007940609E+01  0.14190151078E+03  0.00000000000E+00 0. -1.
          2    1    1    2  501    0 -0.94419991348E+02  0.10574712359E+03 -0.72617770355E+03  0.73988623859E+03  0.00000000000E+00 0.  1.
<mgrwt>
<rscale>  2 0.14176597E+03</rscale>
<asrwt>0</asrwt>
<pdfrwt beam="1">  1       21 0.12446987E-01 0.14176597E+03</pdfrwt>
<pdfrwt beam="2">  1        2 0.12321267E+00 0.14176597E+03</pdfrwt>
<totfact> 0.24824120E+04</totfact>
</mgrwt>
</event>
<event>
 4    1  0.5134057E+003  0.1048669E+03  0.7546771E-02  0.1270382E+00
          2   -1    0    0  503    0 -0.00000000000E+00  0.00000000000E+00  0.89135106277E+03  0.89135106277E+03  0.00000000000E+00 0.  1.
         21   -1    0    0  501  502  0.00000000000E+00 -0.00000000000E+00 -0.72658024196E+02  0.72658024196E+02  0.00000000000E+00 0.  1.
         21    1    1    2  503  502  0.54530158158E+02 -0.89574159015E+02 -0.29832712940E+02  0.10902778945E+03  0.00000000000E+00 0.  1.
          2    1    1    2  501    0 -0.54530158158E+02  0.89574159015E+02  0.84852575151E+03  0.85498129751E+03  0.00000000000E+00 0.  1.
<mgrwt>
<rscale>  2 0.10486691E+03</rscale>
<asrwt>0</asrwt>
<pdfrwt beam="2">  1       21 0.11178158E-01 0.10486691E+03</pdfrwt>
<pdfrwt beam="1">  1        2 0.13713093E+00 0.10486691E+03</pdfrwt>
<totfact> 0.26358038E+04</totfact>
</mgrwt>
</event>
<event>
 4    1  0.5134057E+003  0.1273840E+03  0.7546771E-02  0.1231390E+00
          1   -1    0    0  503    0 -0.00000000000E+00  0.00000000000E+00  0.30767731562E+03  0.30767731562E+03  0.00000000000E+00 0.  1.
         21   -1    0    0  501  502  0.00000000000E+00 -0.00000000000E+00 -0.67319877869E+02  0.67319877869E+02  0.00000000000E+00 0.  1.
         21    1    1    2  503  502  0.12528187419E+03  0.23046209680E+02  0.32918914074E+02  0.13156872989E+03  0.00000000000E+00 0.  1.
          1    1    1    2  501    0 -0.12528187419E+03 -0.23046209680E+02  0.20743852368E+03  0.24342846359E+03  0.00000000000E+00 0.  1.
<mgrwt>
<rscale>  2 0.12738397E+03</rscale>
<asrwt>0</asrwt>
<pdfrwt beam="2">  1       21 0.10356904E-01 0.12738397E+03</pdfrwt>
<pdfrwt beam="1">  1        1 0.47334971E-01 0.12738397E+03</pdfrwt>
<totfact> 0.70264201E+04</totfact>
</mgrwt>
</event>
<event>
 4    1  0.5134057E+003  0.1345950E+03  0.7546771E-02  0.1220793E+00
         21   -1    0    0  501  502  0.00000000000E+00  0.00000000000E+00  0.17850945397E+04  0.17850945397E+04  0.00000000000E+00 0. -1.
          2   -1    0    0  503    0 -0.00000000000E+00 -0.00000000000E+00 -0.15007474223E+02  0.15007474223E+02  0.00000000000E+00 0. -1.
         21    1    1    2  503  502  0.10648197968E+03 -0.82325031652E+02  0.13971860732E+04  0.14036540692E+04  0.00000000000E+00 0. -1.
          2    1    1    2  501    0 -0.10648197968E+03  0.82325031652E+02  0.37290099222E+03  0.39644794467E+03  0.00000000000E+00 0. -1.
<mgrwt>
<rscale>  2 0.13459503E+03</rscale>
<asrwt>0</asrwt>
<pdfrwt beam="1">  1       21 0.27462976E+00 0.13459503E+03</pdfrwt>
<pdfrwt beam="2">  1        2 0.23088436E-02 0.13459503E+03</pdfrwt>
<totfact> 0.26651616E+03</totfact>
</mgrwt>
</event>
<event>
 4    1  0.5134057E+003  0.1341932E+03  0.7546771E-02  0.1221363E+00
          2   -1    0    0  503    0 -0.00000000000E+00  0.00000000000E+00  0.14460588757E+04  0.14460588757E+04  0.00000000000E+00 0. -1.
         21   -1    0    0  501  502  0.00000000000E+00 -0.00000000000E+00 -0.71417465142E+02  0.71417465142E+02  0.00000000000E+00 0. -1.
         21    1    1    2  503  502  0.12867754373E+03 -0.38077546065E+02 -0.21007593194E+01  0.13420962322E+03  0.00000000000E+00 0. -1.
          2    1    1    2  501    0 -0.12867754373E+03  0.38077546065E+02  0.13767421699E+04  0.13832667176E+04  0.00000000000E+00 0. -1.
<mgrwt>
<rscale>  2 0.13419318E+03</rscale>
<asrwt>0</asrwt>
<pdfrwt beam="2">  1       21 0.10987303E-01 0.13419318E+03</pdfrwt>
<pdfrwt beam="1">  1        2 0.22247057E+00 0.13419318E+03</pdfrwt>
<totfact> 0.13142422E+04</totfact>
</mgrwt>
</event>
<event>
 4    1  0.5134057E+003  0.2177114E+03  0.7546771E-02  0.1135601E+00
          1   -1    0    0  502    0 -0.00000000000E+00  0.00000000000E+00  0.11659580839E+04  0.11659580839E+04  0.00000000000E+00 0. -1.
         21   -1    0    0  503  502  0.00000000000E+00 -0.00000000000E+00 -0.74059077950E+02  0.74059077950E+02  0.00000000000E+00 0.  1.
         21    1    1    2  503  501 -0.21568889574E+03 -0.29606742053E+02  0.12953169351E+03  0.25333124273E+03  0.00000000000E+00 0.  1.
          1    1    1    2  501    0  0.21568889574E+03  0.29606742053E+02  0.96236731242E+03  0.98668591910E+03  0.00000000000E+00 0. -1.
<mgrwt>
<rscale>  2 0.21771141E+03</rscale>
<asrwt>0</asrwt>
<pdfrwt beam="2">  1       21 0.11393705E-01 0.21771141E+03</pdfrwt>
<pdfrwt beam="1">  1        1 0.17937815E+00 0.21771141E+03</pdfrwt>
<totfact> 0.87202158E+03</totfact>
</mgrwt>
</event>
<event>
 4    1  0.5134057E+003  0.1017812E+03  0.7546771E-02  0.1276594E+00
         21   -1    0    0  503  502  0.00000000000E+00  0.00000000000E+00  0.92970884086E+02  0.92970884086E+02  0.00000000000E+00 0. -1.
         -1   -1    0    0    0  501 -0.00000000000E+00 -0.00000000000E+00 -0.33348986754E+03  0.33348986754E+03  0.00000000000E+00 0.  1.
         21    1    1    2  503  501  0.96747531365E+02 -0.31612140871E+02  0.53739325041E+02  0.11509703442E+03  0.00000000000E+00 0. -1.
         -1    1    1    2    0  502 -0.96747531365E+02  0.31612140871E+02 -0.29425830849E+03  0.31136371720E+03  0.00000000000E+00 0.  1.
<mgrwt>
<rscale>  2 0.10178120E+03</rscale>
<asrwt>0</asrwt>
<pdfrwt beam="1">  1       21 0.14303213E-01 0.10178120E+03</pdfrwt>
<pdfrwt beam="2">  1       -1 0.51306132E-01 0.10178120E+03</pdfrwt>
<totfact> 0.15491513E+04</totfact>
</mgrwt>
</event>
<event>
 4    1  0.5134057E+003  0.1131610E+03  0.7546771E-02  0.1254826E+00
          2   -1    0    0  502    0 -0.00000000000E+00  0.00000000000E+00  0.58395676168E+03  0.58395676168E+03  0.00000000000E+00 0.  1.
         21   -1    0    0  503  502  0.00000000000E+00 -0.00000000000E+00 -0.39553242517E+02  0.39553242517E+02  0.00000000000E+00 0.  1.
         21    1    1    2  503  501  0.11312145440E+03 -0.29913009668E+01  0.64097323280E+02  0.13005336666E+03  0.00000000000E+00 0.  1.
          2    1    1    2  501    0 -0.11312145440E+03  0.29913009668E+01  0.48030619588E+03  0.49345663754E+03  0.00000000000E+00 0.  1.
<mgrwt>
<rscale>  2 0.11316100E+03</rscale>
<asrwt>0</asrwt>
<pdfrwt beam="2">  1       21 0.60851147E-02 0.11316100E+03</pdfrwt>
<pdfrwt beam="1">  1        2 0.89839495E-01 0.11316100E+03</pdfrwt>
<totfact> 0.12439055E+05</totfact>
</mgrwt>
</event>
<event>
 4    1  0.5134057E+003  0.1138693E+03  0.7546771E-02  0.1253568E+00
         21   -1    0    0  501  502  0.00000000000E+00  0.00000000000E+00  0.45391997290E+02  0.45391997290E+02  0.00000000000E+00 0. -1.
          2   -1    0    0  503    0 -0.00000000000E+00 -0.00000000000E+00 -0.17331607631E+04  0.17331607631E+04  0.00000000000E+00 0.  1.
         21    1    1    2  503  502  0.90855339109E+02 -0.68640533434E+02 -0.31188121068E+02  0.11806317957E+03  0.00000000000E+00 0. -1.
          2    1    1    2  501    0 -0.90855339109E+02  0.68640533434E+02 -0.16565806447E+04  0.16604895808E+04  0.00000000000E+00 0.  1.
<mgrwt>
<rscale>  2 0.11386929E+03</rscale>
<asrwt>0</asrwt>
<pdfrwt beam="1">  1       21 0.69833844E-02 0.11386929E+03</pdfrwt>
<pdfrwt beam="2">  1        2 0.26664011E+00 0.11386929E+03</pdfrwt>
<totfact> 0.20676646E+04</totfact>
</mgrwt>
</event>
<event>
 4    1  0.5134057E+003  0.1454001E+03  0.7546771E-02  0.1206242E+00
         21   -1    0    0  501  502  0.00000000000E+00  0.00000000000E+00  0.24016692751E+03  0.24016692751E+03  0.00000000000E+00 0.  1.
          2   -1    0    0  503    0 -0.00000000000E+00 -0.00000000000E+00 -0.91075544438E+02  0.91075544438E+02  0.00000000000E+00 0.  1.
         21    1    1    2  503  502 -0.66862054657E+02  0.12911493482E+03  0.10484645025E+03  0.17925952939E+03  0.00000000000E+00 0.  1.
          2    1    1    2  501    0  0.66862054657E+02 -0.12911493482E+03  0.44244932825E+02  0.15198294256E+03  0.00000000000E+00 0.  1.
<mgrwt>
<rscale>  2 0.14540014E+03</rscale>
<asrwt>0</asrwt>
<pdfrwt beam="1">  1       21 0.36948758E-01 0.14540014E+03</pdfrwt>
<pdfrwt beam="2">  1        2 0.14011622E-01 0.14540014E+03</pdfrwt>
<totfact> 0.36327328E+04</totfact>
</mgrwt>
</event>
<event>
 4    1  0.5134057E+003  0.1006905E+03  0.7546771E-02  0.1278851E+00
          2   -1    0    0  503    0 -0.00000000000E+00  0.00000000000E+00  0.15537390788E+03  0.15537390788E+03  0.00000000000E+00 0. -1.
         21   -1    0    0  501  502  0.00000000000E+00 -0.00000000000E+00 -0.11898283790E+03  0.11898283790E+03  0.00000000000E+00 0. -1.
         21    1    1    2  503  502 -0.59795437852E+02  0.81012876722E+02 -0.73987735052E+02  0.12495105250E+03  0.00000000000E+00 0. -1.
          2    1    1    2  501    0  0.59795437852E+02 -0.81012876722E+02  0.11037880503E+03  0.14940569328E+03  0.00000000000E+00 0. -1.
<mgrwt>
<rscale>  2 0.10069052E+03</rscale>
<asrwt>0</asrwt>
<pdfrwt beam="2">  1       21 0.18305052E-01 0.10069052E+03</pdfrwt>
<pdfrwt beam="1">  1        2 0.23903678E-01 0.10069052E+03</pdfrwt>
<totfact> 0.74370030E+04</totfact>
</mgrwt>
</event>
<event>
 4    1  0.5134057E+003  0.1095299E+03  0.7546771E-02  0.1261443E+00
         21   -1    0    0  503  502  0.00000000000E+00  0.00000000000E+00  0.61768636392E+02  0.61768636392E+02  0.00000000000E+00 0. -1.
          2   -1    0    0  502    0 -0.00000000000E+00 -0.00000000000E+00 -0.20797975221E+04  0.20797975221E+04  0.00000000000E+00 0.  1.
         21    1    1    2  503  501  0.19838580838E+02 -0.10771827195E+03  0.10546049453E+02  0.11003642379E+03  0.00000000000E+00 0. -1.
          2    1    1    2  501    0 -0.19838580838E+02  0.10771827195E+03 -0.20285749352E+04  0.20315297347E+04  0.00000000000E+00 0.  1.
<mgrwt>
<rscale>  2 0.10952988E+03</rscale>
<asrwt>0</asrwt>
<pdfrwt beam="1">  1       21 0.95028662E-02 0.10952988E+03</pdfrwt>
<pdfrwt beam="2">  1        2 0.31996888E+00 0.10952988E+03</pdfrwt>
<totfact> 0.81412640E+03</totfact>
</mgrwt>
</event>
<event>
 4    1  0.5134057E+003  0.1038150E+03  0.7546771E-02  0.1272472E+00
         21   -1    0    0  503  502  0.00000000000E+00  0.00000000000E+00  0.58753076674E+03  0.58753076674E+03  0.00000000000E+00 0. -1.
          1   -1    0    0  502    0 -0.00000000000E+00 -0.00000000000E+00 -0.34031661995E+03  0.34031661995E+03  0.00000000000E+00 0.  1.
         21    1    1    2  503  501  0.70081652581E+02 -0.76590567143E+02  0.57485432759E+03  0.58415327694E+03  0.00000000000E+00 0. -1.
          1    1    1    2  501    0 -0.70081652581E+02  0.76590567143E+02 -0.32764018080E+03  0.34369410976E+03  0.00000000000E+00 0.  1.
<mgrwt>
<rscale>  2 0.10381499E+03</rscale>
<asrwt>0</asrwt>
<pdfrwt beam="1">  1       21 0.90389349E-01 0.10381499E+03</pdfrwt>
<pdfrwt beam="2">  1        1 0.52356403E-01 0.10381499E+03</pdfrwt>
<totfact> 0.90350119E+02</totfact>
</mgrwt>
</event>
<event>
 4    1  0.5134057E+003  0.1156127E+03  0.7546771E-02  0.1250515E+00
         21   -1    0    0  503  502  0.00000000000E+00  0.00000000000E+00  0.32958620405E+02  0.32958620405E+02  0.00000000000E+00 0.  1.
          1   -1    0    0  502    0 -0.00000000000E+00 -0.00000000000E+00 -0.14613320685E+04  0.14613320685E+04  0.00000000000E+00 0.  1.
         21    1    1    2  503  501  0.32064697565E+02 -0.11107721644E+03 -0.79121618970E+02  0.14009469451E+03  0.00000000000E+00 0.  1.
          1    1    1    2  501    0 -0.32064697565E+02  0.11107721644E+03 -0.13492518291E+04  0.13541959944E+04  0.00000000000E+00 0.  1.
<mgrwt>
<rscale>  2 0.11561268E+03</rscale>
<asrwt>0</asrwt>
<pdfrwt beam="1">  1       21 0.50705582E-02 0.11561268E+03</pdfrwt>
<pdfrwt beam="2">  1        1 0.22482026E+00 0.11561268E+03</pdfrwt>
<totfact> 0.23074953E+04</totfact>
</mgrwt>
</event>
<event>
 4    1  0.5134057E+003  0.1301071E+03  0.7546771E-02  0.1227297E+00
          1   -1    0    0  503    0 -0.00000000000E+00  0.00000000000E+00  0.60071273244E+03  0.60071273244E+03  0.00000000000E+00 0.  1.
         21   -1    0    0  501  502  0.00000000000E+00 -0.00000000000E+00 -0.57382352759E+02  0.57382352759E+02  0.00000000000E+00 0.  1.
         21    1    1    2  503  502 -0.83132651321E+02  0.10008407952E+03  0.36928394175E+02  0.13524631967E+03  0.00000000000E+00 0.  1.
          1    1    1    2  501    0  0.83132651321E+02 -0.10008407952E+03  0.50640198551E+03  0.52284876553E+03  0.00000000000E+00 0.  1.
<mgrwt>
<rscale>  2 0.13010711E+03</rscale>
<asrwt>0</asrwt>
<pdfrwt beam="2">  1       21 0.88280547E-02 0.13010711E+03</pdfrwt>
<pdfrwt beam="1">  1        1 0.92417339E-01 0.13010711E+03</pdfrwt>
<totfact> 0.39459504E+04</totfact>
</mgrwt>
</event>
<event>
 4    1  0.5134057E+003  0.1098830E+03  0.7546771E-02  0.1260787E+00
          2   -1    0    0  503    0 -0.00000000000E+00  0.00000000000E+00  0.17556269657E+04  0.17556269657E+04  0.00000000000E+00 0.  1.
         21   -1    0    0  501  502  0.00000000000E+00 -0.00000000000E+00 -0.45083719658E+02  0.45083719658E+02  0.00000000000E+00 0. -1.
         21    1    1    2  503  502  0.51771634589E+02  0.96922550918E+02  0.26430588794E+02  0.11301707415E+03  0.00000000000E+00 0. -1.
          2    1    1    2  501    0 -0.51771634589E+02 -0.96922550918E+02  0.16841126572E+04  0.16876936112E+04  0.00000000000E+00 0.  1.
<mgrwt>
<rscale>  2 0.10988304E+03</rscale>
<asrwt>0</asrwt>
<pdfrwt beam="2">  1       21 0.69359582E-02 0.10988304E+03</pdfrwt>
<pdfrwt beam="1">  1        2 0.27009640E+00 0.10988304E+03</pdfrwt>
<totfact> 0.20410266E+04</totfact>
</mgrwt>
</event>
<event>
 4    1  0.5134057E+003  0.1214726E+03  0.7546771E-02  0.1240687E+00
         21   -1    0    0  503  502  0.00000000000E+00  0.00000000000E+00  0.65975768127E+03  0.65975768127E+03  0.00000000000E+00 0.  1.
          1   -1    0    0  502    0 -0.00000000000E+00 -0.00000000000E+00 -0.17523002547E+03  0.17523002547E+03  0.00000000000E+00 0. -1.
         21    1    1    2  503  501  0.27807790294E+02  0.11824686699E+03  0.63220549532E+03  0.64376966616E+03  0.00000000000E+00 0.  1.
          1    1    1    2  501    0 -0.27807790294E+02 -0.11824686699E+03 -0.14767783953E+03  0.19121804058E+03  0.00000000000E+00 0. -1.
<mgrwt>
<rscale>  2 0.12147261E+03</rscale>
<asrwt>0</asrwt>
<pdfrwt beam="1">  1       21 0.10150118E+00 0.12147261E+03</pdfrwt>
<pdfrwt beam="2">  1        1 0.26958466E-01 0.12147261E+03</pdfrwt>
<totfact> 0.15456167E+03</totfact>
</mgrwt>
</event>
<event>
 4    1  0.5134057E+003  0.1449542E+03  0.7546771E-02  0.1206814E+00
          1   -1    0    0  503    0 -0.00000000000E+00  0.00000000000E+00  0.79596905330E+03  0.79596905330E+03  0.00000000000E+00 0.  1.
         21   -1    0    0  501  502  0.00000000000E+00 -0.00000000000E+00 -0.75577626237E+02  0.75577626237E+02  0.00000000000E+00 0. -1.
         21    1    1    2  503  502 -0.14493022497E+03 -0.26345481305E+01  0.86691091624E+01  0.14521316885E+03  0.00000000000E+00 0. -1.
          1    1    1    2  501    0  0.14493022497E+03  0.26345481305E+01  0.71172231790E+03  0.72633351069E+03  0.00000000000E+00 0.  1.
<mgrwt>
<rscale>  2 0.14495417E+03</rscale>
<asrwt>0</asrwt>
<pdfrwt beam="2">  1       21 0.11627328E-01 0.14495417E+03</pdfrwt>
<pdfrwt beam="1">  1        1 0.12245677E+00 0.14495417E+03</pdfrwt>
<totfact> 0.16267701E+04</totfact>
</mgrwt>
</event>
<event>
 4    1  0.5134057E+003  0.1059042E+03  0.7546771E-02  0.1268348E+00
          2   -1    0    0  502    0 -0.00000000000E+00  0.00000000000E+00  0.61479152174E+03  0.61479152174E+03  0.00000000000E+00 0. -1.
         21   -1    0    0  503  502  0.00000000000E+00 -0.00000000000E+00 -0.18901393532E+02  0.18901393532E+02  0.00000000000E+00 0. -1.
         21    1    1    2  503  501  0.29727762878E+02 -0.10164622176E+03  0.23881388656E+03  0.26124273520E+03  0.00000000000E+00 0. -1.
          2    1    1    2  501    0 -0.29727762878E+02  0.10164622176E+03  0.35707624165E+03  0.37245018007E+03  0.00000000000E+00 0. -1.
<mgrwt>
<rscale>  2 0.10590418E+03</rscale>
<asrwt>0</asrwt>
<pdfrwt beam="2">  1       21 0.29079072E-02 0.10590418E+03</pdfrwt>
<pdfrwt beam="1">  1        2 0.94583296E-01 0.10590418E+03</pdfrwt>
<totfact> 0.39840088E+05</totfact>
</mgrwt>
</event>
<event>
 4    1  0.5134057E+003  0.1488860E+03  0.7546771E-02  0.1201849E+00
          2   -1    0    0  503    0 -0.00000000000E+00  0.00000000000E+00  0.47701176988E+04  0.47701176988E+04  0.00000000000E+00 0.  1.
         21   -1    0    0  501  502  0.00000000000E+00 -0.00000000000E+00 -0.22466107198E+02  0.22466107198E+02  0.00000000000E+00 0.  1.
         21    1    1    2  503  502  0.80548977202E+02 -0.12521544963E+03  0.23970997099E+03  0.28218418939E+03  0.00000000000E+00 0.  1.
          2    1    1    2  501    0 -0.80548977202E+02  0.12521544963E+03  0.45079416206E+04  0.45103996166E+04  0.00000000000E+00 0.  1.
<mgrwt>
<rscale>  2 0.14888602E+03</rscale>
<asrwt>0</asrwt>
<pdfrwt beam="2">  1       21 0.34563280E-02 0.14888602E+03</pdfrwt>
<pdfrwt beam="1">  1        2 0.73386346E+00 0.14888602E+03</pdfrwt>
<totfact> 0.65742955E+02</totfact>
</mgrwt>
</event>
<event>
 4    1  0.5134057E+003  0.2603936E+03  0.7546771E-02  0.1106907E+00
         21   -1    0    0  501  502  0.00000000000E+00  0.00000000000E+00  0.40893701826E+02  0.40893701826E+02  0.00000000000E+00 0. -1.
          1   -1    0    0  503    0 -0.00000000000E+00 -0.00000000000E+00 -0.19643948236E+04  0.19643948236E+04  0.00000000000E+00 0.  1.
         21    1    1    2  503  502 -0.25875830397E+03  0.29136727386E+02 -0.56581882887E+03  0.62286094424E+03  0.00000000000E+00 0. -1.
          1    1    1    2  501    0  0.25875830397E+03 -0.29136727386E+02 -0.13576822929E+04  0.13824275812E+04  0.00000000000E+00 0.  1.
<mgrwt>
<rscale>  2 0.26039357E+03</rscale>
<asrwt>0</asrwt>
<pdfrwt beam="1">  1       21 0.62913383E-02 0.26039357E+03</pdfrwt>
<pdfrwt beam="2">  1        1 0.30221461E+00 0.26039357E+03</pdfrwt>
<totfact> 0.72162943E+03</totfact>
</mgrwt>
</event>
<event>
 4    1  0.5134057E+003  0.1271003E+03  0.7546771E-02  0.1231823E+00
         21   -1    0    0  503  502  0.00000000000E+00  0.00000000000E+00  0.10310097137E+03  0.10310097137E+03  0.00000000000E+00 0. -1.
         -3   -1    0    0    0  501 -0.00000000000E+00 -0.00000000000E+00 -0.31527740555E+03  0.31527740555E+03  0.00000000000E+00 0.  1.
         21    1    1    2  503  501 -0.76209147264E+02 -0.10171847215E+03  0.42277170900E+02  0.13394715705E+03  0.00000000000E+00 0. -1.
         -3    1    1    2    0  502  0.76209147264E+02  0.10171847215E+03 -0.25445360507E+03  0.28443121987E+03  0.00000000000E+00 0.  1.
<mgrwt>
<rscale>  2 0.12710028E+03</rscale>
<asrwt>0</asrwt>
<pdfrwt beam="1">  1       21 0.15861688E-01 0.12710028E+03</pdfrwt>
<pdfrwt beam="2">  1       -3 0.48504216E-01 0.12710028E+03</pdfrwt>
<totfact> 0.72936543E+03</totfact>
</mgrwt>
</event>
<event>
 4    1  0.5134057E+003  0.1119691E+03  0.7546771E-02  0.1256966E+00
          4   -1    0    0  503    0 -0.00000000000E+00  0.00000000000E+00  0.17463045540E+03  0.17463045540E+03  0.00000000000E+00 0. -1.
         21   -1    0    0  501  502  0.00000000000E+00 -0.00000000000E+00 -0.56330992315E+03  0.56330992315E+03  0.00000000000E+00 0. -1.
         21    1    1    2  503  502  0.10283816311E+03  0.44287537621E+02 -0.53899684794E+03  0.55050401985E+03  0.00000000000E+00 0. -1.
          4    1    1    2  501    0 -0.10283816311E+03 -0.44287537621E+02  0.15031738018E+03  0.18743635870E+03  0.00000000000E+00 0. -1.
<mgrwt>
<rscale>  2 0.11196908E+03</rscale>
<asrwt>0</asrwt>
<pdfrwt beam="2">  1       21 0.86663067E-01 0.11196908E+03</pdfrwt>
<pdfrwt beam="1">  1        4 0.26866223E-01 0.11196908E+03</pdfrwt>
<totfact> 0.63093867E+02</totfact>
</mgrwt>
</event>
<event>
 4    1  0.5134057E+003  0.1016666E+03  0.7546771E-02  0.1276830E+00
         21   -1    0    0  503  502  0.00000000000E+00  0.00000000000E+00  0.63346637459E+03  0.63346637459E+03  0.00000000000E+00 0.  1.
          2   -1    0    0  502    0 -0.00000000000E+00 -0.00000000000E+00 -0.36760964255E+03  0.36760964255E+03  0.00000000000E+00 0. -1.
         21    1    1    2  503  501 -0.53271432588E+02  0.86592394834E+02  0.62223186252E+03  0.63048281429E+03  0.00000000000E+00 0.  1.
          2    1    1    2  501    0  0.53271432588E+02 -0.86592394834E+02 -0.35637513048E+03  0.37059320285E+03  0.00000000000E+00 0. -1.
<mgrwt>
<rscale>  2 0.10166655E+03</rscale>
<asrwt>0</asrwt>
<pdfrwt beam="1">  1       21 0.97456365E-01 0.10166655E+03</pdfrwt>
<pdfrwt beam="2">  1        2 0.56555330E-01 0.10166655E+03</pdfrwt>
<totfact> 0.10134853E+03</totfact>
</mgrwt>
</event>
<event>
 4    1  0.5134057E+003  0.1074307E+03  0.7546771E-02  0.1265403E+00
          2   -1    0    0  502    0 -0.00000000000E+00  0.00000000000E+00  0.19184019863E+03  0.19184019863E+03  0.00000000000E+00 0.  1.
         21   -1    0    0  503  502  0.00000000000E+00 -0.00000000000E+00 -0.81966915289E+02  0.81966915289E+02  0.00000000000E+00 0.  1.
         21    1    1    2  503  501 -0.10541958170E+03  0.20689693353E+02 -0.15675571421E+02  0.10856829720E+03  0.00000000000E+00 0.  1.
          2    1    1    2  501    0  0.10541958170E+03 -0.20689693353E+02  0.12554885476E+03  0.16523881671E+03  0.00000000000E+00 0.  1.
<mgrwt>
<rscale>  2 0.10743068E+03</rscale>
<asrwt>0</asrwt>
<pdfrwt beam="2">  1       21 0.12610295E-01 0.10743068E+03</pdfrwt>
<pdfrwt beam="1">  1        2 0.29513877E-01 0.10743068E+03</pdfrwt>
<totfact> 0.11572222E+05</totfact>
</mgrwt>
</event>
<event>
 4    1  0.5134057E+003  0.1457891E+03  0.7546771E-02  0.1205745E+00
         21   -1    0    0  501  502  0.00000000000E+00  0.00000000000E+00  0.79204572350E+02  0.79204572350E+02  0.00000000000E+00 0. -1.
          2   -1    0    0  503    0 -0.00000000000E+00 -0.00000000000E+00 -0.20432365953E+04  0.20432365953E+04  0.00000000000E+00 0. -1.
         21    1    1    2  503  502  0.12293770868E+03  0.78363074594E+02  0.70648259668E+01  0.14596014333E+03  0.00000000000E+00 0. -1.
          2    1    1    2  501    0 -0.12293770868E+03 -0.78363074594E+02 -0.19710968489E+04  0.19764810243E+04  0.00000000000E+00 0. -1.
<mgrwt>
<rscale>  2 0.14578907E+03</rscale>
<asrwt>0</asrwt>
<pdfrwt beam="1">  1       21 0.12185320E-01 0.14578907E+03</pdfrwt>
<pdfrwt beam="2">  1        2 0.31434407E+00 0.14578907E+03</pdfrwt>
<totfact> 0.53619640E+03</totfact>
</mgrwt>
</event>
<event>
 4    1  0.5134057E+003  0.1560455E+03  0.7546771E-02  0.1193235E+00
          2   -1    0    0  502    0 -0.00000000000E+00  0.00000000000E+00  0.16461072287E+04  0.16461072287E+04  0.00000000000E+00 0. -1.
         21   -1    0    0  503  502  0.00000000000E+00 -0.00000000000E+00 -0.77746400965E+02  0.77746400965E+02  0.00000000000E+00 0.  1.
         21    1    1    2  503  501 -0.12356684459E+03  0.95296546536E+02  0.85742673767E+01  0.15628088471E+03  0.00000000000E+00 0.  1.
          2    1    1    2  501    0  0.12356684459E+03 -0.95296546536E+02  0.15597865604E+04  0.15675727450E+04  0.00000000000E+00 0. -1.
<mgrwt>
<rscale>  2 0.15604550E+03</rscale>
<asrwt>0</asrwt>
<pdfrwt beam="2">  1       21 0.11960986E-01 0.15604550E+03</pdfrwt>
<pdfrwt beam="1">  1        2 0.25324724E+00 0.15604550E+03</pdfrwt>
<totfact> 0.88190177E+03</totfact>
</mgrwt>
</event>
<event>
 4    1  0.5134057E+003  0.1012220E+03  0.7546771E-02  0.1277747E+00
         21   -1    0    0  503  502  0.00000000000E+00  0.00000000000E+00  0.22036155280E+03  0.22036155280E+03  0.00000000000E+00 0.  1.
          2   -1    0    0  502    0 -0.00000000000E+00 -0.00000000000E+00 -0.77552566595E+03  0.77552566595E+03  0.00000000000E+00 0. -1.
         21    1    1    2  503  501 -0.85424334022E+02  0.54300738237E+02  0.20520401818E+03  0.22881122371E+03  0.00000000000E+00 0.  1.
          2    1    1    2  501    0  0.85424334022E+02 -0.54300738237E+02 -0.76036813134E+03  0.76707599504E+03  0.00000000000E+00 0. -1.
<mgrwt>
<rscale>  2 0.10122197E+03</rscale>
<asrwt>0</asrwt>
<pdfrwt beam="1">  1       21 0.33901778E-01 0.10122197E+03</pdfrwt>
<pdfrwt beam="2">  1        2 0.11931164E+00 0.10122197E+03</pdfrwt>
<totfact> 0.40865140E+03</totfact>
</mgrwt>
</event>
<event>
 4    1  0.5134057E+003  0.1338741E+03  0.7546771E-02  0.1221818E+00
          2   -1    0    0  503    0 -0.00000000000E+00  0.00000000000E+00  0.31629660829E+03  0.31629660829E+03  0.00000000000E+00 0.  1.
         21   -1    0    0  501  502  0.00000000000E+00 -0.00000000000E+00 -0.48799135382E+03  0.48799135382E+03  0.00000000000E+00 0. -1.
         21    1    1    2  503  502 -0.13265202710E+03  0.18047248060E+02 -0.46392379525E+03  0.48285355052E+03  0.00000000000E+00 0. -1.
          2    1    1    2  501    0  0.13265202710E+03 -0.18047248060E+02  0.29222904972E+03  0.32143441159E+03  0.00000000000E+00 0.  1.
<mgrwt>
<rscale>  2 0.13387406E+03</rscale>
<asrwt>0</asrwt>
<pdfrwt beam="2">  1       21 0.75075592E-01 0.13387406E+03</pdfrwt>
<pdfrwt beam="1">  1        2 0.48661017E-01 0.13387406E+03</pdfrwt>
<totfact> 0.20908688E+03</totfact>
</mgrwt>
</event>
<event>
 4    1  0.5134057E+003  0.1103500E+03  0.7546771E-02  0.1259923E+00
         21   -1    0    0  503  502  0.00000000000E+00  0.00000000000E+00  0.59790062357E+03  0.59790062357E+03  0.00000000000E+00 0.  1.
         -1   -1    0    0    0  501 -0.00000000000E+00 -0.00000000000E+00 -0.30389902196E+03  0.30389902196E+03  0.00000000000E+00 0. -1.
         21    1    1    2  503  501  0.10979690950E+03 -0.11034654282E+02  0.58252959917E+03  0.59288941535E+03  0.00000000000E+00 0.  1.
         -1    1    1    2    0  502 -0.10979690950E+03  0.11034654282E+02 -0.28852799756E+03  0.30891023017E+03  0.00000000000E+00 0. -1.
<mgrwt>
<rscale>  2 0.11035001E+03</rscale>
<asrwt>0</asrwt>
<pdfrwt beam="1">  1       21 0.91984711E-01 0.11035001E+03</pdfrwt>
<pdfrwt beam="2">  1       -1 0.46753696E-01 0.11035001E+03</pdfrwt>
<totfact> 0.45289984E+02</totfact>
</mgrwt>
</event>
<event>
 4    1  0.5134057E+003  0.1239723E+03  0.7546771E-02  0.1236684E+00
          4   -1    0    0  503    0 -0.00000000000E+00  0.00000000000E+00  0.87768905968E+03  0.87768905968E+03  0.00000000000E+00 0. -1.
         21   -1    0    0  501  502  0.00000000000E+00 -0.00000000000E+00 -0.48820725208E+02  0.48820725208E+02  0.00000000000E+00 0. -1.
         21    1    1    2  503  502  0.22608836664E+01  0.12395172938E+03  0.43447685270E+02  0.13136530808E+03  0.00000000000E+00 0. -1.
          4    1    1    2  501    0 -0.22608836664E+01 -0.12395172938E+03  0.78542064920E+03  0.79514447681E+03  0.00000000000E+00 0. -1.
<mgrwt>
<rscale>  2 0.12397235E+03</rscale>
<asrwt>0</asrwt>
<pdfrwt beam="2">  1       21 0.75108815E-02 0.12397235E+03</pdfrwt>
<pdfrwt beam="1">  1        4 0.13502907E+00 0.12397235E+03</pdfrwt>
<totfact> 0.22883348E+03</totfact>
</mgrwt>
</event>
<event>
 4    1  0.5134057E+003  0.1285289E+03  0.7546771E-02  0.1229655E+00
          1   -1    0    0  502    0 -0.00000000000E+00  0.00000000000E+00  0.20283457960E+04  0.20283457960E+04  0.00000000000E+00 0.  1.
         21   -1    0    0  503  502  0.00000000000E+00 -0.00000000000E+00 -0.12597788948E+02  0.12597788948E+02  0.00000000000E+00 0. -1.
         21    1    1    2  503  501 -0.12845143289E+03  0.44607403742E+01  0.40113916873E+03  0.42122713767E+03  0.00000000000E+00 0. -1.
          1    1    1    2  501    0  0.12845143289E+03 -0.44607403742E+01  0.16146088383E+04  0.16197164472E+04  0.00000000000E+00 0.  1.
<mgrwt>
<rscale>  2 0.12852886E+03</rscale>
<asrwt>0</asrwt>
<pdfrwt beam="2">  1       21 0.19381230E-02 0.12852886E+03</pdfrwt>
<pdfrwt beam="1">  1        1 0.31205294E+00 0.12852886E+03</pdfrwt>
<totfact> 0.48593046E+04</totfact>
</mgrwt>
</event>
<event>
 4    1  0.5134057E+003  0.1281577E+03  0.7546771E-02  0.1230215E+00
         21   -1    0    0  503  502  0.00000000000E+00  0.00000000000E+00  0.11745247453E+04  0.11745247453E+04  0.00000000000E+00 0.  1.
         -3   -1    0    0    0  501 -0.00000000000E+00 -0.00000000000E+00 -0.21502825676E+02  0.21502825676E+02  0.00000000000E+00 0.  1.
         21    1    1    2  503  501  0.46546529569E+02 -0.11940613032E+03  0.93013529262E+03  0.93892282214E+03  0.00000000000E+00 0.  1.
         -3    1    1    2    0  502 -0.46546529569E+02  0.11940613032E+03  0.22288662701E+03  0.25710474884E+03  0.00000000000E+00 0.  1.
<mgrwt>
<rscale>  2 0.12815773E+03</rscale>
<asrwt>0</asrwt>
<pdfrwt beam="1">  1       21 0.18069606E+00 0.12815773E+03</pdfrwt>
<pdfrwt beam="2">  1       -3 0.33081279E-02 0.12815773E+03</pdfrwt>
<totfact> 0.39008592E+03</totfact>
</mgrwt>
</event>
<event>
 4    1  0.5134057E+003  0.1006194E+03  0.7546771E-02  0.1278999E+00
          2   -1    0    0  503    0 -0.00000000000E+00  0.00000000000E+00  0.29586527188E+04  0.29586527188E+04  0.00000000000E+00 0.  1.
         21   -1    0    0  501  502  0.00000000000E+00 -0.00000000000E+00 -0.75429589060E+02  0.75429589060E+02  0.00000000000E+00 0.  1.
         21    1    1    2  503  502  0.91927173301E+02  0.40910254348E+02 -0.40619418170E+02  0.10850894541E+03  0.00000000000E+00 0.  1.
          2    1    1    2  501    0 -0.91927173301E+02 -0.40910254348E+02  0.29238425479E+04  0.29255733624E+04  0.00000000000E+00 0.  1.
<mgrwt>
<rscale>  2 0.10061935E+03</rscale>
<asrwt>0</asrwt>
<pdfrwt beam="2">  1       21 0.11604554E-01 0.10061935E+03</pdfrwt>
<pdfrwt beam="1">  1        2 0.45517725E+00 0.10061935E+03</pdfrwt>
<totfact> 0.19735304E+03</totfact>
</mgrwt>
</event>
<event>
 4    1  0.5134057E+003  0.1525652E+03  0.7546771E-02  0.1197356E+00
         21   -1    0    0  501  502  0.00000000000E+00  0.00000000000E+00  0.37166559888E+03  0.37166559888E+03  0.00000000000E+00 0.  1.
          1   -1    0    0  503    0 -0.00000000000E+00 -0.00000000000E+00 -0.16173820512E+03  0.16173820512E+03  0.00000000000E+00 0.  1.
         21    1    1    2  503  502 -0.10269043588E+03 -0.11283096812E+03  0.31374041046E+03  0.34886845393E+03  0.00000000000E+00 0.  1.
          1    1    1    2  501    0  0.10269043588E+03  0.11283096812E+03 -0.10381301671E+03  0.18453535007E+03  0.00000000000E+00 0.  1.
<mgrwt>
<rscale>  2 0.15256524E+03</rscale>
<asrwt>0</asrwt>
<pdfrwt beam="1">  1       21 0.57179323E-01 0.15256524E+03</pdfrwt>
<pdfrwt beam="2">  1        1 0.24882801E-01 0.15256524E+03</pdfrwt>
<totfact> 0.60350373E+03</totfact>
</mgrwt>
</event>
<event>
 4    1  0.5134057E+003  0.1124452E+03  0.7546771E-02  0.1256108E+00
         21   -1    0    0  503  502  0.00000000000E+00  0.00000000000E+00  0.13712999673E+02  0.13712999673E+02  0.00000000000E+00 0. -1.
          1   -1    0    0  502    0 -0.00000000000E+00 -0.00000000000E+00 -0.13718112252E+04  0.13718112252E+04  0.00000000000E+00 0. -1.
         21    1    1    2  503  501 -0.11175062258E+03  0.12478594457E+02 -0.28237542589E+03  0.30394045159E+03  0.00000000000E+00 0. -1.
          1    1    1    2  501    0  0.11175062258E+03 -0.12478594457E+02 -0.10757227996E+04  0.10815837733E+04  0.00000000000E+00 0. -1.
<mgrwt>
<rscale>  2 0.11244517E+03</rscale>
<asrwt>0</asrwt>
<pdfrwt beam="1">  1       21 0.21096925E-02 0.11244517E+03</pdfrwt>
<pdfrwt beam="2">  1        1 0.21104785E+00 0.11244517E+03</pdfrwt>
<totfact> 0.11140563E+05</totfact>
</mgrwt>
</event>
<event>
 4    1  0.5134057E+003  0.1049186E+03  0.7546771E-02  0.1270280E+00
          2   -1    0    0  503    0 -0.00000000000E+00  0.00000000000E+00  0.32006392103E+04  0.32006392103E+04  0.00000000000E+00 0. -1.
         21   -1    0    0  501  502  0.00000000000E+00 -0.00000000000E+00 -0.22149155356E+02  0.22149155356E+02  0.00000000000E+00 0.  1.
         21    1    1    2  503  502 -0.86036458508E+02 -0.60046930304E+02  0.10823291004E+03  0.15073907538E+03  0.00000000000E+00 0.  1.
          2    1    1    2  501    0  0.86036458508E+02  0.60046930304E+02  0.30702571449E+04  0.30720492903E+04  0.00000000000E+00 0. -1.
<mgrwt>
<rscale>  2 0.10491857E+03</rscale>
<asrwt>0</asrwt>
<pdfrwt beam="2">  1       21 0.34075649E-02 0.10491857E+03</pdfrwt>
<pdfrwt beam="1">  1        2 0.49240567E+00 0.10491857E+03</pdfrwt>
<totfact> 0.11309324E+04</totfact>
</mgrwt>
</event>
<event>
 4    1  0.5134057E+003  0.1399591E+03  0.7546771E-02  0.1213384E+00
          1   -1    0    0  502    0 -0.00000000000E+00  0.00000000000E+00  0.10590140618E+04  0.10590140618E+04  0.00000000000E+00 0.  1.
         21   -1    0    0  503  502  0.00000000000E+00 -0.00000000000E+00 -0.86277294535E+02  0.86277294535E+02  0.00000000000E+00 0. -1.
         21    1    1    2  503  501 -0.10533282911E+03  0.92160450171E+02 -0.21194135063E+02  0.14155474145E+03  0.00000000000E+00 0. -1.
          1    1    1    2  501    0  0.10533282911E+03 -0.92160450171E+02  0.99393090232E+03  0.10037366149E+04  0.00000000000E+00 0.  1.
<mgrwt>
<rscale>  2 0.13995911E+03</rscale>
<asrwt>0</asrwt>
<pdfrwt beam="2">  1       21 0.13273431E-01 0.13995911E+03</pdfrwt>
<pdfrwt beam="1">  1        1 0.16292523E+00 0.13995911E+03</pdfrwt>
<totfact> 0.81111400E+03</totfact>
</mgrwt>
</event>
<event>
 4    1  0.5134057E+003  0.2418780E+03  0.7546771E-02  0.1118548E+00
         21   -1    0    0  501  502  0.00000000000E+00  0.00000000000E+00  0.61112945331E+02  0.61112945331E+02  0.00000000000E+00 0. -1.
          2   -1    0    0  503    0 -0.00000000000E+00 -0.00000000000E+00 -0.16133017588E+04  0.16133017588E+04  0.00000000000E+00 0.  1.
         21    1    1    2  503  502 -0.23959004227E+03 -0.33189918689E+02 -0.24224420737E+03  0.34232618226E+03  0.00000000000E+00 0. -1.
          2    1    1    2  501    0  0.23959004227E+03  0.33189918689E+02 -0.13099446061E+04  0.13320885218E+04  0.00000000000E+00 0.  1.
<mgrwt>
<rscale>  2 0.24187798E+03</rscale>
<asrwt>0</asrwt>
<pdfrwt beam="1">  1       21 0.94019909E-02 0.24187798E+03</pdfrwt>
<pdfrwt beam="2">  1        2 0.24820029E+00 0.24187798E+03</pdfrwt>
<totfact> 0.13623512E+04</totfact>
</mgrwt>
</event>
<event>
 4    1  0.5134057E+003  0.1375895E+03  0.7546771E-02  0.1216610E+00
          2   -1    0    0  503    0 -0.00000000000E+00  0.00000000000E+00  0.79291212886E+03  0.79291212886E+03  0.00000000000E+00 0.  1.
         21   -1    0    0  501  502  0.00000000000E+00 -0.00000000000E+00 -0.30592416223E+02  0.30592416223E+02  0.00000000000E+00 0.  1.
         21    1    1    2  503  502 -0.37107544496E+02 -0.13249117460E+03  0.18821820143E+03  0.23314581823E+03  0.00000000000E+00 0.  1.
          2    1    1    2  501    0  0.37107544496E+02  0.13249117460E+03  0.57410151121E+03  0.59035872686E+03  0.00000000000E+00 0.  1.
<mgrwt>
<rscale>  2 0.13758954E+03</rscale>
<asrwt>0</asrwt>
<pdfrwt beam="2">  1       21 0.47065262E-02 0.13758954E+03</pdfrwt>
<pdfrwt beam="1">  1        2 0.12198647E+00 0.13758954E+03</pdfrwt>
<totfact> 0.13452879E+05</totfact>
</mgrwt>
</event>
<event>
 4    1  0.5134057E+003  0.1265496E+03  0.7546771E-02  0.1232667E+00
          2   -1    0    0  502    0 -0.00000000000E+00  0.00000000000E+00  0.30045935488E+03  0.30045935488E+03  0.00000000000E+00 0.  1.
         21   -1    0    0  503  502  0.00000000000E+00 -0.00000000000E+00 -0.60733949218E+02  0.60733949218E+02  0.00000000000E+00 0.  1.
         21    1    1    2  503  501 -0.57271899256E+02 -0.11284821690E+03  0.56683536353E+02  0.13866439267E+03  0.00000000000E+00 0.  1.
          2    1    1    2  501    0  0.57271899256E+02  0.11284821690E+03  0.18304186931E+03  0.22252891143E+03  0.00000000000E+00 0.  1.
<mgrwt>
<rscale>  2 0.12654956E+03</rscale>
<asrwt>0</asrwt>
<pdfrwt beam="2">  1       21 0.93436847E-02 0.12654956E+03</pdfrwt>
<pdfrwt beam="1">  1        2 0.46224515E-01 0.12654956E+03</pdfrwt>
<totfact> 0.12231342E+05</totfact>
</mgrwt>
</event>
<event>
 4    1  0.5134057E+003  0.1152071E+03  0.7546771E-02  0.1251220E+00
          2   -1    0    0  503    0 -0.00000000000E+00  0.00000000000E+00  0.15357448315E+04  0.15357448315E+04  0.00000000000E+00 0. -1.
         21   -1    0    0  501  502  0.00000000000E+00 -0.00000000000E+00 -0.18553023627E+02  0.18553023627E+02  0.00000000000E+00 0.  1.
         21    1    1    2  503  502 -0.75763482906E+02  0.86790352029E+02  0.19059992240E+03  0.22271282174E+03  0.00000000000E+00 0.  1.
          2    1    1    2  501    0  0.75763482906E+02 -0.86790352029E+02  0.13265918855E+04  0.13315850334E+04  0.00000000000E+00 0. -1.
<mgrwt>
<rscale>  2 0.11520708E+03</rscale>
<asrwt>0</asrwt>
<pdfrwt beam="2">  1       21 0.28543125E-02 0.11520708E+03</pdfrwt>
<pdfrwt beam="1">  1        2 0.23626834E+00 0.11520708E+03</pdfrwt>
<totfact> 0.11577342E+05</totfact>
</mgrwt>
</event>
<event>
 4    1  0.5134057E+003  0.1021347E+03  0.7546771E-02  0.1275870E+00
         21   -1    0    0  501  502  0.00000000000E+00  0.00000000000E+00  0.13838921122E+04  0.13838921122E+04  0.00000000000E+00 0.  1.
          1   -1    0    0  503    0 -0.00000000000E+00 -0.00000000000E+00 -0.29049481599E+02  0.29049481599E+02  0.00000000000E+00 0. -1.
         21    1    1    2  503  502  0.63012342786E+01 -0.10194017287E+03  0.12853633655E+04  0.12894147843E+04  0.00000000000E+00 0.  1.
          1    1    1    2  501    0 -0.63012342786E+01  0.10194017287E+03  0.69479265035E+02  0.12352680951E+03  0.00000000000E+00 0. -1.
<mgrwt>
<rscale>  2 0.10213474E+03</rscale>
<asrwt>0</asrwt>
<pdfrwt beam="1">  1       21 0.21290643E+00 0.10213474E+03</pdfrwt>
<pdfrwt beam="2">  1        1 0.44691521E-02 0.10213474E+03</pdfrwt>
<totfact> 0.24184025E+03</totfact>
</mgrwt>
</event>
<event>
 4    1  0.5134057E+003  0.1008038E+03  0.7546771E-02  0.1278615E+00
         21   -1    0    0  501  502  0.00000000000E+00  0.00000000000E+00  0.10408009209E+03  0.10408009209E+03  0.00000000000E+00 0.  1.
          1   -1    0    0  503    0 -0.00000000000E+00 -0.00000000000E+00 -0.19773687843E+03  0.19773687843E+03  0.00000000000E+00 0.  1.
         21    1    1    2  503  502  0.99005039937E+02 -0.18958300605E+02  0.60545872025E+02  0.11758919046E+03  0.00000000000E+00 0.  1.
          1    1    1    2  501    0 -0.99005039937E+02  0.18958300605E+02 -0.15420265837E+03  0.18422778005E+03  0.00000000000E+00 0.  1.
<mgrwt>
<rscale>  2 0.10080384E+03</rscale>
<asrwt>0</asrwt>
<pdfrwt beam="1">  1       21 0.16012322E-01 0.10080384E+03</pdfrwt>
<pdfrwt beam="2">  1        1 0.30421058E-01 0.10080384E+03</pdfrwt>
<totfact> 0.55510839E+04</totfact>
</mgrwt>
</event>
<event>
 4    1  0.5134057E+003  0.1038197E+03  0.7546771E-02  0.1272463E+00
         21   -1    0    0  503  502  0.00000000000E+00  0.00000000000E+00  0.47513783416E+03  0.47513783416E+03  0.00000000000E+00 0.  1.
          2   -1    0    0  502    0 -0.00000000000E+00 -0.00000000000E+00 -0.10214757218E+03  0.10214757218E+03  0.00000000000E+00 0.  1.
         21    1    1    2  503  501 -0.58060804197E+02 -0.86066715132E+02  0.44107711618E+03  0.45313084077E+03  0.00000000000E+00 0.  1.
          2    1    1    2  501    0  0.58060804197E+02  0.86066715132E+02 -0.68086854199E+02  0.12415456557E+03  0.00000000000E+00 0.  1.
<mgrwt>
<rscale>  2 0.10381973E+03</rscale>
<asrwt>0</asrwt>
<pdfrwt beam="1">  1       21 0.73098127E-01 0.10381973E+03</pdfrwt>
<pdfrwt beam="2">  1        2 0.15715011E-01 0.10381973E+03</pdfrwt>
<totfact> 0.77323576E+03</totfact>
</mgrwt>
</event>
<event>
 4    1  0.5134057E+003  0.1002709E+03  0.7546771E-02  0.1279727E+00
         21   -1    0    0  503  502  0.00000000000E+00  0.00000000000E+00  0.30434368159E+03  0.30434368159E+03  0.00000000000E+00 0.  1.
          4   -1    0    0  502    0 -0.00000000000E+00 -0.00000000000E+00 -0.45582132912E+02  0.45582132912E+02  0.00000000000E+00 0.  1.
         21    1    1    2  503  501  0.56282210777E+02  0.82985371952E+02  0.22117297996E+03  0.24284098968E+03  0.00000000000E+00 0.  1.
          4    1    1    2  501    0 -0.56282210777E+02 -0.82985371952E+02  0.37588568724E+02  0.10708482482E+03  0.00000000000E+00 0.  1.
<mgrwt>
<rscale>  2 0.10027093E+03</rscale>
<asrwt>0</asrwt>
<pdfrwt beam="1">  1       21 0.46822104E-01 0.10027093E+03</pdfrwt>
<pdfrwt beam="2">  1        4 0.70126360E-02 0.10027093E+03</pdfrwt>
<totfact> 0.23812630E+04</totfact>
</mgrwt>
</event>
<event>
 4    1  0.5134057E+003  0.1119354E+03  0.7546771E-02  0.1257027E+00
          2   -1    0    0  503    0 -0.00000000000E+00  0.00000000000E+00  0.31460293433E+03  0.31460293433E+03  0.00000000000E+00 0.  1.
         21   -1    0    0  501  502  0.00000000000E+00 -0.00000000000E+00 -0.16810392065E+03  0.16810392065E+03  0.00000000000E+00 0. -1.
         21    1    1    2  503  502 -0.10697925633E+03 -0.32938783553E+02 -0.13758403630E+03  0.17736654642E+03  0.00000000000E+00 0. -1.
          2    1    1    2  501    0  0.10697925633E+03  0.32938783553E+02  0.28408304998E+03  0.30534030856E+03  0.00000000000E+00 0.  1.
<mgrwt>
<rscale>  2 0.11193536E+03</rscale>
<asrwt>0</asrwt>
<pdfrwt beam="2">  1       21 0.25862142E-01 0.11193536E+03</pdfrwt>
<pdfrwt beam="1">  1        2 0.48400451E-01 0.11193536E+03</pdfrwt>
<totfact> 0.18468085E+04</totfact>
</mgrwt>
</event>
<event>
 4    1  0.5134057E+003  0.1997320E+03  0.7546771E-02  0.1149965E+00
          2   -1    0    0  502    0 -0.00000000000E+00  0.00000000000E+00  0.27476630025E+04  0.27476630025E+04  0.00000000000E+00 0. -1.
         21   -1    0    0  503  502  0.00000000000E+00 -0.00000000000E+00 -0.22314225521E+03  0.22314225521E+03  0.00000000000E+00 0. -1.
         21    1    1    2  503  501 -0.16704015214E+03 -0.10950097739E+03 -0.17400538124E+03  0.26489762018E+03  0.00000000000E+00 0. -1.
          2    1    1    2  501    0  0.16704015214E+03  0.10950097739E+03  0.26985261286E+04  0.27059076376E+04  0.00000000000E+00 0. -1.
<mgrwt>
<rscale>  2 0.19973201E+03</rscale>
<asrwt>0</asrwt>
<pdfrwt beam="2">  1       21 0.34329580E-01 0.19973201E+03</pdfrwt>
<pdfrwt beam="1">  1        2 0.42271736E+00 0.19973201E+03</pdfrwt>
<totfact> 0.31128186E+02</totfact>
</mgrwt>
</event>
<event>
 4    1  0.5134057E+003  0.1107527E+03  0.7546771E-02  0.1259182E+00
         21   -1    0    0  503  502  0.00000000000E+00  0.00000000000E+00  0.76645161359E+03  0.76645161359E+03  0.00000000000E+00 0.  1.
          2   -1    0    0  502    0 -0.00000000000E+00 -0.00000000000E+00 -0.17243417419E+03  0.17243417419E+03  0.00000000000E+00 0.  1.
         21    1    1    2  503  501 -0.10030897134E+03 -0.46949749618E+02  0.74413643001E+03  0.75233316768E+03  0.00000000000E+00 0.  1.
          2    1    1    2  501    0  0.10030897134E+03  0.46949749618E+02 -0.15011899062E+03  0.18655262010E+03  0.00000000000E+00 0.  1.
<mgrwt>
<rscale>  2 0.11075274E+03</rscale>
<asrwt>0</asrwt>
<pdfrwt beam="1">  1       21 0.11791563E+00 0.11075274E+03</pdfrwt>
<pdfrwt beam="2">  1        2 0.26528335E-01 0.11075274E+03</pdfrwt>
<totfact> 0.14319170E+03</totfact>
</mgrwt>
</event>
<event>
 4    1  0.5134057E+003  0.1724130E+03  0.7546771E-02  0.1175355E+00
         21   -1    0    0  501  502  0.00000000000E+00  0.00000000000E+00  0.19691897240E+04  0.19691897240E+04  0.00000000000E+00 0.  1.
          1   -1    0    0  503    0 -0.00000000000E+00 -0.00000000000E+00 -0.16096258445E+02  0.16096258445E+02  0.00000000000E+00 0.  1.
         21    1    1    2  503  502  0.11631109712E+03  0.12727127893E+03  0.12240364076E+04  0.12361194833E+04  0.00000000000E+00 0.  1.
          1    1    1    2  501    0 -0.11631109712E+03 -0.12727127893E+03  0.72905705796E+03  0.74916649920E+03  0.00000000000E+00 0.  1.
<mgrwt>
<rscale>  2 0.17241302E+03</rscale>
<asrwt>0</asrwt>
<pdfrwt beam="1">  1       21 0.30295207E+00 0.17241302E+03</pdfrwt>
<pdfrwt beam="2">  1        1 0.24763490E-02 0.17241302E+03</pdfrwt>
<totfact> 0.15561642E+03</totfact>
</mgrwt>
</event>
<event>
 4    1  0.5134057E+003  0.1258400E+03  0.7546771E-02  0.1233762E+00
          2   -1    0    0  503    0 -0.00000000000E+00  0.00000000000E+00  0.86311175854E+03  0.86311175854E+03  0.00000000000E+00 0.  1.
         21   -1    0    0  501  502  0.00000000000E+00 -0.00000000000E+00 -0.28266695402E+02  0.28266695402E+02  0.00000000000E+00 0.  1.
         21    1    1    2  503  502 -0.29193229267E+02  0.12240699699E+03  0.15340147914E+03  0.19841303221E+03  0.00000000000E+00 0.  1.
          2    1    1    2  501    0  0.29193229267E+02 -0.12240699699E+03  0.68144358399E+03  0.69296542173E+03  0.00000000000E+00 0.  1.
<mgrwt>
<rscale>  2 0.12584005E+03</rscale>
<asrwt>0</asrwt>
<pdfrwt beam="2">  1       21 0.43487230E-02 0.12584005E+03</pdfrwt>
<pdfrwt beam="1">  1        2 0.13278640E+00 0.12584005E+03</pdfrwt>
<totfact> 0.13770839E+05</totfact>
</mgrwt>
</event>
<event>
 4    1  0.5134057E+003  0.1063491E+03  0.7546771E-02  0.1267484E+00
          1   -1    0    0  502    0 -0.00000000000E+00  0.00000000000E+00  0.46038754473E+03  0.46038754473E+03  0.00000000000E+00 0. -1.
         21   -1    0    0  503  502  0.00000000000E+00 -0.00000000000E+00 -0.27073675782E+02  0.27073675782E+02  0.00000000000E+00 0. -1.
         21    1    1    2  503  501  0.97813659755E+02  0.41744616061E+02  0.14248729816E+03  0.17779976137E+03  0.00000000000E+00 0. -1.
          1    1    1    2  501    0 -0.97813659755E+02 -0.41744616061E+02  0.29082657078E+03  0.30966145914E+03  0.00000000000E+00 0. -1.
<mgrwt>
<rscale>  2 0.10634907E+03</rscale>
<asrwt>0</asrwt>
<pdfrwt beam="2">  1       21 0.41651812E-02 0.10634907E+03</pdfrwt>
<pdfrwt beam="1">  1        1 0.70828847E-01 0.10634907E+03</pdfrwt>
<totfact> 0.19864817E+05</totfact>
</mgrwt>
</event>
<event>
 4    1  0.5134057E+003  0.2407002E+03  0.7546771E-02  0.1119327E+00
          1   -1    0    0  503    0 -0.00000000000E+00  0.00000000000E+00  0.66560973619E+03  0.66560973619E+03  0.00000000000E+00 0.  1.
         21   -1    0    0  501  502  0.00000000000E+00 -0.00000000000E+00 -0.20569097050E+03  0.20569097050E+03  0.00000000000E+00 0. -1.
         21    1    1    2  503  502  0.14653860351E+03 -0.19095290042E+03 -0.10091327285E+03  0.26099820140E+03  0.00000000000E+00 0. -1.
          1    1    1    2  501    0 -0.14653860351E+03  0.19095290042E+03  0.56083203854E+03  0.61030250528E+03  0.00000000000E+00 0.  1.
<mgrwt>
<rscale>  2 0.24070017E+03</rscale>
<asrwt>0</asrwt>
<pdfrwt beam="2">  1       21 0.31644765E-01 0.24070017E+03</pdfrwt>
<pdfrwt beam="1">  1        1 0.10240150E+00 0.24070017E+03</pdfrwt>
<totfact> 0.31841540E+03</totfact>
</mgrwt>
</event>
<event>
 4    1  0.5134057E+003  0.1930620E+03  0.7546771E-02  0.1155728E+00
         -3   -1    0    0    0  501 -0.00000000000E+00  0.00000000000E+00  0.14257352948E+03  0.14257352948E+03  0.00000000000E+00 0.  1.
         21   -1    0    0  503  502  0.00000000000E+00 -0.00000000000E+00 -0.89850024535E+03  0.89850024535E+03  0.00000000000E+00 0. -1.
         21    1    1    2  503  501  0.19304682576E+03 -0.24231810395E+01 -0.81627821224E+03  0.83879858639E+03  0.00000000000E+00 0. -1.
         -3    1    1    2    0  502 -0.19304682576E+03  0.24231810395E+01  0.60351496379E+02  0.20227518844E+03  0.00000000000E+00 0.  1.
<mgrwt>
<rscale>  2 0.19306203E+03</rscale>
<asrwt>0</asrwt>
<pdfrwt beam="2">  1       21 0.13823081E+00 0.19306203E+03</pdfrwt>
<pdfrwt beam="1">  1       -3 0.21934389E-01 0.19306203E+03</pdfrwt>
<totfact> 0.34683078E+02</totfact>
</mgrwt>
</event>
<event>
 4    1  0.5134057E+003  0.1175838E+03  0.7546771E-02  0.1247137E+00
         21   -1    0    0  501  502  0.00000000000E+00  0.00000000000E+00  0.62868465696E+02  0.62868465696E+02  0.00000000000E+00 0.  1.
          1   -1    0    0  503    0 -0.00000000000E+00 -0.00000000000E+00 -0.31406148022E+03  0.31406148022E+03  0.00000000000E+00 0.  1.
         21    1    1    2  503  502  0.96704560079E+02 -0.66889232502E+02 -0.22411361429E+02  0.11970050328E+03  0.00000000000E+00 0.  1.
          1    1    1    2  501    0 -0.96704560079E+02  0.66889232502E+02 -0.22878165310E+03  0.25722944264E+03  0.00000000000E+00 0.  1.
<mgrwt>
<rscale>  2 0.11758376E+03</rscale>
<asrwt>0</asrwt>
<pdfrwt beam="1">  1       21 0.96720717E-02 0.11758376E+03</pdfrwt>
<pdfrwt beam="2">  1        1 0.48317150E-01 0.11758376E+03</pdfrwt>
<totfact> 0.77033495E+04</totfact>
</mgrwt>
</event>
<event>
 4    1  0.5134057E+003  0.1390260E+03  0.7546771E-02  0.1214646E+00
         21   -1    0    0  501  502  0.00000000000E+00  0.00000000000E+00  0.31765253700E+03  0.31765253700E+03  0.00000000000E+00 0. -1.
          2   -1    0    0  503    0 -0.00000000000E+00 -0.00000000000E+00 -0.65974231447E+02  0.65974231447E+02  0.00000000000E+00 0.  1.
         21    1    1    2  503  502  0.62516482331E+02 -0.12417695937E+03  0.17931159437E+03  0.22689397453E+03  0.00000000000E+00 0. -1.
          2    1    1    2  501    0 -0.62516482331E+02  0.12417695937E+03  0.72366711185E+02  0.15673279392E+03  0.00000000000E+00 0.  1.
<mgrwt>
<rscale>  2 0.13902600E+03</rscale>
<asrwt>0</asrwt>
<pdfrwt beam="1">  1       21 0.48869620E-01 0.13902600E+03</pdfrwt>
<pdfrwt beam="2">  1        2 0.10149882E-01 0.13902600E+03</pdfrwt>
<totfact> 0.30428664E+04</totfact>
</mgrwt>
</event>
<event>
 4    1  0.5134057E+003  0.1175132E+03  0.7546771E-02  0.1247257E+00
         21   -1    0    0  503  502  0.00000000000E+00  0.00000000000E+00  0.61270451483E+03  0.61270451483E+03  0.00000000000E+00 0.  1.
         -2   -1    0    0    0  501 -0.00000000000E+00 -0.00000000000E+00 -0.72078228854E+02  0.72078228854E+02  0.00000000000E+00 0.  1.
         21    1    1    2  503  501  0.11747581850E+03 -0.29638071341E+01  0.55416922596E+03  0.56649173258E+03  0.00000000000E+00 0.  1.
         -2    1    1    2    0  502 -0.11747581850E+03  0.29638071341E+01 -0.13542939981E+02  0.11829101110E+03  0.00000000000E+00 0.  1.
<mgrwt>
<rscale>  2 0.11751320E+03</rscale>
<asrwt>0</asrwt>
<pdfrwt beam="1">  1       21 0.94262230E-01 0.11751320E+03</pdfrwt>
<pdfrwt beam="2">  1       -2 0.11088959E-01 0.11751320E+03</pdfrwt>
<totfact> 0.42498316E+03</totfact>
</mgrwt>
</event>
<event>
 4    1  0.5134057E+003  0.1456862E+03  0.7546771E-02  0.1205876E+00
         21   -1    0    0  501  502  0.00000000000E+00  0.00000000000E+00  0.59732986113E+03  0.59732986113E+03  0.00000000000E+00 0.  1.
          1   -1    0    0  503    0 -0.00000000000E+00 -0.00000000000E+00 -0.29439644808E+03  0.29439644808E+03  0.00000000000E+00 0. -1.
         21    1    1    2  503  502 -0.36360285796E+02  0.14107584700E+03  0.56955817848E+03  0.58789538496E+03  0.00000000000E+00 0.  1.
          1    1    1    2  501    0  0.36360285796E+02 -0.14107584700E+03 -0.26662476543E+03  0.30383092425E+03  0.00000000000E+00 0. -1.
<mgrwt>
<rscale>  2 0.14568619E+03</rscale>
<asrwt>0</asrwt>
<pdfrwt beam="1">  1       21 0.91896901E-01 0.14568619E+03</pdfrwt>
<pdfrwt beam="2">  1        1 0.45291761E-01 0.14568619E+03</pdfrwt>
<totfact> 0.10082540E+03</totfact>
</mgrwt>
</event>
<event>
 4    1  0.5134057E+003  0.1010922E+03  0.7546771E-02  0.1278016E+00
         21   -1    0    0  503  502  0.00000000000E+00  0.00000000000E+00  0.11855082017E+03  0.11855082017E+03  0.00000000000E+00 0. -1.
          1   -1    0    0  502    0 -0.00000000000E+00 -0.00000000000E+00 -0.30677725108E+03  0.30677725108E+03  0.00000000000E+00 0.  1.
         21    1    1    2  503  501 -0.28648148825E+02 -0.96947984425E+02  0.86212759722E+02  0.13286183822E+03  0.00000000000E+00 0. -1.
          1    1    1    2  501    0  0.28648148825E+02  0.96947984425E+02 -0.27443919063E+03  0.29246623304E+03  0.00000000000E+00 0.  1.
<mgrwt>
<rscale>  2 0.10109218E+03</rscale>
<asrwt>0</asrwt>
<pdfrwt beam="1">  1       21 0.18238588E-01 0.10109218E+03</pdfrwt>
<pdfrwt beam="2">  1        1 0.47196500E-01 0.10109218E+03</pdfrwt>
<totfact> 0.25597586E+04</totfact>
</mgrwt>
</event>
<event>
 4    1  0.5134057E+003  0.1150980E+03  0.7546771E-02  0.1251410E+00
          2   -1    0    0  503    0 -0.00000000000E+00  0.00000000000E+00  0.46064550515E+03  0.46064550515E+03  0.00000000000E+00 0. -1.
         21   -1    0    0  501  502  0.00000000000E+00 -0.00000000000E+00 -0.10278829761E+03  0.10278829761E+03  0.00000000000E+00 0.  1.
         21    1    1    2  503  502  0.10195765464E+03  0.53405770343E+02 -0.60151770901E+02  0.12986829940E+03  0.00000000000E+00 0.  1.
          2    1    1    2  501    0 -0.10195765464E+03 -0.53405770343E+02  0.41800897845E+03  0.43356550336E+03  0.00000000000E+00 0. -1.
<mgrwt>
<rscale>  2 0.11509796E+03</rscale>
<asrwt>0</asrwt>
<pdfrwt beam="2">  1       21 0.15813585E-01 0.11509796E+03</pdfrwt>
<pdfrwt beam="1">  1        2 0.70868538E-01 0.11509796E+03</pdfrwt>
<totfact> 0.30535130E+04</totfact>
</mgrwt>
</event>
<event>
 4    1  0.5134057E+003  0.1031427E+03  0.7546771E-02  0.1273823E+00
          2   -1    0    0  503    0 -0.00000000000E+00  0.00000000000E+00  0.48287389639E+03  0.48287389639E+03  0.00000000000E+00 0. -1.
         21   -1    0    0  501  502  0.00000000000E+00 -0.00000000000E+00 -0.22170460161E+02  0.22170460161E+02  0.00000000000E+00 0. -1.
         21    1    1    2  503  502  0.99905098462E+02  0.25639465715E+02  0.21035589253E+03  0.23428190802E+03  0.00000000000E+00 0. -1.
          2    1    1    2  501    0 -0.99905098462E+02 -0.25639465715E+02  0.25034754370E+03  0.27076244853E+03  0.00000000000E+00 0. -1.
<mgrwt>
<rscale>  2 0.10314267E+03</rscale>
<asrwt>0</asrwt>
<pdfrwt beam="2">  1       21 0.34108404E-02 0.10314267E+03</pdfrwt>
<pdfrwt beam="1">  1        2 0.74288284E-01 0.10314267E+03</pdfrwt>
<totfact> 0.40003691E+05</totfact>
</mgrwt>
</event>
<event>
 4    1  0.5134057E+003  0.1187622E+03  0.7546771E-02  0.1245153E+00
         21   -1    0    0  501  502  0.00000000000E+00  0.00000000000E+00  0.47271777578E+02  0.47271777578E+02  0.00000000000E+00 0. -1.
          2   -1    0    0  503    0 -0.00000000000E+00 -0.00000000000E+00 -0.52311917629E+03  0.52311917629E+03  0.00000000000E+00 0.  1.
         21    1    1    2  503  502  0.26348593187E+02 -0.11580247368E+03 -0.50988211380E+02  0.12924495725E+03  0.00000000000E+00 0. -1.
          2    1    1    2  501    0 -0.26348593187E+02  0.11580247368E+03 -0.42485918734E+03  0.44114599663E+03  0.00000000000E+00 0.  1.
<mgrwt>
<rscale>  2 0.11876220E+03</rscale>
<asrwt>0</asrwt>
<pdfrwt beam="1">  1       21 0.72725810E-02 0.11876220E+03</pdfrwt>
<pdfrwt beam="2">  1        2 0.80479875E-01 0.11876220E+03</pdfrwt>
<totfact> 0.10393566E+05</totfact>
</mgrwt>
</event>
<event>
 4    1  0.5134057E+003  0.1911621E+03  0.7546771E-02  0.1157417E+00
          2   -1    0    0  503    0 -0.00000000000E+00  0.00000000000E+00  0.12674767059E+04  0.12674767059E+04  0.00000000000E+00 0. -1.
         21   -1    0    0  501  502  0.00000000000E+00 -0.00000000000E+00 -0.32361718505E+02  0.32361718505E+02  0.00000000000E+00 0. -1.
         21    1    1    2  503  502  0.19080974510E+03 -0.11601874817E+02  0.40289381535E+03  0.44594437856E+03  0.00000000000E+00 0. -1.
          2    1    1    2  501    0 -0.19080974510E+03  0.11601874817E+02  0.83222117203E+03  0.85389404582E+03  0.00000000000E+00 0. -1.
<mgrwt>
<rscale>  2 0.19116214E+03</rscale>
<asrwt>0</asrwt>
<pdfrwt beam="2">  1       21 0.49787269E-02 0.19116214E+03</pdfrwt>
<pdfrwt beam="1">  1        2 0.19499638E+00 0.19116214E+03</pdfrwt>
<totfact> 0.63468632E+04</totfact>
</mgrwt>
</event>
<event>
 4    1  0.5134057E+003  0.1113388E+03  0.7546771E-02  0.1258110E+00
          1   -1    0    0  502    0 -0.00000000000E+00  0.00000000000E+00  0.96337050603E+03  0.96337050603E+03  0.00000000000E+00 0. -1.
         21   -1    0    0  503  502  0.00000000000E+00 -0.00000000000E+00 -0.34575810680E+03  0.34575810680E+03  0.00000000000E+00 0.  1.
         21    1    1    2  503  501  0.91897234959E+02  0.62858838710E+02 -0.33346255095E+03  0.35155882621E+03  0.00000000000E+00 0.  1.
          1    1    1    2  501    0 -0.91897234959E+02 -0.62858838710E+02  0.95107495018E+03  0.95756978663E+03  0.00000000000E+00 0. -1.
<mgrwt>
<rscale>  2 0.11133883E+03</rscale>
<asrwt>0</asrwt>
<pdfrwt beam="2">  1       21 0.53193555E-01 0.11133883E+03</pdfrwt>
<pdfrwt beam="1">  1        1 0.14821085E+00 0.11133883E+03</pdfrwt>
<totfact> 0.68327583E+02</totfact>
</mgrwt>
</event>
<event>
 4    1  0.5134057E+003  0.1002267E+03  0.7546771E-02  0.1279820E+00
         21   -1    0    0  501  502  0.00000000000E+00  0.00000000000E+00  0.16976562438E+02  0.16976562438E+02  0.00000000000E+00 0. -1.
         -2   -1    0    0    0  501 -0.00000000000E+00 -0.00000000000E+00 -0.90411778438E+03  0.90411778438E+03  0.00000000000E+00 0.  1.
         21    1    1    2  503  502 -0.81733162066E+02  0.58009378252E+02 -0.17285424341E+03  0.19980987767E+03  0.00000000000E+00 0. -1.
         -2    1    1    2    0  503  0.81733162066E+02 -0.58009378252E+02 -0.71428697853E+03  0.72128446916E+03  0.00000000000E+00 0.  1.
<mgrwt>
<rscale>  2 0.10022673E+03</rscale>
<asrwt>0</asrwt>
<pdfrwt beam="1">  1       21 0.26117790E-02 0.10022673E+03</pdfrwt>
<pdfrwt beam="2">  1       -2 0.13909503E+00 0.10022673E+03</pdfrwt>
<totfact> 0.24677725E+04</totfact>
</mgrwt>
</event>
<event>
 4    1  0.5134057E+003  0.2744330E+03  0.7546771E-02  0.1098769E+00
         21   -1    0    0  501  502  0.00000000000E+00  0.00000000000E+00  0.68671811178E+02  0.68671811178E+02  0.00000000000E+00 0. -1.
          1   -1    0    0  503    0 -0.00000000000E+00 -0.00000000000E+00 -0.11487679091E+04  0.11487679091E+04  0.00000000000E+00 0. -1.
         21    1    1    2  503  502  0.15510273969E+02 -0.27399431771E+03 -0.41047316469E+03  0.49376277063E+03  0.00000000000E+00 0. -1.
          1    1    1    2  501    0 -0.15510273969E+02  0.27399431771E+03 -0.66962293324E+03  0.72367694965E+03  0.00000000000E+00 0. -1.
<mgrwt>
<rscale>  2 0.27443297E+03</rscale>
<asrwt>0</asrwt>
<pdfrwt beam="1">  1       21 0.10564894E-01 0.27443297E+03</pdfrwt>
<pdfrwt beam="2">  1        1 0.17673352E+00 0.27443297E+03</pdfrwt>
<totfact> 0.10110073E+04</totfact>
</mgrwt>
</event>
<event>
 4    1  0.5134057E+003  0.1043853E+03  0.7546771E-02  0.1271336E+00
         21   -1    0    0  501  502  0.00000000000E+00  0.00000000000E+00  0.11572496996E+03  0.11572496996E+03  0.00000000000E+00 0.  1.
          1   -1    0    0  503    0 -0.00000000000E+00 -0.00000000000E+00 -0.16527211215E+04  0.16527211215E+04  0.00000000000E+00 0. -1.
         21    1    1    2  503  502 -0.42853490648E+02 -0.95183290524E+02  0.90168229529E+02  0.13793690613E+03  0.00000000000E+00 0.  1.
          1    1    1    2  501    0  0.42853490648E+02  0.95183290524E+02 -0.16271643810E+04  0.16305091853E+04  0.00000000000E+00 0. -1.
<mgrwt>
<rscale>  2 0.10438525E+03</rscale>
<asrwt>0</asrwt>
<pdfrwt beam="1">  1       21 0.17803841E-01 0.10438525E+03</pdfrwt>
<pdfrwt beam="2">  1        1 0.25426480E+00 0.10438525E+03</pdfrwt>
<totfact> 0.19706231E+03</totfact>
</mgrwt>
</event>
<event>
 4    1  0.5134057E+003  0.1194365E+03  0.7546771E-02  0.1244030E+00
          1   -1    0    0  503    0 -0.00000000000E+00  0.00000000000E+00  0.75119852838E+03  0.75119852838E+03  0.00000000000E+00 0. -1.
         21   -1    0    0  501  502  0.00000000000E+00 -0.00000000000E+00 -0.43165808495E+02  0.43165808495E+02  0.00000000000E+00 0. -1.
         21    1    1    2  503  502  0.74237836045E+02  0.93561878177E+02  0.56772807623E+02  0.13224308312E+03  0.00000000000E+00 0. -1.
          1    1    1    2  501    0 -0.74237836045E+02 -0.93561878177E+02  0.65125991226E+03  0.66212125375E+03  0.00000000000E+00 0. -1.
<mgrwt>
<rscale>  2 0.11943652E+03</rscale>
<asrwt>0</asrwt>
<pdfrwt beam="2">  1       21 0.66408942E-02 0.11943652E+03</pdfrwt>
<pdfrwt beam="1">  1        1 0.11556899E+00 0.11943652E+03</pdfrwt>
<totfact> 0.46985393E+04</totfact>
</mgrwt>
</event>
<event>
 4    1  0.5134057E+003  0.1032697E+03  0.7546771E-02  0.1273567E+00
         21   -1    0    0  501  502  0.00000000000E+00  0.00000000000E+00  0.30466841761E+02  0.30466841761E+02  0.00000000000E+00 0.  1.
          2   -1    0    0  503    0 -0.00000000000E+00 -0.00000000000E+00 -0.53440213357E+03  0.53440213357E+03  0.00000000000E+00 0. -1.
         21    1    1    2  503  502 -0.58680195707E+02  0.84977988493E+02 -0.86078073510E+02  0.13443979558E+03  0.00000000000E+00 0.  1.
          2    1    1    2  501    0  0.58680195707E+02 -0.84977988493E+02 -0.41785721829E+03  0.43042917975E+03  0.00000000000E+00 0. -1.
<mgrwt>
<rscale>  2 0.10326967E+03</rscale>
<asrwt>0</asrwt>
<pdfrwt beam="1">  1       21 0.46872063E-02 0.10326967E+03</pdfrwt>
<pdfrwt beam="2">  1        2 0.82215715E-01 0.10326967E+03</pdfrwt>
<totfact> 0.21187430E+05</totfact>
</mgrwt>
</event>
<event>
 4    1  0.5134057E+003  0.1355252E+03  0.7546771E-02  0.1219480E+00
          2   -1    0    0  503    0 -0.00000000000E+00  0.00000000000E+00  0.15706318959E+04  0.15706318959E+04  0.00000000000E+00 0. -1.
         21   -1    0    0  501  502  0.00000000000E+00 -0.00000000000E+00 -0.23473146049E+02  0.23473146049E+02  0.00000000000E+00 0. -1.
         21    1    1    2  503  502  0.25002887829E+02  0.13319890093E+03  0.20895872440E+03  0.24905991270E+03  0.00000000000E+00 0. -1.
          2    1    1    2  501    0 -0.25002887829E+02 -0.13319890093E+03  0.13382000255E+04  0.13450451293E+04  0.00000000000E+00 0. -1.
<mgrwt>
<rscale>  2 0.13552524E+03</rscale>
<asrwt>0</asrwt>
<pdfrwt beam="2">  1       21 0.36112545E-02 0.13552524E+03</pdfrwt>
<pdfrwt beam="1">  1        2 0.24163559E+00 0.13552524E+03</pdfrwt>
<totfact> 0.75395083E+04</totfact>
</mgrwt>
</event>
<event>
 4    1  0.5134057E+003  0.4969972E+03  0.7546771E-02  0.1014566E+00
         21   -1    0    0  501  502  0.00000000000E+00  0.00000000000E+00  0.41548915922E+03  0.41548915922E+03  0.00000000000E+00 0.  1.
          2   -1    0    0  503    0 -0.00000000000E+00 -0.00000000000E+00 -0.70256257689E+03  0.70256257689E+03  0.00000000000E+00 0.  1.
         21    1    1    2  503  502 -0.26559223126E+03  0.42007971246E+03  0.75712102884E+02  0.50273106195E+03  0.00000000000E+00 0.  1.
          2    1    1    2  501    0  0.26559223126E+03 -0.42007971246E+03 -0.36278552056E+03  0.61532067416E+03  0.00000000000E+00 0.  1.
<mgrwt>
<rscale>  2 0.49699718E+03</rscale>
<asrwt>0</asrwt>
<pdfrwt beam="1">  1       21 0.63921410E-01 0.49699718E+03</pdfrwt>
<pdfrwt beam="2">  1        2 0.10808655E+00 0.49699718E+03</pdfrwt>
<totfact> 0.10761035E+03</totfact>
</mgrwt>
</event>
<event>
 4    1  0.5134057E+003  0.1077629E+03  0.7546771E-02  0.1264770E+00
          2   -1    0    0  503    0 -0.00000000000E+00  0.00000000000E+00  0.15299206574E+04  0.15299206574E+04  0.00000000000E+00 0. -1.
         21   -1    0    0  501  502  0.00000000000E+00 -0.00000000000E+00 -0.21344298701E+02  0.21344298701E+02  0.00000000000E+00 0. -1.
         21    1    1    2  503  502  0.71054280748E+02  0.81019273986E+02  0.13166300835E+03  0.17014106305E+03  0.00000000000E+00 0. -1.
          2    1    1    2  501    0 -0.71054280748E+02 -0.81019273986E+02  0.13769133503E+04  0.13811238930E+04  0.00000000000E+00 0. -1.
<mgrwt>
<rscale>  2 0.10776286E+03</rscale>
<asrwt>0</asrwt>
<pdfrwt beam="2">  1       21 0.32837395E-02 0.10776286E+03</pdfrwt>
<pdfrwt beam="1">  1        2 0.23537232E+00 0.10776286E+03</pdfrwt>
<totfact> 0.92691379E+04</totfact>
</mgrwt>
</event>
<event>
 4    1  0.5134057E+003  0.1089108E+03  0.7546771E-02  0.1262600E+00
         21   -1    0    0  501  502  0.00000000000E+00  0.00000000000E+00  0.16959798494E+04  0.16959798494E+04  0.00000000000E+00 0. -1.
         -2   -1    0    0    0  501 -0.00000000000E+00 -0.00000000000E+00 -0.16551068524E+02  0.16551068524E+02  0.00000000000E+00 0. -1.
         21    1    1    2  503  502  0.26199225032E+02 -0.10571261389E+03  0.14903824039E+04  0.14943564721E+04  0.00000000000E+00 0. -1.
         -2    1    1    2    0  503 -0.26199225032E+02  0.10571261389E+03  0.18904637706E+03  0.21817444581E+03  0.00000000000E+00 0. -1.
<mgrwt>
<rscale>  2 0.10891077E+03</rscale>
<asrwt>0</asrwt>
<pdfrwt beam="1">  1       21 0.26091984E+00 0.10891077E+03</pdfrwt>
<pdfrwt beam="2">  1       -2 0.25463196E-02 0.10891077E+03</pdfrwt>
<totfact> 0.25444657E+03</totfact>
</mgrwt>
</event>
<event>
 4    1  0.5134057E+003  0.1022122E+03  0.7546771E-02  0.1275712E+00
          2   -1    0    0  503    0 -0.00000000000E+00  0.00000000000E+00  0.22683168506E+04  0.22683168506E+04  0.00000000000E+00 0.  1.
         21   -1    0    0  501  502  0.00000000000E+00 -0.00000000000E+00 -0.79008669211E+02  0.79008669211E+02  0.00000000000E+00 0.  1.
         21    1    1    2  503  502 -0.45684054330E+02 -0.91434665172E+02 -0.44286051067E+02  0.11139382898E+03  0.00000000000E+00 0.  1.
          2    1    1    2  501    0  0.45684054330E+02  0.91434665172E+02  0.22335942324E+04  0.22359316908E+04  0.00000000000E+00 0.  1.
<mgrwt>
<rscale>  2 0.10221219E+03</rscale>
<asrwt>0</asrwt>
<pdfrwt beam="2">  1       21 0.12155182E-01 0.10221219E+03</pdfrwt>
<pdfrwt beam="1">  1        2 0.34897177E+00 0.10221219E+03</pdfrwt>
<totfact> 0.42656393E+03</totfact>
</mgrwt>
</event>
<event>
 4    1  0.5134057E+003  0.1417517E+03  0.7546771E-02  0.1210991E+00
         21   -1    0    0  501  502  0.00000000000E+00  0.00000000000E+00  0.30568776356E+02  0.30568776356E+02  0.00000000000E+00 0.  1.
          2   -1    0    0  503    0 -0.00000000000E+00 -0.00000000000E+00 -0.19664286845E+04  0.19664286845E+04  0.00000000000E+00 0.  1.
         21    1    1    2  503  502 -0.47021912881E+02 -0.13372536251E+03 -0.15323332935E+03  0.20874382887E+03  0.00000000000E+00 0.  1.
          2    1    1    2  501    0  0.47021912881E+02  0.13372536251E+03 -0.17826265788E+04  0.17882536320E+04  0.00000000000E+00 0.  1.
<mgrwt>
<rscale>  2 0.14175166E+03</rscale>
<asrwt>0</asrwt>
<pdfrwt beam="1">  1       21 0.47028894E-02 0.14175166E+03</pdfrwt>
<pdfrwt beam="2">  1        2 0.30252745E+00 0.14175166E+03</pdfrwt>
<totfact> 0.30392312E+04</totfact>
</mgrwt>
</event>
<event>
 4    1  0.5134057E+003  0.2061174E+03  0.7546771E-02  0.1144678E+00
         21   -1    0    0  503  502  0.00000000000E+00  0.00000000000E+00  0.79751528526E+02  0.79751528526E+02  0.00000000000E+00 0. -1.
          1   -1    0    0  502    0 -0.00000000000E+00 -0.00000000000E+00 -0.11892486745E+04  0.11892486745E+04  0.00000000000E+00 0.  1.
         21    1    1    2  503  501 -0.16128576050E+03 -0.12834050016E+03 -0.83309311095E+02  0.22231694006E+03  0.00000000000E+00 0. -1.
          1    1    1    2  501    0  0.16128576050E+03  0.12834050016E+03 -0.10261878348E+04  0.10466832629E+04  0.00000000000E+00 0.  1.
<mgrwt>
<rscale>  2 0.20611739E+03</rscale>
<asrwt>0</asrwt>
<pdfrwt beam="1">  1       21 0.12269466E-01 0.20611739E+03</pdfrwt>
<pdfrwt beam="2">  1        1 0.18296133E+00 0.20611739E+03</pdfrwt>
<totfact> 0.73835854E+03</totfact>
</mgrwt>
</event>
<event>
 4    1  0.5134057E+003  0.1373465E+03  0.7546771E-02  0.1216945E+00
         21   -1    0    0  503  502  0.00000000000E+00  0.00000000000E+00  0.32094196530E+03  0.32094196530E+03  0.00000000000E+00 0.  1.
          3   -1    0    0  502    0 -0.00000000000E+00 -0.00000000000E+00 -0.60740592269E+03  0.60740592269E+03  0.00000000000E+00 0.  1.
         21    1    1    2  503  501 -0.13222809574E+03  0.37145552539E+02  0.29791217493E+03  0.32804835825E+03  0.00000000000E+00 0.  1.
          3    1    1    2  501    0  0.13222809574E+03 -0.37145552539E+02 -0.58437613232E+03  0.60029952974E+03  0.00000000000E+00 0.  1.
<mgrwt>
<rscale>  2 0.13734650E+03</rscale>
<asrwt>0</asrwt>
<pdfrwt beam="1">  1       21 0.49375687E-01 0.13734650E+03</pdfrwt>
<pdfrwt beam="2">  1        3 0.93447065E-01 0.13734650E+03</pdfrwt>
<totfact> 0.20751246E+02</totfact>
</mgrwt>
</event>
<event>
 4    1  0.5134057E+003  0.1033383E+03  0.7546771E-02  0.1273429E+00
         21   -1    0    0  501  502  0.00000000000E+00  0.00000000000E+00  0.13882510792E+03  0.13882510792E+03  0.00000000000E+00 0. -1.
          2   -1    0    0  503    0 -0.00000000000E+00 -0.00000000000E+00 -0.66211463196E+03  0.66211463196E+03  0.00000000000E+00 0. -1.
         21    1    1    2  503  502  0.77713194110E+02  0.68113590384E+02  0.11484434915E+03  0.15449280328E+03  0.00000000000E+00 0. -1.
          2    1    1    2  501    0 -0.77713194110E+02 -0.68113590384E+02 -0.63813387318E+03  0.64644693660E+03  0.00000000000E+00 0. -1.
<mgrwt>
<rscale>  2 0.10333829E+03</rscale>
<asrwt>0</asrwt>
<pdfrwt beam="1">  1       21 0.21357708E-01 0.10333829E+03</pdfrwt>
<pdfrwt beam="2">  1        2 0.10186379E+00 0.10333829E+03</pdfrwt>
<totfact> 0.11808288E+04</totfact>
</mgrwt>
</event>
<event>
 4    1  0.5134057E+003  0.1017814E+03  0.7546771E-02  0.1276594E+00
         21   -1    0    0  501  502  0.00000000000E+00  0.00000000000E+00  0.26215090647E+03  0.26215090647E+03  0.00000000000E+00 0. -1.
          2   -1    0    0  503    0 -0.00000000000E+00 -0.00000000000E+00 -0.22108847606E+04  0.22108847606E+04  0.00000000000E+00 0. -1.
         21    1    1    2  503  502 -0.41021016526E+02  0.93148919299E+02  0.25105039021E+03  0.27089803135E+03  0.00000000000E+00 0. -1.
          2    1    1    2  501    0  0.41021016526E+02 -0.93148919299E+02 -0.21997842443E+04  0.22021376357E+04  0.00000000000E+00 0. -1.
<mgrwt>
<rscale>  2 0.10178136E+03</rscale>
<asrwt>0</asrwt>
<pdfrwt beam="1">  1       21 0.40330908E-01 0.10178136E+03</pdfrwt>
<pdfrwt beam="2">  1        2 0.34013612E+00 0.10178136E+03</pdfrwt>
<totfact> 0.48980954E+02</totfact>
</mgrwt>
</event>
<event>
 4    1  0.5134057E+003  0.1210392E+03  0.7546771E-02  0.1241393E+00
         -1   -1    0    0    0  501 -0.00000000000E+00  0.00000000000E+00  0.28716684171E+03  0.28716684171E+03  0.00000000000E+00 0.  1.
         21   -1    0    0  501  502  0.00000000000E+00 -0.00000000000E+00 -0.10542993551E+04  0.10542993551E+04  0.00000000000E+00 0.  1.
         21    1    1    2  503  502  0.11835991248E+03  0.25326125069E+02 -0.10378698211E+04  0.10449039415E+04  0.00000000000E+00 0.  1.
         -1    1    1    2    0  503 -0.11835991248E+03 -0.25326125069E+02  0.27073730769E+03  0.29656225530E+03  0.00000000000E+00 0.  1.
<mgrwt>
<rscale>  2 0.12103917E+03</rscale>
<asrwt>0</asrwt>
<pdfrwt beam="2">  1       21 0.16219990E+00 0.12103917E+03</pdfrwt>
<pdfrwt beam="1">  1       -1 0.44179514E-01 0.12103917E+03</pdfrwt>
<totfact> 0.12354593E+02</totfact>
</mgrwt>
</event>
<event>
 4    1  0.5134057E+003  0.1025358E+03  0.7546771E-02  0.1275052E+00
         21   -1    0    0  503  502  0.00000000000E+00  0.00000000000E+00  0.38374844561E+03  0.38374844561E+03  0.00000000000E+00 0. -1.
          1   -1    0    0  502    0 -0.00000000000E+00 -0.00000000000E+00 -0.69660808380E+03  0.69660808380E+03  0.00000000000E+00 0.  1.
         21    1    1    2  503  501 -0.10240772867E+03 -0.51231801515E+01  0.37301948840E+03  0.38685543629E+03  0.00000000000E+00 0. -1.
          1    1    1    2  501    0  0.10240772867E+03  0.51231801515E+01 -0.68587912658E+03  0.69350109311E+03  0.00000000000E+00 0.  1.
<mgrwt>
<rscale>  2 0.10253580E+03</rscale>
<asrwt>0</asrwt>
<pdfrwt beam="1">  1       21 0.59038224E-01 0.10253580E+03</pdfrwt>
<pdfrwt beam="2">  1        1 0.10717047E+00 0.10253580E+03</pdfrwt>
<totfact> 0.90581465E+02</totfact>
</mgrwt>
</event>
<event>
 4    1  0.5134057E+003  0.1062852E+03  0.7546771E-02  0.1267608E+00
         21   -1    0    0  501  502  0.00000000000E+00  0.00000000000E+00  0.24829458284E+03  0.24829458284E+03  0.00000000000E+00 0.  1.
          2   -1    0    0  503    0 -0.00000000000E+00 -0.00000000000E+00 -0.85544256284E+02  0.85544256284E+02  0.00000000000E+00 0. -1.
         21    1    1    2  503  502 -0.78089862105E+02 -0.72100679264E+02  0.19558421681E+03  0.22259766481E+03  0.00000000000E+00 0.  1.
          2    1    1    2  501    0  0.78089862105E+02  0.72100679264E+02 -0.32833890252E+02  0.11124117432E+03  0.00000000000E+00 0. -1.
<mgrwt>
<rscale>  2 0.10628516E+03</rscale>
<asrwt>0</asrwt>
<pdfrwt beam="1">  1       21 0.38199166E-01 0.10628516E+03</pdfrwt>
<pdfrwt beam="2">  1        2 0.13160655E-01 0.10628516E+03</pdfrwt>
<totfact> 0.36496781E+04</totfact>
</mgrwt>
</event>
<event>
 4    1  0.5134057E+003  0.1090551E+03  0.7546771E-02  0.1262330E+00
         21   -1    0    0  501  502  0.00000000000E+00  0.00000000000E+00  0.21263707097E+02  0.21263707097E+02  0.00000000000E+00 0. -1.
          2   -1    0    0  503    0 -0.00000000000E+00 -0.00000000000E+00 -0.56021250601E+03  0.56021250601E+03  0.00000000000E+00 0. -1.
         21    1    1    2  503  502 -0.76826674061E+02 -0.77399407987E+02 -0.28114319032E+03  0.30155347729E+03  0.00000000000E+00 0. -1.
          2    1    1    2  501    0  0.76826674061E+02  0.77399407987E+02 -0.25780560859E+03  0.27992273582E+03  0.00000000000E+00 0. -1.
<mgrwt>
<rscale>  2 0.10905506E+03</rscale>
<asrwt>0</asrwt>
<pdfrwt beam="1">  1       21 0.32713397E-02 0.10905506E+03</pdfrwt>
<pdfrwt beam="2">  1        2 0.86186535E-01 0.10905506E+03</pdfrwt>
<totfact> 0.36541777E+05</totfact>
</mgrwt>
</event>
<event>
 4    1  0.5134057E+003  0.1042788E+03  0.7546771E-02  0.1271547E+00
          2   -1    0    0  503    0 -0.00000000000E+00  0.00000000000E+00  0.82435271929E+03  0.82435271929E+03  0.00000000000E+00 0.  1.
         21   -1    0    0  501  502  0.00000000000E+00 -0.00000000000E+00 -0.41378012710E+02  0.41378012710E+02  0.00000000000E+00 0. -1.
         21    1    1    2  503  502  0.46149164440E+02 -0.93511072486E+02  0.34220869219E+02  0.10975032549E+03  0.00000000000E+00 0. -1.
          2    1    1    2  501    0 -0.46149164440E+02  0.93511072486E+02  0.74875383736E+03  0.75598040651E+03  0.00000000000E+00 0.  1.
<mgrwt>
<rscale>  2 0.10427879E+03</rscale>
<asrwt>0</asrwt>
<pdfrwt beam="2">  1       21 0.63658488E-02 0.10427879E+03</pdfrwt>
<pdfrwt beam="1">  1        2 0.12682348E+00 0.10427879E+03</pdfrwt>
<totfact> 0.76681955E+04</totfact>
</mgrwt>
</event>
<event>
 4    1  0.5134057E+003  0.1369844E+03  0.7546771E-02  0.1217445E+00
         21   -1    0    0  501  502  0.00000000000E+00  0.00000000000E+00  0.30297743091E+03  0.30297743091E+03  0.00000000000E+00 0. -1.
          4   -1    0    0  503    0 -0.00000000000E+00 -0.00000000000E+00 -0.13463542858E+03  0.13463542858E+03  0.00000000000E+00 0. -1.
         21    1    1    2  503  502 -0.14908934475E+02 -0.13617069850E+03  0.24495787071E+03  0.28065832230E+03  0.00000000000E+00 0. -1.
          4    1    1    2  501    0  0.14908934475E+02  0.13617069850E+03 -0.76615868374E+02  0.15695453719E+03  0.00000000000E+00 0. -1.
<mgrwt>
<rscale>  2 0.13698444E+03</rscale>
<asrwt>0</asrwt>
<pdfrwt beam="1">  1       21 0.46611912E-01 0.13698444E+03</pdfrwt>
<pdfrwt beam="2">  1        4 0.20713143E-01 0.13698444E+03</pdfrwt>
<totfact> 0.38668820E+03</totfact>
</mgrwt>
</event>
<event>
 4    1  0.5134057E+003  0.1123971E+03  0.7546771E-02  0.1256194E+00
         21   -1    0    0  503  502  0.00000000000E+00  0.00000000000E+00  0.79690002035E+01  0.79690002035E+01  0.00000000000E+00 0. -1.
         -1   -1    0    0    0  501 -0.00000000000E+00 -0.00000000000E+00 -0.22427042809E+04  0.22427042809E+04  0.00000000000E+00 0.  1.
         21    1    1    2  503  501  0.53699386727E+02 -0.98739429415E+02 -0.50808441201E+03  0.52036801284E+03  0.00000000000E+00 0. -1.
         -1    1    1    2    0  502 -0.53699386727E+02  0.98739429415E+02 -0.17266508687E+04  0.17303052683E+04  0.00000000000E+00 0.  1.
<mgrwt>
<rscale>  2 0.11239706E+03</rscale>
<asrwt>0</asrwt>
<pdfrwt beam="1">  1       21 0.12260008E-02 0.11239706E+03</pdfrwt>
<pdfrwt beam="2">  1       -1 0.34503121E+00 0.11239706E+03</pdfrwt>
<totfact> 0.53742661E+03</totfact>
</mgrwt>
</event>
<event>
 4    1  0.5134057E+003  0.1499122E+03  0.7546771E-02  0.1200581E+00
          1   -1    0    0  502    0 -0.00000000000E+00  0.00000000000E+00  0.93740406078E+03  0.93740406078E+03  0.00000000000E+00 0.  1.
         21   -1    0    0  503  502  0.00000000000E+00 -0.00000000000E+00 -0.89787743997E+02  0.89787743997E+02  0.00000000000E+00 0. -1.
         21    1    1    2  503  501 -0.12987008206E+03 -0.74882690390E+02 -0.15905702147E+02  0.15075359662E+03  0.00000000000E+00 0. -1.
          1    1    1    2  501    0  0.12987008206E+03  0.74882690390E+02  0.86352201893E+03  0.87643820816E+03  0.00000000000E+00 0.  1.
<mgrwt>
<rscale>  2 0.14991216E+03</rscale>
<asrwt>0</asrwt>
<pdfrwt beam="2">  1       21 0.13813500E-01 0.14991216E+03</pdfrwt>
<pdfrwt beam="1">  1        1 0.14421600E+00 0.14991216E+03</pdfrwt>
<totfact> 0.92454134E+03</totfact>
</mgrwt>
</event>
<event>
 4    1  0.5134057E+003  0.1123450E+03  0.7546771E-02  0.1256288E+00
         21   -1    0    0  503  502  0.00000000000E+00  0.00000000000E+00  0.71180504596E+02  0.71180504596E+02  0.00000000000E+00 0. -1.
          1   -1    0    0  502    0 -0.00000000000E+00 -0.00000000000E+00 -0.63295524027E+03  0.63295524027E+03  0.00000000000E+00 0.  1.
         21    1    1    2  503  501 -0.11012241082E+03 -0.22236194492E+02  0.17823333238E+02  0.11375001062E+03  0.00000000000E+00 0. -1.
          1    1    1    2  501    0  0.11012241082E+03  0.22236194492E+02 -0.57959806892E+03  0.59038573425E+03  0.00000000000E+00 0.  1.
<mgrwt>
<rscale>  2 0.11234498E+03</rscale>
<asrwt>0</asrwt>
<pdfrwt beam="1">  1       21 0.10950847E-01 0.11234498E+03</pdfrwt>
<pdfrwt beam="2">  1        1 0.97377730E-01 0.11234498E+03</pdfrwt>
<totfact> 0.25241112E+04</totfact>
</mgrwt>
</event>
<event>
 4    1  0.5134057E+003  0.1140331E+03  0.7546771E-02  0.1253278E+00
          2   -1    0    0  503    0 -0.00000000000E+00  0.00000000000E+00  0.21647531504E+04  0.21647531504E+04  0.00000000000E+00 0.  1.
         21   -1    0    0  501  502  0.00000000000E+00 -0.00000000000E+00 -0.16912620264E+02  0.16912620264E+02  0.00000000000E+00 0.  1.
         21    1    1    2  503  502 -0.67033353925E+02 -0.92250099625E+02  0.19797076394E+03  0.22846438408E+03  0.00000000000E+00 0.  1.
          2    1    1    2  501    0  0.67033353925E+02  0.92250099625E+02  0.19498697662E+04  0.19532013866E+04  0.00000000000E+00 0.  1.
<mgrwt>
<rscale>  2 0.11403312E+03</rscale>
<asrwt>0</asrwt>
<pdfrwt beam="2">  1       21 0.26019433E-02 0.11403312E+03</pdfrwt>
<pdfrwt beam="1">  1        2 0.33303873E+00 0.11403312E+03</pdfrwt>
<totfact> 0.64417001E+04</totfact>
</mgrwt>
</event>
<event>
 4    1  0.5134057E+003  0.1056590E+03  0.7546771E-02  0.1268827E+00
         21   -1    0    0  503  502  0.00000000000E+00  0.00000000000E+00  0.19890049395E+02  0.19890049395E+02  0.00000000000E+00 0. -1.
          2   -1    0    0  502    0 -0.00000000000E+00 -0.00000000000E+00 -0.64123023632E+03  0.64123023632E+03  0.00000000000E+00 0. -1.
         21    1    1    2  503  501 -0.10458328720E+03 -0.15038447404E+02 -0.19394542180E+03  0.22085888142E+03  0.00000000000E+00 0. -1.
          2    1    1    2  501    0  0.10458328720E+03  0.15038447404E+02 -0.42739476513E+03  0.44026140430E+03  0.00000000000E+00 0. -1.
<mgrwt>
<rscale>  2 0.10565897E+03</rscale>
<asrwt>0</asrwt>
<pdfrwt beam="1">  1       21 0.30600082E-02 0.10565897E+03</pdfrwt>
<pdfrwt beam="2">  1        2 0.98650787E-01 0.10565897E+03</pdfrwt>
<totfact> 0.34937850E+05</totfact>
</mgrwt>
</event>
<event>
 4    1  0.5134057E+003  0.1449797E+03  0.7546771E-02  0.1206781E+00
         21   -1    0    0  501  502  0.00000000000E+00  0.00000000000E+00  0.12928020568E+02  0.12928020568E+02  0.00000000000E+00 0.  1.
          2   -1    0    0  503    0 -0.00000000000E+00 -0.00000000000E+00 -0.21651647626E+04  0.21651647626E+04  0.00000000000E+00 0.  1.
         21    1    1    2  503  502  0.14376376205E+03  0.18737616681E+02 -0.53259391421E+03  0.55197408908E+03  0.00000000000E+00 0.  1.
          2    1    1    2  501    0 -0.14376376205E+03 -0.18737616681E+02 -0.16196428279E+04  0.16261186941E+04  0.00000000000E+00 0.  1.
<mgrwt>
<rscale>  2 0.14497971E+03</rscale>
<asrwt>0</asrwt>
<pdfrwt beam="1">  1       21 0.19889288E-02 0.14497971E+03</pdfrwt>
<pdfrwt beam="2">  1        2 0.33310184E+00 0.14497971E+03</pdfrwt>
<totfact> 0.98950080E+04</totfact>
</mgrwt>
</event>
<event>
 4    1  0.5134057E+003  0.1030931E+03  0.7546771E-02  0.1273923E+00
          2   -1    0    0  503    0 -0.00000000000E+00  0.00000000000E+00  0.16781979876E+04  0.16781979876E+04  0.00000000000E+00 0.  1.
         21   -1    0    0  501  502  0.00000000000E+00 -0.00000000000E+00 -0.54013140388E+02  0.54013140388E+02  0.00000000000E+00 0. -1.
         21    1    1    2  503  502  0.53966057110E+02 -0.87839906073E+02 -0.16546733418E+01  0.10310636432E+03  0.00000000000E+00 0. -1.
          2    1    1    2  501    0 -0.53966057110E+02  0.87839906073E+02  0.16258395205E+04  0.16291047636E+04  0.00000000000E+00 0.  1.
<mgrwt>
<rscale>  2 0.10309309E+03</rscale>
<asrwt>0</asrwt>
<pdfrwt beam="2">  1       21 0.83097152E-02 0.10309309E+03</pdfrwt>
<pdfrwt beam="1">  1        2 0.25818427E+00 0.10309309E+03</pdfrwt>
<totfact> 0.16449067E+04</totfact>
</mgrwt>
</event>
<event>
 4    1  0.5134057E+003  0.1096869E+03  0.7546771E-02  0.1261151E+00
         21   -1    0    0  503  502  0.00000000000E+00  0.00000000000E+00  0.68372934173E+02  0.68372934173E+02  0.00000000000E+00 0.  1.
         -1   -1    0    0    0  501 -0.00000000000E+00 -0.00000000000E+00 -0.32932053983E+03  0.32932053983E+03  0.00000000000E+00 0.  1.
         21    1    1    2  503  501 -0.73281476648E+02  0.81615236547E+02  0.52197593353E+01  0.10981105383E+03  0.00000000000E+00 0.  1.
         -1    1    1    2    0  502  0.73281476648E+02 -0.81615236547E+02 -0.26616736499E+03  0.28788242017E+03  0.00000000000E+00 0.  1.
<mgrwt>
<rscale>  2 0.10968693E+03</rscale>
<asrwt>0</asrwt>
<pdfrwt beam="1">  1       21 0.10518913E-01 0.10968693E+03</pdfrwt>
<pdfrwt beam="2">  1       -1 0.50664698E-01 0.10968693E+03</pdfrwt>
<totfact> 0.27303651E+04</totfact>
</mgrwt>
</event>
<event>
 4    1  0.5134057E+003  0.1753074E+03  0.7546771E-02  0.1172423E+00
         21   -1    0    0  503  502  0.00000000000E+00  0.00000000000E+00  0.47405501151E+02  0.47405501151E+02  0.00000000000E+00 0. -1.
          2   -1    0    0  502    0 -0.00000000000E+00 -0.00000000000E+00 -0.26451161353E+04  0.26451161353E+04  0.00000000000E+00 0. -1.
         21    1    1    2  503  501 -0.44894066651E+02  0.16946149867E+03 -0.12914968015E+03  0.21774369483E+03  0.00000000000E+00 0. -1.
          2    1    1    2  501    0  0.44894066651E+02 -0.16946149867E+03 -0.24685609540E+04  0.24747779417E+04  0.00000000000E+00 0. -1.
<mgrwt>
<rscale>  2 0.17530738E+03</rscale>
<asrwt>0</asrwt>
<pdfrwt beam="1">  1       21 0.72931518E-02 0.17530738E+03</pdfrwt>
<pdfrwt beam="2">  1        2 0.40694107E+00 0.17530738E+03</pdfrwt>
<totfact> 0.62173712E+03</totfact>
</mgrwt>
</event>
<event>
 4    1  0.5134057E+003  0.1227419E+03  0.7546771E-02  0.1238641E+00
         -1   -1    0    0    0  501 -0.00000000000E+00  0.00000000000E+00  0.49896191034E+03  0.49896191034E+03  0.00000000000E+00 0.  1.
         21   -1    0    0  501  502  0.00000000000E+00 -0.00000000000E+00 -0.61419118231E+02  0.61419118231E+02  0.00000000000E+00 0.  1.
         21    1    1    2  503  502  0.11004421518E+03  0.54367577559E+02  0.18990027608E+02  0.12420218973E+03  0.00000000000E+00 0.  1.
         -1    1    1    2    0  503 -0.11004421518E+03 -0.54367577559E+02  0.41855276450E+03  0.43617883885E+03  0.00000000000E+00 0.  1.
<mgrwt>
<rscale>  2 0.12274185E+03</rscale>
<asrwt>0</asrwt>
<pdfrwt beam="2">  1       21 0.94490955E-02 0.12274185E+03</pdfrwt>
<pdfrwt beam="1">  1       -1 0.76763368E-01 0.12274185E+03</pdfrwt>
<totfact> 0.14893415E+04</totfact>
</mgrwt>
</event>
<event>
 4    1  0.5134057E+003  0.1022189E+03  0.7546771E-02  0.1275698E+00
         21   -1    0    0  501  502  0.00000000000E+00  0.00000000000E+00  0.11697488536E+03  0.11697488536E+03  0.00000000000E+00 0. -1.
         -1   -1    0    0    0  501 -0.00000000000E+00 -0.00000000000E+00 -0.24647661025E+03  0.24647661025E+03  0.00000000000E+00 0. -1.
         21    1    1    2  503  502  0.91352886371E+02 -0.45862261671E+02  0.80356359290E+02  0.13002246488E+03  0.00000000000E+00 0. -1.
         -1    1    1    2    0  503 -0.91352886371E+02  0.45862261671E+02 -0.20985808418E+03  0.23342903073E+03  0.00000000000E+00 0. -1.
<mgrwt>
<rscale>  2 0.10221887E+03</rscale>
<asrwt>0</asrwt>
<pdfrwt beam="1">  1       21 0.17996136E-01 0.10221887E+03</pdfrwt>
<pdfrwt beam="2">  1       -1 0.37919478E-01 0.10221887E+03</pdfrwt>
<totfact> 0.17496064E+04</totfact>
</mgrwt>
</event>
<event>
 4    1  0.5134057E+003  0.1143904E+03  0.7546771E-02  0.1252649E+00
          2   -1    0    0  502    0 -0.00000000000E+00  0.00000000000E+00  0.20357025960E+03  0.20357025960E+03  0.00000000000E+00 0.  1.
         21   -1    0    0  503  502  0.00000000000E+00 -0.00000000000E+00 -0.60511259095E+03  0.60511259095E+03  0.00000000000E+00 0. -1.
         21    1    1    2  503  501 -0.75078875502E+02  0.86303720105E+02 -0.58303412211E+03  0.59414977673E+03  0.00000000000E+00 0. -1.
          2    1    1    2  501    0  0.75078875502E+02 -0.86303720105E+02  0.18149179076E+03  0.21453307382E+03  0.00000000000E+00 0.  1.
<mgrwt>
<rscale>  2 0.11439043E+03</rscale>
<asrwt>0</asrwt>
<pdfrwt beam="2">  1       21 0.93094243E-01 0.11439043E+03</pdfrwt>
<pdfrwt beam="1">  1        2 0.31318502E-01 0.11439043E+03</pdfrwt>
<totfact> 0.20817879E+03</totfact>
</mgrwt>
</event>
<event>
 4    1  0.5134057E+003  0.1077001E+03  0.7546771E-02  0.1264889E+00
         21   -1    0    0  501  502  0.00000000000E+00  0.00000000000E+00  0.58373105150E+02  0.58373105150E+02  0.00000000000E+00 0. -1.
          2   -1    0    0  503    0 -0.00000000000E+00 -0.00000000000E+00 -0.24899622714E+03  0.24899622714E+03  0.00000000000E+00 0. -1.
         21    1    1    2  503  502 -0.84093376721E+02 -0.67287481821E+02 -0.26246237538E+02  0.11085200135E+03  0.00000000000E+00 0. -1.
          2    1    1    2  501    0  0.84093376721E+02  0.67287481821E+02 -0.16437688445E+03  0.19651733094E+03  0.00000000000E+00 0. -1.
<mgrwt>
<rscale>  2 0.10770005E+03</rscale>
<asrwt>0</asrwt>
<pdfrwt beam="1">  1       21 0.89804778E-02 0.10770005E+03</pdfrwt>
<pdfrwt beam="2">  1        2 0.38307111E-01 0.10770005E+03</pdfrwt>
<totfact> 0.15867070E+05</totfact>
</mgrwt>
</event>
<event>
 4    1  0.5134057E+003  0.1143102E+03  0.7546771E-02  0.1252790E+00
         21   -1    0    0  503  502  0.00000000000E+00  0.00000000000E+00  0.38973815061E+02  0.38973815061E+02  0.00000000000E+00 0.  1.
         -3   -1    0    0    0  501 -0.00000000000E+00 -0.00000000000E+00 -0.25806095697E+04  0.25806095697E+04  0.00000000000E+00 0.  1.
         21    1    1    2  503  501 -0.11198311992E+03 -0.22947813783E+02 -0.49069079742E+02  0.12439692878E+03  0.00000000000E+00 0.  1.
         -3    1    1    2    0  502  0.11198311992E+03  0.22947813783E+02 -0.24925666749E+04  0.24951864560E+04  0.00000000000E+00 0.  1.
<mgrwt>
<rscale>  2 0.11431020E+03</rscale>
<asrwt>0</asrwt>
<pdfrwt beam="1">  1       21 0.59959743E-02 0.11431020E+03</pdfrwt>
<pdfrwt beam="2">  1       -3 0.39701668E+00 0.11431020E+03</pdfrwt>
<totfact> 0.13948579E+02</totfact>
</mgrwt>
</event>
<event>
 4    1  0.5134057E+003  0.1063815E+03  0.7546771E-02  0.1267421E+00
          4   -1    0    0  502    0 -0.00000000000E+00  0.00000000000E+00  0.79043770719E+02  0.79043770719E+02  0.00000000000E+00 0. -1.
         21   -1    0    0  503  502  0.00000000000E+00 -0.00000000000E+00 -0.14890039201E+03  0.14890039201E+03  0.00000000000E+00 0. -1.
         21    1    1    2  503  501 -0.10436422772E+03  0.20618650265E+02 -0.57278812988E+02  0.12082169997E+03  0.00000000000E+00 0. -1.
          4    1    1    2  501    0  0.10436422772E+03 -0.20618650265E+02 -0.12577808306E+02  0.10712246276E+03  0.00000000000E+00 0. -1.
<mgrwt>
<rscale>  2 0.10638149E+03</rscale>
<asrwt>0</asrwt>
<pdfrwt beam="2">  1       21 0.22907752E-01 0.10638149E+03</pdfrwt>
<pdfrwt beam="1">  1        4 0.12160580E-01 0.10638149E+03</pdfrwt>
<totfact> 0.38365143E+04</totfact>
</mgrwt>
</event>
<event>
 4    1  0.5134057E+003  0.1314652E+03  0.7546771E-02  0.1225298E+00
         21   -1    0    0  501  502  0.00000000000E+00  0.00000000000E+00  0.95652731976E+02  0.95652731976E+02  0.00000000000E+00 0. -1.
          1   -1    0    0  503    0 -0.00000000000E+00 -0.00000000000E+00 -0.38060942989E+03  0.38060942989E+03  0.00000000000E+00 0. -1.
         21    1    1    2  503  502 -0.16032243214E+02  0.13048394552E+03  0.30108757501E+02  0.13486893689E+03  0.00000000000E+00 0. -1.
          1    1    1    2  501    0  0.16032243214E+02 -0.13048394552E+03 -0.31506545541E+03  0.34139322497E+03  0.00000000000E+00 0. -1.
<mgrwt>
<rscale>  2 0.13146518E+03</rscale>
<asrwt>0</asrwt>
<pdfrwt beam="1">  1       21 0.14715805E-01 0.13146518E+03</pdfrwt>
<pdfrwt beam="2">  1        1 0.58555296E-01 0.13146518E+03</pdfrwt>
<totfact> 0.28910333E+04</totfact>
</mgrwt>
</event>
<event>
 4    1  0.5134057E+003  0.1082032E+03  0.7546771E-02  0.1263934E+00
          2   -1    0    0  502    0 -0.00000000000E+00  0.00000000000E+00  0.14885871079E+04  0.14885871079E+04  0.00000000000E+00 0. -1.
         21   -1    0    0  503  502  0.00000000000E+00 -0.00000000000E+00 -0.24875305013E+02  0.24875305013E+02  0.00000000000E+00 0.  1.
         21    1    1    2  503  501  0.90495428602E+02 -0.59316953461E+02  0.10609000275E+03  0.15153551481E+03  0.00000000000E+00 0.  1.
          2    1    1    2  501    0 -0.90495428602E+02  0.59316953461E+02  0.13576218001E+04  0.13619268981E+04  0.00000000000E+00 0. -1.
<mgrwt>
<rscale>  2 0.10820316E+03</rscale>
<asrwt>0</asrwt>
<pdfrwt beam="2">  1       21 0.38269712E-02 0.10820316E+03</pdfrwt>
<pdfrwt beam="1">  1        2 0.22901333E+00 0.10820316E+03</pdfrwt>
<totfact> 0.75674272E+04</totfact>
</mgrwt>
</event>
<event>
 4    1  0.5134057E+003  0.1445432E+03  0.7546771E-02  0.1207343E+00
         21   -1    0    0  501  502  0.00000000000E+00  0.00000000000E+00  0.26665974644E+02  0.26665974644E+02  0.00000000000E+00 0.  1.
          1   -1    0    0  503    0 -0.00000000000E+00 -0.00000000000E+00 -0.13221127808E+04  0.13221127808E+04  0.00000000000E+00 0. -1.
         21    1    1    2  503  502  0.13109720567E+03 -0.60879001318E+02 -0.21728033441E+03  0.26096642285E+03  0.00000000000E+00 0.  1.
          1    1    1    2  501    0 -0.13109720567E+03  0.60879001318E+02 -0.10781664718E+04  0.10878123326E+04  0.00000000000E+00 0. -1.
<mgrwt>
<rscale>  2 0.14454318E+03</rscale>
<asrwt>0</asrwt>
<pdfrwt beam="1">  1       21 0.41024581E-02 0.14454318E+03</pdfrwt>
<pdfrwt beam="2">  1        1 0.20340194E+00 0.14454318E+03</pdfrwt>
<totfact> 0.40363972E+04</totfact>
</mgrwt>
</event>
<event>
 4    1  0.5134057E+003  0.1289104E+03  0.7546771E-02  0.1229082E+00
         21   -1    0    0  503  502  0.00000000000E+00  0.00000000000E+00  0.35683288498E+02  0.35683288498E+02  0.00000000000E+00 0. -1.
          1   -1    0    0  502    0 -0.00000000000E+00 -0.00000000000E+00 -0.15337049758E+04  0.15337049758E+04  0.00000000000E+00 0.  1.
         21    1    1    2  503  501 -0.88444360803E+02  0.93784230430E+02 -0.94201138419E+02  0.15966133319E+03  0.00000000000E+00 0. -1.
          1    1    1    2  501    0  0.88444360803E+02 -0.93784230430E+02 -0.14038205488E+04  0.14097269311E+04  0.00000000000E+00 0.  1.
<mgrwt>
<rscale>  2 0.12891038E+03</rscale>
<asrwt>0</asrwt>
<pdfrwt beam="1">  1       21 0.54897380E-02 0.12891038E+03</pdfrwt>
<pdfrwt beam="2">  1        1 0.23595455E+00 0.12891038E+03</pdfrwt>
<totfact> 0.18058870E+04</totfact>
</mgrwt>
</event>
<event>
 4    1  0.5134057E+003  0.2803968E+03  0.7546771E-02  0.1095472E+00
          2   -1    0    0  503    0 -0.00000000000E+00  0.00000000000E+00  0.59834601048E+03  0.59834601048E+03  0.00000000000E+00 0.  1.
         21   -1    0    0  501  502  0.00000000000E+00 -0.00000000000E+00 -0.20866352945E+03  0.20866352945E+03  0.00000000000E+00 0. -1.
         21    1    1    2  503  502  0.27976021260E+03  0.18884046352E+02 -0.50694091339E+02  0.28494258133E+03  0.00000000000E+00 0. -1.
          2    1    1    2  501    0 -0.27976021260E+03 -0.18884046352E+02  0.44037657237E+03  0.52206695859E+03  0.00000000000E+00 0.  1.
<mgrwt>
<rscale>  2 0.28039683E+03</rscale>
<asrwt>0</asrwt>
<pdfrwt beam="2">  1       21 0.32102082E-01 0.28039683E+03</pdfrwt>
<pdfrwt beam="1">  1        2 0.92053232E-01 0.28039683E+03</pdfrwt>
<totfact> 0.57942948E+03</totfact>
</mgrwt>
</event>
<event>
 4    1  0.5134057E+003  0.1075049E+03  0.7546771E-02  0.1265261E+00
         21   -1    0    0  503  502  0.00000000000E+00  0.00000000000E+00  0.17049327090E+03  0.17049327090E+03  0.00000000000E+00 0. -1.
          3   -1    0    0  502    0 -0.00000000000E+00 -0.00000000000E+00 -0.13981406465E+03  0.13981406465E+03  0.00000000000E+00 0.  1.
         21    1    1    2  503  501  0.16591136594E+02  0.10621698673E+03  0.12670055648E+03  0.16616360942E+03  0.00000000000E+00 0. -1.
          3    1    1    2  501    0 -0.16591136594E+02 -0.10621698673E+03 -0.96021350231E+02  0.14414372613E+03  0.00000000000E+00 0.  1.
<mgrwt>
<rscale>  2 0.10750495E+03</rscale>
<asrwt>0</asrwt>
<pdfrwt beam="1">  1       21 0.26229734E-01 0.10750495E+03</pdfrwt>
<pdfrwt beam="2">  1        3 0.21509856E-01 0.10750495E+03</pdfrwt>
<totfact> 0.12990757E+04</totfact>
</mgrwt>
</event>
<event>
 4    1  0.5134057E+003  0.1142365E+03  0.7546771E-02  0.1252920E+00
         -1   -1    0    0    0  501 -0.00000000000E+00  0.00000000000E+00  0.13808614498E+04  0.13808614498E+04  0.00000000000E+00 0.  1.
         21   -1    0    0  501  502  0.00000000000E+00 -0.00000000000E+00 -0.34105032614E+02  0.34105032614E+02  0.00000000000E+00 0. -1.
         21    1    1    2  503  502 -0.47548037330E+02 -0.10387093718E+03  0.71852335553E+02  0.13495460559E+03  0.00000000000E+00 0. -1.
         -1    1    1    2    0  503  0.47548037330E+02  0.10387093718E+03  0.12749040816E+04  0.12800118768E+04  0.00000000000E+00 0.  1.
<mgrwt>
<rscale>  2 0.11423654E+03</rscale>
<asrwt>0</asrwt>
<pdfrwt beam="2">  1       21 0.52469292E-02 0.11423654E+03</pdfrwt>
<pdfrwt beam="1">  1       -1 0.21244018E+00 0.11423654E+03</pdfrwt>
<totfact> 0.33339074E+03</totfact>
</mgrwt>
</event>
<event>
 4    1  0.5134057E+003  0.1131580E+03  0.7546771E-02  0.1254831E+00
          2   -1    0    0  502    0 -0.00000000000E+00  0.00000000000E+00  0.12847046087E+04  0.12847046087E+04  0.00000000000E+00 0. -1.
         21   -1    0    0  503  502  0.00000000000E+00 -0.00000000000E+00 -0.22158745586E+02  0.22158745586E+02  0.00000000000E+00 0. -1.
         21    1    1    2  503  501 -0.10265893222E+03 -0.47601159518E+02  0.14658802913E+03  0.18518309058E+03  0.00000000000E+00 0. -1.
          2    1    1    2  501    0  0.10265893222E+03  0.47601159518E+02  0.11159578340E+04  0.11216802637E+04  0.00000000000E+00 0. -1.
<mgrwt>
<rscale>  2 0.11315797E+03</rscale>
<asrwt>0</asrwt>
<pdfrwt beam="2">  1       21 0.34090388E-02 0.11315797E+03</pdfrwt>
<pdfrwt beam="1">  1        2 0.19764680E+00 0.11315797E+03</pdfrwt>
<totfact> 0.11716507E+05</totfact>
</mgrwt>
</event>
<event>
 4    1  0.5134057E+003  0.1628719E+03  0.7546771E-02  0.1185492E+00
         21   -1    0    0  503  502  0.00000000000E+00  0.00000000000E+00  0.98128695774E+03  0.98128695774E+03  0.00000000000E+00 0.  1.
         -1   -1    0    0    0  501 -0.00000000000E+00 -0.00000000000E+00 -0.10202688853E+04  0.10202688853E+04  0.00000000000E+00 0.  1.
         21    1    1    2  503  501  0.93726829427E+02 -0.13320110596E+03  0.96793960553E+03  0.98154690827E+03  0.00000000000E+00 0.  1.
         -1    1    1    2    0  502 -0.93726829427E+02  0.13320110596E+03 -0.10069215331E+04  0.10200089347E+04  0.00000000000E+00 0.  1.
<mgrwt>
<rscale>  2 0.16287189E+03</rscale>
<asrwt>0</asrwt>
<pdfrwt beam="1">  1       21 0.15096722E+00 0.16287189E+03</pdfrwt>
<pdfrwt beam="2">  1       -1 0.15696444E+00 0.16287189E+03</pdfrwt>
<totfact> 0.96571472E+00</totfact>
</mgrwt>
</event>
<event>
 4    1  0.5134057E+003  0.1108870E+03  0.7546771E-02  0.1258936E+00
         21   -1    0    0  503  502  0.00000000000E+00  0.00000000000E+00  0.45161222385E+02  0.45161222385E+02  0.00000000000E+00 0. -1.
          2   -1    0    0  502    0 -0.00000000000E+00 -0.00000000000E+00 -0.21004624499E+04  0.21004624499E+04  0.00000000000E+00 0. -1.
         21    1    1    2  503  501 -0.20644498500E+02 -0.10894827668E+03 -0.26781295224E+02  0.11407523870E+03  0.00000000000E+00 0. -1.
          2    1    1    2  501    0  0.20644498500E+02  0.10894827668E+03 -0.20285199323E+04  0.20315484336E+04  0.00000000000E+00 0. -1.
<mgrwt>
<rscale>  2 0.11088698E+03</rscale>
<asrwt>0</asrwt>
<pdfrwt beam="1">  1       21 0.69478802E-02 0.11088698E+03</pdfrwt>
<pdfrwt beam="2">  1        2 0.32314808E+00 0.11088698E+03</pdfrwt>
<totfact> 0.13601569E+04</totfact>
</mgrwt>
</event>
<event>
 4    1  0.5134057E+003  0.1165694E+03  0.7546771E-02  0.1248866E+00
          2   -1    0    0  502    0 -0.00000000000E+00  0.00000000000E+00  0.12067582370E+03  0.12067582370E+03  0.00000000000E+00 0.  1.
         21   -1    0    0  503  502  0.00000000000E+00 -0.00000000000E+00 -0.18686022668E+03  0.18686022668E+03  0.00000000000E+00 0.  1.
         21    1    1    2  503  501  0.94485059398E+02 -0.68271459725E+02 -0.13002660901E+03  0.17462914337E+03  0.00000000000E+00 0.  1.
          2    1    1    2  501    0 -0.94485059398E+02  0.68271459725E+02  0.63842206033E+02  0.13290690702E+03  0.00000000000E+00 0.  1.
<mgrwt>
<rscale>  2 0.11656937E+03</rscale>
<asrwt>0</asrwt>
<pdfrwt beam="2">  1       21 0.28747727E-01 0.11656937E+03</pdfrwt>
<pdfrwt beam="1">  1        2 0.18565511E-01 0.11656937E+03</pdfrwt>
<totfact> 0.42637372E+04</totfact>
</mgrwt>
</event>
<event>
 4    1  0.5134057E+003  0.1190230E+03  0.7546771E-02  0.1244717E+00
         21   -1    0    0  501  502  0.00000000000E+00  0.00000000000E+00  0.75581377063E+02  0.75581377063E+02  0.00000000000E+00 0.  1.
         -1   -1    0    0    0  501 -0.00000000000E+00 -0.00000000000E+00 -0.37806353677E+03  0.37806353677E+03  0.00000000000E+00 0.  1.
         21    1    1    2  503  502 -0.60262290178E+02  0.10263986212E+03  0.98232153155E+01  0.11942772071E+03  0.00000000000E+00 0.  1.
         -1    1    1    2    0  503  0.60262290178E+02 -0.10263986212E+03 -0.31230537503E+03  0.33421719313E+03  0.00000000000E+00 0.  1.
<mgrwt>
<rscale>  2 0.11902304E+03</rscale>
<asrwt>0</asrwt>
<pdfrwt beam="1">  1       21 0.11627904E-01 0.11902304E+03</pdfrwt>
<pdfrwt beam="2">  1       -1 0.58163621E-01 0.11902304E+03</pdfrwt>
<totfact> 0.17761254E+04</totfact>
</mgrwt>
</event>
<event>
 4    1  0.5134057E+003  0.1484581E+03  0.7546771E-02  0.1202381E+00
          1   -1    0    0  503    0 -0.00000000000E+00  0.00000000000E+00  0.22391389563E+04  0.22391389563E+04  0.00000000000E+00 0. -1.
         21   -1    0    0  501  502  0.00000000000E+00 -0.00000000000E+00 -0.10260157495E+02  0.10260157495E+02  0.00000000000E+00 0.  1.
         21    1    1    2  503  502  0.14633812495E+03  0.24999260811E+02  0.88765266541E+03  0.89998170218E+03  0.00000000000E+00 0.  1.
          1    1    1    2  501    0 -0.14633812495E+03 -0.24999260811E+02  0.13412261334E+04  0.13494174116E+04  0.00000000000E+00 0. -1.
<mgrwt>
<rscale>  2 0.14845811E+03</rscale>
<asrwt>0</asrwt>
<pdfrwt beam="2">  1       21 0.15784875E-02 0.14845811E+03</pdfrwt>
<pdfrwt beam="1">  1        1 0.34448253E+00 0.14845811E+03</pdfrwt>
<totfact> 0.49384438E+04</totfact>
</mgrwt>
</event>
<event>
 4    1  0.5134057E+003  0.1313795E+03  0.7546771E-02  0.1225423E+00
         21   -1    0    0  503  502  0.00000000000E+00  0.00000000000E+00  0.41049088298E+02  0.41049088298E+02  0.00000000000E+00 0.  1.
          2   -1    0    0  502    0 -0.00000000000E+00 -0.00000000000E+00 -0.54948412459E+03  0.54948412459E+03  0.00000000000E+00 0.  1.
         21    1    1    2  503  501  0.13051162300E+03 -0.15075772901E+02 -0.11115408874E+03  0.17209239993E+03  0.00000000000E+00 0.  1.
          2    1    1    2  501    0 -0.13051162300E+03  0.15075772901E+02 -0.39728094755E+03  0.41844081296E+03  0.00000000000E+00 0.  1.
<mgrwt>
<rscale>  2 0.13137946E+03</rscale>
<asrwt>0</asrwt>
<pdfrwt beam="1">  1       21 0.63152448E-02 0.13137946E+03</pdfrwt>
<pdfrwt beam="2">  1        2 0.84536014E-01 0.13137946E+03</pdfrwt>
<totfact> 0.12559804E+05</totfact>
</mgrwt>
</event>
<event>
 4    1  0.5134057E+003  0.2870312E+03  0.7546771E-02  0.1091909E+00
         21   -1    0    0  501  502  0.00000000000E+00  0.00000000000E+00  0.31864663025E+03  0.31864663025E+03  0.00000000000E+00 0.  1.
          1   -1    0    0  503    0 -0.00000000000E+00 -0.00000000000E+00 -0.31968203011E+03  0.31968203011E+03  0.00000000000E+00 0. -1.
         21    1    1    2  503  502  0.82569154761E+02  0.27489857345E+03  0.13904863516E+03  0.31893794685E+03  0.00000000000E+00 0.  1.
          1    1    1    2  501    0 -0.82569154761E+02 -0.27489857345E+03 -0.14008403502E+03  0.31939071350E+03  0.00000000000E+00 0. -1.
<mgrwt>
<rscale>  2 0.28703117E+03</rscale>
<asrwt>0</asrwt>
<pdfrwt beam="1">  1       21 0.49022558E-01 0.28703117E+03</pdfrwt>
<pdfrwt beam="2">  1        1 0.49181851E-01 0.28703117E+03</pdfrwt>
<totfact> 0.34158867E+03</totfact>
</mgrwt>
</event>
<event>
 4    1  0.5134057E+003  0.1117329E+03  0.7546771E-02  0.1257394E+00
          2   -1    0    0  503    0 -0.00000000000E+00  0.00000000000E+00  0.27421660480E+04  0.27421660480E+04  0.00000000000E+00 0.  1.
         21   -1    0    0  501  502  0.00000000000E+00 -0.00000000000E+00 -0.23525490901E+02  0.23525490901E+02  0.00000000000E+00 0.  1.
         21    1    1    2  503  502 -0.10857210923E+03  0.26388046380E+02  0.11746747242E+03  0.16211982905E+03  0.00000000000E+00 0.  1.
          2    1    1    2  501    0  0.10857210923E+03 -0.26388046380E+02  0.26011730847E+04  0.26035717098E+04  0.00000000000E+00 0.  1.
<mgrwt>
<rscale>  2 0.11173286E+03</rscale>
<asrwt>0</asrwt>
<pdfrwt beam="2">  1       21 0.36193085E-02 0.11173286E+03</pdfrwt>
<pdfrwt beam="1">  1        2 0.42187145E+00 0.11173286E+03</pdfrwt>
<totfact> 0.18620172E+04</totfact>
</mgrwt>
</event>
<event>
 4    1  0.5134057E+003  0.1025389E+03  0.7546771E-02  0.1275046E+00
         21   -1    0    0  501  502  0.00000000000E+00  0.00000000000E+00  0.18182579144E+02  0.18182579144E+02  0.00000000000E+00 0. -1.
         -1   -1    0    0    0  501 -0.00000000000E+00 -0.00000000000E+00 -0.71974837798E+03  0.71974837798E+03  0.00000000000E+00 0.  1.
         21    1    1    2  503  502  0.10133683348E+03 -0.15654948144E+02 -0.18719241088E+03  0.21343671172E+03  0.00000000000E+00 0. -1.
         -1    1    1    2    0  503 -0.10133683348E+03  0.15654948144E+02 -0.51437338796E+03  0.52449424540E+03  0.00000000000E+00 0.  1.
<mgrwt>
<rscale>  2 0.10253893E+03</rscale>
<asrwt>0</asrwt>
<pdfrwt beam="1">  1       21 0.27973197E-02 0.10253893E+03</pdfrwt>
<pdfrwt beam="2">  1       -1 0.11073053E+00 0.10253893E+03</pdfrwt>
<totfact> 0.52373295E+04</totfact>
</mgrwt>
</event>
<event>
 4    1  0.5134057E+003  0.1023050E+03  0.7546771E-02  0.1275522E+00
         -3   -1    0    0    0  501 -0.00000000000E+00  0.00000000000E+00  0.96233608297E+02  0.96233608297E+02  0.00000000000E+00 0.  1.
         21   -1    0    0  503  502  0.00000000000E+00 -0.00000000000E+00 -0.20008867292E+03  0.20008867292E+03  0.00000000000E+00 0.  1.
         21    1    1    2  503  501  0.61429040350E+02  0.81809487778E+02 -0.15202608982E+03  0.18324369369E+03  0.00000000000E+00 0.  1.
         -3    1    1    2    0  502 -0.61429040350E+02 -0.81809487778E+02  0.48171025202E+02  0.11307858753E+03  0.00000000000E+00 0.  1.
<mgrwt>
<rscale>  2 0.10230503E+03</rscale>
<asrwt>0</asrwt>
<pdfrwt beam="2">  1       21 0.30782872E-01 0.10230503E+03</pdfrwt>
<pdfrwt beam="1">  1       -3 0.14805171E-01 0.10230503E+03</pdfrwt>
<totfact> 0.18204981E+04</totfact>
</mgrwt>
</event>
<event>
 4    1  0.5134057E+003  0.1321434E+03  0.7546771E-02  0.1224309E+00
         21   -1    0    0  503  502  0.00000000000E+00  0.00000000000E+00  0.28797129237E+02  0.28797129237E+02  0.00000000000E+00 0. -1.
          2   -1    0    0  502    0 -0.00000000000E+00 -0.00000000000E+00 -0.86815303048E+03  0.86815303048E+03  0.00000000000E+00 0. -1.
         21    1    1    2  503  501 -0.11776533906E+03 -0.59943385604E+02 -0.17341105166E+03  0.21802127740E+03  0.00000000000E+00 0. -1.
          2    1    1    2  501    0  0.11776533906E+03  0.59943385604E+02 -0.66594484958E+03  0.67892888232E+03  0.00000000000E+00 0. -1.
<mgrwt>
<rscale>  2 0.13214342E+03</rscale>
<asrwt>0</asrwt>
<pdfrwt beam="1">  1       21 0.44303283E-02 0.13214342E+03</pdfrwt>
<pdfrwt beam="2">  1        2 0.13356198E+00 0.13214342E+03</pdfrwt>
<totfact> 0.13266014E+05</totfact>
</mgrwt>
</event>
<event>
 4    1  0.5134057E+003  0.1283840E+03  0.7546771E-02  0.1229873E+00
         -4   -1    0    0    0  501 -0.00000000000E+00  0.00000000000E+00  0.77481985745E+01  0.77481985745E+01  0.00000000000E+00 0. -1.
         21   -1    0    0  503  502  0.00000000000E+00 -0.00000000000E+00 -0.23374504017E+04  0.23374504017E+04  0.00000000000E+00 0. -1.
         21    1    1    2  503  501 -0.27162335098E+02 -0.12547777310E+03 -0.81322530964E+03  0.82329695021E+03  0.00000000000E+00 0. -1.
         -4    1    1    2    0  502  0.27162335098E+02  0.12547777310E+03 -0.15164768935E+04  0.15219016501E+04  0.00000000000E+00 0. -1.
<mgrwt>
<rscale>  2 0.12838405E+03</rscale>
<asrwt>0</asrwt>
<pdfrwt beam="2">  1       21 0.35960843E+00 0.12838405E+03</pdfrwt>
<pdfrwt beam="1">  1       -4 0.11920283E-02 0.12838405E+03</pdfrwt>
<totfact> 0.15215074E+03</totfact>
</mgrwt>
</event>
<event>
 4    1  0.5134057E+003  0.1613272E+03  0.7546771E-02  0.1187206E+00
          3   -1    0    0  503    0 -0.00000000000E+00  0.00000000000E+00  0.78083295962E+02  0.78083295962E+02  0.00000000000E+00 0. -1.
         21   -1    0    0  501  502  0.00000000000E+00 -0.00000000000E+00 -0.52099920851E+03  0.52099920851E+03  0.00000000000E+00 0. -1.
         21    1    1    2  503  502 -0.14464695718E+03 -0.71440358089E+02 -0.40124152721E+03  0.43245951272E+03  0.00000000000E+00 0. -1.
          3    1    1    2  501    0  0.14464695718E+03  0.71440358089E+02 -0.41674385338E+02  0.16662299175E+03  0.00000000000E+00 0. -1.
<mgrwt>
<rscale>  2 0.16132720E+03</rscale>
<asrwt>0</asrwt>
<pdfrwt beam="2">  1       21 0.80153726E-01 0.16132720E+03</pdfrwt>
<pdfrwt beam="1">  1        3 0.12012815E-01 0.16132720E+03</pdfrwt>
<totfact> 0.36534195E+03</totfact>
</mgrwt>
</event>
<event>
 4    1  0.5134057E+003  0.1005009E+03  0.7546771E-02  0.1279246E+00
          1   -1    0    0  502    0 -0.00000000000E+00  0.00000000000E+00  0.16313783164E+04  0.16313783164E+04  0.00000000000E+00 0.  1.
         21   -1    0    0  503  502  0.00000000000E+00 -0.00000000000E+00 -0.16219354482E+02  0.16219354482E+02  0.00000000000E+00 0. -1.
         21    1    1    2  503  501 -0.11037220751E+00 -0.10050080855E+03  0.15982298667E+03  0.18879568790E+03  0.00000000000E+00 0. -1.
          1    1    1    2  501    0  0.11037220751E+00  0.10050080855E+03  0.14553359752E+04  0.14588019830E+04  0.00000000000E+00 0.  1.
<mgrwt>
<rscale>  2 0.10050087E+03</rscale>
<asrwt>0</asrwt>
<pdfrwt beam="2">  1       21 0.24952866E-02 0.10050087E+03</pdfrwt>
<pdfrwt beam="1">  1        1 0.25098115E+00 0.10050087E+03</pdfrwt>
<totfact> 0.57852987E+04</totfact>
</mgrwt>
</event>
<event>
 4    1  0.5134057E+003  0.1580979E+03  0.7546771E-02  0.1190861E+00
         -2   -1    0    0    0  501 -0.00000000000E+00  0.00000000000E+00  0.11167639867E+04  0.11167639867E+04  0.00000000000E+00 0. -1.
         21   -1    0    0  501  502  0.00000000000E+00 -0.00000000000E+00 -0.23653650801E+02  0.23653650801E+02  0.00000000000E+00 0. -1.
         21    1    1    2  503  502 -0.88731345696E+01  0.15784865803E+03  0.41432145710E+03  0.44346048435E+03  0.00000000000E+00 0. -1.
         -2    1    1    2    0  503  0.88731345696E+01 -0.15784865803E+03  0.67878887884E+03  0.69695715320E+03  0.00000000000E+00 0. -1.
<mgrwt>
<rscale>  2 0.15809785E+03</rscale>
<asrwt>0</asrwt>
<pdfrwt beam="2">  1       21 0.36390241E-02 0.15809785E+03</pdfrwt>
<pdfrwt beam="1">  1       -2 0.17180980E+00 0.15809785E+03</pdfrwt>
<totfact> 0.84153308E+03</totfact>
</mgrwt>
</event>
<event>
 4    1  0.5134057E+003  0.1325709E+03  0.7546771E-02  0.1223690E+00
          1   -1    0    0  502    0 -0.00000000000E+00  0.00000000000E+00  0.18044626554E+04  0.18044626554E+04  0.00000000000E+00 0.  1.
         21   -1    0    0  503  502  0.00000000000E+00 -0.00000000000E+00 -0.50320776280E+02  0.50320776280E+02  0.00000000000E+00 0. -1.
         21    1    1    2  503  501  0.10595726440E+03 -0.79675055163E+02  0.44251340545E+02  0.13976135888E+03  0.00000000000E+00 0. -1.
          1    1    1    2  501    0 -0.10595726440E+03  0.79675055163E+02  0.17098905386E+04  0.17150220728E+04  0.00000000000E+00 0.  1.
<mgrwt>
<rscale>  2 0.13257095E+03</rscale>
<asrwt>0</asrwt>
<pdfrwt beam="2">  1       21 0.77416593E-02 0.13257095E+03</pdfrwt>
<pdfrwt beam="1">  1        1 0.27760959E+00 0.13257095E+03</pdfrwt>
<totfact> 0.67386957E+03</totfact>
</mgrwt>
</event>
<event>
 4    1  0.5134057E+003  0.1087117E+03  0.7546771E-02  0.1262974E+00
          2   -1    0    0  502    0 -0.00000000000E+00  0.00000000000E+00  0.12055871782E+04  0.12055871782E+04  0.00000000000E+00 0.  1.
         21   -1    0    0  503  502  0.00000000000E+00 -0.00000000000E+00 -0.25844194443E+02  0.25844194443E+02  0.00000000000E+00 0.  1.
         21    1    1    2  503  501 -0.10285618746E+03 -0.35197132993E+02  0.10478563210E+03  0.15099093405E+03  0.00000000000E+00 0.  1.
          2    1    1    2  501    0  0.10285618746E+03  0.35197132993E+02  0.10749573517E+04  0.10804404386E+04  0.00000000000E+00 0.  1.
<mgrwt>
<rscale>  2 0.10871170E+03</rscale>
<asrwt>0</asrwt>
<pdfrwt beam="2">  1       21 0.39760309E-02 0.10871170E+03</pdfrwt>
<pdfrwt beam="1">  1        2 0.18547491E+00 0.10871170E+03</pdfrwt>
<totfact> 0.10030381E+05</totfact>
</mgrwt>
</event>
<event>
 4    1  0.5134057E+003  0.1000729E+03  0.7546771E-02  0.1280143E+00
         -1   -1    0    0    0  501 -0.00000000000E+00  0.00000000000E+00  0.50891107431E+02  0.50891107431E+02  0.00000000000E+00 0.  1.
         21   -1    0    0  503  502  0.00000000000E+00 -0.00000000000E+00 -0.10109818758E+04  0.10109818758E+04  0.00000000000E+00 0. -1.
         21    1    1    2  503  501 -0.98367065686E+02 -0.18398790996E+02 -0.95651549963E+03  0.96173618844E+03  0.00000000000E+00 0. -1.
         -1    1    1    2    0  502  0.98367065686E+02  0.18398790996E+02 -0.35752687243E+01  0.10013679478E+03  0.00000000000E+00 0.  1.
<mgrwt>
<rscale>  2 0.10007295E+03</rscale>
<asrwt>0</asrwt>
<pdfrwt beam="2">  1       21 0.15553568E+00 0.10007295E+03</pdfrwt>
<pdfrwt beam="1">  1       -1 0.78294009E-02 0.10007295E+03</pdfrwt>
<totfact> 0.22513837E+03</totfact>
</mgrwt>
</event>
<event>
 4    1  0.5134057E+003  0.1164768E+03  0.7546771E-02  0.1249025E+00
         21   -1    0    0  503  502  0.00000000000E+00  0.00000000000E+00  0.17773689868E+03  0.17773689868E+03  0.00000000000E+00 0.  1.
          1   -1    0    0  502    0 -0.00000000000E+00 -0.00000000000E+00 -0.12557033845E+04  0.12557033845E+04  0.00000000000E+00 0.  1.
         21    1    1    2  503  501  0.88184251192E+02 -0.76094604114E+02  0.15561157338E+03  0.19437544264E+03  0.00000000000E+00 0.  1.
          1    1    1    2  501    0 -0.88184251192E+02  0.76094604114E+02 -0.12335780592E+04  0.12390648406E+04  0.00000000000E+00 0.  1.
<mgrwt>
<rscale>  2 0.11647683E+03</rscale>
<asrwt>0</asrwt>
<pdfrwt beam="1">  1       21 0.27344140E-01 0.11647683E+03</pdfrwt>
<pdfrwt beam="2">  1        1 0.19318513E+00 0.11647683E+03</pdfrwt>
<totfact> 0.15882231E+03</totfact>
</mgrwt>
</event>
<event>
 4    1  0.5134057E+003  0.1502940E+03  0.7546771E-02  0.1200112E+00
         21   -1    0    0  503  502  0.00000000000E+00  0.00000000000E+00  0.41880041592E+03  0.41880041592E+03  0.00000000000E+00 0.  1.
          2   -1    0    0  502    0 -0.00000000000E+00 -0.00000000000E+00 -0.85835341902E+03  0.85835341902E+03  0.00000000000E+00 0.  1.
         21    1    1    2  503  501 -0.12035739249E+03  0.90013188576E+02  0.39841206842E+03  0.42581739314E+03  0.00000000000E+00 0.  1.
          2    1    1    2  501    0  0.12035739249E+03 -0.90013188576E+02 -0.83796507152E+03  0.85133644180E+03  0.00000000000E+00 0.  1.
<mgrwt>
<rscale>  2 0.15029397E+03</rscale>
<asrwt>0</asrwt>
<pdfrwt beam="1">  1       21 0.64430835E-01 0.15029397E+03</pdfrwt>
<pdfrwt beam="2">  1        2 0.13205437E+00 0.15029397E+03</pdfrwt>
<totfact> 0.93672830E+02</totfact>
</mgrwt>
</event>
<event>
 4    1  0.5134057E+003  0.1279550E+03  0.7546771E-02  0.1230522E+00
         21   -1    0    0  501  502  0.00000000000E+00  0.00000000000E+00  0.20022715143E+02  0.20022715143E+02  0.00000000000E+00 0.  1.
          2   -1    0    0  503    0 -0.00000000000E+00 -0.00000000000E+00 -0.10638790175E+04  0.10638790175E+04  0.00000000000E+00 0.  1.
         21    1    1    2  503  502 -0.83211383792E+02 -0.97202665433E+02 -0.26122702610E+03  0.29088150804E+03  0.00000000000E+00 0.  1.
          2    1    1    2  501    0  0.83211383792E+02  0.97202665433E+02 -0.78262927630E+03  0.79302022463E+03  0.00000000000E+00 0.  1.
<mgrwt>
<rscale>  2 0.12795504E+03</rscale>
<asrwt>0</asrwt>
<pdfrwt beam="1">  1       21 0.30804180E-02 0.12795504E+03</pdfrwt>
<pdfrwt beam="2">  1        2 0.16367368E+00 0.12795504E+03</pdfrwt>
<totfact> 0.18396415E+05</totfact>
</mgrwt>
</event>
<event>
 4    1  0.5134057E+003  0.1167591E+03  0.7546771E-02  0.1248541E+00
          1   -1    0    0  503    0 -0.00000000000E+00  0.00000000000E+00  0.15658498738E+04  0.15658498738E+04  0.00000000000E+00 0.  1.
         21   -1    0    0  501  502  0.00000000000E+00 -0.00000000000E+00 -0.88855447570E+01  0.88855447570E+01  0.00000000000E+00 0.  1.
         21    1    1    2  503  502  0.22270913538E+02  0.11461545707E+03  0.89032467149E+03  0.89794805933E+03  0.00000000000E+00 0.  1.
          1    1    1    2  501    0 -0.22270913538E+02 -0.11461545707E+03  0.66663965758E+03  0.67678735926E+03  0.00000000000E+00 0.  1.
<mgrwt>
<rscale>  2 0.11675914E+03</rscale>
<asrwt>0</asrwt>
<pdfrwt beam="2">  1       21 0.13670081E-02 0.11675914E+03</pdfrwt>
<pdfrwt beam="1">  1        1 0.24089976E+00 0.11675914E+03</pdfrwt>
<totfact> 0.16712736E+05</totfact>
</mgrwt>
</event>
<event>
 4    1  0.5134057E+003  0.1027542E+03  0.7546771E-02  0.1274609E+00
          1   -1    0    0  503    0 -0.00000000000E+00  0.00000000000E+00  0.10366412786E+04  0.10366412786E+04  0.00000000000E+00 0. -1.
         21   -1    0    0  501  502  0.00000000000E+00 -0.00000000000E+00 -0.19514321800E+02  0.19514321800E+02  0.00000000000E+00 0. -1.
         21    1    1    2  503  502 -0.77986834626E+02 -0.66906499839E+02  0.14343900214E+03  0.17644595045E+03  0.00000000000E+00 0. -1.
          1    1    1    2  501    0  0.77986834626E+02  0.66906499839E+02  0.87368795461E+03  0.87970964990E+03  0.00000000000E+00 0. -1.
<mgrwt>
<rscale>  2 0.10275420E+03</rscale>
<asrwt>0</asrwt>
<pdfrwt beam="2">  1       21 0.30022042E-02 0.10275420E+03</pdfrwt>
<pdfrwt beam="1">  1        1 0.15948323E+00 0.10275420E+03</pdfrwt>
<totfact> 0.10607388E+05</totfact>
</mgrwt>
</event>
<event>
 4    1  0.5134057E+003  0.1914528E+03  0.7546771E-02  0.1157158E+00
          1   -1    0    0  502    0 -0.00000000000E+00  0.00000000000E+00  0.12044241388E+04  0.12044241388E+04  0.00000000000E+00 0.  1.
         21   -1    0    0  503  502  0.00000000000E+00 -0.00000000000E+00 -0.34344395294E+03  0.34344395294E+03  0.00000000000E+00 0. -1.
         21    1    1    2  503  501  0.16908378215E+03  0.89804473626E+02 -0.30835913385E+03  0.36295939759E+03  0.00000000000E+00 0. -1.
          1    1    1    2  501    0 -0.16908378215E+03 -0.89804473626E+02  0.11693393197E+04  0.11849086942E+04  0.00000000000E+00 0.  1.
<mgrwt>
<rscale>  2 0.19145278E+03</rscale>
<asrwt>0</asrwt>
<pdfrwt beam="2">  1       21 0.52837532E-01 0.19145278E+03</pdfrwt>
<pdfrwt beam="1">  1        1 0.18529602E+00 0.19145278E+03</pdfrwt>
<totfact> 0.43623950E+02</totfact>
</mgrwt>
</event>
<event>
 4    1  0.5134057E+003  0.1171301E+03  0.7546771E-02  0.1247908E+00
          1   -1    0    0  502    0 -0.00000000000E+00  0.00000000000E+00  0.10412285154E+04  0.10412285154E+04  0.00000000000E+00 0.  1.
         21   -1    0    0  503  502  0.00000000000E+00 -0.00000000000E+00 -0.36561394996E+03  0.36561394996E+03  0.00000000000E+00 0. -1.
         21    1    1    2  503  501  0.61700073302E+02 -0.99561808873E+02 -0.35282248564E+03  0.37175685495E+03  0.00000000000E+00 0. -1.
          1    1    1    2  501    0 -0.61700073302E+02  0.99561808873E+02  0.10284370511E+04  0.10350856104E+04  0.00000000000E+00 0.  1.
<mgrwt>
<rscale>  2 0.11713007E+03</rscale>
<asrwt>0</asrwt>
<pdfrwt beam="2">  1       21 0.56248301E-01 0.11713007E+03</pdfrwt>
<pdfrwt beam="1">  1        1 0.16018900E+00 0.11713007E+03</pdfrwt>
<totfact> 0.53072511E+02</totfact>
</mgrwt>
</event>
<event>
 4    1  0.5134057E+003  0.1854743E+03  0.7546771E-02  0.1162608E+00
          2   -1    0    0  503    0 -0.00000000000E+00  0.00000000000E+00  0.83160247477E+03  0.83160247477E+03  0.00000000000E+00 0. -1.
         21   -1    0    0  501  502  0.00000000000E+00 -0.00000000000E+00 -0.12409668364E+03  0.12409668364E+03  0.00000000000E+00 0.  1.
         21    1    1    2  503  502 -0.71475290633E+02 -0.17114902118E+03 -0.36406812155E+02  0.18901365187E+03  0.00000000000E+00 0.  1.
          2    1    1    2  501    0  0.71475290633E+02  0.17114902118E+03  0.74391260329E+03  0.76668550655E+03  0.00000000000E+00 0. -1.
<mgrwt>
<rscale>  2 0.18547427E+03</rscale>
<asrwt>0</asrwt>
<pdfrwt beam="2">  1       21 0.19091798E-01 0.18547427E+03</pdfrwt>
<pdfrwt beam="1">  1        2 0.12793884E+00 0.18547427E+03</pdfrwt>
<totfact> 0.10773419E+04</totfact>
</mgrwt>
</event>
<event>
 4    1  0.5134057E+003  0.1284132E+03  0.7546771E-02  0.1229829E+00
         21   -1    0    0  503  502  0.00000000000E+00  0.00000000000E+00  0.58704010085E+02  0.58704010085E+02  0.00000000000E+00 0. -1.
         -4   -1    0    0    0  501 -0.00000000000E+00 -0.00000000000E+00 -0.41453301765E+03  0.41453301765E+03  0.00000000000E+00 0.  1.
         21    1    1    2  503  501 -0.23189439463E+02 -0.12630205229E+03 -0.43568117650E+02  0.13560287383E+03  0.00000000000E+00 0. -1.
         -4    1    1    2    0  502  0.23189439463E+02  0.12630205229E+03 -0.31226088992E+03  0.33763415391E+03  0.00000000000E+00 0.  1.
<mgrwt>
<rscale>  2 0.12841323E+03</rscale>
<asrwt>0</asrwt>
<pdfrwt beam="1">  1       21 0.90313865E-02 0.12841323E+03</pdfrwt>
<pdfrwt beam="2">  1       -4 0.63774308E-01 0.12841323E+03</pdfrwt>
<totfact> 0.92181304E+03</totfact>
</mgrwt>
</event>
<event>
 4    1  0.5134057E+003  0.1114651E+03  0.7546771E-02  0.1257881E+00
         21   -1    0    0  501  502  0.00000000000E+00  0.00000000000E+00  0.75337527836E+02  0.75337527836E+02  0.00000000000E+00 0.  1.
          1   -1    0    0  503    0 -0.00000000000E+00 -0.00000000000E+00 -0.18716678031E+03  0.18716678031E+03  0.00000000000E+00 0.  1.
         21    1    1    2  503  502 -0.81170383833E+02 -0.76392679633E+02 -0.10661294300E+02  0.11197381796E+03  0.00000000000E+00 0.  1.
          1    1    1    2  501    0  0.81170383833E+02  0.76392679633E+02 -0.10116795817E+03  0.15053049018E+03  0.00000000000E+00 0.  1.
<mgrwt>
<rscale>  2 0.11146512E+03</rscale>
<asrwt>0</asrwt>
<pdfrwt beam="1">  1       21 0.11590389E-01 0.11146512E+03</pdfrwt>
<pdfrwt beam="2">  1        1 0.28794889E-01 0.11146512E+03</pdfrwt>
<totfact> 0.10598170E+05</totfact>
</mgrwt>
</event>
<event>
 4    1  0.5134057E+003  0.1475877E+03  0.7546771E-02  0.1203469E+00
          2   -1    0    0  502    0 -0.00000000000E+00  0.00000000000E+00  0.28624213496E+03  0.28624213496E+03  0.00000000000E+00 0.  1.
         21   -1    0    0  503  502  0.00000000000E+00 -0.00000000000E+00 -0.15259950946E+03  0.15259950946E+03  0.00000000000E+00 0.  1.
         21    1    1    2  503  501  0.64305794636E+02  0.13284160437E+03 -0.88538794810E+02  0.17210823705E+03  0.00000000000E+00 0.  1.
          2    1    1    2  501    0 -0.64305794636E+02 -0.13284160437E+03  0.22218142030E+03  0.26673340736E+03  0.00000000000E+00 0.  1.
<mgrwt>
<rscale>  2 0.14758769E+03</rscale>
<asrwt>0</asrwt>
<pdfrwt beam="2">  1       21 0.23476848E-01 0.14758769E+03</pdfrwt>
<pdfrwt beam="1">  1        2 0.44037251E-01 0.14758769E+03</pdfrwt>
<totfact> 0.24432946E+04</totfact>
</mgrwt>
</event>
<event>
 4    1  0.5134057E+003  0.1138659E+03  0.7546771E-02  0.1253574E+00
         21   -1    0    0  503  502  0.00000000000E+00  0.00000000000E+00  0.19285661075E+02  0.19285661075E+02  0.00000000000E+00 0. -1.
          2   -1    0    0  502    0 -0.00000000000E+00 -0.00000000000E+00 -0.36404069231E+04  0.36404069231E+04  0.00000000000E+00 0. -1.
         21    1    1    2  503  501 -0.11362777609E+03  0.73600898600E+01 -0.15829228772E+03  0.19499202746E+03  0.00000000000E+00 0. -1.
          2    1    1    2  501    0  0.11362777609E+03 -0.73600898600E+01 -0.34628289743E+04  0.34647005567E+04  0.00000000000E+00 0. -1.
<mgrwt>
<rscale>  2 0.11386590E+03</rscale>
<asrwt>0</asrwt>
<pdfrwt beam="1">  1       21 0.29670265E-02 0.11386590E+03</pdfrwt>
<pdfrwt beam="2">  1        2 0.56006227E+00 0.11386590E+03</pdfrwt>
<totfact> 0.74318057E+03</totfact>
</mgrwt>
</event>
<event>
 4    1  0.5134057E+003  0.1120791E+03  0.7546771E-02  0.1256767E+00
         21   -1    0    0  501  502  0.00000000000E+00  0.00000000000E+00  0.92459254983E+02  0.92459254983E+02  0.00000000000E+00 0.  1.
          3   -1    0    0  503    0 -0.00000000000E+00 -0.00000000000E+00 -0.24688280849E+03  0.24688280849E+03  0.00000000000E+00 0. -1.
         21    1    1    2  503  502 -0.72908445696E+02 -0.85123987880E+02  0.36567644061E+02  0.11789371212E+03  0.00000000000E+00 0.  1.
          3    1    1    2  501    0  0.72908445696E+02  0.85123987880E+02 -0.19099119757E+03  0.22144835135E+03  0.00000000000E+00 0. -1.
<mgrwt>
<rscale>  2 0.11207915E+03</rscale>
<asrwt>0</asrwt>
<pdfrwt beam="1">  1       21 0.14224501E-01 0.11207915E+03</pdfrwt>
<pdfrwt beam="2">  1        3 0.37981970E-01 0.11207915E+03</pdfrwt>
<totfact> 0.14157016E+04</totfact>
</mgrwt>
</event>
<event>
 4    1  0.5134057E+003  0.1846242E+03  0.7546771E-02  0.1163401E+00
         21   -1    0    0  501  502  0.00000000000E+00  0.00000000000E+00  0.58424892746E+03  0.58424892746E+03  0.00000000000E+00 0.  1.
          1   -1    0    0  503    0 -0.00000000000E+00 -0.00000000000E+00 -0.16586535225E+03  0.16586535225E+03  0.00000000000E+00 0.  1.
         21    1    1    2  503  502 -0.11819700305E+03 -0.14182940350E+03  0.51116712874E+03  0.54348683953E+03  0.00000000000E+00 0.  1.
          1    1    1    2  501    0  0.11819700305E+03  0.14182940350E+03 -0.92783553538E+02  0.20662744018E+03  0.00000000000E+00 0.  1.
<mgrwt>
<rscale>  2 0.18462424E+03</rscale>
<asrwt>0</asrwt>
<pdfrwt beam="1">  1       21 0.89884449E-01 0.18462424E+03</pdfrwt>
<pdfrwt beam="2">  1        1 0.25517747E-01 0.18462424E+03</pdfrwt>
<totfact> 0.21289440E+03</totfact>
</mgrwt>
</event>
<event>
 4    1  0.5134057E+003  0.1527206E+03  0.7546771E-02  0.1197169E+00
          1   -1    0    0  502    0 -0.00000000000E+00  0.00000000000E+00  0.84972524736E+03  0.84972524736E+03  0.00000000000E+00 0.  1.
         21   -1    0    0  503  502  0.00000000000E+00 -0.00000000000E+00 -0.10267731464E+03  0.10267731464E+03  0.00000000000E+00 0.  1.
         21    1    1    2  503  501 -0.82982114660E+02  0.12820901517E+03 -0.34086905726E+02  0.15647843323E+03  0.00000000000E+00 0.  1.
          1    1    1    2  501    0  0.82982114660E+02 -0.12820901517E+03  0.78113483845E+03  0.79592412877E+03  0.00000000000E+00 0.  1.
<mgrwt>
<rscale>  2 0.15272060E+03</rscale>
<asrwt>0</asrwt>
<pdfrwt beam="2">  1       21 0.15796510E-01 0.15272060E+03</pdfrwt>
<pdfrwt beam="1">  1        1 0.13072696E+00 0.15272060E+03</pdfrwt>
<totfact> 0.84754273E+03</totfact>
</mgrwt>
</event>
<event>
 4    1  0.5134057E+003  0.1060157E+03  0.7546771E-02  0.1268131E+00
          1   -1    0    0  502    0 -0.00000000000E+00  0.00000000000E+00  0.20002299639E+04  0.20002299639E+04  0.00000000000E+00 0.  1.
         21   -1    0    0  503  502  0.00000000000E+00 -0.00000000000E+00 -0.95667197478E+02  0.95667197478E+02  0.00000000000E+00 0. -1.
         21    1    1    2  503  501  0.94335198822E+02 -0.48375696057E+02 -0.64425830505E+02  0.12405654091E+03  0.00000000000E+00 0. -1.
          1    1    1    2  501    0 -0.94335198822E+02  0.48375696057E+02  0.19689885969E+04  0.19718406205E+04  0.00000000000E+00 0.  1.
<mgrwt>
<rscale>  2 0.10601574E+03</rscale>
<asrwt>0</asrwt>
<pdfrwt beam="2">  1       21 0.14718032E-01 0.10601574E+03</pdfrwt>
<pdfrwt beam="1">  1        1 0.30772765E+00 0.10601574E+03</pdfrwt>
<totfact> 0.16746026E+03</totfact>
</mgrwt>
</event>
<event>
 4    1  0.5134057E+003  0.1755423E+03  0.7546771E-02  0.1172188E+00
         21   -1    0    0  501  502  0.00000000000E+00  0.00000000000E+00  0.75391555885E+03  0.75391555885E+03  0.00000000000E+00 0. -1.
         -2   -1    0    0    0  501 -0.00000000000E+00 -0.00000000000E+00 -0.69197026323E+02  0.69197026323E+02  0.00000000000E+00 0. -1.
         21    1    1    2  503  502 -0.17116837681E+03 -0.38942053633E+02  0.60566475499E+03  0.63059090716E+03  0.00000000000E+00 0. -1.
         -2    1    1    2    0  503  0.17116837681E+03  0.38942053633E+02  0.79053777535E+02  0.19252167801E+03  0.00000000000E+00 0. -1.
<mgrwt>
<rscale>  2 0.17554229E+03</rscale>
<asrwt>0</asrwt>
<pdfrwt beam="1">  1       21 0.11598700E+00 0.17554229E+03</pdfrwt>
<pdfrwt beam="2">  1       -2 0.10645697E-01 0.17554229E+03</pdfrwt>
<totfact> 0.27229216E+03</totfact>
</mgrwt>
</event>
<event>
 4    1  0.5134057E+003  0.1176063E+03  0.7546771E-02  0.1247099E+00
          2   -1    0    0  503    0 -0.00000000000E+00  0.00000000000E+00  0.33057010343E+03  0.33057010343E+03  0.00000000000E+00 0.  1.
         21   -1    0    0  501  502  0.00000000000E+00 -0.00000000000E+00 -0.23036109474E+03  0.23036109474E+03  0.00000000000E+00 0. -1.
         21    1    1    2  503  502 -0.11693347479E+03 -0.12562431743E+02 -0.20361526959E+03  0.23513917204E+03  0.00000000000E+00 0. -1.
          2    1    1    2  501    0  0.11693347479E+03  0.12562431743E+02  0.30382427828E+03  0.32579202613E+03  0.00000000000E+00 0.  1.
<mgrwt>
<rscale>  2 0.11760634E+03</rscale>
<asrwt>0</asrwt>
<pdfrwt beam="2">  1       21 0.35440169E-01 0.11760634E+03</pdfrwt>
<pdfrwt beam="1">  1        2 0.50856939E-01 0.11760634E+03</pdfrwt>
<totfact> 0.95475014E+03</totfact>
</mgrwt>
</event>
<event>
 4    1  0.5134057E+003  0.1573938E+03  0.7546771E-02  0.1191671E+00
          2   -1    0    0  502    0 -0.00000000000E+00  0.00000000000E+00  0.20377111670E+04  0.20377111670E+04  0.00000000000E+00 0.  1.
         21   -1    0    0  503  502  0.00000000000E+00 -0.00000000000E+00 -0.18708889158E+02  0.18708889158E+02  0.00000000000E+00 0. -1.
         21    1    1    2  503  501  0.13673568971E+03 -0.77949744545E+02  0.40103656085E+03  0.43081682262E+03  0.00000000000E+00 0. -1.
          2    1    1    2  501    0 -0.13673568971E+03  0.77949744545E+02  0.16179657170E+04  0.16256032336E+04  0.00000000000E+00 0.  1.
<mgrwt>
<rscale>  2 0.15739381E+03</rscale>
<asrwt>0</asrwt>
<pdfrwt beam="2">  1       21 0.28782923E-02 0.15739381E+03</pdfrwt>
<pdfrwt beam="1">  1        2 0.31349385E+00 0.15739381E+03</pdfrwt>
<totfact> 0.62889170E+04</totfact>
</mgrwt>
</event>
<event>
 4    1  0.5134057E+003  0.1356546E+03  0.7546771E-02  0.1219299E+00
          4   -1    0    0  502    0 -0.00000000000E+00  0.00000000000E+00  0.77687974196E+03  0.77687974196E+03  0.00000000000E+00 0. -1.
         21   -1    0    0  503  502  0.00000000000E+00 -0.00000000000E+00 -0.96743213778E+02  0.96743213778E+02  0.00000000000E+00 0.  1.
         21    1    1    2  503  501  0.98808326389E+01  0.13529426588E+03 -0.39518910034E+02  0.14129371353E+03  0.00000000000E+00 0.  1.
          4    1    1    2  501    0 -0.98808326389E+01 -0.13529426588E+03  0.71965543821E+03  0.73232924220E+03  0.00000000000E+00 0. -1.
<mgrwt>
<rscale>  2 0.13565460E+03</rscale>
<asrwt>0</asrwt>
<pdfrwt beam="2">  1       21 0.14883572E-01 0.13565460E+03</pdfrwt>
<pdfrwt beam="1">  1        4 0.11951996E+00 0.13565460E+03</pdfrwt>
<totfact> 0.92956969E+02</totfact>
</mgrwt>
</event>
<event>
 4    1  0.5134057E+003  0.1042158E+03  0.7546771E-02  0.1271672E+00
         21   -1    0    0  503  502  0.00000000000E+00  0.00000000000E+00  0.40438958683E+02  0.40438958683E+02  0.00000000000E+00 0. -1.
          1   -1    0    0  502    0 -0.00000000000E+00 -0.00000000000E+00 -0.70846155357E+03  0.70846155357E+03  0.00000000000E+00 0. -1.
         21    1    1    2  503  501 -0.98930473885E+02  0.32767330962E+02 -0.38954378548E+02  0.11125816936E+03  0.00000000000E+00 0. -1.
          1    1    1    2  501    0  0.98930473885E+02 -0.32767330962E+02 -0.62906821634E+03  0.63764234289E+03  0.00000000000E+00 0. -1.
<mgrwt>
<rscale>  2 0.10421582E+03</rscale>
<asrwt>0</asrwt>
<pdfrwt beam="1">  1       21 0.62213784E-02 0.10421582E+03</pdfrwt>
<pdfrwt beam="2">  1        1 0.10899408E+00 0.10421582E+03</pdfrwt>
<totfact> 0.57044052E+04</totfact>
</mgrwt>
</event>
<event>
 4    1  0.5134057E+003  0.1087282E+03  0.7546771E-02  0.1262943E+00
         -4   -1    0    0    0  501 -0.00000000000E+00  0.00000000000E+00  0.33136360669E+02  0.33136360669E+02  0.00000000000E+00 0.  1.
         21   -1    0    0  501  502  0.00000000000E+00 -0.00000000000E+00 -0.65478387482E+03  0.65478387482E+03  0.00000000000E+00 0.  1.
         21    1    1    2  503  502  0.83930035104E+02  0.69120002230E+02 -0.54287424526E+03  0.55365537265E+03  0.00000000000E+00 0.  1.
         -4    1    1    2    0  503 -0.83930035104E+02 -0.69120002230E+02 -0.78773268892E+02  0.13426486284E+03  0.00000000000E+00 0.  1.
<mgrwt>
<rscale>  2 0.10872822E+03</rscale>
<asrwt>0</asrwt>
<pdfrwt beam="2">  1       21 0.10073598E+00 0.10872822E+03</pdfrwt>
<pdfrwt beam="1">  1       -4 0.50979017E-02 0.10872822E+03</pdfrwt>
<totfact> 0.76408709E+03</totfact>
</mgrwt>
</event>
<event>
 4    1  0.5134057E+003  0.1078584E+03  0.7546771E-02  0.1264588E+00
         21   -1    0    0  501  502  0.00000000000E+00  0.00000000000E+00  0.83166582562E+02  0.83166582562E+02  0.00000000000E+00 0. -1.
          1   -1    0    0  503    0 -0.00000000000E+00 -0.00000000000E+00 -0.56630908810E+03  0.56630908810E+03  0.00000000000E+00 0.  1.
         21    1    1    2  503  502 -0.15257308073E+02  0.10677385373E+03  0.40220920203E+02  0.11511369906E+03  0.00000000000E+00 0. -1.
          1    1    1    2  501    0  0.15257308073E+02 -0.10677385373E+03 -0.52336342574E+03  0.53436197160E+03  0.00000000000E+00 0.  1.
<mgrwt>
<rscale>  2 0.10785843E+03</rscale>
<asrwt>0</asrwt>
<pdfrwt beam="1">  1       21 0.12794859E-01 0.10785843E+03</pdfrwt>
<pdfrwt beam="2">  1        1 0.87124472E-01 0.10785843E+03</pdfrwt>
<totfact> 0.22303438E+04</totfact>
</mgrwt>
</event>
<event>
 4    1  0.5134057E+003  0.1079752E+03  0.7546771E-02  0.1264366E+00
         21   -1    0    0  501  502  0.00000000000E+00  0.00000000000E+00  0.12305132191E+02  0.12305132191E+02  0.00000000000E+00 0. -1.
          1   -1    0    0  503    0 -0.00000000000E+00 -0.00000000000E+00 -0.19012723386E+04  0.19012723386E+04  0.00000000000E+00 0. -1.
         21    1    1    2  503  502 -0.78838649154E+02  0.73777375521E+02 -0.26680291042E+03  0.28782360353E+03  0.00000000000E+00 0. -1.
          1    1    1    2  501    0  0.78838649154E+02 -0.73777375521E+02 -0.16221642959E+04  0.16257538672E+04  0.00000000000E+00 0. -1.
<mgrwt>
<rscale>  2 0.10797515E+03</rscale>
<asrwt>0</asrwt>
<pdfrwt beam="1">  1       21 0.18930978E-02 0.10797515E+03</pdfrwt>
<pdfrwt beam="2">  1        1 0.29250335E+00 0.10797515E+03</pdfrwt>
<totfact> 0.60932065E+04</totfact>
</mgrwt>
</event>
<event>
 4    1  0.5134057E+003  0.1072282E+03  0.7546771E-02  0.1265791E+00
          2   -1    0    0  503    0 -0.00000000000E+00  0.00000000000E+00  0.25587255077E+03  0.25587255077E+03  0.00000000000E+00 0.  1.
         21   -1    0    0  501  502  0.00000000000E+00 -0.00000000000E+00 -0.48186265073E+02  0.48186265073E+02  0.00000000000E+00 0.  1.
         21    1    1    2  503  502 -0.51246176807E+02 -0.94189807063E+02  0.64358793727E+02  0.12505976460E+03  0.00000000000E+00 0.  1.
          2    1    1    2  501    0  0.51246176807E+02  0.94189807063E+02  0.14332749197E+03  0.17899905125E+03  0.00000000000E+00 0.  1.
<mgrwt>
<rscale>  2 0.10722822E+03</rscale>
<asrwt>0</asrwt>
<pdfrwt beam="2">  1       21 0.74132717E-02 0.10722822E+03</pdfrwt>
<pdfrwt beam="1">  1        2 0.39365007E-01 0.10722822E+03</pdfrwt>
<totfact> 0.21428120E+05</totfact>
</mgrwt>
</event>
<event>
 4    1  0.5134057E+003  0.1614702E+03  0.7546771E-02  0.1187047E+00
         21   -1    0    0  503  502  0.00000000000E+00  0.00000000000E+00  0.23616832970E+02  0.23616832970E+02  0.00000000000E+00 0.  1.
          2   -1    0    0  502    0 -0.00000000000E+00 -0.00000000000E+00 -0.37358503201E+04  0.37358503201E+04  0.00000000000E+00 0.  1.
         21    1    1    2  503  501  0.75182667476E+02  0.14289926821E+03 -0.27838421891E+03  0.32182356608E+03  0.00000000000E+00 0.  1.
          2    1    1    2  501    0 -0.75182667476E+02 -0.14289926821E+03 -0.34338492682E+04  0.34376435870E+04  0.00000000000E+00 0.  1.
<mgrwt>
<rscale>  2 0.16147023E+03</rscale>
<asrwt>0</asrwt>
<pdfrwt beam="1">  1       21 0.36333598E-02 0.16147023E+03</pdfrwt>
<pdfrwt beam="2">  1        2 0.57474606E+00 0.16147023E+03</pdfrwt>
<totfact> 0.43978805E+03</totfact>
</mgrwt>
</event>
<event>
 4    1  0.5134057E+003  0.2476246E+03  0.7546771E-02  0.1114815E+00
         -2   -1    0    0    0  501 -0.00000000000E+00  0.00000000000E+00  0.43077634234E+03  0.43077634234E+03  0.00000000000E+00 0. -1.
         21   -1    0    0  503  502  0.00000000000E+00 -0.00000000000E+00 -0.14234797444E+03  0.14234797444E+03  0.00000000000E+00 0.  1.
         21    1    1    2  503  501  0.25949633445E+02 -0.24626116187E+03  0.14249913131E+03  0.28569904751E+03  0.00000000000E+00 0.  1.
         -2    1    1    2    0  502 -0.25949633445E+02  0.24626116187E+03  0.14592923659E+03  0.28742526927E+03  0.00000000000E+00 0. -1.
<mgrwt>
<rscale>  2 0.24762460E+03</rscale>
<asrwt>0</asrwt>
<pdfrwt beam="2">  1       21 0.21899689E-01 0.24762460E+03</pdfrwt>
<pdfrwt beam="1">  1       -2 0.66273283E-01 0.24762460E+03</pdfrwt>
<totfact> 0.33707698E+03</totfact>
</mgrwt>
</event>
<event>
 4    1  0.5134057E+003  0.1277664E+03  0.7546771E-02  0.1230808E+00
         21   -1    0    0  503  502  0.00000000000E+00  0.00000000000E+00  0.26966927645E+03  0.26966927645E+03  0.00000000000E+00 0.  1.
         -1   -1    0    0    0  501 -0.00000000000E+00 -0.00000000000E+00 -0.60590015592E+02  0.60590015592E+02  0.00000000000E+00 0. -1.
         21    1    1    2  503  501 -0.96210535816E+02  0.84070117099E+02  0.10954521919E+03  0.16829856457E+03  0.00000000000E+00 0.  1.
         -1    1    1    2    0  502  0.96210535816E+02 -0.84070117099E+02  0.99534041677E+02  0.16196072747E+03  0.00000000000E+00 0. -1.
<mgrwt>
<rscale>  2 0.12776640E+03</rscale>
<asrwt>0</asrwt>
<pdfrwt beam="1">  1       21 0.41487580E-01 0.12776640E+03</pdfrwt>
<pdfrwt beam="2">  1       -1 0.93215410E-02 0.12776640E+03</pdfrwt>
<totfact> 0.33737912E+04</totfact>
</mgrwt>
</event>
<event>
 4    1  0.5134057E+003  0.1067054E+03  0.7546771E-02  0.1266796E+00
          4   -1    0    0  503    0 -0.00000000000E+00  0.00000000000E+00  0.75451971073E+01  0.75451971073E+01  0.00000000000E+00 0. -1.
         21   -1    0    0  501  502  0.00000000000E+00 -0.00000000000E+00 -0.19379865508E+04  0.19379865508E+04  0.00000000000E+00 0.  1.
         21    1    1    2  503  502  0.16372631018E+02  0.10544180958E+03 -0.14228694002E+04  0.14268648739E+04  0.00000000000E+00 0.  1.
          4    1    1    2  501    0 -0.16372631018E+02 -0.10544180958E+03 -0.50757195353E+03  0.51866687408E+03  0.00000000000E+00 0. -1.
<mgrwt>
<rscale>  2 0.10670538E+03</rscale>
<asrwt>0</asrwt>
<pdfrwt beam="2">  1       21 0.29815215E+00 0.10670538E+03</pdfrwt>
<pdfrwt beam="1">  1        4 0.11607981E-02 0.10670538E+03</pdfrwt>
<totfact> 0.35747029E+03</totfact>
</mgrwt>
</event>
<event>
 4    1  0.5134057E+003  0.1277092E+03  0.7546771E-02  0.1230895E+00
          1   -1    0    0  503    0 -0.00000000000E+00  0.00000000000E+00  0.29848462626E+04  0.29848462626E+04  0.00000000000E+00 0.  1.
         21   -1    0    0  501  502  0.00000000000E+00 -0.00000000000E+00 -0.34397545800E+02  0.34397545800E+02  0.00000000000E+00 0. -1.
         21    1    1    2  503  502  0.11199207553E+03  0.61379343945E+02  0.90688649926E+02  0.15663358538E+03  0.00000000000E+00 0. -1.
          1    1    1    2  501    0 -0.11199207553E+03 -0.61379343945E+02  0.28597600669E+04  0.28626102230E+04  0.00000000000E+00 0.  1.
<mgrwt>
<rscale>  2 0.12770924E+03</rscale>
<asrwt>0</asrwt>
<pdfrwt beam="2">  1       21 0.52919325E-02 0.12770924E+03</pdfrwt>
<pdfrwt beam="1">  1        1 0.45920691E+00 0.12770924E+03</pdfrwt>
<totfact> 0.22042632E+03</totfact>
</mgrwt>
</event>
<event>
 4    1  0.5134057E+003  0.1065002E+03  0.7546771E-02  0.1267192E+00
         21   -1    0    0  503  502  0.00000000000E+00  0.00000000000E+00  0.34156384218E+03  0.34156384218E+03  0.00000000000E+00 0.  1.
          3   -1    0    0  502    0 -0.00000000000E+00 -0.00000000000E+00 -0.44263641718E+02  0.44263641718E+02  0.00000000000E+00 0. -1.
         21    1    1    2  503  501  0.90468984828E+02 -0.56193081180E+02  0.24506670640E+03  0.26720776593E+03  0.00000000000E+00 0.  1.
          3    1    1    2  501    0 -0.90468984828E+02  0.56193081180E+02  0.52233494060E+02  0.11861971796E+03  0.00000000000E+00 0. -1.
<mgrwt>
<rscale>  2 0.10650023E+03</rscale>
<asrwt>0</asrwt>
<pdfrwt beam="1">  1       21 0.52548282E-01 0.10650023E+03</pdfrwt>
<pdfrwt beam="2">  1        3 0.68097913E-02 0.10650023E+03</pdfrwt>
<totfact> 0.22595142E+04</totfact>
</mgrwt>
</event>
<event>
 4    1  0.5134057E+003  0.1154970E+03  0.7546771E-02  0.1250716E+00
         -4   -1    0    0    0  501 -0.00000000000E+00  0.00000000000E+00  0.30688971689E+02  0.30688971689E+02  0.00000000000E+00 0. -1.
         21   -1    0    0  501  502  0.00000000000E+00 -0.00000000000E+00 -0.58019610168E+03  0.58019610168E+03  0.00000000000E+00 0.  1.
         21    1    1    2  503  502 -0.10931449849E+03  0.37281220496E+02 -0.42772623368E+03  0.44304546037E+03  0.00000000000E+00 0.  1.
         -4    1    1    2    0  503  0.10931449849E+03 -0.37281220496E+02 -0.12178089631E+03  0.16783961299E+03  0.00000000000E+00 0. -1.
<mgrwt>
<rscale>  2 0.11549697E+03</rscale>
<asrwt>0</asrwt>
<pdfrwt beam="2">  1       21 0.89260941E-01 0.11549697E+03</pdfrwt>
<pdfrwt beam="1">  1       -4 0.47213801E-02 0.11549697E+03</pdfrwt>
<totfact> 0.11458723E+04</totfact>
</mgrwt>
</event>
<event>
 4    1  0.5134057E+003  0.2099698E+03  0.7546771E-02  0.1141590E+00
         21   -1    0    0  501  502  0.00000000000E+00  0.00000000000E+00  0.32821819943E+03  0.32821819943E+03  0.00000000000E+00 0.  1.
          3   -1    0    0  503    0 -0.00000000000E+00 -0.00000000000E+00 -0.20980310948E+03  0.20980310948E+03  0.00000000000E+00 0.  1.
         21    1    1    2  503  502  0.12131737918E+03 -0.17137504591E+03  0.22056136757E+03  0.30452361110E+03  0.00000000000E+00 0.  1.
          3    1    1    2  501    0 -0.12131737918E+03  0.17137504591E+03 -0.10214627762E+03  0.23349769781E+03  0.00000000000E+00 0.  1.
<mgrwt>
<rscale>  2 0.20996979E+03</rscale>
<asrwt>0</asrwt>
<pdfrwt beam="1">  1       21 0.50495108E-01 0.20996979E+03</pdfrwt>
<pdfrwt beam="2">  1        3 0.32277401E-01 0.20996979E+03</pdfrwt>
<totfact> 0.17214957E+03</totfact>
</mgrwt>
</event>
<event>
 4    1  0.5134057E+003  0.1052529E+03  0.7546771E-02  0.1269622E+00
         21   -1    0    0  503  502  0.00000000000E+00  0.00000000000E+00  0.83050397731E+02  0.83050397731E+02  0.00000000000E+00 0. -1.
          2   -1    0    0  502    0 -0.00000000000E+00 -0.00000000000E+00 -0.16582170331E+04  0.16582170331E+04  0.00000000000E+00 0.  1.
         21    1    1    2  503  501 -0.10210557015E+03  0.25546338797E+02  0.47298429216E+02  0.11539195938E+03  0.00000000000E+00 0. -1.
          2    1    1    2  501    0  0.10210557015E+03 -0.25546338797E+02 -0.16224650646E+04  0.16258754715E+04  0.00000000000E+00 0.  1.
<mgrwt>
<rscale>  2 0.10525285E+03</rscale>
<asrwt>0</asrwt>
<pdfrwt beam="1">  1       21 0.12776984E-01 0.10525285E+03</pdfrwt>
<pdfrwt beam="2">  1        2 0.25511032E+00 0.10525285E+03</pdfrwt>
<totfact> 0.79433519E+03</totfact>
</mgrwt>
</event>
<event>
 4    1  0.5134057E+003  0.1675065E+03  0.7546771E-02  0.1180473E+00
          1   -1    0    0  503    0 -0.00000000000E+00  0.00000000000E+00  0.76854686797E+03  0.76854686797E+03  0.00000000000E+00 0. -1.
         21   -1    0    0  501  502  0.00000000000E+00 -0.00000000000E+00 -0.33105564537E+03  0.33105564537E+03  0.00000000000E+00 0.  1.
         21    1    1    2  503  502 -0.71007195400E+02 -0.15171153566E+03 -0.29985463214E+03  0.34346937602E+03  0.00000000000E+00 0.  1.
          1    1    1    2  501    0  0.71007195400E+02  0.15171153566E+03  0.73734585473E+03  0.75613313731E+03  0.00000000000E+00 0. -1.
<mgrwt>
<rscale>  2 0.16750645E+03</rscale>
<asrwt>0</asrwt>
<pdfrwt beam="2">  1       21 0.50931638E-01 0.16750645E+03</pdfrwt>
<pdfrwt beam="1">  1        1 0.11823798E+00 0.16750645E+03</pdfrwt>
<totfact> 0.10181626E+03</totfact>
</mgrwt>
</event>
<event>
 4    1  0.5134057E+003  0.1166585E+03  0.7546771E-02  0.1248713E+00
          2   -1    0    0  503    0 -0.00000000000E+00  0.00000000000E+00  0.12139035759E+04  0.12139035759E+04  0.00000000000E+00 0. -1.
         21   -1    0    0  501  502  0.00000000000E+00 -0.00000000000E+00 -0.40726164656E+02  0.40726164656E+02  0.00000000000E+00 0.  1.
         21    1    1    2  503  502 -0.93366726514E+02  0.69941880012E+02  0.52552640196E+02  0.12794917816E+03  0.00000000000E+00 0.  1.
          2    1    1    2  501    0  0.93366726514E+02 -0.69941880012E+02  0.11206247710E+04  0.11266805624E+04  0.00000000000E+00 0. -1.
<mgrwt>
<rscale>  2 0.11665853E+03</rscale>
<asrwt>0</asrwt>
<pdfrwt beam="2">  1       21 0.62655647E-02 0.11665853E+03</pdfrwt>
<pdfrwt beam="1">  1        2 0.18675437E+00 0.11665853E+03</pdfrwt>
<totfact> 0.46352880E+04</totfact>
</mgrwt>
</event>
<event>
 4    1  0.5134057E+003  0.2021590E+03  0.7546771E-02  0.1147930E+00
          2   -1    0    0  502    0 -0.00000000000E+00  0.00000000000E+00  0.68511996553E+03  0.68511996553E+03  0.00000000000E+00 0. -1.
         21   -1    0    0  503  502  0.00000000000E+00 -0.00000000000E+00 -0.23568972446E+04  0.23568972446E+04  0.00000000000E+00 0.  1.
         21    1    1    2  503  501 -0.20119905011E+03  0.19677710525E+02 -0.23375261114E+04  0.23462516045E+04  0.00000000000E+00 0.  1.
          2    1    1    2  501    0  0.20119905011E+03 -0.19677710525E+02  0.66574883240E+03  0.69576560557E+03  0.00000000000E+00 0. -1.
<mgrwt>
<rscale>  2 0.20215902E+03</rscale>
<asrwt>0</asrwt>
<pdfrwt beam="2">  1       21 0.36259957E+00 0.20215902E+03</pdfrwt>
<pdfrwt beam="1">  1        2 0.10540307E+00 0.20215902E+03</pdfrwt>
<totfact> 0.78677547E+00</totfact>
</mgrwt>
</event>
<event>
 4    1  0.5134057E+003  0.1121441E+03  0.7546771E-02  0.1256650E+00
         21   -1    0    0  501  502  0.00000000000E+00  0.00000000000E+00  0.39893941724E+02  0.39893941724E+02  0.00000000000E+00 0. -1.
          2   -1    0    0  503    0 -0.00000000000E+00 -0.00000000000E+00 -0.11679282807E+04  0.11679282807E+04  0.00000000000E+00 0. -1.
         21    1    1    2  503  502  0.11179056610E+03  0.88979998127E+01 -0.48005891994E+02  0.12198717447E+03  0.00000000000E+00 0. -1.
          2    1    1    2  501    0 -0.11179056610E+03 -0.88979998127E+01 -0.10800284470E+04  0.10858350480E+04  0.00000000000E+00 0. -1.
<mgrwt>
<rscale>  2 0.11214413E+03</rscale>
<asrwt>0</asrwt>
<pdfrwt beam="1">  1       21 0.61375297E-02 0.11214413E+03</pdfrwt>
<pdfrwt beam="2">  1        2 0.17968127E+00 0.11214413E+03</pdfrwt>
<totfact> 0.50905101E+04</totfact>
</mgrwt>
</event>
<event>
 4    1  0.5134057E+003  0.1226125E+03  0.7546771E-02  0.1238848E+00
         21   -1    0    0  501  502  0.00000000000E+00  0.00000000000E+00  0.95440206662E+02  0.95440206662E+02  0.00000000000E+00 0.  1.
         -1   -1    0    0    0  501 -0.00000000000E+00 -0.00000000000E+00 -0.15946363427E+03  0.15946363427E+03  0.00000000000E+00 0.  1.
         21    1    1    2  503  502  0.47432994240E+02  0.11306604736E+03 -0.17943766362E+02  0.12391851661E+03  0.00000000000E+00 0.  1.
         -1    1    1    2    0  503 -0.47432994240E+02 -0.11306604736E+03 -0.46079661246E+02  0.13098532432E+03  0.00000000000E+00 0.  1.
<mgrwt>
<rscale>  2 0.12261248E+03</rscale>
<asrwt>0</asrwt>
<pdfrwt beam="1">  1       21 0.14683109E-01 0.12261248E+03</pdfrwt>
<pdfrwt beam="2">  1       -1 0.24532867E-01 0.12261248E+03</pdfrwt>
<totfact> 0.52677595E+04</totfact>
</mgrwt>
</event>
<event>
 4    1  0.5134057E+003  0.1113201E+03  0.7546771E-02  0.1258145E+00
         -2   -1    0    0    0  501 -0.00000000000E+00  0.00000000000E+00  0.12969499097E+03  0.12969499097E+03  0.00000000000E+00 0. -1.
         21   -1    0    0  501  502  0.00000000000E+00 -0.00000000000E+00 -0.22308482827E+03  0.22308482827E+03  0.00000000000E+00 0. -1.
         21    1    1    2  503  502 -0.80156732609E+02  0.77246737328E+02 -0.18006416475E+03  0.21169615877E+03  0.00000000000E+00 0. -1.
         -2    1    1    2    0  503  0.80156732609E+02 -0.77246737328E+02  0.86674327459E+02  0.14108366047E+03  0.00000000000E+00 0. -1.
<mgrwt>
<rscale>  2 0.11132008E+03</rscale>
<asrwt>0</asrwt>
<pdfrwt beam="2">  1       21 0.34320743E-01 0.11132008E+03</pdfrwt>
<pdfrwt beam="1">  1       -2 0.19953076E-01 0.11132008E+03</pdfrwt>
<totfact> 0.13743508E+04</totfact>
</mgrwt>
</event>
<event>
 4    1  0.5134057E+003  0.1377953E+03  0.7546771E-02  0.1216327E+00
         -4   -1    0    0    0  501 -0.00000000000E+00  0.00000000000E+00  0.81225399074E+03  0.81225399074E+03  0.00000000000E+00 0. -1.
         21   -1    0    0  501  502  0.00000000000E+00 -0.00000000000E+00 -0.53593378975E+02  0.53593378975E+02  0.00000000000E+00 0. -1.
         21    1    1    2  503  502 -0.77381117682E+02 -0.11401622203E+03  0.54256756396E+02  0.14809230863E+03  0.00000000000E+00 0. -1.
         -4    1    1    2    0  503  0.77381117682E+02  0.11401622203E+03  0.70440385536E+03  0.71775506108E+03  0.00000000000E+00 0. -1.
<mgrwt>
<rscale>  2 0.13779527E+03</rscale>
<asrwt>0</asrwt>
<pdfrwt beam="2">  1       21 0.82451358E-02 0.13779527E+03</pdfrwt>
<pdfrwt beam="1">  1       -4 0.12496214E+00 0.13779527E+03</pdfrwt>
<totfact> 0.23690086E+03</totfact>
</mgrwt>
</event>
<event>
 4    1  0.5134057E+003  0.1173514E+03  0.7546771E-02  0.1247531E+00
         21   -1    0    0  501  502  0.00000000000E+00  0.00000000000E+00  0.34005942082E+02  0.34005942082E+02  0.00000000000E+00 0. -1.
          2   -1    0    0  503    0 -0.00000000000E+00 -0.00000000000E+00 -0.54503104849E+03  0.54503104849E+03  0.00000000000E+00 0.  1.
         21    1    1    2  503  502  0.11384179155E+03  0.28485149888E+02 -0.10874646992E+03  0.15999109971E+03  0.00000000000E+00 0. -1.
          2    1    1    2  501    0 -0.11384179155E+03 -0.28485149888E+02 -0.40227863649E+03  0.41904589086E+03  0.00000000000E+00 0.  1.
<mgrwt>
<rscale>  2 0.11735143E+03</rscale>
<asrwt>0</asrwt>
<pdfrwt beam="1">  1       21 0.52316837E-02 0.11735143E+03</pdfrwt>
<pdfrwt beam="2">  1        2 0.83850925E-01 0.11735143E+03</pdfrwt>
<totfact> 0.17351486E+05</totfact>
</mgrwt>
</event>
<event>
 4    1  0.5134057E+003  0.1041393E+03  0.7546771E-02  0.1271825E+00
         21   -1    0    0  501  502  0.00000000000E+00  0.00000000000E+00  0.19376816007E+03  0.19376816007E+03  0.00000000000E+00 0.  1.
          2   -1    0    0  503    0 -0.00000000000E+00 -0.00000000000E+00 -0.92613016107E+02  0.92613016107E+02  0.00000000000E+00 0. -1.
         21    1    1    2  503  502  0.49219863995E+02  0.91773573540E+02  0.14064770351E+03  0.17500502940E+03  0.00000000000E+00 0.  1.
          2    1    1    2  501    0 -0.49219863995E+02 -0.91773573540E+02 -0.39492559547E+02  0.11137614678E+03  0.00000000000E+00 0. -1.
<mgrwt>
<rscale>  2 0.10413925E+03</rscale>
<asrwt>0</asrwt>
<pdfrwt beam="1">  1       21 0.29810486E-01 0.10413925E+03</pdfrwt>
<pdfrwt beam="2">  1        2 0.14248156E-01 0.10413925E+03</pdfrwt>
<totfact> 0.53830166E+04</totfact>
</mgrwt>
</event>
<event>
 4    1  0.5134057E+003  0.1441591E+03  0.7546771E-02  0.1207840E+00
         21   -1    0    0  503  502  0.00000000000E+00  0.00000000000E+00  0.12135265196E+02  0.12135265196E+02  0.00000000000E+00 0.  1.
          2   -1    0    0  502    0 -0.00000000000E+00 -0.00000000000E+00 -0.24120238046E+04  0.24120238046E+04  0.00000000000E+00 0.  1.
         21    1    1    2  503  501  0.11042126182E+03 -0.92676868257E+02 -0.54721052578E+03  0.56588092077E+03  0.00000000000E+00 0.  1.
          2    1    1    2  501    0 -0.11042126182E+03  0.92676868257E+02 -0.18526780136E+04  0.18582781490E+04  0.00000000000E+00 0.  1.
<mgrwt>
<rscale>  2 0.14415914E+03</rscale>
<asrwt>0</asrwt>
<pdfrwt beam="1">  1       21 0.18669616E-02 0.14415914E+03</pdfrwt>
<pdfrwt beam="2">  1        2 0.37108104E+00 0.14415914E+03</pdfrwt>
<totfact> 0.81413928E+04</totfact>
</mgrwt>
</event>
<event>
 4    1  0.5134057E+003  0.1136920E+03  0.7546771E-02  0.1253882E+00
          2   -1    0    0  502    0 -0.00000000000E+00  0.00000000000E+00  0.29886187965E+04  0.29886187965E+04  0.00000000000E+00 0.  1.
         21   -1    0    0  503  502  0.00000000000E+00 -0.00000000000E+00 -0.25830827024E+02  0.25830827024E+02  0.00000000000E+00 0. -1.
         21    1    1    2  503  501 -0.28895661998E+02  0.10995867786E+03  0.10612820598E+03  0.15552834540E+03  0.00000000000E+00 0. -1.
          2    1    1    2  501    0  0.28895661998E+02 -0.10995867786E+03  0.28566597635E+04  0.28589212781E+04  0.00000000000E+00 0.  1.
<mgrwt>
<rscale>  2 0.11369200E+03</rscale>
<asrwt>0</asrwt>
<pdfrwt beam="2">  1       21 0.39739758E-02 0.11369200E+03</pdfrwt>
<pdfrwt beam="1">  1        2 0.45978723E+00 0.11369200E+03</pdfrwt>
<totfact> 0.11594126E+04</totfact>
</mgrwt>
</event>
<event>
 4    1  0.5134057E+003  0.1304864E+03  0.7546771E-02  0.1226736E+00
         21   -1    0    0  503  502  0.00000000000E+00  0.00000000000E+00  0.93365734602E+03  0.93365734602E+03  0.00000000000E+00 0. -1.
         -1   -1    0    0    0  501 -0.00000000000E+00 -0.00000000000E+00 -0.19957774459E+02  0.19957774459E+02  0.00000000000E+00 0.  1.
         21    1    1    2  503  501  0.11989743411E+03  0.51490849243E+02  0.59687428339E+03  0.61097104058E+03  0.00000000000E+00 0. -1.
         -1    1    1    2    0  502 -0.11989743411E+03 -0.51490849243E+02  0.31682528817E+03  0.34264407989E+03  0.00000000000E+00 0.  1.
<mgrwt>
<rscale>  2 0.13048641E+03</rscale>
<asrwt>0</asrwt>
<pdfrwt beam="1">  1       21 0.14363956E+00 0.13048641E+03</pdfrwt>
<pdfrwt beam="2">  1       -1 0.30704276E-02 0.13048641E+03</pdfrwt>
<totfact> 0.10840859E+04</totfact>
</mgrwt>
</event>
<event>
 4    1  0.5134057E+003  0.1377708E+03  0.7546771E-02  0.1216360E+00
          2   -1    0    0  503    0 -0.00000000000E+00  0.00000000000E+00  0.19235288506E+04  0.19235288506E+04  0.00000000000E+00 0. -1.
         21   -1    0    0  501  502  0.00000000000E+00 -0.00000000000E+00 -0.11092424757E+03  0.11092424757E+03  0.00000000000E+00 0.  1.
         21    1    1    2  503  502  0.12419891168E+03 -0.59627354454E+02 -0.64624938479E+02  0.15217481307E+03  0.00000000000E+00 0.  1.
          2    1    1    2  501    0 -0.12419891168E+03  0.59627354454E+02  0.18772295415E+04  0.18822782851E+04  0.00000000000E+00 0. -1.
<mgrwt>
<rscale>  2 0.13777079E+03</rscale>
<asrwt>0</asrwt>
<pdfrwt beam="2">  1       21 0.17065270E-01 0.13777079E+03</pdfrwt>
<pdfrwt beam="1">  1        2 0.29592749E+00 0.13777079E+03</pdfrwt>
<totfact> 0.33840345E+03</totfact>
</mgrwt>
</event>
<event>
 4    1  0.5134057E+003  0.1083809E+03  0.7546771E-02  0.1263598E+00
         21   -1    0    0  501  502  0.00000000000E+00  0.00000000000E+00  0.41546184819E+02  0.41546184819E+02  0.00000000000E+00 0.  1.
          2   -1    0    0  503    0 -0.00000000000E+00 -0.00000000000E+00 -0.49390356279E+03  0.49390356279E+03  0.00000000000E+00 0. -1.
         21    1    1    2  503  502 -0.10770096686E+03 -0.12121515257E+02 -0.51119254305E+02  0.11983157996E+03  0.00000000000E+00 0.  1.
          2    1    1    2  501    0  0.10770096686E+03  0.12121515257E+02 -0.40123812367E+03  0.41561816765E+03  0.00000000000E+00 0. -1.
<mgrwt>
<rscale>  2 0.10838095E+03</rscale>
<asrwt>0</asrwt>
<pdfrwt beam="1">  1       21 0.63917205E-02 0.10838095E+03</pdfrwt>
<pdfrwt beam="2">  1        2 0.75985166E-01 0.10838095E+03</pdfrwt>
<totfact> 0.13747994E+05</totfact>
</mgrwt>
</event>
<event>
 4    1  0.5134057E+003  0.1079086E+03  0.7546771E-02  0.1264493E+00
          2   -1    0    0  502    0 -0.00000000000E+00  0.00000000000E+00  0.54477302293E+03  0.54477302293E+03  0.00000000000E+00 0.  1.
         21   -1    0    0  503  502  0.00000000000E+00 -0.00000000000E+00 -0.39945531611E+02  0.39945531611E+02  0.00000000000E+00 0.  1.
         21    1    1    2  503  501  0.41056699326E+02 -0.99792872748E+02  0.53071024172E+02  0.12025308153E+03  0.00000000000E+00 0.  1.
          2    1    1    2  501    0 -0.41056699326E+02  0.99792872748E+02  0.45175646715E+03  0.46446547301E+03  0.00000000000E+00 0.  1.
<mgrwt>
<rscale>  2 0.10790862E+03</rscale>
<asrwt>0</asrwt>
<pdfrwt beam="2">  1       21 0.61454668E-02 0.10790862E+03</pdfrwt>
<pdfrwt beam="1">  1        2 0.83811229E-01 0.10790862E+03</pdfrwt>
<totfact> 0.13195312E+05</totfact>
</mgrwt>
</event>
<event>
 4    1  0.5134057E+003  0.1110443E+03  0.7546771E-02  0.1258648E+00
          1   -1    0    0  503    0 -0.00000000000E+00  0.00000000000E+00  0.76712628475E+03  0.76712628475E+03  0.00000000000E+00 0.  1.
         21   -1    0    0  501  502  0.00000000000E+00 -0.00000000000E+00 -0.49444092093E+02  0.49444092093E+02  0.00000000000E+00 0. -1.
         21    1    1    2  503  502 -0.74259190623E+02  0.82561587420E+02  0.23424416238E+02  0.11348808918E+03  0.00000000000E+00 0. -1.
          1    1    1    2  501    0  0.74259190623E+02 -0.82561587420E+02  0.69425777642E+03  0.70308228766E+03  0.00000000000E+00 0.  1.
<mgrwt>
<rscale>  2 0.11104433E+03</rscale>
<asrwt>0</asrwt>
<pdfrwt beam="2">  1       21 0.76067840E-02 0.11104433E+03</pdfrwt>
<pdfrwt beam="1">  1        1 0.11801942E+00 0.11104433E+03</pdfrwt>
<totfact> 0.36137348E+04</totfact>
</mgrwt>
</event>
<event>
 4    1  0.5134057E+003  0.1324746E+03  0.7546771E-02  0.1223829E+00
          2   -1    0    0  502    0 -0.00000000000E+00  0.00000000000E+00  0.11700899666E+03  0.11700899666E+03  0.00000000000E+00 0. -1.
         21   -1    0    0  503  502  0.00000000000E+00 -0.00000000000E+00 -0.20839667356E+03  0.20839667356E+03  0.00000000000E+00 0. -1.
         21    1    1    2  503  501 -0.39145384223E+02 -0.12655886241E+03 -0.13183333663E+03  0.18689444991E+03  0.00000000000E+00 0. -1.
          2    1    1    2  501    0  0.39145384223E+02  0.12655886241E+03  0.40445659721E+02  0.13851122031E+03  0.00000000000E+00 0. -1.
<mgrwt>
<rscale>  2 0.13247455E+03</rscale>
<asrwt>0</asrwt>
<pdfrwt beam="2">  1       21 0.32061027E-01 0.13247455E+03</pdfrwt>
<pdfrwt beam="1">  1        2 0.18001384E-01 0.13247455E+03</pdfrwt>
<totfact> 0.35839577E+04</totfact>
</mgrwt>
</event>
<event>
 4    1  0.5134057E+003  0.1269851E+03  0.7546771E-02  0.1231999E+00
          2   -1    0    0  502    0 -0.00000000000E+00  0.00000000000E+00  0.91027265317E+03  0.91027265317E+03  0.00000000000E+00 0.  1.
         21   -1    0    0  503  502  0.00000000000E+00 -0.00000000000E+00 -0.38619997410E+02  0.38619997410E+02  0.00000000000E+00 0. -1.
         21    1    1    2  503  501 -0.53590397359E+02  0.11512294834E+03  0.86759203041E+02  0.15379331336E+03  0.00000000000E+00 0. -1.
          2    1    1    2  501    0  0.53590397359E+02 -0.11512294834E+03  0.78489345272E+03  0.79509933722E+03  0.00000000000E+00 0.  1.
<mgrwt>
<rscale>  2 0.12698513E+03</rscale>
<asrwt>0</asrwt>
<pdfrwt beam="2">  1       21 0.59415388E-02 0.12698513E+03</pdfrwt>
<pdfrwt beam="1">  1        2 0.14004193E+00 0.12698513E+03</pdfrwt>
<totfact> 0.76102472E+04</totfact>
</mgrwt>
</event>
<event>
 4    1  0.5134057E+003  0.1444103E+03  0.7546771E-02  0.1207515E+00
         -3   -1    0    0    0  501 -0.00000000000E+00  0.00000000000E+00  0.29886804429E+03  0.29886804429E+03  0.00000000000E+00 0. -1.
         21   -1    0    0  503  502  0.00000000000E+00 -0.00000000000E+00 -0.11577761327E+03  0.11577761327E+03  0.00000000000E+00 0.  1.
         21    1    1    2  503  501 -0.68164843485E+02  0.12731020225E+03 -0.39136009793E+02  0.14961938627E+03  0.00000000000E+00 0.  1.
         -3    1    1    2    0  502  0.68164843485E+02 -0.12731020225E+03  0.22222644081E+03  0.26502627130E+03  0.00000000000E+00 0. -1.
<mgrwt>
<rscale>  2 0.14441030E+03</rscale>
<asrwt>0</asrwt>
<pdfrwt beam="2">  1       21 0.17811941E-01 0.14441030E+03</pdfrwt>
<pdfrwt beam="1">  1       -3 0.45979699E-01 0.14441030E+03</pdfrwt>
<totfact> 0.66037568E+03</totfact>
</mgrwt>
</event>
<event>
 4    1  0.5134057E+003  0.1222474E+03  0.7546771E-02  0.1239435E+00
         -3   -1    0    0    0  501 -0.00000000000E+00  0.00000000000E+00  0.87119955078E+03  0.87119955078E+03  0.00000000000E+00 0. -1.
         21   -1    0    0  501  502  0.00000000000E+00 -0.00000000000E+00 -0.35516366382E+02  0.35516366382E+02  0.00000000000E+00 0.  1.
         21    1    1    2  503  502  0.85764209633E+02 -0.87114475202E+02  0.91860049894E+02  0.15291402882E+03  0.00000000000E+00 0.  1.
         -3    1    1    2    0  503 -0.85764209633E+02  0.87114475202E+02  0.74382313450E+03  0.75380188834E+03  0.00000000000E+00 0. -1.
<mgrwt>
<rscale>  2 0.12224742E+03</rscale>
<asrwt>0</asrwt>
<pdfrwt beam="2">  1       21 0.54640570E-02 0.12224742E+03</pdfrwt>
<pdfrwt beam="1">  1       -3 0.13403068E+00 0.12224742E+03</pdfrwt>
<totfact> 0.50878942E+03</totfact>
</mgrwt>
</event>
<event>
 4    1  0.5134057E+003  0.1027861E+03  0.7546771E-02  0.1274544E+00
         21   -1    0    0  501  502  0.00000000000E+00  0.00000000000E+00  0.62666546595E+01  0.62666546595E+01  0.00000000000E+00 0. -1.
          2   -1    0    0  503    0 -0.00000000000E+00 -0.00000000000E+00 -0.17477444217E+04  0.17477444217E+04  0.00000000000E+00 0. -1.
         21    1    1    2  503  502  0.36670901846E+02 -0.96021962802E+02 -0.70576969791E+03  0.71321514206E+03  0.00000000000E+00 0. -1.
          2    1    1    2  501    0 -0.36670901846E+02  0.96021962802E+02 -0.10357080692E+04  0.10407959343E+04  0.00000000000E+00 0. -1.
<mgrwt>
<rscale>  2 0.10278605E+03</rscale>
<asrwt>0</asrwt>
<pdfrwt beam="1">  1       21 0.96409938E-03 0.10278605E+03</pdfrwt>
<pdfrwt beam="2">  1        2 0.26888413E+00 0.10278605E+03</pdfrwt>
<totfact> 0.51004854E+05</totfact>
</mgrwt>
</event>
<event>
 4    1  0.5134057E+003  0.1090429E+03  0.7546771E-02  0.1262353E+00
         21   -1    0    0  503  502  0.00000000000E+00  0.00000000000E+00  0.21987628438E+02  0.21987628438E+02  0.00000000000E+00 0. -1.
          1   -1    0    0  502    0 -0.00000000000E+00 -0.00000000000E+00 -0.80683985119E+03  0.80683985119E+03  0.00000000000E+00 0.  1.
         21    1    1    2  503  501 -0.10174535166E+03  0.39220279631E+02 -0.15444926486E+03  0.18906327601E+03  0.00000000000E+00 0. -1.
          1    1    1    2  501    0  0.10174535166E+03 -0.39220279631E+02 -0.63040295788E+03  0.63976420362E+03  0.00000000000E+00 0.  1.
<mgrwt>
<rscale>  2 0.10904287E+03</rscale>
<asrwt>0</asrwt>
<pdfrwt beam="1">  1       21 0.33827125E-02 0.10904287E+03</pdfrwt>
<pdfrwt beam="2">  1        1 0.12412919E+00 0.10904287E+03</pdfrwt>
<totfact> 0.13027185E+05</totfact>
</mgrwt>
</event>
<event>
 4    1  0.5134057E+003  0.1118920E+03  0.7546771E-02  0.1257106E+00
         21   -1    0    0  503  502  0.00000000000E+00  0.00000000000E+00  0.13780033053E+04  0.13780033053E+04  0.00000000000E+00 0. -1.
         -1   -1    0    0    0  501 -0.00000000000E+00 -0.00000000000E+00 -0.13010105931E+02  0.13010105931E+02  0.00000000000E+00 0. -1.
         21    1    1    2  503  501 -0.10700586732E+03  0.32704158193E+02  0.10644938131E+04  0.10703583025E+04  0.00000000000E+00 0. -1.
         -1    1    1    2    0  502  0.10700586732E+03 -0.32704158193E+02  0.30049938622E+03  0.32065510868E+03  0.00000000000E+00 0. -1.
<mgrwt>
<rscale>  2 0.11189199E+03</rscale>
<asrwt>0</asrwt>
<pdfrwt beam="1">  1       21 0.21200039E+00 0.11189199E+03</pdfrwt>
<pdfrwt beam="2">  1       -1 0.20015559E-02 0.11189199E+03</pdfrwt>
<totfact> 0.69794757E+03</totfact>
</mgrwt>
</event>
<event>
 4    1  0.5134057E+003  0.1666462E+03  0.7546771E-02  0.1181391E+00
          1   -1    0    0  503    0 -0.00000000000E+00  0.00000000000E+00  0.34849257315E+03  0.34849257315E+03  0.00000000000E+00 0.  1.
         21   -1    0    0  501  502  0.00000000000E+00 -0.00000000000E+00 -0.13240411865E+03  0.13240411865E+03  0.00000000000E+00 0.  1.
         21    1    1    2  503  502  0.12536386346E+03  0.10979463015E+03 -0.43674578640E+02  0.17227428098E+03  0.00000000000E+00 0.  1.
          1    1    1    2  501    0 -0.12536386346E+03 -0.10979463015E+03  0.25976303315E+03  0.30862241082E+03  0.00000000000E+00 0.  1.
<mgrwt>
<rscale>  2 0.16664621E+03</rscale>
<asrwt>0</asrwt>
<pdfrwt beam="2">  1       21 0.20369865E-01 0.16664621E+03</pdfrwt>
<pdfrwt beam="1">  1        1 0.53614241E-01 0.16664621E+03</pdfrwt>
<totfact> 0.17761340E+04</totfact>
</mgrwt>
</event>
<event>
 4    1  0.5134057E+003  0.1145007E+03  0.7546771E-02  0.1252455E+00
          1   -1    0    0  502    0 -0.00000000000E+00  0.00000000000E+00  0.19489907062E+04  0.19489907062E+04  0.00000000000E+00 0.  1.
         21   -1    0    0  503  502  0.00000000000E+00 -0.00000000000E+00 -0.10250430678E+02  0.10250430678E+02  0.00000000000E+00 0. -1.
         21    1    1    2  503  501 -0.70712511701E+02  0.90056330902E+02  0.39501012019E+03  0.41127046709E+03  0.00000000000E+00 0. -1.
          1    1    1    2  501    0  0.70712511701E+02 -0.90056330902E+02  0.15437301553E+04  0.15479706698E+04  0.00000000000E+00 0.  1.
<mgrwt>
<rscale>  2 0.11450066E+03</rscale>
<asrwt>0</asrwt>
<pdfrwt beam="2">  1       21 0.15769909E-02 0.11450066E+03</pdfrwt>
<pdfrwt beam="1">  1        1 0.29984443E+00 0.11450066E+03</pdfrwt>
<totfact> 0.76087821E+04</totfact>
</mgrwt>
</event>
<event>
 4    1  0.5134057E+003  0.1172876E+03  0.7546771E-02  0.1247640E+00
          2   -1    0    0  502    0 -0.00000000000E+00  0.00000000000E+00  0.38097237801E+04  0.38097237801E+04  0.00000000000E+00 0.  1.
         21   -1    0    0  503  502  0.00000000000E+00 -0.00000000000E+00 -0.71900163245E+02  0.71900163245E+02  0.00000000000E+00 0.  1.
         21    1    1    2  503  501  0.11678665520E+03  0.10828102027E+02 -0.22538221537E+02  0.11943342102E+03  0.00000000000E+00 0.  1.
          2    1    1    2  501    0 -0.11678665520E+03 -0.10828102027E+02  0.37603618384E+04  0.37621905223E+04  0.00000000000E+00 0.  1.
<mgrwt>
<rscale>  2 0.11728756E+03</rscale>
<asrwt>0</asrwt>
<pdfrwt beam="2">  1       21 0.11061567E-01 0.11728756E+03</pdfrwt>
<pdfrwt beam="1">  1        2 0.58611119E+00 0.11728756E+03</pdfrwt>
<totfact> 0.61328133E+02</totfact>
</mgrwt>
</event>
<event>
 4    1  0.5134057E+003  0.1981241E+03  0.7546771E-02  0.1151331E+00
          2   -1    0    0  502    0 -0.00000000000E+00  0.00000000000E+00  0.79953155619E+02  0.79953155619E+02  0.00000000000E+00 0. -1.
         21   -1    0    0  503  502  0.00000000000E+00 -0.00000000000E+00 -0.53345333712E+03  0.53345333712E+03  0.00000000000E+00 0.  1.
         21    1    1    2  503  501  0.19572462950E+03  0.30741250649E+02 -0.31332097861E+03  0.37070634027E+03  0.00000000000E+00 0.  1.
          2    1    1    2  501    0 -0.19572462950E+03 -0.30741250649E+02 -0.14017920289E+03  0.24270015246E+03  0.00000000000E+00 0. -1.
<mgrwt>
<rscale>  2 0.19812409E+03</rscale>
<asrwt>0</asrwt>
<pdfrwt beam="2">  1       21 0.82069741E-01 0.19812409E+03</pdfrwt>
<pdfrwt beam="1">  1        2 0.12300486E-01 0.19812409E+03</pdfrwt>
<totfact> 0.77984540E+03</totfact>
</mgrwt>
</event>
<event>
 4    1  0.5134057E+003  0.1412014E+03  0.7546771E-02  0.1211721E+00
          1   -1    0    0  503    0 -0.00000000000E+00  0.00000000000E+00  0.34509691757E+03  0.34509691757E+03  0.00000000000E+00 0. -1.
         21   -1    0    0  501  502  0.00000000000E+00 -0.00000000000E+00 -0.57815796049E+02  0.57815796049E+02  0.00000000000E+00 0. -1.
         21    1    1    2  503  502  0.43349062295E+02 -0.13438268267E+03  0.13826493299E+03  0.19762347608E+03  0.00000000000E+00 0. -1.
          1    1    1    2  501    0 -0.43349062295E+02  0.13438268267E+03  0.14901618854E+03  0.20528923754E+03  0.00000000000E+00 0. -1.
<mgrwt>
<rscale>  2 0.14120144E+03</rscale>
<asrwt>0</asrwt>
<pdfrwt beam="2">  1       21 0.88947380E-02 0.14120144E+03</pdfrwt>
<pdfrwt beam="1">  1        1 0.53091833E-01 0.14120144E+03</pdfrwt>
<totfact> 0.79683408E+04</totfact>
</mgrwt>
</event>
<event>
 4    1  0.5134057E+003  0.1288030E+03  0.7546771E-02  0.1229243E+00
         21   -1    0    0  503  502  0.00000000000E+00  0.00000000000E+00  0.11160919129E+03  0.11160919129E+03  0.00000000000E+00 0. -1.
          2   -1    0    0  502    0 -0.00000000000E+00 -0.00000000000E+00 -0.66121363563E+03  0.66121363563E+03  0.00000000000E+00 0. -1.
         21    1    1    2  503  501 -0.27255715002E+02 -0.12588626040E+03  0.65413805471E+02  0.14446172678E+03  0.00000000000E+00 0. -1.
          2    1    1    2  501    0  0.27255715002E+02  0.12588626040E+03 -0.61501824982E+03  0.62836110014E+03  0.00000000000E+00 0. -1.
<mgrwt>
<rscale>  2 0.12880305E+03</rscale>
<asrwt>0</asrwt>
<pdfrwt beam="1">  1       21 0.17170644E-01 0.12880305E+03</pdfrwt>
<pdfrwt beam="2">  1        2 0.10172518E+00 0.12880305E+03</pdfrwt>
<totfact> 0.17547584E+04</totfact>
</mgrwt>
</event>
<event>
 4    1  0.5134057E+003  0.1198015E+03  0.7546771E-02  0.1243425E+00
         -2   -1    0    0    0  501 -0.00000000000E+00  0.00000000000E+00  0.52569528078E+03  0.52569528078E+03  0.00000000000E+00 0.  1.
         21   -1    0    0  503  502  0.00000000000E+00 -0.00000000000E+00 -0.50345949571E+02  0.50345949571E+02  0.00000000000E+00 0. -1.
         21    1    1    2  503  501  0.10247451836E+03 -0.62059483510E+02  0.42814967783E+02  0.12722235603E+03  0.00000000000E+00 0. -1.
         -2    1    1    2    0  502 -0.10247451836E+03  0.62059483510E+02  0.43253436343E+03  0.44881887433E+03  0.00000000000E+00 0.  1.
<mgrwt>
<rscale>  2 0.11980153E+03</rscale>
<asrwt>0</asrwt>
<pdfrwt beam="2">  1       21 0.77455311E-02 0.11980153E+03</pdfrwt>
<pdfrwt beam="1">  1       -2 0.80876193E-01 0.11980153E+03</pdfrwt>
<totfact> 0.14343847E+04</totfact>
</mgrwt>
</event>
<event>
 4    1  0.5134057E+003  0.1019868E+03  0.7546771E-02  0.1276173E+00
         21   -1    0    0  503  502  0.00000000000E+00  0.00000000000E+00  0.52472622136E+02  0.52472622136E+02  0.00000000000E+00 0.  1.
          1   -1    0    0  502    0 -0.00000000000E+00 -0.00000000000E+00 -0.45931064071E+03  0.45931064071E+03  0.00000000000E+00 0.  1.
         21    1    1    2  503  501 -0.97810800131E+02 -0.28885132454E+02 -0.10490848838E+02  0.10252493067E+03  0.00000000000E+00 0.  1.
          1    1    1    2  501    0  0.97810800131E+02  0.28885132454E+02 -0.39634716973E+03  0.40925833217E+03  0.00000000000E+00 0.  1.
<mgrwt>
<rscale>  2 0.10198678E+03</rscale>
<asrwt>0</asrwt>
<pdfrwt beam="1">  1       21 0.80727112E-02 0.10198678E+03</pdfrwt>
<pdfrwt beam="2">  1        1 0.70663175E-01 0.10198678E+03</pdfrwt>
<totfact> 0.65261831E+04</totfact>
</mgrwt>
</event>
<event>
 4    1  0.5134057E+003  0.1496961E+03  0.7546771E-02  0.1200847E+00
         21   -1    0    0  501  502  0.00000000000E+00  0.00000000000E+00  0.99662350300E+02  0.99662350300E+02  0.00000000000E+00 0.  1.
          1   -1    0    0  503    0 -0.00000000000E+00 -0.00000000000E+00 -0.48865412079E+03  0.48865412079E+03  0.00000000000E+00 0.  1.
         21    1    1    2  503  502 -0.13628568205E+03  0.61928578441E+02  0.21637672276E+02  0.15125185890E+03  0.00000000000E+00 0.  1.
          1    1    1    2  501    0  0.13628568205E+03 -0.61928578441E+02 -0.41062944277E+03  0.43706461219E+03  0.00000000000E+00 0.  1.
<mgrwt>
<rscale>  2 0.14969615E+03</rscale>
<asrwt>0</asrwt>
<pdfrwt beam="1">  1       21 0.15332669E-01 0.14969615E+03</pdfrwt>
<pdfrwt beam="2">  1        1 0.75177558E-01 0.14969615E+03</pdfrwt>
<totfact> 0.19496042E+04</totfact>
</mgrwt>
</event>
<event>
 4    1  0.5134057E+003  0.1051777E+03  0.7546771E-02  0.1269770E+00
         21   -1    0    0  501  502  0.00000000000E+00  0.00000000000E+00  0.36342733655E+02  0.36342733655E+02  0.00000000000E+00 0. -1.
          2   -1    0    0  503    0 -0.00000000000E+00 -0.00000000000E+00 -0.15115429085E+04  0.15115429085E+04  0.00000000000E+00 0.  1.
         21    1    1    2  503  502 -0.43109347196E+02 -0.95937095414E+02 -0.45960424338E+02  0.11478110775E+03  0.00000000000E+00 0. -1.
          2    1    1    2  501    0  0.43109347196E+02  0.95937095414E+02 -0.14292397505E+04  0.14331045344E+04  0.00000000000E+00 0.  1.
<mgrwt>
<rscale>  2 0.10517767E+03</rscale>
<asrwt>0</asrwt>
<pdfrwt beam="1">  1       21 0.55911918E-02 0.10517767E+03</pdfrwt>
<pdfrwt beam="2">  1        2 0.23254498E+00 0.10517767E+03</pdfrwt>
<totfact> 0.39184264E+04</totfact>
</mgrwt>
</event>
<event>
 4    1  0.5134057E+003  0.1156212E+03  0.7546771E-02  0.1250501E+00
          2   -1    0    0  503    0 -0.00000000000E+00  0.00000000000E+00  0.15021687535E+04  0.15021687535E+04  0.00000000000E+00 0.  1.
         21   -1    0    0  501  502  0.00000000000E+00 -0.00000000000E+00 -0.75326642080E+03  0.75326642080E+03  0.00000000000E+00 0. -1.
         21    1    1    2  503  502 -0.59355703322E+02  0.99222786189E+02 -0.74658503767E+03  0.75548492989E+03  0.00000000000E+00 0. -1.
          2    1    1    2  501    0  0.59355703322E+02 -0.99222786189E+02  0.14954873704E+04  0.14999502444E+04  0.00000000000E+00 0.  1.
<mgrwt>
<rscale>  2 0.11562120E+03</rscale>
<asrwt>0</asrwt>
<pdfrwt beam="2">  1       21 0.11588714E+00 0.11562120E+03</pdfrwt>
<pdfrwt beam="1">  1        2 0.23110288E+00 0.11562120E+03</pdfrwt>
<totfact> 0.11086405E+02</totfact>
</mgrwt>
</event>
<event>
 4    1  0.5134057E+003  0.1026669E+03  0.7546771E-02  0.1274786E+00
          2   -1    0    0  503    0 -0.00000000000E+00  0.00000000000E+00  0.96209851485E+03  0.96209851485E+03  0.00000000000E+00 0.  1.
         21   -1    0    0  501  502  0.00000000000E+00 -0.00000000000E+00 -0.11297467873E+02  0.11297467873E+02  0.00000000000E+00 0.  1.
         21    1    1    2  503  502 -0.88086581243E+02 -0.52737532378E+02  0.39075294750E+03  0.40401529562E+03  0.00000000000E+00 0.  1.
          2    1    1    2  501    0  0.88086581243E+02  0.52737532378E+02  0.56004809947E+03  0.56938068710E+03  0.00000000000E+00 0.  1.
<mgrwt>
<rscale>  2 0.10266690E+03</rscale>
<asrwt>0</asrwt>
<pdfrwt beam="2">  1       21 0.17380727E-02 0.10266690E+03</pdfrwt>
<pdfrwt beam="1">  1        2 0.14801509E+00 0.10266690E+03</pdfrwt>
<totfact> 0.52844554E+05</totfact>
</mgrwt>
</event>
<event>
 4    1  0.5134057E+003  0.1680657E+03  0.7546771E-02  0.1179880E+00
         21   -1    0    0  503  502  0.00000000000E+00  0.00000000000E+00  0.50036413463E+03  0.50036413463E+03  0.00000000000E+00 0.  1.
          3   -1    0    0  502    0 -0.00000000000E+00 -0.00000000000E+00 -0.19005521316E+03  0.19005521316E+03  0.00000000000E+00 0.  1.
         21    1    1    2  503  501  0.14706092341E+02 -0.16742101873E+03  0.44459083263E+03  0.47529682844E+03  0.00000000000E+00 0.  1.
          3    1    1    2  501    0 -0.14706092341E+02  0.16742101873E+03 -0.13428191116E+03  0.21512251935E+03  0.00000000000E+00 0.  1.
<mgrwt>
<rscale>  2 0.16806566E+03</rscale>
<asrwt>0</asrwt>
<pdfrwt beam="1">  1       21 0.76979097E-01 0.16806566E+03</pdfrwt>
<pdfrwt beam="2">  1        3 0.29239264E-01 0.16806566E+03</pdfrwt>
<totfact> 0.83588220E+02</totfact>
</mgrwt>
</event>
<event>
 4    1  0.5134057E+003  0.1177136E+03  0.7546771E-02  0.1246917E+00
         21   -1    0    0  503  502  0.00000000000E+00  0.00000000000E+00  0.89181472431E+02  0.89181472431E+02  0.00000000000E+00 0. -1.
          2   -1    0    0  502    0 -0.00000000000E+00 -0.00000000000E+00 -0.59883208323E+03  0.59883208323E+03  0.00000000000E+00 0. -1.
         21    1    1    2  503  501 -0.42801554154E+02 -0.10965632726E+03  0.41208120601E+02  0.12471805142E+03  0.00000000000E+00 0. -1.
          2    1    1    2  501    0  0.42801554154E+02  0.10965632726E+03 -0.55085873140E+03  0.56329550425E+03  0.00000000000E+00 0. -1.
<mgrwt>
<rscale>  2 0.11771356E+03</rscale>
<asrwt>0</asrwt>
<pdfrwt beam="1">  1       21 0.13720227E-01 0.11771356E+03</pdfrwt>
<pdfrwt beam="2">  1        2 0.92128009E-01 0.11771356E+03</pdfrwt>
<totfact> 0.29507827E+04</totfact>
</mgrwt>
</event>
<event>
 4    1  0.5134057E+003  0.1063888E+03  0.7546771E-02  0.1267407E+00
         21   -1    0    0  503  502  0.00000000000E+00  0.00000000000E+00  0.26745170961E+02  0.26745170961E+02  0.00000000000E+00 0.  1.
          1   -1    0    0  502    0 -0.00000000000E+00 -0.00000000000E+00 -0.84543823984E+03  0.84543823984E+03  0.00000000000E+00 0.  1.
         21    1    1    2  503  501  0.10616453242E+03 -0.69048335731E+01 -0.10115896387E+03  0.14680504297E+03  0.00000000000E+00 0.  1.
          1    1    1    2  501    0 -0.10616453242E+03  0.69048335731E+01 -0.71753410500E+03  0.72537836783E+03  0.00000000000E+00 0.  1.
<mgrwt>
<rscale>  2 0.10638884E+03</rscale>
<asrwt>0</asrwt>
<pdfrwt beam="1">  1       21 0.41146426E-02 0.10638884E+03</pdfrwt>
<pdfrwt beam="2">  1        1 0.13006739E+00 0.10638884E+03</pdfrwt>
<totfact> 0.87824073E+04</totfact>
</mgrwt>
</event>
<event>
 4    1  0.5134057E+003  0.1149613E+03  0.7546771E-02  0.1251649E+00
         21   -1    0    0  501  502  0.00000000000E+00  0.00000000000E+00  0.32465149450E+03  0.32465149450E+03  0.00000000000E+00 0. -1.
          2   -1    0    0  503    0 -0.00000000000E+00 -0.00000000000E+00 -0.33906126765E+03  0.33906126765E+03  0.00000000000E+00 0.  1.
         21    1    1    2  503  502 -0.11442965393E+03  0.11043733488E+02  0.30409290560E+03  0.32509783909E+03  0.00000000000E+00 0. -1.
          2    1    1    2  501    0  0.11442965393E+03 -0.11043733488E+02 -0.31850267875E+03  0.33861492306E+03  0.00000000000E+00 0.  1.
<mgrwt>
<rscale>  2 0.11496134E+03</rscale>
<asrwt>0</asrwt>
<pdfrwt beam="1">  1       21 0.49946384E-01 0.11496134E+03</pdfrwt>
<pdfrwt beam="2">  1        2 0.52163272E-01 0.11496134E+03</pdfrwt>
<totfact> 0.46719478E+03</totfact>
</mgrwt>
</event>
<event>
 4    1  0.5134057E+003  0.1084754E+03  0.7546771E-02  0.1263419E+00
         21   -1    0    0  501  502  0.00000000000E+00  0.00000000000E+00  0.90954179950E+03  0.90954179950E+03  0.00000000000E+00 0. -1.
          2   -1    0    0  503    0 -0.00000000000E+00 -0.00000000000E+00 -0.85790125658E+03  0.85790125658E+03  0.00000000000E+00 0. -1.
         21    1    1    2  503  502 -0.68123364741E+02  0.84416390578E+02  0.90285320450E+03  0.90934637443E+03  0.00000000000E+00 0. -1.
          2    1    1    2  501    0  0.68123364741E+02 -0.84416390578E+02 -0.85121266158E+03  0.85809668164E+03  0.00000000000E+00 0. -1.
<mgrwt>
<rscale>  2 0.10847543E+03</rscale>
<asrwt>0</asrwt>
<pdfrwt beam="1">  1       21 0.13992951E+00 0.10847543E+03</pdfrwt>
<pdfrwt beam="2">  1        2 0.13198481E+00 0.10847543E+03</pdfrwt>
<totfact> 0.16190528E+02</totfact>
</mgrwt>
</event>
<event>
 4    1  0.5134057E+003  0.1195681E+03  0.7546771E-02  0.1243811E+00
         21   -1    0    0  501  502  0.00000000000E+00  0.00000000000E+00  0.12973021405E+02  0.12973021405E+02  0.00000000000E+00 0. -1.
          4   -1    0    0  503    0 -0.00000000000E+00 -0.00000000000E+00 -0.11817468275E+04  0.11817468275E+04  0.00000000000E+00 0. -1.
         21    1    1    2  503  502 -0.92394277572E+02 -0.75893537492E+02 -0.42922840221E+03  0.44557104128E+03  0.00000000000E+00 0. -1.
          4    1    1    2  501    0  0.92394277572E+02  0.75893537492E+02 -0.73954540387E+03  0.74914880761E+03  0.00000000000E+00 0. -1.
<mgrwt>
<rscale>  2 0.11956810E+03</rscale>
<asrwt>0</asrwt>
<pdfrwt beam="1">  1       21 0.19958495E-02 0.11956810E+03</pdfrwt>
<pdfrwt beam="2">  1        4 0.18180720E+00 0.11956810E+03</pdfrwt>
<totfact> 0.95386508E+03</totfact>
</mgrwt>
</event>
<event>
 4    1  0.5134057E+003  0.1051034E+03  0.7546771E-02  0.1269916E+00
         -3   -1    0    0    0  501 -0.00000000000E+00  0.00000000000E+00  0.71016188062E+03  0.71016188062E+03  0.00000000000E+00 0.  1.
         21   -1    0    0  503  502  0.00000000000E+00 -0.00000000000E+00 -0.15587820741E+02  0.15587820741E+02  0.00000000000E+00 0.  1.
         21    1    1    2  503  501 -0.52438014423E+02  0.91087713426E+02  0.33068935498E+03  0.34699015316E+03  0.00000000000E+00 0.  1.
         -3    1    1    2    0  502  0.52438014423E+02 -0.91087713426E+02  0.36388470490E+03  0.37875954820E+03  0.00000000000E+00 0.  1.
<mgrwt>
<rscale>  2 0.10510336E+03</rscale>
<asrwt>0</asrwt>
<pdfrwt beam="2">  1       21 0.23981268E-02 0.10510336E+03</pdfrwt>
<pdfrwt beam="1">  1       -3 0.10925565E+00 0.10510336E+03</pdfrwt>
<totfact> 0.31626753E+04</totfact>
</mgrwt>
</event>
<event>
 4    1  0.5134057E+003  0.1210903E+03  0.7546771E-02  0.1241309E+00
         21   -1    0    0  501  502  0.00000000000E+00  0.00000000000E+00  0.13259454879E+03  0.13259454879E+03  0.00000000000E+00 0. -1.
         -1   -1    0    0    0  501 -0.00000000000E+00 -0.00000000000E+00 -0.11060554322E+03  0.11060554322E+03  0.00000000000E+00 0. -1.
         21    1    1    2  503  502 -0.54877464944E+02 -0.10794130182E+03  0.93049358558E+01  0.12144728333E+03  0.00000000000E+00 0. -1.
         -1    1    1    2    0  503  0.54877464944E+02  0.10794130182E+03  0.12684069708E+02  0.12175280868E+03  0.00000000000E+00 0. -1.
<mgrwt>
<rscale>  2 0.12109030E+03</rscale>
<asrwt>0</asrwt>
<pdfrwt beam="1">  1       21 0.20399161E-01 0.12109030E+03</pdfrwt>
<pdfrwt beam="2">  1       -1 0.17016237E-01 0.12109030E+03</pdfrwt>
<totfact> 0.52029521E+04</totfact>
</mgrwt>
</event>
<event>
 4    1  0.5134057E+003  0.1035455E+03  0.7546771E-02  0.1273012E+00
         21   -1    0    0  503  502  0.00000000000E+00  0.00000000000E+00  0.80413400241E+02  0.80413400241E+02  0.00000000000E+00 0. -1.
          2   -1    0    0  502    0 -0.00000000000E+00 -0.00000000000E+00 -0.24604310277E+04  0.24604310277E+04  0.00000000000E+00 0.  1.
         21    1    1    2  503  501 -0.85075194624E+02  0.59024344548E+02  0.45511624802E+02  0.11310601214E+03  0.00000000000E+00 0. -1.
          2    1    1    2  501    0  0.85075194624E+02 -0.59024344548E+02 -0.24255292523E+04  0.24277384158E+04  0.00000000000E+00 0.  1.
<mgrwt>
<rscale>  2 0.10354546E+03</rscale>
<asrwt>0</asrwt>
<pdfrwt beam="1">  1       21 0.12371294E-01 0.10354546E+03</pdfrwt>
<pdfrwt beam="2">  1        2 0.37852780E+00 0.10354546E+03</pdfrwt>
<totfact> 0.32815551E+03</totfact>
</mgrwt>
</event>
<event>
 4    1  0.5134057E+003  0.1316370E+03  0.7546771E-02  0.1225047E+00
         -3   -1    0    0    0  501 -0.00000000000E+00  0.00000000000E+00  0.98841368890E+02  0.98841368890E+02  0.00000000000E+00 0. -1.
         21   -1    0    0  501  502  0.00000000000E+00 -0.00000000000E+00 -0.46768444621E+03  0.46768444621E+03  0.00000000000E+00 0.  1.
         21    1    1    2  503  502 -0.30293786926E+02 -0.12810380153E+03 -0.40838636466E+03  0.42907775558E+03  0.00000000000E+00 0.  1.
         -3    1    1    2    0  503  0.30293786926E+02  0.12810380153E+03  0.39543287341E+02  0.13744805952E+03  0.00000000000E+00 0. -1.
<mgrwt>
<rscale>  2 0.13163699E+03</rscale>
<asrwt>0</asrwt>
<pdfrwt beam="2">  1       21 0.71951454E-01 0.13163699E+03</pdfrwt>
<pdfrwt beam="1">  1       -3 0.15206364E-01 0.13163699E+03</pdfrwt>
<totfact> 0.31025692E+03</totfact>
</mgrwt>
</event>
<event>
 4    1  0.5134057E+003  0.1026484E+03  0.7546771E-02  0.1274823E+00
         21   -1    0    0  501  502  0.00000000000E+00  0.00000000000E+00  0.51316667251E+02  0.51316667251E+02  0.00000000000E+00 0. -1.
          3   -1    0    0  503    0 -0.00000000000E+00 -0.00000000000E+00 -0.11179123390E+04  0.11179123390E+04  0.00000000000E+00 0. -1.
         21    1    1    2  503  502  0.92110906717E+02 -0.45301954735E+02 -0.50928389074E+01  0.10277462356E+03  0.00000000000E+00 0. -1.
          3    1    1    2  501    0 -0.92110906717E+02  0.45301954735E+02 -0.10615028329E+04  0.10664543827E+04  0.00000000000E+00 0. -1.
<mgrwt>
<rscale>  2 0.10264836E+03</rscale>
<asrwt>0</asrwt>
<pdfrwt beam="1">  1       21 0.78948718E-02 0.10264836E+03</pdfrwt>
<pdfrwt beam="2">  1        3 0.17198652E+00 0.10264836E+03</pdfrwt>
<totfact> 0.14614126E+03</totfact>
</mgrwt>
</event>
<event>
 4    1  0.5134057E+003  0.1023978E+03  0.7546771E-02  0.1275333E+00
         21   -1    0    0  503  502  0.00000000000E+00  0.00000000000E+00  0.12279217190E+03  0.12279217190E+03  0.00000000000E+00 0. -1.
          2   -1    0    0  502    0 -0.00000000000E+00 -0.00000000000E+00 -0.91201446635E+03  0.91201446635E+03  0.00000000000E+00 0.  1.
         21    1    1    2  503  501 -0.99615695958E+02 -0.23707196681E+02  0.97975088577E+02  0.14171956829E+03  0.00000000000E+00 0. -1.
          2    1    1    2  501    0  0.99615695958E+02  0.23707196681E+02 -0.88719738304E+03  0.89308706996E+03  0.00000000000E+00 0.  1.
<mgrwt>
<rscale>  2 0.10239784E+03</rscale>
<asrwt>0</asrwt>
<pdfrwt beam="1">  1       21 0.18891104E-01 0.10239784E+03</pdfrwt>
<pdfrwt beam="2">  1        2 0.14030992E+00 0.10239784E+03</pdfrwt>
<totfact> 0.10018849E+04</totfact>
</mgrwt>
</event>
<event>
 4    1  0.5134057E+003  0.3079360E+03  0.7546771E-02  0.1081339E+00
         -1   -1    0    0    0  501 -0.00000000000E+00  0.00000000000E+00  0.39639821397E+03  0.39639821397E+03  0.00000000000E+00 0. -1.
         21   -1    0    0  503  502  0.00000000000E+00 -0.00000000000E+00 -0.40815028550E+03  0.40815028550E+03  0.00000000000E+00 0. -1.
         21    1    1    2  503  501  0.28739462765E+03 -0.11058426053E+03 -0.26468056568E+03  0.40605461767E+03  0.00000000000E+00 0. -1.
         -1    1    1    2    0  502 -0.28739462765E+03  0.11058426053E+03  0.25292849416E+03  0.39849388180E+03  0.00000000000E+00 0. -1.
<mgrwt>
<rscale>  2 0.30793595E+03</rscale>
<asrwt>0</asrwt>
<pdfrwt beam="2">  1       21 0.62792351E-01 0.30793595E+03</pdfrwt>
<pdfrwt beam="1">  1       -1 0.60984341E-01 0.30793595E+03</pdfrwt>
<totfact> 0.58757788E+02</totfact>
</mgrwt>
</event>
<event>
 4    1  0.5134057E+003  0.1196914E+03  0.7546771E-02  0.1243607E+00
         21   -1    0    0  503  502  0.00000000000E+00  0.00000000000E+00  0.11098673708E+03  0.11098673708E+03  0.00000000000E+00 0.  1.
          2   -1    0    0  502    0 -0.00000000000E+00 -0.00000000000E+00 -0.24693431146E+03  0.24693431146E+03  0.00000000000E+00 0.  1.
         21    1    1    2  503  501 -0.11742884265E+03 -0.23162584311E+02  0.55661207101E+02  0.13200078930E+03  0.00000000000E+00 0.  1.
          2    1    1    2  501    0  0.11742884265E+03  0.23162584311E+02 -0.19160878148E+03  0.22592025925E+03  0.00000000000E+00 0.  1.
<mgrwt>
<rscale>  2 0.11969143E+03</rscale>
<asrwt>0</asrwt>
<pdfrwt beam="1">  1       21 0.17074883E-01 0.11969143E+03</pdfrwt>
<pdfrwt beam="2">  1        2 0.37989893E-01 0.11969143E+03</pdfrwt>
<totfact> 0.51469244E+04</totfact>
</mgrwt>
</event>
<event>
 4    1  0.5134057E+003  0.1255738E+03  0.7546771E-02  0.1234175E+00
         21   -1    0    0  501  502  0.00000000000E+00  0.00000000000E+00  0.80662870908E+02  0.80662870908E+02  0.00000000000E+00 0.  1.
         -1   -1    0    0    0  501 -0.00000000000E+00 -0.00000000000E+00 -0.86356770998E+03  0.86356770998E+03  0.00000000000E+00 0.  1.
         21    1    1    2  503  502 -0.12391263243E+03 -0.20357757084E+02  0.23801158629E+02  0.12780952195E+03  0.00000000000E+00 0.  1.
         -1    1    1    2    0  503  0.12391263243E+03  0.20357757084E+02 -0.80670599770E+03  0.81642105894E+03  0.00000000000E+00 0.  1.
<mgrwt>
<rscale>  2 0.12557380E+03</rscale>
<asrwt>0</asrwt>
<pdfrwt beam="1">  1       21 0.12409672E-01 0.12557380E+03</pdfrwt>
<pdfrwt beam="2">  1       -1 0.13285657E+00 0.12557380E+03</pdfrwt>
<totfact> 0.27425698E+03</totfact>
</mgrwt>
</event>
<event>
 4    1  0.5134057E+003  0.1049535E+03  0.7546771E-02  0.1270211E+00
          2   -1    0    0  503    0 -0.00000000000E+00  0.00000000000E+00  0.13024025657E+04  0.13024025657E+04  0.00000000000E+00 0. -1.
         21   -1    0    0  501  502  0.00000000000E+00 -0.00000000000E+00 -0.17282993146E+03  0.17282993146E+03  0.00000000000E+00 0. -1.
         21    1    1    2  503  502 -0.80790913018E+02  0.66993008567E+02 -0.15455551779E+03  0.18682249036E+03  0.00000000000E+00 0. -1.
          2    1    1    2  501    0  0.80790913018E+02 -0.66993008567E+02  0.12841281521E+04  0.12884100068E+04  0.00000000000E+00 0. -1.
<mgrwt>
<rscale>  2 0.10495349E+03</rscale>
<asrwt>0</asrwt>
<pdfrwt beam="2">  1       21 0.26589221E-01 0.10495349E+03</pdfrwt>
<pdfrwt beam="1">  1        2 0.20036962E+00 0.10495349E+03</pdfrwt>
<totfact> 0.31820382E+03</totfact>
</mgrwt>
</event>
<event>
 4    1  0.5134057E+003  0.1211666E+03  0.7546771E-02  0.1241185E+00
         -4   -1    0    0    0  501 -0.00000000000E+00  0.00000000000E+00  0.15192422300E+03  0.15192422300E+03  0.00000000000E+00 0.  1.
         21   -1    0    0  503  502  0.00000000000E+00 -0.00000000000E+00 -0.16656409058E+03  0.16656409058E+03  0.00000000000E+00 0.  1.
         21    1    1    2  503  501 -0.11716290452E+03  0.30889922537E+02 -0.11050075318E+03  0.16398704206E+03  0.00000000000E+00 0.  1.
         -4    1    1    2    0  502  0.11716290452E+03 -0.30889922537E+02  0.95860885604E+02  0.15450127152E+03  0.00000000000E+00 0.  1.
<mgrwt>
<rscale>  2 0.12116655E+03</rscale>
<asrwt>0</asrwt>
<pdfrwt beam="2">  1       21 0.25625245E-01 0.12116655E+03</pdfrwt>
<pdfrwt beam="1">  1       -4 0.23372957E-01 0.12116655E+03</pdfrwt>
<totfact> 0.99676163E+03</totfact>
</mgrwt>
</event>
<event>
 4    1  0.5134057E+003  0.1012113E+03  0.7546771E-02  0.1277769E+00
         21   -1    0    0  501  502  0.00000000000E+00  0.00000000000E+00  0.87296584224E+02  0.87296584224E+02  0.00000000000E+00 0.  1.
         -2   -1    0    0    0  501 -0.00000000000E+00 -0.00000000000E+00 -0.41539250895E+03  0.41539250895E+03  0.00000000000E+00 0. -1.
         21    1    1    2  503  502  0.10092144426E+03 -0.76549432922E+01  0.48855912604E+02  0.11238610352E+03  0.00000000000E+00 0.  1.
         -2    1    1    2    0  503 -0.10092144426E+03  0.76549432922E+01 -0.37695183733E+03  0.39030298966E+03  0.00000000000E+00 0. -1.
<mgrwt>
<rscale>  2 0.10121134E+03</rscale>
<asrwt>0</asrwt>
<pdfrwt beam="1">  1       21 0.13430244E-01 0.10121134E+03</pdfrwt>
<pdfrwt beam="2">  1       -2 0.63906541E-01 0.10121134E+03</pdfrwt>
<totfact> 0.90379076E+03</totfact>
</mgrwt>
</event>
<event>
 4    1  0.5134057E+003  0.1206138E+03  0.7546771E-02  0.1242088E+00
          2   -1    0    0  503    0 -0.00000000000E+00  0.00000000000E+00  0.16873814809E+04  0.16873814809E+04  0.00000000000E+00 0.  1.
         21   -1    0    0  501  502  0.00000000000E+00 -0.00000000000E+00 -0.19753720409E+02  0.19753720409E+02  0.00000000000E+00 0. -1.
         21    1    1    2  503  502  0.10492572400E+03  0.59483509909E+02  0.19303954618E+03  0.22762241080E+03  0.00000000000E+00 0. -1.
          2    1    1    2  501    0 -0.10492572400E+03 -0.59483509909E+02  0.14745882143E+04  0.14795127905E+04  0.00000000000E+00 0.  1.
<mgrwt>
<rscale>  2 0.12061383E+03</rscale>
<asrwt>0</asrwt>
<pdfrwt beam="2">  1       21 0.30390352E-02 0.12061383E+03</pdfrwt>
<pdfrwt beam="1">  1        2 0.25959704E+00 0.12061383E+03</pdfrwt>
<totfact> 0.87371657E+04</totfact>
</mgrwt>
</event>
<event>
 4    1  0.5134057E+003  0.1303023E+03  0.7546771E-02  0.1227008E+00
          2   -1    0    0  503    0 -0.00000000000E+00  0.00000000000E+00  0.38126665972E+04  0.38126665972E+04  0.00000000000E+00 0.  1.
         21   -1    0    0  501  502  0.00000000000E+00 -0.00000000000E+00 -0.67346849793E+01  0.67346849793E+01  0.00000000000E+00 0.  1.
         21    1    1    2  503  502 -0.10462799486E+03 -0.77663761384E+02  0.79145766777E+03  0.80211215987E+03  0.00000000000E+00 0.  1.
          2    1    1    2  501    0  0.10462799486E+03  0.77663761384E+02  0.30144742444E+04  0.30172891223E+04  0.00000000000E+00 0.  1.
<mgrwt>
<rscale>  2 0.13030225E+03</rscale>
<asrwt>0</asrwt>
<pdfrwt beam="2">  1       21 0.10361084E-02 0.13030225E+03</pdfrwt>
<pdfrwt beam="1">  1        2 0.58656237E+00 0.13030225E+03</pdfrwt>
<totfact> 0.30226741E+04</totfact>
</mgrwt>
</event>
<event>
 4    1  0.5134057E+003  0.1182235E+03  0.7546771E-02  0.1246057E+00
         -1   -1    0    0    0  501 -0.00000000000E+00  0.00000000000E+00  0.62743675500E+03  0.62743675500E+03  0.00000000000E+00 0. -1.
         21   -1    0    0  503  502  0.00000000000E+00 -0.00000000000E+00 -0.25725460215E+02  0.25725460215E+02  0.00000000000E+00 0. -1.
         21    1    1    2  503  501  0.69963002023E+02 -0.95299382412E+02  0.18126870318E+03  0.21641427100E+03  0.00000000000E+00 0. -1.
         -1    1    1    2    0  502 -0.69963002023E+02  0.95299382412E+02  0.42044259160E+03  0.43674794421E+03  0.00000000000E+00 0. -1.
<mgrwt>
<rscale>  2 0.11822349E+03</rscale>
<asrwt>0</asrwt>
<pdfrwt beam="2">  1       21 0.39577636E-02 0.11822349E+03</pdfrwt>
<pdfrwt beam="1">  1       -1 0.96528720E-01 0.11822349E+03</pdfrwt>
<totfact> 0.40361626E+04</totfact>
</mgrwt>
</event>
<event>
 4    1  0.5134057E+003  0.1180206E+03  0.7546771E-02  0.1246399E+00
          1   -1    0    0  502    0 -0.00000000000E+00  0.00000000000E+00  0.14344668075E+04  0.14344668075E+04  0.00000000000E+00 0. -1.
         21   -1    0    0  503  502  0.00000000000E+00 -0.00000000000E+00 -0.80870928106E+03  0.80870928106E+03  0.00000000000E+00 0.  1.
         21    1    1    2  503  501 -0.31268111646E+02 -0.11380316011E+03 -0.80195552486E+03  0.81059331228E+03  0.00000000000E+00 0.  1.
          1    1    1    2  501    0  0.31268111646E+02  0.11380316011E+03  0.14277130513E+04  0.14325827763E+04  0.00000000000E+00 0. -1.
<mgrwt>
<rscale>  2 0.11802057E+03</rscale>
<asrwt>0</asrwt>
<pdfrwt beam="2">  1       21 0.12441681E+00 0.11802057E+03</pdfrwt>
<pdfrwt beam="1">  1        1 0.22068720E+00 0.11802057E+03</pdfrwt>
<totfact> 0.47888704E+01</totfact>
</mgrwt>
</event>
<event>
 4    1  0.5134057E+003  0.1400060E+03  0.7546771E-02  0.1213321E+00
          4   -1    0    0  503    0 -0.00000000000E+00  0.00000000000E+00  0.11902904973E+03  0.11902904973E+03  0.00000000000E+00 0. -1.
         21   -1    0    0  501  502  0.00000000000E+00 -0.00000000000E+00 -0.26434220117E+03  0.26434220117E+03  0.00000000000E+00 0. -1.
         21    1    1    2  503  502  0.96078155180E+02 -0.10183651058E+03 -0.19035532452E+03  0.23629819374E+03  0.00000000000E+00 0. -1.
          4    1    1    2  501    0 -0.96078155180E+02  0.10183651058E+03  0.45042173084E+02  0.14707305717E+03  0.00000000000E+00 0. -1.
<mgrwt>
<rscale>  2 0.14000602E+03</rscale>
<asrwt>0</asrwt>
<pdfrwt beam="2">  1       21 0.40668030E-01 0.14000602E+03</pdfrwt>
<pdfrwt beam="1">  1        4 0.18312162E-01 0.14000602E+03</pdfrwt>
<totfact> 0.63678255E+03</totfact>
</mgrwt>
</event>
<event>
 4    1  0.5134057E+003  0.1511879E+03  0.7546771E-02  0.1199021E+00
          2   -1    0    0  503    0 -0.00000000000E+00  0.00000000000E+00  0.40122103526E+04  0.40122103526E+04  0.00000000000E+00 0.  1.
         21   -1    0    0  501  502  0.00000000000E+00 -0.00000000000E+00 -0.55239672794E+02  0.55239672794E+02  0.00000000000E+00 0.  1.
         21    1    1    2  503  502 -0.65798379148E+02  0.13611888132E+03  0.52485867837E+02  0.16003919168E+03  0.00000000000E+00 0.  1.
          2    1    1    2  501    0  0.65798379148E+02 -0.13611888132E+03  0.39044848119E+04  0.39074108337E+04  0.00000000000E+00 0.  1.
<mgrwt>
<rscale>  2 0.15118788E+03</rscale>
<asrwt>0</asrwt>
<pdfrwt beam="2">  1       21 0.84984143E-02 0.15118788E+03</pdfrwt>
<pdfrwt beam="1">  1        2 0.61726290E+00 0.15118788E+03</pdfrwt>
<totfact> 0.66217372E+02</totfact>
</mgrwt>
</event>
<event>
 4    1  0.5134057E+003  0.1199914E+03  0.7546771E-02  0.1243111E+00
         21   -1    0    0  501  502  0.00000000000E+00  0.00000000000E+00  0.10846011681E+02  0.10846011681E+02  0.00000000000E+00 0. -1.
          2   -1    0    0  503    0 -0.00000000000E+00 -0.00000000000E+00 -0.14232969265E+04  0.14232969265E+04  0.00000000000E+00 0. -1.
         21    1    1    2  503  502 -0.11951926155E+03 -0.10633510248E+02 -0.52017836624E+03  0.53383841949E+03  0.00000000000E+00 0. -1.
          2    1    1    2  501    0  0.11951926155E+03  0.10633510248E+02 -0.89227254857E+03  0.90030451868E+03  0.00000000000E+00 0. -1.
<mgrwt>
<rscale>  2 0.11999136E+03</rscale>
<asrwt>0</asrwt>
<pdfrwt beam="1">  1       21 0.16686176E-02 0.11999136E+03</pdfrwt>
<pdfrwt beam="2">  1        2 0.21896870E+00 0.11999136E+03</pdfrwt>
<totfact> 0.31541887E+05</totfact>
</mgrwt>
</event>
<event>
 4    1  0.5134057E+003  0.2483214E+03  0.7546771E-02  0.1114370E+00
         21   -1    0    0  501  502  0.00000000000E+00  0.00000000000E+00  0.41720565492E+02  0.41720565492E+02  0.00000000000E+00 0. -1.
          1   -1    0    0  503    0 -0.00000000000E+00 -0.00000000000E+00 -0.19435136634E+04  0.19435136634E+04  0.00000000000E+00 0.  1.
         21    1    1    2  503  502 -0.86824468314E+02  0.23264783483E+03 -0.46510662659E+03  0.52724536740E+03  0.00000000000E+00 0. -1.
          1    1    1    2  501    0  0.86824468314E+02 -0.23264783483E+03 -0.14366864713E+04  0.14579888614E+04  0.00000000000E+00 0.  1.
<mgrwt>
<rscale>  2 0.24832137E+03</rscale>
<asrwt>0</asrwt>
<pdfrwt beam="1">  1       21 0.64185477E-02 0.24832137E+03</pdfrwt>
<pdfrwt beam="2">  1        1 0.29900214E+00 0.24832137E+03</pdfrwt>
<totfact> 0.72204690E+03</totfact>
</mgrwt>
</event>
<event>
 4    1  0.5134057E+003  0.1285295E+03  0.7546771E-02  0.1229654E+00
         21   -1    0    0  501  502  0.00000000000E+00  0.00000000000E+00  0.14658052912E+02  0.14658052912E+02  0.00000000000E+00 0.  1.
          2   -1    0    0  503    0 -0.00000000000E+00 -0.00000000000E+00 -0.27333397311E+04  0.27333397311E+04  0.00000000000E+00 0. -1.
         21    1    1    2  503  502 -0.12741546125E+03  0.16886211939E+02 -0.30603070429E+03  0.33192564813E+03  0.00000000000E+00 0.  1.
          2    1    1    2  501    0  0.12741546125E+03 -0.16886211939E+02 -0.24126509739E+04  0.24160721358E+04  0.00000000000E+00 0. -1.
<mgrwt>
<rscale>  2 0.12852954E+03</rscale>
<asrwt>0</asrwt>
<pdfrwt beam="1">  1       21 0.22550812E-02 0.12852954E+03</pdfrwt>
<pdfrwt beam="2">  1        2 0.42051453E+00 0.12852954E+03</pdfrwt>
<totfact> 0.40439846E+04</totfact>
</mgrwt>
</event>
<event>
 4    1  0.5134057E+003  0.1032578E+03  0.7546771E-02  0.1273591E+00
         21   -1    0    0  501  502  0.00000000000E+00  0.00000000000E+00  0.12360269667E+02  0.12360269667E+02  0.00000000000E+00 0.  1.
          1   -1    0    0  503    0 -0.00000000000E+00 -0.00000000000E+00 -0.93333945282E+03  0.93333945282E+03  0.00000000000E+00 0. -1.
         21    1    1    2  503  502  0.98403562468E+02  0.31287475161E+02 -0.33032736308E+03  0.34609006633E+03  0.00000000000E+00 0.  1.
          1    1    1    2  501    0 -0.98403562468E+02 -0.31287475161E+02 -0.59065182007E+03  0.59960965616E+03  0.00000000000E+00 0. -1.
<mgrwt>
<rscale>  2 0.10325777E+03</rscale>
<asrwt>0</asrwt>
<pdfrwt beam="1">  1       21 0.19015799E-02 0.10325777E+03</pdfrwt>
<pdfrwt beam="2">  1        1 0.14359069E+00 0.10325777E+03</pdfrwt>
<totfact> 0.26393317E+05</totfact>
</mgrwt>
</event>
<event>
 4    1  0.5134057E+003  0.1139668E+03  0.7546771E-02  0.1253395E+00
          1   -1    0    0  503    0 -0.00000000000E+00  0.00000000000E+00  0.51479195730E+03  0.51479195730E+03  0.00000000000E+00 0.  1.
         21   -1    0    0  501  502  0.00000000000E+00 -0.00000000000E+00 -0.25607621119E+02  0.25607621119E+02  0.00000000000E+00 0.  1.
         21    1    1    2  503  502 -0.51290718499E+02  0.10177272890E+03  0.21179948359E+03  0.24051496295E+03  0.00000000000E+00 0.  1.
          1    1    1    2  501    0  0.51290718499E+02 -0.10177272890E+03  0.27738485259E+03  0.29988461547E+03  0.00000000000E+00 0.  1.
<mgrwt>
<rscale>  2 0.11396678E+03</rscale>
<asrwt>0</asrwt>
<pdfrwt beam="2">  1       21 0.39396344E-02 0.11396678E+03</pdfrwt>
<pdfrwt beam="1">  1        1 0.79198755E-01 0.11396678E+03</pdfrwt>
<totfact> 0.18928201E+05</totfact>
</mgrwt>
</event>
<event>
 4    1  0.5134057E+003  0.1087613E+03  0.7546771E-02  0.1262881E+00
         21   -1    0    0  501  502  0.00000000000E+00  0.00000000000E+00  0.46968468856E+03  0.46968468856E+03  0.00000000000E+00 0. -1.
          3   -1    0    0  503    0 -0.00000000000E+00 -0.00000000000E+00 -0.41282849758E+02  0.41282849758E+02  0.00000000000E+00 0.  1.
         21    1    1    2  503  502  0.86913888228E+02 -0.65383430371E+02  0.37373819957E+03  0.38924190261E+03  0.00000000000E+00 0. -1.
          3    1    1    2  501    0 -0.86913888228E+02  0.65383430371E+02  0.54663639238E+02  0.12172563571E+03  0.00000000000E+00 0.  1.
<mgrwt>
<rscale>  2 0.10876128E+03</rscale>
<asrwt>0</asrwt>
<pdfrwt beam="1">  1       21 0.72259179E-01 0.10876128E+03</pdfrwt>
<pdfrwt beam="2">  1        3 0.63512080E-02 0.10876128E+03</pdfrwt>
<totfact> 0.12864249E+04</totfact>
</mgrwt>
</event>
<event>
 4    1  0.5134057E+003  0.1311501E+03  0.7546771E-02  0.1225759E+00
         21   -1    0    0  503  502  0.00000000000E+00  0.00000000000E+00  0.14919273687E+03  0.14919273687E+03  0.00000000000E+00 0. -1.
         -1   -1    0    0    0  501 -0.00000000000E+00 -0.00000000000E+00 -0.15405017958E+03  0.15405017958E+03  0.00000000000E+00 0. -1.
         21    1    1    2  503  501 -0.85920446432E+02  0.99085890585E+02  0.73625964608E+02  0.15040318977E+03  0.00000000000E+00 0. -1.
         -1    1    1    2    0  502  0.85920446432E+02 -0.99085890585E+02 -0.78483407311E+02  0.15283972668E+03  0.00000000000E+00 0. -1.
<mgrwt>
<rscale>  2 0.13115005E+03</rscale>
<asrwt>0</asrwt>
<pdfrwt beam="1">  1       21 0.22952729E-01 0.13115005E+03</pdfrwt>
<pdfrwt beam="2">  1       -1 0.23700027E-01 0.13115005E+03</pdfrwt>
<totfact> 0.24606631E+04</totfact>
</mgrwt>
</event>
<event>
 4    1  0.5134057E+003  0.1224683E+03  0.7546771E-02  0.1239080E+00
         21   -1    0    0  501  502  0.00000000000E+00  0.00000000000E+00  0.28543570833E+02  0.28543570833E+02  0.00000000000E+00 0.  1.
         -1   -1    0    0    0  501 -0.00000000000E+00 -0.00000000000E+00 -0.98943157287E+03  0.98943157287E+03  0.00000000000E+00 0.  1.
         21    1    1    2  503  502 -0.12187259203E+03  0.12064468300E+02 -0.13189777376E+03  0.17998750737E+03  0.00000000000E+00 0.  1.
         -1    1    1    2    0  503  0.12187259203E+03 -0.12064468300E+02 -0.82899022827E+03  0.83798763633E+03  0.00000000000E+00 0.  1.
<mgrwt>
<rscale>  2 0.12246828E+03</rscale>
<asrwt>0</asrwt>
<pdfrwt beam="1">  1       21 0.43913189E-02 0.12246828E+03</pdfrwt>
<pdfrwt beam="2">  1       -1 0.15222023E+00 0.12246828E+03</pdfrwt>
<totfact> 0.11581550E+04</totfact>
</mgrwt>
</event>
<event>
 4    1  0.5134057E+003  0.1020795E+03  0.7546771E-02  0.1275983E+00
          2   -1    0    0  502    0 -0.00000000000E+00  0.00000000000E+00  0.20784454625E+04  0.20784454625E+04  0.00000000000E+00 0.  1.
         21   -1    0    0  503  502  0.00000000000E+00 -0.00000000000E+00 -0.14774992498E+02  0.14774992498E+02  0.00000000000E+00 0.  1.
         21    1    1    2  503  501  0.24016530546E+02 -0.99214018086E+02  0.18112782769E+03  0.20791225334E+03  0.00000000000E+00 0.  1.
          2    1    1    2  501    0 -0.24016530546E+02  0.99214018086E+02  0.18825426423E+04  0.18853082017E+04  0.00000000000E+00 0.  1.
<mgrwt>
<rscale>  2 0.10207945E+03</rscale>
<asrwt>0</asrwt>
<pdfrwt beam="2">  1       21 0.22730774E-02 0.10207945E+03</pdfrwt>
<pdfrwt beam="1">  1        2 0.31976061E+00 0.10207945E+03</pdfrwt>
<totfact> 0.88929747E+04</totfact>
</mgrwt>
</event>
<event>
 4    1  0.5134057E+003  0.1194711E+03  0.7546771E-02  0.1243972E+00
         21   -1    0    0  503  502  0.00000000000E+00  0.00000000000E+00  0.17424524153E+03  0.17424524153E+03  0.00000000000E+00 0. -1.
         -3   -1    0    0    0  501 -0.00000000000E+00 -0.00000000000E+00 -0.30998727557E+03  0.30998727557E+03  0.00000000000E+00 0.  1.
         21    1    1    2  503  501  0.20625272672E+02  0.11767731976E+03  0.13980577688E+03  0.18389945271E+03  0.00000000000E+00 0. -1.
         -3    1    1    2    0  502 -0.20625272672E+02 -0.11767731976E+03 -0.27554781093E+03  0.30033306439E+03  0.00000000000E+00 0.  1.
<mgrwt>
<rscale>  2 0.11947114E+03</rscale>
<asrwt>0</asrwt>
<pdfrwt beam="1">  1       21 0.26806960E-01 0.11947114E+03</pdfrwt>
<pdfrwt beam="2">  1       -3 0.47690350E-01 0.11947114E+03</pdfrwt>
<totfact> 0.28451193E+03</totfact>
</mgrwt>
</event>
<event>
 4    1  0.5134057E+003  0.1188891E+03  0.7546771E-02  0.1244941E+00
          1   -1    0    0  503    0 -0.00000000000E+00  0.00000000000E+00  0.27135995521E+03  0.27135995521E+03  0.00000000000E+00 0. -1.
         21   -1    0    0  501  502  0.00000000000E+00 -0.00000000000E+00 -0.65662335861E+02  0.65662335861E+02  0.00000000000E+00 0. -1.
         21    1    1    2  503  502 -0.48900588762E+02  0.10836674830E+03  0.26231227419E+02  0.12174849901E+03  0.00000000000E+00 0. -1.
          1    1    1    2  501    0  0.48900588762E+02 -0.10836674830E+03  0.17946639193E+03  0.21527379207E+03  0.00000000000E+00 0. -1.
<mgrwt>
<rscale>  2 0.11888911E+03</rscale>
<asrwt>0</asrwt>
<pdfrwt beam="2">  1       21 0.10101898E-01 0.11888911E+03</pdfrwt>
<pdfrwt beam="1">  1        1 0.41747685E-01 0.11888911E+03</pdfrwt>
<totfact> 0.85517380E+04</totfact>
</mgrwt>
</event>
<event>
 4    1  0.5134057E+003  0.1774430E+03  0.7546771E-02  0.1170301E+00
          1   -1    0    0  503    0 -0.00000000000E+00  0.00000000000E+00  0.20995023498E+04  0.20995023498E+04  0.00000000000E+00 0. -1.
         21   -1    0    0  501  502  0.00000000000E+00 -0.00000000000E+00 -0.19224254968E+02  0.19224254968E+02  0.00000000000E+00 0.  1.
         21    1    1    2  503  502  0.23454550840E+02  0.17588609408E+03  0.54337020790E+03  0.57160932189E+03  0.00000000000E+00 0.  1.
          1    1    1    2  501    0 -0.23454550840E+02 -0.17588609408E+03  0.15369078869E+04  0.15471172829E+04  0.00000000000E+00 0. -1.
<mgrwt>
<rscale>  2 0.17744304E+03</rscale>
<asrwt>0</asrwt>
<pdfrwt beam="2">  1       21 0.29575793E-02 0.17744304E+03</pdfrwt>
<pdfrwt beam="1">  1        1 0.32300018E+00 0.17744304E+03</pdfrwt>
<totfact> 0.21690332E+04</totfact>
</mgrwt>
</event>
<event>
 4    1  0.5134057E+003  0.1996360E+03  0.7546771E-02  0.1150046E+00
          2   -1    0    0  503    0 -0.00000000000E+00  0.00000000000E+00  0.39291915882E+03  0.39291915882E+03  0.00000000000E+00 0.  1.
         21   -1    0    0  501  502  0.00000000000E+00 -0.00000000000E+00 -0.34954047188E+03  0.34954047188E+03  0.00000000000E+00 0.  1.
         21    1    1    2  503  502  0.43913485663E+02 -0.19474632405E+03 -0.29107340876E+03  0.35295644808E+03  0.00000000000E+00 0.  1.
          2    1    1    2  501    0 -0.43913485663E+02  0.19474632405E+03  0.33445209570E+03  0.38950318262E+03  0.00000000000E+00 0.  1.
<mgrwt>
<rscale>  2 0.19963598E+03</rscale>
<asrwt>0</asrwt>
<pdfrwt beam="2">  1       21 0.53775458E-01 0.19963598E+03</pdfrwt>
<pdfrwt beam="1">  1        2 0.60449101E-01 0.19963598E+03</pdfrwt>
<totfact> 0.33108191E+03</totfact>
</mgrwt>
</event>
<event>
 4    1  0.5134057E+003  0.1043668E+03  0.7546771E-02  0.1271372E+00
          4   -1    0    0  503    0 -0.00000000000E+00  0.00000000000E+00  0.29862037866E+02  0.29862037866E+02  0.00000000000E+00 0. -1.
         21   -1    0    0  501  502  0.00000000000E+00 -0.00000000000E+00 -0.37104798718E+03  0.37104798718E+03  0.00000000000E+00 0. -1.
         21    1    1    2  503  502  0.89252076277E+02 -0.54097013053E+02 -0.19669195864E+03  0.22266599771E+03  0.00000000000E+00 0. -1.
          4    1    1    2  501    0 -0.89252076277E+02  0.54097013053E+02 -0.14449399067E+03  0.17824402734E+03  0.00000000000E+00 0. -1.
<mgrwt>
<rscale>  2 0.10436676E+03</rscale>
<asrwt>0</asrwt>
<pdfrwt beam="2">  1       21 0.57084308E-01 0.10436676E+03</pdfrwt>
<pdfrwt beam="1">  1        4 0.45941595E-02 0.10436676E+03</pdfrwt>
<totfact> 0.31417822E+04</totfact>
</mgrwt>
</event>
<event>
 4    1  0.5134057E+003  0.1120403E+03  0.7546771E-02  0.1256838E+00
         -3   -1    0    0    0  501 -0.00000000000E+00  0.00000000000E+00  0.13354827594E+03  0.13354827594E+03  0.00000000000E+00 0.  1.
         21   -1    0    0  503  502  0.00000000000E+00 -0.00000000000E+00 -0.11026958663E+03  0.11026958663E+03  0.00000000000E+00 0. -1.
         21    1    1    2  503  501 -0.96157619411E+02 -0.57504251830E+02 -0.35193117655E+02  0.11743756758E+03  0.00000000000E+00 0. -1.
         -3    1    1    2    0  502  0.96157619411E+02  0.57504251830E+02  0.58471806966E+02  0.12638029498E+03  0.00000000000E+00 0.  1.
<mgrwt>
<rscale>  2 0.11204029E+03</rscale>
<asrwt>0</asrwt>
<pdfrwt beam="2">  1       21 0.16964552E-01 0.11204029E+03</pdfrwt>
<pdfrwt beam="1">  1       -3 0.20545889E-01 0.11204029E+03</pdfrwt>
<totfact> 0.31655925E+04</totfact>
</mgrwt>
</event>
<event>
 4    1  0.5134057E+003  0.1037001E+03  0.7546771E-02  0.1272702E+00
          2   -1    0    0  503    0 -0.00000000000E+00  0.00000000000E+00  0.18255833491E+04  0.18255833491E+04  0.00000000000E+00 0. -1.
         21   -1    0    0  501  502  0.00000000000E+00 -0.00000000000E+00 -0.19694571423E+02  0.19694571423E+02  0.00000000000E+00 0.  1.
         21    1    1    2  503  502  0.43220761051E+02  0.94263868377E+02  0.13051079547E+03  0.16669366755E+03  0.00000000000E+00 0.  1.
          2    1    1    2  501    0 -0.43220761051E+02 -0.94263868377E+02  0.16753779822E+04  0.16785842530E+04  0.00000000000E+00 0. -1.
<mgrwt>
<rscale>  2 0.10370010E+03</rscale>
<asrwt>0</asrwt>
<pdfrwt beam="2">  1       21 0.30299355E-02 0.10370010E+03</pdfrwt>
<pdfrwt beam="1">  1        2 0.28085884E+00 0.10370010E+03</pdfrwt>
<totfact> 0.74855564E+04</totfact>
</mgrwt>
</event>
<event>
 4    1  0.5134057E+003  0.1292761E+03  0.7546771E-02  0.1228534E+00
          2   -1    0    0  502    0 -0.00000000000E+00  0.00000000000E+00  0.21249041337E+04  0.21249041337E+04  0.00000000000E+00 0. -1.
         21   -1    0    0  503  502  0.00000000000E+00 -0.00000000000E+00 -0.23981349437E+03  0.23981349437E+03  0.00000000000E+00 0.  1.
         21    1    1    2  503  501  0.82908436049E+02 -0.99189251408E+02 -0.22026342067E+03  0.25539829845E+03  0.00000000000E+00 0.  1.
          2    1    1    2  501    0 -0.82908436049E+02  0.99189251408E+02  0.21053540600E+04  0.21093193296E+04  0.00000000000E+00 0. -1.
<mgrwt>
<rscale>  2 0.12927612E+03</rscale>
<asrwt>0</asrwt>
<pdfrwt beam="2">  1       21 0.36894385E-01 0.12927612E+03</pdfrwt>
<pdfrwt beam="1">  1        2 0.32690832E+00 0.12927612E+03</pdfrwt>
<totfact> 0.62363320E+02</totfact>
</mgrwt>
</event>
<event>
 4    1  0.5134057E+003  0.1127879E+03  0.7546771E-02  0.1255492E+00
         21   -1    0    0  501  502  0.00000000000E+00  0.00000000000E+00  0.24664694369E+02  0.24664694369E+02  0.00000000000E+00 0. -1.
          2   -1    0    0  503    0 -0.00000000000E+00 -0.00000000000E+00 -0.60566622358E+03  0.60566622358E+03  0.00000000000E+00 0. -1.
         21    1    1    2  503  502 -0.58415303543E+02  0.96481962523E+02 -0.16907481022E+03  0.20324224027E+03  0.00000000000E+00 0. -1.
          2    1    1    2  501    0  0.58415303543E+02 -0.96481962523E+02 -0.41192671899E+03  0.42708867768E+03  0.00000000000E+00 0. -1.
<mgrwt>
<rscale>  2 0.11278793E+03</rscale>
<asrwt>0</asrwt>
<pdfrwt beam="1">  1       21 0.37945686E-02 0.11278793E+03</pdfrwt>
<pdfrwt beam="2">  1        2 0.93179414E-01 0.11278793E+03</pdfrwt>
<totfact> 0.26277001E+05</totfact>
</mgrwt>
</event>
<event>
 4    1  0.5134057E+003  0.2118338E+03  0.7546771E-02  0.1140122E+00
          2   -1    0    0  503    0 -0.00000000000E+00  0.00000000000E+00  0.28743309671E+04  0.28743309671E+04  0.00000000000E+00 0.  1.
         21   -1    0    0  501  502  0.00000000000E+00 -0.00000000000E+00 -0.16590384439E+02  0.16590384439E+02  0.00000000000E+00 0. -1.
         21    1    1    2  503  502 -0.18678042333E+03  0.99933083010E+02  0.10778178452E+04  0.10984374607E+04  0.00000000000E+00 0. -1.
          2    1    1    2  501    0  0.18678042333E+03 -0.99933083010E+02  0.17799227375E+04  0.17924838909E+04  0.00000000000E+00 0.  1.
<mgrwt>
<rscale>  2 0.21183377E+03</rscale>
<asrwt>0</asrwt>
<pdfrwt beam="2">  1       21 0.25523691E-02 0.21183377E+03</pdfrwt>
<pdfrwt beam="1">  1        2 0.44220437E+00 0.21183377E+03</pdfrwt>
<totfact> 0.26623805E+04</totfact>
</mgrwt>
</event>
<event>
 4    1  0.5134057E+003  0.1195406E+03  0.7546771E-02  0.1243857E+00
         21   -1    0    0  503  502  0.00000000000E+00  0.00000000000E+00  0.44454052180E+03  0.44454052180E+03  0.00000000000E+00 0. -1.
          1   -1    0    0  502    0 -0.00000000000E+00 -0.00000000000E+00 -0.79574164902E+02  0.79574164902E+02  0.00000000000E+00 0.  1.
         21    1    1    2  503  501 -0.77951865158E+01 -0.11928618629E+03  0.38479950276E+03  0.40293996636E+03  0.00000000000E+00 0. -1.
          1    1    1    2  501    0  0.77951865158E+01  0.11928618629E+03 -0.19833145862E+02  0.12117472033E+03  0.00000000000E+00 0.  1.
<mgrwt>
<rscale>  2 0.11954062E+03</rscale>
<asrwt>0</asrwt>
<pdfrwt beam="1">  1       21 0.68390848E-01 0.11954062E+03</pdfrwt>
<pdfrwt beam="2">  1        1 0.12242179E-01 0.11954062E+03</pdfrwt>
<totfact> 0.10285626E+04</totfact>
</mgrwt>
</event>
<event>
 4    1  0.5134057E+003  0.1104829E+03  0.7546771E-02  0.1259678E+00
         21   -1    0    0  503  502  0.00000000000E+00  0.00000000000E+00  0.44966572446E+01  0.44966572446E+01  0.00000000000E+00 0.  1.
         -1   -1    0    0    0  501 -0.00000000000E+00 -0.00000000000E+00 -0.27234372006E+04  0.27234372006E+04  0.00000000000E+00 0.  1.
         21    1    1    2  503  501  0.10954279417E+03  0.14382049195E+02 -0.12816186265E+04  0.12863719411E+04  0.00000000000E+00 0.  1.
         -1    1    1    2    0  502 -0.10954279417E+03 -0.14382049195E+02 -0.14373219169E+04  0.14415619168E+04  0.00000000000E+00 0.  1.
<mgrwt>
<rscale>  2 0.11048288E+03</rscale>
<asrwt>0</asrwt>
<pdfrwt beam="1">  1       21 0.69179267E-03 0.11048288E+03</pdfrwt>
<pdfrwt beam="2">  1       -1 0.41899079E+00 0.11048288E+03</pdfrwt>
<totfact> 0.43835445E+03</totfact>
</mgrwt>
</event>
<event>
 4    1  0.5134057E+003  0.1316720E+03  0.7546771E-02  0.1224996E+00
          1   -1    0    0  503    0 -0.00000000000E+00  0.00000000000E+00  0.53552425535E+03  0.53552425535E+03  0.00000000000E+00 0. -1.
         21   -1    0    0  501  502  0.00000000000E+00 -0.00000000000E+00 -0.29824411743E+03  0.29824411743E+03  0.00000000000E+00 0.  1.
         21    1    1    2  503  502  0.70467591447E+02 -0.11122877061E+03 -0.27496759178E+03  0.30486832794E+03  0.00000000000E+00 0.  1.
          1    1    1    2  501    0 -0.70467591447E+02  0.11122877061E+03  0.51224772969E+03  0.52890004484E+03  0.00000000000E+00 0. -1.
<mgrwt>
<rscale>  2 0.13167202E+03</rscale>
<asrwt>0</asrwt>
<pdfrwt beam="2">  1       21 0.45883710E-01 0.13167202E+03</pdfrwt>
<pdfrwt beam="1">  1        1 0.82388347E-01 0.13167202E+03</pdfrwt>
<totfact> 0.21363236E+03</totfact>
</mgrwt>
</event>
<event>
 4    1  0.5134057E+003  0.1243432E+03  0.7546771E-02  0.1236099E+00
          1   -1    0    0  503    0 -0.00000000000E+00  0.00000000000E+00  0.94309561736E+03  0.94309561736E+03  0.00000000000E+00 0. -1.
         21   -1    0    0  501  502  0.00000000000E+00 -0.00000000000E+00 -0.21502584966E+02  0.21502584966E+02  0.00000000000E+00 0. -1.
         21    1    1    2  503  502 -0.92356382528E+02  0.83255762437E+02  0.22571618349E+03  0.25769947393E+03  0.00000000000E+00 0. -1.
          1    1    1    2  501    0  0.92356382528E+02 -0.83255762437E+02  0.69587684890E+03  0.70689872840E+03  0.00000000000E+00 0. -1.
<mgrwt>
<rscale>  2 0.12434317E+03</rscale>
<asrwt>0</asrwt>
<pdfrwt beam="2">  1       21 0.33080907E-02 0.12434317E+03</pdfrwt>
<pdfrwt beam="1">  1        1 0.14509160E+00 0.12434317E+03</pdfrwt>
<totfact> 0.10626068E+05</totfact>
</mgrwt>
</event>
<event>
 4    1  0.5134057E+003  0.1142326E+03  0.7546771E-02  0.1252927E+00
         21   -1    0    0  501  502  0.00000000000E+00  0.00000000000E+00  0.48499765282E+01  0.48499765282E+01  0.00000000000E+00 0.  1.
          2   -1    0    0  503    0 -0.00000000000E+00 -0.00000000000E+00 -0.27732248126E+04  0.27732248126E+04  0.00000000000E+00 0.  1.
         21    1    1    2  503  502  0.10787809678E+03  0.37568539826E+02 -0.11443473365E+04  0.11500347410E+04  0.00000000000E+00 0.  1.
          2    1    1    2  501    0 -0.10787809678E+03 -0.37568539826E+02 -0.16240274995E+04  0.16280400481E+04  0.00000000000E+00 0.  1.
<mgrwt>
<rscale>  2 0.11423257E+03</rscale>
<asrwt>0</asrwt>
<pdfrwt beam="1">  1       21 0.74614945E-03 0.11423257E+03</pdfrwt>
<pdfrwt beam="2">  1        2 0.42665042E+00 0.11423257E+03</pdfrwt>
<totfact> 0.22340598E+05</totfact>
</mgrwt>
</event>
<event>
 4    1  0.5134057E+003  0.1285595E+03  0.7546771E-02  0.1229609E+00
         21   -1    0    0  503  502  0.00000000000E+00  0.00000000000E+00  0.12755407494E+03  0.12755407494E+03  0.00000000000E+00 0. -1.
          4   -1    0    0  502    0 -0.00000000000E+00 -0.00000000000E+00 -0.14420967084E+03  0.14420967084E+03  0.00000000000E+00 0.  1.
         21    1    1    2  503  501  0.12627215543E+03 -0.24142926135E+02  0.34962294428E+02  0.13322875121E+03  0.00000000000E+00 0. -1.
          4    1    1    2  501    0 -0.12627215543E+03  0.24142926135E+02 -0.51617890322E+02  0.13853499457E+03  0.00000000000E+00 0.  1.
<mgrwt>
<rscale>  2 0.12855947E+03</rscale>
<asrwt>0</asrwt>
<pdfrwt beam="1">  1       21 0.19623704E-01 0.12855947E+03</pdfrwt>
<pdfrwt beam="2">  1        4 0.22186103E-01 0.12855947E+03</pdfrwt>
<totfact> 0.18142723E+04</totfact>
</mgrwt>
</event>
<event>
 4    1  0.5134057E+003  0.1988415E+03  0.7546771E-02  0.1150720E+00
          1   -1    0    0  502    0 -0.00000000000E+00  0.00000000000E+00  0.25075534052E+03  0.25075534052E+03  0.00000000000E+00 0.  1.
         21   -1    0    0  503  502  0.00000000000E+00 -0.00000000000E+00 -0.30332585850E+03  0.30332585850E+03  0.00000000000E+00 0. -1.
         21    1    1    2  503  501  0.17171530371E+03  0.10025864684E+03 -0.21826025589E+03  0.29525494254E+03  0.00000000000E+00 0. -1.
          1    1    1    2  501    0 -0.17171530371E+03 -0.10025864684E+03  0.16568973791E+03  0.25882625648E+03  0.00000000000E+00 0.  1.
<mgrwt>
<rscale>  2 0.19884150E+03</rscale>
<asrwt>0</asrwt>
<pdfrwt beam="2">  1       21 0.46665517E-01 0.19884150E+03</pdfrwt>
<pdfrwt beam="1">  1        1 0.38577745E-01 0.19884150E+03</pdfrwt>
<totfact> 0.52600694E+03</totfact>
</mgrwt>
</event>
<event>
 4    1  0.5134057E+003  0.1046255E+03  0.7546771E-02  0.1270859E+00
         21   -1    0    0  501  502  0.00000000000E+00  0.00000000000E+00  0.40603800870E+02  0.40603800870E+02  0.00000000000E+00 0. -1.
          1   -1    0    0  503    0 -0.00000000000E+00 -0.00000000000E+00 -0.32078016166E+03  0.32078016166E+03  0.00000000000E+00 0.  1.
         21    1    1    2  503  502 -0.89989543795E+02 -0.53370131515E+02 -0.67908183221E+02  0.12473175329E+03  0.00000000000E+00 0. -1.
          1    1    1    2  501    0  0.89989543795E+02  0.53370131515E+02 -0.21226817757E+03  0.23665220924E+03  0.00000000000E+00 0.  1.
<mgrwt>
<rscale>  2 0.10462547E+03</rscale>
<asrwt>0</asrwt>
<pdfrwt beam="1">  1       21 0.62467388E-02 0.10462547E+03</pdfrwt>
<pdfrwt beam="2">  1        1 0.49350793E-01 0.10462547E+03</pdfrwt>
<totfact> 0.15810958E+05</totfact>
</mgrwt>
</event>
<event>
 4    1  0.5134057E+003  0.1220392E+03  0.7546771E-02  0.1239770E+00
         21   -1    0    0  501  502  0.00000000000E+00  0.00000000000E+00  0.62995223860E+02  0.62995223860E+02  0.00000000000E+00 0. -1.
          2   -1    0    0  503    0 -0.00000000000E+00 -0.00000000000E+00 -0.37246266815E+03  0.37246266815E+03  0.00000000000E+00 0.  1.
         21    1    1    2  503  502 -0.77744442459E+02  0.94071033098E+02 -0.23148651014E+02  0.12421520698E+03  0.00000000000E+00 0. -1.
          2    1    1    2  501    0  0.77744442459E+02 -0.94071033098E+02 -0.28631879328E+03  0.31124268503E+03  0.00000000000E+00 0.  1.
<mgrwt>
<rscale>  2 0.12203916E+03</rscale>
<asrwt>0</asrwt>
<pdfrwt beam="1">  1       21 0.96915728E-02 0.12203916E+03</pdfrwt>
<pdfrwt beam="2">  1        2 0.57301950E-01 0.12203916E+03</pdfrwt>
<totfact> 0.91320933E+04</totfact>
</mgrwt>
</event>
<event>
 4    1  0.5134057E+003  0.2408220E+03  0.7546771E-02  0.1119246E+00
         21   -1    0    0  503  502  0.00000000000E+00  0.00000000000E+00  0.40507930087E+02  0.40507930087E+02  0.00000000000E+00 0.  1.
          1   -1    0    0  502    0 -0.00000000000E+00 -0.00000000000E+00 -0.16334163929E+04  0.16334163929E+04  0.00000000000E+00 0.  1.
         21    1    1    2  503  501  0.23026887151E+03  0.70508813817E+02 -0.50233268784E+03  0.55707573568E+03  0.00000000000E+00 0.  1.
          1    1    1    2  501    0 -0.23026887151E+03 -0.70508813817E+02 -0.10905757750E+04  0.11168485873E+04  0.00000000000E+00 0.  1.
<mgrwt>
<rscale>  2 0.24082202E+03</rscale>
<asrwt>0</asrwt>
<pdfrwt beam="1">  1       21 0.62319898E-02 0.24082202E+03</pdfrwt>
<pdfrwt beam="2">  1        1 0.25129481E+00 0.24082202E+03</pdfrwt>
<totfact> 0.12108471E+04</totfact>
</mgrwt>
</event>
<event>
 4    1  0.5134057E+003  0.1059307E+03  0.7546771E-02  0.1268297E+00
          1   -1    0    0  502    0 -0.00000000000E+00  0.00000000000E+00  0.17845226180E+04  0.17845226180E+04  0.00000000000E+00 0.  1.
         21   -1    0    0  503  502  0.00000000000E+00 -0.00000000000E+00 -0.72362462944E+01  0.72362462944E+01  0.00000000000E+00 0.  1.
         21    1    1    2  503  501  0.85771654237E+02 -0.62165366827E+02  0.56436047723E+03  0.57421603753E+03  0.00000000000E+00 0.  1.
          1    1    1    2  501    0 -0.85771654237E+02  0.62165366827E+02  0.12129258944E+04  0.12175428267E+04  0.00000000000E+00 0.  1.
<mgrwt>
<rscale>  2 0.10593068E+03</rscale>
<asrwt>0</asrwt>
<pdfrwt beam="2">  1       21 0.11132701E-02 0.10593068E+03</pdfrwt>
<pdfrwt beam="1">  1        1 0.27454159E+00 0.10593068E+03</pdfrwt>
<totfact> 0.16775313E+05</totfact>
</mgrwt>
</event>
<event>
 4    1  0.5134057E+003  0.1147657E+03  0.7546771E-02  0.1251991E+00
          1   -1    0    0  502    0 -0.00000000000E+00  0.00000000000E+00  0.16868574282E+04  0.16868574282E+04  0.00000000000E+00 0.  1.
         21   -1    0    0  503  502  0.00000000000E+00 -0.00000000000E+00 -0.10263875053E+02  0.10263875053E+02  0.00000000000E+00 0. -1.
         21    1    1    2  503  501  0.55266096540E+02  0.10058243609E+03  0.42322744713E+03  0.43851184691E+03  0.00000000000E+00 0. -1.
          1    1    1    2  501    0 -0.55266096540E+02 -0.10058243609E+03  0.12533661060E+04  0.12586094563E+04  0.00000000000E+00 0.  1.
<mgrwt>
<rscale>  2 0.11476571E+03</rscale>
<asrwt>0</asrwt>
<pdfrwt beam="2">  1       21 0.15790590E-02 0.11476571E+03</pdfrwt>
<pdfrwt beam="1">  1        1 0.25951631E+00 0.11476571E+03</pdfrwt>
<totfact> 0.11121563E+05</totfact>
</mgrwt>
</event>
<event>
 4    1  0.5134057E+003  0.1845518E+03  0.7546771E-02  0.1163469E+00
          2   -1    0    0  503    0 -0.00000000000E+00  0.00000000000E+00  0.94206752531E+03  0.94206752531E+03  0.00000000000E+00 0. -1.
         21   -1    0    0  501  502  0.00000000000E+00 -0.00000000000E+00 -0.11866905167E+03  0.11866905167E+03  0.00000000000E+00 0. -1.
         21    1    1    2  503  502 -0.15624817559E+03  0.98213417943E+02 -0.30558863734E+02  0.18706472674E+03  0.00000000000E+00 0. -1.
          2    1    1    2  501    0  0.15624817559E+03 -0.98213417943E+02  0.85395733738E+03  0.87367185024E+03  0.00000000000E+00 0. -1.
<mgrwt>
<rscale>  2 0.18455180E+03</rscale>
<asrwt>0</asrwt>
<pdfrwt beam="2">  1       21 0.18256778E-01 0.18455180E+03</pdfrwt>
<pdfrwt beam="1">  1        2 0.14493346E+00 0.18455180E+03</pdfrwt>
<totfact> 0.99369495E+03</totfact>
</mgrwt>
</event>
<event>
 4    1  0.5134057E+003  0.1610653E+03  0.7546771E-02  0.1187499E+00
         21   -1    0    0  501  502  0.00000000000E+00  0.00000000000E+00  0.11201227504E+03  0.11201227504E+03  0.00000000000E+00 0. -1.
         -2   -1    0    0    0  501 -0.00000000000E+00 -0.00000000000E+00 -0.12658681915E+04  0.12658681915E+04  0.00000000000E+00 0. -1.
         21    1    1    2  503  502  0.11621045169E+03 -0.11152200593E+03  0.45807963790E+02  0.16745266924E+03  0.00000000000E+00 0. -1.
         -2    1    1    2    0  503 -0.11621045169E+03  0.11152200593E+03 -0.11996638802E+04  0.12104277973E+04  0.00000000000E+00 0. -1.
<mgrwt>
<rscale>  2 0.16106529E+03</rscale>
<asrwt>0</asrwt>
<pdfrwt beam="1">  1       21 0.17232658E-01 0.16106529E+03</pdfrwt>
<pdfrwt beam="2">  1       -2 0.19474895E+00 0.16106529E+03</pdfrwt>
<totfact> 0.39911993E+02</totfact>
</mgrwt>
</event>
<event>
 4    1  0.5134057E+003  0.1121130E+03  0.7546771E-02  0.1256706E+00
         -1   -1    0    0    0  501 -0.00000000000E+00  0.00000000000E+00  0.11509656910E+03  0.11509656910E+03  0.00000000000E+00 0.  1.
         21   -1    0    0  501  502  0.00000000000E+00 -0.00000000000E+00 -0.90266738351E+03  0.90266738351E+03  0.00000000000E+00 0. -1.
         21    1    1    2  503  502  0.11151271414E+03 -0.11585934834E+02 -0.87089252255E+03  0.87807921347E+03  0.00000000000E+00 0. -1.
         -1    1    1    2    0  503 -0.11151271414E+03  0.11585934834E+02  0.83321708140E+02  0.13968473914E+03  0.00000000000E+00 0.  1.
<mgrwt>
<rscale>  2 0.11211298E+03</rscale>
<asrwt>0</asrwt>
<pdfrwt beam="2">  1       21 0.13887191E+00 0.11211298E+03</pdfrwt>
<pdfrwt beam="1">  1       -1 0.17707164E-01 0.11211298E+03</pdfrwt>
<totfact> 0.85313916E+02</totfact>
</mgrwt>
</event>
<event>
 4    1  0.5134057E+003  0.1219865E+03  0.7546771E-02  0.1239856E+00
         21   -1    0    0  501  502  0.00000000000E+00  0.00000000000E+00  0.27451963390E+02  0.27451963390E+02  0.00000000000E+00 0.  1.
          2   -1    0    0  503    0 -0.00000000000E+00 -0.00000000000E+00 -0.36829838414E+04  0.36829838414E+04  0.00000000000E+00 0. -1.
         21    1    1    2  503  502 -0.22425897209E+02 -0.11990737240E+03 -0.11450504377E+03  0.16730840944E+03  0.00000000000E+00 0.  1.
          2    1    1    2  501    0  0.22425897209E+02  0.11990737240E+03 -0.35410268342E+04  0.35431273953E+04  0.00000000000E+00 0. -1.
<mgrwt>
<rscale>  2 0.12198647E+03</rscale>
<asrwt>0</asrwt>
<pdfrwt beam="1">  1       21 0.42233803E-02 0.12198647E+03</pdfrwt>
<pdfrwt beam="2">  1        2 0.56661272E+00 0.12198647E+03</pdfrwt>
<totfact> 0.38563637E+03</totfact>
</mgrwt>
</event>
<event>
 4    1  0.5134057E+003  0.1086707E+03  0.7546771E-02  0.1263051E+00
          2   -1    0    0  502    0 -0.00000000000E+00  0.00000000000E+00  0.17335776863E+04  0.17335776863E+04  0.00000000000E+00 0.  1.
         21   -1    0    0  503  502  0.00000000000E+00 -0.00000000000E+00 -0.12869957387E+02  0.12869957387E+02  0.00000000000E+00 0. -1.
         21    1    1    2  503  501  0.10681534238E+03 -0.19995211838E+02  0.26125830252E+03  0.28295799423E+03  0.00000000000E+00 0. -1.
          2    1    1    2  501    0 -0.10681534238E+03  0.19995211838E+02  0.14594494263E+04  0.14634896494E+04  0.00000000000E+00 0.  1.
<mgrwt>
<rscale>  2 0.10867072E+03</rscale>
<asrwt>0</asrwt>
<pdfrwt beam="2">  1       21 0.19799948E-02 0.10867072E+03</pdfrwt>
<pdfrwt beam="1">  1        2 0.26670407E+00 0.10867072E+03</pdfrwt>
<totfact> 0.16587068E+05</totfact>
</mgrwt>
</event>
<event>
 4    1  0.5134057E+003  0.1451515E+03  0.7546771E-02  0.1206561E+00
          1   -1    0    0  502    0 -0.00000000000E+00  0.00000000000E+00  0.11048793027E+04  0.11048793027E+04  0.00000000000E+00 0.  1.
         21   -1    0    0  503  502  0.00000000000E+00 -0.00000000000E+00 -0.30654031310E+04  0.30654031310E+04  0.00000000000E+00 0.  1.
         21    1    1    2  503  501  0.23288775309E+01  0.14513280700E+03 -0.30589074747E+04  0.30623494076E+04  0.00000000000E+00 0.  1.
          1    1    1    2  501    0 -0.23288775309E+01 -0.14513280700E+03  0.10983836465E+04  0.11079330261E+04  0.00000000000E+00 0.  1.
<mgrwt>
<rscale>  2 0.14515149E+03</rscale>
<asrwt>0</asrwt>
<pdfrwt beam="2">  1       21 0.47160048E+00 0.14515149E+03</pdfrwt>
<pdfrwt beam="1">  1        1 0.16998143E+00 0.14515149E+03</pdfrwt>
<totfact> 0.50730435E-01</totfact>
</mgrwt>
</event>
<event>
 4    1  0.5134057E+003  0.1043721E+03  0.7546771E-02  0.1271362E+00
         21   -1    0    0  503  502  0.00000000000E+00  0.00000000000E+00  0.51711440499E+02  0.51711440499E+02  0.00000000000E+00 0. -1.
          2   -1    0    0  502    0 -0.00000000000E+00 -0.00000000000E+00 -0.26978399741E+03  0.26978399741E+03  0.00000000000E+00 0. -1.
         21    1    1    2  503  501  0.10022044469E+03  0.29144582341E+02 -0.33784328599E+02  0.10970380609E+03  0.00000000000E+00 0. -1.
          2    1    1    2  501    0 -0.10022044469E+03 -0.29144582341E+02 -0.18428822832E+03  0.21179163182E+03  0.00000000000E+00 0. -1.
<mgrwt>
<rscale>  2 0.10437214E+03</rscale>
<asrwt>0</asrwt>
<pdfrwt beam="1">  1       21 0.79556062E-02 0.10437214E+03</pdfrwt>
<pdfrwt beam="2">  1        2 0.41505231E-01 0.10437214E+03</pdfrwt>
<totfact> 0.17932144E+05</totfact>
</mgrwt>
</event>
<event>
 4    1  0.5134057E+003  0.2339791E+03  0.7546771E-02  0.1123870E+00
         21   -1    0    0  501  502  0.00000000000E+00  0.00000000000E+00  0.12506207868E+03  0.12506207868E+03  0.00000000000E+00 0. -1.
         -1   -1    0    0    0  501 -0.00000000000E+00 -0.00000000000E+00 -0.67008075035E+03  0.67008075035E+03  0.00000000000E+00 0. -1.
         21    1    1    2  503  502  0.23294097241E+03 -0.22016418012E+02 -0.38408627545E+02  0.23711061124E+03  0.00000000000E+00 0. -1.
         -1    1    1    2    0  503 -0.23294097241E+03  0.22016418012E+02 -0.50661004412E+03  0.55803221780E+03  0.00000000000E+00 0. -1.
<mgrwt>
<rscale>  2 0.23397910E+03</rscale>
<asrwt>0</asrwt>
<pdfrwt beam="1">  1       21 0.19240320E-01 0.23397910E+03</pdfrwt>
<pdfrwt beam="2">  1       -1 0.10308935E+00 0.23397910E+03</pdfrwt>
<totfact> 0.21670165E+03</totfact>
</mgrwt>
</event>
<event>
 4    1  0.5134057E+003  0.1103089E+03  0.7546771E-02  0.1259999E+00
         -2   -1    0    0    0  501 -0.00000000000E+00  0.00000000000E+00  0.16262578949E+02  0.16262578949E+02  0.00000000000E+00 0.  1.
         21   -1    0    0  501  502  0.00000000000E+00 -0.00000000000E+00 -0.96950037393E+03  0.96950037393E+03  0.00000000000E+00 0.  1.
         21    1    1    2  503  502 -0.61616177708E+02 -0.91495880133E+02 -0.71208921869E+03  0.72058247606E+03  0.00000000000E+00 0.  1.
         -2    1    1    2    0  503  0.61616177708E+02  0.91495880133E+02 -0.24114857630E+03  0.26518047682E+03  0.00000000000E+00 0.  1.
<mgrwt>
<rscale>  2 0.11030888E+03</rscale>
<asrwt>0</asrwt>
<pdfrwt beam="2">  1       21 0.14915383E+00 0.11030888E+03</pdfrwt>
<pdfrwt beam="1">  1       -2 0.25019364E-02 0.11030888E+03</pdfrwt>
<totfact> 0.13129570E+04</totfact>
</mgrwt>
</event>
<event>
 4    1  0.5134057E+003  0.1090637E+03  0.7546771E-02  0.1262314E+00
         21   -1    0    0  501  502  0.00000000000E+00  0.00000000000E+00  0.29630355485E+02  0.29630355485E+02  0.00000000000E+00 0. -1.
          2   -1    0    0  503    0 -0.00000000000E+00 -0.00000000000E+00 -0.54276521807E+03  0.54276521807E+03  0.00000000000E+00 0. -1.
         21    1    1    2  503  502  0.14084878798E+02 -0.10815038620E+03 -0.11052940554E+03  0.15527923021E+03  0.00000000000E+00 0. -1.
          2    1    1    2  501    0 -0.14084878798E+02  0.10815038620E+03 -0.40260545704E+03  0.41711634335E+03  0.00000000000E+00 0. -1.
<mgrwt>
<rscale>  2 0.10906370E+03</rscale>
<asrwt>0</asrwt>
<pdfrwt beam="1">  1       21 0.45585159E-02 0.10906370E+03</pdfrwt>
<pdfrwt beam="2">  1        2 0.83502347E-01 0.10906370E+03</pdfrwt>
<totfact> 0.21876690E+05</totfact>
</mgrwt>
</event>
<event>
 4    1  0.5134057E+003  0.1117822E+03  0.7546771E-02  0.1257305E+00
         21   -1    0    0  503  502  0.00000000000E+00  0.00000000000E+00  0.76498604348E+02  0.76498604348E+02  0.00000000000E+00 0.  1.
          2   -1    0    0  502    0 -0.00000000000E+00 -0.00000000000E+00 -0.89520061428E+03  0.89520061428E+03  0.00000000000E+00 0.  1.
         21    1    1    2  503  501 -0.14215722525E+01 -0.11177311471E+03  0.29943715733E+02  0.11572327403E+03  0.00000000000E+00 0.  1.
          2    1    1    2  501    0  0.14215722525E+01  0.11177311471E+03 -0.84864572567E+03  0.85597594460E+03  0.00000000000E+00 0.  1.
<mgrwt>
<rscale>  2 0.11178215E+03</rscale>
<asrwt>0</asrwt>
<pdfrwt beam="1">  1       21 0.11769015E-01 0.11178215E+03</pdfrwt>
<pdfrwt beam="2">  1        2 0.13772318E+00 0.11178215E+03</pdfrwt>
<totfact> 0.23916156E+04</totfact>
</mgrwt>
</event>
<event>
 4    1  0.5134057E+003  0.1083649E+03  0.7546771E-02  0.1263628E+00
          1   -1    0    0  503    0 -0.00000000000E+00  0.00000000000E+00  0.17216459601E+04  0.17216459601E+04  0.00000000000E+00 0. -1.
         21   -1    0    0  501  502  0.00000000000E+00 -0.00000000000E+00 -0.22544040204E+02  0.22544040204E+02  0.00000000000E+00 0. -1.
         21    1    1    2  503  502 -0.10645698594E+03  0.20244854247E+02  0.12123568643E+03  0.16260699752E+03  0.00000000000E+00 0. -1.
          1    1    1    2  501    0  0.10645698594E+03 -0.20244854247E+02  0.15778662334E+04  0.15815830027E+04  0.00000000000E+00 0. -1.
<mgrwt>
<rscale>  2 0.10836487E+03</rscale>
<asrwt>0</asrwt>
<pdfrwt beam="2">  1       21 0.34683152E-02 0.10836487E+03</pdfrwt>
<pdfrwt beam="1">  1        1 0.26486850E+00 0.10836487E+03</pdfrwt>
<totfact> 0.29610153E+04</totfact>
</mgrwt>
</event>
<event>
 4    1  0.5134057E+003  0.1548309E+03  0.7546771E-02  0.1194659E+00
          1   -1    0    0  503    0 -0.00000000000E+00  0.00000000000E+00  0.17343849624E+03  0.17343849624E+03  0.00000000000E+00 0. -1.
         21   -1    0    0  501  502  0.00000000000E+00 -0.00000000000E+00 -0.15134807012E+03  0.15134807012E+03  0.00000000000E+00 0. -1.
         21    1    1    2  503  502  0.83039354764E+02 -0.13067922465E+03 -0.36783334395E+02  0.15914021454E+03  0.00000000000E+00 0. -1.
          1    1    1    2  501    0 -0.83039354764E+02  0.13067922465E+03  0.58873760515E+02  0.16564635182E+03  0.00000000000E+00 0. -1.
<mgrwt>
<rscale>  2 0.15483086E+03</rscale>
<asrwt>0</asrwt>
<pdfrwt beam="2">  1       21 0.23284318E-01 0.15483086E+03</pdfrwt>
<pdfrwt beam="1">  1        1 0.26682846E-01 0.15483086E+03</pdfrwt>
<totfact> 0.33017187E+04</totfact>
</mgrwt>
</event>
<event>
 4    1  0.5134057E+003  0.2617814E+03  0.7546771E-02  0.1106078E+00
          2   -1    0    0  503    0 -0.00000000000E+00  0.00000000000E+00  0.26759950655E+04  0.26759950655E+04  0.00000000000E+00 0. -1.
         21   -1    0    0  501  502  0.00000000000E+00 -0.00000000000E+00 -0.70508690297E+02  0.70508690297E+02  0.00000000000E+00 0. -1.
         21    1    1    2  503  502  0.25821196960E+03  0.43082351063E+02  0.20689438829E+03  0.33366869515E+03  0.00000000000E+00 0. -1.
          2    1    1    2  501    0 -0.25821196960E+03 -0.43082351063E+02  0.23985919869E+04  0.24128350607E+04  0.00000000000E+00 0. -1.
<mgrwt>
<rscale>  2 0.26178142E+03</rscale>
<asrwt>0</asrwt>
<pdfrwt beam="2">  1       21 0.10847493E-01 0.26178142E+03</pdfrwt>
<pdfrwt beam="1">  1        2 0.41169147E+00 0.26178142E+03</pdfrwt>
<totfact> 0.28392490E+03</totfact>
</mgrwt>
</event>
<event>
 4    1  0.5134057E+003  0.1088344E+03  0.7546771E-02  0.1262744E+00
         21   -1    0    0  501  502  0.00000000000E+00  0.00000000000E+00  0.44253446393E+02  0.44253446393E+02  0.00000000000E+00 0.  1.
          2   -1    0    0  503    0 -0.00000000000E+00 -0.00000000000E+00 -0.29809433426E+03  0.29809433426E+03  0.00000000000E+00 0.  1.
         21    1    1    2  503  502  0.10493329425E+03 -0.28877772660E+02 -0.72226985898E+02  0.13062028743E+03  0.00000000000E+00 0.  1.
          2    1    1    2  501    0 -0.10493329425E+03  0.28877772660E+02 -0.18161390197E+03  0.21172749322E+03  0.00000000000E+00 0.  1.
<mgrwt>
<rscale>  2 0.10883438E+03</rscale>
<asrwt>0</asrwt>
<pdfrwt beam="1">  1       21 0.68082227E-02 0.10883438E+03</pdfrwt>
<pdfrwt beam="2">  1        2 0.45860665E-01 0.10883438E+03</pdfrwt>
<totfact> 0.21113941E+05</totfact>
</mgrwt>
</event>
<event>
 4    1  0.5134057E+003  0.1112245E+03  0.7546771E-02  0.1258319E+00
         -1   -1    0    0    0  501 -0.00000000000E+00  0.00000000000E+00  0.17872932271E+03  0.17872932271E+03  0.00000000000E+00 0.  1.
         21   -1    0    0  501  502  0.00000000000E+00 -0.00000000000E+00 -0.41948805321E+03  0.41948805321E+03  0.00000000000E+00 0. -1.
         21    1    1    2  503  502  0.44487182644E+02  0.10194011869E+03 -0.39369978749E+03  0.40910930066E+03  0.00000000000E+00 0. -1.
         -1    1    1    2    0  503 -0.44487182644E+02 -0.10194011869E+03  0.15294105699E+03  0.18910807526E+03  0.00000000000E+00 0.  1.
<mgrwt>
<rscale>  2 0.11122454E+03</rscale>
<asrwt>0</asrwt>
<pdfrwt beam="2">  1       21 0.64536623E-01 0.11122454E+03</pdfrwt>
<pdfrwt beam="1">  1       -1 0.27496819E-01 0.11122454E+03</pdfrwt>
<totfact> 0.24637191E+03</totfact>
</mgrwt>
</event>
<event>
 4    1  0.5134057E+003  0.1022623E+03  0.7546771E-02  0.1275609E+00
         21   -1    0    0  503  502  0.00000000000E+00  0.00000000000E+00  0.79810139478E+02  0.79810139478E+02  0.00000000000E+00 0.  1.
         -3   -1    0    0    0  501 -0.00000000000E+00 -0.00000000000E+00 -0.15187659921E+03  0.15187659921E+03  0.00000000000E+00 0. -1.
         21    1    1    2  503  501  0.96490151887E+02  0.33870876999E+02  0.68843392968E+01  0.10249380395E+03  0.00000000000E+00 0.  1.
         -3    1    1    2    0  502 -0.96490151887E+02 -0.33870876999E+02 -0.78950799030E+02  0.12919293474E+03  0.00000000000E+00 0. -1.
<mgrwt>
<rscale>  2 0.10226234E+03</rscale>
<asrwt>0</asrwt>
<pdfrwt beam="1">  1       21 0.12278483E-01 0.10226234E+03</pdfrwt>
<pdfrwt beam="2">  1       -3 0.23365630E-01 0.10226234E+03</pdfrwt>
<totfact> 0.44542684E+04</totfact>
</mgrwt>
</event>
<event>
 4    1  0.5134057E+003  0.1024357E+03  0.7546771E-02  0.1275256E+00
          1   -1    0    0  502    0 -0.00000000000E+00  0.00000000000E+00  0.12897637391E+02  0.12897637391E+02  0.00000000000E+00 0.  1.
         21   -1    0    0  503  502  0.00000000000E+00 -0.00000000000E+00 -0.20607098672E+04  0.20607098672E+04  0.00000000000E+00 0. -1.
         21    1    1    2  503  501  0.30716866048E+02 -0.97721775942E+02 -0.18304843885E+04  0.18333483487E+04  0.00000000000E+00 0. -1.
          1    1    1    2  501    0 -0.30716866048E+02  0.97721775942E+02 -0.21732784131E+03  0.24025915583E+03  0.00000000000E+00 0.  1.
<mgrwt>
<rscale>  2 0.10243569E+03</rscale>
<asrwt>0</asrwt>
<pdfrwt beam="2">  1       21 0.31703226E+00 0.10243569E+03</pdfrwt>
<pdfrwt beam="1">  1        1 0.19842521E-02 0.10243569E+03</pdfrwt>
<totfact> 0.19046233E+03</totfact>
</mgrwt>
</event>
<event>
 4    1  0.5134057E+003  0.1017106E+03  0.7546771E-02  0.1276739E+00
         21   -1    0    0  503  502  0.00000000000E+00  0.00000000000E+00  0.15958513915E+03  0.15958513915E+03  0.00000000000E+00 0. -1.
          2   -1    0    0  502    0 -0.00000000000E+00 -0.00000000000E+00 -0.79973862799E+03  0.79973862799E+03  0.00000000000E+00 0.  1.
         21    1    1    2  503  501 -0.48864892849E+02  0.89203516838E+02  0.13973433978E+03  0.17283151010E+03  0.00000000000E+00 0. -1.
          2    1    1    2  501    0  0.48864892849E+02 -0.89203516838E+02 -0.77988782861E+03  0.78649225704E+03  0.00000000000E+00 0.  1.
<mgrwt>
<rscale>  2 0.10171060E+03</rscale>
<asrwt>0</asrwt>
<pdfrwt beam="1">  1       21 0.24551559E-01 0.10171060E+03</pdfrwt>
<pdfrwt beam="2">  1        2 0.12303672E+00 0.10171060E+03</pdfrwt>
<totfact> 0.72829901E+03</totfact>
</mgrwt>
</event>
<event>
 4    1  0.5134057E+003  0.1055729E+03  0.7546771E-02  0.1268995E+00
          3   -1    0    0  503    0 -0.00000000000E+00  0.00000000000E+00  0.97282080045E+03  0.97282080045E+03  0.00000000000E+00 0. -1.
         21   -1    0    0  501  502  0.00000000000E+00 -0.00000000000E+00 -0.23918028120E+02  0.23918028120E+02  0.00000000000E+00 0.  1.
         21    1    1    2  503  502  0.89254804514E+02  0.56384545127E+02  0.11473095029E+03  0.15591288597E+03  0.00000000000E+00 0.  1.
          3    1    1    2  501    0 -0.89254804514E+02 -0.56384545127E+02  0.83417182204E+03  0.84082594259E+03  0.00000000000E+00 0. -1.
<mgrwt>
<rscale>  2 0.10557290E+03</rscale>
<asrwt>0</asrwt>
<pdfrwt beam="2">  1       21 0.36796974E-02 0.10557290E+03</pdfrwt>
<pdfrwt beam="1">  1        3 0.14966471E+00 0.10557290E+03</pdfrwt>
<totfact> 0.74723703E+03</totfact>
</mgrwt>
</event>
<event>
 4    1  0.5134057E+003  0.1010745E+03  0.7546771E-02  0.1278052E+00
          2   -1    0    0  503    0 -0.00000000000E+00  0.00000000000E+00  0.62995203905E+02  0.62995203905E+02  0.00000000000E+00 0.  1.
         21   -1    0    0  501  502  0.00000000000E+00 -0.00000000000E+00 -0.58545543193E+03  0.58545543193E+03  0.00000000000E+00 0. -1.
         21    1    1    2  503  502  0.91142814291E+02 -0.43692688195E+02 -0.53691667498E+03  0.54634748967E+03  0.00000000000E+00 0. -1.
          2    1    1    2  501    0 -0.91142814291E+02  0.43692688195E+02  0.14456446953E+02  0.10210314617E+03  0.00000000000E+00 0.  1.
<mgrwt>
<rscale>  2 0.10107454E+03</rscale>
<asrwt>0</asrwt>
<pdfrwt beam="2">  1       21 0.90070068E-01 0.10107454E+03</pdfrwt>
<pdfrwt beam="1">  1        2 0.96915696E-02 0.10107454E+03</pdfrwt>
<totfact> 0.86349500E+03</totfact>
</mgrwt>
</event>
<event>
 4    1  0.5134057E+003  0.1011428E+03  0.7546771E-02  0.1277911E+00
          1   -1    0    0  503    0 -0.00000000000E+00  0.00000000000E+00  0.16506526386E+04  0.16506526386E+04  0.00000000000E+00 0.  1.
         21   -1    0    0  501  502  0.00000000000E+00 -0.00000000000E+00 -0.65057149731E+01  0.65057149731E+01  0.00000000000E+00 0.  1.
         21    1    1    2  503  502  0.73175954589E+02 -0.69822214873E+02  0.64171438872E+03  0.64963622029E+03  0.00000000000E+00 0.  1.
          1    1    1    2  501    0 -0.73175954589E+02  0.69822214873E+02  0.10024325349E+04  0.10075221333E+04  0.00000000000E+00 0.  1.
<mgrwt>
<rscale>  2 0.10114278E+03</rscale>
<asrwt>0</asrwt>
<pdfrwt beam="2">  1       21 0.10008805E-02 0.10114278E+03</pdfrwt>
<pdfrwt beam="1">  1        1 0.25394623E+00 0.10114278E+03</pdfrwt>
<totfact> 0.24067970E+05</totfact>
</mgrwt>
</event>
<event>
 4    1  0.5134057E+003  0.1084935E+03  0.7546771E-02  0.1263385E+00
          1   -1    0    0  503    0 -0.00000000000E+00  0.00000000000E+00  0.10629690536E+04  0.10629690536E+04  0.00000000000E+00 0. -1.
         21   -1    0    0  501  502  0.00000000000E+00 -0.00000000000E+00 -0.15421735021E+02  0.15421735021E+02  0.00000000000E+00 0.  1.
         21    1    1    2  503  502 -0.10849310314E+03  0.28378023736E+00  0.23746538952E+03  0.26107593758E+03  0.00000000000E+00 0.  1.
          1    1    1    2  501    0  0.10849310314E+03 -0.28378023736E+00  0.81008192910E+03  0.81731485109E+03  0.00000000000E+00 0. -1.
<mgrwt>
<rscale>  2 0.10849347E+03</rscale>
<asrwt>0</asrwt>
<pdfrwt beam="2">  1       21 0.23725754E-02 0.10849347E+03</pdfrwt>
<pdfrwt beam="1">  1        1 0.16353364E+00 0.10849347E+03</pdfrwt>
<totfact> 0.14909814E+05</totfact>
</mgrwt>
</event>
<event>
 4    1  0.5134057E+003  0.1081067E+03  0.7546771E-02  0.1264117E+00
         21   -1    0    0  503  502  0.00000000000E+00  0.00000000000E+00  0.46529844778E+03  0.46529844778E+03  0.00000000000E+00 0. -1.
          1   -1    0    0  502    0 -0.00000000000E+00 -0.00000000000E+00 -0.31395840935E+04  0.31395840935E+04  0.00000000000E+00 0.  1.
         21    1    1    2  503  501 -0.93689288150E+02 -0.53938578651E+02  0.45807401682E+03  0.47065789897E+03  0.00000000000E+00 0. -1.
          1    1    1    2  501    0  0.93689288150E+02  0.53938578651E+02 -0.31323596625E+04  0.31342246423E+04  0.00000000000E+00 0.  1.
<mgrwt>
<rscale>  2 0.10810667E+03</rscale>
<asrwt>0</asrwt>
<pdfrwt beam="1">  1       21 0.71584379E-01 0.10810667E+03</pdfrwt>
<pdfrwt beam="2">  1        1 0.48301292E+00 0.10810667E+03</pdfrwt>
<totfact> 0.13642395E+01</totfact>
</mgrwt>
</event>
<event>
 4    1  0.5134057E+003  0.1440947E+03  0.7546771E-02  0.1207923E+00
         21   -1    0    0  501  502  0.00000000000E+00  0.00000000000E+00  0.20802643010E+03  0.20802643010E+03  0.00000000000E+00 0.  1.
          3   -1    0    0  503    0 -0.00000000000E+00 -0.00000000000E+00 -0.19165814283E+03  0.19165814283E+03  0.00000000000E+00 0. -1.
         21    1    1    2  503  502 -0.74190279778E+02 -0.12352761656E+03  0.14652715281E+03  0.20550784943E+03  0.00000000000E+00 0.  1.
          3    1    1    2  501    0  0.74190279778E+02  0.12352761656E+03 -0.13015886554E+03  0.19417672349E+03  0.00000000000E+00 0. -1.
<mgrwt>
<rscale>  2 0.14409466E+03</rscale>
<asrwt>0</asrwt>
<pdfrwt beam="1">  1       21 0.32004066E-01 0.14409466E+03</pdfrwt>
<pdfrwt beam="2">  1        3 0.29485868E-01 0.14409466E+03</pdfrwt>
<totfact> 0.50942972E+03</totfact>
</mgrwt>
</event>
<event>
 4    1  0.5134057E+003  0.1021370E+03  0.7546771E-02  0.1275865E+00
         21   -1    0    0  503  502  0.00000000000E+00  0.00000000000E+00  0.14209655749E+03  0.14209655749E+03  0.00000000000E+00 0.  1.
          2   -1    0    0  502    0 -0.00000000000E+00 -0.00000000000E+00 -0.75905034696E+03  0.75905034696E+03  0.00000000000E+00 0. -1.
         21    1    1    2  503  501  0.10081208432E+03  0.16397688827E+02  0.11975305431E+03  0.15739362935E+03  0.00000000000E+00 0.  1.
          2    1    1    2  501    0 -0.10081208432E+03 -0.16397688827E+02 -0.73670684378E+03  0.74375327510E+03  0.00000000000E+00 0. -1.
<mgrwt>
<rscale>  2 0.10213697E+03</rscale>
<asrwt>0</asrwt>
<pdfrwt beam="1">  1       21 0.21861009E-01 0.10213697E+03</pdfrwt>
<pdfrwt beam="2">  1        2 0.11677698E+00 0.10213697E+03</pdfrwt>
<totfact> 0.96322635E+03</totfact>
</mgrwt>
</event>
<event>
 4    1  0.5134057E+003  0.1379427E+03  0.7546771E-02  0.1216124E+00
         21   -1    0    0  503  502  0.00000000000E+00  0.00000000000E+00  0.36481649863E+02  0.36481649863E+02  0.00000000000E+00 0.  1.
         -1   -1    0    0    0  501 -0.00000000000E+00 -0.00000000000E+00 -0.70982416573E+03  0.70982416573E+03  0.00000000000E+00 0.  1.
         21    1    1    2  503  501 -0.10739381618E+03 -0.86572281817E+02 -0.14450848011E+03  0.19977710719E+03  0.00000000000E+00 0.  1.
         -1    1    1    2    0  502  0.10739381618E+03  0.86572281817E+02 -0.52883403576E+03  0.54652870841E+03  0.00000000000E+00 0.  1.
<mgrwt>
<rscale>  2 0.13794271E+03</rscale>
<asrwt>0</asrwt>
<pdfrwt beam="1">  1       21 0.56125619E-02 0.13794271E+03</pdfrwt>
<pdfrwt beam="2">  1       -1 0.10920371E+00 0.13794271E+03</pdfrwt>
<totfact> 0.17154156E+04</totfact>
</mgrwt>
</event>
<event>
 4    1  0.5134057E+003  0.1274852E+03  0.7546771E-02  0.1231236E+00
         21   -1    0    0  501  502  0.00000000000E+00  0.00000000000E+00  0.24398189833E+03  0.24398189833E+03  0.00000000000E+00 0. -1.
          2   -1    0    0  503    0 -0.00000000000E+00 -0.00000000000E+00 -0.79137384126E+03  0.79137384126E+03  0.00000000000E+00 0.  1.
         21    1    1    2  503  502 -0.55340155745E+02  0.11484749090E+03  0.22171540584E+03  0.25575417922E+03  0.00000000000E+00 0. -1.
          2    1    1    2  501    0  0.55340155745E+02 -0.11484749090E+03 -0.76910734876E+03  0.77960156037E+03  0.00000000000E+00 0.  1.
<mgrwt>
<rscale>  2 0.12748521E+03</rscale>
<asrwt>0</asrwt>
<pdfrwt beam="1">  1       21 0.37535677E-01 0.12748521E+03</pdfrwt>
<pdfrwt beam="2">  1        2 0.12174982E+00 0.12748521E+03</pdfrwt>
<totfact> 0.32133593E+03</totfact>
</mgrwt>
</event>
<event>
 4    1  0.5134057E+003  0.1776733E+03  0.7546771E-02  0.1170074E+00
         21   -1    0    0  501  502  0.00000000000E+00  0.00000000000E+00  0.33089092739E+02  0.33089092739E+02  0.00000000000E+00 0.  1.
          2   -1    0    0  503    0 -0.00000000000E+00 -0.00000000000E+00 -0.10472905392E+04  0.10472905392E+04  0.00000000000E+00 0.  1.
         21    1    1    2  503  502  0.71328711880E+02  0.16272682785E+03 -0.34589719799E+03  0.38886074271E+03  0.00000000000E+00 0.  1.
          2    1    1    2  501    0 -0.71328711880E+02 -0.16272682785E+03 -0.66830424843E+03  0.69151888919E+03  0.00000000000E+00 0.  1.
<mgrwt>
<rscale>  2 0.17767331E+03</rscale>
<asrwt>0</asrwt>
<pdfrwt beam="1">  1       21 0.50906302E-02 0.17767331E+03</pdfrwt>
<pdfrwt beam="2">  1        2 0.16112160E+00 0.17767331E+03</pdfrwt>
<totfact> 0.81665434E+04</totfact>
</mgrwt>
</event>
<event>
 4    1  0.5134057E+003  0.1137213E+03  0.7546771E-02  0.1253830E+00
          1   -1    0    0  503    0 -0.00000000000E+00  0.00000000000E+00  0.13299599220E+04  0.13299599220E+04  0.00000000000E+00 0.  1.
         21   -1    0    0  501  502  0.00000000000E+00 -0.00000000000E+00 -0.21013946405E+02  0.21013946405E+02  0.00000000000E+00 0.  1.
         21    1    1    2  503  502  0.10840765058E+03 -0.34355664795E+02  0.15935457080E+03  0.19577131977E+03  0.00000000000E+00 0.  1.
          1    1    1    2  501    0 -0.10840765058E+03  0.34355664795E+02  0.11495914048E+04  0.11552025487E+04  0.00000000000E+00 0.  1.
<mgrwt>
<rscale>  2 0.11372128E+03</rscale>
<asrwt>0</asrwt>
<pdfrwt beam="2">  1       21 0.32329159E-02 0.11372128E+03</pdfrwt>
<pdfrwt beam="1">  1        1 0.20460915E+00 0.11372128E+03</pdfrwt>
<totfact> 0.59304367E+04</totfact>
</mgrwt>
</event>
<event>
 4    1  0.5134057E+003  0.2555912E+03  0.7546771E-02  0.1109821E+00
         -4   -1    0    0    0  501 -0.00000000000E+00  0.00000000000E+00  0.93685509356E+03  0.93685509356E+03  0.00000000000E+00 0.  1.
         21   -1    0    0  501  502  0.00000000000E+00 -0.00000000000E+00 -0.12548133758E+03  0.12548133758E+03  0.00000000000E+00 0. -1.
         21    1    1    2  503  502  0.23812827706E+03  0.92853639231E+02  0.51632242791E+02  0.26075421981E+03  0.00000000000E+00 0. -1.
         -4    1    1    2    0  503 -0.23812827706E+03 -0.92853639231E+02  0.75974151319E+03  0.80158221133E+03  0.00000000000E+00 0.  1.
<mgrwt>
<rscale>  2 0.25559123E+03</rscale>
<asrwt>0</asrwt>
<pdfrwt beam="2">  1       21 0.19304822E-01 0.25559123E+03</pdfrwt>
<pdfrwt beam="1">  1       -4 0.14413155E+00 0.25559123E+03</pdfrwt>
<totfact> 0.36257108E+02</totfact>
</mgrwt>
</event>
<event>
 4    1  0.5134057E+003  0.1190988E+03  0.7546771E-02  0.1244591E+00
         21   -1    0    0  501  502  0.00000000000E+00  0.00000000000E+00  0.97837789261E+02  0.97837789261E+02  0.00000000000E+00 0. -1.
          2   -1    0    0  503    0 -0.00000000000E+00 -0.00000000000E+00 -0.24774151348E+03  0.24774151348E+03  0.00000000000E+00 0.  1.
         21    1    1    2  503  502 -0.78721345104E+02  0.89372725693E+02  0.36332292492E+02  0.12451734719E+03  0.00000000000E+00 0. -1.
          2    1    1    2  501    0  0.78721345104E+02 -0.89372725693E+02 -0.18623601671E+03  0.22106195555E+03  0.00000000000E+00 0.  1.
<mgrwt>
<rscale>  2 0.11909884E+03</rscale>
<asrwt>0</asrwt>
<pdfrwt beam="1">  1       21 0.15051968E-01 0.11909884E+03</pdfrwt>
<pdfrwt beam="2">  1        2 0.38114079E-01 0.11909884E+03</pdfrwt>
<totfact> 0.64425747E+04</totfact>
</mgrwt>
</event>
<event>
 4    1  0.5134057E+003  0.1618597E+03  0.7546771E-02  0.1186613E+00
          1   -1    0    0  502    0 -0.00000000000E+00  0.00000000000E+00  0.49478922940E+03  0.49478922940E+03  0.00000000000E+00 0.  1.
         21   -1    0    0  503  502  0.00000000000E+00 -0.00000000000E+00 -0.15290788415E+03  0.15290788415E+03  0.00000000000E+00 0.  1.
         21    1    1    2  503  501 -0.16146146373E+03 -0.11347423685E+02 -0.90900443237E+02  0.18563797800E+03  0.00000000000E+00 0.  1.
          1    1    1    2  501    0  0.16146146373E+03  0.11347423685E+02  0.43278178849E+03  0.46205913555E+03  0.00000000000E+00 0.  1.
<mgrwt>
<rscale>  2 0.16185972E+03</rscale>
<asrwt>0</asrwt>
<pdfrwt beam="2">  1       21 0.23524290E-01 0.16185972E+03</pdfrwt>
<pdfrwt beam="1">  1        1 0.76121419E-01 0.16185972E+03</pdfrwt>
<totfact> 0.86723727E+03</totfact>
</mgrwt>
</event>
<event>
 4    1  0.5134057E+003  0.1014410E+03  0.7546771E-02  0.1277294E+00
         21   -1    0    0  501  502  0.00000000000E+00  0.00000000000E+00  0.65498943335E+02  0.65498943335E+02  0.00000000000E+00 0.  1.
          2   -1    0    0  503    0 -0.00000000000E+00 -0.00000000000E+00 -0.23886519866E+03  0.23886519866E+03  0.00000000000E+00 0.  1.
         21    1    1    2  503  502 -0.58674408873E+02  0.82750222645E+02  0.23506936935E+01  0.10146827763E+03  0.00000000000E+00 0.  1.
          2    1    1    2  501    0  0.58674408873E+02 -0.82750222645E+02 -0.17571694902E+03  0.20289586437E+03  0.00000000000E+00 0.  1.
<mgrwt>
<rscale>  2 0.10144104E+03</rscale>
<asrwt>0</asrwt>
<pdfrwt beam="1">  1       21 0.10076760E-01 0.10144104E+03</pdfrwt>
<pdfrwt beam="2">  1        2 0.36748493E-01 0.10144104E+03</pdfrwt>
<totfact> 0.13537716E+05</totfact>
</mgrwt>
</event>
<event>
 4    1  0.5134057E+003  0.1120447E+03  0.7546771E-02  0.1256830E+00
          2   -1    0    0  502    0 -0.00000000000E+00  0.00000000000E+00  0.45267994659E+04  0.45267994659E+04  0.00000000000E+00 0. -1.
         21   -1    0    0  503  502  0.00000000000E+00 -0.00000000000E+00 -0.76136032263E+01  0.76136032263E+01  0.00000000000E+00 0. -1.
         21    1    1    2  503  501  0.98777919139E+02 -0.52886102325E+02  0.45186198186E+03  0.46554620370E+03  0.00000000000E+00 0. -1.
          2    1    1    2  501    0 -0.98777919139E+02  0.52886102325E+02  0.40673238808E+04  0.40688668655E+04  0.00000000000E+00 0. -1.
<mgrwt>
<rscale>  2 0.11204471E+03</rscale>
<asrwt>0</asrwt>
<pdfrwt beam="2">  1       21 0.11713272E-02 0.11204471E+03</pdfrwt>
<pdfrwt beam="1">  1        2 0.69642854E+00 0.11204471E+03</pdfrwt>
<totfact> 0.68065749E+03</totfact>
</mgrwt>
</event>
<event>
 4    1  0.5134057E+003  0.1081372E+03  0.7546771E-02  0.1264059E+00
         -2   -1    0    0    0  501 -0.00000000000E+00  0.00000000000E+00  0.12726691694E+04  0.12726691694E+04  0.00000000000E+00 0.  1.
         21   -1    0    0  503  502  0.00000000000E+00 -0.00000000000E+00 -0.19431951230E+02  0.19431951230E+02  0.00000000000E+00 0.  1.
         21    1    1    2  503  501 -0.10633123998E+03  0.19680550360E+02  0.15755056068E+03  0.19109117151E+03  0.00000000000E+00 0.  1.
         -2    1    1    2    0  502  0.10633123998E+03 -0.19680550360E+02  0.10956866575E+04  0.11010099491E+04  0.00000000000E+00 0.  1.
<mgrwt>
<rscale>  2 0.10813721E+03</rscale>
<asrwt>0</asrwt>
<pdfrwt beam="2">  1       21 0.29895320E-02 0.10813721E+03</pdfrwt>
<pdfrwt beam="1">  1       -2 0.19579519E+00 0.10813721E+03</pdfrwt>
<totfact> 0.80800165E+03</totfact>
</mgrwt>
</event>
<event>
 4    1  0.5134057E+003  0.1082002E+03  0.7546771E-02  0.1263940E+00
         21   -1    0    0  501  502  0.00000000000E+00  0.00000000000E+00  0.55136198338E+03  0.55136198338E+03  0.00000000000E+00 0.  1.
         -1   -1    0    0    0  501 -0.00000000000E+00 -0.00000000000E+00 -0.29518030250E+02  0.29518030250E+02  0.00000000000E+00 0. -1.
         21    1    1    2  503  502 -0.10579911153E+03 -0.22667634507E+02  0.41479060116E+03  0.42867063868E+03  0.00000000000E+00 0.  1.
         -1    1    1    2    0  503  0.10579911153E+03  0.22667634507E+02  0.10705335197E+03  0.15220937495E+03  0.00000000000E+00 0. -1.
<mgrwt>
<rscale>  2 0.10820016E+03</rscale>
<asrwt>0</asrwt>
<pdfrwt beam="1">  1       21 0.84824913E-01 0.10820016E+03</pdfrwt>
<pdfrwt beam="2">  1       -1 0.45412358E-02 0.10820016E+03</pdfrwt>
<totfact> 0.21586095E+04</totfact>
</mgrwt>
</event>
<event>
 4    1  0.5134057E+003  0.1258129E+03  0.7546771E-02  0.1233804E+00
          1   -1    0    0  502    0 -0.00000000000E+00  0.00000000000E+00  0.31327871915E+03  0.31327871915E+03  0.00000000000E+00 0. -1.
         21   -1    0    0  503  502  0.00000000000E+00 -0.00000000000E+00 -0.92943991198E+02  0.92943991198E+02  0.00000000000E+00 0. -1.
         21    1    1    2  503  501 -0.51834701862E+02  0.11463872701E+03 -0.27045896927E+02  0.12868704126E+03  0.00000000000E+00 0. -1.
          1    1    1    2  501    0  0.51834701862E+02 -0.11463872701E+03  0.24738062488E+03  0.27753566909E+03  0.00000000000E+00 0. -1.
<mgrwt>
<rscale>  2 0.12581285E+03</rscale>
<asrwt>0</asrwt>
<pdfrwt beam="2">  1       21 0.14299076E-01 0.12581285E+03</pdfrwt>
<pdfrwt beam="1">  1        1 0.48196725E-01 0.12581285E+03</pdfrwt>
<totfact> 0.38778048E+04</totfact>
</mgrwt>
</event>
<event>
 4    1  0.5134057E+003  0.1101514E+03  0.7546771E-02  0.1260290E+00
          2   -1    0    0  502    0 -0.00000000000E+00  0.00000000000E+00  0.16220475402E+04  0.16220475402E+04  0.00000000000E+00 0. -1.
         21   -1    0    0  503  502  0.00000000000E+00 -0.00000000000E+00 -0.17098751743E+02  0.17098751743E+02  0.00000000000E+00 0. -1.
         21    1    1    2  503  501 -0.97293272282E+01 -0.10972085063E+03  0.18778010520E+03  0.21770322180E+03  0.00000000000E+00 0. -1.
          2    1    1    2  501    0  0.97293272282E+01  0.10972085063E+03  0.14171686832E+04  0.14214430701E+04  0.00000000000E+00 0. -1.
<mgrwt>
<rscale>  2 0.11015137E+03</rscale>
<asrwt>0</asrwt>
<pdfrwt beam="2">  1       21 0.26305785E-02 0.11015137E+03</pdfrwt>
<pdfrwt beam="1">  1        2 0.24954565E+00 0.11015137E+03</pdfrwt>
<totfact> 0.11942825E+05</totfact>
</mgrwt>
</event>
<event>
 4    1  0.5134057E+003  0.1031518E+03  0.7546771E-02  0.1273804E+00
         21   -1    0    0  501  502  0.00000000000E+00  0.00000000000E+00  0.14424613108E+02  0.14424613108E+02  0.00000000000E+00 0. -1.
          2   -1    0    0  503    0 -0.00000000000E+00 -0.00000000000E+00 -0.78043380453E+03  0.78043380453E+03  0.00000000000E+00 0.  1.
         21    1    1    2  503  502 -0.69102390931E+02 -0.76584298558E+02 -0.28994981088E+03  0.30775182867E+03  0.00000000000E+00 0. -1.
          2    1    1    2  501    0  0.69102390931E+02  0.76584298558E+02 -0.47605938054E+03  0.48710658897E+03  0.00000000000E+00 0.  1.
<mgrwt>
<rscale>  2 0.10315181E+03</rscale>
<asrwt>0</asrwt>
<pdfrwt beam="1">  1       21 0.22191719E-02 0.10315181E+03</pdfrwt>
<pdfrwt beam="2">  1        2 0.12006670E+00 0.10315181E+03</pdfrwt>
<totfact> 0.46602721E+05</totfact>
</mgrwt>
</event>
<event>
 4    1  0.5134057E+003  0.1071052E+03  0.7546771E-02  0.1266026E+00
         21   -1    0    0  501  502  0.00000000000E+00  0.00000000000E+00  0.35255563829E+03  0.35255563829E+03  0.00000000000E+00 0. -1.
          1   -1    0    0  503    0 -0.00000000000E+00 -0.00000000000E+00 -0.12324888314E+04  0.12324888314E+04  0.00000000000E+00 0. -1.
         21    1    1    2  503  502 -0.82178945333E+02  0.68688732378E+02  0.34202421679E+03  0.35840212873E+03  0.00000000000E+00 0. -1.
          1    1    1    2  501    0  0.82178945333E+02 -0.68688732378E+02 -0.12219574099E+04  0.12266423410E+04  0.00000000000E+00 0. -1.
<mgrwt>
<rscale>  2 0.10710519E+03</rscale>
<asrwt>0</asrwt>
<pdfrwt beam="1">  1       21 0.54239329E-01 0.10710519E+03</pdfrwt>
<pdfrwt beam="2">  1        1 0.18961367E+00 0.10710519E+03</pdfrwt>
<totfact> 0.42708362E+02</totfact>
</mgrwt>
</event>
<event>
 4    1  0.5134057E+003  0.1139221E+03  0.7546771E-02  0.1253474E+00
         21   -1    0    0  501  502  0.00000000000E+00  0.00000000000E+00  0.27110573328E+03  0.27110573328E+03  0.00000000000E+00 0.  1.
          2   -1    0    0  503    0 -0.00000000000E+00 -0.00000000000E+00 -0.11404859102E+04  0.11404859102E+04  0.00000000000E+00 0.  1.
         21    1    1    2  503  502  0.11006170472E+03 -0.29405282985E+02  0.25613416209E+03  0.28032652123E+03  0.00000000000E+00 0.  1.
          2    1    1    2  501    0 -0.11006170472E+03  0.29405282985E+02 -0.11255143390E+04  0.11312651222E+04  0.00000000000E+00 0.  1.
<mgrwt>
<rscale>  2 0.11392212E+03</rscale>
<asrwt>0</asrwt>
<pdfrwt beam="1">  1       21 0.41708575E-01 0.11392212E+03</pdfrwt>
<pdfrwt beam="2">  1        2 0.17545937E+00 0.11392212E+03</pdfrwt>
<totfact> 0.16119444E+03</totfact>
</mgrwt>
</event>
<event>
 4    1  0.5134057E+003  0.1031491E+03  0.7546771E-02  0.1273810E+00
          3   -1    0    0  503    0 -0.00000000000E+00  0.00000000000E+00  0.24303608799E+04  0.24303608799E+04  0.00000000000E+00 0. -1.
         21   -1    0    0  501  502  0.00000000000E+00 -0.00000000000E+00 -0.63162240118E+01  0.63162240118E+01  0.00000000000E+00 0. -1.
         21    1    1    2  503  502 -0.10114752836E+03  0.20221585959E+02  0.53709198736E+03  0.54690724800E+03  0.00000000000E+00 0. -1.
          3    1    1    2  501    0  0.10114752836E+03 -0.20221585959E+02  0.18869526686E+04  0.18897698559E+04  0.00000000000E+00 0. -1.
<mgrwt>
<rscale>  2 0.10314909E+03</rscale>
<asrwt>0</asrwt>
<pdfrwt beam="2">  1       21 0.97172871E-03 0.10314909E+03</pdfrwt>
<pdfrwt beam="1">  1        3 0.37390093E+00 0.10314909E+03</pdfrwt>
<totfact> 0.36478757E+03</totfact>
</mgrwt>
</event>
<event>
 4    1  0.5134057E+003  0.1248253E+03  0.7546771E-02  0.1235343E+00
         21   -1    0    0  503  502  0.00000000000E+00  0.00000000000E+00  0.78726181024E+03  0.78726181024E+03  0.00000000000E+00 0.  1.
          2   -1    0    0  502    0 -0.00000000000E+00 -0.00000000000E+00 -0.17609409395E+03  0.17609409395E+03  0.00000000000E+00 0. -1.
         21    1    1    2  503  501  0.10769789542E+03  0.63107163552E+02  0.75938648856E+03  0.76957727992E+03  0.00000000000E+00 0.  1.
          2    1    1    2  501    0 -0.10769789542E+03 -0.63107163552E+02 -0.14821877227E+03  0.19377862426E+03  0.00000000000E+00 0. -1.
<mgrwt>
<rscale>  2 0.12482528E+03</rscale>
<asrwt>0</asrwt>
<pdfrwt beam="1">  1       21 0.12111720E+00 0.12482528E+03</pdfrwt>
<pdfrwt beam="2">  1        2 0.27091400E-01 0.12482528E+03</pdfrwt>
<totfact> 0.12975651E+03</totfact>
</mgrwt>
</event>
<event>
 4    1  0.5134057E+003  0.1049159E+03  0.7546771E-02  0.1270285E+00
         21   -1    0    0  501  502  0.00000000000E+00  0.00000000000E+00  0.15060332247E+02  0.15060332247E+02  0.00000000000E+00 0.  1.
          2   -1    0    0  503    0 -0.00000000000E+00 -0.00000000000E+00 -0.23815261426E+04  0.23815261426E+04  0.00000000000E+00 0.  1.
         21    1    1    2  503  502  0.62414397523E+01  0.10473008176E+03 -0.18562016667E+03  0.21321864804E+03  0.00000000000E+00 0.  1.
          2    1    1    2  501    0 -0.62414397523E+01 -0.10473008176E+03 -0.21808456437E+04  0.21833678269E+04  0.00000000000E+00 0.  1.
<mgrwt>
<rscale>  2 0.10491590E+03</rscale>
<asrwt>0</asrwt>
<pdfrwt beam="1">  1       21 0.23169761E-02 0.10491590E+03</pdfrwt>
<pdfrwt beam="2">  1        2 0.36638834E+00 0.10491590E+03</pdfrwt>
<totfact> 0.60225429E+04</totfact>
</mgrwt>
</event>
<event>
 4    1  0.5134057E+003  0.1000559E+03  0.7546771E-02  0.1280178E+00
          1   -1    0    0  503    0 -0.00000000000E+00  0.00000000000E+00  0.11420343835E+04  0.11420343835E+04  0.00000000000E+00 0.  1.
         21   -1    0    0  501  502  0.00000000000E+00 -0.00000000000E+00 -0.18160784093E+02  0.18160784093E+02  0.00000000000E+00 0.  1.
         21    1    1    2  503  502 -0.97974184712E+02 -0.20303716668E+02  0.14470733813E+03  0.17593008694E+03  0.00000000000E+00 0.  1.
          1    1    1    2  501    0  0.97974184712E+02  0.20303716668E+02  0.97916626132E+03  0.98426508070E+03  0.00000000000E+00 0.  1.
<mgrwt>
<rscale>  2 0.10005589E+03</rscale>
<asrwt>0</asrwt>
<pdfrwt beam="2">  1       21 0.27939677E-02 0.10005589E+03</pdfrwt>
<pdfrwt beam="1">  1        1 0.17569754E+00 0.10005589E+03</pdfrwt>
<totfact> 0.10058506E+05</totfact>
</mgrwt>
</event>
<event>
 4    1  0.5134057E+003  0.1229250E+03  0.7546771E-02  0.1238348E+00
          2   -1    0    0  503    0 -0.00000000000E+00  0.00000000000E+00  0.80654478102E+03  0.80654478102E+03  0.00000000000E+00 0. -1.
         21   -1    0    0  501  502  0.00000000000E+00 -0.00000000000E+00 -0.13943474666E+03  0.13943474666E+03  0.00000000000E+00 0.  1.
         21    1    1    2  503  502  0.12292218284E+03  0.83597496840E+00 -0.10651272708E+03  0.16265153832E+03  0.00000000000E+00 0.  1.
          2    1    1    2  501    0 -0.12292218284E+03 -0.83597496840E+00  0.77362276144E+03  0.78332798935E+03  0.00000000000E+00 0. -1.
<mgrwt>
<rscale>  2 0.12292503E+03</rscale>
<asrwt>0</asrwt>
<pdfrwt beam="2">  1       21 0.21451500E-01 0.12292503E+03</pdfrwt>
<pdfrwt beam="1">  1        2 0.12408381E+00 0.12292503E+03</pdfrwt>
<totfact> 0.91905953E+03</totfact>
</mgrwt>
</event>
<event>
 4    1  0.5134057E+003  0.1231779E+03  0.7546771E-02  0.1237945E+00
          2   -1    0    0  503    0 -0.00000000000E+00  0.00000000000E+00  0.51800335818E+03  0.51800335818E+03  0.00000000000E+00 0. -1.
         21   -1    0    0  501  502  0.00000000000E+00 -0.00000000000E+00 -0.32257619077E+02  0.32257619077E+02  0.00000000000E+00 0. -1.
         21    1    1    2  503  502 -0.11627304352E+03  0.40661668757E+02  0.15943566742E+03  0.20147586457E+03  0.00000000000E+00 0. -1.
          2    1    1    2  501    0  0.11627304352E+03 -0.40661668757E+02  0.32631007168E+03  0.34878511269E+03  0.00000000000E+00 0. -1.
<mgrwt>
<rscale>  2 0.12317789E+03</rscale>
<asrwt>0</asrwt>
<pdfrwt beam="2">  1       21 0.49627110E-02 0.12317789E+03</pdfrwt>
<pdfrwt beam="1">  1        2 0.79692818E-01 0.12317789E+03</pdfrwt>
<totfact> 0.20094625E+05</totfact>
</mgrwt>
</event>
<event>
 4    1  0.5134057E+003  0.1064467E+03  0.7546771E-02  0.1267295E+00
         21   -1    0    0  503  502  0.00000000000E+00  0.00000000000E+00  0.68398985084E+02  0.68398985084E+02  0.00000000000E+00 0. -1.
          2   -1    0    0  502    0 -0.00000000000E+00 -0.00000000000E+00 -0.34878986785E+03  0.34878986785E+03  0.00000000000E+00 0. -1.
         21    1    1    2  503  501 -0.17419496073E+02  0.10501175945E+03  0.10952253906E+02  0.10700869278E+03  0.00000000000E+00 0. -1.
          2    1    1    2  501    0  0.17419496073E+02 -0.10501175945E+03 -0.29134313667E+03  0.31018016015E+03  0.00000000000E+00 0. -1.
<mgrwt>
<rscale>  2 0.10644674E+03</rscale>
<asrwt>0</asrwt>
<pdfrwt beam="1">  1       21 0.10522921E-01 0.10644674E+03</pdfrwt>
<pdfrwt beam="2">  1        2 0.53659979E-01 0.10644674E+03</pdfrwt>
<totfact> 0.84457313E+04</totfact>
</mgrwt>
</event>
<event>
 4    1  0.5134057E+003  0.1380522E+03  0.7546771E-02  0.1215974E+00
         21   -1    0    0  503  502  0.00000000000E+00  0.00000000000E+00  0.18987618218E+03  0.18987618218E+03  0.00000000000E+00 0.  1.
          2   -1    0    0  502    0 -0.00000000000E+00 -0.00000000000E+00 -0.16019638183E+04  0.16019638183E+04  0.00000000000E+00 0. -1.
         21    1    1    2  503  501 -0.95402743695E+02 -0.99783330553E+02  0.16135478212E+03  0.21235291916E+03  0.00000000000E+00 0.  1.
          2    1    1    2  501    0  0.95402743695E+02  0.99783330553E+02 -0.15734424183E+04  0.15794870813E+04  0.00000000000E+00 0. -1.
<mgrwt>
<rscale>  2 0.13805215E+03</rscale>
<asrwt>0</asrwt>
<pdfrwt beam="1">  1       21 0.29211721E-01 0.13805215E+03</pdfrwt>
<pdfrwt beam="2">  1        2 0.24645597E+00 0.13805215E+03</pdfrwt>
<totfact> 0.18063242E+03</totfact>
</mgrwt>
</event>
<event>
 4    1  0.5134057E+003  0.1190213E+03  0.7546771E-02  0.1244720E+00
          1   -1    0    0  503    0 -0.00000000000E+00  0.00000000000E+00  0.41959572087E+03  0.41959572087E+03  0.00000000000E+00 0.  1.
         21   -1    0    0  501  502  0.00000000000E+00 -0.00000000000E+00 -0.96857417404E+02  0.96857417404E+02  0.00000000000E+00 0. -1.
         21    1    1    2  503  502 -0.77705481983E+02  0.90155069044E+02 -0.47049198218E+02  0.12798322334E+03  0.00000000000E+00 0. -1.
          1    1    1    2  501    0  0.77705481983E+02 -0.90155069044E+02  0.36978750168E+03  0.38846991493E+03  0.00000000000E+00 0.  1.
<mgrwt>
<rscale>  2 0.11902134E+03</rscale>
<asrwt>0</asrwt>
<pdfrwt beam="2">  1       21 0.14901141E-01 0.11902134E+03</pdfrwt>
<pdfrwt beam="1">  1        1 0.64553187E-01 0.11902134E+03</pdfrwt>
<totfact> 0.25009382E+04</totfact>
</mgrwt>
</event>
<event>
 4    1  0.5134057E+003  0.1032662E+03  0.7546771E-02  0.1273574E+00
          2   -1    0    0  502    0 -0.00000000000E+00  0.00000000000E+00  0.13205980486E+03  0.13205980486E+03  0.00000000000E+00 0.  1.
         21   -1    0    0  503  502  0.00000000000E+00 -0.00000000000E+00 -0.13432826971E+03  0.13432826971E+03  0.00000000000E+00 0.  1.
         21    1    1    2  503  501  0.49017406935E+02  0.90891198877E+02 -0.85252969881E+02  0.13391036214E+03  0.00000000000E+00 0.  1.
          2    1    1    2  501    0 -0.49017406935E+02 -0.90891198877E+02  0.82984505022E+02  0.13247771243E+03  0.00000000000E+00 0.  1.
<mgrwt>
<rscale>  2 0.10326624E+03</rscale>
<asrwt>0</asrwt>
<pdfrwt beam="2">  1       21 0.20665888E-01 0.10326624E+03</pdfrwt>
<pdfrwt beam="1">  1        2 0.20316893E-01 0.10326624E+03</pdfrwt>
<totfact> 0.71367071E+04</totfact>
</mgrwt>
</event>
<event>
 4    1  0.5134057E+003  0.1257636E+03  0.7546771E-02  0.1233881E+00
         21   -1    0    0  503  502  0.00000000000E+00  0.00000000000E+00  0.59187323436E+02  0.59187323436E+02  0.00000000000E+00 0. -1.
          1   -1    0    0  502    0 -0.00000000000E+00 -0.00000000000E+00 -0.13242316239E+04  0.13242316239E+04  0.00000000000E+00 0. -1.
         21    1    1    2  503  501 -0.65654775555E+02  0.10726576899E+03 -0.14534156628E+02  0.12660069692E+03  0.00000000000E+00 0. -1.
          1    1    1    2  501    0  0.65654775555E+02 -0.10726576899E+03 -0.12505101439E+04  0.12568182505E+04  0.00000000000E+00 0. -1.
<mgrwt>
<rscale>  2 0.12576365E+03</rscale>
<asrwt>0</asrwt>
<pdfrwt beam="1">  1       21 0.91057424E-02 0.12576365E+03</pdfrwt>
<pdfrwt beam="2">  1        1 0.20372793E+00 0.12576365E+03</pdfrwt>
<totfact> 0.10419102E+04</totfact>
</mgrwt>
</event>
<event>
 4    1  0.5134057E+003  0.1469327E+03  0.7546771E-02  0.1204294E+00
          1   -1    0    0  502    0 -0.00000000000E+00  0.00000000000E+00  0.35719269445E+03  0.35719269445E+03  0.00000000000E+00 0. -1.
         21   -1    0    0  503  502  0.00000000000E+00 -0.00000000000E+00 -0.77926566052E+02  0.77926566052E+02  0.00000000000E+00 0. -1.
         21    1    1    2  503  501 -0.14222302649E+03  0.36902816903E+02  0.36577582787E+02  0.15141706218E+03  0.00000000000E+00 0. -1.
          1    1    1    2  501    0  0.14222302649E+03 -0.36902816903E+02  0.24268854561E+03  0.28370219831E+03  0.00000000000E+00 0. -1.
<mgrwt>
<rscale>  2 0.14693266E+03</rscale>
<asrwt>0</asrwt>
<pdfrwt beam="2">  1       21 0.11988703E-01 0.14693266E+03</pdfrwt>
<pdfrwt beam="1">  1        1 0.54952721E-01 0.14693266E+03</pdfrwt>
<totfact> 0.45187603E+04</totfact>
</mgrwt>
</event>
<event>
 4    1  0.5134057E+003  0.1027396E+03  0.7546771E-02  0.1274638E+00
          1   -1    0    0  502    0 -0.00000000000E+00  0.00000000000E+00  0.28945447998E+03  0.28945447998E+03  0.00000000000E+00 0. -1.
         21   -1    0    0  503  502  0.00000000000E+00 -0.00000000000E+00 -0.17886479548E+04  0.17886479548E+04  0.00000000000E+00 0. -1.
         21    1    1    2  503  501  0.85051391869E+02  0.57634098694E+02 -0.17780014174E+04  0.17809672846E+04  0.00000000000E+00 0. -1.
          1    1    1    2  501    0 -0.85051391869E+02 -0.57634098694E+02  0.27880794261E+03  0.29713515015E+03  0.00000000000E+00 0. -1.
<mgrwt>
<rscale>  2 0.10273962E+03</rscale>
<asrwt>0</asrwt>
<pdfrwt beam="2">  1       21 0.27517661E+00 0.10273962E+03</pdfrwt>
<pdfrwt beam="1">  1        1 0.44531458E-01 0.10273962E+03</pdfrwt>
<totfact> 0.55049335E+01</totfact>
</mgrwt>
</event>
<event>
 4    1  0.5134057E+003  0.1311686E+03  0.7546771E-02  0.1225732E+00
         -2   -1    0    0    0  501 -0.00000000000E+00  0.00000000000E+00  0.59712683763E+02  0.59712683763E+02  0.00000000000E+00 0. -1.
         21   -1    0    0  501  502  0.00000000000E+00 -0.00000000000E+00 -0.47532455068E+03  0.47532455068E+03  0.00000000000E+00 0. -1.
         21    1    1    2  503  502  0.11851899608E+03  0.56200157697E+02 -0.37568699579E+03  0.39792703974E+03  0.00000000000E+00 0. -1.
         -2    1    1    2    0  503 -0.11851899608E+03 -0.56200157697E+02 -0.39924871132E+02  0.13711019470E+03  0.00000000000E+00 0. -1.
<mgrwt>
<rscale>  2 0.13116863E+03</rscale>
<asrwt>0</asrwt>
<pdfrwt beam="2">  1       21 0.73126851E-01 0.13116863E+03</pdfrwt>
<pdfrwt beam="1">  1       -2 0.91865671E-02 0.13116863E+03</pdfrwt>
<totfact> 0.10081012E+04</totfact>
</mgrwt>
</event>
<event>
 4    1  0.5134057E+003  0.1208958E+03  0.7546771E-02  0.1241627E+00
          1   -1    0    0  503    0 -0.00000000000E+00  0.00000000000E+00  0.10813451996E+04  0.10813451996E+04  0.00000000000E+00 0. -1.
         21   -1    0    0  501  502  0.00000000000E+00 -0.00000000000E+00 -0.29704875616E+02  0.29704875616E+02  0.00000000000E+00 0.  1.
         21    1    1    2  503  502 -0.80284317900E+02  0.90389295656E+02  0.11571620560E+03  0.16735004245E+03  0.00000000000E+00 0.  1.
          1    1    1    2  501    0  0.80284317900E+02 -0.90389295656E+02  0.93592411833E+03  0.94370003272E+03  0.00000000000E+00 0. -1.
<mgrwt>
<rscale>  2 0.12089581E+03</rscale>
<asrwt>0</asrwt>
<pdfrwt beam="2">  1       21 0.45699817E-02 0.12089581E+03</pdfrwt>
<pdfrwt beam="1">  1        1 0.16636077E+00 0.12089581E+03</pdfrwt>
<totfact> 0.49361814E+04</totfact>
</mgrwt>
</event>
<event>
 4    1  0.5134057E+003  0.1039197E+03  0.7546771E-02  0.1272263E+00
         21   -1    0    0  501  502  0.00000000000E+00  0.00000000000E+00  0.38819608054E+02  0.38819608054E+02  0.00000000000E+00 0.  1.
         -3   -1    0    0    0  501 -0.00000000000E+00 -0.00000000000E+00 -0.12638620382E+04  0.12638620382E+04  0.00000000000E+00 0. -1.
         21    1    1    2  503  502 -0.93808322645E+02 -0.44713592887E+02 -0.37314128282E+02  0.11041580936E+03  0.00000000000E+00 0.  1.
         -3    1    1    2    0  503  0.93808322645E+02  0.44713592887E+02 -0.11877283019E+04  0.11922658369E+04  0.00000000000E+00 0. -1.
<mgrwt>
<rscale>  2 0.10391971E+03</rscale>
<asrwt>0</asrwt>
<pdfrwt beam="1">  1       21 0.59722488E-02 0.10391971E+03</pdfrwt>
<pdfrwt beam="2">  1       -3 0.19444027E+00 0.10391971E+03</pdfrwt>
<totfact> 0.16914754E+03</totfact>
</mgrwt>
</event>
<event>
 4    1  0.5134057E+003  0.1561420E+03  0.7546771E-02  0.1193123E+00
         21   -1    0    0  503  502  0.00000000000E+00  0.00000000000E+00  0.60989584890E+02  0.60989584890E+02  0.00000000000E+00 0. -1.
          2   -1    0    0  502    0 -0.00000000000E+00 -0.00000000000E+00 -0.66951889170E+03  0.66951889170E+03  0.00000000000E+00 0. -1.
         21    1    1    2  503  501  0.57643434272E+02  0.14511221977E+03 -0.72411357665E+02  0.17211544544E+03  0.00000000000E+00 0. -1.
          2    1    1    2  501    0 -0.57643434272E+02 -0.14511221977E+03 -0.53611794914E+03  0.55839303115E+03  0.00000000000E+00 0. -1.
<mgrwt>
<rscale>  2 0.15614199E+03</rscale>
<asrwt>0</asrwt>
<pdfrwt beam="1">  1       21 0.93830134E-02 0.15614199E+03</pdfrwt>
<pdfrwt beam="2">  1        2 0.10300290E+00 0.15614199E+03</pdfrwt>
<totfact> 0.50728439E+04</totfact>
</mgrwt>
</event>
<event>
 4    1  0.5134057E+003  0.1423759E+03  0.7546771E-02  0.1210167E+00
         21   -1    0    0  501  502  0.00000000000E+00  0.00000000000E+00  0.76639560122E+03  0.76639560122E+03  0.00000000000E+00 0. -1.
         -4   -1    0    0    0  501 -0.00000000000E+00 -0.00000000000E+00 -0.18701501228E+03  0.18701501228E+03  0.00000000000E+00 0. -1.
         21    1    1    2  503  502  0.10086491006E+03 -0.10048467931E+03  0.73140074421E+03  0.74512948505E+03  0.00000000000E+00 0. -1.
         -4    1    1    2    0  503 -0.10086491006E+03  0.10048467931E+03 -0.15202015528E+03  0.20828112845E+03  0.00000000000E+00 0. -1.
<mgrwt>
<rscale>  2 0.14237591E+03</rscale>
<asrwt>0</asrwt>
<pdfrwt beam="1">  1       21 0.11790701E+00 0.14237591E+03</pdfrwt>
<pdfrwt beam="2">  1       -4 0.28771541E-01 0.14237591E+03</pdfrwt>
<totfact> 0.26940413E+02</totfact>
</mgrwt>
</event>
