<event>
 4    1  0.6024238E+003  0.1458333E+03  0.7546771E-02  0.1205689E+00
         21   -1    0    0  503  501  0.00000000000E+00  0.00000000000E+00  0.32953258157E+03  0.32953258157E+03  0.00000000000E+00 0. -1.
         21   -1    0    0  504  502 -0.00000000000E+00 -0.00000000000E+00 -0.86477323189E+02  0.86477323189E+02  0.00000000000E+00 0. -1.
         21    1    1    2  503  502  0.40012463991E+01  0.14577839620E+03  0.22629712627E+03  0.26921690164E+03  0.00000000000E+00 0. -1.
         21    1    1    2  504  501 -0.40012463991E+01 -0.14577839620E+03  0.16758132116E+02  0.14679300312E+03  0.00000000000E+00 0. -1.
<mgrwt>
<rscale>  2 0.14583330E+03</rscale>
<asrwt>0</asrwt>
<pdfrwt beam="1">  1       21 0.50697320E-01 0.14583330E+03</pdfrwt>
<pdfrwt beam="2">  1       21 0.13304204E-01 0.14583330E+03</pdfrwt>
<totfact> 0.18301732E+05</totfact>
</mgrwt>
</event>
<event>
 4    1  0.6024238E+003  0.1435340E+03  0.7546771E-02  0.1208651E+00
         21   -1    0    0  504  501  0.00000000000E+00  0.00000000000E+00  0.91248543838E+02  0.91248543838E+02  0.00000000000E+00 0. -1.
         21   -1    0    0  501  502 -0.00000000000E+00 -0.00000000000E+00 -0.22599560591E+03  0.22599560591E+03  0.00000000000E+00 0. -1.
         21    1    1    2  503  502  0.12849030994E+03  0.63970670111E+02 -0.72284117604E+02  0.16070780952E+03  0.00000000000E+00 0. -1.
         21    1    1    2  504  503 -0.12849030994E+03 -0.63970670111E+02 -0.62462944471E+02  0.15653634023E+03  0.00000000000E+00 0. -1.
<mgrwt>
<rscale>  2 0.14353399E+03</rscale>
<asrwt>0</asrwt>
<pdfrwt beam="1">  1       21 0.14038238E-01 0.14353399E+03</pdfrwt>
<pdfrwt beam="2">  1       21 0.34768554E-01 0.14353399E+03</pdfrwt>
<totfact> 0.35612726E+05</totfact>
</mgrwt>
</event>
<event>
 4    1  0.6024238E+003  0.1637814E+03  0.7546771E-02  0.1184493E+00
         21   -1    0    0  504  501  0.00000000000E+00  0.00000000000E+00  0.17443755438E+02  0.17443755438E+02  0.00000000000E+00 0.  1.
         21   -1    0    0  503  502 -0.00000000000E+00 -0.00000000000E+00 -0.16085952902E+04  0.16085952902E+04  0.00000000000E+00 0.  1.
         21    1    1    2  503  501 -0.15306967688E+03  0.58258096203E+02 -0.62496812493E+03  0.64607235581E+03  0.00000000000E+00 0.  1.
         21    1    1    2  504  502  0.15306967688E+03 -0.58258096203E+02 -0.96618340985E+03  0.97996668985E+03  0.00000000000E+00 0.  1.
<mgrwt>
<rscale>  2 0.16378135E+03</rscale>
<asrwt>0</asrwt>
<pdfrwt beam="1">  1       21 0.26836529E-02 0.16378135E+03</pdfrwt>
<pdfrwt beam="2">  1       21 0.24747636E+00 0.16378135E+03</pdfrwt>
<totfact> 0.53548833E+04</totfact>
</mgrwt>
</event>
<event>
 4    1  0.6024238E+003  0.1180553E+03  0.7546771E-02  0.1246340E+00
         21   -1    0    0  502  501  0.00000000000E+00  0.00000000000E+00  0.10417551335E+03  0.10417551335E+03  0.00000000000E+00 0.  1.
         21   -1    0    0  503  502 -0.00000000000E+00 -0.00000000000E+00 -0.27972907695E+03  0.27972907695E+03  0.00000000000E+00 0.  1.
         21    1    1    2  503  504 -0.54538857208E+02  0.10470232357E+03 -0.22642636301E+03  0.25535457970E+03  0.00000000000E+00 0.  1.
         21    1    1    2  504  501  0.54538857208E+02 -0.10470232357E+03  0.50872799406E+02  0.12855001061E+03  0.00000000000E+00 0.  1.
<mgrwt>
<rscale>  2 0.11805534E+03</rscale>
<asrwt>0</asrwt>
<pdfrwt beam="1">  1       21 0.16027002E-01 0.11805534E+03</pdfrwt>
<pdfrwt beam="2">  1       21 0.43035242E-01 0.11805534E+03</pdfrwt>
<totfact> 0.18442263E+05</totfact>
</mgrwt>
</event>
<event>
 4    1  0.6024238E+003  0.1002082E+03  0.7546771E-02  0.1279859E+00
         21   -1    0    0  503  501  0.00000000000E+00  0.00000000000E+00  0.14853570188E+04  0.14853570188E+04  0.00000000000E+00 0. -1.
         21   -1    0    0  501  502 -0.00000000000E+00 -0.00000000000E+00 -0.22154725205E+03  0.22154725205E+03  0.00000000000E+00 0. -1.
         21    1    1    2  503  504  0.64749436356E+02 -0.76480055151E+02  0.14722347070E+04  0.14756411219E+04  0.00000000000E+00 0. -1.
         21    1    1    2  504  502 -0.64749436356E+02  0.76480055151E+02 -0.20842494022E+03  0.23126314892E+03  0.00000000000E+00 0. -1.
<mgrwt>
<rscale>  2 0.10020822E+03</rscale>
<asrwt>0</asrwt>
<pdfrwt beam="1">  1       21 0.22851646E+00 0.10020822E+03</pdfrwt>
<pdfrwt beam="2">  1       21 0.34084194E-01 0.10020822E+03</pdfrwt>
<totfact> 0.85955548E+02</totfact>
</mgrwt>
</event>
<event>
 4    1  0.6024238E+003  0.1509679E+03  0.7546771E-02  0.1199289E+00
         21   -1    0    0  504  501  0.00000000000E+00  0.00000000000E+00  0.29958366306E+03  0.29958366306E+03  0.00000000000E+00 0.  1.
         21   -1    0    0  503  502 -0.00000000000E+00 -0.00000000000E+00 -0.28638508031E+03  0.28638508031E+03  0.00000000000E+00 0. -1.
         21    1    1    2  503  501 -0.67321604494E+01  0.15081768498E+03 -0.24447236569E+03  0.28732913823E+03  0.00000000000E+00 0. -1.
         21    1    1    2  504  502  0.67321604494E+01 -0.15081768498E+03  0.25767094845E+03  0.29863960514E+03  0.00000000000E+00 0.  1.
<mgrwt>
<rscale>  2 0.15096786E+03</rscale>
<asrwt>0</asrwt>
<pdfrwt beam="1">  1       21 0.46089794E-01 0.15096786E+03</pdfrwt>
<pdfrwt beam="2">  1       21 0.44059243E-01 0.15096786E+03</pdfrwt>
<totfact> 0.22894521E+04</totfact>
</mgrwt>
</event>
<event>
 4    1  0.6024238E+003  0.1727798E+03  0.7546771E-02  0.1174980E+00
         21   -1    0    0  503  501  0.00000000000E+00  0.00000000000E+00  0.20296092403E+03  0.20296092403E+03  0.00000000000E+00 0.  1.
         21   -1    0    0  501  502 -0.00000000000E+00 -0.00000000000E+00 -0.43828555990E+03  0.43828555990E+03  0.00000000000E+00 0.  1.
         21    1    1    2  503  504  0.17231428873E+03  0.12673937156E+02  0.14368093414E+03  0.22471549484E+03  0.00000000000E+00 0.  1.
         21    1    1    2  504  502 -0.17231428873E+03 -0.12673937156E+02 -0.37900557000E+03  0.41653098909E+03  0.00000000000E+00 0.  1.
<mgrwt>
<rscale>  2 0.17277975E+03</rscale>
<asrwt>0</asrwt>
<pdfrwt beam="1">  1       21 0.31224758E-01 0.17277975E+03</pdfrwt>
<pdfrwt beam="2">  1       21 0.67428548E-01 0.17277975E+03</pdfrwt>
<totfact> 0.20067436E+04</totfact>
</mgrwt>
</event>
<event>
 4    1  0.6024238E+003  0.2609477E+03  0.7546771E-02  0.1106575E+00
         21   -1    0    0  504  501  0.00000000000E+00  0.00000000000E+00  0.18389704964E+03  0.18389704964E+03  0.00000000000E+00 0. -1.
         21   -1    0    0  503  502 -0.00000000000E+00 -0.00000000000E+00 -0.74315107163E+03  0.74315107163E+03  0.00000000000E+00 0. -1.
         21    1    1    2  503  501  0.20348515122E+02  0.26015309765E+03  0.48704173905E+02  0.26545393732E+03  0.00000000000E+00 0. -1.
         21    1    1    2  504  502 -0.20348515122E+02 -0.26015309765E+03 -0.60795819589E+03  0.66159418395E+03  0.00000000000E+00 0. -1.
<mgrwt>
<rscale>  2 0.26094769E+03</rscale>
<asrwt>0</asrwt>
<pdfrwt beam="1">  1       21 0.28291854E-01 0.26094769E+03</pdfrwt>
<pdfrwt beam="2">  1       21 0.11433093E+00 0.26094769E+03</pdfrwt>
<totfact> 0.67818641E+03</totfact>
</mgrwt>
</event>
<event>
 4    1  0.6024238E+003  0.1186892E+03  0.7546771E-02  0.1245275E+00
         21   -1    0    0  503  501  0.00000000000E+00  0.00000000000E+00  0.33204413316E+02  0.33204413316E+02  0.00000000000E+00 0. -1.
         21   -1    0    0  504  502 -0.00000000000E+00 -0.00000000000E+00 -0.90299978611E+03  0.90299978611E+03  0.00000000000E+00 0. -1.
         21    1    1    2  503  502  0.11848019619E+03 -0.70397794220E+01 -0.94058823214E+02  0.15144034339E+03  0.00000000000E+00 0. -1.
         21    1    1    2  504  501 -0.11848019619E+03  0.70397794220E+01 -0.77573654958E+03  0.78476385603E+03  0.00000000000E+00 0. -1.
<mgrwt>
<rscale>  2 0.11868915E+03</rscale>
<asrwt>0</asrwt>
<pdfrwt beam="1">  1       21 0.51083713E-02 0.11868915E+03</pdfrwt>
<pdfrwt beam="2">  1       21 0.13892304E+00 0.11868915E+03</pdfrwt>
<totfact> 0.98197168E+04</totfact>
</mgrwt>
</event>
<event>
 4    1  0.6024238E+003  0.1033830E+03  0.7546771E-02  0.1273339E+00
         21   -1    0    0  503  501  0.00000000000E+00  0.00000000000E+00  0.14748321119E+04  0.14748321119E+04  0.00000000000E+00 0. -1.
         21   -1    0    0  504  502 -0.00000000000E+00 -0.00000000000E+00 -0.85608695694E+01  0.85608695694E+01  0.00000000000E+00 0. -1.
         21    1    1    2  503  502 -0.57652768852E+01  0.10322209019E+03  0.44256529925E+03  0.45448001323E+03  0.00000000000E+00 0. -1.
         21    1    1    2  504  501  0.57652768852E+01 -0.10322209019E+03  0.10237059431E+04  0.10289129683E+04  0.00000000000E+00 0. -1.
<mgrwt>
<rscale>  2 0.10338297E+03</rscale>
<asrwt>0</asrwt>
<pdfrwt beam="1">  1       21 0.22689705E+00 0.10338297E+03</pdfrwt>
<pdfrwt beam="2">  1       21 0.13170580E-02 0.10338297E+03</pdfrwt>
<totfact> 0.23326449E+05</totfact>
</mgrwt>
</event>
<event>
 4    1  0.6024238E+003  0.1011392E+03  0.7546771E-02  0.1277918E+00
         21   -1    0    0  502  501  0.00000000000E+00  0.00000000000E+00  0.87001025059E+02  0.87001025059E+02  0.00000000000E+00 0. -1.
         21   -1    0    0  503  502 -0.00000000000E+00 -0.00000000000E+00 -0.13295646742E+03  0.13295646742E+03  0.00000000000E+00 0. -1.
         21    1    1    2  503  504 -0.97557986434E+02 -0.26675313706E+02 -0.60384898185E+02  0.11779418070E+03  0.00000000000E+00 0. -1.
         21    1    1    2  504  501  0.97557986434E+02  0.26675313706E+02  0.14429455824E+02  0.10216331178E+03  0.00000000000E+00 0. -1.
<mgrwt>
<rscale>  2 0.10113918E+03</rscale>
<asrwt>0</asrwt>
<pdfrwt beam="1">  1       21 0.13384773E-01 0.10113918E+03</pdfrwt>
<pdfrwt beam="2">  1       21 0.20454841E-01 0.10113918E+03</pdfrwt>
<totfact> 0.10640494E+06</totfact>
</mgrwt>
</event>
<event>
 4    1  0.6024238E+003  0.1035006E+03  0.7546771E-02  0.1273102E+00
         21   -1    0    0  504  501  0.00000000000E+00  0.00000000000E+00  0.66883044610E+03  0.66883044610E+03  0.00000000000E+00 0. -1.
         21   -1    0    0  503  502 -0.00000000000E+00 -0.00000000000E+00 -0.34616423996E+02  0.34616423996E+02  0.00000000000E+00 0. -1.
         21    1    1    2  503  501 -0.14488763960E+02  0.10248142649E+03  0.59287952557E+02  0.11927878427E+03  0.00000000000E+00 0. -1.
         21    1    1    2  504  502  0.14488763960E+02 -0.10248142649E+03  0.57492606955E+03  0.58416808583E+03  0.00000000000E+00 0. -1.
<mgrwt>
<rscale>  2 0.10350057E+03</rscale>
<asrwt>0</asrwt>
<pdfrwt beam="1">  1       21 0.10289698E+00 0.10350057E+03</pdfrwt>
<pdfrwt beam="2">  1       21 0.53256042E-02 0.10350057E+03</pdfrwt>
<totfact> 0.19102969E+05</totfact>
</mgrwt>
</event>
<event>
 4    1  0.6024238E+003  0.1524707E+03  0.7546771E-02  0.1197469E+00
         21   -1    0    0  504  501  0.00000000000E+00  0.00000000000E+00  0.22824603532E+03  0.22824603532E+03  0.00000000000E+00 0. -1.
         21   -1    0    0  503  502 -0.00000000000E+00 -0.00000000000E+00 -0.11406520832E+03  0.11406520832E+03  0.00000000000E+00 0. -1.
         21    1    1    2  503  501  0.54347175881E+02 -0.14245597384E+03  0.10851201073E+01  0.15247457983E+03  0.00000000000E+00 0. -1.
         21    1    1    2  504  502 -0.54347175881E+02  0.14245597384E+03  0.11309570689E+03  0.18983666381E+03  0.00000000000E+00 0. -1.
<mgrwt>
<rscale>  2 0.15247072E+03</rscale>
<asrwt>0</asrwt>
<pdfrwt beam="1">  1       21 0.35114775E-01 0.15247072E+03</pdfrwt>
<pdfrwt beam="2">  1       21 0.17548494E-01 0.15247072E+03</pdfrwt>
<totfact> 0.23249386E+05</totfact>
</mgrwt>
</event>
<event>
 4    1  0.6024238E+003  0.1389451E+03  0.7546771E-02  0.1214756E+00
         21   -1    0    0  503  501  0.00000000000E+00  0.00000000000E+00  0.58503069639E+02  0.58503069639E+02  0.00000000000E+00 0. -1.
         21   -1    0    0  504  502 -0.00000000000E+00 -0.00000000000E+00 -0.18488580094E+04  0.18488580094E+04  0.00000000000E+00 0.  1.
         21    1    1    2  503  502  0.79711081571E+02  0.11380632609E+03 -0.17595688053E+04  0.17650462082E+04  0.00000000000E+00 0.  1.
         21    1    1    2  504  501 -0.79711081571E+02 -0.11380632609E+03 -0.30786134409E+02  0.14231487082E+03  0.00000000000E+00 0. -1.
<mgrwt>
<rscale>  2 0.13894508E+03</rscale>
<asrwt>0</asrwt>
<pdfrwt beam="1">  1       21 0.90004721E-02 0.13894508E+03</pdfrwt>
<pdfrwt beam="2">  1       21 0.28443970E+00 0.13894508E+03</pdfrwt>
<totfact> 0.43932267E+03</totfact>
</mgrwt>
</event>
<event>
 4    1  0.6024238E+003  0.1034938E+03  0.7546771E-02  0.1273116E+00
         21   -1    0    0  504  501  0.00000000000E+00  0.00000000000E+00  0.68981599642E+03  0.68981599642E+03  0.00000000000E+00 0. -1.
         21   -1    0    0  503  502 -0.00000000000E+00 -0.00000000000E+00 -0.24445242223E+02  0.24445242223E+02  0.00000000000E+00 0. -1.
         21    1    1    2  503  501  0.10251164035E+03  0.14224484045E+02  0.54839151779E+03  0.55807188528E+03  0.00000000000E+00 0. -1.
         21    1    1    2  504  502 -0.10251164035E+03 -0.14224484045E+02  0.11697923641E+03  0.15618935336E+03  0.00000000000E+00 0. -1.
<mgrwt>
<rscale>  2 0.10349383E+03</rscale>
<asrwt>0</asrwt>
<pdfrwt beam="1">  1       21 0.10612552E+00 0.10349383E+03</pdfrwt>
<pdfrwt beam="2">  1       21 0.37608070E-02 0.10349383E+03</pdfrwt>
<totfact> 0.31663689E+05</totfact>
</mgrwt>
</event>
<event>
 4    1  0.6024238E+003  0.1173514E+03  0.7546771E-02  0.1247531E+00
         21   -1    0    0  502  501  0.00000000000E+00  0.00000000000E+00  0.13006178653E+04  0.13006178653E+04  0.00000000000E+00 0. -1.
         21   -1    0    0  503  502 -0.00000000000E+00 -0.00000000000E+00 -0.18916638917E+02  0.18916638917E+02  0.00000000000E+00 0.  1.
         21    1    1    2  503  504 -0.11531629562E+03  0.21760205551E+02  0.20307908388E+03  0.23454737025E+03  0.00000000000E+00 0.  1.
         21    1    1    2  504  501  0.11531629562E+03 -0.21760205551E+02  0.10786221425E+04  0.10849871339E+04  0.00000000000E+00 0. -1.
<mgrwt>
<rscale>  2 0.11735141E+03</rscale>
<asrwt>0</asrwt>
<pdfrwt beam="1">  1       21 0.20009499E+00 0.11735141E+03</pdfrwt>
<pdfrwt beam="2">  1       21 0.29102532E-02 0.11735141E+03</pdfrwt>
<totfact> 0.93664380E+04</totfact>
</mgrwt>
</event>
<event>
 4    1  0.6024238E+003  0.1000198E+03  0.7546771E-02  0.1280254E+00
         21   -1    0    0  503  501  0.00000000000E+00  0.00000000000E+00  0.19162675487E+03  0.19162675487E+03  0.00000000000E+00 0. -1.
         21   -1    0    0  501  502 -0.00000000000E+00 -0.00000000000E+00 -0.15618939706E+03  0.15618939706E+03  0.00000000000E+00 0. -1.
         21    1    1    2  503  504  0.29659804456E+02 -0.95520924610E+02  0.15961699234E+03  0.18836543016E+03  0.00000000000E+00 0. -1.
         21    1    1    2  504  502 -0.29659804456E+02  0.95520924610E+02 -0.12417963453E+03  0.15945072176E+03  0.00000000000E+00 0. -1.
<mgrwt>
<rscale>  2 0.10001975E+03</rscale>
<asrwt>0</asrwt>
<pdfrwt beam="1">  1       21 0.29481039E-01 0.10001975E+03</pdfrwt>
<pdfrwt beam="2">  1       21 0.24029138E-01 0.10001975E+03</pdfrwt>
<totfact> 0.18496997E+05</totfact>
</mgrwt>
</event>
<event>
 4    1  0.6024238E+003  0.1143332E+03  0.7546771E-02  0.1252750E+00
         21   -1    0    0  504  501  0.00000000000E+00  0.00000000000E+00  0.65288392096E+02  0.65288392096E+02  0.00000000000E+00 0.  1.
         21   -1    0    0  503  502 -0.00000000000E+00 -0.00000000000E+00 -0.21903577779E+03  0.21903577779E+03  0.00000000000E+00 0.  1.
         21    1    1    2  503  501 -0.10011156918E+03 -0.55224493253E+02 -0.35207655088E+02  0.11963130826E+03  0.00000000000E+00 0.  1.
         21    1    1    2  504  502  0.10011156918E+03  0.55224493253E+02 -0.11853973060E+03  0.16469286163E+03  0.00000000000E+00 0.  1.
<mgrwt>
<rscale>  2 0.11433316E+03</rscale>
<asrwt>0</asrwt>
<pdfrwt beam="1">  1       21 0.10044368E-01 0.11433316E+03</pdfrwt>
<pdfrwt beam="2">  1       21 0.33697812E-01 0.11433316E+03</pdfrwt>
<totfact> 0.68647685E+05</totfact>
</mgrwt>
</event>
<event>
 4    1  0.6024238E+003  0.1753821E+03  0.7546771E-02  0.1172349E+00
         21   -1    0    0  502  501  0.00000000000E+00  0.00000000000E+00  0.15397304336E+03  0.15397304336E+03  0.00000000000E+00 0. -1.
         21   -1    0    0  504  502 -0.00000000000E+00 -0.00000000000E+00 -0.44525105398E+03  0.44525105398E+03  0.00000000000E+00 0. -1.
         21    1    1    2  503  501  0.11144231066E+03 -0.13542340077E+03  0.76828999437E+02  0.19147214219E+03  0.00000000000E+00 0. -1.
         21    1    1    2  504  503 -0.11144231066E+03  0.13542340077E+03 -0.36810701005E+03  0.40775195515E+03  0.00000000000E+00 0. -1.
<mgrwt>
<rscale>  2 0.17538211E+03</rscale>
<asrwt>0</asrwt>
<pdfrwt beam="1">  1       21 0.23688161E-01 0.17538211E+03</pdfrwt>
<pdfrwt beam="2">  1       21 0.68500162E-01 0.17538211E+03</pdfrwt>
<totfact> 0.32921716E+04</totfact>
</mgrwt>
</event>
<event>
 4    1  0.6024238E+003  0.1148774E+03  0.7546771E-02  0.1251795E+00
         21   -1    0    0  503  501  0.00000000000E+00  0.00000000000E+00  0.87223717846E+03  0.87223717846E+03  0.00000000000E+00 0.  1.
         21   -1    0    0  504  502 -0.00000000000E+00 -0.00000000000E+00 -0.29434520102E+02  0.29434520102E+02  0.00000000000E+00 0.  1.
         21    1    1    2  503  502 -0.11466892695E+03 -0.69176693359E+01  0.10711253361E+03  0.15706658401E+03  0.00000000000E+00 0.  1.
         21    1    1    2  504  501  0.11466892695E+03  0.69176693359E+01  0.73569012475E+03  0.74460511455E+03  0.00000000000E+00 0.  1.
<mgrwt>
<rscale>  2 0.11487740E+03</rscale>
<asrwt>0</asrwt>
<pdfrwt beam="1">  1       21 0.13419032E+00 0.11487740E+03</pdfrwt>
<pdfrwt beam="2">  1       21 0.45283884E-02 0.11487740E+03</pdfrwt>
<totfact> 0.13130708E+05</totfact>
</mgrwt>
</event>
<event>
 4    1  0.6024238E+003  0.1003939E+03  0.7546771E-02  0.1279470E+00
         21   -1    0    0  503  501  0.00000000000E+00  0.00000000000E+00  0.13567384115E+04  0.13567384115E+04  0.00000000000E+00 0.  1.
         21   -1    0    0  504  502 -0.00000000000E+00 -0.00000000000E+00 -0.23901038114E+03  0.23901038114E+03  0.00000000000E+00 0.  1.
         21    1    1    2  503  502 -0.91353120781E+02  0.41635846628E+02  0.13442409730E+04  0.13479846920E+04  0.00000000000E+00 0.  1.
         21    1    1    2  504  501  0.91353120781E+02 -0.41635846628E+02 -0.22651294261E+03  0.24776410065E+03  0.00000000000E+00 0.  1.
<mgrwt>
<rscale>  2 0.10039391E+03</rscale>
<asrwt>0</asrwt>
<pdfrwt beam="1">  1       21 0.20872898E+00 0.10039391E+03</pdfrwt>
<pdfrwt beam="2">  1       21 0.36770829E-01 0.10039391E+03</pdfrwt>
<totfact> 0.97064531E+02</totfact>
</mgrwt>
</event>
<event>
 4    1  0.6024238E+003  0.1043432E+03  0.7546771E-02  0.1271419E+00
         21   -1    0    0  504  501  0.00000000000E+00  0.00000000000E+00  0.22716750508E+02  0.22716750508E+02  0.00000000000E+00 0. -1.
         21   -1    0    0  503  502 -0.00000000000E+00 -0.00000000000E+00 -0.58193069183E+03  0.58193069183E+03  0.00000000000E+00 0.  1.
         21    1    1    2  503  501  0.10077507278E+03  0.27053510413E+02 -0.15262736760E+03  0.18488542685E+03  0.00000000000E+00 0. -1.
         21    1    1    2  504  502 -0.10077507278E+03 -0.27053510413E+02 -0.40658657372E+03  0.41976201549E+03  0.00000000000E+00 0.  1.
<mgrwt>
<rscale>  2 0.10434322E+03</rscale>
<asrwt>0</asrwt>
<pdfrwt beam="1">  1       21 0.34948849E-02 0.10434322E+03</pdfrwt>
<pdfrwt beam="2">  1       21 0.89527793E-01 0.10434322E+03</pdfrwt>
<totfact> 0.52921879E+05</totfact>
</mgrwt>
</event>
<event>
 4    1  0.6024238E+003  0.1283183E+03  0.7546771E-02  0.1229973E+00
         21   -1    0    0  503  501  0.00000000000E+00  0.00000000000E+00  0.27929960672E+03  0.27929960672E+03  0.00000000000E+00 0.  1.
         21   -1    0    0  501  502 -0.00000000000E+00 -0.00000000000E+00 -0.22450950026E+03  0.22450950026E+03  0.00000000000E+00 0.  1.
         21    1    1    2  503  504 -0.12625803952E+03 -0.22901620025E+02  0.24371254971E+03  0.27542945309E+03  0.00000000000E+00 0.  1.
         21    1    1    2  504  502  0.12625803952E+03  0.22901620025E+02 -0.18892244326E+03  0.22837965389E+03  0.00000000000E+00 0.  1.
<mgrwt>
<rscale>  2 0.12831826E+03</rscale>
<asrwt>0</asrwt>
<pdfrwt beam="1">  1       21 0.42969170E-01 0.12831826E+03</pdfrwt>
<pdfrwt beam="2">  1       21 0.34539923E-01 0.12831826E+03</pdfrwt>
<totfact> 0.43516642E+04</totfact>
</mgrwt>
</event>
<event>
 4    1  0.6024238E+003  0.1125278E+03  0.7546771E-02  0.1255959E+00
         21   -1    0    0  504  501  0.00000000000E+00  0.00000000000E+00  0.84456404323E+03  0.84456404323E+03  0.00000000000E+00 0. -1.
         21   -1    0    0  501  502 -0.00000000000E+00 -0.00000000000E+00 -0.26060019248E+02  0.26060019248E+02  0.00000000000E+00 0. -1.
         21    1    1    2  503  502 -0.11250285716E+03  0.23703659907E+01  0.12557150059E+03  0.16861409568E+03  0.00000000000E+00 0. -1.
         21    1    1    2  504  503  0.11250285716E+03 -0.23703659907E+01  0.69293252339E+03  0.70200996680E+03  0.00000000000E+00 0. -1.
<mgrwt>
<rscale>  2 0.11252783E+03</rscale>
<asrwt>0</asrwt>
<pdfrwt beam="1">  1       21 0.12993291E+00 0.11252783E+03</pdfrwt>
<pdfrwt beam="2">  1       21 0.40092344E-02 0.11252783E+03</pdfrwt>
<totfact> 0.17432842E+05</totfact>
</mgrwt>
</event>
<event>
 4    1  0.6024238E+003  0.1180946E+03  0.7546771E-02  0.1246274E+00
         21   -1    0    0  503  501  0.00000000000E+00  0.00000000000E+00  0.11418732496E+04  0.11418732496E+04  0.00000000000E+00 0. -1.
         21   -1    0    0  504  502 -0.00000000000E+00 -0.00000000000E+00 -0.12238285992E+02  0.12238285992E+02  0.00000000000E+00 0. -1.
         21    1    1    2  503  502 -0.53981439621E+02 -0.10503497145E+03  0.59075369842E+03  0.60244192521E+03  0.00000000000E+00 0. -1.
         21    1    1    2  504  501  0.53981439621E+02  0.10503497145E+03  0.53888126523E+03  0.55166961042E+03  0.00000000000E+00 0. -1.
<mgrwt>
<rscale>  2 0.11809463E+03</rscale>
<asrwt>0</asrwt>
<pdfrwt beam="1">  1       21 0.17567272E+00 0.11809463E+03</pdfrwt>
<pdfrwt beam="2">  1       21 0.18828141E-02 0.11809463E+03</pdfrwt>
<totfact> 0.27296564E+05</totfact>
</mgrwt>
</event>
<event>
 4    1  0.6024238E+003  0.1271783E+03  0.7546771E-02  0.1231704E+00
         21   -1    0    0  504  501  0.00000000000E+00  0.00000000000E+00  0.83640168869E+03  0.83640168869E+03  0.00000000000E+00 0. -1.
         21   -1    0    0  503  502 -0.00000000000E+00 -0.00000000000E+00 -0.19358005845E+02  0.19358005845E+02  0.00000000000E+00 0. -1.
         21    1    1    2  503  501  0.20205569899E+01  0.12716221751E+03  0.42228685354E+03  0.44102210703E+03  0.00000000000E+00 0. -1.
         21    1    1    2  504  502 -0.20205569899E+01 -0.12716221751E+03  0.39475682930E+03  0.41473758751E+03  0.00000000000E+00 0. -1.
<mgrwt>
<rscale>  2 0.12717827E+03</rscale>
<asrwt>0</asrwt>
<pdfrwt beam="1">  1       21 0.12867715E+00 0.12717827E+03</pdfrwt>
<pdfrwt beam="2">  1       21 0.29781554E-02 0.12717827E+03</pdfrwt>
<totfact> 0.28984008E+05</totfact>
</mgrwt>
</event>
<event>
 4    1  0.6024238E+003  0.1001999E+03  0.7546771E-02  0.1279876E+00
         21   -1    0    0  503  501  0.00000000000E+00  0.00000000000E+00  0.24950352897E+02  0.24950352897E+02  0.00000000000E+00 0.  1.
         21   -1    0    0  504  502 -0.00000000000E+00 -0.00000000000E+00 -0.46108028067E+03  0.46108028067E+03  0.00000000000E+00 0.  1.
         21    1    1    2  503  502  0.83560694274E+02  0.55295903199E+02 -0.30475931329E+03  0.32080876792E+03  0.00000000000E+00 0.  1.
         21    1    1    2  504  501 -0.83560694274E+02 -0.55295903199E+02 -0.13137061449E+03  0.16522186565E+03  0.00000000000E+00 0.  1.
<mgrwt>
<rscale>  2 0.10019993E+03</rscale>
<asrwt>0</asrwt>
<pdfrwt beam="1">  1       21 0.38385160E-02 0.10019993E+03</pdfrwt>
<pdfrwt beam="2">  1       21 0.70935425E-01 0.10019993E+03</pdfrwt>
<totfact> 0.76008072E+05</totfact>
</mgrwt>
</event>
<event>
 4    1  0.6024238E+003  0.1072605E+03  0.7546771E-02  0.1265729E+00
         21   -1    0    0  504  501  0.00000000000E+00  0.00000000000E+00  0.12237646996E+04  0.12237646996E+04  0.00000000000E+00 0.  1.
         21   -1    0    0  503  502 -0.00000000000E+00 -0.00000000000E+00 -0.24846093610E+02  0.24846093610E+02  0.00000000000E+00 0. -1.
         21    1    1    2  503  501  0.28792209165E+02 -0.10332386553E+03  0.10916812781E+04  0.10969379315E+04  0.00000000000E+00 0.  1.
         21    1    1    2  504  502 -0.28792209165E+02  0.10332386553E+03  0.10723732783E+03  0.15167286171E+03  0.00000000000E+00 0. -1.
<mgrwt>
<rscale>  2 0.10726049E+03</rscale>
<asrwt>0</asrwt>
<pdfrwt beam="1">  1       21 0.18827145E+00 0.10726049E+03</pdfrwt>
<pdfrwt beam="2">  1       21 0.38224769E-02 0.10726049E+03</pdfrwt>
<totfact> 0.71718843E+04</totfact>
</mgrwt>
</event>
<event>
 4    1  0.6024238E+003  0.1571294E+03  0.7546771E-02  0.1191976E+00
         21   -1    0    0  502  501  0.00000000000E+00  0.00000000000E+00  0.14732087344E+03  0.14732087344E+03  0.00000000000E+00 0.  1.
         21   -1    0    0  503  502 -0.00000000000E+00 -0.00000000000E+00 -0.54907545625E+03  0.54907545625E+03  0.00000000000E+00 0.  1.
         21    1    1    2  503  504  0.60261579209E+02  0.14511442007E+03 -0.49111169054E+03  0.51563586515E+03  0.00000000000E+00 0.  1.
         21    1    1    2  504  501 -0.60261579209E+02 -0.14511442007E+03  0.89357107721E+02  0.18076046454E+03  0.00000000000E+00 0.  1.
<mgrwt>
<rscale>  2 0.15712941E+03</rscale>
<asrwt>0</asrwt>
<pdfrwt beam="1">  1       21 0.22664749E-01 0.15712941E+03</pdfrwt>
<pdfrwt beam="2">  1       21 0.84473148E-01 0.15712941E+03</pdfrwt>
<totfact> 0.22673904E+04</totfact>
</mgrwt>
</event>
<event>
 4    1  0.6024238E+003  0.1185250E+03  0.7546771E-02  0.1245550E+00
         21   -1    0    0  504  501  0.00000000000E+00  0.00000000000E+00  0.26115685519E+04  0.26115685519E+04  0.00000000000E+00 0. -1.
         21   -1    0    0  501  502 -0.00000000000E+00 -0.00000000000E+00 -0.12045745806E+02  0.12045745806E+02  0.00000000000E+00 0. -1.
         21    1    1    2  503  502  0.30606795353E+02  0.11450496982E+03  0.32386571449E+03  0.34487267949E+03  0.00000000000E+00 0. -1.
         21    1    1    2  504  503 -0.30606795353E+02 -0.11450496982E+03  0.22756570916E+04  0.22787416182E+04  0.00000000000E+00 0. -1.
<mgrwt>
<rscale>  2 0.11852495E+03</rscale>
<asrwt>0</asrwt>
<pdfrwt beam="1">  1       21 0.40177933E+00 0.11852495E+03</pdfrwt>
<pdfrwt beam="2">  1       21 0.18531937E-02 0.11852495E+03</pdfrwt>
<totfact> 0.13286643E+04</totfact>
</mgrwt>
</event>
<event>
 4    1  0.6024238E+003  0.1198088E+03  0.7546771E-02  0.1243413E+00
         21   -1    0    0  503  501  0.00000000000E+00  0.00000000000E+00  0.15269314860E+03  0.15269314860E+03  0.00000000000E+00 0. -1.
         21   -1    0    0  504  502 -0.00000000000E+00 -0.00000000000E+00 -0.11359726944E+03  0.11359726944E+03  0.00000000000E+00 0. -1.
         21    1    1    2  503  502 -0.38443659847E+02  0.11347345116E+03 -0.35744789365E+02  0.12502731328E+03  0.00000000000E+00 0. -1.
         21    1    1    2  504  501  0.38443659847E+02 -0.11347345116E+03  0.74840668524E+02  0.14126310476E+03  0.00000000000E+00 0. -1.
<mgrwt>
<rscale>  2 0.11980876E+03</rscale>
<asrwt>0</asrwt>
<pdfrwt beam="1">  1       21 0.23491254E-01 0.11980876E+03</pdfrwt>
<pdfrwt beam="2">  1       21 0.17476503E-01 0.11980876E+03</pdfrwt>
<totfact> 0.50978193E+05</totfact>
</mgrwt>
</event>
<event>
 4    1  0.6024238E+003  0.1369294E+03  0.7546771E-02  0.1217521E+00
         21   -1    0    0  502  501  0.00000000000E+00  0.00000000000E+00  0.39565376156E+03  0.39565376156E+03  0.00000000000E+00 0. -1.
         21   -1    0    0  504  502 -0.00000000000E+00 -0.00000000000E+00 -0.66356212366E+02  0.66356212366E+02  0.00000000000E+00 0. -1.
         21    1    1    2  503  501 -0.41868566494E+02 -0.13037132051E+03  0.28815296104E+03  0.31903257988E+03  0.00000000000E+00 0. -1.
         21    1    1    2  504  503  0.41868566494E+02  0.13037132051E+03  0.41144588154E+02  0.14297739404E+03  0.00000000000E+00 0. -1.
<mgrwt>
<rscale>  2 0.13692939E+03</rscale>
<asrwt>0</asrwt>
<pdfrwt beam="1">  1       21 0.60869808E-01 0.13692939E+03</pdfrwt>
<pdfrwt beam="2">  1       21 0.10208648E-01 0.13692939E+03</pdfrwt>
<totfact> 0.19971752E+05</totfact>
</mgrwt>
</event>
<event>
 4    1  0.6024238E+003  0.1087194E+03  0.7546771E-02  0.1262960E+00
         21   -1    0    0  503  501  0.00000000000E+00  0.00000000000E+00  0.30965702155E+03  0.30965702155E+03  0.00000000000E+00 0.  1.
         21   -1    0    0  504  502 -0.00000000000E+00 -0.00000000000E+00 -0.70356296044E+02  0.70356296044E+02  0.00000000000E+00 0. -1.
         21    1    1    2  503  502  0.73527389006E+02 -0.80085145949E+02 -0.88624186279E+01  0.10908001650E+03  0.00000000000E+00 0. -1.
         21    1    1    2  504  501 -0.73527389006E+02  0.80085145949E+02  0.24816314414E+03  0.27093330110E+03  0.00000000000E+00 0.  1.
<mgrwt>
<rscale>  2 0.10871940E+03</rscale>
<asrwt>0</asrwt>
<pdfrwt beam="1">  1       21 0.47639541E-01 0.10871940E+03</pdfrwt>
<pdfrwt beam="2">  1       21 0.10824046E-01 0.10871940E+03</pdfrwt>
<totfact> 0.30238916E+05</totfact>
</mgrwt>
</event>
<event>
 4    1  0.6024238E+003  0.1567427E+03  0.7546771E-02  0.1192424E+00
         21   -1    0    0  502  501  0.00000000000E+00  0.00000000000E+00  0.29336292327E+03  0.29336292327E+03  0.00000000000E+00 0. -1.
         21   -1    0    0  503  502 -0.00000000000E+00 -0.00000000000E+00 -0.84705164215E+02  0.84705164215E+02  0.00000000000E+00 0. -1.
         21    1    1    2  503  504  0.15001208734E+03  0.45438404983E+02  0.84224201308E+02  0.17793816646E+03  0.00000000000E+00 0. -1.
         21    1    1    2  504  501 -0.15001208734E+03 -0.45438404983E+02  0.12443355775E+03  0.20012992103E+03  0.00000000000E+00 0. -1.
<mgrwt>
<rscale>  2 0.15674270E+03</rscale>
<asrwt>0</asrwt>
<pdfrwt beam="1">  1       21 0.45132757E-01 0.15674270E+03</pdfrwt>
<pdfrwt beam="2">  1       21 0.13031564E-01 0.15674270E+03</pdfrwt>
<totfact> 0.24067719E+05</totfact>
</mgrwt>
</event>
<event>
 4    1  0.6024238E+003  0.1515349E+03  0.7546771E-02  0.1198599E+00
         21   -1    0    0  504  501  0.00000000000E+00  0.00000000000E+00  0.32776133213E+03  0.32776133213E+03  0.00000000000E+00 0. -1.
         21   -1    0    0  501  502 -0.00000000000E+00 -0.00000000000E+00 -0.12569388530E+03  0.12569388530E+03  0.00000000000E+00 0. -1.
         21    1    1    2  503  502 -0.80042417130E+02 -0.12867029233E+03 -0.49806973792E+02  0.15951039874E+03  0.00000000000E+00 0. -1.
         21    1    1    2  504  503  0.80042417130E+02  0.12867029233E+03  0.25187442062E+03  0.29394481869E+03  0.00000000000E+00 0. -1.
<mgrwt>
<rscale>  2 0.15153492E+03</rscale>
<asrwt>0</asrwt>
<pdfrwt beam="1">  1       21 0.50424820E-01 0.15153492E+03</pdfrwt>
<pdfrwt beam="2">  1       21 0.19337521E-01 0.15153492E+03</pdfrwt>
<totfact> 0.93540643E+04</totfact>
</mgrwt>
</event>
<event>
 4    1  0.6024238E+003  0.1173331E+03  0.7546771E-02  0.1247563E+00
         21   -1    0    0  503  501  0.00000000000E+00  0.00000000000E+00  0.78028547961E+03  0.78028547961E+03  0.00000000000E+00 0. -1.
         21   -1    0    0  504  502 -0.00000000000E+00 -0.00000000000E+00 -0.14426461470E+03  0.14426461470E+03  0.00000000000E+00 0. -1.
         21    1    1    2  503  502  0.43007401010E+02  0.10916694740E+03 -0.11507483005E+03  0.16434498914E+03  0.00000000000E+00 0. -1.
         21    1    1    2  504  501 -0.43007401010E+02 -0.10916694740E+03  0.75109569495E+03  0.76020510517E+03  0.00000000000E+00 0. -1.
<mgrwt>
<rscale>  2 0.11733311E+03</rscale>
<asrwt>0</asrwt>
<pdfrwt beam="1">  1       21 0.12004392E+00 0.11733311E+03</pdfrwt>
<pdfrwt beam="2">  1       21 0.22194556E-01 0.11733311E+03</pdfrwt>
<totfact> 0.10662318E+04</totfact>
</mgrwt>
</event>
<event>
 4    1  0.6024238E+003  0.2225775E+03  0.7546771E-02  0.1131976E+00
         21   -1    0    0  504  501  0.00000000000E+00  0.00000000000E+00  0.55894258852E+03  0.55894258852E+03  0.00000000000E+00 0. -1.
         21   -1    0    0  503  502 -0.00000000000E+00 -0.00000000000E+00 -0.55239081281E+03  0.55239081281E+03  0.00000000000E+00 0.  1.
         21    1    1    2  503  501  0.14787259116E+03  0.16635635910E+03 -0.50586360080E+03  0.55266511020E+03  0.00000000000E+00 0.  1.
         21    1    1    2  504  502 -0.14787259116E+03 -0.16635635910E+03  0.51241537651E+03  0.55866829113E+03  0.00000000000E+00 0. -1.
<mgrwt>
<rscale>  2 0.22257750E+03</rscale>
<asrwt>0</asrwt>
<pdfrwt beam="1">  1       21 0.85991168E-01 0.22257750E+03</pdfrwt>
<pdfrwt beam="2">  1       21 0.84983202E-01 0.22257750E+03</pdfrwt>
<totfact> 0.13610274E+03</totfact>
</mgrwt>
</event>
<event>
 4    1  0.6024238E+003  0.1015721E+03  0.7546771E-02  0.1277024E+00
         21   -1    0    0  504  501  0.00000000000E+00  0.00000000000E+00  0.12497360292E+03  0.12497360292E+03  0.00000000000E+00 0.  1.
         21   -1    0    0  503  502 -0.00000000000E+00 -0.00000000000E+00 -0.15983531156E+03  0.15983531156E+03  0.00000000000E+00 0.  1.
         21    1    1    2  503  501 -0.52100617637E+01  0.10143834109E+03  0.81590465103E+02  0.13028386616E+03  0.00000000000E+00 0.  1.
         21    1    1    2  504  502  0.52100617637E+01 -0.10143834109E+03 -0.11645217374E+03  0.15452504831E+03  0.00000000000E+00 0.  1.
<mgrwt>
<rscale>  2 0.10157205E+03</rscale>
<asrwt>0</asrwt>
<pdfrwt beam="1">  1       21 0.19226708E-01 0.10157205E+03</pdfrwt>
<pdfrwt beam="2">  1       21 0.24590048E-01 0.10157205E+03</pdfrwt>
<totfact> 0.39366198E+05</totfact>
</mgrwt>
</event>
<event>
 4    1  0.6024238E+003  0.1197288E+03  0.7546771E-02  0.1243545E+00
         21   -1    0    0  504  501  0.00000000000E+00  0.00000000000E+00  0.18145640519E+02  0.18145640519E+02  0.00000000000E+00 0.  1.
         21   -1    0    0  503  502 -0.00000000000E+00 -0.00000000000E+00 -0.16143416684E+04  0.16143416684E+04  0.00000000000E+00 0. -1.
         21    1    1    2  503  501  0.93507635448E+02 -0.74775077846E+02 -0.13813774592E+04  0.13865564089E+04  0.00000000000E+00 0. -1.
         21    1    1    2  504  502 -0.93507635448E+02  0.74775077846E+02 -0.21481856865E+03  0.24593090003E+03  0.00000000000E+00 0.  1.
<mgrwt>
<rscale>  2 0.11972882E+03</rscale>
<asrwt>0</asrwt>
<pdfrwt beam="1">  1       21 0.27916366E-02 0.11972882E+03</pdfrwt>
<pdfrwt beam="2">  1       21 0.24836029E+00 0.11972882E+03</pdfrwt>
<totfact> 0.51675520E+04</totfact>
</mgrwt>
</event>
<event>
 4    1  0.6024238E+003  0.1002862E+03  0.7546771E-02  0.1279695E+00
         21   -1    0    0  503  501  0.00000000000E+00  0.00000000000E+00  0.36779952595E+03  0.36779952595E+03  0.00000000000E+00 0. -1.
         21   -1    0    0  504  502 -0.00000000000E+00 -0.00000000000E+00 -0.14771021894E+03  0.14771021894E+03  0.00000000000E+00 0. -1.
         21    1    1    2  503  502 -0.99716460314E+02  0.10674872041E+02 -0.12263203100E+03  0.15841698261E+03  0.00000000000E+00 0. -1.
         21    1    1    2  504  501  0.99716460314E+02 -0.10674872041E+02  0.34272133801E+03  0.35709276228E+03  0.00000000000E+00 0. -1.
<mgrwt>
<rscale>  2 0.10028622E+03</rscale>
<asrwt>0</asrwt>
<pdfrwt beam="1">  1       21 0.56584542E-01 0.10028622E+03</pdfrwt>
<pdfrwt beam="2">  1       21 0.22724649E-01 0.10028622E+03</pdfrwt>
<totfact> 0.55952108E+04</totfact>
</mgrwt>
</event>
<event>
 4    1  0.6024238E+003  0.1149658E+03  0.7546771E-02  0.1251641E+00
         21   -1    0    0  503  501  0.00000000000E+00  0.00000000000E+00  0.26002451606E+03  0.26002451606E+03  0.00000000000E+00 0. -1.
         21   -1    0    0  504  502 -0.00000000000E+00 -0.00000000000E+00 -0.66224556118E+02  0.66224556118E+02  0.00000000000E+00 0. -1.
         21    1    1    2  503  502 -0.57966460517E+02  0.99282585822E+02  0.17554806023E+03  0.20984342697E+03  0.00000000000E+00 0. -1.
         21    1    1    2  504  501  0.57966460517E+02 -0.99282585822E+02  0.18251899710E+02  0.11640564520E+03  0.00000000000E+00 0. -1.
<mgrwt>
<rscale>  2 0.11496583E+03</rscale>
<asrwt>0</asrwt>
<pdfrwt beam="1">  1       21 0.40003771E-01 0.11496583E+03</pdfrwt>
<pdfrwt beam="2">  1       21 0.10188393E-01 0.11496583E+03</pdfrwt>
<totfact> 0.47759373E+05</totfact>
</mgrwt>
</event>
<event>
 4    1  0.6024238E+003  0.1037883E+03  0.7546771E-02  0.1272526E+00
         21   -1    0    0  502  501  0.00000000000E+00  0.00000000000E+00  0.57685246372E+02  0.57685246372E+02  0.00000000000E+00 0.  1.
         21   -1    0    0  504  502 -0.00000000000E+00 -0.00000000000E+00 -0.33271416214E+03  0.33271416214E+03  0.00000000000E+00 0.  1.
         21    1    1    2  503  501 -0.28216019330E+02 -0.99879242793E+02 -0.82184800599E+01  0.10411316104E+03  0.00000000000E+00 0.  1.
         21    1    1    2  504  503  0.28216019330E+02  0.99879242793E+02 -0.26681043571E+03  0.28628624747E+03  0.00000000000E+00 0.  1.
<mgrwt>
<rscale>  2 0.10378828E+03</rscale>
<asrwt>0</asrwt>
<pdfrwt beam="1">  1       21 0.88746534E-02 0.10378828E+03</pdfrwt>
<pdfrwt beam="2">  1       21 0.51186794E-01 0.10378828E+03</pdfrwt>
<totfact> 0.36891389E+05</totfact>
</mgrwt>
</event>
<event>
 4    1  0.6024238E+003  0.1194739E+03  0.7546771E-02  0.1243967E+00
         21   -1    0    0  503  501  0.00000000000E+00  0.00000000000E+00  0.20131038507E+03  0.20131038507E+03  0.00000000000E+00 0. -1.
         21   -1    0    0  501  502 -0.00000000000E+00 -0.00000000000E+00 -0.89128794003E+02  0.89128794003E+02  0.00000000000E+00 0.  1.
         21    1    1    2  503  504 -0.49754783625E+02 -0.10862082406E+03  0.12175506746E+03  0.17058229207E+03  0.00000000000E+00 0. -1.
         21    1    1    2  504  502  0.49754783625E+02  0.10862082406E+03 -0.95734763940E+01  0.11985688701E+03  0.00000000000E+00 0.  1.
<mgrwt>
<rscale>  2 0.11947394E+03</rscale>
<asrwt>0</asrwt>
<pdfrwt beam="1">  1       21 0.30970828E-01 0.11947394E+03</pdfrwt>
<pdfrwt beam="2">  1       21 0.13712122E-01 0.11947394E+03</pdfrwt>
<totfact> 0.46676375E+05</totfact>
</mgrwt>
</event>
<event>
 4    1  0.6024238E+003  0.1253328E+03  0.7546771E-02  0.1234550E+00
         21   -1    0    0  504  501  0.00000000000E+00  0.00000000000E+00  0.41550886739E+03  0.41550886739E+03  0.00000000000E+00 0.  1.
         21   -1    0    0  501  502 -0.00000000000E+00 -0.00000000000E+00 -0.43163006345E+02  0.43163006345E+02  0.00000000000E+00 0. -1.
         21    1    1    2  503  502  0.12361005359E+03  0.20708996097E+02  0.10537162889E+03  0.16374213888E+03  0.00000000000E+00 0. -1.
         21    1    1    2  504  503 -0.12361005359E+03 -0.20708996097E+02  0.26697423216E+03  0.29492973486E+03  0.00000000000E+00 0.  1.
<mgrwt>
<rscale>  2 0.12533279E+03</rscale>
<asrwt>0</asrwt>
<pdfrwt beam="1">  1       21 0.63924438E-01 0.12533279E+03</pdfrwt>
<pdfrwt beam="2">  1       21 0.66404628E-02 0.12533279E+03</pdfrwt>
<totfact> 0.37916667E+05</totfact>
</mgrwt>
</event>
<event>
 4    1  0.6024238E+003  0.1003103E+03  0.7546771E-02  0.1279645E+00
         21   -1    0    0  504  501  0.00000000000E+00  0.00000000000E+00  0.32969938024E+03  0.32969938024E+03  0.00000000000E+00 0. -1.
         21   -1    0    0  503  502 -0.00000000000E+00 -0.00000000000E+00 -0.51234134047E+02  0.51234134047E+02  0.00000000000E+00 0.  1.
         21    1    1    2  503  501 -0.78334385830E+02 -0.62656905158E+02  0.18122293140E+02  0.10193420072E+03  0.00000000000E+00 0.  1.
         21    1    1    2  504  502  0.78334385830E+02  0.62656905158E+02  0.26034295306E+03  0.27899931357E+03  0.00000000000E+00 0. -1.
<mgrwt>
<rscale>  2 0.10031034E+03</rscale>
<asrwt>0</asrwt>
<pdfrwt beam="1">  1       21 0.50722980E-01 0.10031034E+03</pdfrwt>
<pdfrwt beam="2">  1       21 0.78821747E-02 0.10031034E+03</pdfrwt>
<totfact> 0.46100569E+05</totfact>
</mgrwt>
</event>
<event>
 4    1  0.6024238E+003  0.1008621E+03  0.7546771E-02  0.1278493E+00
         21   -1    0    0  503  501  0.00000000000E+00  0.00000000000E+00  0.43100699872E+02  0.43100699872E+02  0.00000000000E+00 0.  1.
         21   -1    0    0  504  502 -0.00000000000E+00 -0.00000000000E+00 -0.28641878154E+03  0.28641878154E+03  0.00000000000E+00 0.  1.
         21    1    1    2  503  502  0.50773170290E+02 -0.87150724772E+02 -0.52554475891E+02  0.11373274192E+03  0.00000000000E+00 0.  1.
         21    1    1    2  504  501 -0.50773170290E+02  0.87150724772E+02 -0.19076360577E+03  0.21578673948E+03  0.00000000000E+00 0.  1.
<mgrwt>
<rscale>  2 0.10086210E+03</rscale>
<asrwt>0</asrwt>
<pdfrwt beam="1">  1       21 0.66308767E-02 0.10086210E+03</pdfrwt>
<pdfrwt beam="2">  1       21 0.44064429E-01 0.10086210E+03</pdfrwt>
<totfact> 0.82364569E+05</totfact>
</mgrwt>
</event>
<event>
 4    1  0.6024238E+003  0.1296484E+03  0.7546771E-02  0.1227978E+00
         21   -1    0    0  503  501  0.00000000000E+00  0.00000000000E+00  0.30701709976E+02  0.30701709976E+02  0.00000000000E+00 0.  1.
         21   -1    0    0  504  502 -0.00000000000E+00 -0.00000000000E+00 -0.71505703715E+03  0.71505703715E+03  0.00000000000E+00 0.  1.
         21    1    1    2  503  502  0.12469629809E+03 -0.35490051329E+02 -0.52268690181E+03  0.53852605120E+03  0.00000000000E+00 0.  1.
         21    1    1    2  504  501 -0.12469629809E+03  0.35490051329E+02 -0.16166842536E+03  0.20723269592E+03  0.00000000000E+00 0.  1.
<mgrwt>
<rscale>  2 0.12964841E+03</rscale>
<asrwt>0</asrwt>
<pdfrwt beam="1">  1       21 0.47233407E-02 0.12964841E+03</pdfrwt>
<pdfrwt beam="2">  1       21 0.11000876E+00 0.12964841E+03</pdfrwt>
<totfact> 0.19754552E+05</totfact>
</mgrwt>
</event>
<event>
 4    1  0.6024238E+003  0.1107255E+03  0.7546771E-02  0.1259232E+00
         21   -1    0    0  503  501  0.00000000000E+00  0.00000000000E+00  0.15330087973E+02  0.15330087973E+02  0.00000000000E+00 0.  1.
         21   -1    0    0  504  502 -0.00000000000E+00 -0.00000000000E+00 -0.10725904095E+04  0.10725904095E+04  0.00000000000E+00 0.  1.
         21    1    1    2  503  502  0.69417832240E+02  0.86262987003E+02 -0.80298316536E+03  0.81058133596E+03  0.00000000000E+00 0.  1.
         21    1    1    2  504  501 -0.69417832240E+02 -0.86262987003E+02 -0.25427715619E+03  0.27733916153E+03  0.00000000000E+00 0.  1.
<mgrwt>
<rscale>  2 0.11072551E+03</rscale>
<asrwt>0</asrwt>
<pdfrwt beam="1">  1       21 0.23584749E-02 0.11072551E+03</pdfrwt>
<pdfrwt beam="2">  1       21 0.16501392E+00 0.11072551E+03</pdfrwt>
<totfact> 0.22543573E+05</totfact>
</mgrwt>
</event>
<event>
 4    1  0.6024238E+003  0.1329069E+03  0.7546771E-02  0.1223205E+00
         21   -1    0    0  504  501  0.00000000000E+00  0.00000000000E+00  0.16569343017E+03  0.16569343017E+03  0.00000000000E+00 0.  1.
         21   -1    0    0  501  502 -0.00000000000E+00 -0.00000000000E+00 -0.20286782345E+03  0.20286782345E+03  0.00000000000E+00 0. -1.
         21    1    1    2  503  502  0.86463721582E+02 -0.10093693378E+03 -0.14552638016E+03  0.19708416241E+03  0.00000000000E+00 0. -1.
         21    1    1    2  504  503 -0.86463721582E+02  0.10093693378E+03  0.10835198687E+03  0.17147709121E+03  0.00000000000E+00 0.  1.
<mgrwt>
<rscale>  2 0.13290688E+03</rscale>
<asrwt>0</asrwt>
<pdfrwt beam="1">  1       21 0.25491297E-01 0.13290688E+03</pdfrwt>
<pdfrwt beam="2">  1       21 0.31210434E-01 0.13290688E+03</pdfrwt>
<totfact> 0.14675653E+05</totfact>
</mgrwt>
</event>
<event>
 4    1  0.6024238E+003  0.1040550E+03  0.7546771E-02  0.1271993E+00
         21   -1    0    0  504  501  0.00000000000E+00  0.00000000000E+00  0.42158256587E+02  0.42158256587E+02  0.00000000000E+00 0.  1.
         21   -1    0    0  501  502 -0.00000000000E+00 -0.00000000000E+00 -0.33627544552E+03  0.33627544552E+03  0.00000000000E+00 0. -1.
         21    1    1    2  503  502  0.61563236048E+02 -0.83889218347E+02 -0.23902969982E+03  0.26069643340E+03  0.00000000000E+00 0. -1.
         21    1    1    2  504  503 -0.61563236048E+02  0.83889218347E+02 -0.55087489113E+02  0.11773726871E+03  0.00000000000E+00 0.  1.
<mgrwt>
<rscale>  2 0.10405495E+03</rscale>
<asrwt>0</asrwt>
<pdfrwt beam="1">  1       21 0.64858855E-02 0.10405495E+03</pdfrwt>
<pdfrwt beam="2">  1       21 0.51734685E-01 0.10405495E+03</pdfrwt>
<totfact> 0.61683616E+05</totfact>
</mgrwt>
</event>
<event>
 4    1  0.6024238E+003  0.1113599E+03  0.7546771E-02  0.1258072E+00
         21   -1    0    0  502  501  0.00000000000E+00  0.00000000000E+00  0.13054307858E+03  0.13054307858E+03  0.00000000000E+00 0. -1.
         21   -1    0    0  503  502 -0.00000000000E+00 -0.00000000000E+00 -0.11457448345E+03  0.11457448345E+03  0.00000000000E+00 0. -1.
         21    1    1    2  503  504  0.14653113619E+02 -0.11039163729E+03 -0.42679023339E+02  0.11925823391E+03  0.00000000000E+00 0. -1.
         21    1    1    2  504  501 -0.14653113619E+02  0.11039163729E+03  0.58647618471E+02  0.12585932812E+03  0.00000000000E+00 0. -1.
<mgrwt>
<rscale>  2 0.11135990E+03</rscale>
<asrwt>0</asrwt>
<pdfrwt beam="1">  1       21 0.20083551E-01 0.11135990E+03</pdfrwt>
<pdfrwt beam="2">  1       21 0.17626844E-01 0.11135990E+03</pdfrwt>
<totfact> 0.67173727E+05</totfact>
</mgrwt>
</event>
<event>
 4    1  0.6024238E+003  0.1512712E+03  0.7546771E-02  0.1198920E+00
         21   -1    0    0  503  501  0.00000000000E+00  0.00000000000E+00  0.33562338645E+03  0.33562338645E+03  0.00000000000E+00 0.  1.
         21   -1    0    0  504  502 -0.00000000000E+00 -0.00000000000E+00 -0.35185535295E+03  0.35185535295E+03  0.00000000000E+00 0.  1.
         21    1    1    2  503  502 -0.15126270368E+03  0.16019761362E+01 -0.31675982116E+03  0.35102671715E+03  0.00000000000E+00 0.  1.
         21    1    1    2  504  501  0.15126270368E+03 -0.16019761362E+01  0.30052785466E+03  0.33645202226E+03  0.00000000000E+00 0.  1.
<mgrwt>
<rscale>  2 0.15127119E+03</rscale>
<asrwt>0</asrwt>
<pdfrwt beam="1">  1       21 0.51634367E-01 0.15127119E+03</pdfrwt>
<pdfrwt beam="2">  1       21 0.54131593E-01 0.15127119E+03</pdfrwt>
<totfact> 0.11834349E+04</totfact>
</mgrwt>
</event>
<event>
 4    1  0.6024238E+003  0.1652315E+03  0.7546771E-02  0.1182914E+00
         21   -1    0    0  503  501  0.00000000000E+00  0.00000000000E+00  0.26719917845E+03  0.26719917845E+03  0.00000000000E+00 0. -1.
         21   -1    0    0  504  502 -0.00000000000E+00 -0.00000000000E+00 -0.17168176345E+03  0.17168176345E+03  0.00000000000E+00 0.  1.
         21    1    1    2  503  502 -0.15766900538E+03 -0.49415798019E+02 -0.91866542713E+02  0.18905263294E+03  0.00000000000E+00 0.  1.
         21    1    1    2  504  501  0.15766900538E+03  0.49415798019E+02  0.18738395772E+03  0.24982830896E+03  0.00000000000E+00 0. -1.
<mgrwt>
<rscale>  2 0.16523146E+03</rscale>
<asrwt>0</asrwt>
<pdfrwt beam="1">  1       21 0.41107566E-01 0.16523146E+03</pdfrwt>
<pdfrwt beam="2">  1       21 0.26412579E-01 0.16523146E+03</pdfrwt>
<totfact> 0.78613087E+04</totfact>
</mgrwt>
</event>
<event>
 4    1  0.6024238E+003  0.1047910E+03  0.7546771E-02  0.1270532E+00
         21   -1    0    0  502  501  0.00000000000E+00  0.00000000000E+00  0.46443802290E+02  0.46443802290E+02  0.00000000000E+00 0. -1.
         21   -1    0    0  504  502 -0.00000000000E+00 -0.00000000000E+00 -0.37569201522E+03  0.37569201522E+03  0.00000000000E+00 0. -1.
         21    1    1    2  503  501  0.36048159986E+02 -0.98395553289E+02 -0.36122792305E+02  0.11084227925E+03  0.00000000000E+00 0. -1.
         21    1    1    2  504  503 -0.36048159986E+02  0.98395553289E+02 -0.29312542062E+03  0.31129353826E+03  0.00000000000E+00 0. -1.
<mgrwt>
<rscale>  2 0.10479101E+03</rscale>
<asrwt>0</asrwt>
<pdfrwt beam="1">  1       21 0.71452006E-02 0.10479101E+03</pdfrwt>
<pdfrwt beam="2">  1       21 0.57798770E-01 0.10479101E+03</pdfrwt>
<totfact> 0.41558667E+05</totfact>
</mgrwt>
</event>
<event>
 4    1  0.6024238E+003  0.1256382E+03  0.7546771E-02  0.1234075E+00
         21   -1    0    0  503  501  0.00000000000E+00  0.00000000000E+00  0.15796718329E+03  0.15796718329E+03  0.00000000000E+00 0.  1.
         21   -1    0    0  504  502 -0.00000000000E+00 -0.00000000000E+00 -0.99942754664E+02  0.99942754664E+02  0.00000000000E+00 0. -1.
         21    1    1    2  503  502 -0.11093403573E+03  0.58979551583E+02  0.27317198523E+02  0.12857362531E+03  0.00000000000E+00 0.  1.
         21    1    1    2  504  501  0.11093403573E+03 -0.58979551583E+02  0.30707230101E+02  0.12933631265E+03  0.00000000000E+00 0. -1.
<mgrwt>
<rscale>  2 0.12563816E+03</rscale>
<asrwt>0</asrwt>
<pdfrwt beam="1">  1       21 0.24302644E-01 0.12563816E+03</pdfrwt>
<pdfrwt beam="2">  1       21 0.15375808E-01 0.12563816E+03</pdfrwt>
<totfact> 0.60315927E+05</totfact>
</mgrwt>
</event>
<event>
 4    1  0.6024238E+003  0.1239264E+03  0.7546771E-02  0.1236757E+00
         21   -1    0    0  503  501  0.00000000000E+00  0.00000000000E+00  0.99307494946E+02  0.99307494946E+02  0.00000000000E+00 0.  1.
         21   -1    0    0  501  502 -0.00000000000E+00 -0.00000000000E+00 -0.72892373762E+03  0.72892373762E+03  0.00000000000E+00 0. -1.
         21    1    1    2  503  504  0.12337656579E+03 -0.11661292874E+02  0.52762318073E+02  0.13469084953E+03  0.00000000000E+00 0.  1.
         21    1    1    2  504  502 -0.12337656579E+03  0.11661292874E+02 -0.68237856075E+03  0.69354038304E+03  0.00000000000E+00 0. -1.
<mgrwt>
<rscale>  2 0.12392644E+03</rscale>
<asrwt>0</asrwt>
<pdfrwt beam="1">  1       21 0.15278076E-01 0.12392644E+03</pdfrwt>
<pdfrwt beam="2">  1       21 0.11214212E+00 0.12392644E+03</pdfrwt>
<totfact> 0.24750497E+04</totfact>
</mgrwt>
</event>
<event>
 4    1  0.6024238E+003  0.1254150E+03  0.7546771E-02  0.1234422E+00
         21   -1    0    0  502  501  0.00000000000E+00  0.00000000000E+00  0.18128376269E+03  0.18128376269E+03  0.00000000000E+00 0. -1.
         21   -1    0    0  503  502 -0.00000000000E+00 -0.00000000000E+00 -0.46398977370E+03  0.46398977370E+03  0.00000000000E+00 0. -1.
         21    1    1    2  503  504  0.84663182666E+02 -0.92526101885E+02 -0.43226406979E+03  0.45009016881E+03  0.00000000000E+00 0. -1.
         21    1    1    2  504  501 -0.84663182666E+02  0.92526101885E+02  0.14955805879E+03  0.19518336758E+03  0.00000000000E+00 0. -1.
<mgrwt>
<rscale>  2 0.12541505E+03</rscale>
<asrwt>0</asrwt>
<pdfrwt beam="1">  1       21 0.27889809E-01 0.12541505E+03</pdfrwt>
<pdfrwt beam="2">  1       21 0.71383043E-01 0.12541505E+03</pdfrwt>
<totfact> 0.22746705E+04</totfact>
</mgrwt>
</event>
<event>
 4    1  0.6024238E+003  0.1028242E+03  0.7546771E-02  0.1274467E+00
         21   -1    0    0  502  501  0.00000000000E+00  0.00000000000E+00  0.27220852439E+03  0.27220852439E+03  0.00000000000E+00 0.  1.
         21   -1    0    0  503  502 -0.00000000000E+00 -0.00000000000E+00 -0.31332531417E+03  0.31332531417E+03  0.00000000000E+00 0.  1.
         21    1    1    2  503  504 -0.96837194654E+02 -0.34574308686E+02 -0.29457892525E+03  0.31200892341E+03  0.00000000000E+00 0.  1.
         21    1    1    2  504  501  0.96837194654E+02  0.34574308686E+02  0.25346213547E+03  0.27352491515E+03  0.00000000000E+00 0.  1.
<mgrwt>
<rscale>  2 0.10282424E+03</rscale>
<asrwt>0</asrwt>
<pdfrwt beam="1">  1       21 0.41878234E-01 0.10282424E+03</pdfrwt>
<pdfrwt beam="2">  1       21 0.48203895E-01 0.10282424E+03</pdfrwt>
<totfact> 0.23972038E+04</totfact>
</mgrwt>
</event>
<event>
 4    1  0.6024238E+003  0.1003138E+03  0.7546771E-02  0.1279637E+00
         21   -1    0    0  503  501  0.00000000000E+00  0.00000000000E+00  0.23651364393E+03  0.23651364393E+03  0.00000000000E+00 0. -1.
         21   -1    0    0  501  502 -0.00000000000E+00 -0.00000000000E+00 -0.81104749103E+02  0.81104749103E+02  0.00000000000E+00 0.  1.
         21    1    1    2  503  504  0.96961463311E+02  0.25716560082E+02  0.18720346626E+03  0.21238645110E+03  0.00000000000E+00 0. -1.
         21    1    1    2  504  502 -0.96961463311E+02 -0.25716560082E+02 -0.31794571437E+02  0.10523194193E+03  0.00000000000E+00 0.  1.
<mgrwt>
<rscale>  2 0.10031384E+03</rscale>
<asrwt>0</asrwt>
<pdfrwt beam="1">  1       21 0.36386714E-01 0.10031384E+03</pdfrwt>
<pdfrwt beam="2">  1       21 0.12477654E-01 0.10031384E+03</pdfrwt>
<totfact> 0.40403428E+05</totfact>
</mgrwt>
</event>
<event>
 4    1  0.6024238E+003  0.1805467E+03  0.7546771E-02  0.1167275E+00
         21   -1    0    0  504  501  0.00000000000E+00  0.00000000000E+00  0.67990720310E+03  0.67990720310E+03  0.00000000000E+00 0. -1.
         21   -1    0    0  503  502 -0.00000000000E+00 -0.00000000000E+00 -0.58164285496E+02  0.58164285496E+02  0.00000000000E+00 0. -1.
         21    1    1    2  503  501  0.14267520984E+03 -0.11063860387E+03  0.15617412289E+03  0.23872049102E+03  0.00000000000E+00 0. -1.
         21    1    1    2  504  502 -0.14267520984E+03  0.11063860387E+03  0.46556879472E+03  0.49935099758E+03  0.00000000000E+00 0. -1.
<mgrwt>
<rscale>  2 0.18054671E+03</rscale>
<asrwt>0</asrwt>
<pdfrwt beam="1">  1       21 0.10460110E+00 0.18054671E+03</pdfrwt>
<pdfrwt beam="2">  1       21 0.89483521E-02 0.18054671E+03</pdfrwt>
<totfact> 0.73155610E+04</totfact>
</mgrwt>
</event>
<event>
 4    1  0.6024238E+003  0.1074123E+03  0.7546771E-02  0.1265438E+00
         21   -1    0    0  504  501  0.00000000000E+00  0.00000000000E+00  0.15550236352E+03  0.15550236352E+03  0.00000000000E+00 0.  1.
         21   -1    0    0  501  502 -0.00000000000E+00 -0.00000000000E+00 -0.15554434893E+03  0.15554434893E+03  0.00000000000E+00 0.  1.
         21    1    1    2  503  502  0.24592873470E+02  0.10455900857E+03 -0.11249373795E+03  0.15553853792E+03  0.00000000000E+00 0.  1.
         21    1    1    2  504  503 -0.24592873470E+02 -0.10455900857E+03  0.11245175255E+03  0.15550817454E+03  0.00000000000E+00 0.  1.
<mgrwt>
<rscale>  2 0.10741227E+03</rscale>
<asrwt>0</asrwt>
<pdfrwt beam="1">  1       21 0.23923441E-01 0.10741227E+03</pdfrwt>
<pdfrwt beam="2">  1       21 0.23929900E-01 0.10741227E+03</pdfrwt>
<totfact> 0.27620246E+05</totfact>
</mgrwt>
</event>
<event>
 4    1  0.6024238E+003  0.1866472E+03  0.7546771E-02  0.1161521E+00
         21   -1    0    0  503  501  0.00000000000E+00  0.00000000000E+00  0.41834893218E+03  0.41834893218E+03  0.00000000000E+00 0.  1.
         21   -1    0    0  504  502 -0.00000000000E+00 -0.00000000000E+00 -0.10792481641E+03  0.10792481641E+03  0.00000000000E+00 0. -1.
         21    1    1    2  503  502  0.17574430996E+03 -0.62857934063E+02  0.28097285102E+03  0.33731724736E+03  0.00000000000E+00 0.  1.
         21    1    1    2  504  501 -0.17574430996E+03  0.62857934063E+02  0.29451264755E+02  0.18895650122E+03  0.00000000000E+00 0. -1.
<mgrwt>
<rscale>  2 0.18664721E+03</rscale>
<asrwt>0</asrwt>
<pdfrwt beam="1">  1       21 0.64361373E-01 0.18664721E+03</pdfrwt>
<pdfrwt beam="2">  1       21 0.16603818E-01 0.18664721E+03</pdfrwt>
<totfact> 0.72731557E+04</totfact>
</mgrwt>
</event>
<event>
 4    1  0.6024238E+003  0.1129161E+03  0.7546771E-02  0.1255263E+00
         21   -1    0    0  504  501  0.00000000000E+00  0.00000000000E+00  0.56710581522E+03  0.56710581522E+03  0.00000000000E+00 0. -1.
         21   -1    0    0  503  502 -0.00000000000E+00 -0.00000000000E+00 -0.34066072030E+02  0.34066072030E+02  0.00000000000E+00 0.  1.
         21    1    1    2  503  501  0.78603136102E+02  0.81065423135E+02  0.91242599531E+02  0.14517323377E+03  0.00000000000E+00 0.  1.
         21    1    1    2  504  502 -0.78603136102E+02 -0.81065423135E+02  0.44179714365E+03  0.45599865348E+03  0.00000000000E+00 0. -1.
<mgrwt>
<rscale>  2 0.11291615E+03</rscale>
<asrwt>0</asrwt>
<pdfrwt beam="1">  1       21 0.87247042E-01 0.11291615E+03</pdfrwt>
<pdfrwt beam="2">  1       21 0.52409345E-02 0.11291615E+03</pdfrwt>
<totfact> 0.28595923E+05</totfact>
</mgrwt>
</event>
<event>
 4    1  0.6024238E+003  0.1043998E+03  0.7546771E-02  0.1271307E+00
         21   -1    0    0  503  501  0.00000000000E+00  0.00000000000E+00  0.80526392624E+02  0.80526392624E+02  0.00000000000E+00 0. -1.
         21   -1    0    0  504  502 -0.00000000000E+00 -0.00000000000E+00 -0.16785041707E+03  0.16785041707E+03  0.00000000000E+00 0. -1.
         21    1    1    2  503  502 -0.95101801145E+02 -0.43069400516E+02  0.10983912794E+02  0.10497605528E+03  0.00000000000E+00 0. -1.
         21    1    1    2  504  501  0.95101801145E+02  0.43069400516E+02 -0.98307937236E+02  0.14340075441E+03  0.00000000000E+00 0. -1.
<mgrwt>
<rscale>  2 0.10439984E+03</rscale>
<asrwt>0</asrwt>
<pdfrwt beam="1">  1       21 0.12388676E-01 0.10439984E+03</pdfrwt>
<pdfrwt beam="2">  1       21 0.25823141E-01 0.10439984E+03</pdfrwt>
<totfact> 0.79088046E+05</totfact>
</mgrwt>
</event>
<event>
 4    1  0.6024238E+003  0.1055175E+03  0.7546771E-02  0.1269103E+00
         21   -1    0    0  502  501  0.00000000000E+00  0.00000000000E+00  0.41728001104E+02  0.41728001104E+02  0.00000000000E+00 0. -1.
         21   -1    0    0  503  502 -0.00000000000E+00 -0.00000000000E+00 -0.29261193929E+03  0.29261193929E+03  0.00000000000E+00 0. -1.
         21    1    1    2  503  504  0.79070029309E+02  0.69870426435E+02 -0.17507124577E+03  0.20441107387E+03  0.00000000000E+00 0. -1.
         21    1    1    2  504  501 -0.79070029309E+02 -0.69870426435E+02 -0.75812692418E+02  0.12992886653E+03  0.00000000000E+00 0. -1.
<mgrwt>
<rscale>  2 0.10551752E+03</rscale>
<asrwt>0</asrwt>
<pdfrwt beam="1">  1       21 0.64196923E-02 0.10551752E+03</pdfrwt>
<pdfrwt beam="2">  1       21 0.45017223E-01 0.10551752E+03</pdfrwt>
<totfact> 0.83366221E+05</totfact>
</mgrwt>
</event>
<event>
 4    1  0.6024238E+003  0.2703730E+03  0.7546771E-02  0.1101066E+00
         21   -1    0    0  502  501  0.00000000000E+00  0.00000000000E+00  0.29899282782E+03  0.29899282782E+03  0.00000000000E+00 0. -1.
         21   -1    0    0  503  502 -0.00000000000E+00 -0.00000000000E+00 -0.34441171225E+03  0.34441171225E+03  0.00000000000E+00 0. -1.
         21    1    1    2  503  504 -0.67324112735E+02  0.26185691143E+03 -0.19598572810E+03  0.33393410104E+03  0.00000000000E+00 0. -1.
         21    1    1    2  504  501  0.67324112735E+02 -0.26185691143E+03  0.15056684368E+03  0.30947043903E+03  0.00000000000E+00 0. -1.
<mgrwt>
<rscale>  2 0.27037304E+03</rscale>
<asrwt>0</asrwt>
<pdfrwt beam="1">  1       21 0.45998897E-01 0.27037304E+03</pdfrwt>
<pdfrwt beam="2">  1       21 0.52986417E-01 0.27037304E+03</pdfrwt>
<totfact> 0.14638813E+04</totfact>
</mgrwt>
</event>
<event>
 4    1  0.6024238E+003  0.1107019E+03  0.7546771E-02  0.1259276E+00
         21   -1    0    0  502  501  0.00000000000E+00  0.00000000000E+00  0.14940201667E+02  0.14940201667E+02  0.00000000000E+00 0. -1.
         21   -1    0    0  503  502 -0.00000000000E+00 -0.00000000000E+00 -0.85122764730E+03  0.85122764730E+03  0.00000000000E+00 0. -1.
         21    1    1    2  503  504 -0.36518714658E+02 -0.10450500529E+03 -0.50074253804E+03  0.51283330825E+03  0.00000000000E+00 0. -1.
         21    1    1    2  504  501  0.36518714658E+02  0.10450500529E+03 -0.33554490759E+03  0.35333454072E+03  0.00000000000E+00 0. -1.
<mgrwt>
<rscale>  2 0.11070191E+03</rscale>
<asrwt>0</asrwt>
<pdfrwt beam="1">  1       21 0.22984927E-02 0.11070191E+03</pdfrwt>
<pdfrwt beam="2">  1       21 0.13095809E+00 0.11070191E+03</pdfrwt>
<totfact> 0.42494587E+05</totfact>
</mgrwt>
</event>
<event>
 4    1  0.6024238E+003  0.1093733E+03  0.7546771E-02  0.1261735E+00
         21   -1    0    0  504  501  0.00000000000E+00  0.00000000000E+00  0.13846296043E+04  0.13846296043E+04  0.00000000000E+00 0.  1.
         21   -1    0    0  501  502 -0.00000000000E+00 -0.00000000000E+00 -0.17824024069E+02  0.17824024069E+02  0.00000000000E+00 0.  1.
         21    1    1    2  503  502  0.10899984311E+03  0.90308678193E+01  0.18003698613E+03  0.21065573513E+03  0.00000000000E+00 0.  1.
         21    1    1    2  504  503 -0.10899984311E+03 -0.90308678193E+01  0.11867685941E+04  0.11917978932E+04  0.00000000000E+00 0.  1.
<mgrwt>
<rscale>  2 0.10937332E+03</rscale>
<asrwt>0</asrwt>
<pdfrwt beam="1">  1       21 0.21301985E+00 0.10937332E+03</pdfrwt>
<pdfrwt beam="2">  1       21 0.27421586E-02 0.10937332E+03</pdfrwt>
<totfact> 0.86541809E+04</totfact>
</mgrwt>
</event>
<event>
 4    1  0.6024238E+003  0.1351388E+03  0.7546771E-02  0.1220024E+00
         21   -1    0    0  503  501  0.00000000000E+00  0.00000000000E+00  0.22602008452E+03  0.22602008452E+03  0.00000000000E+00 0.  1.
         21   -1    0    0  504  502 -0.00000000000E+00 -0.00000000000E+00 -0.97807412603E+02  0.97807412603E+02  0.00000000000E+00 0.  1.
         21    1    1    2  503  502  0.11968872168E+03 -0.62746288828E+02  0.13162336898E+03  0.18864569467E+03  0.00000000000E+00 0.  1.
         21    1    1    2  504  501 -0.11968872168E+03  0.62746288828E+02 -0.34106970604E+01  0.13518180245E+03  0.00000000000E+00 0.  1.
<mgrwt>
<rscale>  2 0.13513877E+03</rscale>
<asrwt>0</asrwt>
<pdfrwt beam="1">  1       21 0.34772321E-01 0.13513877E+03</pdfrwt>
<pdfrwt beam="2">  1       21 0.15047294E-01 0.13513877E+03</pdfrwt>
<totfact> 0.31462689E+05</totfact>
</mgrwt>
</event>
<event>
 4    1  0.6024238E+003  0.1107689E+03  0.7546771E-02  0.1259153E+00
         21   -1    0    0  502  501  0.00000000000E+00  0.00000000000E+00  0.14650245233E+03  0.14650245233E+03  0.00000000000E+00 0.  1.
         21   -1    0    0  503  502 -0.00000000000E+00 -0.00000000000E+00 -0.83752407295E+02  0.83752407295E+02  0.00000000000E+00 0.  1.
         21    1    1    2  503  504 -0.90851918347E+02  0.63369391150E+02  0.30931313978E+02  0.11500650845E+03  0.00000000000E+00 0.  1.
         21    1    1    2  504  501  0.90851918347E+02 -0.63369391150E+02  0.31818731059E+02  0.11524835117E+03  0.00000000000E+00 0.  1.
<mgrwt>
<rscale>  2 0.11076891E+03</rscale>
<asrwt>0</asrwt>
<pdfrwt beam="1">  1       21 0.22538839E-01 0.11076891E+03</pdfrwt>
<pdfrwt beam="2">  1       21 0.12884986E-01 0.11076891E+03</pdfrwt>
<totfact> 0.95257642E+05</totfact>
</mgrwt>
</event>
<event>
 4    1  0.6024238E+003  0.1207344E+03  0.7546771E-02  0.1241890E+00
         21   -1    0    0  503  501  0.00000000000E+00  0.00000000000E+00  0.23687736025E+03  0.23687736025E+03  0.00000000000E+00 0. -1.
         21   -1    0    0  504  502 -0.00000000000E+00 -0.00000000000E+00 -0.93754422935E+02  0.93754422935E+02  0.00000000000E+00 0. -1.
         21    1    1    2  503  502 -0.10351286943E+03  0.62144082034E+02 -0.25347031904E+02  0.12336641802E+03  0.00000000000E+00 0. -1.
         21    1    1    2  504  501  0.10351286943E+03 -0.62144082034E+02  0.16846996922E+03  0.20726536517E+03  0.00000000000E+00 0. -1.
<mgrwt>
<rscale>  2 0.12073442E+03</rscale>
<asrwt>0</asrwt>
<pdfrwt beam="1">  1       21 0.36442671E-01 0.12073442E+03</pdfrwt>
<pdfrwt beam="2">  1       21 0.14423757E-01 0.12073442E+03</pdfrwt>
<totfact> 0.31034021E+05</totfact>
</mgrwt>
</event>
<event>
 4    1  0.6024238E+003  0.1552998E+03  0.7546771E-02  0.1194108E+00
         21   -1    0    0  502  501  0.00000000000E+00  0.00000000000E+00  0.12061647165E+03  0.12061647165E+03  0.00000000000E+00 0. -1.
         21   -1    0    0  503  502 -0.00000000000E+00 -0.00000000000E+00 -0.59220131253E+03  0.59220131253E+03  0.00000000000E+00 0. -1.
         21    1    1    2  503  504 -0.46361347225E+01 -0.15523060789E+03 -0.52585553643E+03  0.54830838090E+03  0.00000000000E+00 0. -1.
         21    1    1    2  504  501  0.46361347225E+01  0.15523060789E+03  0.54270695548E+02  0.16450940328E+03  0.00000000000E+00 0. -1.
<mgrwt>
<rscale>  2 0.15529982E+03</rscale>
<asrwt>0</asrwt>
<pdfrwt beam="1">  1       21 0.18556381E-01 0.15529982E+03</pdfrwt>
<pdfrwt beam="2">  1       21 0.91107893E-01 0.15529982E+03</pdfrwt>
<totfact> 0.27710803E+04</totfact>
</mgrwt>
</event>
<event>
 4    1  0.6024238E+003  0.1055136E+03  0.7546771E-02  0.1269111E+00
         21   -1    0    0  502  501  0.00000000000E+00  0.00000000000E+00  0.12289132942E+03  0.12289132942E+03  0.00000000000E+00 0. -1.
         21   -1    0    0  504  502 -0.00000000000E+00 -0.00000000000E+00 -0.22635074930E+03  0.22635074930E+03  0.00000000000E+00 0.  1.
         21    1    1    2  503  501  0.10522591064E+03 -0.77867324111E+01  0.83504792754E+02  0.13455919100E+03  0.00000000000E+00 0. -1.
         21    1    1    2  504  503 -0.10522591064E+03  0.77867324111E+01 -0.18696421264E+03  0.21468288772E+03  0.00000000000E+00 0.  1.
<mgrwt>
<rscale>  2 0.10551363E+03</rscale>
<asrwt>0</asrwt>
<pdfrwt beam="1">  1       21 0.18906358E-01 0.10551363E+03</pdfrwt>
<pdfrwt beam="2">  1       21 0.34823192E-01 0.10551363E+03</pdfrwt>
<totfact> 0.20855720E+05</totfact>
</mgrwt>
</event>
<event>
 4    1  0.6024238E+003  0.1106487E+03  0.7546771E-02  0.1259373E+00
         21   -1    0    0  503  501  0.00000000000E+00  0.00000000000E+00  0.42988430541E+03  0.42988430541E+03  0.00000000000E+00 0. -1.
         21   -1    0    0  504  502 -0.00000000000E+00 -0.00000000000E+00 -0.63619553756E+02  0.63619553756E+02  0.00000000000E+00 0. -1.
         21    1    1    2  503  502  0.10990377373E+03 -0.12817693848E+02 -0.25226985918E+00  0.11064897829E+03  0.00000000000E+00 0. -1.
         21    1    1    2  504  501 -0.10990377373E+03  0.12817693848E+02  0.36651702151E+03  0.38285488088E+03  0.00000000000E+00 0. -1.
<mgrwt>
<rscale>  2 0.11064869E+03</rscale>
<asrwt>0</asrwt>
<pdfrwt beam="1">  1       21 0.66136045E-01 0.11064869E+03</pdfrwt>
<pdfrwt beam="2">  1       21 0.97876239E-02 0.11064869E+03</pdfrwt>
<totfact> 0.18139579E+05</totfact>
</mgrwt>
</event>
<event>
 4    1  0.6024238E+003  0.1306732E+03  0.7546771E-02  0.1226460E+00
         21   -1    0    0  504  501  0.00000000000E+00  0.00000000000E+00  0.13157967760E+03  0.13157967760E+03  0.00000000000E+00 0. -1.
         21   -1    0    0  501  502 -0.00000000000E+00 -0.00000000000E+00 -0.20460329315E+03  0.20460329315E+03  0.00000000000E+00 0.  1.
         21    1    1    2  503  502  0.60039420488E+02  0.11606359791E+03 -0.13816665697E+03  0.19017233203E+03  0.00000000000E+00 0.  1.
         21    1    1    2  504  503 -0.60039420488E+02 -0.11606359791E+03  0.65143041416E+02  0.14601063872E+03  0.00000000000E+00 0. -1.
<mgrwt>
<rscale>  2 0.13067322E+03</rscale>
<asrwt>0</asrwt>
<pdfrwt beam="1">  1       21 0.20243027E-01 0.13067322E+03</pdfrwt>
<pdfrwt beam="2">  1       21 0.31477430E-01 0.13067322E+03</pdfrwt>
<totfact> 0.22243120E+05</totfact>
</mgrwt>
</event>
<event>
 4    1  0.6024238E+003  0.1083377E+03  0.7546771E-02  0.1263680E+00
         21   -1    0    0  502  501  0.00000000000E+00  0.00000000000E+00  0.17845528721E+03  0.17845528721E+03  0.00000000000E+00 0.  1.
         21   -1    0    0  504  502 -0.00000000000E+00 -0.00000000000E+00 -0.41281188075E+03  0.41281188075E+03  0.00000000000E+00 0.  1.
         21    1    1    2  503  501  0.10636506802E+03  0.20579893843E+02  0.15388356946E+03  0.18819461383E+03  0.00000000000E+00 0.  1.
         21    1    1    2  504  503 -0.10636506802E+03 -0.20579893843E+02 -0.38824016300E+03  0.40307255413E+03  0.00000000000E+00 0.  1.
<mgrwt>
<rscale>  2 0.10833771E+03</rscale>
<asrwt>0</asrwt>
<pdfrwt beam="1">  1       21 0.27454660E-01 0.10833771E+03</pdfrwt>
<pdfrwt beam="2">  1       21 0.63509519E-01 0.10833771E+03</pdfrwt>
<totfact> 0.30562925E+04</totfact>
</mgrwt>
</event>
<event>
 4    1  0.6024238E+003  0.1162110E+03  0.7546771E-02  0.1249482E+00
         21   -1    0    0  502  501  0.00000000000E+00  0.00000000000E+00  0.51441938151E+02  0.51441938151E+02  0.00000000000E+00 0.  1.
         21   -1    0    0  503  502 -0.00000000000E+00 -0.00000000000E+00 -0.27157689852E+03  0.27157689852E+03  0.00000000000E+00 0.  1.
         21    1    1    2  503  504 -0.15291980650E+02  0.11520052004E+03 -0.13954720855E+03  0.18159963630E+03  0.00000000000E+00 0.  1.
         21    1    1    2  504  501  0.15291980650E+02 -0.11520052004E+03 -0.80587751823E+02  0.14141920037E+03  0.00000000000E+00 0.  1.
<mgrwt>
<rscale>  2 0.11621103E+03</rscale>
<asrwt>0</asrwt>
<pdfrwt beam="1">  1       21 0.79141442E-02 0.11621103E+03</pdfrwt>
<pdfrwt beam="2">  1       21 0.41781062E-01 0.11621103E+03</pdfrwt>
<totfact> 0.67810856E+05</totfact>
</mgrwt>
</event>
<event>
 4    1  0.6024238E+003  0.1037834E+03  0.7546771E-02  0.1272535E+00
         21   -1    0    0  503  501  0.00000000000E+00  0.00000000000E+00  0.22106918663E+02  0.22106918663E+02  0.00000000000E+00 0.  1.
         21   -1    0    0  504  502 -0.00000000000E+00 -0.00000000000E+00 -0.72984796865E+03  0.72984796865E+03  0.00000000000E+00 0.  1.
         21    1    1    2  503  502  0.44368219101E+02 -0.93821444657E+02 -0.13709352135E+03  0.17194660781E+03  0.00000000000E+00 0.  1.
         21    1    1    2  504  501 -0.44368219101E+02  0.93821444657E+02 -0.57064752864E+03  0.58000827950E+03  0.00000000000E+00 0.  1.
<mgrwt>
<rscale>  2 0.10378344E+03</rscale>
<asrwt>0</asrwt>
<pdfrwt beam="1">  1       21 0.34010644E-02 0.10378344E+03</pdfrwt>
<pdfrwt beam="2">  1       21 0.11228430E+00 0.10378344E+03</pdfrwt>
<totfact> 0.32681947E+05</totfact>
</mgrwt>
</event>
<event>
 4    1  0.6024238E+003  0.1089180E+03  0.7546771E-02  0.1262587E+00
         21   -1    0    0  502  501  0.00000000000E+00  0.00000000000E+00  0.25549772828E+03  0.25549772828E+03  0.00000000000E+00 0.  1.
         21   -1    0    0  504  502 -0.00000000000E+00 -0.00000000000E+00 -0.13091964170E+03  0.13091964170E+03  0.00000000000E+00 0.  1.
         21    1    1    2  503  501 -0.55112518157E+02 -0.93945440967E+02  0.21749993442E+03  0.24324752210E+03  0.00000000000E+00 0.  1.
         21    1    1    2  504  503  0.55112518157E+02  0.93945440967E+02 -0.92921847840E+02  0.14316984788E+03  0.00000000000E+00 0.  1.
<mgrwt>
<rscale>  2 0.10891802E+03</rscale>
<asrwt>0</asrwt>
<pdfrwt beam="1">  1       21 0.39307343E-01 0.10891802E+03</pdfrwt>
<pdfrwt beam="2">  1       21 0.20141483E-01 0.10891802E+03</pdfrwt>
<totfact> 0.14614766E+05</totfact>
</mgrwt>
</event>
<event>
 4    1  0.6024238E+003  0.1210929E+03  0.7546771E-02  0.1241305E+00
         21   -1    0    0  502  501  0.00000000000E+00  0.00000000000E+00  0.19660722864E+04  0.19660722864E+04  0.00000000000E+00 0.  1.
         21   -1    0    0  503  502 -0.00000000000E+00 -0.00000000000E+00 -0.79927279496E+02  0.79927279496E+02  0.00000000000E+00 0.  1.
         21    1    1    2  503  504  0.93188791109E+02  0.77326158991E+02 -0.31028986238E+02  0.12500513445E+03  0.00000000000E+00 0.  1.
         21    1    1    2  504  501 -0.93188791109E+02 -0.77326158991E+02  0.19171739931E+04  0.19209944314E+04  0.00000000000E+00 0.  1.
<mgrwt>
<rscale>  2 0.12109288E+03</rscale>
<asrwt>0</asrwt>
<pdfrwt beam="1">  1       21 0.30247262E+00 0.12109288E+03</pdfrwt>
<pdfrwt beam="2">  1       21 0.12296506E-01 0.12109288E+03</pdfrwt>
<totfact> 0.20743341E+03</totfact>
</mgrwt>
</event>
<event>
 4    1  0.6024238E+003  0.1125632E+03  0.7546771E-02  0.1255896E+00
         21   -1    0    0  502  501  0.00000000000E+00  0.00000000000E+00  0.66776000905E+03  0.66776000905E+03  0.00000000000E+00 0.  1.
         21   -1    0    0  503  502 -0.00000000000E+00 -0.00000000000E+00 -0.80035293657E+02  0.80035293657E+02  0.00000000000E+00 0. -1.
         21    1    1    2  503  504  0.92737933333E+02  0.63797695332E+02 -0.32720120121E+02  0.11722233776E+03  0.00000000000E+00 0. -1.
         21    1    1    2  504  501 -0.92737933333E+02 -0.63797695332E+02  0.62044483552E+03  0.63057296495E+03  0.00000000000E+00 0.  1.
<mgrwt>
<rscale>  2 0.11256318E+03</rscale>
<asrwt>0</asrwt>
<pdfrwt beam="1">  1       21 0.10273230E+00 0.11256318E+03</pdfrwt>
<pdfrwt beam="2">  1       21 0.12313123E-01 0.11256318E+03</pdfrwt>
<totfact> 0.45169230E+04</totfact>
</mgrwt>
</event>
<event>
 4    1  0.6024238E+003  0.1350627E+03  0.7546771E-02  0.1220131E+00
         21   -1    0    0  504  501  0.00000000000E+00  0.00000000000E+00  0.70700657826E+03  0.70700657826E+03  0.00000000000E+00 0. -1.
         21   -1    0    0  503  502 -0.00000000000E+00 -0.00000000000E+00 -0.27846078463E+02  0.27846078463E+02  0.00000000000E+00 0. -1.
         21    1    1    2  503  501  0.92397954559E+02  0.98511670258E+02  0.43913797782E+03  0.45943889120E+03  0.00000000000E+00 0. -1.
         21    1    1    2  504  502 -0.92397954559E+02 -0.98511670258E+02  0.24002252198E+03  0.27541376553E+03  0.00000000000E+00 0. -1.
<mgrwt>
<rscale>  2 0.13506269E+03</rscale>
<asrwt>0</asrwt>
<pdfrwt beam="1">  1       21 0.10877023E+00 0.13506269E+03</pdfrwt>
<pdfrwt beam="2">  1       21 0.42840126E-02 0.13506269E+03</pdfrwt>
<totfact> 0.23853639E+05</totfact>
</mgrwt>
</event>
<event>
 4    1  0.6024238E+003  0.1128982E+03  0.7546771E-02  0.1255295E+00
         21   -1    0    0  504  501  0.00000000000E+00  0.00000000000E+00  0.80105385810E+02  0.80105385810E+02  0.00000000000E+00 0.  1.
         21   -1    0    0  503  502 -0.00000000000E+00 -0.00000000000E+00 -0.28316864775E+03  0.28316864775E+03  0.00000000000E+00 0. -1.
         21    1    1    2  503  501 -0.92826926785E+02 -0.64258544414E+02  0.18690904282E+02  0.11443491062E+03  0.00000000000E+00 0.  1.
         21    1    1    2  504  502  0.92826926785E+02  0.64258544414E+02 -0.22175416622E+03  0.24883912293E+03  0.00000000000E+00 0. -1.
<mgrwt>
<rscale>  2 0.11289818E+03</rscale>
<asrwt>0</asrwt>
<pdfrwt beam="1">  1       21 0.12323905E-01 0.11289818E+03</pdfrwt>
<pdfrwt beam="2">  1       21 0.43564408E-01 0.11289818E+03</pdfrwt>
<totfact> 0.28823447E+05</totfact>
</mgrwt>
</event>
<event>
 4    1  0.6024238E+003  0.1110381E+03  0.7546771E-02  0.1258659E+00
         21   -1    0    0  503  501  0.00000000000E+00  0.00000000000E+00  0.13908433845E+04  0.13908433845E+04  0.00000000000E+00 0. -1.
         21   -1    0    0  504  502 -0.00000000000E+00 -0.00000000000E+00 -0.20829149126E+03  0.20829149126E+03  0.00000000000E+00 0. -1.
         21    1    1    2  503  502 -0.48460823416E+02 -0.99904993640E+02  0.13736438882E+04  0.13781244468E+04  0.00000000000E+00 0. -1.
         21    1    1    2  504  501  0.48460823416E+02  0.99904993640E+02 -0.19109199500E+03  0.22101042897E+03  0.00000000000E+00 0. -1.
<mgrwt>
<rscale>  2 0.11103810E+03</rscale>
<asrwt>0</asrwt>
<pdfrwt beam="1">  1       21 0.21397590E+00 0.11103810E+03</pdfrwt>
<pdfrwt beam="2">  1       21 0.32044846E-01 0.11103810E+03</pdfrwt>
<totfact> 0.11543565E+03</totfact>
</mgrwt>
</event>
<event>
 4    1  0.6024238E+003  0.1076638E+03  0.7546771E-02  0.1264958E+00
         21   -1    0    0  504  501  0.00000000000E+00  0.00000000000E+00  0.13100646912E+03  0.13100646912E+03  0.00000000000E+00 0. -1.
         21   -1    0    0  503  502 -0.00000000000E+00 -0.00000000000E+00 -0.13660324407E+03  0.13660324407E+03  0.00000000000E+00 0. -1.
         21    1    1    2  503  501 -0.41382625322E+02 -0.99393042759E+02  0.76619297960E+02  0.13214391945E+03  0.00000000000E+00 0. -1.
         21    1    1    2  504  502  0.41382625322E+02  0.99393042759E+02 -0.82216072913E+02  0.13546579374E+03  0.00000000000E+00 0. -1.
<mgrwt>
<rscale>  2 0.10766382E+03</rscale>
<asrwt>0</asrwt>
<pdfrwt beam="1">  1       21 0.20154841E-01 0.10766382E+03</pdfrwt>
<pdfrwt beam="2">  1       21 0.21015884E-01 0.10766382E+03</pdfrwt>
<totfact> 0.48340329E+05</totfact>
</mgrwt>
</event>
<event>
 4    1  0.6024238E+003  0.1181270E+03  0.7546771E-02  0.1246219E+00
         21   -1    0    0  503  501  0.00000000000E+00  0.00000000000E+00  0.91835591834E+03  0.91835591834E+03  0.00000000000E+00 0. -1.
         21   -1    0    0  504  502 -0.00000000000E+00 -0.00000000000E+00 -0.15201807006E+02  0.15201807006E+02  0.00000000000E+00 0. -1.
         21    1    1    2  503  502  0.24449854096E+00 -0.11812675877E+03  0.46178640392E+03  0.47665571828E+03  0.00000000000E+00 0. -1.
         21    1    1    2  504  501 -0.24449854096E+00  0.11812675877E+03  0.44136770741E+03  0.45690200707E+03  0.00000000000E+00 0. -1.
<mgrwt>
<rscale>  2 0.11812701E+03</rscale>
<asrwt>0</asrwt>
<pdfrwt beam="1">  1       21 0.14128548E+00 0.11812701E+03</pdfrwt>
<pdfrwt beam="2">  1       21 0.23387403E-02 0.11812701E+03</pdfrwt>
<totfact> 0.34089243E+05</totfact>
</mgrwt>
</event>
<event>
 4    1  0.6024238E+003  0.1634316E+03  0.7546771E-02  0.1184876E+00
         21   -1    0    0  503  501  0.00000000000E+00  0.00000000000E+00  0.33892469668E+03  0.33892469668E+03  0.00000000000E+00 0.  1.
         21   -1    0    0  504  502 -0.00000000000E+00 -0.00000000000E+00 -0.21131047459E+03  0.21131047459E+03  0.00000000000E+00 0.  1.
         21    1    1    2  503  502 -0.13154831589E+03  0.96979029757E+02 -0.15404925176E+03  0.22459088048E+03  0.00000000000E+00 0.  1.
         21    1    1    2  504  501  0.13154831589E+03 -0.96979029757E+02  0.28166347385E+03  0.32564429080E+03  0.00000000000E+00 0.  1.
<mgrwt>
<rscale>  2 0.16343161E+03</rscale>
<asrwt>0</asrwt>
<pdfrwt beam="1">  1       21 0.52142261E-01 0.16343161E+03</pdfrwt>
<pdfrwt beam="2">  1       21 0.32509304E-01 0.16343161E+03</pdfrwt>
<totfact> 0.32298233E+04</totfact>
</mgrwt>
</event>
<event>
 4    1  0.6024238E+003  0.1401886E+03  0.7546771E-02  0.1213075E+00
         21   -1    0    0  503  501  0.00000000000E+00  0.00000000000E+00  0.16768271174E+03  0.16768271174E+03  0.00000000000E+00 0.  1.
         21   -1    0    0  504  502 -0.00000000000E+00 -0.00000000000E+00 -0.36357688260E+03  0.36357688260E+03  0.00000000000E+00 0.  1.
         21    1    1    2  503  502  0.25248801285E+02 -0.13789608148E+03 -0.31661066013E+03  0.34625877803E+03  0.00000000000E+00 0.  1.
         21    1    1    2  504  501 -0.25248801285E+02  0.13789608148E+03  0.12071648928E+03  0.18500081631E+03  0.00000000000E+00 0.  1.
<mgrwt>
<rscale>  2 0.14018856E+03</rscale>
<asrwt>0</asrwt>
<pdfrwt beam="1">  1       21 0.25797341E-01 0.14018856E+03</pdfrwt>
<pdfrwt beam="2">  1       21 0.55934904E-01 0.14018856E+03</pdfrwt>
<totfact> 0.44104126E+04</totfact>
</mgrwt>
</event>
<event>
 4    1  0.6024238E+003  0.1688660E+03  0.7546771E-02  0.1179036E+00
         21   -1    0    0  502  501  0.00000000000E+00  0.00000000000E+00  0.20286898855E+03  0.20286898855E+03  0.00000000000E+00 0.  1.
         21   -1    0    0  504  502 -0.00000000000E+00 -0.00000000000E+00 -0.25514517550E+03  0.25514517550E+03  0.00000000000E+00 0. -1.
         21    1    1    2  503  501  0.15130106794E+03  0.74991343275E+02  0.12732899327E+03  0.21149086802E+03  0.00000000000E+00 0.  1.
         21    1    1    2  504  503 -0.15130106794E+03 -0.74991343275E+02 -0.17960518023E+03  0.24652329604E+03  0.00000000000E+00 0. -1.
<mgrwt>
<rscale>  2 0.16886597E+03</rscale>
<asrwt>0</asrwt>
<pdfrwt beam="1">  1       21 0.31210614E-01 0.16886597E+03</pdfrwt>
<pdfrwt beam="2">  1       21 0.39253104E-01 0.16886597E+03</pdfrwt>
<totfact> 0.62383269E+04</totfact>
</mgrwt>
</event>
<event>
 4    1  0.6024238E+003  0.1021292E+03  0.7546771E-02  0.1275881E+00
         21   -1    0    0  503  501  0.00000000000E+00  0.00000000000E+00  0.21146583648E+02  0.21146583648E+02  0.00000000000E+00 0. -1.
         21   -1    0    0  504  502 -0.00000000000E+00 -0.00000000000E+00 -0.49751914542E+03  0.49751914542E+03  0.00000000000E+00 0. -1.
         21    1    1    2  503  502 -0.41242553030E+00  0.10212836599E+03 -0.26223287765E+03  0.28141864785E+03  0.00000000000E+00 0. -1.
         21    1    1    2  504  501  0.41242553030E+00 -0.10212836599E+03 -0.21413968412E+03  0.23724708122E+03  0.00000000000E+00 0. -1.
<mgrwt>
<rscale>  2 0.10212920E+03</rscale>
<asrwt>0</asrwt>
<pdfrwt beam="1">  1       21 0.32533207E-02 0.10212920E+03</pdfrwt>
<pdfrwt beam="2">  1       21 0.76541404E-01 0.10212920E+03</pdfrwt>
<totfact> 0.84466224E+05</totfact>
</mgrwt>
</event>
<event>
 4    1  0.6024238E+003  0.1632170E+03  0.7546771E-02  0.1185112E+00
         21   -1    0    0  504  501  0.00000000000E+00  0.00000000000E+00  0.43420153940E+02  0.43420153940E+02  0.00000000000E+00 0.  1.
         21   -1    0    0  503  502 -0.00000000000E+00 -0.00000000000E+00 -0.19120918055E+04  0.19120918055E+04  0.00000000000E+00 0.  1.
         21    1    1    2  503  501  0.16122975011E+03  0.25392354805E+02 -0.12857432983E+03  0.20777671258E+03  0.00000000000E+00 0.  1.
         21    1    1    2  504  502 -0.16122975011E+03 -0.25392354805E+02 -0.17400973217E+04  0.17477352469E+04  0.00000000000E+00 0.  1.
<mgrwt>
<rscale>  2 0.16321705E+03</rscale>
<asrwt>0</asrwt>
<pdfrwt beam="1">  1       21 0.66800251E-02 0.16321705E+03</pdfrwt>
<pdfrwt beam="2">  1       21 0.29416791E+00 0.16321705E+03</pdfrwt>
<totfact> 0.62644587E+03</totfact>
</mgrwt>
</event>
<event>
 4    1  0.6024238E+003  0.1437834E+03  0.7546771E-02  0.1208327E+00
         21   -1    0    0  503  501  0.00000000000E+00  0.00000000000E+00  0.15875807795E+02  0.15875807795E+02  0.00000000000E+00 0.  1.
         21   -1    0    0  501  502 -0.00000000000E+00 -0.00000000000E+00 -0.20589325247E+04  0.20589325247E+04  0.00000000000E+00 0. -1.
         21    1    1    2  503  504  0.14098874918E+03 -0.28210513912E+02 -0.39260921714E+03  0.41810962423E+03  0.00000000000E+00 0.  1.
         21    1    1    2  504  502 -0.14098874918E+03  0.28210513912E+02 -0.16504474998E+04  0.16566987083E+04  0.00000000000E+00 0. -1.
<mgrwt>
<rscale>  2 0.14378338E+03</rscale>
<asrwt>0</asrwt>
<pdfrwt beam="1">  1       21 0.24424324E-02 0.14378338E+03</pdfrwt>
<pdfrwt beam="2">  1       21 0.31675879E+00 0.14378338E+03</pdfrwt>
<totfact> 0.25641332E+04</totfact>
</mgrwt>
</event>
<event>
 4    1  0.6024238E+003  0.1139124E+03  0.7546771E-02  0.1253492E+00
         21   -1    0    0  504  501  0.00000000000E+00  0.00000000000E+00  0.12469130935E+03  0.12469130935E+03  0.00000000000E+00 0.  1.
         21   -1    0    0  503  502 -0.00000000000E+00 -0.00000000000E+00 -0.10481528003E+03  0.10481528003E+03  0.00000000000E+00 0.  1.
         21    1    1    2  503  501 -0.60253279996E+01 -0.11375289642E+03  0.19645499547E+02  0.11559399497E+03  0.00000000000E+00 0.  1.
         21    1    1    2  504  502  0.60253279996E+01  0.11375289642E+03  0.23052976744E+00  0.11391259441E+03  0.00000000000E+00 0.  1.
<mgrwt>
<rscale>  2 0.11391236E+03</rscale>
<asrwt>0</asrwt>
<pdfrwt beam="1">  1       21 0.19183278E-01 0.11391236E+03</pdfrwt>
<pdfrwt beam="2">  1       21 0.16125428E-01 0.11391236E+03</pdfrwt>
<totfact> 0.85897526E+05</totfact>
</mgrwt>
</event>
<event>
 4    1  0.6024238E+003  0.1062307E+03  0.7546771E-02  0.1267714E+00
         21   -1    0    0  503  501  0.00000000000E+00  0.00000000000E+00  0.90950997770E+01  0.90950997770E+01  0.00000000000E+00 0.  1.
         21   -1    0    0  501  502 -0.00000000000E+00 -0.00000000000E+00 -0.14875125167E+04  0.14875125167E+04  0.00000000000E+00 0.  1.
         21    1    1    2  503  504  0.69196223058E+02  0.80603036159E+02 -0.43444321900E+03  0.44724252622E+03  0.00000000000E+00 0.  1.
         21    1    1    2  504  502 -0.69196223058E+02 -0.80603036159E+02 -0.10439741979E+04  0.10493650903E+04  0.00000000000E+00 0.  1.
<mgrwt>
<rscale>  2 0.10623072E+03</rscale>
<asrwt>0</asrwt>
<pdfrwt beam="1">  1       21 0.13992457E-02 0.10623072E+03</pdfrwt>
<pdfrwt beam="2">  1       21 0.22884815E+00 0.10623072E+03</pdfrwt>
<totfact> 0.20598439E+05</totfact>
</mgrwt>
</event>
<event>
 4    1  0.6024238E+003  0.1458591E+03  0.7546771E-02  0.1205656E+00
         21   -1    0    0  502  501  0.00000000000E+00  0.00000000000E+00  0.42476914451E+03  0.42476914451E+03  0.00000000000E+00 0.  1.
         21   -1    0    0  504  502 -0.00000000000E+00 -0.00000000000E+00 -0.90188288533E+02  0.90188288533E+02  0.00000000000E+00 0.  1.
         21    1    1    2  503  501 -0.14297666666E+03  0.28853781606E+02  0.33898333906E+03  0.36903193911E+03  0.00000000000E+00 0.  1.
         21    1    1    2  504  503  0.14297666666E+03 -0.28853781606E+02 -0.44024830889E+01  0.14592549393E+03  0.00000000000E+00 0.  1.
<mgrwt>
<rscale>  2 0.14585907E+03</rscale>
<asrwt>0</asrwt>
<pdfrwt beam="1">  1       21 0.65349098E-01 0.14585907E+03</pdfrwt>
<pdfrwt beam="2">  1       21 0.13875122E-01 0.14585907E+03</pdfrwt>
<totfact> 0.99165726E+04</totfact>
</mgrwt>
</event>
<event>
 4    1  0.6024238E+003  0.1118726E+03  0.7546771E-02  0.1257141E+00
         21   -1    0    0  504  501  0.00000000000E+00  0.00000000000E+00  0.10039747313E+04  0.10039747313E+04  0.00000000000E+00 0. -1.
         21   -1    0    0  503  502 -0.00000000000E+00 -0.00000000000E+00 -0.23864447146E+02  0.23864447146E+02  0.00000000000E+00 0. -1.
         21    1    1    2  503  501 -0.88126279299E+02  0.68914722939E+02  0.84523116073E+03  0.85260260099E+03  0.00000000000E+00 0. -1.
         21    1    1    2  504  502  0.88126279299E+02 -0.68914722939E+02  0.13487912338E+03  0.17523657742E+03  0.00000000000E+00 0. -1.
<mgrwt>
<rscale>  2 0.11187261E+03</rscale>
<asrwt>0</asrwt>
<pdfrwt beam="1">  1       21 0.15445762E+00 0.11187261E+03</pdfrwt>
<pdfrwt beam="2">  1       21 0.36714542E-02 0.11187261E+03</pdfrwt>
<totfact> 0.13014043E+05</totfact>
</mgrwt>
</event>
<event>
 4    1  0.6024238E+003  0.1071040E+03  0.7546771E-02  0.1266029E+00
         21   -1    0    0  504  501  0.00000000000E+00  0.00000000000E+00  0.36210938521E+02  0.36210938521E+02  0.00000000000E+00 0.  1.
         21   -1    0    0  503  502 -0.00000000000E+00 -0.00000000000E+00 -0.59535795280E+03  0.59535795280E+03  0.00000000000E+00 0. -1.
         21    1    1    2  503  501 -0.97559897458E+02 -0.44196471179E+02 -0.63566785979E+02  0.12454717153E+03  0.00000000000E+00 0.  1.
         21    1    1    2  504  502  0.97559897458E+02  0.44196471179E+02 -0.49558022830E+03  0.50702171979E+03  0.00000000000E+00 0. -1.
<mgrwt>
<rscale>  2 0.10710398E+03</rscale>
<asrwt>0</asrwt>
<pdfrwt beam="1">  1       21 0.55709137E-02 0.10710398E+03</pdfrwt>
<pdfrwt beam="2">  1       21 0.91593530E-01 0.10710398E+03</pdfrwt>
<totfact> 0.23147024E+05</totfact>
</mgrwt>
</event>
<event>
 4    1  0.6024238E+003  0.1255020E+03  0.7546771E-02  0.1234287E+00
         21   -1    0    0  504  501  0.00000000000E+00  0.00000000000E+00  0.11969091861E+03  0.11969091861E+03  0.00000000000E+00 0. -1.
         21   -1    0    0  501  502 -0.00000000000E+00 -0.00000000000E+00 -0.21205818306E+03  0.21205818306E+03  0.00000000000E+00 0. -1.
         21    1    1    2  503  502  0.52799211267E+02  0.11385519629E+03 -0.14835989991E+03  0.19432298457E+03  0.00000000000E+00 0. -1.
         21    1    1    2  504  503 -0.52799211267E+02 -0.11385519629E+03  0.55992635462E+02  0.13742611709E+03  0.00000000000E+00 0. -1.
<mgrwt>
<rscale>  2 0.12550204E+03</rscale>
<asrwt>0</asrwt>
<pdfrwt beam="1">  1       21 0.18413988E-01 0.12550204E+03</pdfrwt>
<pdfrwt beam="2">  1       21 0.32624336E-01 0.12550204E+03</pdfrwt>
<totfact> 0.24732574E+05</totfact>
</mgrwt>
</event>
<event>
 4    1  0.6024238E+003  0.1006290E+03  0.7546771E-02  0.1278979E+00
         21   -1    0    0  503  501  0.00000000000E+00  0.00000000000E+00  0.13073728750E+03  0.13073728750E+03  0.00000000000E+00 0. -1.
         21   -1    0    0  504  502 -0.00000000000E+00 -0.00000000000E+00 -0.83227050558E+02  0.83227050558E+02  0.00000000000E+00 0. -1.
         21    1    1    2  503  502  0.34997855147E+02 -0.94346974283E+02  0.51929869583E+02  0.11323830084E+03  0.00000000000E+00 0. -1.
         21    1    1    2  504  501 -0.34997855147E+02  0.94346974283E+02 -0.44196326433E+01  0.10072603722E+03  0.00000000000E+00 0. -1.
<mgrwt>
<rscale>  2 0.10062903E+03</rscale>
<asrwt>0</asrwt>
<pdfrwt beam="1">  1       21 0.20113429E-01 0.10062903E+03</pdfrwt>
<pdfrwt beam="2">  1       21 0.12804162E-01 0.10062903E+03</pdfrwt>
<totfact> 0.11871063E+06</totfact>
</mgrwt>
</event>
<event>
 4    1  0.6024238E+003  0.1469911E+03  0.7546771E-02  0.1204220E+00
         21   -1    0    0  504  501  0.00000000000E+00  0.00000000000E+00  0.81324311715E+03  0.81324311715E+03  0.00000000000E+00 0. -1.
         21   -1    0    0  501  502 -0.00000000000E+00 -0.00000000000E+00 -0.91657803113E+02  0.91657803113E+02  0.00000000000E+00 0.  1.
         21    1    1    2  503  502 -0.42079211126E+02 -0.14083934709E+03 -0.20485760851E+02  0.14841175188E+03  0.00000000000E+00 0.  1.
         21    1    1    2  504  503  0.42079211126E+02  0.14083934709E+03  0.74207107489E+03  0.75648916839E+03  0.00000000000E+00 0. -1.
<mgrwt>
<rscale>  2 0.14699109E+03</rscale>
<asrwt>0</asrwt>
<pdfrwt beam="1">  1       21 0.12511432E+00 0.14699109E+03</pdfrwt>
<pdfrwt beam="2">  1       21 0.14101201E-01 0.14699109E+03</pdfrwt>
<totfact> 0.21537000E+04</totfact>
</mgrwt>
</event>
<event>
 4    1  0.6024238E+003  0.1144008E+03  0.7546771E-02  0.1252631E+00
         21   -1    0    0  503  501  0.00000000000E+00  0.00000000000E+00  0.39352248194E+02  0.39352248194E+02  0.00000000000E+00 0. -1.
         21   -1    0    0  501  502 -0.00000000000E+00 -0.00000000000E+00 -0.24891332769E+04  0.24891332769E+04  0.00000000000E+00 0.  1.
         21    1    1    2  503  504  0.37162073673E+02 -0.10819669007E+03 -0.48132735208E+02  0.12411407519E+03  0.00000000000E+00 0. -1.
         21    1    1    2  504  502 -0.37162073673E+02  0.10819669007E+03 -0.24016482935E+04  0.24043714499E+04  0.00000000000E+00 0.  1.
<mgrwt>
<rscale>  2 0.11440080E+03</rscale>
<asrwt>0</asrwt>
<pdfrwt beam="1">  1       21 0.60541936E-02 0.11440080E+03</pdfrwt>
<pdfrwt beam="2">  1       21 0.38294348E+00 0.11440080E+03</pdfrwt>
<totfact> 0.24814570E+03</totfact>
</mgrwt>
</event>
<event>
 4    1  0.6024238E+003  0.1116288E+03  0.7546771E-02  0.1257583E+00
         21   -1    0    0  504  501  0.00000000000E+00  0.00000000000E+00  0.12108913684E+03  0.12108913684E+03  0.00000000000E+00 0.  1.
         21   -1    0    0  503  502 -0.00000000000E+00 -0.00000000000E+00 -0.10331996717E+03  0.10331996717E+03  0.00000000000E+00 0. -1.
         21    1    1    2  503  501  0.11004839566E+03 -0.18717614874E+02  0.17964144906E+01  0.11164329625E+03  0.00000000000E+00 0. -1.
         21    1    1    2  504  502 -0.11004839566E+03  0.18717614874E+02  0.15972755176E+02  0.11276580776E+03  0.00000000000E+00 0.  1.
<mgrwt>
<rscale>  2 0.11162884E+03</rscale>
<asrwt>0</asrwt>
<pdfrwt beam="1">  1       21 0.18629098E-01 0.11162884E+03</pdfrwt>
<pdfrwt beam="2">  1       21 0.15895380E-01 0.11162884E+03</pdfrwt>
<totfact> 0.93006733E+05</totfact>
</mgrwt>
</event>
<event>
 4    1  0.6024238E+003  0.1287043E+03  0.7546771E-02  0.1229391E+00
         21   -1    0    0  504  501  0.00000000000E+00  0.00000000000E+00  0.21291452234E+03  0.21291452234E+03  0.00000000000E+00 0. -1.
         21   -1    0    0  501  502 -0.00000000000E+00 -0.00000000000E+00 -0.98647167990E+03  0.98647167990E+03  0.00000000000E+00 0.  1.
         21    1    1    2  503  502 -0.20243172225E+02  0.12710236023E+03 -0.96233802548E+03  0.97090641737E+03  0.00000000000E+00 0.  1.
         21    1    1    2  504  503  0.20243172225E+02 -0.12710236023E+03  0.18878086792E+03  0.22847978486E+03  0.00000000000E+00 0. -1.
<mgrwt>
<rscale>  2 0.12870430E+03</rscale>
<asrwt>0</asrwt>
<pdfrwt beam="1">  1       21 0.32756081E-01 0.12870430E+03</pdfrwt>
<pdfrwt beam="2">  1       21 0.15176487E+00 0.12870430E+03</pdfrwt>
<totfact> 0.27831115E+03</totfact>
</mgrwt>
</event>
<event>
 4    1  0.6024238E+003  0.1254687E+03  0.7546771E-02  0.1234339E+00
         21   -1    0    0  503  501  0.00000000000E+00  0.00000000000E+00  0.23747473069E+03  0.23747473069E+03  0.00000000000E+00 0.  1.
         21   -1    0    0  504  502 -0.00000000000E+00 -0.00000000000E+00 -0.15188355120E+03  0.15188355120E+03  0.00000000000E+00 0. -1.
         21    1    1    2  503  502 -0.11552724337E+03 -0.48947351982E+02 -0.10334894234E+03  0.16255273332E+03  0.00000000000E+00 0. -1.
         21    1    1    2  504  501  0.11552724337E+03  0.48947351982E+02  0.18894012182E+03  0.22680554857E+03  0.00000000000E+00 0.  1.
<mgrwt>
<rscale>  2 0.12546867E+03</rscale>
<asrwt>0</asrwt>
<pdfrwt beam="1">  1       21 0.36534574E-01 0.12546867E+03</pdfrwt>
<pdfrwt beam="2">  1       21 0.23366700E-01 0.12546867E+03</pdfrwt>
<totfact> 0.12738764E+05</totfact>
</mgrwt>
</event>
<event>
 4    1  0.6024238E+003  0.1284439E+03  0.7546771E-02  0.1229783E+00
         21   -1    0    0  504  501  0.00000000000E+00  0.00000000000E+00  0.22184473971E+03  0.22184473971E+03  0.00000000000E+00 0. -1.
         21   -1    0    0  503  502 -0.00000000000E+00 -0.00000000000E+00 -0.11877725618E+03  0.11877725618E+03  0.00000000000E+00 0. -1.
         21    1    1    2  503  501  0.11151606062E+03 -0.63733784889E+02 -0.52606817803E+02  0.13879951150E+03  0.00000000000E+00 0. -1.
         21    1    1    2  504  502 -0.11151606062E+03  0.63733784889E+02  0.15567430133E+03  0.20182248439E+03  0.00000000000E+00 0. -1.
<mgrwt>
<rscale>  2 0.12844387E+03</rscale>
<asrwt>0</asrwt>
<pdfrwt beam="1">  1       21 0.34129960E-01 0.12844387E+03</pdfrwt>
<pdfrwt beam="2">  1       21 0.18273424E-01 0.12844387E+03</pdfrwt>
<totfact> 0.22952664E+05</totfact>
</mgrwt>
</event>
<event>
 4    1  0.6024238E+003  0.1185525E+03  0.7546771E-02  0.1245504E+00
         21   -1    0    0  502  501  0.00000000000E+00  0.00000000000E+00  0.81512298281E+01  0.81512298281E+01  0.00000000000E+00 0.  1.
         21   -1    0    0  503  502 -0.00000000000E+00 -0.00000000000E+00 -0.17917805834E+04  0.17917805834E+04  0.00000000000E+00 0.  1.
         21    1    1    2  503  504  0.11119511430E+03 -0.41113835127E+02 -0.71708911797E+03  0.72682288351E+03  0.00000000000E+00 0.  1.
         21    1    1    2  504  501 -0.11119511430E+03  0.41113835127E+02 -0.10665402356E+04  0.10731089297E+04  0.00000000000E+00 0.  1.
<mgrwt>
<rscale>  2 0.11855252E+03</rscale>
<asrwt>0</asrwt>
<pdfrwt beam="1">  1       21 0.12540336E-02 0.11855252E+03</pdfrwt>
<pdfrwt beam="2">  1       21 0.27565895E+00 0.11855252E+03</pdfrwt>
<totfact> 0.13122419E+05</totfact>
</mgrwt>
</event>
<event>
 4    1  0.6024238E+003  0.1494146E+03  0.7546771E-02  0.1201194E+00
         21   -1    0    0  504  501  0.00000000000E+00  0.00000000000E+00  0.86813473053E+02  0.86813473053E+02  0.00000000000E+00 0. -1.
         21   -1    0    0  503  502 -0.00000000000E+00 -0.00000000000E+00 -0.63227224708E+03  0.63227224708E+03  0.00000000000E+00 0.  1.
         21    1    1    2  503  501  0.80401674149E+02 -0.12593766883E+03  0.42074612283E+01  0.14947383840E+03  0.00000000000E+00 0. -1.
         21    1    1    2  504  502 -0.80401674149E+02  0.12593766883E+03 -0.54966623526E+03  0.56961188174E+03  0.00000000000E+00 0.  1.
<mgrwt>
<rscale>  2 0.14941461E+03</rscale>
<asrwt>0</asrwt>
<pdfrwt beam="1">  1       21 0.13355918E-01 0.14941461E+03</pdfrwt>
<pdfrwt beam="2">  1       21 0.97272657E-01 0.14941461E+03</pdfrwt>
<totfact> 0.43426224E+04</totfact>
</mgrwt>
</event>
<event>
 4    1  0.6024238E+003  0.1290120E+03  0.7546771E-02  0.1228929E+00
         21   -1    0    0  503  501  0.00000000000E+00  0.00000000000E+00  0.93293036358E+02  0.93293036358E+02  0.00000000000E+00 0.  1.
         21   -1    0    0  501  502 -0.00000000000E+00 -0.00000000000E+00 -0.93216365507E+03  0.93216365507E+03  0.00000000000E+00 0. -1.
         21    1    1    2  503  504 -0.30838422091E+02 -0.12527200617E+03  0.41624184833E+02  0.13556052733E+03  0.00000000000E+00 0.  1.
         21    1    1    2  504  502  0.30838422091E+02  0.12527200617E+03 -0.88049480355E+03  0.88989616410E+03  0.00000000000E+00 0. -1.
<mgrwt>
<rscale>  2 0.12901195E+03</rscale>
<asrwt>0</asrwt>
<pdfrwt beam="1">  1       21 0.14352775E-01 0.12901195E+03</pdfrwt>
<pdfrwt beam="2">  1       21 0.14340980E+00 0.12901195E+03</pdfrwt>
<totfact> 0.15014584E+04</totfact>
</mgrwt>
</event>
<event>
 4    1  0.6024238E+003  0.1020195E+03  0.7546771E-02  0.1276106E+00
         21   -1    0    0  504  501  0.00000000000E+00  0.00000000000E+00  0.51147982697E+02  0.51147982697E+02  0.00000000000E+00 0. -1.
         21   -1    0    0  501  502 -0.00000000000E+00 -0.00000000000E+00 -0.83534394101E+03  0.83534394101E+03  0.00000000000E+00 0.  1.
         21    1    1    2  503  502  0.34300036667E+02  0.96080596502E+02 -0.77759528162E+03  0.78425913800E+03  0.00000000000E+00 0.  1.
         21    1    1    2  504  503 -0.34300036667E+02 -0.96080596502E+02 -0.66006766890E+01  0.10223278570E+03  0.00000000000E+00 0. -1.
<mgrwt>
<rscale>  2 0.10201948E+03</rscale>
<asrwt>0</asrwt>
<pdfrwt beam="1">  1       21 0.78689205E-02 0.10201948E+03</pdfrwt>
<pdfrwt beam="2">  1       21 0.12851445E+00 0.10201948E+03</pdfrwt>
<totfact> 0.57946969E+04</totfact>
</mgrwt>
</event>
<event>
 4    1  0.6024238E+003  0.1080512E+03  0.7546771E-02  0.1264222E+00
         21   -1    0    0  502  501  0.00000000000E+00  0.00000000000E+00  0.51985867102E+03  0.51985867102E+03  0.00000000000E+00 0. -1.
         21   -1    0    0  503  502 -0.00000000000E+00 -0.00000000000E+00 -0.29372724075E+02  0.29372724075E+02  0.00000000000E+00 0. -1.
         21    1    1    2  503  504 -0.36172146846E+02 -0.10181666376E+03  0.11200243699E+03  0.15562648592E+03  0.00000000000E+00 0. -1.
         21    1    1    2  504  501  0.36172146846E+02  0.10181666376E+03  0.37848350995E+03  0.39360490918E+03  0.00000000000E+00 0. -1.
<mgrwt>
<rscale>  2 0.10805118E+03</rscale>
<asrwt>0</asrwt>
<pdfrwt beam="1">  1       21 0.79978250E-01 0.10805118E+03</pdfrwt>
<pdfrwt beam="2">  1       21 0.45188810E-02 0.10805118E+03</pdfrwt>
<totfact> 0.44563748E+05</totfact>
</mgrwt>
</event>
<event>
 4    1  0.6024238E+003  0.1219856E+03  0.7546771E-02  0.1239857E+00
         21   -1    0    0  503  501  0.00000000000E+00  0.00000000000E+00  0.11807123198E+04  0.11807123198E+04  0.00000000000E+00 0.  1.
         21   -1    0    0  504  502 -0.00000000000E+00 -0.00000000000E+00 -0.73845759024E+02  0.73845759024E+02  0.00000000000E+00 0.  1.
         21    1    1    2  503  502 -0.11789340464E+03  0.31331014024E+02 -0.17815729792E+02  0.12327971254E+03  0.00000000000E+00 0.  1.
         21    1    1    2  504  501  0.11789340464E+03 -0.31331014024E+02  0.11246822905E+04  0.11312783663E+04  0.00000000000E+00 0.  1.
<mgrwt>
<rscale>  2 0.12198560E+03</rscale>
<asrwt>0</asrwt>
<pdfrwt beam="1">  1       21 0.18164804E+00 0.12198560E+03</pdfrwt>
<pdfrwt beam="2">  1       21 0.11360887E-01 0.12198560E+03</pdfrwt>
<totfact> 0.12233958E+04</totfact>
</mgrwt>
</event>
<event>
 4    1  0.6024238E+003  0.1027584E+03  0.7546771E-02  0.1274600E+00
         21   -1    0    0  502  501  0.00000000000E+00  0.00000000000E+00  0.89128621755E+03  0.89128621755E+03  0.00000000000E+00 0.  1.
         21   -1    0    0  503  502 -0.00000000000E+00 -0.00000000000E+00 -0.44444933207E+03  0.44444933207E+03  0.00000000000E+00 0.  1.
         21    1    1    2  503  504  0.17029929478E+02 -0.10133743372E+03 -0.43548785841E+03  0.44744716872E+03  0.00000000000E+00 0.  1.
         21    1    1    2  504  501 -0.17029929478E+02  0.10133743372E+03  0.88232474389E+03  0.88828838090E+03  0.00000000000E+00 0.  1.
<mgrwt>
<rscale>  2 0.10275843E+03</rscale>
<asrwt>0</asrwt>
<pdfrwt beam="1">  1       21 0.13712096E+00 0.10275843E+03</pdfrwt>
<pdfrwt beam="2">  1       21 0.68376821E-01 0.10275843E+03</pdfrwt>
<totfact> 0.83407572E+02</totfact>
</mgrwt>
</event>
<event>
 4    1  0.6024238E+003  0.1432648E+03  0.7546771E-02  0.1209002E+00
         21   -1    0    0  503  501  0.00000000000E+00  0.00000000000E+00  0.47885011192E+03  0.47885011192E+03  0.00000000000E+00 0. -1.
         21   -1    0    0  501  502 -0.00000000000E+00 -0.00000000000E+00 -0.74982329287E+03  0.74982329287E+03  0.00000000000E+00 0.  1.
         21    1    1    2  503  504  0.14320154993E+03  0.42566272517E+01  0.46103285488E+03  0.48277955224E+03  0.00000000000E+00 0. -1.
         21    1    1    2  504  502 -0.14320154993E+03 -0.42566272517E+01 -0.73200603583E+03  0.74589385255E+03  0.00000000000E+00 0.  1.
<mgrwt>
<rscale>  2 0.14326480E+03</rscale>
<asrwt>0</asrwt>
<pdfrwt beam="1">  1       21 0.73669248E-01 0.14326480E+03</pdfrwt>
<pdfrwt beam="2">  1       21 0.11535743E+00 0.14326480E+03</pdfrwt>
<totfact> 0.10184081E+03</totfact>
</mgrwt>
</event>
<event>
 4    1  0.6024238E+003  0.1262508E+03  0.7546771E-02  0.1233127E+00
         21   -1    0    0  502  501  0.00000000000E+00  0.00000000000E+00  0.25315426399E+03  0.25315426399E+03  0.00000000000E+00 0.  1.
         21   -1    0    0  504  502 -0.00000000000E+00 -0.00000000000E+00 -0.75478827652E+03  0.75478827652E+03  0.00000000000E+00 0. -1.
         21    1    1    2  503  501  0.62771074919E+02  0.10954022649E+03  0.23167655462E+03  0.26384331530E+03  0.00000000000E+00 0.  1.
         21    1    1    2  504  503 -0.62771074919E+02 -0.10954022649E+03 -0.73331056715E+03  0.74409922521E+03  0.00000000000E+00 0. -1.
<mgrwt>
<rscale>  2 0.12625082E+03</rscale>
<asrwt>0</asrwt>
<pdfrwt beam="1">  1       21 0.38946811E-01 0.12625082E+03</pdfrwt>
<pdfrwt beam="2">  1       21 0.11612127E+00 0.12625082E+03</pdfrwt>
<totfact> 0.38810115E+03</totfact>
</mgrwt>
</event>
<event>
 4    1  0.6024238E+003  0.1011642E+03  0.7546771E-02  0.1277867E+00
         21   -1    0    0  504  501  0.00000000000E+00  0.00000000000E+00  0.51039486082E+03  0.51039486082E+03  0.00000000000E+00 0.  1.
         21   -1    0    0  503  502 -0.00000000000E+00 -0.00000000000E+00 -0.38205043757E+03  0.38205043757E+03  0.00000000000E+00 0.  1.
         21    1    1    2  503  501  0.39300295803E+02 -0.93218412572E+02  0.49852729027E+03  0.50868816070E+03  0.00000000000E+00 0.  1.
         21    1    1    2  504  502 -0.39300295803E+02  0.93218412572E+02 -0.37018286702E+03  0.38375713769E+03  0.00000000000E+00 0.  1.
<mgrwt>
<rscale>  2 0.10116415E+03</rscale>
<asrwt>0</asrwt>
<pdfrwt beam="1">  1       21 0.78522287E-01 0.10116415E+03</pdfrwt>
<pdfrwt beam="2">  1       21 0.58776990E-01 0.10116415E+03</pdfrwt>
<totfact> 0.42638035E+03</totfact>
</mgrwt>
</event>
<event>
 4    1  0.6024238E+003  0.2277359E+03  0.7546771E-02  0.1128244E+00
         21   -1    0    0  504  501  0.00000000000E+00  0.00000000000E+00  0.81178326645E+02  0.81178326645E+02  0.00000000000E+00 0. -1.
         21   -1    0    0  503  502 -0.00000000000E+00 -0.00000000000E+00 -0.74323542559E+03  0.74323542559E+03  0.00000000000E+00 0. -1.
         21    1    1    2  503  501 -0.21813936098E+02 -0.22668876386E+03 -0.17657481288E+03  0.28817062309E+03  0.00000000000E+00 0. -1.
         21    1    1    2  504  502  0.21813936098E+02  0.22668876386E+03 -0.48548228607E+03  0.53624312915E+03  0.00000000000E+00 0. -1.
<mgrwt>
<rscale>  2 0.22773591E+03</rscale>
<asrwt>0</asrwt>
<pdfrwt beam="1">  1       21 0.12488974E-01 0.22773591E+03</pdfrwt>
<pdfrwt beam="2">  1       21 0.11434391E+00 0.22773591E+03</pdfrwt>
<totfact> 0.31853424E+04</totfact>
</mgrwt>
</event>
<event>
 4    1  0.6024238E+003  0.1185984E+03  0.7546771E-02  0.1245427E+00
         21   -1    0    0  503  501  0.00000000000E+00  0.00000000000E+00  0.14421904836E+04  0.14421904836E+04  0.00000000000E+00 0. -1.
         21   -1    0    0  504  502 -0.00000000000E+00 -0.00000000000E+00 -0.31556307917E+02  0.31556307917E+02  0.00000000000E+00 0. -1.
         21    1    1    2  503  502  0.46138119055E+02  0.10925591874E+03  0.92809204538E+02  0.15059591713E+03  0.00000000000E+00 0. -1.
         21    1    1    2  504  501 -0.46138119055E+02 -0.10925591874E+03  0.13178249711E+04  0.13231508743E+04  0.00000000000E+00 0. -1.
<mgrwt>
<rscale>  2 0.11859841E+03</rscale>
<asrwt>0</asrwt>
<pdfrwt beam="1">  1       21 0.22187541E+00 0.11859841E+03</pdfrwt>
<pdfrwt beam="2">  1       21 0.48548177E-02 0.11859841E+03</pdfrwt>
<totfact> 0.29580845E+04</totfact>
</mgrwt>
</event>
<event>
 4    1  0.6024238E+003  0.1604676E+03  0.7546771E-02  0.1188170E+00
         21   -1    0    0  504  501  0.00000000000E+00  0.00000000000E+00  0.90099146645E+02  0.90099146645E+02  0.00000000000E+00 0.  1.
         21   -1    0    0  501  502 -0.00000000000E+00 -0.00000000000E+00 -0.22182709233E+04  0.22182709233E+04  0.00000000000E+00 0.  1.
         21    1    1    2  503  502 -0.14087467350E+03 -0.76838559209E+02 -0.21413575887E+04  0.21473616743E+04  0.00000000000E+00 0.  1.
         21    1    1    2  504  503  0.14087467350E+03  0.76838559209E+02  0.13185812027E+02  0.16100839560E+03  0.00000000000E+00 0.  1.
<mgrwt>
<rscale>  2 0.16046756E+03</rscale>
<asrwt>0</asrwt>
<pdfrwt beam="1">  1       21 0.13861406E-01 0.16046756E+03</pdfrwt>
<pdfrwt beam="2">  1       21 0.34127247E+00 0.16046756E+03</pdfrwt>
<totfact> 0.93754941E+02</totfact>
</mgrwt>
</event>
<event>
 4    1  0.6024238E+003  0.1081975E+03  0.7546771E-02  0.1263945E+00
         21   -1    0    0  503  501  0.00000000000E+00  0.00000000000E+00  0.19940436654E+03  0.19940436654E+03  0.00000000000E+00 0. -1.
         21   -1    0    0  504  502 -0.00000000000E+00 -0.00000000000E+00 -0.73156750546E+02  0.73156750546E+02  0.00000000000E+00 0. -1.
         21    1    1    2  503  502  0.94603639375E+02  0.52505742169E+02  0.12368808995E+03  0.16433333545E+03  0.00000000000E+00 0. -1.
         21    1    1    2  504  501 -0.94603639375E+02 -0.52505742169E+02  0.25595260373E+01  0.10822778163E+03  0.00000000000E+00 0. -1.
<mgrwt>
<rscale>  2 0.10819751E+03</rscale>
<asrwt>0</asrwt>
<pdfrwt beam="1">  1       21 0.30677595E-01 0.10819751E+03</pdfrwt>
<pdfrwt beam="2">  1       21 0.11254885E-01 0.10819751E+03</pdfrwt>
<totfact> 0.67468683E+05</totfact>
</mgrwt>
</event>
<event>
 4    1  0.6024238E+003  0.1102125E+03  0.7546771E-02  0.1260177E+00
         21   -1    0    0  504  501  0.00000000000E+00  0.00000000000E+00  0.13924774373E+04  0.13924774373E+04  0.00000000000E+00 0. -1.
         21   -1    0    0  503  502 -0.00000000000E+00 -0.00000000000E+00 -0.10610296754E+02  0.10610296754E+02  0.00000000000E+00 0. -1.
         21    1    1    2  503  501 -0.10989455395E+03 -0.83660708479E+01  0.98679796240E+03  0.99293354397E+03  0.00000000000E+00 0. -1.
         21    1    1    2  504  502  0.10989455395E+03  0.83660708479E+01  0.39506917818E+03  0.41015419013E+03  0.00000000000E+00 0. -1.
<mgrwt>
<rscale>  2 0.11021254E+03</rscale>
<asrwt>0</asrwt>
<pdfrwt beam="1">  1       21 0.21422715E+00 0.11021254E+03</pdfrwt>
<pdfrwt beam="2">  1       21 0.16323544E-02 0.11021254E+03</pdfrwt>
<totfact> 0.19615111E+05</totfact>
</mgrwt>
</event>
<event>
 4    1  0.6024238E+003  0.1043048E+03  0.7546771E-02  0.1271495E+00
         21   -1    0    0  503  501  0.00000000000E+00  0.00000000000E+00  0.65438458475E+03  0.65438458475E+03  0.00000000000E+00 0.  1.
         21   -1    0    0  504  502 -0.00000000000E+00 -0.00000000000E+00 -0.17004630234E+02  0.17004630234E+02  0.00000000000E+00 0.  1.
         21    1    1    2  503  502 -0.10301413762E+03 -0.16358086956E+02  0.26856780254E+03  0.28811137450E+03  0.00000000000E+00 0.  1.
         21    1    1    2  504  501  0.10301413762E+03  0.16358086956E+02  0.36881215198E+03  0.38327784048E+03  0.00000000000E+00 0.  1.
<mgrwt>
<rscale>  2 0.10430484E+03</rscale>
<asrwt>0</asrwt>
<pdfrwt beam="1">  1       21 0.10067453E+00 0.10430484E+03</pdfrwt>
<pdfrwt beam="2">  1       21 0.26160975E-02 0.10430484E+03</pdfrwt>
<totfact> 0.64845597E+05</totfact>
</mgrwt>
</event>
<event>
 4    1  0.6024238E+003  0.1534973E+03  0.7546771E-02  0.1196240E+00
         21   -1    0    0  504  501  0.00000000000E+00  0.00000000000E+00  0.22844287214E+03  0.22844287214E+03  0.00000000000E+00 0.  1.
         21   -1    0    0  503  502 -0.00000000000E+00 -0.00000000000E+00 -0.58894088206E+03  0.58894088206E+03  0.00000000000E+00 0.  1.
         21    1    1    2  503  501 -0.14191344256E+03  0.58497776166E+02 -0.55143335924E+03  0.57239860646E+03  0.00000000000E+00 0.  1.
         21    1    1    2  504  502  0.14191344256E+03 -0.58497776166E+02  0.19093534932E+03  0.24498514774E+03  0.00000000000E+00 0.  1.
<mgrwt>
<rscale>  2 0.15349728E+03</rscale>
<asrwt>0</asrwt>
<pdfrwt beam="1">  1       21 0.35145057E-01 0.15349728E+03</pdfrwt>
<pdfrwt beam="2">  1       21 0.90606289E-01 0.15349728E+03</pdfrwt>
<totfact> 0.83211155E+03</totfact>
</mgrwt>
</event>
<event>
 4    1  0.6024238E+003  0.1109439E+03  0.7546771E-02  0.1258832E+00
         21   -1    0    0  504  501  0.00000000000E+00  0.00000000000E+00  0.26524037251E+02  0.26524037251E+02  0.00000000000E+00 0. -1.
         21   -1    0    0  503  502 -0.00000000000E+00 -0.00000000000E+00 -0.10084307805E+04  0.10084307805E+04  0.00000000000E+00 0. -1.
         21    1    1    2  503  501  0.96678970699E+02  0.54421741075E+02 -0.11074761282E+03  0.15675963454E+03  0.00000000000E+00 0. -1.
         21    1    1    2  504  502 -0.96678970699E+02 -0.54421741075E+02 -0.87115913040E+03  0.87819518317E+03  0.00000000000E+00 0. -1.
<mgrwt>
<rscale>  2 0.11094390E+03</rscale>
<asrwt>0</asrwt>
<pdfrwt beam="1">  1       21 0.40806213E-02 0.11094390E+03</pdfrwt>
<pdfrwt beam="2">  1       21 0.15514319E+00 0.11094390E+03</pdfrwt>
<totfact> 0.10809937E+05</totfact>
</mgrwt>
</event>
<event>
 4    1  0.6024238E+003  0.1014489E+03  0.7546771E-02  0.1277278E+00
         21   -1    0    0  503  501  0.00000000000E+00  0.00000000000E+00  0.61926875815E+02  0.61926875815E+02  0.00000000000E+00 0.  1.
         21   -1    0    0  504  502 -0.00000000000E+00 -0.00000000000E+00 -0.25967530865E+03  0.25967530865E+03  0.00000000000E+00 0. -1.
         21    1    1    2  503  502 -0.77974329854E+02  0.64899029081E+02 -0.19535390085E+03  0.22012502509E+03  0.00000000000E+00 0. -1.
         21    1    1    2  504  501  0.77974329854E+02 -0.64899029081E+02 -0.23945319832E+01  0.10147715938E+03  0.00000000000E+00 0.  1.
<mgrwt>
<rscale>  2 0.10144890E+03</rscale>
<asrwt>0</asrwt>
<pdfrwt beam="1">  1       21 0.95272118E-02 0.10144890E+03</pdfrwt>
<pdfrwt beam="2">  1       21 0.39950047E-01 0.10144890E+03</pdfrwt>
<totfact> 0.53854355E+05</totfact>
</mgrwt>
</event>
<event>
 4    1  0.6024238E+003  0.1423813E+03  0.7546771E-02  0.1210160E+00
         21   -1    0    0  504  501  0.00000000000E+00  0.00000000000E+00  0.18601693132E+03  0.18601693132E+03  0.00000000000E+00 0.  1.
         21   -1    0    0  501  502 -0.00000000000E+00 -0.00000000000E+00 -0.27479338618E+03  0.27479338618E+03  0.00000000000E+00 0. -1.
         21    1    1    2  503  502  0.14058560374E+03  0.22541545745E+02 -0.22336500563E+03  0.26488555831E+03  0.00000000000E+00 0. -1.
         21    1    1    2  504  503 -0.14058560374E+03 -0.22541545745E+02  0.13458855076E+03  0.19592475918E+03  0.00000000000E+00 0.  1.
<mgrwt>
<rscale>  2 0.14238130E+03</rscale>
<asrwt>0</asrwt>
<pdfrwt beam="1">  1       21 0.28617989E-01 0.14238130E+03</pdfrwt>
<pdfrwt beam="2">  1       21 0.42275905E-01 0.14238130E+03</pdfrwt>
<totfact> 0.64323529E+04</totfact>
</mgrwt>
</event>
<event>
 4    1  0.6024238E+003  0.2300911E+03  0.7546771E-02  0.1126576E+00
         21   -1    0    0  503  501  0.00000000000E+00  0.00000000000E+00  0.36424380443E+03  0.36424380443E+03  0.00000000000E+00 0. -1.
         21   -1    0    0  504  502 -0.00000000000E+00 -0.00000000000E+00 -0.29113895661E+03  0.29113895661E+03  0.00000000000E+00 0. -1.
         21    1    1    2  503  502  0.54091810455E+02 -0.22364253155E+03 -0.19533701977E+03  0.30182520963E+03  0.00000000000E+00 0. -1.
         21    1    1    2  504  501 -0.54091810455E+02  0.22364253155E+03  0.26844186759E+03  0.35355755140E+03  0.00000000000E+00 0. -1.
<mgrwt>
<rscale>  2 0.23009108E+03</rscale>
<asrwt>0</asrwt>
<pdfrwt beam="1">  1       21 0.56037509E-01 0.23009108E+03</pdfrwt>
<pdfrwt beam="2">  1       21 0.44790609E-01 0.23009108E+03</pdfrwt>
<totfact> 0.14018616E+04</totfact>
</mgrwt>
</event>
<event>
 4    1  0.6024238E+003  0.1283217E+03  0.7546771E-02  0.1229967E+00
         21   -1    0    0  503  501  0.00000000000E+00  0.00000000000E+00  0.35909352579E+03  0.35909352579E+03  0.00000000000E+00 0. -1.
         21   -1    0    0  504  502 -0.00000000000E+00 -0.00000000000E+00 -0.54061034704E+02  0.54061034704E+02  0.00000000000E+00 0. -1.
         21    1    1    2  503  502 -0.40841552708E+01  0.12825668981E+03  0.72035783921E+02  0.14715846211E+03  0.00000000000E+00 0. -1.
         21    1    1    2  504  501  0.40841552708E+01 -0.12825668981E+03  0.23299670716E+03  0.26599609838E+03  0.00000000000E+00 0. -1.
<mgrwt>
<rscale>  2 0.12832170E+03</rscale>
<asrwt>0</asrwt>
<pdfrwt beam="1">  1       21 0.55245156E-01 0.12832170E+03</pdfrwt>
<pdfrwt beam="2">  1       21 0.83170825E-02 0.12832170E+03</pdfrwt>
<totfact> 0.35088981E+05</totfact>
</mgrwt>
</event>
<event>
 4    1  0.6024238E+003  0.1022899E+03  0.7546771E-02  0.1275553E+00
         21   -1    0    0  504  501  0.00000000000E+00  0.00000000000E+00  0.13527388079E+04  0.13527388079E+04  0.00000000000E+00 0. -1.
         21   -1    0    0  503  502 -0.00000000000E+00 -0.00000000000E+00 -0.21958382234E+02  0.21958382234E+02  0.00000000000E+00 0. -1.
         21    1    1    2  503  501 -0.88188313828E+02  0.51827017641E+02  0.11219201082E+03  0.15182313969E+03  0.00000000000E+00 0. -1.
         21    1    1    2  504  502  0.88188313828E+02 -0.51827017641E+02  0.12185884148E+04  0.12228740504E+04  0.00000000000E+00 0. -1.
<mgrwt>
<rscale>  2 0.10228987E+03</rscale>
<asrwt>0</asrwt>
<pdfrwt beam="1">  1       21 0.20811360E+00 0.10228987E+03</pdfrwt>
<pdfrwt beam="2">  1       21 0.33782137E-02 0.10228987E+03</pdfrwt>
<totfact> 0.66361415E+04</totfact>
</mgrwt>
</event>
<event>
 4    1  0.6024238E+003  0.1039789E+03  0.7546771E-02  0.1272145E+00
         21   -1    0    0  503  501  0.00000000000E+00  0.00000000000E+00  0.20706416764E+02  0.20706416764E+02  0.00000000000E+00 0. -1.
         21   -1    0    0  501  502 -0.00000000000E+00 -0.00000000000E+00 -0.74645379369E+03  0.74645379369E+03  0.00000000000E+00 0. -1.
         21    1    1    2  503  504 -0.84997428188E+02 -0.59891926925E+02 -0.15260016237E+03  0.18465756217E+03  0.00000000000E+00 0. -1.
         21    1    1    2  504  502  0.84997428188E+02  0.59891926925E+02 -0.57314721456E+03  0.58250264829E+03  0.00000000000E+00 0. -1.
<mgrwt>
<rscale>  2 0.10397887E+03</rscale>
<asrwt>0</asrwt>
<pdfrwt beam="1">  1       21 0.31856027E-02 0.10397887E+03</pdfrwt>
<pdfrwt beam="2">  1       21 0.11483904E+00 0.10397887E+03</pdfrwt>
<totfact> 0.34479783E+05</totfact>
</mgrwt>
</event>
<event>
 4    1  0.6024238E+003  0.1187035E+03  0.7546771E-02  0.1245251E+00
         21   -1    0    0  502  501  0.00000000000E+00  0.00000000000E+00  0.71325572160E+02  0.71325572160E+02  0.00000000000E+00 0.  1.
         21   -1    0    0  503  502 -0.00000000000E+00 -0.00000000000E+00 -0.90221932715E+03  0.90221932715E+03  0.00000000000E+00 0. -1.
         21    1    1    2  503  504  0.59853758110E+02 -0.10250873969E+03 -0.84563852556E+03  0.85392917153E+03  0.00000000000E+00 0. -1.
         21    1    1    2  504  501 -0.59853758110E+02  0.10250873969E+03  0.14744770573E+02  0.11961572778E+03  0.00000000000E+00 0.  1.
<mgrwt>
<rscale>  2 0.11870347E+03</rscale>
<asrwt>0</asrwt>
<pdfrwt beam="1">  1       21 0.10973165E-01 0.11870347E+03</pdfrwt>
<pdfrwt beam="2">  1       21 0.13880298E+00 0.11870347E+03</pdfrwt>
<totfact> 0.26522725E+04</totfact>
</mgrwt>
</event>
<event>
 4    1  0.6024238E+003  0.1066708E+03  0.7546771E-02  0.1266862E+00
         21   -1    0    0  502  501  0.00000000000E+00  0.00000000000E+00  0.26328631215E+03  0.26328631215E+03  0.00000000000E+00 0. -1.
         21   -1    0    0  504  502 -0.00000000000E+00 -0.00000000000E+00 -0.11274250409E+03  0.11274250409E+03  0.00000000000E+00 0.  1.
         21    1    1    2  503  501 -0.10150340993E+03  0.32798126307E+02  0.22291624956E+03  0.24712408550E+03  0.00000000000E+00 0. -1.
         21    1    1    2  504  503  0.10150340993E+03 -0.32798126307E+02 -0.72372441500E+02  0.12890473074E+03  0.00000000000E+00 0.  1.
<mgrwt>
<rscale>  2 0.10667080E+03</rscale>
<asrwt>0</asrwt>
<pdfrwt beam="1">  1       21 0.40505586E-01 0.10667080E+03</pdfrwt>
<pdfrwt beam="2">  1       21 0.17345001E-01 0.10667080E+03</pdfrwt>
<totfact> 0.18107718E+05</totfact>
</mgrwt>
</event>
<event>
 4    1  0.6024238E+003  0.1012240E+03  0.7546771E-02  0.1277743E+00
         21   -1    0    0  503  501  0.00000000000E+00  0.00000000000E+00  0.38213264077E+03  0.38213264077E+03  0.00000000000E+00 0.  1.
         21   -1    0    0  504  502 -0.00000000000E+00 -0.00000000000E+00 -0.65537092250E+03  0.65537092250E+03  0.00000000000E+00 0. -1.
         21    1    1    2  503  502 -0.98393816254E+02  0.23768609003E+02  0.37140987554E+03  0.38495660210E+03  0.00000000000E+00 0.  1.
         21    1    1    2  504  501  0.98393816254E+02 -0.23768609003E+02 -0.64464815727E+03  0.65254696116E+03  0.00000000000E+00 0. -1.
<mgrwt>
<rscale>  2 0.10122396E+03</rscale>
<asrwt>0</asrwt>
<pdfrwt beam="1">  1       21 0.58789637E-01 0.10122396E+03</pdfrwt>
<pdfrwt beam="2">  1       21 0.10082630E+00 0.10122396E+03</pdfrwt>
<totfact> 0.24190460E+03</totfact>
</mgrwt>
</event>
<event>
 4    1  0.6024238E+003  0.1104572E+03  0.7546771E-02  0.1259726E+00
         21   -1    0    0  503  501  0.00000000000E+00  0.00000000000E+00  0.39148368391E+02  0.39148368391E+02  0.00000000000E+00 0. -1.
         21   -1    0    0  504  502 -0.00000000000E+00 -0.00000000000E+00 -0.45296119559E+03  0.45296119559E+03  0.00000000000E+00 0. -1.
         21    1    1    2  503  502 -0.30751145785E+02  0.10609029073E+03 -0.34433655425E+03  0.36161919936E+03  0.00000000000E+00 0. -1.
         21    1    1    2  504  501  0.30751145785E+02 -0.10609029073E+03 -0.69476272947E+02  0.13049036462E+03  0.00000000000E+00 0. -1.
<mgrwt>
<rscale>  2 0.11045715E+03</rscale>
<asrwt>0</asrwt>
<pdfrwt beam="1">  1       21 0.60228261E-02 0.11045715E+03</pdfrwt>
<pdfrwt beam="2">  1       21 0.69686336E-01 0.11045715E+03</pdfrwt>
<totfact> 0.37238825E+05</totfact>
</mgrwt>
</event>
<event>
 4    1  0.6024238E+003  0.1001766E+03  0.7546771E-02  0.1279925E+00
         21   -1    0    0  504  501  0.00000000000E+00  0.00000000000E+00  0.36366535220E+02  0.36366535220E+02  0.00000000000E+00 0.  1.
         21   -1    0    0  503  502 -0.00000000000E+00 -0.00000000000E+00 -0.11820892856E+04  0.11820892856E+04  0.00000000000E+00 0.  1.
         21    1    1    2  503  501 -0.79929674159E+02  0.60387078283E+02 -0.11062602398E+04  0.11107866898E+04  0.00000000000E+00 0.  1.
         21    1    1    2  504  502  0.79929674159E+02 -0.60387078283E+02 -0.39462510561E+02  0.10766913102E+03  0.00000000000E+00 0.  1.
<mgrwt>
<rscale>  2 0.10017660E+03</rscale>
<asrwt>0</asrwt>
<pdfrwt beam="1">  1       21 0.55948513E-02 0.10017660E+03</pdfrwt>
<pdfrwt beam="2">  1       21 0.18185990E+00 0.10017660E+03</pdfrwt>
<totfact> 0.42151430E+04</totfact>
</mgrwt>
</event>
<event>
 4    1  0.6024238E+003  0.1054254E+03  0.7546771E-02  0.1269284E+00
         21   -1    0    0  504  501  0.00000000000E+00  0.00000000000E+00  0.62662358643E+02  0.62662358643E+02  0.00000000000E+00 0.  1.
         21   -1    0    0  503  502 -0.00000000000E+00 -0.00000000000E+00 -0.19143636034E+03  0.19143636034E+03  0.00000000000E+00 0.  1.
         21    1    1    2  503  501 -0.46794478229E+01 -0.10532152604E+03 -0.98824123756E+02  0.14450165575E+03  0.00000000000E+00 0.  1.
         21    1    1    2  504  502  0.46794478229E+01  0.10532152604E+03 -0.29949877935E+02  0.10959706323E+03  0.00000000000E+00 0.  1.
<mgrwt>
<rscale>  2 0.10542543E+03</rscale>
<asrwt>0</asrwt>
<pdfrwt beam="1">  1       21 0.96403630E-02 0.10542543E+03</pdfrwt>
<pdfrwt beam="2">  1       21 0.29451747E-01 0.10542543E+03</pdfrwt>
<totfact> 0.95581827E+05</totfact>
</mgrwt>
</event>
<event>
 4    1  0.6024238E+003  0.1026561E+03  0.7546771E-02  0.1274808E+00
         21   -1    0    0  503  501  0.00000000000E+00  0.00000000000E+00  0.71109138625E+03  0.71109138625E+03  0.00000000000E+00 0. -1.
         21   -1    0    0  504  502 -0.00000000000E+00 -0.00000000000E+00 -0.48680907356E+02  0.48680907356E+02  0.00000000000E+00 0.  1.
         21    1    1    2  503  502 -0.10217372740E+03  0.99402471095E+01  0.14376711718E+02  0.10365794192E+03  0.00000000000E+00 0.  1.
         21    1    1    2  504  501  0.10217372740E+03 -0.99402471095E+01  0.64803376718E+03  0.65611435169E+03  0.00000000000E+00 0. -1.
<mgrwt>
<rscale>  2 0.10265612E+03</rscale>
<asrwt>0</asrwt>
<pdfrwt beam="1">  1       21 0.10939867E+00 0.10265612E+03</pdfrwt>
<pdfrwt beam="2">  1       21 0.74893708E-02 0.10265612E+03</pdfrwt>
<totfact> 0.92935502E+04</totfact>
</mgrwt>
</event>
<event>
 4    1  0.6024238E+003  0.1821703E+03  0.7546771E-02  0.1165719E+00
         21   -1    0    0  503  501  0.00000000000E+00  0.00000000000E+00  0.21975651152E+03  0.21975651152E+03  0.00000000000E+00 0.  1.
         21   -1    0    0  504  502 -0.00000000000E+00 -0.00000000000E+00 -0.80793190966E+03  0.80793190966E+03  0.00000000000E+00 0.  1.
         21    1    1    2  503  502  0.40441167104E+02  0.17762473340E+03 -0.75742797542E+03  0.77902706747E+03  0.00000000000E+00 0.  1.
         21    1    1    2  504  501 -0.40441167104E+02 -0.17762473340E+03  0.16925257728E+03  0.24866135370E+03  0.00000000000E+00 0.  1.
<mgrwt>
<rscale>  2 0.18217034E+03</rscale>
<asrwt>0</asrwt>
<pdfrwt beam="1">  1       21 0.33808694E-01 0.18217034E+03</pdfrwt>
<pdfrwt beam="2">  1       21 0.12429722E+00 0.18217034E+03</pdfrwt>
<totfact> 0.41140047E+03</totfact>
</mgrwt>
</event>
<event>
 4    1  0.6024238E+003  0.1648852E+03  0.7546771E-02  0.1183289E+00
         21   -1    0    0  503  501  0.00000000000E+00  0.00000000000E+00  0.17758487389E+03  0.17758487389E+03  0.00000000000E+00 0. -1.
         21   -1    0    0  504  502 -0.00000000000E+00 -0.00000000000E+00 -0.16196683625E+03  0.16196683625E+03  0.00000000000E+00 0. -1.
         21    1    1    2  503  502 -0.11415764875E+03 -0.11897539589E+03  0.47546751134E+02  0.17160363382E+03  0.00000000000E+00 0. -1.
         21    1    1    2  504  501  0.11415764875E+03  0.11897539589E+03 -0.31928713489E+02  0.16794807632E+03  0.00000000000E+00 0. -1.
<mgrwt>
<rscale>  2 0.16488515E+03</rscale>
<asrwt>0</asrwt>
<pdfrwt beam="1">  1       21 0.27320750E-01 0.16488515E+03</pdfrwt>
<pdfrwt beam="2">  1       21 0.24917975E-01 0.16488515E+03</pdfrwt>
<totfact> 0.19631805E+05</totfact>
</mgrwt>
</event>
<event>
 4    1  0.6024238E+003  0.1305192E+03  0.7546771E-02  0.1226687E+00
         21   -1    0    0  502  501  0.00000000000E+00  0.00000000000E+00  0.21752828367E+03  0.21752828367E+03  0.00000000000E+00 0.  1.
         21   -1    0    0  503  502 -0.00000000000E+00 -0.00000000000E+00 -0.93136343461E+02  0.93136343461E+02  0.00000000000E+00 0.  1.
         21    1    1    2  503  504 -0.13049439249E+03 -0.25462808296E+01  0.22663771722E+00  0.13051942914E+03  0.00000000000E+00 0.  1.
         21    1    1    2  504  501  0.13049439249E+03  0.25462808296E+01  0.12416530249E+03  0.18014519799E+03  0.00000000000E+00 0.  1.
<mgrwt>
<rscale>  2 0.13051923E+03</rscale>
<asrwt>0</asrwt>
<pdfrwt beam="1">  1       21 0.33465890E-01 0.13051923E+03</pdfrwt>
<pdfrwt beam="2">  1       21 0.14328668E-01 0.13051923E+03</pdfrwt>
<totfact> 0.37066353E+05</totfact>
</mgrwt>
</event>
<event>
 4    1  0.6024238E+003  0.1134956E+03  0.7546771E-02  0.1254230E+00
         21   -1    0    0  503  501  0.00000000000E+00  0.00000000000E+00  0.10665089620E+02  0.10665089620E+02  0.00000000000E+00 0.  1.
         21   -1    0    0  504  502 -0.00000000000E+00 -0.00000000000E+00 -0.12889288331E+04  0.12889288331E+04  0.00000000000E+00 0.  1.
         21    1    1    2  503  502 -0.92589662713E+02 -0.65638468026E+02 -0.80215947363E+03  0.81014879822E+03  0.00000000000E+00 0.  1.
         21    1    1    2  504  501  0.92589662713E+02  0.65638468026E+02 -0.47610426990E+03  0.48944512455E+03  0.00000000000E+00 0.  1.
<mgrwt>
<rscale>  2 0.11349561E+03</rscale>
<asrwt>0</asrwt>
<pdfrwt beam="1">  1       21 0.16407836E-02 0.11349561E+03</pdfrwt>
<pdfrwt beam="2">  1       21 0.19829668E+00 0.11349561E+03</pdfrwt>
<totfact> 0.24316850E+05</totfact>
</mgrwt>
</event>
<event>
 4    1  0.6024238E+003  0.1698185E+03  0.7546771E-02  0.1178037E+00
         21   -1    0    0  503  501  0.00000000000E+00  0.00000000000E+00  0.12201522554E+03  0.12201522554E+03  0.00000000000E+00 0.  1.
         21   -1    0    0  504  502 -0.00000000000E+00 -0.00000000000E+00 -0.27060377403E+03  0.27060377403E+03  0.00000000000E+00 0.  1.
         21    1    1    2  503  502 -0.15134965865E+03  0.77017000432E+02 -0.44506799184E+01  0.16987685563E+03  0.00000000000E+00 0.  1.
         21    1    1    2  504  501  0.15134965865E+03 -0.77017000432E+02 -0.14413786858E+03  0.22274214394E+03  0.00000000000E+00 0.  1.
<mgrwt>
<rscale>  2 0.16981854E+03</rscale>
<asrwt>0</asrwt>
<pdfrwt beam="1">  1       21 0.18771574E-01 0.16981854E+03</pdfrwt>
<pdfrwt beam="2">  1       21 0.41631349E-01 0.16981854E+03</pdfrwt>
<totfact> 0.14539601E+05</totfact>
</mgrwt>
</event>
<event>
 4    1  0.6024238E+003  0.1098737E+03  0.7546771E-02  0.1260804E+00
         21   -1    0    0  503  501  0.00000000000E+00  0.00000000000E+00  0.70140847860E+02  0.70140847860E+02  0.00000000000E+00 0. -1.
         21   -1    0    0  504  502 -0.00000000000E+00 -0.00000000000E+00 -0.17230538618E+03  0.17230538618E+03  0.00000000000E+00 0. -1.
         21    1    1    2  503  502  0.69142190721E+02  0.85390820276E+02 -0.47044108739E+02  0.11952147461E+03  0.00000000000E+00 0. -1.
         21    1    1    2  504  501 -0.69142190721E+02 -0.85390820276E+02 -0.55120429586E+02  0.12292475944E+03  0.00000000000E+00 0. -1.
<mgrwt>
<rscale>  2 0.10987372E+03</rscale>
<asrwt>0</asrwt>
<pdfrwt beam="1">  1       21 0.10790900E-01 0.10987372E+03</pdfrwt>
<pdfrwt beam="2">  1       21 0.26508521E-01 0.10987372E+03</pdfrwt>
<totfact> 0.96010568E+05</totfact>
</mgrwt>
</event>
<event>
 4    1  0.6024238E+003  0.1017416E+03  0.7546771E-02  0.1276676E+00
         21   -1    0    0  502  501  0.00000000000E+00  0.00000000000E+00  0.22844235056E+02  0.22844235056E+02  0.00000000000E+00 0. -1.
         21   -1    0    0  503  502 -0.00000000000E+00 -0.00000000000E+00 -0.64973186336E+03  0.64973186336E+03  0.00000000000E+00 0. -1.
         21    1    1    2  503  504  0.99640404818E+02 -0.20570320091E+02 -0.49843075125E+03  0.50870872032E+03  0.00000000000E+00 0. -1.
         21    1    1    2  504  501 -0.99640404818E+02  0.20570320091E+02 -0.12845687706E+03  0.16386737810E+03  0.00000000000E+00 0. -1.
<mgrwt>
<rscale>  2 0.10174158E+03</rscale>
<asrwt>0</asrwt>
<pdfrwt beam="1">  1       21 0.35144985E-02 0.10174158E+03</pdfrwt>
<pdfrwt beam="2">  1       21 0.99958726E-01 0.10174158E+03</pdfrwt>
<totfact> 0.40740575E+05</totfact>
</mgrwt>
</event>
<event>
 4    1  0.6024238E+003  0.1143915E+03  0.7546771E-02  0.1252647E+00
         21   -1    0    0  503  501  0.00000000000E+00  0.00000000000E+00  0.47866582308E+03  0.47866582308E+03  0.00000000000E+00 0.  1.
         21   -1    0    0  501  502 -0.00000000000E+00 -0.00000000000E+00 -0.10467955443E+03  0.10467955443E+03  0.00000000000E+00 0.  1.
         21    1    1    2  503  504  0.10894575323E+03  0.34874749794E+02  0.43770407161E+03  0.45240499514E+03  0.00000000000E+00 0.  1.
         21    1    1    2  504  502 -0.10894575323E+03 -0.34874749794E+02 -0.63717802966E+02  0.13094038237E+03  0.00000000000E+00 0.  1.
<mgrwt>
<rscale>  2 0.11439154E+03</rscale>
<asrwt>0</asrwt>
<pdfrwt beam="1">  1       21 0.73640894E-01 0.11439154E+03</pdfrwt>
<pdfrwt beam="2">  1       21 0.16104547E-01 0.11439154E+03</pdfrwt>
<totfact> 0.59331623E+04</totfact>
</mgrwt>
</event>
<event>
 4    1  0.6024238E+003  0.1351465E+03  0.7546771E-02  0.1220013E+00
         21   -1    0    0  502  501  0.00000000000E+00  0.00000000000E+00  0.83479533862E+03  0.83479533862E+03  0.00000000000E+00 0. -1.
         21   -1    0    0  503  502 -0.00000000000E+00 -0.00000000000E+00 -0.42131807986E+03  0.42131807986E+03  0.00000000000E+00 0.  1.
         21    1    1    2  503  504 -0.12376373566E+03 -0.54287433390E+02 -0.40479313764E+03  0.42675762673E+03  0.00000000000E+00 0.  1.
         21    1    1    2  504  501  0.12376373566E+03  0.54287433390E+02  0.81827039640E+03  0.82935579175E+03  0.00000000000E+00 0. -1.
<mgrwt>
<rscale>  2 0.13514654E+03</rscale>
<asrwt>0</asrwt>
<pdfrwt beam="1">  1       21 0.12843005E+00 0.13514654E+03</pdfrwt>
<pdfrwt beam="2">  1       21 0.64818166E-01 0.13514654E+03</pdfrwt>
<totfact> 0.10453876E+03</totfact>
</mgrwt>
</event>
<event>
 4    1  0.6024238E+003  0.1001892E+03  0.7546771E-02  0.1279899E+00
         21   -1    0    0  504  501  0.00000000000E+00  0.00000000000E+00  0.28292022324E+03  0.28292022324E+03  0.00000000000E+00 0. -1.
         21   -1    0    0  501  502 -0.00000000000E+00 -0.00000000000E+00 -0.86221421344E+02  0.86221421344E+02  0.00000000000E+00 0. -1.
         21    1    1    2  503  502  0.85592644729E+02  0.52074647302E+02 -0.43242654683E+02  0.10912285236E+03  0.00000000000E+00 0. -1.
         21    1    1    2  504  503 -0.85592644729E+02 -0.52074647302E+02  0.23994145658E+03  0.26001879222E+03  0.00000000000E+00 0. -1.
<mgrwt>
<rscale>  2 0.10018917E+03</rscale>
<asrwt>0</asrwt>
<pdfrwt beam="1">  1       21 0.43526188E-01 0.10018917E+03</pdfrwt>
<pdfrwt beam="2">  1       21 0.13264834E-01 0.10018917E+03</pdfrwt>
<totfact> 0.25414619E+05</totfact>
</mgrwt>
</event>
<event>
 4    1  0.6024238E+003  0.1248818E+03  0.7546771E-02  0.1235254E+00
         21   -1    0    0  502  501  0.00000000000E+00  0.00000000000E+00  0.17267004000E+02  0.17267004000E+02  0.00000000000E+00 0.  1.
         21   -1    0    0  504  502 -0.00000000000E+00 -0.00000000000E+00 -0.95827866709E+03  0.95827866709E+03  0.00000000000E+00 0.  1.
         21    1    1    2  503  501  0.11979143747E+03 -0.35291368985E+02 -0.35356028586E+03  0.37496712517E+03  0.00000000000E+00 0.  1.
         21    1    1    2  504  503 -0.11979143747E+03  0.35291368985E+02 -0.58745137722E+03  0.60057854592E+03  0.00000000000E+00 0.  1.
<mgrwt>
<rscale>  2 0.12488182E+03</rscale>
<asrwt>0</asrwt>
<pdfrwt beam="1">  1       21 0.26564622E-02 0.12488182E+03</pdfrwt>
<pdfrwt beam="2">  1       21 0.14742749E+00 0.12488182E+03</pdfrwt>
<totfact> 0.24798563E+05</totfact>
</mgrwt>
</event>
<event>
 4    1  0.6024238E+003  0.1005266E+03  0.7546771E-02  0.1279192E+00
         21   -1    0    0  503  501  0.00000000000E+00  0.00000000000E+00  0.40203917125E+02  0.40203917125E+02  0.00000000000E+00 0. -1.
         21   -1    0    0  501  502 -0.00000000000E+00 -0.00000000000E+00 -0.27377831153E+03  0.27377831153E+03  0.00000000000E+00 0. -1.
         21    1    1    2  503  504  0.28081999077E+02  0.96524600914E+02 -0.71861864570E+02  0.12357072806E+03  0.00000000000E+00 0. -1.
         21    1    1    2  504  502 -0.28081999077E+02 -0.96524600914E+02 -0.16171252984E+03  0.19041150060E+03  0.00000000000E+00 0. -1.
<mgrwt>
<rscale>  2 0.10052660E+03</rscale>
<asrwt>0</asrwt>
<pdfrwt beam="1">  1       21 0.61852182E-02 0.10052660E+03</pdfrwt>
<pdfrwt beam="2">  1       21 0.42119739E-01 0.10052660E+03</pdfrwt>
<totfact> 0.10142497E+06</totfact>
</mgrwt>
</event>
<event>
 4    1  0.6024238E+003  0.1216157E+03  0.7546771E-02  0.1240455E+00
         21   -1    0    0  502  501  0.00000000000E+00  0.00000000000E+00  0.22998844994E+02  0.22998844994E+02  0.00000000000E+00 0. -1.
         21   -1    0    0  503  502 -0.00000000000E+00 -0.00000000000E+00 -0.23655885189E+04  0.23655885189E+04  0.00000000000E+00 0.  1.
         21    1    1    2  503  504 -0.79760751921E+02 -0.91807386208E+02 -0.21904040007E+04  0.21937775776E+04  0.00000000000E+00 0.  1.
         21    1    1    2  504  501  0.79760751921E+02  0.91807386208E+02 -0.15218567325E+03  0.19480978633E+03  0.00000000000E+00 0. -1.
<mgrwt>
<rscale>  2 0.12161568E+03</rscale>
<asrwt>0</asrwt>
<pdfrwt beam="1">  1       21 0.35382819E-02 0.12161568E+03</pdfrwt>
<pdfrwt beam="2">  1       21 0.36393690E+00 0.12161568E+03</pdfrwt>
<totfact> 0.77511566E+03</totfact>
</mgrwt>
</event>
<event>
 4    1  0.6024238E+003  0.1175008E+03  0.7546771E-02  0.1247278E+00
         21   -1    0    0  504  501  0.00000000000E+00  0.00000000000E+00  0.60458464685E+02  0.60458464685E+02  0.00000000000E+00 0.  1.
         21   -1    0    0  503  502 -0.00000000000E+00 -0.00000000000E+00 -0.55537841462E+03  0.55537841462E+03  0.00000000000E+00 0.  1.
         21    1    1    2  503  501  0.74296221665E+02 -0.91030225017E+02 -0.48373935145E+03  0.49780537418E+03  0.00000000000E+00 0.  1.
         21    1    1    2  504  502 -0.74296221665E+02  0.91030225017E+02 -0.11180598486E+02  0.11803150513E+03  0.00000000000E+00 0.  1.
<mgrwt>
<rscale>  2 0.11750077E+03</rscale>
<asrwt>0</asrwt>
<pdfrwt beam="1">  1       21 0.93013023E-02 0.11750077E+03</pdfrwt>
<pdfrwt beam="2">  1       21 0.85442833E-01 0.11750077E+03</pdfrwt>
<totfact> 0.11248480E+05</totfact>
</mgrwt>
</event>
<event>
 4    1  0.6024238E+003  0.1000353E+03  0.7546771E-02  0.1280222E+00
         21   -1    0    0  503  501  0.00000000000E+00  0.00000000000E+00  0.14892429647E+04  0.14892429647E+04  0.00000000000E+00 0.  1.
         21   -1    0    0  501  502 -0.00000000000E+00 -0.00000000000E+00 -0.51679624429E+02  0.51679624429E+02  0.00000000000E+00 0.  1.
         21    1    1    2  503  504 -0.72161967364E+02 -0.69279922103E+02  0.14374104652E+04  0.14408871928E+04  0.00000000000E+00 0.  1.
         21    1    1    2  504  502  0.72161967364E+02  0.69279922103E+02  0.15287511481E+00  0.10003539629E+03  0.00000000000E+00 0.  1.
<mgrwt>
<rscale>  2 0.10003528E+03</rscale>
<asrwt>0</asrwt>
<pdfrwt beam="1">  1       21 0.22911427E+00 0.10003528E+03</pdfrwt>
<pdfrwt beam="2">  1       21 0.79507126E-02 0.10003528E+03</pdfrwt>
<totfact> 0.11926829E+04</totfact>
</mgrwt>
</event>
<event>
 4    1  0.6024238E+003  0.1267715E+03  0.7546771E-02  0.1232326E+00
         21   -1    0    0  504  501  0.00000000000E+00  0.00000000000E+00  0.10356366915E+04  0.10356366915E+04  0.00000000000E+00 0. -1.
         21   -1    0    0  503  502 -0.00000000000E+00 -0.00000000000E+00 -0.27669906795E+02  0.27669906795E+02  0.00000000000E+00 0. -1.
         21    1    1    2  503  501  0.11587185026E+03  0.51426864777E+02  0.15165558927E+03  0.19766240376E+03  0.00000000000E+00 0. -1.
         21    1    1    2  504  502 -0.11587185026E+03 -0.51426864777E+02  0.85631119545E+03  0.86564419455E+03  0.00000000000E+00 0. -1.
<mgrwt>
<rscale>  2 0.12677148E+03</rscale>
<asrwt>0</asrwt>
<pdfrwt beam="1">  1       21 0.15932869E+00 0.12677148E+03</pdfrwt>
<pdfrwt beam="2">  1       21 0.42569096E-02 0.12677148E+03</pdfrwt>
<totfact> 0.93064506E+04</totfact>
</mgrwt>
</event>
<event>
 4    1  0.6024238E+003  0.1048196E+03  0.7546771E-02  0.1270476E+00
         21   -1    0    0  503  501  0.00000000000E+00  0.00000000000E+00  0.30368298071E+03  0.30368298071E+03  0.00000000000E+00 0. -1.
         21   -1    0    0  504  502 -0.00000000000E+00 -0.00000000000E+00 -0.45189883868E+02  0.45189883868E+02  0.00000000000E+00 0. -1.
         21    1    1    2  503  502 -0.38466697919E+02  0.97506165308E+02  0.20713713925E+03  0.23214851621E+03  0.00000000000E+00 0. -1.
         21    1    1    2  504  501  0.38466697919E+02 -0.97506165308E+02  0.51355957595E+02  0.11672434837E+03  0.00000000000E+00 0. -1.
<mgrwt>
<rscale>  2 0.10481956E+03</rscale>
<asrwt>0</asrwt>
<pdfrwt beam="1">  1       21 0.46720457E-01 0.10481956E+03</pdfrwt>
<pdfrwt beam="2">  1       21 0.69522900E-02 0.10481956E+03</pdfrwt>
<totfact> 0.67538786E+05</totfact>
</mgrwt>
</event>
<event>
 4    1  0.6024238E+003  0.1032321E+03  0.7546771E-02  0.1273642E+00
         21   -1    0    0  504  501  0.00000000000E+00  0.00000000000E+00  0.36433485256E+03  0.36433485256E+03  0.00000000000E+00 0.  1.
         21   -1    0    0  503  502 -0.00000000000E+00 -0.00000000000E+00 -0.30458707652E+02  0.30458707652E+02  0.00000000000E+00 0.  1.
         21    1    1    2  503  501  0.81329119480E+02  0.63580204201E+02  0.12761851088E+03  0.16414430347E+03  0.00000000000E+00 0.  1.
         21    1    1    2  504  502 -0.81329119480E+02 -0.63580204201E+02  0.20625763402E+03  0.23064925674E+03  0.00000000000E+00 0.  1.
<mgrwt>
<rscale>  2 0.10323211E+03</rscale>
<asrwt>0</asrwt>
<pdfrwt beam="1">  1       21 0.56051513E-01 0.10323211E+03</pdfrwt>
<pdfrwt beam="2">  1       21 0.46859553E-02 0.10323211E+03</pdfrwt>
<totfact> 0.90157492E+05</totfact>
</mgrwt>
</event>
<event>
 4    1  0.6024238E+003  0.1084868E+03  0.7546771E-02  0.1263398E+00
         21   -1    0    0  503  501  0.00000000000E+00  0.00000000000E+00  0.10447101664E+04  0.10447101664E+04  0.00000000000E+00 0. -1.
         21   -1    0    0  501  502 -0.00000000000E+00 -0.00000000000E+00 -0.12249503495E+02  0.12249503495E+02  0.00000000000E+00 0. -1.
         21    1    1    2  503  504 -0.10821283888E+03 -0.77043145555E+01  0.66600101599E+03  0.67477902180E+03  0.00000000000E+00 0. -1.
         21    1    1    2  504  502  0.10821283888E+03  0.77043145555E+01  0.36645964693E+03  0.38218064811E+03  0.00000000000E+00 0. -1.
<mgrwt>
<rscale>  2 0.10848675E+03</rscale>
<asrwt>0</asrwt>
<pdfrwt beam="1">  1       21 0.16072457E+00 0.10848675E+03</pdfrwt>
<pdfrwt beam="2">  1       21 0.18845398E-02 0.10848675E+03</pdfrwt>
<totfact> 0.34723718E+05</totfact>
</mgrwt>
</event>
<event>
 4    1  0.6024238E+003  0.1743509E+03  0.7546771E-02  0.1173385E+00
         21   -1    0    0  504  501  0.00000000000E+00  0.00000000000E+00  0.14861702295E+03  0.14861702295E+03  0.00000000000E+00 0. -1.
         21   -1    0    0  503  502 -0.00000000000E+00 -0.00000000000E+00 -0.24600240179E+03  0.24600240179E+03  0.00000000000E+00 0. -1.
         21    1    1    2  503  501 -0.11078670436E+03  0.13462747168E+03 -0.12969579018E+03  0.21729990332E+03  0.00000000000E+00 0. -1.
         21    1    1    2  504  502  0.11078670436E+03 -0.13462747168E+03  0.32310411336E+02  0.17731952141E+03  0.00000000000E+00 0. -1.
<mgrwt>
<rscale>  2 0.17435094E+03</rscale>
<asrwt>0</asrwt>
<pdfrwt beam="1">  1       21 0.22864158E-01 0.17435094E+03</pdfrwt>
<pdfrwt beam="2">  1       21 0.37846523E-01 0.17435094E+03</pdfrwt>
<totfact> 0.12163231E+05</totfact>
</mgrwt>
</event>
<event>
 4    1  0.6024238E+003  0.1111312E+03  0.7546771E-02  0.1258489E+00
         21   -1    0    0  502  501  0.00000000000E+00  0.00000000000E+00  0.12741036988E+03  0.12741036988E+03  0.00000000000E+00 0.  1.
         21   -1    0    0  504  502 -0.00000000000E+00 -0.00000000000E+00 -0.69276932449E+03  0.69276932449E+03  0.00000000000E+00 0. -1.
         21    1    1    2  503  501  0.61089411512E+02 -0.92834410803E+02  0.97639975352E+02  0.14793143281E+03  0.00000000000E+00 0.  1.
         21    1    1    2  504  503 -0.61089411512E+02  0.92834410803E+02 -0.66299892996E+03  0.67224826155E+03  0.00000000000E+00 0. -1.
<mgrwt>
<rscale>  2 0.11113120E+03</rscale>
<asrwt>0</asrwt>
<pdfrwt beam="1">  1       21 0.19601595E-01 0.11113120E+03</pdfrwt>
<pdfrwt beam="2">  1       21 0.10657990E+00 0.11113120E+03</pdfrwt>
<totfact> 0.17942967E+04</totfact>
</mgrwt>
</event>
<event>
 4    1  0.6024238E+003  0.1456382E+03  0.7546771E-02  0.1205937E+00
         21   -1    0    0  504  501  0.00000000000E+00  0.00000000000E+00  0.13337931408E+03  0.13337931408E+03  0.00000000000E+00 0. -1.
         21   -1    0    0  503  502 -0.00000000000E+00 -0.00000000000E+00 -0.18298092062E+03  0.18298092062E+03  0.00000000000E+00 0. -1.
         21    1    1    2  503  501  0.68094169557E+02 -0.12873879169E+03 -0.82036347952E+02  0.16715398529E+03  0.00000000000E+00 0. -1.
         21    1    1    2  504  502 -0.68094169557E+02  0.12873879169E+03  0.32434741406E+02  0.14920624941E+03  0.00000000000E+00 0. -1.
<mgrwt>
<rscale>  2 0.14563822E+03</rscale>
<asrwt>0</asrwt>
<pdfrwt beam="1">  1       21 0.20519894E-01 0.14563822E+03</pdfrwt>
<pdfrwt beam="2">  1       21 0.28150911E-01 0.14563822E+03</pdfrwt>
<totfact> 0.26820938E+05</totfact>
</mgrwt>
</event>
<event>
 4    1  0.6024238E+003  0.1245609E+03  0.7546771E-02  0.1235757E+00
         21   -1    0    0  503  501  0.00000000000E+00  0.00000000000E+00  0.12756229890E+03  0.12756229890E+03  0.00000000000E+00 0.  1.
         21   -1    0    0  504  502 -0.00000000000E+00 -0.00000000000E+00 -0.16908892059E+04  0.16908892059E+04  0.00000000000E+00 0. -1.
         21    1    1    2  503  502 -0.11507579162E+03  0.47675907979E+02 -0.16575774471E+04  0.16622510108E+04  0.00000000000E+00 0. -1.
         21    1    1    2  504  501  0.11507579162E+03 -0.47675907979E+02  0.94250540046E+02  0.15620049398E+03  0.00000000000E+00 0.  1.
<mgrwt>
<rscale>  2 0.12456095E+03</rscale>
<asrwt>0</asrwt>
<pdfrwt beam="1">  1       21 0.19624969E-01 0.12456095E+03</pdfrwt>
<pdfrwt beam="2">  1       21 0.26013680E+00 0.12456095E+03</pdfrwt>
<totfact> 0.15312233E+03</totfact>
</mgrwt>
</event>
<event>
 4    1  0.6024238E+003  0.1139550E+03  0.7546771E-02  0.1253416E+00
         21   -1    0    0  502  501  0.00000000000E+00  0.00000000000E+00  0.11870831262E+03  0.11870831262E+03  0.00000000000E+00 0.  1.
         21   -1    0    0  504  502 -0.00000000000E+00 -0.00000000000E+00 -0.13673149145E+03  0.13673149145E+03  0.00000000000E+00 0.  1.
         21    1    1    2  503  501  0.71399105175E+02  0.88813956163E+02  0.48099278656E+02  0.12369030534E+03  0.00000000000E+00 0.  1.
         21    1    1    2  504  503 -0.71399105175E+02 -0.88813956163E+02 -0.66122457494E+02  0.13174949872E+03  0.00000000000E+00 0.  1.
<mgrwt>
<rscale>  2 0.11395504E+03</rscale>
<asrwt>0</asrwt>
<pdfrwt beam="1">  1       21 0.18262817E-01 0.11395504E+03</pdfrwt>
<pdfrwt beam="2">  1       21 0.21035614E-01 0.11395504E+03</pdfrwt>
<totfact> 0.57804389E+05</totfact>
</mgrwt>
</event>
<event>
 4    1  0.6024238E+003  0.1056474E+03  0.7546771E-02  0.1268849E+00
         21   -1    0    0  504  501  0.00000000000E+00  0.00000000000E+00  0.17438670680E+03  0.17438670680E+03  0.00000000000E+00 0. -1.
         21   -1    0    0  503  502 -0.00000000000E+00 -0.00000000000E+00 -0.51911598420E+03  0.51911598420E+03  0.00000000000E+00 0.  1.
         21    1    1    2  503  501 -0.78330071497E+02 -0.70892737136E+02 -0.49703696440E+03  0.50814085081E+03  0.00000000000E+00 0.  1.
         21    1    1    2  504  502  0.78330071497E+02  0.70892737136E+02  0.15230768700E+03  0.18536184019E+03  0.00000000000E+00 0. -1.
<mgrwt>
<rscale>  2 0.10564743E+03</rscale>
<asrwt>0</asrwt>
<pdfrwt beam="1">  1       21 0.26828724E-01 0.10564743E+03</pdfrwt>
<pdfrwt beam="2">  1       21 0.79863997E-01 0.10564743E+03</pdfrwt>
<totfact> 0.19440421E+04</totfact>
</mgrwt>
</event>
<event>
 4    1  0.6024238E+003  0.2253559E+03  0.7546771E-02  0.1129952E+00
         21   -1    0    0  502  501  0.00000000000E+00  0.00000000000E+00  0.24461908706E+03  0.24461908706E+03  0.00000000000E+00 0.  1.
         21   -1    0    0  504  502 -0.00000000000E+00 -0.00000000000E+00 -0.95285247191E+03  0.95285247191E+03  0.00000000000E+00 0. -1.
         21    1    1    2  503  501 -0.41091932448E+02 -0.22157786551E+03  0.17538976760E+03  0.28556412236E+03  0.00000000000E+00 0.  1.
         21    1    1    2  504  503  0.41091932448E+02  0.22157786551E+03 -0.88362315245E+03  0.91190743661E+03  0.00000000000E+00 0. -1.
<mgrwt>
<rscale>  2 0.22535593E+03</rscale>
<asrwt>0</asrwt>
<pdfrwt beam="1">  1       21 0.37633706E-01 0.22535593E+03</pdfrwt>
<pdfrwt beam="2">  1       21 0.14659269E+00 0.22535593E+03</pdfrwt>
<totfact> 0.20993179E+03</totfact>
</mgrwt>
</event>
<event>
 4    1  0.6024238E+003  0.1000239E+03  0.7546771E-02  0.1280246E+00
         21   -1    0    0  503  501  0.00000000000E+00  0.00000000000E+00  0.15500949997E+02  0.15500949997E+02  0.00000000000E+00 0. -1.
         21   -1    0    0  501  502 -0.00000000000E+00 -0.00000000000E+00 -0.66232184087E+03  0.66232184087E+03  0.00000000000E+00 0.  1.
         21    1    1    2  503  504  0.86542557133E+02 -0.50151345211E+02 -0.26928574027E+03  0.28726221738E+03  0.00000000000E+00 0. -1.
         21    1    1    2  504  502 -0.86542557133E+02  0.50151345211E+02 -0.37753515060E+03  0.39056057349E+03  0.00000000000E+00 0.  1.
<mgrwt>
<rscale>  2 0.10002386E+03</rscale>
<asrwt>0</asrwt>
<pdfrwt beam="1">  1       21 0.23847621E-02 0.10002386E+03</pdfrwt>
<pdfrwt beam="2">  1       21 0.10189564E+00 0.10002386E+03</pdfrwt>
<totfact> 0.73253729E+05</totfact>
</mgrwt>
</event>
<event>
 4    1  0.6024238E+003  0.1509646E+03  0.7546771E-02  0.1199293E+00
         21   -1    0    0  503  501  0.00000000000E+00  0.00000000000E+00  0.92932365885E+03  0.92932365885E+03  0.00000000000E+00 0.  1.
         21   -1    0    0  504  502 -0.00000000000E+00 -0.00000000000E+00 -0.83282003007E+02  0.83282003007E+02  0.00000000000E+00 0. -1.
         21    1    1    2  503  502 -0.11760646935E+03 -0.94652172942E+02 -0.22542671483E+01  0.15098144653E+03  0.00000000000E+00 0. -1.
         21    1    1    2  504  501  0.11760646935E+03  0.94652172942E+02  0.84829592299E+03  0.86162421532E+03  0.00000000000E+00 0.  1.
<mgrwt>
<rscale>  2 0.15096462E+03</rscale>
<asrwt>0</asrwt>
<pdfrwt beam="1">  1       21 0.14297286E+00 0.15096462E+03</pdfrwt>
<pdfrwt beam="2">  1       21 0.12812617E-01 0.15096462E+03</pdfrwt>
<totfact> 0.18216897E+04</totfact>
</mgrwt>
</event>
<event>
 4    1  0.6024238E+003  0.1451041E+03  0.7546771E-02  0.1206621E+00
         21   -1    0    0  502  501  0.00000000000E+00  0.00000000000E+00  0.21318107219E+03  0.21318107219E+03  0.00000000000E+00 0.  1.
         21   -1    0    0  504  502 -0.00000000000E+00 -0.00000000000E+00 -0.51512307980E+03  0.51512307980E+03  0.00000000000E+00 0. -1.
         21    1    1    2  503  501 -0.10212394292E+03  0.10308207009E+03  0.17641480050E+03  0.22842371752E+03  0.00000000000E+00 0.  1.
         21    1    1    2  504  503  0.10212394292E+03 -0.10308207009E+03 -0.47835680811E+03  0.49988043446E+03  0.00000000000E+00 0. -1.
<mgrwt>
<rscale>  2 0.14510414E+03</rscale>
<asrwt>0</asrwt>
<pdfrwt beam="1">  1       21 0.32797088E-01 0.14510414E+03</pdfrwt>
<pdfrwt beam="2">  1       21 0.79249705E-01 0.14510414E+03</pdfrwt>
<totfact> 0.13001687E+04</totfact>
</mgrwt>
</event>
<event>
 4    1  0.6024238E+003  0.1061235E+03  0.7546771E-02  0.1267922E+00
         21   -1    0    0  502  501  0.00000000000E+00  0.00000000000E+00  0.13068067274E+04  0.13068067274E+04  0.00000000000E+00 0. -1.
         21   -1    0    0  504  502 -0.00000000000E+00 -0.00000000000E+00 -0.92902628719E+02  0.92902628719E+02  0.00000000000E+00 0. -1.
         21    1    1    2  503  501 -0.76523329238E+02  0.73528135144E+02  0.12735558253E+04  0.12779697362E+04  0.00000000000E+00 0. -1.
         21    1    1    2  504  503  0.76523329238E+02 -0.73528135144E+02 -0.59651726580E+02  0.12173961992E+03  0.00000000000E+00 0. -1.
<mgrwt>
<rscale>  2 0.10612354E+03</rscale>
<asrwt>0</asrwt>
<pdfrwt beam="1">  1       21 0.20104718E+00 0.10612354E+03</pdfrwt>
<pdfrwt beam="2">  1       21 0.14292713E-01 0.10612354E+03</pdfrwt>
<totfact> 0.62434049E+03</totfact>
</mgrwt>
</event>
<event>
 4    1  0.6024238E+003  0.1078167E+03  0.7546771E-02  0.1264667E+00
         21   -1    0    0  502  501  0.00000000000E+00  0.00000000000E+00  0.20839317820E+03  0.20839317820E+03  0.00000000000E+00 0.  1.
         21   -1    0    0  504  502 -0.00000000000E+00 -0.00000000000E+00 -0.74653899291E+03  0.74653899291E+03  0.00000000000E+00 0. -1.
         21    1    1    2  503  501  0.10628264877E+03 -0.18122619299E+02  0.19020881603E+03  0.21864085724E+03  0.00000000000E+00 0.  1.
         21    1    1    2  504  503 -0.10628264877E+03  0.18122619299E+02 -0.72835463073E+03  0.73629131386E+03  0.00000000000E+00 0. -1.
<mgrwt>
<rscale>  2 0.10781665E+03</rscale>
<asrwt>0</asrwt>
<pdfrwt beam="1">  1       21 0.32060489E-01 0.10781665E+03</pdfrwt>
<pdfrwt beam="2">  1       21 0.11485215E+00 0.10781665E+03</pdfrwt>
<totfact> 0.59679212E+03</totfact>
</mgrwt>
</event>
<event>
 4    1  0.6024238E+003  0.1483972E+03  0.7546771E-02  0.1202456E+00
         21   -1    0    0  504  501  0.00000000000E+00  0.00000000000E+00  0.60289185043E+03  0.60289185043E+03  0.00000000000E+00 0.  1.
         21   -1    0    0  503  502 -0.00000000000E+00 -0.00000000000E+00 -0.48729828407E+02  0.48729828407E+02  0.00000000000E+00 0.  1.
         21    1    1    2  503  501 -0.47257548804E+02 -0.14067148548E+03  0.44012355143E+03  0.46446795720E+03  0.00000000000E+00 0.  1.
         21    1    1    2  504  502  0.47257548804E+02  0.14067148548E+03  0.11403847059E+03  0.18715372163E+03  0.00000000000E+00 0.  1.
<mgrwt>
<rscale>  2 0.14839725E+03</rscale>
<asrwt>0</asrwt>
<pdfrwt beam="1">  1       21 0.92752587E-01 0.14839725E+03</pdfrwt>
<pdfrwt beam="2">  1       21 0.74968971E-02 0.14839725E+03</pdfrwt>
<totfact> 0.13379081E+05</totfact>
</mgrwt>
</event>
<event>
 4    1  0.6024238E+003  0.1092777E+03  0.7546771E-02  0.1261913E+00
         21   -1    0    0  503  501  0.00000000000E+00  0.00000000000E+00  0.30952775514E+02  0.30952775514E+02  0.00000000000E+00 0.  1.
         21   -1    0    0  504  502 -0.00000000000E+00 -0.00000000000E+00 -0.71102387870E+03  0.71102387870E+03  0.00000000000E+00 0. -1.
         21    1    1    2  503  502  0.10860391126E+03 -0.12116002164E+02 -0.59094025244E+03  0.60095922407E+03  0.00000000000E+00 0. -1.
         21    1    1    2  504  501 -0.10860391126E+03  0.12116002164E+02 -0.89130850748E+02  0.14101743014E+03  0.00000000000E+00 0.  1.
<mgrwt>
<rscale>  2 0.10927766E+03</rscale>
<asrwt>0</asrwt>
<pdfrwt beam="1">  1       21 0.47619653E-02 0.10927766E+03</pdfrwt>
<pdfrwt beam="2">  1       21 0.10938829E+00 0.10927766E+03</pdfrwt>
<totfact> 0.19894944E+05</totfact>
</mgrwt>
</event>
<event>
 4    1  0.6024238E+003  0.1094588E+03  0.7546771E-02  0.1261575E+00
         21   -1    0    0  503  501  0.00000000000E+00  0.00000000000E+00  0.67706434677E+02  0.67706434677E+02  0.00000000000E+00 0.  1.
         21   -1    0    0  504  502 -0.00000000000E+00 -0.00000000000E+00 -0.24528406213E+03  0.24528406213E+03  0.00000000000E+00 0. -1.
         21    1    1    2  503  502 -0.68492080457E+02  0.85381845375E+02 -0.61929480095E+01  0.10963383241E+03  0.00000000000E+00 0.  1.
         21    1    1    2  504  501  0.68492080457E+02 -0.85381845375E+02 -0.17138467945E+03  0.20335666440E+03  0.00000000000E+00 0. -1.
<mgrwt>
<rscale>  2 0.10945878E+03</rscale>
<asrwt>0</asrwt>
<pdfrwt beam="1">  1       21 0.10416375E-01 0.10945878E+03</pdfrwt>
<pdfrwt beam="2">  1       21 0.37736009E-01 0.10945878E+03</pdfrwt>
<totfact> 0.51608537E+05</totfact>
</mgrwt>
</event>
<event>
 4    1  0.6024238E+003  0.1166707E+03  0.7546771E-02  0.1248693E+00
         21   -1    0    0  503  501  0.00000000000E+00  0.00000000000E+00  0.12519450955E+03  0.12519450955E+03  0.00000000000E+00 0.  1.
         21   -1    0    0  501  502 -0.00000000000E+00 -0.00000000000E+00 -0.10879672797E+03  0.10879672797E+03  0.00000000000E+00 0.  1.
         21    1    1    2  503  504 -0.18026689939E+02  0.11526964492E+03  0.52419756079E+01  0.11678840224E+03  0.00000000000E+00 0.  1.
         21    1    1    2  504  502  0.18026689939E+02 -0.11526964492E+03  0.11155805967E+02  0.11720283528E+03  0.00000000000E+00 0.  1.
<mgrwt>
<rscale>  2 0.11667070E+03</rscale>
<asrwt>0</asrwt>
<pdfrwt beam="1">  1       21 0.19260694E-01 0.11667070E+03</pdfrwt>
<pdfrwt beam="2">  1       21 0.16737958E-01 0.11667070E+03</pdfrwt>
<totfact> 0.79708891E+05</totfact>
</mgrwt>
</event>
<event>
 4    1  0.6024238E+003  0.1086479E+03  0.7546771E-02  0.1263094E+00
         21   -1    0    0  503  501  0.00000000000E+00  0.00000000000E+00  0.19294589109E+03  0.19294589109E+03  0.00000000000E+00 0.  1.
         21   -1    0    0  504  502 -0.00000000000E+00 -0.00000000000E+00 -0.19681741521E+03  0.19681741521E+03  0.00000000000E+00 0.  1.
         21    1    1    2  503  502  0.10331751897E+03  0.33613227789E+02  0.15984598950E+03  0.19327467286E+03  0.00000000000E+00 0.  1.
         21    1    1    2  504  501 -0.10331751897E+03 -0.33613227789E+02 -0.16371751362E+03  0.19648863345E+03  0.00000000000E+00 0.  1.
<mgrwt>
<rscale>  2 0.10864787E+03</rscale>
<asrwt>0</asrwt>
<pdfrwt beam="1">  1       21 0.29683983E-01 0.10864787E+03</pdfrwt>
<pdfrwt beam="2">  1       21 0.30279602E-01 0.10864787E+03</pdfrwt>
<totfact> 0.11743138E+05</totfact>
</mgrwt>
</event>
<event>
 4    1  0.6024238E+003  0.1049529E+03  0.7546771E-02  0.1270212E+00
         21   -1    0    0  504  501  0.00000000000E+00  0.00000000000E+00  0.15740647277E+02  0.15740647277E+02  0.00000000000E+00 0.  1.
         21   -1    0    0  503  502 -0.00000000000E+00 -0.00000000000E+00 -0.10413065339E+04  0.10413065339E+04  0.00000000000E+00 0.  1.
         21    1    1    2  503  501 -0.96194840171E+02  0.41972247658E+02 -0.21010401504E+03  0.23485913648E+03  0.00000000000E+00 0.  1.
         21    1    1    2  504  502  0.96194840171E+02 -0.41972247658E+02 -0.81546187161E+03  0.82218804473E+03  0.00000000000E+00 0.  1.
<mgrwt>
<rscale>  2 0.10495293E+03</rscale>
<asrwt>0</asrwt>
<pdfrwt beam="1">  1       21 0.24216375E-02 0.10495293E+03</pdfrwt>
<pdfrwt beam="2">  1       21 0.16020104E+00 0.10495293E+03</pdfrwt>
<totfact> 0.23422854E+05</totfact>
</mgrwt>
</event>
<event>
 4    1  0.6024238E+003  0.1113122E+03  0.7546771E-02  0.1258159E+00
         21   -1    0    0  503  501  0.00000000000E+00  0.00000000000E+00  0.84527073273E+01  0.84527073273E+01  0.00000000000E+00 0. -1.
         21   -1    0    0  501  502 -0.00000000000E+00 -0.00000000000E+00 -0.23831929826E+04  0.23831929826E+04  0.00000000000E+00 0. -1.
         21    1    1    2  503  504  0.11086774073E+03 -0.99378182006E+01 -0.44545763804E+03  0.45915457468E+03  0.00000000000E+00 0. -1.
         21    1    1    2  504  502 -0.11086774073E+03  0.99378182006E+01 -0.19292826372E+04  0.19324911152E+04  0.00000000000E+00 0. -1.
<mgrwt>
<rscale>  2 0.11131225E+03</rscale>
<asrwt>0</asrwt>
<pdfrwt beam="1">  1       21 0.13004156E-02 0.11131225E+03</pdfrwt>
<pdfrwt beam="2">  1       21 0.36664534E+00 0.11131225E+03</pdfrwt>
<totfact> 0.38351115E+04</totfact>
</mgrwt>
</event>
<event>
 4    1  0.6024238E+003  0.1686603E+03  0.7546771E-02  0.1179252E+00
         21   -1    0    0  504  501  0.00000000000E+00  0.00000000000E+00  0.38581058329E+03  0.38581058329E+03  0.00000000000E+00 0.  1.
         21   -1    0    0  501  502 -0.00000000000E+00 -0.00000000000E+00 -0.20046729848E+03  0.20046729848E+03  0.00000000000E+00 0. -1.
         21    1    1    2  503  502 -0.14058128471E+03 -0.93183749774E+02 -0.14040662017E+03  0.21945461448E+03  0.00000000000E+00 0. -1.
         21    1    1    2  504  503  0.14058128471E+03  0.93183749774E+02  0.32574990497E+03  0.36682326728E+03  0.00000000000E+00 0.  1.
<mgrwt>
<rscale>  2 0.16866034E+03</rscale>
<asrwt>0</asrwt>
<pdfrwt beam="1">  1       21 0.59355475E-01 0.16866034E+03</pdfrwt>
<pdfrwt beam="2">  1       21 0.30841123E-01 0.16866034E+03</pdfrwt>
<totfact> 0.27144289E+04</totfact>
</mgrwt>
</event>
<event>
 4    1  0.6024238E+003  0.1331638E+03  0.7546771E-02  0.1222835E+00
         21   -1    0    0  504  501  0.00000000000E+00  0.00000000000E+00  0.60066543963E+03  0.60066543963E+03  0.00000000000E+00 0.  1.
         21   -1    0    0  503  502 -0.00000000000E+00 -0.00000000000E+00 -0.15214198439E+03  0.15214198439E+03  0.00000000000E+00 0.  1.
         21    1    1    2  503  501 -0.60743848756E+02  0.11850229247E+03 -0.11365577381E+03  0.17507210915E+03  0.00000000000E+00 0.  1.
         21    1    1    2  504  502  0.60743848756E+02 -0.11850229247E+03  0.56217922904E+03  0.57773531487E+03  0.00000000000E+00 0.  1.
<mgrwt>
<rscale>  2 0.13316384E+03</rscale>
<asrwt>0</asrwt>
<pdfrwt beam="1">  1       21 0.92410066E-01 0.13316384E+03</pdfrwt>
<pdfrwt beam="2">  1       21 0.23406459E-01 0.13316384E+03</pdfrwt>
<totfact> 0.17668422E+04</totfact>
</mgrwt>
</event>
<event>
 4    1  0.6024238E+003  0.1438391E+03  0.7546771E-02  0.1208255E+00
         21   -1    0    0  504  501  0.00000000000E+00  0.00000000000E+00  0.24131754534E+03  0.24131754534E+03  0.00000000000E+00 0. -1.
         21   -1    0    0  501  502 -0.00000000000E+00 -0.00000000000E+00 -0.14113152539E+03  0.14113152539E+03  0.00000000000E+00 0.  1.
         21    1    1    2  503  502 -0.37940271213E+02  0.13874517354E+03 -0.69709947076E+02  0.15984105881E+03  0.00000000000E+00 0.  1.
         21    1    1    2  504  503  0.37940271213E+02 -0.13874517354E+03  0.16989596702E+03  0.22260801192E+03  0.00000000000E+00 0. -1.
<mgrwt>
<rscale>  2 0.14383910E+03</rscale>
<asrwt>0</asrwt>
<pdfrwt beam="1">  1       21 0.37125776E-01 0.14383910E+03</pdfrwt>
<pdfrwt beam="2">  1       21 0.21712542E-01 0.14383910E+03</pdfrwt>
<totfact> 0.14071195E+05</totfact>
</mgrwt>
</event>
<event>
 4    1  0.6024238E+003  0.1035155E+03  0.7546771E-02  0.1273072E+00
         21   -1    0    0  502  501  0.00000000000E+00  0.00000000000E+00  0.21245320444E+03  0.21245320444E+03  0.00000000000E+00 0.  1.
         21   -1    0    0  504  502 -0.00000000000E+00 -0.00000000000E+00 -0.24053988189E+03  0.24053988189E+03  0.00000000000E+00 0.  1.
         21    1    1    2  503  501 -0.10299052235E+03 -0.10412471340E+02  0.18731173158E+03  0.21401203714E+03  0.00000000000E+00 0.  1.
         21    1    1    2  504  503  0.10299052235E+03  0.10412471340E+02 -0.21539840903E+03  0.23898104918E+03  0.00000000000E+00 0.  1.
<mgrwt>
<rscale>  2 0.10351554E+03</rscale>
<asrwt>0</asrwt>
<pdfrwt beam="1">  1       21 0.32685109E-01 0.10351554E+03</pdfrwt>
<pdfrwt beam="2">  1       21 0.37006136E-01 0.10351554E+03</pdfrwt>
<totfact> 0.66217001E+04</totfact>
</mgrwt>
</event>
<event>
 4    1  0.6024238E+003  0.1138128E+03  0.7546771E-02  0.1253668E+00
         21   -1    0    0  504  501  0.00000000000E+00  0.00000000000E+00  0.49752304819E+02  0.49752304819E+02  0.00000000000E+00 0.  1.
         21   -1    0    0  503  502 -0.00000000000E+00 -0.00000000000E+00 -0.59265700336E+03  0.59265700336E+03  0.00000000000E+00 0.  1.
         21    1    1    2  503  501  0.83807100013E+02 -0.77004624441E+02 -0.51196921540E+03  0.52446717696E+03  0.00000000000E+00 0.  1.
         21    1    1    2  504  502 -0.83807100013E+02  0.77004624441E+02 -0.30935483143E+02  0.11794213121E+03  0.00000000000E+00 0.  1.
<mgrwt>
<rscale>  2 0.11381275E+03</rscale>
<asrwt>0</asrwt>
<pdfrwt beam="1">  1       21 0.76542007E-02 0.11381275E+03</pdfrwt>
<pdfrwt beam="2">  1       21 0.91178000E-01 0.11381275E+03</pdfrwt>
<totfact> 0.13607104E+05</totfact>
</mgrwt>
</event>
<event>
 4    1  0.6024238E+003  0.1095890E+03  0.7546771E-02  0.1261333E+00
         21   -1    0    0  503  501  0.00000000000E+00  0.00000000000E+00  0.80657297721E+01  0.80657297721E+01  0.00000000000E+00 0. -1.
         21   -1    0    0  504  502 -0.00000000000E+00 -0.00000000000E+00 -0.15106826803E+04  0.15106826803E+04  0.00000000000E+00 0. -1.
         21    1    1    2  503  502  0.52347083175E+02  0.96278434912E+02 -0.84231478924E+03  0.84941389105E+03  0.00000000000E+00 0. -1.
         21    1    1    2  504  501 -0.52347083175E+02 -0.96278434912E+02 -0.66030216132E+03  0.66933451904E+03  0.00000000000E+00 0. -1.
<mgrwt>
<rscale>  2 0.10958902E+03</rscale>
<asrwt>0</asrwt>
<pdfrwt beam="1">  1       21 0.12408826E-02 0.10958902E+03</pdfrwt>
<pdfrwt beam="2">  1       21 0.23241252E+00 0.10958902E+03</pdfrwt>
<totfact> 0.23684987E+05</totfact>
</mgrwt>
</event>
<event>
 4    1  0.6024238E+003  0.1088379E+03  0.7546771E-02  0.1262737E+00
         21   -1    0    0  504  501  0.00000000000E+00  0.00000000000E+00  0.51376135268E+03  0.51376135268E+03  0.00000000000E+00 0.  1.
         21   -1    0    0  503  502 -0.00000000000E+00 -0.00000000000E+00 -0.17629367811E+03  0.17629367811E+03  0.00000000000E+00 0. -1.
         21    1    1    2  503  501 -0.79904239803E+02 -0.73898615951E+02  0.49040861426E+03  0.50234082246E+03  0.00000000000E+00 0.  1.
         21    1    1    2  504  502  0.79904239803E+02  0.73898615951E+02 -0.15294093969E+03  0.18771420833E+03  0.00000000000E+00 0. -1.
<mgrwt>
<rscale>  2 0.10883792E+03</rscale>
<asrwt>0</asrwt>
<pdfrwt beam="1">  1       21 0.79040208E-01 0.10883792E+03</pdfrwt>
<pdfrwt beam="2">  1       21 0.27122105E-01 0.10883792E+03</pdfrwt>
<totfact> 0.19430264E+04</totfact>
</mgrwt>
</event>
<event>
 4    1  0.6024238E+003  0.1054110E+03  0.7546771E-02  0.1269312E+00
         21   -1    0    0  503  501  0.00000000000E+00  0.00000000000E+00  0.23795488673E+04  0.23795488673E+04  0.00000000000E+00 0. -1.
         21   -1    0    0  504  502 -0.00000000000E+00 -0.00000000000E+00 -0.30825692758E+02  0.30825692758E+02  0.00000000000E+00 0.  1.
         21    1    1    2  503  502 -0.10107641184E+03 -0.29917081786E+02  0.22845195807E+04  0.22869501934E+04  0.00000000000E+00 0. -1.
         21    1    1    2  504  501  0.10107641184E+03  0.29917081786E+02  0.64203593900E+02  0.12342436664E+03  0.00000000000E+00 0.  1.
<mgrwt>
<rscale>  2 0.10541097E+03</rscale>
<asrwt>0</asrwt>
<pdfrwt beam="1">  1       21 0.36608430E+00 0.10541097E+03</pdfrwt>
<pdfrwt beam="2">  1       21 0.47424161E-02 0.10541097E+03</pdfrwt>
<totfact> 0.47980464E+03</totfact>
</mgrwt>
</event>
<event>
 4    1  0.6024238E+003  0.1109116E+03  0.7546771E-02  0.1258891E+00
         21   -1    0    0  504  501  0.00000000000E+00  0.00000000000E+00  0.23795098225E+03  0.23795098225E+03  0.00000000000E+00 0.  1.
         21   -1    0    0  501  502 -0.00000000000E+00 -0.00000000000E+00 -0.15919690616E+03  0.15919690616E+03  0.00000000000E+00 0.  1.
         21    1    1    2  503  502  0.10677544444E+03  0.30006584365E+02 -0.12379985675E+03  0.16621610985E+03  0.00000000000E+00 0.  1.
         21    1    1    2  504  503 -0.10677544444E+03 -0.30006584365E+02  0.20255393284E+03  0.23093177857E+03  0.00000000000E+00 0.  1.
<mgrwt>
<rscale>  2 0.11091163E+03</rscale>
<asrwt>0</asrwt>
<pdfrwt beam="1">  1       21 0.36607843E-01 0.11091163E+03</pdfrwt>
<pdfrwt beam="2">  1       21 0.24491832E-01 0.11091163E+03</pdfrwt>
<totfact> 0.11683213E+05</totfact>
</mgrwt>
</event>
<event>
 4    1  0.6024238E+003  0.1170274E+03  0.7546771E-02  0.1248083E+00
         21   -1    0    0  504  501  0.00000000000E+00  0.00000000000E+00  0.61687709539E+03  0.61687709539E+03  0.00000000000E+00 0.  1.
         21   -1    0    0  501  502 -0.00000000000E+00 -0.00000000000E+00 -0.94907572717E+02  0.94907572717E+02  0.00000000000E+00 0. -1.
         21    1    1    2  503  502  0.74158280199E+02  0.90531599204E+02 -0.50512616283E+02  0.12746350607E+03  0.00000000000E+00 0. -1.
         21    1    1    2  504  503 -0.74158280199E+02 -0.90531599204E+02  0.57248213896E+03  0.58432116203E+03  0.00000000000E+00 0.  1.
<mgrwt>
<rscale>  2 0.11702744E+03</rscale>
<asrwt>0</asrwt>
<pdfrwt beam="1">  1       21 0.94904166E-01 0.11702744E+03</pdfrwt>
<pdfrwt beam="2">  1       21 0.14601165E-01 0.11702744E+03</pdfrwt>
<totfact> 0.39967292E+04</totfact>
</mgrwt>
</event>
<event>
 4    1  0.6024238E+003  0.1303020E+03  0.7546771E-02  0.1227008E+00
         21   -1    0    0  504  501  0.00000000000E+00  0.00000000000E+00  0.47893429089E+03  0.47893429089E+03  0.00000000000E+00 0. -1.
         21   -1    0    0  501  502 -0.00000000000E+00 -0.00000000000E+00 -0.11404361529E+03  0.11404361529E+03  0.00000000000E+00 0. -1.
         21    1    1    2  503  502  0.13027915370E+03 -0.24416330455E+01 -0.63684554025E+02  0.14503220981E+03  0.00000000000E+00 0. -1.
         21    1    1    2  504  503 -0.13027915370E+03  0.24416330455E+01  0.42857522962E+03  0.44794569638E+03  0.00000000000E+00 0. -1.
<mgrwt>
<rscale>  2 0.13030203E+03</rscale>
<asrwt>0</asrwt>
<pdfrwt beam="1">  1       21 0.73682197E-01 0.13030203E+03</pdfrwt>
<pdfrwt beam="2">  1       21 0.17545172E-01 0.13030203E+03</pdfrwt>
<totfact> 0.50254401E+04</totfact>
</mgrwt>
</event>
<event>
 4    1  0.6024238E+003  0.1162889E+03  0.7546771E-02  0.1249348E+00
         21   -1    0    0  502  501  0.00000000000E+00  0.00000000000E+00  0.21853468144E+03  0.21853468144E+03  0.00000000000E+00 0. -1.
         21   -1    0    0  503  502 -0.00000000000E+00 -0.00000000000E+00 -0.91559260335E+02  0.91559260335E+02  0.00000000000E+00 0.  1.
         21    1    1    2  503  504  0.13191111088E+02  0.11553826925E+03 -0.24786320702E+02  0.11890104612E+03  0.00000000000E+00 0.  1.
         21    1    1    2  504  501 -0.13191111088E+02 -0.11553826925E+03  0.15176174181E+03  0.19119289566E+03  0.00000000000E+00 0. -1.
<mgrwt>
<rscale>  2 0.11628885E+03</rscale>
<asrwt>0</asrwt>
<pdfrwt beam="1">  1       21 0.33620720E-01 0.11628885E+03</pdfrwt>
<pdfrwt beam="2">  1       21 0.14086040E-01 0.11628885E+03</pdfrwt>
<totfact> 0.37946734E+05</totfact>
</mgrwt>
</event>
<event>
 4    1  0.6024238E+003  0.1004055E+03  0.7546771E-02  0.1279445E+00
         21   -1    0    0  502  501  0.00000000000E+00  0.00000000000E+00  0.66727972930E+02  0.66727972930E+02  0.00000000000E+00 0.  1.
         21   -1    0    0  504  502 -0.00000000000E+00 -0.00000000000E+00 -0.38678260510E+03  0.38678260510E+03  0.00000000000E+00 0.  1.
         21    1    1    2  503  501  0.70331197233E+02  0.71657471052E+02  0.16986039573E+02  0.10183219531E+03  0.00000000000E+00 0.  1.
         21    1    1    2  504  503 -0.70331197233E+02 -0.71657471052E+02 -0.33704067174E+03  0.35167838272E+03  0.00000000000E+00 0.  1.
<mgrwt>
<rscale>  2 0.10040553E+03</rscale>
<asrwt>0</asrwt>
<pdfrwt beam="1">  1       21 0.10265842E-01 0.10040553E+03</pdfrwt>
<pdfrwt beam="2">  1       21 0.59505018E-01 0.10040553E+03</pdfrwt>
<totfact> 0.20967387E+05</totfact>
</mgrwt>
</event>
<event>
 4    1  0.6024238E+003  0.1268980E+03  0.7546771E-02  0.1232133E+00
         21   -1    0    0  502  501  0.00000000000E+00  0.00000000000E+00  0.27924742416E+02  0.27924742416E+02  0.00000000000E+00 0. -1.
         21   -1    0    0  503  502 -0.00000000000E+00 -0.00000000000E+00 -0.60602755810E+03  0.60602755810E+03  0.00000000000E+00 0. -1.
         21    1    1    2  503  504 -0.82770334359E+02 -0.96188182706E+02 -0.35882818941E+03  0.38060578590E+03  0.00000000000E+00 0. -1.
         21    1    1    2  504  501  0.82770334359E+02  0.96188182706E+02 -0.21927462627E+03  0.25334651461E+03  0.00000000000E+00 0. -1.
<mgrwt>
<rscale>  2 0.12689797E+03</rscale>
<asrwt>0</asrwt>
<pdfrwt beam="1">  1       21 0.42961147E-02 0.12689797E+03</pdfrwt>
<pdfrwt beam="2">  1       21 0.93234998E-01 0.12689797E+03</pdfrwt>
<totfact> 0.34157683E+05</totfact>
</mgrwt>
</event>
<event>
 4    1  0.6024238E+003  0.1053421E+03  0.7546771E-02  0.1269447E+00
         21   -1    0    0  504  501  0.00000000000E+00  0.00000000000E+00  0.37458922615E+03  0.37458922615E+03  0.00000000000E+00 0.  1.
         21   -1    0    0  503  502 -0.00000000000E+00 -0.00000000000E+00 -0.29630900806E+02  0.29630900806E+02  0.00000000000E+00 0.  1.
         21    1    1    2  503  501  0.55614110346E+02  0.89465192230E+02  0.17549190487E+03  0.20468111433E+03  0.00000000000E+00 0.  1.
         21    1    1    2  504  502 -0.55614110346E+02 -0.89465192230E+02  0.16946642048E+03  0.19953901263E+03  0.00000000000E+00 0.  1.
<mgrwt>
<rscale>  2 0.10534206E+03</rscale>
<asrwt>0</asrwt>
<pdfrwt beam="1">  1       21 0.57629108E-01 0.10534206E+03</pdfrwt>
<pdfrwt beam="2">  1       21 0.45586004E-02 0.10534206E+03</pdfrwt>
<totfact> 0.89080537E+05</totfact>
</mgrwt>
</event>
<event>
 4    1  0.6024238E+003  0.1243174E+03  0.7546771E-02  0.1236140E+00
         21   -1    0    0  504  501  0.00000000000E+00  0.00000000000E+00  0.65601394373E+02  0.65601394373E+02  0.00000000000E+00 0. -1.
         21   -1    0    0  503  502 -0.00000000000E+00 -0.00000000000E+00 -0.28998544718E+04  0.28998544718E+04  0.00000000000E+00 0. -1.
         21    1    1    2  503  501  0.12059170696E+03  0.30207087327E+02  0.40966618372E+01  0.12438492896E+03  0.00000000000E+00 0. -1.
         21    1    1    2  504  502 -0.12059170696E+03 -0.30207087327E+02 -0.28383497393E+04  0.28410709372E+04  0.00000000000E+00 0. -1.
<mgrwt>
<rscale>  2 0.12431745E+03</rscale>
<asrwt>0</asrwt>
<pdfrwt beam="1">  1       21 0.10092521E-01 0.12431745E+03</pdfrwt>
<pdfrwt beam="2">  1       21 0.44613150E+00 0.12431745E+03</pdfrwt>
<totfact> 0.40719714E+02</totfact>
</mgrwt>
</event>
<event>
 4    1  0.6024238E+003  0.1556877E+03  0.7546771E-02  0.1193653E+00
         21   -1    0    0  502  501  0.00000000000E+00  0.00000000000E+00  0.50128881074E+02  0.50128881074E+02  0.00000000000E+00 0.  1.
         21   -1    0    0  503  502 -0.00000000000E+00 -0.00000000000E+00 -0.62650845605E+03  0.62650845605E+03  0.00000000000E+00 0.  1.
         21    1    1    2  503  504 -0.87290699881E+02  0.12891466306E+03 -0.44981260767E+03  0.47599373805E+03  0.00000000000E+00 0.  1.
         21    1    1    2  504  501  0.87290699881E+02 -0.12891466306E+03 -0.12656696731E+03  0.20064359908E+03  0.00000000000E+00 0.  1.
<mgrwt>
<rscale>  2 0.15568769E+03</rscale>
<asrwt>0</asrwt>
<pdfrwt beam="1">  1       21 0.77121359E-02 0.15568769E+03</pdfrwt>
<pdfrwt beam="2">  1       21 0.96385913E-01 0.15568769E+03</pdfrwt>
<totfact> 0.11623352E+05</totfact>
</mgrwt>
</event>
<event>
 4    1  0.6024238E+003  0.1045624E+03  0.7546771E-02  0.1270984E+00
         21   -1    0    0  503  501  0.00000000000E+00  0.00000000000E+00  0.70084303897E+02  0.70084303897E+02  0.00000000000E+00 0. -1.
         21   -1    0    0  504  502 -0.00000000000E+00 -0.00000000000E+00 -0.32693714125E+03  0.32693714125E+03  0.00000000000E+00 0. -1.
         21    1    1    2  503  502  0.37252120861E+02  0.97701482758E+02 -0.27196457390E+03  0.29137266463E+03  0.00000000000E+00 0. -1.
         21    1    1    2  504  501 -0.37252120861E+02 -0.97701482758E+02  0.15111736545E+02  0.10564878051E+03  0.00000000000E+00 0. -1.
<mgrwt>
<rscale>  2 0.10456242E+03</rscale>
<asrwt>0</asrwt>
<pdfrwt beam="1">  1       21 0.10782201E-01 0.10456242E+03</pdfrwt>
<pdfrwt beam="2">  1       21 0.50298022E-01 0.10456242E+03</pdfrwt>
<totfact> 0.27265516E+05</totfact>
</mgrwt>
</event>
<event>
 4    1  0.6024238E+003  0.1062658E+03  0.7546771E-02  0.1267646E+00
         21   -1    0    0  504  501  0.00000000000E+00  0.00000000000E+00  0.34067257448E+03  0.34067257448E+03  0.00000000000E+00 0. -1.
         21   -1    0    0  503  502 -0.00000000000E+00 -0.00000000000E+00 -0.59604728747E+02  0.59604728747E+02  0.00000000000E+00 0.  1.
         21    1    1    2  503  501 -0.94990481107E+02  0.47636433218E+02  0.27387480968E+03  0.29376833160E+03  0.00000000000E+00 0. -1.
         21    1    1    2  504  502  0.94990481107E+02 -0.47636433218E+02  0.71930360525E+01  0.10650897163E+03  0.00000000000E+00 0.  1.
<mgrwt>
<rscale>  2 0.10626580E+03</rscale>
<asrwt>0</asrwt>
<pdfrwt beam="1">  1       21 0.52411164E-01 0.10626580E+03</pdfrwt>
<pdfrwt beam="2">  1       21 0.91699585E-02 0.10626580E+03</pdfrwt>
<totfact> 0.33191919E+05</totfact>
</mgrwt>
</event>
<event>
 4    1  0.6024238E+003  0.1048251E+03  0.7546771E-02  0.1270465E+00
         21   -1    0    0  504  501  0.00000000000E+00  0.00000000000E+00  0.58616173863E+03  0.58616173863E+03  0.00000000000E+00 0. -1.
         21   -1    0    0  503  502 -0.00000000000E+00 -0.00000000000E+00 -0.19584540374E+02  0.19584540374E+02  0.00000000000E+00 0. -1.
         21    1    1    2  503  501  0.88366243458E+02  0.56388868479E+02  0.22062466354E+03  0.24426121189E+03  0.00000000000E+00 0. -1.
         21    1    1    2  504  502 -0.88366243458E+02 -0.56388868479E+02  0.34595253471E+03  0.36148506711E+03  0.00000000000E+00 0. -1.
<mgrwt>
<rscale>  2 0.10482508E+03</rscale>
<asrwt>0</asrwt>
<pdfrwt beam="1">  1       21 0.90178716E-01 0.10482508E+03</pdfrwt>
<pdfrwt beam="2">  1       21 0.30130067E-02 0.10482508E+03</pdfrwt>
<totfact> 0.66369908E+05</totfact>
</mgrwt>
</event>
<event>
 4    1  0.6024238E+003  0.1135450E+03  0.7546771E-02  0.1254142E+00
         21   -1    0    0  504  501  0.00000000000E+00  0.00000000000E+00  0.31979765277E+03  0.31979765277E+03  0.00000000000E+00 0.  1.
         21   -1    0    0  501  502 -0.00000000000E+00 -0.00000000000E+00 -0.57793223882E+02  0.57793223882E+02  0.00000000000E+00 0.  1.
         21    1    1    2  503  502  0.64647368898E+02 -0.93344484096E+02  0.27175721063E+02  0.11675185151E+03  0.00000000000E+00 0.  1.
         21    1    1    2  504  503 -0.64647368898E+02  0.93344484096E+02  0.23482870782E+03  0.26083902514E+03  0.00000000000E+00 0.  1.
<mgrwt>
<rscale>  2 0.11354504E+03</rscale>
<asrwt>0</asrwt>
<pdfrwt beam="1">  1       21 0.49199638E-01 0.11354504E+03</pdfrwt>
<pdfrwt beam="2">  1       21 0.88912654E-02 0.11354504E+03</pdfrwt>
<totfact> 0.39837364E+05</totfact>
</mgrwt>
</event>
<event>
 4    1  0.6024238E+003  0.1080110E+03  0.7546771E-02  0.1264298E+00
         21   -1    0    0  504  501  0.00000000000E+00  0.00000000000E+00  0.17419969732E+03  0.17419969732E+03  0.00000000000E+00 0. -1.
         21   -1    0    0  503  502 -0.00000000000E+00 -0.00000000000E+00 -0.67069253224E+02  0.67069253224E+02  0.00000000000E+00 0. -1.
         21    1    1    2  503  501 -0.57712665893E+02 -0.91299591871E+02  0.58177158191E+02  0.12268230930E+03  0.00000000000E+00 0. -1.
         21    1    1    2  504  502  0.57712665893E+02  0.91299591871E+02  0.48953285905E+02  0.11858664124E+03  0.00000000000E+00 0. -1.
<mgrwt>
<rscale>  2 0.10801096E+03</rscale>
<asrwt>0</asrwt>
<pdfrwt beam="1">  1       21 0.26799953E-01 0.10801096E+03</pdfrwt>
<pdfrwt beam="2">  1       21 0.10318347E-01 0.10801096E+03</pdfrwt>
<totfact> 0.10167353E+06</totfact>
</mgrwt>
</event>
<event>
 4    1  0.6024238E+003  0.1091149E+03  0.7546771E-02  0.1262218E+00
         21   -1    0    0  503  501  0.00000000000E+00  0.00000000000E+00  0.13829041078E+04  0.13829041078E+04  0.00000000000E+00 0. -1.
         21   -1    0    0  504  502 -0.00000000000E+00 -0.00000000000E+00 -0.14134171974E+02  0.14134171974E+02  0.00000000000E+00 0. -1.
         21    1    1    2  503  502  0.93032186123E+02  0.57018148954E+02  0.11210998218E+04  0.11263972955E+04  0.00000000000E+00 0. -1.
         21    1    1    2  504  501 -0.93032186123E+02 -0.57018148954E+02  0.24767011405E+03  0.27064098425E+03  0.00000000000E+00 0. -1.
<mgrwt>
<rscale>  2 0.10911488E+03</rscale>
<asrwt>0</asrwt>
<pdfrwt beam="1">  1       21 0.21275437E+00 0.10911488E+03</pdfrwt>
<pdfrwt beam="2">  1       21 0.21744891E-02 0.10911488E+03</pdfrwt>
<totfact> 0.12649892E+05</totfact>
</mgrwt>
</event>
<event>
 4    1  0.6024238E+003  0.1060576E+03  0.7546771E-02  0.1268050E+00
         21   -1    0    0  502  501  0.00000000000E+00  0.00000000000E+00  0.78788087016E+02  0.78788087016E+02  0.00000000000E+00 0. -1.
         21   -1    0    0  504  502 -0.00000000000E+00 -0.00000000000E+00 -0.27213903168E+03  0.27213903168E+03  0.00000000000E+00 0. -1.
         21    1    1    2  503  501  0.61735229355E+02 -0.86237878821E+02  0.24304771301E+02  0.10880685730E+03  0.00000000000E+00 0. -1.
         21    1    1    2  504  503 -0.61735229355E+02  0.86237878821E+02 -0.21765571596E+03  0.24212026139E+03  0.00000000000E+00 0. -1.
<mgrwt>
<rscale>  2 0.10605758E+03</rscale>
<asrwt>0</asrwt>
<pdfrwt beam="1">  1       21 0.12121245E-01 0.10605758E+03</pdfrwt>
<pdfrwt beam="2">  1       21 0.41867542E-01 0.10605758E+03</pdfrwt>
<totfact> 0.32184930E+05</totfact>
</mgrwt>
</event>
<event>
 4    1  0.6024238E+003  0.1031457E+03  0.7546771E-02  0.1273817E+00
         21   -1    0    0  504  501  0.00000000000E+00  0.00000000000E+00  0.19411026318E+03  0.19411026318E+03  0.00000000000E+00 0.  1.
         21   -1    0    0  503  502 -0.00000000000E+00 -0.00000000000E+00 -0.66814297914E+02  0.66814297914E+02  0.00000000000E+00 0.  1.
         21    1    1    2  503  501  0.36664689594E+02 -0.96409161673E+02  0.83469385692E+01  0.10348283578E+03  0.00000000000E+00 0.  1.
         21    1    1    2  504  502 -0.36664689594E+02  0.96409161673E+02  0.11894902669E+03  0.15744172531E+03  0.00000000000E+00 0.  1.
<mgrwt>
<rscale>  2 0.10314565E+03</rscale>
<asrwt>0</asrwt>
<pdfrwt beam="1">  1       21 0.29863117E-01 0.10314565E+03</pdfrwt>
<pdfrwt beam="2">  1       21 0.10279123E-01 0.10314565E+03</pdfrwt>
<totfact> 0.83227329E+05</totfact>
</mgrwt>
</event>
<event>
 4    1  0.6024238E+003  0.1375379E+03  0.7546771E-02  0.1216681E+00
         21   -1    0    0  503  501  0.00000000000E+00  0.00000000000E+00  0.47424802433E+02  0.47424802433E+02  0.00000000000E+00 0. -1.
         21   -1    0    0  504  502 -0.00000000000E+00 -0.00000000000E+00 -0.39891298297E+03  0.39891298297E+03  0.00000000000E+00 0. -1.
         21    1    1    2  503  502  0.13742624780E+03 -0.55413614160E+01 -0.17785283489E+03  0.22482951574E+03  0.00000000000E+00 0. -1.
         21    1    1    2  504  501 -0.13742624780E+03  0.55413614160E+01 -0.17363534565E+03  0.22150826966E+03  0.00000000000E+00 0. -1.
<mgrwt>
<rscale>  2 0.13753792E+03</rscale>
<asrwt>0</asrwt>
<pdfrwt beam="1">  1       21 0.72961233E-02 0.13753792E+03</pdfrwt>
<pdfrwt beam="2">  1       21 0.61371229E-01 0.13753792E+03</pdfrwt>
<totfact> 0.35147899E+05</totfact>
</mgrwt>
</event>
<event>
 4    1  0.6024238E+003  0.1113888E+03  0.7546771E-02  0.1258020E+00
         21   -1    0    0  504  501  0.00000000000E+00  0.00000000000E+00  0.24274707625E+02  0.24274707625E+02  0.00000000000E+00 0. -1.
         21   -1    0    0  503  502 -0.00000000000E+00 -0.00000000000E+00 -0.53139656355E+03  0.53139656355E+03  0.00000000000E+00 0. -1.
         21    1    1    2  503  501  0.40820470195E+02  0.10363950800E+03 -0.19929830154E+03  0.22831397549E+03  0.00000000000E+00 0. -1.
         21    1    1    2  504  502 -0.40820470195E+02 -0.10363950800E+03 -0.30782355438E+03  0.32735729569E+03  0.00000000000E+00 0. -1.
<mgrwt>
<rscale>  2 0.11138877E+03</rscale>
<asrwt>0</asrwt>
<pdfrwt beam="1">  1       21 0.37345708E-02 0.11138877E+03</pdfrwt>
<pdfrwt beam="2">  1       21 0.81753309E-01 0.11138877E+03</pdfrwt>
<totfact> 0.58177273E+05</totfact>
</mgrwt>
</event>
<event>
 4    1  0.6024238E+003  0.1200831E+03  0.7546771E-02  0.1242960E+00
         21   -1    0    0  502  501  0.00000000000E+00  0.00000000000E+00  0.26159083185E+03  0.26159083185E+03  0.00000000000E+00 0. -1.
         21   -1    0    0  504  502 -0.00000000000E+00 -0.00000000000E+00 -0.63517503662E+03  0.63517503662E+03  0.00000000000E+00 0.  1.
         21    1    1    2  503  501  0.83939947659E+02 -0.85872150681E+02  0.24169273284E+03  0.26988019227E+03  0.00000000000E+00 0. -1.
         21    1    1    2  504  503 -0.83939947659E+02  0.85872150681E+02 -0.61527693761E+03  0.62688567620E+03  0.00000000000E+00 0.  1.
<mgrwt>
<rscale>  2 0.12008306E+03</rscale>
<asrwt>0</asrwt>
<pdfrwt beam="1">  1       21 0.40244743E-01 0.12008306E+03</pdfrwt>
<pdfrwt beam="2">  1       21 0.97719236E-01 0.12008306E+03</pdfrwt>
<totfact> 0.55106416E+03</totfact>
</mgrwt>
</event>
<event>
 4    1  0.6024238E+003  0.1401841E+03  0.7546771E-02  0.1213081E+00
         21   -1    0    0  503  501  0.00000000000E+00  0.00000000000E+00  0.16693233416E+04  0.16693233416E+04  0.00000000000E+00 0.  1.
         21   -1    0    0  504  502 -0.00000000000E+00 -0.00000000000E+00 -0.17047912852E+02  0.17047912852E+02  0.00000000000E+00 0.  1.
         21    1    1    2  503  502  0.13001957435E+03 -0.52407109705E+02  0.12951978140E+04  0.13027620551E+04  0.00000000000E+00 0.  1.
         21    1    1    2  504  501 -0.13001957435E+03  0.52407109705E+02  0.35707761476E+03  0.38360919935E+03  0.00000000000E+00 0.  1.
<mgrwt>
<rscale>  2 0.14018415E+03</rscale>
<asrwt>0</asrwt>
<pdfrwt beam="1">  1       21 0.25681885E+00 0.14018415E+03</pdfrwt>
<pdfrwt beam="2">  1       21 0.26227572E-02 0.14018415E+03</pdfrwt>
<totfact> 0.50122898E+04</totfact>
</mgrwt>
</event>
<event>
 4    1  0.6024238E+003  0.1198757E+03  0.7546771E-02  0.1243302E+00
         21   -1    0    0  504  501  0.00000000000E+00  0.00000000000E+00  0.31876052916E+02  0.31876052916E+02  0.00000000000E+00 0. -1.
         21   -1    0    0  503  502 -0.00000000000E+00 -0.00000000000E+00 -0.11824830379E+04  0.11824830379E+04  0.00000000000E+00 0. -1.
         21    1    1    2  503  501 -0.56983620530E+02  0.10546588929E+03 -0.10529172891E+04  0.10597193046E+04  0.00000000000E+00 0. -1.
         21    1    1    2  504  502  0.56983620530E+02 -0.10546588929E+03 -0.97689695949E+02  0.15463978630E+03  0.00000000000E+00 0. -1.
<mgrwt>
<rscale>  2 0.11987571E+03</rscale>
<asrwt>0</asrwt>
<pdfrwt beam="1">  1       21 0.49040079E-02 0.11987571E+03</pdfrwt>
<pdfrwt beam="2">  1       21 0.18192048E+00 0.11987571E+03</pdfrwt>
<totfact> 0.51595459E+04</totfact>
</mgrwt>
</event>
<event>
 4    1  0.6024238E+003  0.1401224E+03  0.7546771E-02  0.1213164E+00
         21   -1    0    0  502  501  0.00000000000E+00  0.00000000000E+00  0.14437441846E+03  0.14437441846E+03  0.00000000000E+00 0.  1.
         21   -1    0    0  504  502 -0.00000000000E+00 -0.00000000000E+00 -0.33669157141E+03  0.33669157141E+03  0.00000000000E+00 0. -1.
         21    1    1    2  503  501 -0.44956497240E+02  0.13271470267E+03  0.89548269613E+02  0.16629242779E+03  0.00000000000E+00 0.  1.
         21    1    1    2  504  503  0.44956497240E+02 -0.13271470267E+03 -0.28186542257E+03  0.31477356209E+03  0.00000000000E+00 0. -1.
<mgrwt>
<rscale>  2 0.14012237E+03</rscale>
<asrwt>0</asrwt>
<pdfrwt beam="1">  1       21 0.22211449E-01 0.14012237E+03</pdfrwt>
<pdfrwt beam="2">  1       21 0.51798702E-01 0.14012237E+03</pdfrwt>
<totfact> 0.68677091E+04</totfact>
</mgrwt>
</event>
<event>
 4    1  0.6024238E+003  0.1117833E+03  0.7546771E-02  0.1257303E+00
         21   -1    0    0  503  501  0.00000000000E+00  0.00000000000E+00  0.18554466298E+03  0.18554466298E+03  0.00000000000E+00 0. -1.
         21   -1    0    0  504  502 -0.00000000000E+00 -0.00000000000E+00 -0.67651637686E+02  0.67651637686E+02  0.00000000000E+00 0. -1.
         21    1    1    2  503  502  0.10674811056E+03  0.33171565407E+02  0.67469189882E+02  0.13056647136E+03  0.00000000000E+00 0. -1.
         21    1    1    2  504  501 -0.10674811056E+03 -0.33171565407E+02  0.50423835417E+02  0.12262982931E+03  0.00000000000E+00 0. -1.
<mgrwt>
<rscale>  2 0.11178333E+03</rscale>
<asrwt>0</asrwt>
<pdfrwt beam="1">  1       21 0.28545332E-01 0.11178333E+03</pdfrwt>
<pdfrwt beam="2">  1       21 0.10407944E-01 0.11178333E+03</pdfrwt>
<totfact> 0.88854875E+05</totfact>
</mgrwt>
</event>
<event>
 4    1  0.6024238E+003  0.1450657E+03  0.7546771E-02  0.1206671E+00
         21   -1    0    0  503  501  0.00000000000E+00  0.00000000000E+00  0.52759658552E+03  0.52759658552E+03  0.00000000000E+00 0. -1.
         21   -1    0    0  504  502 -0.00000000000E+00 -0.00000000000E+00 -0.56720670608E+02  0.56720670608E+02  0.00000000000E+00 0. -1.
         21    1    1    2  503  502 -0.12170280873E+03 -0.78946127438E+02  0.76275051749E+02  0.16389615069E+03  0.00000000000E+00 0. -1.
         21    1    1    2  504  501  0.12170280873E+03  0.78946127438E+02  0.39460086316E+03  0.42042110544E+03  0.00000000000E+00 0. -1.
<mgrwt>
<rscale>  2 0.14506573E+03</rscale>
<asrwt>0</asrwt>
<pdfrwt beam="1">  1       21 0.81168702E-01 0.14506573E+03</pdfrwt>
<pdfrwt beam="2">  1       21 0.87262574E-02 0.14506573E+03</pdfrwt>
<totfact> 0.13958056E+05</totfact>
</mgrwt>
</event>
<event>
 4    1  0.6024238E+003  0.1161880E+03  0.7546771E-02  0.1249522E+00
         21   -1    0    0  502  501  0.00000000000E+00  0.00000000000E+00  0.11320466244E+02  0.11320466244E+02  0.00000000000E+00 0. -1.
         21   -1    0    0  504  502 -0.00000000000E+00 -0.00000000000E+00 -0.19100443252E+04  0.19100443252E+04  0.00000000000E+00 0. -1.
         21    1    1    2  503  501  0.97495263321E+02  0.63200606792E+02 -0.36054156444E+03  0.37880055802E+03  0.00000000000E+00 0. -1.
         21    1    1    2  504  503 -0.97495263321E+02 -0.63200606792E+02 -0.15381822945E+04  0.15425642334E+04  0.00000000000E+00 0. -1.
<mgrwt>
<rscale>  2 0.11618796E+03</rscale>
<asrwt>0</asrwt>
<pdfrwt beam="1">  1       21 0.17416110E-02 0.11618796E+03</pdfrwt>
<pdfrwt beam="2">  1       21 0.29385284E+00 0.11618796E+03</pdfrwt>
<totfact> 0.61711215E+04</totfact>
</mgrwt>
</event>
<event>
 4    1  0.6024238E+003  0.1398937E+03  0.7546771E-02  0.1213472E+00
         21   -1    0    0  503  501  0.00000000000E+00  0.00000000000E+00  0.12220560809E+03  0.12220560809E+03  0.00000000000E+00 0. -1.
         21   -1    0    0  501  502 -0.00000000000E+00 -0.00000000000E+00 -0.19972931744E+03  0.19972931744E+03  0.00000000000E+00 0. -1.
         21    1    1    2  503  504 -0.12939415726E+03 -0.53173241918E+02  0.32901251106E+02  0.14371059082E+03  0.00000000000E+00 0. -1.
         21    1    1    2  504  502  0.12939415726E+03  0.53173241918E+02 -0.11042496046E+03  0.17822433471E+03  0.00000000000E+00 0. -1.
<mgrwt>
<rscale>  2 0.13989368E+03</rscale>
<asrwt>0</asrwt>
<pdfrwt beam="1">  1       21 0.18800863E-01 0.13989368E+03</pdfrwt>
<pdfrwt beam="2">  1       21 0.30727587E-01 0.13989368E+03</pdfrwt>
<totfact> 0.26662158E+05</totfact>
</mgrwt>
</event>
<event>
 4    1  0.6024238E+003  0.1119670E+03  0.7546771E-02  0.1256970E+00
         21   -1    0    0  502  501  0.00000000000E+00  0.00000000000E+00  0.12513013192E+02  0.12513013192E+02  0.00000000000E+00 0.  1.
         21   -1    0    0  503  502 -0.00000000000E+00 -0.00000000000E+00 -0.10050436625E+04  0.10050436625E+04  0.00000000000E+00 0.  1.
         21    1    1    2  503  504 -0.36070126992E+02  0.10599787940E+03 -0.52478629276E+03  0.53659785461E+03  0.00000000000E+00 0.  1.
         21    1    1    2  504  501  0.36070126992E+02 -0.10599787940E+03 -0.46774435654E+03  0.48095882108E+03  0.00000000000E+00 0.  1.
<mgrwt>
<rscale>  2 0.11196698E+03</rscale>
<asrwt>0</asrwt>
<pdfrwt beam="1">  1       21 0.19250785E-02 0.11196698E+03</pdfrwt>
<pdfrwt beam="2">  1       21 0.15462214E+00 0.11196698E+03</pdfrwt>
<totfact> 0.37091523E+05</totfact>
</mgrwt>
</event>
<event>
 4    1  0.6024238E+003  0.1019506E+03  0.7546771E-02  0.1276247E+00
         21   -1    0    0  504  501  0.00000000000E+00  0.00000000000E+00  0.22164585123E+04  0.22164585123E+04  0.00000000000E+00 0.  1.
         21   -1    0    0  501  502 -0.00000000000E+00 -0.00000000000E+00 -0.13440934226E+03  0.13440934226E+03  0.00000000000E+00 0. -1.
         21    1    1    2  503  502  0.97967592021E+02 -0.28218394700E+02 -0.11372234732E+03  0.15273080621E+03  0.00000000000E+00 0. -1.
         21    1    1    2  504  503 -0.97967592021E+02  0.28218394700E+02  0.21957715174E+04  0.21981370484E+04  0.00000000000E+00 0.  1.
<mgrwt>
<rscale>  2 0.10195061E+03</rscale>
<asrwt>0</asrwt>
<pdfrwt beam="1">  1       21 0.34099359E+00 0.10195061E+03</pdfrwt>
<pdfrwt beam="2">  1       21 0.20678362E-01 0.10195061E+03</pdfrwt>
<totfact> 0.51706562E+02</totfact>
</mgrwt>
</event>
<event>
 4    1  0.6024238E+003  0.1160360E+03  0.7546771E-02  0.1249783E+00
         21   -1    0    0  504  501  0.00000000000E+00  0.00000000000E+00  0.29072263317E+04  0.29072263317E+04  0.00000000000E+00 0. -1.
         21   -1    0    0  503  502 -0.00000000000E+00 -0.00000000000E+00 -0.55821809794E+01  0.55821809794E+01  0.00000000000E+00 0. -1.
         21    1    1    2  503  501  0.11452670999E+03  0.18654326115E+02  0.20519046226E+04  0.20551829436E+04  0.00000000000E+00 0. -1.
         21    1    1    2  504  502 -0.11452670999E+03 -0.18654326115E+02  0.84973952808E+03  0.85762556910E+03  0.00000000000E+00 0. -1.
<mgrwt>
<rscale>  2 0.11603599E+03</rscale>
<asrwt>0</asrwt>
<pdfrwt beam="1">  1       21 0.44726438E+00 0.11603599E+03</pdfrwt>
<pdfrwt beam="2">  1       21 0.85879940E-03 0.11603599E+03</pdfrwt>
<totfact> 0.23374627E+04</totfact>
</mgrwt>
</event>
<event>
 4    1  0.6024238E+003  0.1309544E+03  0.7546771E-02  0.1226046E+00
         21   -1    0    0  504  501  0.00000000000E+00  0.00000000000E+00  0.16360591870E+02  0.16360591870E+02  0.00000000000E+00 0.  1.
         21   -1    0    0  503  502 -0.00000000000E+00 -0.00000000000E+00 -0.11021712114E+04  0.11021712114E+04  0.00000000000E+00 0.  1.
         21    1    1    2  503  501  0.13027580479E+03 -0.13314424582E+02 -0.66667170008E+03  0.67941166821E+03  0.00000000000E+00 0.  1.
         21    1    1    2  504  502 -0.13027580479E+03  0.13314424582E+02 -0.41913891948E+03  0.43912013508E+03  0.00000000000E+00 0.  1.
<mgrwt>
<rscale>  2 0.13095442E+03</rscale>
<asrwt>0</asrwt>
<pdfrwt beam="1">  1       21 0.25170142E-02 0.13095442E+03</pdfrwt>
<pdfrwt beam="2">  1       21 0.16956480E+00 0.13095442E+03</pdfrwt>
<totfact> 0.18673821E+05</totfact>
</mgrwt>
</event>
<event>
 4    1  0.6024238E+003  0.1467907E+03  0.7546771E-02  0.1204473E+00
         21   -1    0    0  504  501  0.00000000000E+00  0.00000000000E+00  0.66520616662E+02  0.66520616662E+02  0.00000000000E+00 0.  1.
         21   -1    0    0  501  502 -0.00000000000E+00 -0.00000000000E+00 -0.41524255191E+03  0.41524255191E+03  0.00000000000E+00 0.  1.
         21    1    1    2  503  502 -0.35824364679E+02  0.14235214247E+03 -0.28732390947E+03  0.32264926240E+03  0.00000000000E+00 0.  1.
         21    1    1    2  504  503  0.35824364679E+02 -0.14235214247E+03 -0.61398025777E+02  0.15911390618E+03  0.00000000000E+00 0.  1.
<mgrwt>
<rscale>  2 0.14679073E+03</rscale>
<asrwt>0</asrwt>
<pdfrwt beam="1">  1       21 0.10233941E-01 0.14679073E+03</pdfrwt>
<pdfrwt beam="2">  1       21 0.63883472E-01 0.14679073E+03</pdfrwt>
<totfact> 0.17879737E+05</totfact>
</mgrwt>
</event>
<event>
 4    1  0.6024238E+003  0.1173383E+03  0.7546771E-02  0.1247554E+00
         21   -1    0    0  502  501  0.00000000000E+00  0.00000000000E+00  0.22779250021E+03  0.22779250021E+03  0.00000000000E+00 0. -1.
         21   -1    0    0  504  502 -0.00000000000E+00 -0.00000000000E+00 -0.12078549245E+03  0.12078549245E+03  0.00000000000E+00 0. -1.
         21    1    1    2  503  501  0.11581470595E+03 -0.18847481585E+02  0.17669399332E+03  0.21210620206E+03  0.00000000000E+00 0. -1.
         21    1    1    2  504  503 -0.11581470595E+03  0.18847481585E+02 -0.69686985562E+02  0.13647179061E+03  0.00000000000E+00 0. -1.
<mgrwt>
<rscale>  2 0.11733829E+03</rscale>
<asrwt>0</asrwt>
<pdfrwt beam="1">  1       21 0.35045000E-01 0.11733829E+03</pdfrwt>
<pdfrwt beam="2">  1       21 0.18582384E-01 0.11733829E+03</pdfrwt>
<totfact> 0.21192275E+05</totfact>
</mgrwt>
</event>
<event>
 4    1  0.6024238E+003  0.1363279E+03  0.7546771E-02  0.1218357E+00
         21   -1    0    0  504  501  0.00000000000E+00  0.00000000000E+00  0.82659710283E+03  0.82659710283E+03  0.00000000000E+00 0. -1.
         21   -1    0    0  501  502 -0.00000000000E+00 -0.00000000000E+00 -0.37723533149E+02  0.37723533149E+02  0.00000000000E+00 0. -1.
         21    1    1    2  503  502  0.12865753331E+03  0.45083715060E+02  0.11975938078E+03  0.18145966914E+03  0.00000000000E+00 0. -1.
         21    1    1    2  504  503 -0.12865753331E+03 -0.45083715060E+02  0.66911418891E+03  0.68286096684E+03  0.00000000000E+00 0. -1.
<mgrwt>
<rscale>  2 0.13632792E+03</rscale>
<asrwt>0</asrwt>
<pdfrwt beam="1">  1       21 0.12716877E+00 0.13632792E+03</pdfrwt>
<pdfrwt beam="2">  1       21 0.58036211E-02 0.13632792E+03</pdfrwt>
<totfact> 0.97867736E+04</totfact>
</mgrwt>
</event>
<event>
 4    1  0.6024238E+003  0.1130722E+03  0.7546771E-02  0.1254984E+00
         21   -1    0    0  504  501  0.00000000000E+00  0.00000000000E+00  0.17548065320E+02  0.17548065320E+02  0.00000000000E+00 0.  1.
         21   -1    0    0  503  502 -0.00000000000E+00 -0.00000000000E+00 -0.74402733375E+03  0.74402733375E+03  0.00000000000E+00 0.  1.
         21    1    1    2  503  501  0.11155812622E+03  0.18441893411E+02 -0.41809200645E+03  0.43311227738E+03  0.00000000000E+00 0.  1.
         21    1    1    2  504  502 -0.11155812622E+03 -0.18441893411E+02 -0.30838726198E+03  0.32846312169E+03  0.00000000000E+00 0.  1.
<mgrwt>
<rscale>  2 0.11307218E+03</rscale>
<asrwt>0</asrwt>
<pdfrwt beam="1">  1       21 0.26997022E-02 0.11307218E+03</pdfrwt>
<pdfrwt beam="2">  1       21 0.11446575E+00 0.11307218E+03</pdfrwt>
<totfact> 0.45428818E+05</totfact>
</mgrwt>
</event>
<event>
 4    1  0.6024238E+003  0.1049268E+03  0.7546771E-02  0.1270264E+00
         21   -1    0    0  504  501  0.00000000000E+00  0.00000000000E+00  0.11756364642E+03  0.11756364642E+03  0.00000000000E+00 0. -1.
         21   -1    0    0  503  502 -0.00000000000E+00 -0.00000000000E+00 -0.17536403626E+03  0.17536403626E+03  0.00000000000E+00 0.  1.
         21    1    1    2  503  501 -0.15518066894E+02 -0.10377297696E+03 -0.12888013639E+03  0.16619184909E+03  0.00000000000E+00 0.  1.
         21    1    1    2  504  502  0.15518066894E+02  0.10377297696E+03  0.71079746543E+02  0.12673583359E+03  0.00000000000E+00 0. -1.
<mgrwt>
<rscale>  2 0.10492684E+03</rscale>
<asrwt>0</asrwt>
<pdfrwt beam="1">  1       21 0.18086715E-01 0.10492684E+03</pdfrwt>
<pdfrwt beam="2">  1       21 0.26979082E-01 0.10492684E+03</pdfrwt>
<totfact> 0.36945453E+05</totfact>
</mgrwt>
</event>
<event>
 4    1  0.6024238E+003  0.1126314E+03  0.7546771E-02  0.1255773E+00
         21   -1    0    0  504  501  0.00000000000E+00  0.00000000000E+00  0.44921022512E+02  0.44921022512E+02  0.00000000000E+00 0.  1.
         21   -1    0    0  503  502 -0.00000000000E+00 -0.00000000000E+00 -0.28360599618E+03  0.28360599618E+03  0.00000000000E+00 0. -1.
         21    1    1    2  503  501 -0.99063166301E+02 -0.53594030493E+02 -0.10864411918E+03  0.15649081652E+03  0.00000000000E+00 0. -1.
         21    1    1    2  504  502  0.99063166301E+02  0.53594030493E+02 -0.13004085448E+03  0.17203620217E+03  0.00000000000E+00 0.  1.
<mgrwt>
<rscale>  2 0.11263139E+03</rscale>
<asrwt>0</asrwt>
<pdfrwt beam="1">  1       21 0.69109267E-02 0.11263139E+03</pdfrwt>
<pdfrwt beam="2">  1       21 0.43631691E-01 0.11263139E+03</pdfrwt>
<totfact> 0.78372768E+05</totfact>
</mgrwt>
</event>
<event>
 4    1  0.6024238E+003  0.1008420E+03  0.7546771E-02  0.1278535E+00
         21   -1    0    0  503  501  0.00000000000E+00  0.00000000000E+00  0.10242370066E+03  0.10242370066E+03  0.00000000000E+00 0. -1.
         21   -1    0    0  504  502 -0.00000000000E+00 -0.00000000000E+00 -0.13274674330E+03  0.13274674330E+03  0.00000000000E+00 0. -1.
         21    1    1    2  503  502  0.49079254504E+02  0.88092785884E+02 -0.74197486722E+02  0.12519736093E+03  0.00000000000E+00 0. -1.
         21    1    1    2  504  501 -0.49079254504E+02 -0.88092785884E+02  0.43874444088E+02  0.10997308303E+03  0.00000000000E+00 0. -1.
<mgrwt>
<rscale>  2 0.10084202E+03</rscale>
<asrwt>0</asrwt>
<pdfrwt beam="1">  1       21 0.15757492E-01 0.10084202E+03</pdfrwt>
<pdfrwt beam="2">  1       21 0.20422576E-01 0.10084202E+03</pdfrwt>
<totfact> 0.79724484E+05</totfact>
</mgrwt>
</event>
<event>
 4    1  0.6024238E+003  0.1135519E+03  0.7546771E-02  0.1254130E+00
         21   -1    0    0  504  501  0.00000000000E+00  0.00000000000E+00  0.44131086799E+03  0.44131086799E+03  0.00000000000E+00 0. -1.
         21   -1    0    0  503  502 -0.00000000000E+00 -0.00000000000E+00 -0.10565496150E+03  0.10565496150E+03  0.00000000000E+00 0.  1.
         21    1    1    2  503  501  0.94610258834E+02 -0.62792738944E+02  0.40044320899E+03  0.41623165757E+03  0.00000000000E+00 0. -1.
         21    1    1    2  504  502 -0.94610258834E+02  0.62792738944E+02 -0.64787302498E+02  0.13073417191E+03  0.00000000000E+00 0.  1.
<mgrwt>
<rscale>  2 0.11355188E+03</rscale>
<asrwt>0</asrwt>
<pdfrwt beam="1">  1       21 0.67893979E-01 0.11355188E+03</pdfrwt>
<pdfrwt beam="2">  1       21 0.16254610E-01 0.11355188E+03</pdfrwt>
<totfact> 0.69664211E+04</totfact>
</mgrwt>
</event>
<event>
 4    1  0.6024238E+003  0.1348906E+03  0.7546771E-02  0.1220374E+00
         21   -1    0    0  502  501  0.00000000000E+00  0.00000000000E+00  0.17409041345E+04  0.17409041345E+04  0.00000000000E+00 0.  1.
         21   -1    0    0  503  502 -0.00000000000E+00 -0.00000000000E+00 -0.32204765337E+02  0.32204765337E+02  0.00000000000E+00 0.  1.
         21    1    1    2  503  504 -0.10582558733E+03 -0.83644569097E+02  0.12572274207E+03  0.18439543581E+03  0.00000000000E+00 0.  1.
         21    1    1    2  504  501  0.10582558733E+03  0.83644569097E+02  0.15829766270E+04  0.15887134640E+04  0.00000000000E+00 0.  1.
<mgrwt>
<rscale>  2 0.13489058E+03</rscale>
<asrwt>0</asrwt>
<pdfrwt beam="1">  1       21 0.26783133E+00 0.13489058E+03</pdfrwt>
<pdfrwt beam="2">  1       21 0.49545806E-02 0.13489058E+03</pdfrwt>
<totfact> 0.15211971E+04</totfact>
</mgrwt>
</event>
<event>
 4    1  0.6024238E+003  0.1069828E+03  0.7546771E-02  0.1266261E+00
         21   -1    0    0  503  501  0.00000000000E+00  0.00000000000E+00  0.47955029098E+03  0.47955029098E+03  0.00000000000E+00 0. -1.
         21   -1    0    0  504  502 -0.00000000000E+00 -0.00000000000E+00 -0.25589697271E+02  0.25589697271E+02  0.00000000000E+00 0. -1.
         21    1    1    2  503  502  0.10334523548E+03  0.27660179680E+02  0.29251644042E+03  0.31146619584E+03  0.00000000000E+00 0. -1.
         21    1    1    2  504  501 -0.10334523548E+03 -0.27660179680E+02  0.16144415329E+03  0.19367379241E+03  0.00000000000E+00 0. -1.
<mgrwt>
<rscale>  2 0.10698282E+03</rscale>
<asrwt>0</asrwt>
<pdfrwt beam="1">  1       21 0.73776961E-01 0.10698282E+03</pdfrwt>
<pdfrwt beam="2">  1       21 0.39368768E-02 0.10698282E+03</pdfrwt>
<totfact> 0.66924185E+05</totfact>
</mgrwt>
</event>
<event>
 4    1  0.6024238E+003  0.1569506E+03  0.7546771E-02  0.1192183E+00
         21   -1    0    0  503  501  0.00000000000E+00  0.00000000000E+00  0.88514870022E+02  0.88514870022E+02  0.00000000000E+00 0.  1.
         21   -1    0    0  504  502 -0.00000000000E+00 -0.00000000000E+00 -0.31537616204E+03  0.31537616204E+03  0.00000000000E+00 0. -1.
         21    1    1    2  503  502 -0.15245845299E+03  0.37281611396E+02 -0.44187031043E+02  0.16305211482E+03  0.00000000000E+00 0.  1.
         21    1    1    2  504  501  0.15245845299E+03 -0.37281611396E+02 -0.18267426098E+03  0.24083891724E+03  0.00000000000E+00 0. -1.
<mgrwt>
<rscale>  2 0.15695062E+03</rscale>
<asrwt>0</asrwt>
<pdfrwt beam="1">  1       21 0.13617672E-01 0.15695062E+03</pdfrwt>
<pdfrwt beam="2">  1       21 0.48519411E-01 0.15695062E+03</pdfrwt>
<totfact> 0.19167700E+05</totfact>
</mgrwt>
</event>
<event>
 4    1  0.6024238E+003  0.1009853E+03  0.7546771E-02  0.1278238E+00
         21   -1    0    0  503  501  0.00000000000E+00  0.00000000000E+00  0.15210832604E+02  0.15210832604E+02  0.00000000000E+00 0.  1.
         21   -1    0    0  504  502 -0.00000000000E+00 -0.00000000000E+00 -0.12020546732E+04  0.12020546732E+04  0.00000000000E+00 0.  1.
         21    1    1    2  503  502 -0.94572201041E+02 -0.35413586991E+02 -0.18866923804E+03  0.21399557177E+03  0.00000000000E+00 0.  1.
         21    1    1    2  504  501  0.94572201041E+02  0.35413586991E+02 -0.99817460256E+03  0.10032699340E+04  0.00000000000E+00 0.  1.
<mgrwt>
<rscale>  2 0.10098526E+03</rscale>
<asrwt>0</asrwt>
<pdfrwt beam="1">  1       21 0.23401283E-02 0.10098526E+03</pdfrwt>
<pdfrwt beam="2">  1       21 0.18493148E+00 0.10098526E+03</pdfrwt>
<totfact> 0.16864183E+05</totfact>
</mgrwt>
</event>
<event>
 4    1  0.6024238E+003  0.1227456E+03  0.7546771E-02  0.1238635E+00
         21   -1    0    0  504  501  0.00000000000E+00  0.00000000000E+00  0.61713368180E+02  0.61713368180E+02  0.00000000000E+00 0.  1.
         21   -1    0    0  503  502 -0.00000000000E+00 -0.00000000000E+00 -0.28173917390E+03  0.28173917390E+03  0.00000000000E+00 0. -1.
         21    1    1    2  503  501  0.12213662395E+03 -0.12211484797E+02 -0.17274986163E+03  0.21191741308E+03  0.00000000000E+00 0. -1.
         21    1    1    2  504  502 -0.12213662395E+03  0.12211484797E+02 -0.47275944086E+02  0.13153512900E+03  0.00000000000E+00 0.  1.
<mgrwt>
<rscale>  2 0.12274557E+03</rscale>
<asrwt>0</asrwt>
<pdfrwt beam="1">  1       21 0.94943643E-02 0.12274557E+03</pdfrwt>
<pdfrwt beam="2">  1       21 0.43344489E-01 0.12274557E+03</pdfrwt>
<totfact> 0.45952558E+05</totfact>
</mgrwt>
</event>
<event>
 4    1  0.6024238E+003  0.1022508E+03  0.7546771E-02  0.1275633E+00
         21   -1    0    0  504  501  0.00000000000E+00  0.00000000000E+00  0.16017082834E+03  0.16017082834E+03  0.00000000000E+00 0. -1.
         21   -1    0    0  503  502 -0.00000000000E+00 -0.00000000000E+00 -0.66343106421E+02  0.66343106421E+02  0.00000000000E+00 0. -1.
         21    1    1    2  503  501 -0.92738443366E+02  0.43067398914E+02  0.61281546367E+02  0.11920842106E+03  0.00000000000E+00 0. -1.
         21    1    1    2  504  502  0.92738443366E+02 -0.43067398914E+02  0.32546175555E+02  0.10730551370E+03  0.00000000000E+00 0. -1.
<mgrwt>
<rscale>  2 0.10225077E+03</rscale>
<asrwt>0</asrwt>
<pdfrwt beam="1">  1       21 0.24641666E-01 0.10225077E+03</pdfrwt>
<pdfrwt beam="2">  1       21 0.10206632E-01 0.10225077E+03</pdfrwt>
<totfact> 0.12126279E+06</totfact>
</mgrwt>
</event>
<event>
 4    1  0.6024238E+003  0.1089369E+03  0.7546771E-02  0.1262551E+00
         21   -1    0    0  504  501  0.00000000000E+00  0.00000000000E+00  0.44625044309E+01  0.44625044309E+01  0.00000000000E+00 0. -1.
         21   -1    0    0  503  502 -0.00000000000E+00 -0.00000000000E+00 -0.26845233472E+04  0.26845233472E+04  0.00000000000E+00 0. -1.
         21    1    1    2  503  501  0.77608399645E+02 -0.76447310498E+02 -0.14702872688E+04  0.14743174379E+04  0.00000000000E+00 0. -1.
         21    1    1    2  504  502 -0.77608399645E+02  0.76447310498E+02 -0.12097735739E+04  0.12146684137E+04  0.00000000000E+00 0. -1.
<mgrwt>
<rscale>  2 0.10893693E+03</rscale>
<asrwt>0</asrwt>
<pdfrwt beam="1">  1       21 0.68653957E-03 0.10893693E+03</pdfrwt>
<pdfrwt beam="2">  1       21 0.41300334E+00 0.10893693E+03</pdfrwt>
<totfact> 0.55345396E+04</totfact>
</mgrwt>
</event>
<event>
 4    1  0.6024238E+003  0.1108790E+03  0.7546771E-02  0.1258951E+00
         21   -1    0    0  503  501  0.00000000000E+00  0.00000000000E+00  0.49928968097E+02  0.49928968097E+02  0.00000000000E+00 0.  1.
         21   -1    0    0  504  502 -0.00000000000E+00 -0.00000000000E+00 -0.25869997699E+03  0.25869997699E+03  0.00000000000E+00 0. -1.
         21    1    1    2  503  502  0.84105680073E+02  0.72252295444E+02 -0.70509745256E+02  0.13139932950E+03  0.00000000000E+00 0.  1.
         21    1    1    2  504  501 -0.84105680073E+02 -0.72252295444E+02 -0.13826126363E+03  0.17722961558E+03  0.00000000000E+00 0. -1.
<mgrwt>
<rscale>  2 0.11087903E+03</rscale>
<asrwt>0</asrwt>
<pdfrwt beam="1">  1       21 0.76813796E-02 0.11087903E+03</pdfrwt>
<pdfrwt beam="2">  1       21 0.39799997E-01 0.11087903E+03</pdfrwt>
<totfact> 0.78644804E+05</totfact>
</mgrwt>
</event>
<event>
 4    1  0.6024238E+003  0.1561909E+03  0.7546771E-02  0.1193066E+00
         21   -1    0    0  503  501  0.00000000000E+00  0.00000000000E+00  0.73292379642E+02  0.73292379642E+02  0.00000000000E+00 0. -1.
         21   -1    0    0  504  502 -0.00000000000E+00 -0.00000000000E+00 -0.56862352299E+03  0.56862352299E+03  0.00000000000E+00 0.  1.
         21    1    1    2  503  502 -0.11761788476E+03  0.10276986621E+03 -0.45433687727E+03  0.48043481375E+03  0.00000000000E+00 0.  1.
         21    1    1    2  504  501  0.11761788476E+03 -0.10276986621E+03 -0.40994266080E+02  0.16148108888E+03  0.00000000000E+00 0. -1.
<mgrwt>
<rscale>  2 0.15619095E+03</rscale>
<asrwt>0</asrwt>
<pdfrwt beam="1">  1       21 0.11275751E-01 0.15619095E+03</pdfrwt>
<pdfrwt beam="2">  1       21 0.87480542E-01 0.15619095E+03</pdfrwt>
<totfact> 0.74790684E+04</totfact>
</mgrwt>
</event>
<event>
 4    1  0.6024238E+003  0.1063656E+03  0.7546771E-02  0.1267452E+00
         21   -1    0    0  503  501  0.00000000000E+00  0.00000000000E+00  0.10507337014E+04  0.10507337014E+04  0.00000000000E+00 0. -1.
         21   -1    0    0  504  502 -0.00000000000E+00 -0.00000000000E+00 -0.14473596797E+02  0.14473596797E+02  0.00000000000E+00 0.  1.
         21    1    1    2  503  502 -0.10037527405E+01 -0.10636091303E+03  0.78764396220E+03  0.79479347162E+03  0.00000000000E+00 0. -1.
         21    1    1    2  504  501  0.10037527405E+01  0.10636091303E+03  0.24861614239E+03  0.27041382657E+03  0.00000000000E+00 0.  1.
<mgrwt>
<rscale>  2 0.10636565E+03</rscale>
<asrwt>0</asrwt>
<pdfrwt beam="1">  1       21 0.16165128E+00 0.10636565E+03</pdfrwt>
<pdfrwt beam="2">  1       21 0.22267080E-02 0.10636565E+03</pdfrwt>
<totfact> 0.26177030E+05</totfact>
</mgrwt>
</event>
<event>
 4    1  0.6024238E+003  0.1102845E+03  0.7546771E-02  0.1260044E+00
         21   -1    0    0  502  501  0.00000000000E+00  0.00000000000E+00  0.18622230997E+04  0.18622230997E+04  0.00000000000E+00 0. -1.
         21   -1    0    0  504  502 -0.00000000000E+00 -0.00000000000E+00 -0.69673213153E+01  0.69673213153E+01  0.00000000000E+00 0. -1.
         21    1    1    2  503  501  0.92167571557E+01 -0.10989869249E+03  0.11614374560E+04  0.11666617485E+04  0.00000000000E+00 0. -1.
         21    1    1    2  504  503 -0.92167571557E+01  0.10989869249E+03  0.69381832238E+03  0.70252867251E+03  0.00000000000E+00 0. -1.
<mgrwt>
<rscale>  2 0.11028450E+03</rscale>
<asrwt>0</asrwt>
<pdfrwt beam="1">  1       21 0.28649547E+00 0.11028450E+03</pdfrwt>
<pdfrwt beam="2">  1       21 0.10718971E-02 0.11028450E+03</pdfrwt>
<totfact> 0.14754978E+05</totfact>
</mgrwt>
</event>
<event>
 4    1  0.6024238E+003  0.1465839E+03  0.7546771E-02  0.1204735E+00
         21   -1    0    0  502  501  0.00000000000E+00  0.00000000000E+00  0.61796300025E+02  0.61796300025E+02  0.00000000000E+00 0. -1.
         21   -1    0    0  504  502 -0.00000000000E+00 -0.00000000000E+00 -0.31188836204E+04  0.31188836204E+04  0.00000000000E+00 0.  1.
         21    1    1    2  503  501  0.11343577729E+03 -0.92839504286E+02 -0.29470981713E+02  0.14951718259E+03  0.00000000000E+00 0. -1.
         21    1    1    2  504  503 -0.11343577729E+03  0.92839504286E+02 -0.30276163387E+04  0.30311627379E+04  0.00000000000E+00 0.  1.
<mgrwt>
<rscale>  2 0.14658393E+03</rscale>
<asrwt>0</asrwt>
<pdfrwt beam="1">  1       21 0.95071216E-02 0.14658393E+03</pdfrwt>
<pdfrwt beam="2">  1       21 0.47982832E+00 0.14658393E+03</pdfrwt>
<totfact> 0.25490053E+02</totfact>
</mgrwt>
</event>
<event>
 4    1  0.6024238E+003  0.1983032E+03  0.7546771E-02  0.1151179E+00
         21   -1    0    0  504  501  0.00000000000E+00  0.00000000000E+00  0.26088187862E+03  0.26088187862E+03  0.00000000000E+00 0.  1.
         21   -1    0    0  503  502 -0.00000000000E+00 -0.00000000000E+00 -0.23382198512E+03  0.23382198512E+03  0.00000000000E+00 0.  1.
         21    1    1    2  503  501 -0.19758091237E+03  0.16910151788E+02 -0.13391766101E+03  0.23928666928E+03  0.00000000000E+00 0.  1.
         21    1    1    2  504  502  0.19758091237E+03 -0.16910151788E+02  0.16097755451E+03  0.25541719445E+03  0.00000000000E+00 0.  1.
<mgrwt>
<rscale>  2 0.19830323E+03</rscale>
<asrwt>0</asrwt>
<pdfrwt beam="1">  1       21 0.40135674E-01 0.19830323E+03</pdfrwt>
<pdfrwt beam="2">  1       21 0.35972613E-01 0.19830323E+03</pdfrwt>
<totfact> 0.44455263E+04</totfact>
</mgrwt>
</event>
<event>
 4    1  0.6024238E+003  0.1203947E+03  0.7546771E-02  0.1242447E+00
         21   -1    0    0  503  501  0.00000000000E+00  0.00000000000E+00  0.24016801528E+02  0.24016801528E+02  0.00000000000E+00 0. -1.
         21   -1    0    0  504  502 -0.00000000000E+00 -0.00000000000E+00 -0.61451548807E+03  0.61451548807E+03  0.00000000000E+00 0. -1.
         21    1    1    2  503  502 -0.12325244410E+02 -0.11976218129E+03 -0.25256484214E+03  0.27979258604E+03  0.00000000000E+00 0. -1.
         21    1    1    2  504  501  0.12325244410E+02  0.11976218129E+03 -0.33793384440E+03  0.35873970356E+03  0.00000000000E+00 0. -1.
<mgrwt>
<rscale>  2 0.12039473E+03</rscale>
<asrwt>0</asrwt>
<pdfrwt beam="1">  1       21 0.36948924E-02 0.12039473E+03</pdfrwt>
<pdfrwt beam="2">  1       21 0.94540848E-01 0.12039473E+03</pdfrwt>
<totfact> 0.42534216E+05</totfact>
</mgrwt>
</event>
<event>
 4    1  0.6024238E+003  0.1237358E+03  0.7546771E-02  0.1237058E+00
         21   -1    0    0  503  501  0.00000000000E+00  0.00000000000E+00  0.25248921406E+03  0.25248921406E+03  0.00000000000E+00 0. -1.
         21   -1    0    0  504  502 -0.00000000000E+00 -0.00000000000E+00 -0.67354488088E+02  0.67354488088E+02  0.00000000000E+00 0. -1.
         21    1    1    2  503  502 -0.70090602128E+02  0.10196990560E+03  0.14306617578E+03  0.18915201507E+03  0.00000000000E+00 0. -1.
         21    1    1    2  504  501  0.70090602128E+02 -0.10196990560E+03  0.42068550186E+02  0.13069168707E+03  0.00000000000E+00 0. -1.
<mgrwt>
<rscale>  2 0.12373582E+03</rscale>
<asrwt>0</asrwt>
<pdfrwt beam="1">  1       21 0.38844494E-01 0.12373582E+03</pdfrwt>
<pdfrwt beam="2">  1       21 0.10362229E-01 0.12373582E+03</pdfrwt>
<totfact> 0.49126581E+05</totfact>
</mgrwt>
</event>
<event>
 4    1  0.6024238E+003  0.1105569E+03  0.7546771E-02  0.1259542E+00
         21   -1    0    0  503  501  0.00000000000E+00  0.00000000000E+00  0.10446243239E+04  0.10446243239E+04  0.00000000000E+00 0. -1.
         21   -1    0    0  501  502 -0.00000000000E+00 -0.00000000000E+00 -0.17376080277E+02  0.17376080277E+02  0.00000000000E+00 0. -1.
         21    1    1    2  503  504 -0.27845773999E+02 -0.10699269187E+03  0.81709479175E+03  0.82454030947E+03  0.00000000000E+00 0. -1.
         21    1    1    2  504  502  0.27845773999E+02  0.10699269187E+03  0.21015345188E+03  0.23746009471E+03  0.00000000000E+00 0. -1.
<mgrwt>
<rscale>  2 0.11055688E+03</rscale>
<asrwt>0</asrwt>
<pdfrwt beam="1">  1       21 0.16071139E+00 0.11055688E+03</pdfrwt>
<pdfrwt beam="2">  1       21 0.26732439E-02 0.11055688E+03</pdfrwt>
<totfact> 0.19732410E+05</totfact>
</mgrwt>
</event>
<event>
 4    1  0.6024238E+003  0.1449505E+03  0.7546771E-02  0.1206819E+00
         21   -1    0    0  504  501  0.00000000000E+00  0.00000000000E+00  0.62442078504E+01  0.62442078504E+01  0.00000000000E+00 0. -1.
         21   -1    0    0  503  502 -0.00000000000E+00 -0.00000000000E+00 -0.34944451143E+04  0.34944451143E+04  0.00000000000E+00 0. -1.
         21    1    1    2  503  501  0.12044023365E+03 -0.80652335408E+02 -0.14069875453E+04  0.14144343752E+04  0.00000000000E+00 0. -1.
         21    1    1    2  504  502 -0.12044023365E+03  0.80652335408E+02 -0.20812133611E+04  0.20862549469E+04  0.00000000000E+00 0. -1.
<mgrwt>
<rscale>  2 0.14495051E+03</rscale>
<asrwt>0</asrwt>
<pdfrwt beam="1">  1       21 0.96064494E-03 0.14495051E+03</pdfrwt>
<pdfrwt beam="2">  1       21 0.53760829E+00 0.14495051E+03</pdfrwt>
<totfact> 0.43857178E+03</totfact>
</mgrwt>
</event>
<event>
 4    1  0.6024238E+003  0.1291996E+03  0.7546771E-02  0.1228648E+00
         21   -1    0    0  503  501  0.00000000000E+00  0.00000000000E+00  0.14597383421E+03  0.14597383421E+03  0.00000000000E+00 0. -1.
         21   -1    0    0  504  502 -0.00000000000E+00 -0.00000000000E+00 -0.11987854152E+03  0.11987854152E+03  0.00000000000E+00 0. -1.
         21    1    1    2  503  502 -0.47831813702E+02  0.12001939861E+03  0.41586021669E+02  0.13572743143E+03  0.00000000000E+00 0. -1.
         21    1    1    2  504  501  0.47831813702E+02 -0.12001939861E+03 -0.15490728976E+02  0.13012494430E+03  0.00000000000E+00 0. -1.
<mgrwt>
<rscale>  2 0.12919961E+03</rscale>
<asrwt>0</asrwt>
<pdfrwt beam="1">  1       21 0.22457513E-01 0.12919961E+03</pdfrwt>
<pdfrwt beam="2">  1       21 0.18442853E-01 0.12919961E+03</pdfrwt>
<totfact> 0.50232425E+05</totfact>
</mgrwt>
</event>
<event>
 4    1  0.6024238E+003  0.1408069E+03  0.7546771E-02  0.1212247E+00
         21   -1    0    0  503  501  0.00000000000E+00  0.00000000000E+00  0.15006180438E+03  0.15006180438E+03  0.00000000000E+00 0.  1.
         21   -1    0    0  504  502 -0.00000000000E+00 -0.00000000000E+00 -0.16100061107E+03  0.16100061107E+03  0.00000000000E+00 0. -1.
         21    1    1    2  503  502  0.13637485144E+03 -0.35049581236E+02 -0.71339233687E+02  0.15784758317E+03  0.00000000000E+00 0. -1.
         21    1    1    2  504  501 -0.13637485144E+03  0.35049581236E+02  0.60400426994E+02  0.15321483228E+03  0.00000000000E+00 0.  1.
<mgrwt>
<rscale>  2 0.14080687E+03</rscale>
<asrwt>0</asrwt>
<pdfrwt beam="1">  1       21 0.23086432E-01 0.14080687E+03</pdfrwt>
<pdfrwt beam="2">  1       21 0.24769325E-01 0.14080687E+03</pdfrwt>
<totfact> 0.27489823E+05</totfact>
</mgrwt>
</event>
<event>
 4    1  0.6024238E+003  0.1166828E+03  0.7546771E-02  0.1248672E+00
         21   -1    0    0  504  501  0.00000000000E+00  0.00000000000E+00  0.10221935401E+03  0.10221935401E+03  0.00000000000E+00 0.  1.
         21   -1    0    0  503  502 -0.00000000000E+00 -0.00000000000E+00 -0.45432600225E+03  0.45432600225E+03  0.00000000000E+00 0. -1.
         21    1    1    2  503  501  0.28656641833E+02 -0.11310908664E+03 -0.41000677985E+03  0.42628679093E+03  0.00000000000E+00 0. -1.
         21    1    1    2  504  502 -0.28656641833E+02  0.11310908664E+03  0.57900131613E+02  0.13025856533E+03  0.00000000000E+00 0.  1.
<mgrwt>
<rscale>  2 0.11668277E+03</rscale>
<asrwt>0</asrwt>
<pdfrwt beam="1">  1       21 0.15726055E-01 0.11668277E+03</pdfrwt>
<pdfrwt beam="2">  1       21 0.69896306E-01 0.11668277E+03</pdfrwt>
<totfact> 0.69318387E+04</totfact>
</mgrwt>
</event>
<event>
 4    1  0.6024238E+003  0.1135687E+03  0.7546771E-02  0.1254100E+00
         21   -1    0    0  503  501  0.00000000000E+00  0.00000000000E+00  0.34689186404E+03  0.34689186404E+03  0.00000000000E+00 0.  1.
         21   -1    0    0  504  502 -0.00000000000E+00 -0.00000000000E+00 -0.85225693862E+03  0.85225693862E+03  0.00000000000E+00 0.  1.
         21    1    1    2  503  502  0.58786381545E+02  0.97170007471E+02  0.33366728509E+03  0.35246518430E+03  0.00000000000E+00 0.  1.
         21    1    1    2  504  501 -0.58786381545E+02 -0.97170007471E+02 -0.83903235968E+03  0.84668361835E+03  0.00000000000E+00 0.  1.
<mgrwt>
<rscale>  2 0.11356870E+03</rscale>
<asrwt>0</asrwt>
<pdfrwt beam="1">  1       21 0.53367979E-01 0.11356870E+03</pdfrwt>
<pdfrwt beam="2">  1       21 0.13111645E+00 0.11356870E+03</pdfrwt>
<totfact> 0.15456533E+03</totfact>
</mgrwt>
</event>
<event>
 4    1  0.6024238E+003  0.1247289E+03  0.7546771E-02  0.1235494E+00
         21   -1    0    0  503  501  0.00000000000E+00  0.00000000000E+00  0.76695768064E+02  0.76695768064E+02  0.00000000000E+00 0. -1.
         21   -1    0    0  504  502 -0.00000000000E+00 -0.00000000000E+00 -0.21110180511E+03  0.21110180511E+03  0.00000000000E+00 0. -1.
         21    1    1    2  503  502 -0.11359237901E+03 -0.51517745574E+02 -0.95662899769E+02  0.15719000309E+03  0.00000000000E+00 0. -1.
         21    1    1    2  504  501  0.11359237901E+03  0.51517745574E+02 -0.38743137274E+02  0.13060757009E+03  0.00000000000E+00 0. -1.
<mgrwt>
<rscale>  2 0.12472893E+03</rscale>
<asrwt>0</asrwt>
<pdfrwt beam="1">  1       21 0.11799349E-01 0.12472893E+03</pdfrwt>
<pdfrwt beam="2">  1       21 0.32477201E-01 0.12472893E+03</pdfrwt>
<totfact> 0.55578062E+05</totfact>
</mgrwt>
</event>
<event>
 4    1  0.6024238E+003  0.1121741E+03  0.7546771E-02  0.1256596E+00
         21   -1    0    0  502  501  0.00000000000E+00  0.00000000000E+00  0.68484318762E+03  0.68484318762E+03  0.00000000000E+00 0. -1.
         21   -1    0    0  503  502 -0.00000000000E+00 -0.00000000000E+00 -0.17925793200E+03  0.17925793200E+03  0.00000000000E+00 0. -1.
         21    1    1    2  503  504  0.80816187142E+02  0.77793158976E+02 -0.15651728547E+03  0.19256347613E+03  0.00000000000E+00 0. -1.
         21    1    1    2  504  501 -0.80816187142E+02 -0.77793158976E+02  0.66210254110E+03  0.67153764349E+03  0.00000000000E+00 0. -1.
<mgrwt>
<rscale>  2 0.11217411E+03</rscale>
<asrwt>0</asrwt>
<pdfrwt beam="1">  1       21 0.10536049E+00 0.11217411E+03</pdfrwt>
<pdfrwt beam="2">  1       21 0.27578144E-01 0.11217411E+03</pdfrwt>
<totfact> 0.97295934E+03</totfact>
</mgrwt>
</event>
<event>
 4    1  0.6024238E+003  0.5250609E+03  0.7546771E-02  0.1007437E+00
         21   -1    0    0  503  501  0.00000000000E+00  0.00000000000E+00  0.12453023624E+04  0.12453023624E+04  0.00000000000E+00 0. -1.
         21   -1    0    0  504  502 -0.00000000000E+00 -0.00000000000E+00 -0.26353394729E+03  0.26353394729E+03  0.00000000000E+00 0.  1.
         21    1    1    2  503  502  0.41519992172E+03 -0.32140008520E+03  0.79259901156E+03  0.95073770457E+03  0.00000000000E+00 0. -1.
         21    1    1    2  504  501 -0.41519992172E+03  0.32140008520E+03  0.18916940352E+03  0.55809860508E+03  0.00000000000E+00 0.  1.
<mgrwt>
<rscale>  2 0.52506094E+03</rscale>
<asrwt>0</asrwt>
<pdfrwt beam="1">  1       21 0.19158498E+00 0.52506094E+03</pdfrwt>
<pdfrwt beam="2">  1       21 0.40543685E-01 0.52506094E+03</pdfrwt>
<totfact> 0.71865633E+02</totfact>
</mgrwt>
</event>
<event>
 4    1  0.6024238E+003  0.1490702E+03  0.7546771E-02  0.1201620E+00
         21   -1    0    0  502  501  0.00000000000E+00  0.00000000000E+00  0.66936342359E+02  0.66936342359E+02  0.00000000000E+00 0.  1.
         21   -1    0    0  503  502 -0.00000000000E+00 -0.00000000000E+00 -0.98725991526E+03  0.98725991526E+03  0.00000000000E+00 0. -1.
         21    1    1    2  503  504  0.48917967523E+02 -0.14081527903E+03 -0.88958671554E+03  0.90199026315E+03  0.00000000000E+00 0. -1.
         21    1    1    2  504  501 -0.48917967523E+02  0.14081527903E+03 -0.30736857370E+02  0.15220599448E+03  0.00000000000E+00 0.  1.
<mgrwt>
<rscale>  2 0.14907015E+03</rscale>
<asrwt>0</asrwt>
<pdfrwt beam="1">  1       21 0.10297900E-01 0.14907015E+03</pdfrwt>
<pdfrwt beam="2">  1       21 0.15188613E+00 0.14907015E+03</pdfrwt>
<totfact> 0.22971309E+04</totfact>
</mgrwt>
</event>
<event>
 4    1  0.6024238E+003  0.1193487E+03  0.7546771E-02  0.1244175E+00
         21   -1    0    0  504  501  0.00000000000E+00  0.00000000000E+00  0.41018322158E+03  0.41018322158E+03  0.00000000000E+00 0. -1.
         21   -1    0    0  503  502 -0.00000000000E+00 -0.00000000000E+00 -0.35478524824E+02  0.35478524824E+02  0.00000000000E+00 0. -1.
         21    1    1    2  503  501 -0.26225569075E+02 -0.11643161237E+03  0.21980109487E+03  0.25011321864E+03  0.00000000000E+00 0. -1.
         21    1    1    2  504  502  0.26225569075E+02  0.11643161237E+03  0.15490360189E+03  0.19554852777E+03  0.00000000000E+00 0. -1.
<mgrwt>
<rscale>  2 0.11934865E+03</rscale>
<asrwt>0</asrwt>
<pdfrwt beam="1">  1       21 0.63105108E-01 0.11934865E+03</pdfrwt>
<pdfrwt beam="2">  1       21 0.54582349E-02 0.11934865E+03</pdfrwt>
<totfact> 0.54368620E+05</totfact>
</mgrwt>
</event>
<event>
 4    1  0.6024238E+003  0.1282969E+03  0.7546771E-02  0.1230005E+00
         21   -1    0    0  504  501  0.00000000000E+00  0.00000000000E+00  0.84545449820E+03  0.84545449820E+03  0.00000000000E+00 0.  1.
         21   -1    0    0  501  502 -0.00000000000E+00 -0.00000000000E+00 -0.72173598845E+02  0.72173598845E+02  0.00000000000E+00 0.  1.
         21    1    1    2  503  502 -0.74467508337E+01 -0.12808056369E+03 -0.54372283234E+01  0.12841202570E+03  0.00000000000E+00 0.  1.
         21    1    1    2  504  503  0.74467508337E+01  0.12808056369E+03  0.77871812768E+03  0.78921607135E+03  0.00000000000E+00 0.  1.
<mgrwt>
<rscale>  2 0.12829686E+03</rscale>
<asrwt>0</asrwt>
<pdfrwt beam="1">  1       21 0.13006992E+00 0.12829686E+03</pdfrwt>
<pdfrwt beam="2">  1       21 0.11103631E-01 0.12829686E+03</pdfrwt>
<totfact> 0.30334196E+04</totfact>
</mgrwt>
</event>
<event>
 4    1  0.6024238E+003  0.1311547E+03  0.7546771E-02  0.1225752E+00
         21   -1    0    0  504  501  0.00000000000E+00  0.00000000000E+00  0.37159762920E+02  0.37159762920E+02  0.00000000000E+00 0. -1.
         21   -1    0    0  503  502 -0.00000000000E+00 -0.00000000000E+00 -0.56795167980E+03  0.56795167980E+03  0.00000000000E+00 0. -1.
         21    1    1    2  503  501  0.70599253109E+02  0.11053194465E+03 -0.13527900925E+03  0.18841967962E+03  0.00000000000E+00 0. -1.
         21    1    1    2  504  502 -0.70599253109E+02 -0.11053194465E+03 -0.39551290763E+03  0.41669176310E+03  0.00000000000E+00 0. -1.
<mgrwt>
<rscale>  2 0.13115474E+03</rscale>
<asrwt>0</asrwt>
<pdfrwt beam="1">  1       21 0.57168868E-02 0.13115474E+03</pdfrwt>
<pdfrwt beam="2">  1       21 0.87377178E-01 0.13115474E+03</pdfrwt>
<totfact> 0.24502319E+05</totfact>
</mgrwt>
</event>
<event>
 4    1  0.6024238E+003  0.1236149E+03  0.7546771E-02  0.1237250E+00
         21   -1    0    0  504  501  0.00000000000E+00  0.00000000000E+00  0.26230398348E+03  0.26230398348E+03  0.00000000000E+00 0.  1.
         21   -1    0    0  503  502 -0.00000000000E+00 -0.00000000000E+00 -0.10888957178E+03  0.10888957178E+03  0.00000000000E+00 0. -1.
         21    1    1    2  503  501  0.96563551803E+02 -0.77175873544E+02  0.20326793078E+03  0.23790436456E+03  0.00000000000E+00 0.  1.
         21    1    1    2  504  502 -0.96563551803E+02  0.77175873544E+02 -0.49853519076E+02  0.13328919070E+03  0.00000000000E+00 0. -1.
<mgrwt>
<rscale>  2 0.12361487E+03</rscale>
<asrwt>0</asrwt>
<pdfrwt beam="1">  1       21 0.40354459E-01 0.12361487E+03</pdfrwt>
<pdfrwt beam="2">  1       21 0.16752242E-01 0.12361487E+03</pdfrwt>
<totfact> 0.19334725E+05</totfact>
</mgrwt>
</event>
<event>
 4    1  0.6024238E+003  0.1420594E+03  0.7546771E-02  0.1210585E+00
         21   -1    0    0  504  501  0.00000000000E+00  0.00000000000E+00  0.76040735842E+02  0.76040735842E+02  0.00000000000E+00 0. -1.
         21   -1    0    0  503  502 -0.00000000000E+00 -0.00000000000E+00 -0.53754117672E+03  0.53754117672E+03  0.00000000000E+00 0.  1.
         21    1    1    2  503  501 -0.37539013177E+02 -0.13700978662E+03 -0.12458376867E+02  0.14260459422E+03  0.00000000000E+00 0. -1.
         21    1    1    2  504  502  0.37539013177E+02  0.13700978662E+03 -0.44904206402E+03  0.47097731834E+03  0.00000000000E+00 0.  1.
<mgrwt>
<rscale>  2 0.14205935E+03</rscale>
<asrwt>0</asrwt>
<pdfrwt beam="1">  1       21 0.11698575E-01 0.14205935E+03</pdfrwt>
<pdfrwt beam="2">  1       21 0.82698643E-01 0.14205935E+03</pdfrwt>
<totfact> 0.80094278E+04</totfact>
</mgrwt>
</event>
<event>
 4    1  0.6024238E+003  0.1170319E+03  0.7546771E-02  0.1248075E+00
         21   -1    0    0  503  501  0.00000000000E+00  0.00000000000E+00  0.17458017159E+03  0.17458017159E+03  0.00000000000E+00 0.  1.
         21   -1    0    0  504  502 -0.00000000000E+00 -0.00000000000E+00 -0.66819972770E+03  0.66819972770E+03  0.00000000000E+00 0.  1.
         21    1    1    2  503  502  0.11702695486E+03 -0.10782796646E+01  0.14907018060E+03  0.18952147529E+03  0.00000000000E+00 0.  1.
         21    1    1    2  504  501 -0.11702695486E+03  0.10782796646E+01 -0.64268973671E+03  0.65325842400E+03  0.00000000000E+00 0.  1.
<mgrwt>
<rscale>  2 0.11703192E+03</rscale>
<asrwt>0</asrwt>
<pdfrwt beam="1">  1       21 0.26858488E-01 0.11703192E+03</pdfrwt>
<pdfrwt beam="2">  1       21 0.10279996E+00 0.11703192E+03</pdfrwt>
<totfact> 0.10787733E+04</totfact>
</mgrwt>
</event>
<event>
 4    1  0.6024238E+003  0.1242160E+03  0.7546771E-02  0.1236300E+00
         21   -1    0    0  502  501  0.00000000000E+00  0.00000000000E+00  0.24613889437E+02  0.24613889437E+02  0.00000000000E+00 0. -1.
         21   -1    0    0  504  502 -0.00000000000E+00 -0.00000000000E+00 -0.21238535046E+04  0.21238535046E+04  0.00000000000E+00 0. -1.
         21    1    1    2  503  501  0.92540178593E+02 -0.82860845647E+02 -0.14774632903E+03  0.19302482259E+03  0.00000000000E+00 0. -1.
         21    1    1    2  504  503 -0.92540178593E+02  0.82860845647E+02 -0.19514932861E+04  0.19554425714E+04  0.00000000000E+00 0. -1.
<mgrwt>
<rscale>  2 0.12421596E+03</rscale>
<asrwt>0</asrwt>
<pdfrwt beam="1">  1       21 0.37867523E-02 0.12421596E+03</pdfrwt>
<pdfrwt beam="2">  1       21 0.32674669E+00 0.12421596E+03</pdfrwt>
<totfact> 0.11268692E+04</totfact>
</mgrwt>
</event>
<event>
 4    1  0.6024238E+003  0.1437543E+03  0.7546771E-02  0.1208365E+00
         21   -1    0    0  502  501  0.00000000000E+00  0.00000000000E+00  0.21799583086E+03  0.21799583086E+03  0.00000000000E+00 0.  1.
         21   -1    0    0  504  502 -0.00000000000E+00 -0.00000000000E+00 -0.13893187483E+03  0.13893187483E+03  0.00000000000E+00 0.  1.
         21    1    1    2  503  501  0.77382875374E+02  0.12114950423E+03  0.14011881376E+03  0.20074509644E+03  0.00000000000E+00 0.  1.
         21    1    1    2  504  503 -0.77382875374E+02 -0.12114950423E+03 -0.61054857737E+02  0.15618260924E+03  0.00000000000E+00 0.  1.
<mgrwt>
<rscale>  2 0.14375435E+03</rscale>
<asrwt>0</asrwt>
<pdfrwt beam="1">  1       21 0.33537820E-01 0.14375435E+03</pdfrwt>
<pdfrwt beam="2">  1       21 0.21374135E-01 0.14375435E+03</pdfrwt>
<totfact> 0.17706370E+05</totfact>
</mgrwt>
</event>
<event>
 4    1  0.6024238E+003  0.1011285E+03  0.7546771E-02  0.1277941E+00
         21   -1    0    0  503  501  0.00000000000E+00  0.00000000000E+00  0.80561137880E+03  0.80561137880E+03  0.00000000000E+00 0.  1.
         21   -1    0    0  504  502 -0.00000000000E+00 -0.00000000000E+00 -0.48205671255E+02  0.48205671255E+02  0.00000000000E+00 0.  1.
         21    1    1    2  503  502 -0.50590373533E+02 -0.87564736293E+02  0.12292926592E+02  0.10187288639E+03  0.00000000000E+00 0.  1.
         21    1    1    2  504  501  0.50590373533E+02  0.87564736293E+02  0.74511278095E+03  0.75194416367E+03  0.00000000000E+00 0.  1.
<mgrwt>
<rscale>  2 0.10112848E+03</rscale>
<asrwt>0</asrwt>
<pdfrwt beam="1">  1       21 0.12394020E+00 0.10112848E+03</pdfrwt>
<pdfrwt beam="2">  1       21 0.74162577E-02 0.10112848E+03</pdfrwt>
<totfact> 0.70117237E+04</totfact>
</mgrwt>
</event>
<event>
 4    1  0.6024238E+003  0.1018379E+03  0.7546771E-02  0.1276478E+00
         21   -1    0    0  503  501  0.00000000000E+00  0.00000000000E+00  0.27440628849E+02  0.27440628849E+02  0.00000000000E+00 0. -1.
         21   -1    0    0  504  502 -0.00000000000E+00 -0.00000000000E+00 -0.13249152053E+04  0.13249152053E+04  0.00000000000E+00 0. -1.
         21    1    1    2  503  502 -0.10183551305E+03  0.69185482839E+00 -0.12203948048E+04  0.12246364481E+04  0.00000000000E+00 0. -1.
         21    1    1    2  504  501  0.10183551305E+03 -0.69185482839E+00 -0.77079771655E+02  0.12771938607E+03  0.00000000000E+00 0. -1.
<mgrwt>
<rscale>  2 0.10183786E+03</rscale>
<asrwt>0</asrwt>
<pdfrwt beam="1">  1       21 0.42216356E-02 0.10183786E+03</pdfrwt>
<pdfrwt beam="2">  1       21 0.20383309E+00 0.10183786E+03</pdfrwt>
<totfact> 0.48844059E+04</totfact>
</mgrwt>
</event>
<event>
 4    1  0.6024238E+003  0.1087536E+03  0.7546771E-02  0.1262896E+00
         21   -1    0    0  503  501  0.00000000000E+00  0.00000000000E+00  0.12909234595E+03  0.12909234595E+03  0.00000000000E+00 0. -1.
         21   -1    0    0  504  502 -0.00000000000E+00 -0.00000000000E+00 -0.93429140902E+02  0.93429140902E+02  0.00000000000E+00 0. -1.
         21    1    1    2  503  502 -0.53141038914E+02 -0.94886126047E+02  0.33317064800E+02  0.11374257664E+03  0.00000000000E+00 0. -1.
         21    1    1    2  504  501  0.53141038914E+02  0.94886126047E+02  0.23461402446E+01  0.10877891021E+03  0.00000000000E+00 0. -1.
<mgrwt>
<rscale>  2 0.10875361E+03</rscale>
<asrwt>0</asrwt>
<pdfrwt beam="1">  1       21 0.19860361E-01 0.10875361E+03</pdfrwt>
<pdfrwt beam="2">  1       21 0.14373714E-01 0.10875361E+03</pdfrwt>
<totfact> 0.99059645E+05</totfact>
</mgrwt>
</event>
<event>
 4    1  0.6024238E+003  0.1256799E+03  0.7546771E-02  0.1234011E+00
         21   -1    0    0  504  501  0.00000000000E+00  0.00000000000E+00  0.30856513487E+03  0.30856513487E+03  0.00000000000E+00 0. -1.
         21   -1    0    0  503  502 -0.00000000000E+00 -0.00000000000E+00 -0.12521569094E+03  0.12521569094E+03  0.00000000000E+00 0.  1.
         21    1    1    2  503  501 -0.14050038030E+02 -0.12489208229E+03 -0.75089292516E+02  0.14640299737E+03  0.00000000000E+00 0.  1.
         21    1    1    2  504  502  0.14050038030E+02  0.12489208229E+03  0.25843873644E+03  0.28737782844E+03  0.00000000000E+00 0. -1.
<mgrwt>
<rscale>  2 0.12567989E+03</rscale>
<asrwt>0</asrwt>
<pdfrwt beam="1">  1       21 0.47471559E-01 0.12567989E+03</pdfrwt>
<pdfrwt beam="2">  1       21 0.19263953E-01 0.12567989E+03</pdfrwt>
<totfact> 0.10775117E+05</totfact>
</mgrwt>
</event>
<event>
 4    1  0.6024238E+003  0.1203005E+03  0.7546771E-02  0.1242602E+00
         21   -1    0    0  502  501  0.00000000000E+00  0.00000000000E+00  0.94631856343E+03  0.94631856343E+03  0.00000000000E+00 0. -1.
         21   -1    0    0  503  502 -0.00000000000E+00 -0.00000000000E+00 -0.44768718538E+02  0.44768718538E+02  0.00000000000E+00 0. -1.
         21    1    1    2  503  504 -0.69339936310E+02  0.98306592533E+02  0.48682854006E+02  0.12977762972E+03  0.00000000000E+00 0. -1.
         21    1    1    2  504  501  0.69339936310E+02 -0.98306592533E+02  0.85286699088E+03  0.86130965224E+03  0.00000000000E+00 0. -1.
<mgrwt>
<rscale>  2 0.12030051E+03</rscale>
<asrwt>0</asrwt>
<pdfrwt beam="1">  1       21 0.14558746E+00 0.12030051E+03</pdfrwt>
<pdfrwt beam="2">  1       21 0.68874959E-02 0.12030051E+03</pdfrwt>
<totfact> 0.52518019E+04</totfact>
</mgrwt>
</event>
<event>
 4    1  0.6024238E+003  0.1015227E+03  0.7546771E-02  0.1277126E+00
         21   -1    0    0  504  501  0.00000000000E+00  0.00000000000E+00  0.32478193624E+02  0.32478193624E+02  0.00000000000E+00 0.  1.
         21   -1    0    0  503  502 -0.00000000000E+00 -0.00000000000E+00 -0.65746728429E+03  0.65746728429E+03  0.00000000000E+00 0.  1.
         21    1    1    2  503  501  0.98011057584E+02  0.26470547628E+02 -0.64373289732E+02  0.12021138769E+03  0.00000000000E+00 0.  1.
         21    1    1    2  504  502 -0.98011057584E+02 -0.26470547628E+02 -0.56061580094E+03  0.56973409022E+03  0.00000000000E+00 0.  1.
<mgrwt>
<rscale>  2 0.10152269E+03</rscale>
<asrwt>0</asrwt>
<pdfrwt beam="1">  1       21 0.49966450E-02 0.10152269E+03</pdfrwt>
<pdfrwt beam="2">  1       21 0.10114882E+00 0.10152269E+03</pdfrwt>
<totfact> 0.22137397E+05</totfact>
</mgrwt>
</event>
<event>
 4    1  0.6024238E+003  0.1068630E+03  0.7546771E-02  0.1266492E+00
         21   -1    0    0  504  501  0.00000000000E+00  0.00000000000E+00  0.14246719518E+02  0.14246719518E+02  0.00000000000E+00 0. -1.
         21   -1    0    0  503  502 -0.00000000000E+00 -0.00000000000E+00 -0.80715538472E+03  0.80715538472E+03  0.00000000000E+00 0. -1.
         21    1    1    2  503  501 -0.15728606641E+02 -0.10569917858E+03 -0.43062679083E+03  0.44368810937E+03  0.00000000000E+00 0. -1.
         21    1    1    2  504  502  0.15728606641E+02  0.10569917858E+03 -0.36228187438E+03  0.37771399487E+03  0.00000000000E+00 0. -1.
<mgrwt>
<rscale>  2 0.10686302E+03</rscale>
<asrwt>0</asrwt>
<pdfrwt beam="1">  1       21 0.21918021E-02 0.10686302E+03</pdfrwt>
<pdfrwt beam="2">  1       21 0.12417780E+00 0.10686302E+03</pdfrwt>
<totfact> 0.52339525E+05</totfact>
</mgrwt>
</event>
<event>
 4    1  0.6024238E+003  0.1014609E+03  0.7546771E-02  0.1277254E+00
         21   -1    0    0  502  501  0.00000000000E+00  0.00000000000E+00  0.10804852196E+04  0.10804852196E+04  0.00000000000E+00 0.  1.
         21   -1    0    0  504  502 -0.00000000000E+00 -0.00000000000E+00 -0.16462224580E+02  0.16462224580E+02  0.00000000000E+00 0. -1.
         21    1    1    2  503  501 -0.77235392889E+02  0.65795208527E+02  0.88799214720E+03  0.89376975160E+03  0.00000000000E+00 0.  1.
         21    1    1    2  504  503  0.77235392889E+02 -0.65795208527E+02  0.17603084782E+03  0.20317769259E+03  0.00000000000E+00 0. -1.
<mgrwt>
<rscale>  2 0.10146091E+03</rscale>
<asrwt>0</asrwt>
<pdfrwt beam="1">  1       21 0.16622844E+00 0.10146091E+03</pdfrwt>
<pdfrwt beam="2">  1       21 0.25326508E-02 0.10146091E+03</pdfrwt>
<totfact> 0.19796617E+05</totfact>
</mgrwt>
</event>
<event>
 4    1  0.6024238E+003  0.1048910E+03  0.7546771E-02  0.1270335E+00
         21   -1    0    0  503  501  0.00000000000E+00  0.00000000000E+00  0.20727331059E+03  0.20727331059E+03  0.00000000000E+00 0. -1.
         21   -1    0    0  504  502 -0.00000000000E+00 -0.00000000000E+00 -0.73648796325E+03  0.73648796325E+03  0.00000000000E+00 0.  1.
         21    1    1    2  503  502  0.16769125964E+02 -0.10354182644E+03  0.18995064391E+03  0.21698700544E+03  0.00000000000E+00 0. -1.
         21    1    1    2  504  501 -0.16769125964E+02  0.10354182644E+03 -0.71916529657E+03  0.72677426839E+03  0.00000000000E+00 0.  1.
<mgrwt>
<rscale>  2 0.10489096E+03</rscale>
<asrwt>0</asrwt>
<pdfrwt beam="1">  1       21 0.31888202E-01 0.10489096E+03</pdfrwt>
<pdfrwt beam="2">  1       21 0.11330584E+00 0.10489096E+03</pdfrwt>
<totfact> 0.62519336E+03</totfact>
</mgrwt>
</event>
<event>
 4    1  0.6024238E+003  0.1522946E+03  0.7546771E-02  0.1197681E+00
         21   -1    0    0  503  501  0.00000000000E+00  0.00000000000E+00  0.14285664981E+02  0.14285664981E+02  0.00000000000E+00 0. -1.
         21   -1    0    0  504  502 -0.00000000000E+00 -0.00000000000E+00 -0.16701105769E+04  0.16701105769E+04  0.00000000000E+00 0. -1.
         21    1    1    2  503  502 -0.39701991072E+02 -0.14702854373E+03 -0.96851787403E+03  0.98041853975E+03  0.00000000000E+00 0. -1.
         21    1    1    2  504  501  0.39701991072E+02  0.14702854373E+03 -0.68730703792E+03  0.70397770216E+03  0.00000000000E+00 0. -1.
<mgrwt>
<rscale>  2 0.15229459E+03</rscale>
<asrwt>0</asrwt>
<pdfrwt beam="1">  1       21 0.21977942E-02 0.15229459E+03</pdfrwt>
<pdfrwt beam="2">  1       21 0.25694014E+00 0.15229459E+03</pdfrwt>
<totfact> 0.66027537E+04</totfact>
</mgrwt>
</event>
<event>
 4    1  0.6024238E+003  0.1473485E+03  0.7546771E-02  0.1203769E+00
         21   -1    0    0  504  501  0.00000000000E+00  0.00000000000E+00  0.82536362749E+03  0.82536362749E+03  0.00000000000E+00 0.  1.
         21   -1    0    0  501  502 -0.00000000000E+00 -0.00000000000E+00 -0.14518057747E+03  0.14518057747E+03  0.00000000000E+00 0.  1.
         21    1    1    2  503  502 -0.26851694315E+02  0.14488123361E+03 -0.99021693481E+02  0.17752994429E+03  0.00000000000E+00 0.  1.
         21    1    1    2  504  503  0.26851694315E+02 -0.14488123361E+03  0.77920474350E+03  0.79301426067E+03  0.00000000000E+00 0.  1.
<mgrwt>
<rscale>  2 0.14734852E+03</rscale>
<asrwt>0</asrwt>
<pdfrwt beam="1">  1       21 0.12697902E+00 0.14734852E+03</pdfrwt>
<pdfrwt beam="2">  1       21 0.22335474E-01 0.14734852E+03</pdfrwt>
<totfact> 0.89218896E+03</totfact>
</mgrwt>
</event>
<event>
 4    1  0.6024238E+003  0.1138933E+03  0.7546771E-02  0.1253525E+00
         21   -1    0    0  503  501  0.00000000000E+00  0.00000000000E+00  0.49960199882E+02  0.49960199882E+02  0.00000000000E+00 0. -1.
         21   -1    0    0  501  502 -0.00000000000E+00 -0.00000000000E+00 -0.51301008622E+03  0.51301008622E+03  0.00000000000E+00 0. -1.
         21    1    1    2  503  504  0.11261831835E+03 -0.16993950450E+02 -0.33705051142E+02  0.11877588329E+03  0.00000000000E+00 0. -1.
         21    1    1    2  504  502 -0.11261831835E+03  0.16993950450E+02 -0.42934483520E+03  0.44419440281E+03  0.00000000000E+00 0. -1.
<mgrwt>
<rscale>  2 0.11389328E+03</rscale>
<asrwt>0</asrwt>
<pdfrwt beam="1">  1       21 0.76861847E-02 0.11389328E+03</pdfrwt>
<pdfrwt beam="2">  1       21 0.78924628E-01 0.11389328E+03</pdfrwt>
<totfact> 0.18695887E+05</totfact>
</mgrwt>
</event>
<event>
 4    1  0.6024238E+003  0.1022915E+03  0.7546771E-02  0.1275550E+00
         21   -1    0    0  502  501  0.00000000000E+00  0.00000000000E+00  0.86328051598E+02  0.86328051598E+02  0.00000000000E+00 0. -1.
         21   -1    0    0  504  502 -0.00000000000E+00 -0.00000000000E+00 -0.15453449068E+03  0.15453449068E+03  0.00000000000E+00 0. -1.
         21    1    1    2  503  501  0.49421283502E+02  0.89560566906E+02  0.21824652950E+02  0.10459385204E+03  0.00000000000E+00 0. -1.
         21    1    1    2  504  503 -0.49421283502E+02 -0.89560566906E+02 -0.90031092035E+02  0.13626869024E+03  0.00000000000E+00 0. -1.
<mgrwt>
<rscale>  2 0.10229154E+03</rscale>
<asrwt>0</asrwt>
<pdfrwt beam="1">  1       21 0.13281239E-01 0.10229154E+03</pdfrwt>
<pdfrwt beam="2">  1       21 0.23774537E-01 0.10229154E+03</pdfrwt>
<totfact> 0.81640929E+05</totfact>
</mgrwt>
</event>
<event>
 4    1  0.6024238E+003  0.1216648E+03  0.7546771E-02  0.1240376E+00
         21   -1    0    0  504  501  0.00000000000E+00  0.00000000000E+00  0.25858217133E+03  0.25858217133E+03  0.00000000000E+00 0.  1.
         21   -1    0    0  503  502 -0.00000000000E+00 -0.00000000000E+00 -0.72810582925E+02  0.72810582925E+02  0.00000000000E+00 0. -1.
         21    1    1    2  503  501 -0.11018623168E+03  0.51587943170E+02  0.16271457639E+02  0.12274804221E+03  0.00000000000E+00 0. -1.
         21    1    1    2  504  502  0.11018623168E+03 -0.51587943170E+02  0.16950013077E+03  0.20864471204E+03  0.00000000000E+00 0.  1.
<mgrwt>
<rscale>  2 0.12166479E+03</rscale>
<asrwt>0</asrwt>
<pdfrwt beam="1">  1       21 0.39781872E-01 0.12166479E+03</pdfrwt>
<pdfrwt beam="2">  1       21 0.11201628E-01 0.12166479E+03</pdfrwt>
<totfact> 0.40868104E+05</totfact>
</mgrwt>
</event>
<event>
 4    1  0.6024238E+003  0.1165209E+03  0.7546771E-02  0.1248949E+00
         21   -1    0    0  503  501  0.00000000000E+00  0.00000000000E+00  0.31740200679E+03  0.31740200679E+03  0.00000000000E+00 0.  1.
         21   -1    0    0  504  502 -0.00000000000E+00 -0.00000000000E+00 -0.46792392433E+02  0.46792392433E+02  0.00000000000E+00 0.  1.
         21    1    1    2  503  502  0.71309428005E+02 -0.92152569412E+02  0.18865592645E+03  0.22173901135E+03  0.00000000000E+00 0.  1.
         21    1    1    2  504  501 -0.71309428005E+02  0.92152569412E+02  0.81953687913E+02  0.14245538787E+03  0.00000000000E+00 0.  1.
<mgrwt>
<rscale>  2 0.11652094E+03</rscale>
<asrwt>0</asrwt>
<pdfrwt beam="1">  1       21 0.48831077E-01 0.11652094E+03</pdfrwt>
<pdfrwt beam="2">  1       21 0.71988298E-02 0.11652094E+03</pdfrwt>
<totfact> 0.58144811E+05</totfact>
</mgrwt>
</event>
<event>
 4    1  0.6024238E+003  0.3271503E+03  0.7546771E-02  0.1072405E+00
         21   -1    0    0  503  501  0.00000000000E+00  0.00000000000E+00  0.76809742151E+03  0.76809742151E+03  0.00000000000E+00 0.  1.
         21   -1    0    0  504  502 -0.00000000000E+00 -0.00000000000E+00 -0.17964201154E+03  0.17964201154E+03  0.00000000000E+00 0.  1.
         21    1    1    2  503  502 -0.14556241552E+03 -0.29298279039E+03  0.69780661184E+02  0.33450960069E+03  0.00000000000E+00 0.  1.
         21    1    1    2  504  501  0.14556241552E+03  0.29298279039E+03  0.51867474878E+03  0.61322983236E+03  0.00000000000E+00 0.  1.
<mgrwt>
<rscale>  2 0.32715032E+03</rscale>
<asrwt>0</asrwt>
<pdfrwt beam="1">  1       21 0.11816883E+00 0.32715032E+03</pdfrwt>
<pdfrwt beam="2">  1       21 0.27637233E-01 0.32715032E+03</pdfrwt>
<totfact> 0.63220789E+03</totfact>
</mgrwt>
</event>
<event>
 4    1  0.6024238E+003  0.1071477E+03  0.7546771E-02  0.1265945E+00
         21   -1    0    0  502  501  0.00000000000E+00  0.00000000000E+00  0.10287721628E+04  0.10287721628E+04  0.00000000000E+00 0. -1.
         21   -1    0    0  504  502 -0.00000000000E+00 -0.00000000000E+00 -0.14002077487E+02  0.14002077487E+02  0.00000000000E+00 0. -1.
         21    1    1    2  503  501 -0.96468752329E+02  0.46630489620E+02  0.74230356572E+03  0.74999680428E+03  0.00000000000E+00 0. -1.
         21    1    1    2  504  503  0.96468752329E+02 -0.46630489620E+02  0.27246651955E+03  0.29277743597E+03  0.00000000000E+00 0. -1.
<mgrwt>
<rscale>  2 0.10714767E+03</rscale>
<asrwt>0</asrwt>
<pdfrwt beam="1">  1       21 0.15827258E+00 0.10714767E+03</pdfrwt>
<pdfrwt beam="2">  1       21 0.21541666E-02 0.10714767E+03</pdfrwt>
<totfact> 0.29178441E+05</totfact>
</mgrwt>
</event>
<event>
 4    1  0.6024238E+003  0.1140795E+03  0.7546771E-02  0.1253197E+00
         21   -1    0    0  504  501  0.00000000000E+00  0.00000000000E+00  0.32823465571E+02  0.32823465571E+02  0.00000000000E+00 0.  1.
         21   -1    0    0  503  502 -0.00000000000E+00 -0.00000000000E+00 -0.42664478228E+03  0.42664478228E+03  0.00000000000E+00 0.  1.
         21    1    1    2  503  501 -0.10861296572E+03 -0.34890492711E+02 -0.25798826748E+03  0.28208521578E+03  0.00000000000E+00 0.  1.
         21    1    1    2  504  502  0.10861296572E+03  0.34890492711E+02 -0.13583304923E+03  0.17738303207E+03  0.00000000000E+00 0.  1.
<mgrwt>
<rscale>  2 0.11407946E+03</rscale>
<asrwt>0</asrwt>
<pdfrwt beam="1">  1       21 0.50497643E-02 0.11407946E+03</pdfrwt>
<pdfrwt beam="2">  1       21 0.65637654E-01 0.11407946E+03</pdfrwt>
<totfact> 0.56969522E+05</totfact>
</mgrwt>
</event>
<event>
 4    1  0.6024238E+003  0.1007972E+03  0.7546771E-02  0.1278628E+00
         21   -1    0    0  502  501  0.00000000000E+00  0.00000000000E+00  0.73074598864E+02  0.73074598864E+02  0.00000000000E+00 0.  1.
         21   -1    0    0  504  502 -0.00000000000E+00 -0.00000000000E+00 -0.17516815841E+03  0.17516815841E+03  0.00000000000E+00 0.  1.
         21    1    1    2  503  501 -0.52406946391E+02  0.86102156162E+02  0.53248062500E+01  0.10093771786E+03  0.00000000000E+00 0.  1.
         21    1    1    2  504  503  0.52406946391E+02 -0.86102156162E+02 -0.10741836580E+03  0.14730503942E+03  0.00000000000E+00 0.  1.
<mgrwt>
<rscale>  2 0.10079717E+03</rscale>
<asrwt>0</asrwt>
<pdfrwt beam="1">  1       21 0.11242246E-01 0.10079717E+03</pdfrwt>
<pdfrwt beam="2">  1       21 0.26948947E-01 0.10079717E+03</pdfrwt>
<totfact> 0.86520810E+05</totfact>
</mgrwt>
</event>
<event>
 4    1  0.6024238E+003  0.1068777E+03  0.7546771E-02  0.1266464E+00
         21   -1    0    0  504  501  0.00000000000E+00  0.00000000000E+00  0.36729084748E+02  0.36729084748E+02  0.00000000000E+00 0. -1.
         21   -1    0    0  503  502 -0.00000000000E+00 -0.00000000000E+00 -0.82840341613E+03  0.82840341613E+03  0.00000000000E+00 0. -1.
         21    1    1    2  503  501 -0.58342384811E+02  0.89548974762E+02 -0.53979667312E+02  0.11973578091E+03  0.00000000000E+00 0. -1.
         21    1    1    2  504  502  0.58342384811E+02 -0.89548974762E+02 -0.73769466407E+03  0.74539671997E+03  0.00000000000E+00 0. -1.
<mgrwt>
<rscale>  2 0.10687775E+03</rscale>
<asrwt>0</asrwt>
<pdfrwt beam="1">  1       21 0.56506289E-02 0.10687775E+03</pdfrwt>
<pdfrwt beam="2">  1       21 0.12744667E+00 0.10687775E+03</pdfrwt>
<totfact> 0.10341604E+05</totfact>
</mgrwt>
</event>
<event>
 4    1  0.6024238E+003  0.1223982E+03  0.7546771E-02  0.1239192E+00
         21   -1    0    0  504  501  0.00000000000E+00  0.00000000000E+00  0.22171785262E+03  0.22171785262E+03  0.00000000000E+00 0. -1.
         21   -1    0    0  503  502 -0.00000000000E+00 -0.00000000000E+00 -0.67663315725E+02  0.67663315725E+02  0.00000000000E+00 0.  1.
         21    1    1    2  503  501 -0.76706810534E+02 -0.95380215045E+02  0.71633866559E+02  0.14181936061E+03  0.00000000000E+00 0. -1.
         21    1    1    2  504  502  0.76706810534E+02  0.95380215045E+02  0.82420670332E+02  0.14756180774E+03  0.00000000000E+00 0.  1.
<mgrwt>
<rscale>  2 0.12239820E+03</rscale>
<asrwt>0</asrwt>
<pdfrwt beam="1">  1       21 0.34110439E-01 0.12239820E+03</pdfrwt>
<pdfrwt beam="2">  1       21 0.10409741E-01 0.12239820E+03</pdfrwt>
<totfact> 0.62970945E+05</totfact>
</mgrwt>
</event>
<event>
 4    1  0.6024238E+003  0.1267101E+03  0.7546771E-02  0.1232421E+00
         21   -1    0    0  504  501  0.00000000000E+00  0.00000000000E+00  0.10379217623E+03  0.10379217623E+03  0.00000000000E+00 0.  1.
         21   -1    0    0  503  502 -0.00000000000E+00 -0.00000000000E+00 -0.23666675364E+03  0.23666675364E+03  0.00000000000E+00 0.  1.
         21    1    1    2  503  501  0.52310094165E+02  0.11540841322E+03  0.33750697960E+02  0.13112801915E+03  0.00000000000E+00 0.  1.
         21    1    1    2  504  502 -0.52310094165E+02 -0.11540841322E+03 -0.16662527537E+03  0.20933091073E+03  0.00000000000E+00 0.  1.
<mgrwt>
<rscale>  2 0.12671009E+03</rscale>
<asrwt>0</asrwt>
<pdfrwt beam="1">  1       21 0.15968027E-01 0.12671009E+03</pdfrwt>
<pdfrwt beam="2">  1       21 0.36410269E-01 0.12671009E+03</pdfrwt>
<totfact> 0.25851259E+05</totfact>
</mgrwt>
</event>
<event>
 4    1  0.6024238E+003  0.1128773E+03  0.7546771E-02  0.1255333E+00
         21   -1    0    0  502  501  0.00000000000E+00  0.00000000000E+00  0.31962193981E+03  0.31962193981E+03  0.00000000000E+00 0. -1.
         21   -1    0    0  504  502 -0.00000000000E+00 -0.00000000000E+00 -0.19808553358E+03  0.19808553358E+03  0.00000000000E+00 0. -1.
         21    1    1    2  503  501  0.76609734445E+02 -0.82898877655E+02  0.29211390095E+03  0.31316418450E+03  0.00000000000E+00 0. -1.
         21    1    1    2  504  503 -0.76609734445E+02  0.82898877655E+02 -0.17057749471E+03  0.20454328889E+03  0.00000000000E+00 0. -1.
<mgrwt>
<rscale>  2 0.11287726E+03</rscale>
<asrwt>0</asrwt>
<pdfrwt beam="1">  1       21 0.49172606E-01 0.11287726E+03</pdfrwt>
<pdfrwt beam="2">  1       21 0.30474698E-01 0.11287726E+03</pdfrwt>
<totfact> 0.42593789E+04</totfact>
</mgrwt>
</event>
<event>
 4    1  0.6024238E+003  0.1162832E+03  0.7546771E-02  0.1249358E+00
         21   -1    0    0  504  501  0.00000000000E+00  0.00000000000E+00  0.11024225490E+02  0.11024225490E+02  0.00000000000E+00 0. -1.
         21   -1    0    0  503  502 -0.00000000000E+00 -0.00000000000E+00 -0.14668548114E+04  0.14668548114E+04  0.00000000000E+00 0. -1.
         21    1    1    2  503  501  0.23553904721E+02  0.11387273829E+03 -0.42883027283E+03  0.44431654240E+03  0.00000000000E+00 0. -1.
         21    1    1    2  504  502 -0.23553904721E+02 -0.11387273829E+03 -0.10270003131E+04  0.10335624945E+04  0.00000000000E+00 0. -1.
<mgrwt>
<rscale>  2 0.11628322E+03</rscale>
<asrwt>0</asrwt>
<pdfrwt beam="1">  1       21 0.16960344E-02 0.11628322E+03</pdfrwt>
<pdfrwt beam="2">  1       21 0.22567001E+00 0.11628322E+03</pdfrwt>
<totfact> 0.15702022E+05</totfact>
</mgrwt>
</event>
<event>
 4    1  0.6024238E+003  0.1065781E+03  0.7546771E-02  0.1267041E+00
         21   -1    0    0  504  501  0.00000000000E+00  0.00000000000E+00  0.21836330444E+03  0.21836330444E+03  0.00000000000E+00 0.  1.
         21   -1    0    0  503  502 -0.00000000000E+00 -0.00000000000E+00 -0.60216280235E+02  0.60216280235E+02  0.00000000000E+00 0.  1.
         21    1    1    2  503  501  0.32229280033E+02  0.10158825560E+03  0.13046773122E+03  0.16846580976E+03  0.00000000000E+00 0.  1.
         21    1    1    2  504  502 -0.32229280033E+02 -0.10158825560E+03  0.27679292986E+02  0.11011377492E+03  0.00000000000E+00 0.  1.
<mgrwt>
<rscale>  2 0.10657814E+03</rscale>
<asrwt>0</asrwt>
<pdfrwt beam="1">  1       21 0.33594354E-01 0.10657814E+03</pdfrwt>
<pdfrwt beam="2">  1       21 0.92640433E-02 0.10657814E+03</pdfrwt>
<totfact> 0.79461642E+05</totfact>
</mgrwt>
</event>
<event>
 4    1  0.6024238E+003  0.1052507E+03  0.7546771E-02  0.1269627E+00
         21   -1    0    0  504  501  0.00000000000E+00  0.00000000000E+00  0.37582096907E+02  0.37582096907E+02  0.00000000000E+00 0.  1.
         21   -1    0    0  503  502 -0.00000000000E+00 -0.00000000000E+00 -0.13772966917E+04  0.13772966917E+04  0.00000000000E+00 0. -1.
         21    1    1    2  503  501  0.72145614890E+02  0.76633636189E+02 -0.42670693465E+02  0.11357152823E+03  0.00000000000E+00 0.  1.
         21    1    1    2  504  502 -0.72145614890E+02 -0.76633636189E+02 -0.12970439013E+04  0.13013072604E+04  0.00000000000E+00 0. -1.
<mgrwt>
<rscale>  2 0.10525067E+03</rscale>
<asrwt>0</asrwt>
<pdfrwt beam="1">  1       21 0.57818606E-02 0.10525067E+03</pdfrwt>
<pdfrwt beam="2">  1       21 0.21189182E+00 0.10525067E+03</pdfrwt>
<totfact> 0.25708468E+04</totfact>
</mgrwt>
</event>
<event>
 4    1  0.6024238E+003  0.1695329E+03  0.7546771E-02  0.1178336E+00
         21   -1    0    0  503  501  0.00000000000E+00  0.00000000000E+00  0.33810699049E+02  0.33810699049E+02  0.00000000000E+00 0. -1.
         21   -1    0    0  501  502 -0.00000000000E+00 -0.00000000000E+00 -0.85667789639E+03  0.85667789639E+03  0.00000000000E+00 0. -1.
         21    1    1    2  503  504  0.46271078976E+02 -0.16309630859E+03 -0.37232589440E+03  0.40910633125E+03  0.00000000000E+00 0. -1.
         21    1    1    2  504  502 -0.46271078976E+02  0.16309630859E+03 -0.45054130294E+03  0.48138226420E+03  0.00000000000E+00 0. -1.
<mgrwt>
<rscale>  2 0.16953294E+03</rscale>
<asrwt>0</asrwt>
<pdfrwt beam="1">  1       21 0.52016469E-02 0.16953294E+03</pdfrwt>
<pdfrwt beam="2">  1       21 0.13179658E+00 0.16953294E+03</pdfrwt>
<totfact> 0.10611961E+05</totfact>
</mgrwt>
</event>
<event>
 4    1  0.6024238E+003  0.1165921E+03  0.7546771E-02  0.1248827E+00
         21   -1    0    0  504  501  0.00000000000E+00  0.00000000000E+00  0.14532679997E+04  0.14532679997E+04  0.00000000000E+00 0.  1.
         21   -1    0    0  501  502 -0.00000000000E+00 -0.00000000000E+00 -0.70778203201E+02  0.70778203201E+02  0.00000000000E+00 0. -1.
         21    1    1    2  503  502  0.54291479340E+02 -0.10318016604E+03 -0.18640952069E+02  0.11807284399E+03  0.00000000000E+00 0. -1.
         21    1    1    2  504  503 -0.54291479340E+02  0.10318016604E+03  0.14011307486E+04  0.14059733589E+04  0.00000000000E+00 0.  1.
<mgrwt>
<rscale>  2 0.11659207E+03</rscale>
<asrwt>0</asrwt>
<pdfrwt beam="1">  1       21 0.22357967E+00 0.11659207E+03</pdfrwt>
<pdfrwt beam="2">  1       21 0.10888955E-01 0.11659207E+03</pdfrwt>
<totfact> 0.72698599E+03</totfact>
</mgrwt>
</event>
<event>
 4    1  0.6024238E+003  0.1034242E+03  0.7546771E-02  0.1273256E+00
         21   -1    0    0  504  501  0.00000000000E+00  0.00000000000E+00  0.52478254664E+03  0.52478254664E+03  0.00000000000E+00 0.  1.
         21   -1    0    0  503  502 -0.00000000000E+00 -0.00000000000E+00 -0.34008177107E+02  0.34008177107E+02  0.00000000000E+00 0.  1.
         21    1    1    2  503  501  0.10342074900E+03  0.83934067710E+00  0.42223562368E+03  0.43471769889E+03  0.00000000000E+00 0.  1.
         21    1    1    2  504  502 -0.10342074900E+03 -0.83934067710E+00  0.68538745851E+02  0.12407302486E+03  0.00000000000E+00 0.  1.
<mgrwt>
<rscale>  2 0.10342415E+03</rscale>
<asrwt>0</asrwt>
<pdfrwt beam="1">  1       21 0.80735770E-01 0.10342415E+03</pdfrwt>
<pdfrwt beam="2">  1       21 0.52320276E-02 0.10342415E+03</pdfrwt>
<totfact> 0.34196909E+05</totfact>
</mgrwt>
</event>
<event>
 4    1  0.6024238E+003  0.1003890E+03  0.7546771E-02  0.1279480E+00
         21   -1    0    0  503  501  0.00000000000E+00  0.00000000000E+00  0.49789530191E+03  0.49789530191E+03  0.00000000000E+00 0.  1.
         21   -1    0    0  504  502 -0.00000000000E+00 -0.00000000000E+00 -0.22944616344E+02  0.22944616344E+02  0.00000000000E+00 0.  1.
         21    1    1    2  503  502  0.94627628454E+02 -0.33519491358E+02  0.32686742387E+03  0.34193604249E+03  0.00000000000E+00 0.  1.
         21    1    1    2  504  501 -0.94627628454E+02  0.33519491358E+02  0.14808326170E+03  0.17890387576E+03  0.00000000000E+00 0.  1.
<mgrwt>
<rscale>  2 0.10038897E+03</rscale>
<asrwt>0</asrwt>
<pdfrwt beam="1">  1       21 0.76599269E-01 0.10038897E+03</pdfrwt>
<pdfrwt beam="2">  1       21 0.35299414E-02 0.10038897E+03</pdfrwt>
<totfact> 0.73765762E+05</totfact>
</mgrwt>
</event>
<event>
 4    1  0.6024238E+003  0.1113489E+03  0.7546771E-02  0.1258092E+00
         21   -1    0    0  504  501  0.00000000000E+00  0.00000000000E+00  0.32187690768E+03  0.32187690768E+03  0.00000000000E+00 0. -1.
         21   -1    0    0  501  502 -0.00000000000E+00 -0.00000000000E+00 -0.13461747494E+03  0.13461747494E+03  0.00000000000E+00 0.  1.
         21    1    1    2  503  502  0.15942176941E+02  0.11020172163E+03 -0.99216709775E+02  0.14913929044E+03  0.00000000000E+00 0.  1.
         21    1    1    2  504  503 -0.15942176941E+02 -0.11020172163E+03  0.28647614251E+03  0.30735509217E+03  0.00000000000E+00 0. -1.
<mgrwt>
<rscale>  2 0.11134888E+03</rscale>
<asrwt>0</asrwt>
<pdfrwt beam="1">  1       21 0.49519524E-01 0.11134888E+03</pdfrwt>
<pdfrwt beam="2">  1       21 0.20710381E-01 0.11134888E+03</pdfrwt>
<totfact> 0.87022390E+04</totfact>
</mgrwt>
</event>
<event>
 4    1  0.6024238E+003  0.1097515E+03  0.7546771E-02  0.1261031E+00
         21   -1    0    0  504  501  0.00000000000E+00  0.00000000000E+00  0.35783325190E+02  0.35783325190E+02  0.00000000000E+00 0. -1.
         21   -1    0    0  503  502 -0.00000000000E+00 -0.00000000000E+00 -0.34030838389E+03  0.34030838389E+03  0.00000000000E+00 0. -1.
         21    1    1    2  503  501 -0.55576848828E+02  0.94639327525E+02 -0.13268596731E+03  0.17219452477E+03  0.00000000000E+00 0. -1.
         21    1    1    2  504  502  0.55576848828E+02 -0.94639327525E+02 -0.17183909139E+03  0.20389718431E+03  0.00000000000E+00 0. -1.
<mgrwt>
<rscale>  2 0.10975148E+03</rscale>
<asrwt>0</asrwt>
<pdfrwt beam="1">  1       21 0.55051272E-02 0.10975148E+03</pdfrwt>
<pdfrwt beam="2">  1       21 0.52355134E-01 0.10975148E+03</pdfrwt>
<totfact> 0.79375462E+05</totfact>
</mgrwt>
</event>
<event>
 4    1  0.6024238E+003  0.1494735E+03  0.7546771E-02  0.1201121E+00
         21   -1    0    0  503  501  0.00000000000E+00  0.00000000000E+00  0.55538350324E+03  0.55538350324E+03  0.00000000000E+00 0. -1.
         21   -1    0    0  504  502 -0.00000000000E+00 -0.00000000000E+00 -0.43992902397E+02  0.43992902397E+02  0.00000000000E+00 0. -1.
         21    1    1    2  503  502  0.81560500166E+02 -0.12526055706E+03  0.34335870921E+03  0.37448301101E+03  0.00000000000E+00 0. -1.
         21    1    1    2  504  501 -0.81560500166E+02  0.12526055706E+03  0.16803189164E+03  0.22489339463E+03  0.00000000000E+00 0. -1.
<mgrwt>
<rscale>  2 0.14947348E+03</rscale>
<asrwt>0</asrwt>
<pdfrwt beam="1">  1       21 0.85443611E-01 0.14947348E+03</pdfrwt>
<pdfrwt beam="2">  1       21 0.67681392E-02 0.14947348E+03</pdfrwt>
<totfact> 0.19243745E+05</totfact>
</mgrwt>
</event>
<event>
 4    1  0.6024238E+003  0.1150670E+03  0.7546771E-02  0.1251464E+00
         21   -1    0    0  502  501  0.00000000000E+00  0.00000000000E+00  0.25702127988E+03  0.25702127988E+03  0.00000000000E+00 0. -1.
         21   -1    0    0  503  502 -0.00000000000E+00 -0.00000000000E+00 -0.52050303434E+02  0.52050303434E+02  0.00000000000E+00 0.  1.
         21    1    1    2  503  504 -0.52699957494E+02 -0.10228948320E+03  0.11815879404E+03  0.16493005943E+03  0.00000000000E+00 0. -1.
         21    1    1    2  504  501  0.52699957494E+02  0.10228948320E+03  0.86812182406E+02  0.14414152389E+03  0.00000000000E+00 0.  1.
<mgrwt>
<rscale>  2 0.11506704E+03</rscale>
<asrwt>0</asrwt>
<pdfrwt beam="1">  1       21 0.39541735E-01 0.11506704E+03</pdfrwt>
<pdfrwt beam="2">  1       21 0.80077392E-02 0.11506704E+03</pdfrwt>
<totfact> 0.74185129E+05</totfact>
</mgrwt>
</event>
<event>
 4    1  0.6024238E+003  0.1807321E+03  0.7546771E-02  0.1167096E+00
         21   -1    0    0  503  501  0.00000000000E+00  0.00000000000E+00  0.50498539116E+03  0.50498539116E+03  0.00000000000E+00 0. -1.
         21   -1    0    0  501  502 -0.00000000000E+00 -0.00000000000E+00 -0.84232293715E+02  0.84232293715E+02  0.00000000000E+00 0. -1.
         21    1    1    2  503  504  0.17694725074E+03 -0.36793390765E+02  0.35230501587E+03  0.39595821416E+03  0.00000000000E+00 0. -1.
         21    1    1    2  504  502 -0.17694725074E+03  0.36793390765E+02  0.68448081570E+02  0.19325947071E+03  0.00000000000E+00 0. -1.
<mgrwt>
<rscale>  2 0.18073208E+03</rscale>
<asrwt>0</asrwt>
<pdfrwt beam="1">  1       21 0.77690058E-01 0.18073208E+03</pdfrwt>
<pdfrwt beam="2">  1       21 0.12958815E-01 0.18073208E+03</pdfrwt>
<totfact> 0.75495413E+04</totfact>
</mgrwt>
</event>
<event>
 4    1  0.6024238E+003  0.1195016E+03  0.7546771E-02  0.1243921E+00
         21   -1    0    0  502  501  0.00000000000E+00  0.00000000000E+00  0.31122755480E+03  0.31122755480E+03  0.00000000000E+00 0. -1.
         21   -1    0    0  503  502 -0.00000000000E+00 -0.00000000000E+00 -0.73983466417E+03  0.73983466417E+03  0.00000000000E+00 0. -1.
         21    1    1    2  503  504 -0.17705786707E+02 -0.11818266788E+03 -0.72327698945E+03  0.73308269747E+03  0.00000000000E+00 0. -1.
         21    1    1    2  504  501  0.17705786707E+02  0.11818266788E+03  0.29466988008E+03  0.31797952150E+03  0.00000000000E+00 0. -1.
<mgrwt>
<rscale>  2 0.11950162E+03</rscale>
<asrwt>0</asrwt>
<pdfrwt beam="1">  1       21 0.47881162E-01 0.11950162E+03</pdfrwt>
<pdfrwt beam="2">  1       21 0.11382072E+00 0.11950162E+03</pdfrwt>
<totfact> 0.27068557E+03</totfact>
</mgrwt>
</event>
<event>
 4    1  0.6024238E+003  0.1377252E+03  0.7546771E-02  0.1216423E+00
         21   -1    0    0  504  501  0.00000000000E+00  0.00000000000E+00  0.24770992744E+04  0.24770992744E+04  0.00000000000E+00 0. -1.
         21   -1    0    0  503  502 -0.00000000000E+00 -0.00000000000E+00 -0.12399590817E+02  0.12399590817E+02  0.00000000000E+00 0. -1.
         21    1    1    2  503  501 -0.13745262972E+03  0.86611888843E+01  0.20021285492E+04  0.20068599775E+04  0.00000000000E+00 0. -1.
         21    1    1    2  504  502  0.13745262972E+03 -0.86611888843E+01  0.46257113439E+03  0.48263888776E+03  0.00000000000E+00 0. -1.
<mgrwt>
<rscale>  2 0.13772524E+03</rscale>
<asrwt>0</asrwt>
<pdfrwt beam="1">  1       21 0.38109180E+00 0.13772524E+03</pdfrwt>
<pdfrwt beam="2">  1       21 0.19076313E-02 0.13772524E+03</pdfrwt>
<totfact> 0.16332566E+04</totfact>
</mgrwt>
</event>
<event>
 4    1  0.6024238E+003  0.1140037E+03  0.7546771E-02  0.1253330E+00
         21   -1    0    0  504  501  0.00000000000E+00  0.00000000000E+00  0.99706298414E+02  0.99706298414E+02  0.00000000000E+00 0. -1.
         21   -1    0    0  503  502 -0.00000000000E+00 -0.00000000000E+00 -0.54906269184E+03  0.54906269184E+03  0.00000000000E+00 0. -1.
         21    1    1    2  503  501  0.11378150415E+03 -0.71141092690E+01  0.58595683500E+02  0.12818071369E+03  0.00000000000E+00 0. -1.
         21    1    1    2  504  502 -0.11378150415E+03  0.71141092690E+01 -0.50795207692E+03  0.52058827656E+03  0.00000000000E+00 0. -1.
<mgrwt>
<rscale>  2 0.11400369E+03</rscale>
<asrwt>0</asrwt>
<pdfrwt beam="1">  1       21 0.15339430E-01 0.11400369E+03</pdfrwt>
<pdfrwt beam="2">  1       21 0.84471185E-01 0.11400369E+03</pdfrwt>
<totfact> 0.47777012E+04</totfact>
</mgrwt>
</event>
<event>
 4    1  0.6024238E+003  0.2032504E+03  0.7546771E-02  0.1147025E+00
         21   -1    0    0  504  501  0.00000000000E+00  0.00000000000E+00  0.90887021943E+02  0.90887021943E+02  0.00000000000E+00 0.  1.
         21   -1    0    0  501  502 -0.00000000000E+00 -0.00000000000E+00 -0.52658517005E+03  0.52658517005E+03  0.00000000000E+00 0.  1.
         21    1    1    2  503  502  0.17551627941E+03 -0.10249271708E+03 -0.33205558538E+03  0.38932201732E+03  0.00000000000E+00 0.  1.
         21    1    1    2  504  503 -0.17551627941E+03  0.10249271708E+03 -0.10364256273E+03  0.22815017467E+03  0.00000000000E+00 0.  1.
<mgrwt>
<rscale>  2 0.20325039E+03</rscale>
<asrwt>0</asrwt>
<pdfrwt beam="1">  1       21 0.13982619E-01 0.20325039E+03</pdfrwt>
<pdfrwt beam="2">  1       21 0.81013102E-01 0.20325039E+03</pdfrwt>
<totfact> 0.59268482E+04</totfact>
</mgrwt>
</event>
<event>
 4    1  0.6024238E+003  0.1192031E+03  0.7546771E-02  0.1244417E+00
         21   -1    0    0  502  501  0.00000000000E+00  0.00000000000E+00  0.20740372594E+03  0.20740372594E+03  0.00000000000E+00 0.  1.
         21   -1    0    0  503  502 -0.00000000000E+00 -0.00000000000E+00 -0.16694644742E+03  0.16694644742E+03  0.00000000000E+00 0. -1.
         21    1    1    2  503  504  0.22811642335E+02 -0.11700008176E+03 -0.12349748236E+03  0.17164212277E+03  0.00000000000E+00 0. -1.
         21    1    1    2  504  501 -0.22811642335E+02  0.11700008176E+03  0.16395476089E+03  0.20270805059E+03  0.00000000000E+00 0.  1.
<mgrwt>
<rscale>  2 0.11920315E+03</rscale>
<asrwt>0</asrwt>
<pdfrwt beam="1">  1       21 0.31908266E-01 0.11920315E+03</pdfrwt>
<pdfrwt beam="2">  1       21 0.25684069E-01 0.11920315E+03</pdfrwt>
<totfact> 0.13924068E+05</totfact>
</mgrwt>
</event>
<event>
 4    1  0.6024238E+003  0.1116410E+03  0.7546771E-02  0.1257561E+00
         21   -1    0    0  503  501  0.00000000000E+00  0.00000000000E+00  0.28966272593E+02  0.28966272593E+02  0.00000000000E+00 0.  1.
         21   -1    0    0  504  502 -0.00000000000E+00 -0.00000000000E+00 -0.17583972978E+04  0.17583972978E+04  0.00000000000E+00 0.  1.
         21    1    1    2  503  502 -0.35730060469E+02 -0.10576901659E+03 -0.16413952477E+04  0.16451875520E+04  0.00000000000E+00 0.  1.
         21    1    1    2  504  501  0.35730060469E+02  0.10576901659E+03 -0.88035777580E+02  0.14217601846E+03  0.00000000000E+00 0.  1.
<mgrwt>
<rscale>  2 0.11164104E+03</rscale>
<asrwt>0</asrwt>
<pdfrwt beam="1">  1       21 0.44563494E-02 0.11164104E+03</pdfrwt>
<pdfrwt beam="2">  1       21 0.27052268E+00 0.11164104E+03</pdfrwt>
<totfact> 0.18104331E+04</totfact>
</mgrwt>
</event>
<event>
 4    1  0.6024238E+003  0.1035771E+03  0.7546771E-02  0.1272949E+00
         21   -1    0    0  504  501  0.00000000000E+00  0.00000000000E+00  0.18427739386E+03  0.18427739386E+03  0.00000000000E+00 0. -1.
         21   -1    0    0  501  502 -0.00000000000E+00 -0.00000000000E+00 -0.23419596888E+03  0.23419596888E+03  0.00000000000E+00 0.  1.
         21    1    1    2  503  502 -0.10341258341E+03  0.58354653859E+01 -0.20633435021E+03  0.23087243045E+03  0.00000000000E+00 0.  1.
         21    1    1    2  504  503  0.10341258341E+03 -0.58354653859E+01  0.15641577519E+03  0.18760093228E+03  0.00000000000E+00 0. -1.
<mgrwt>
<rscale>  2 0.10357710E+03</rscale>
<asrwt>0</asrwt>
<pdfrwt beam="1">  1       21 0.28350368E-01 0.10357710E+03</pdfrwt>
<pdfrwt beam="2">  1       21 0.36030149E-01 0.10357710E+03</pdfrwt>
<totfact> 0.91708245E+04</totfact>
</mgrwt>
</event>
<event>
 4    1  0.6024238E+003  0.1048228E+03  0.7546771E-02  0.1270469E+00
         21   -1    0    0  504  501  0.00000000000E+00  0.00000000000E+00  0.68398569699E+03  0.68398569699E+03  0.00000000000E+00 0. -1.
         21   -1    0    0  501  502 -0.00000000000E+00 -0.00000000000E+00 -0.16527971089E+03  0.16527971089E+03  0.00000000000E+00 0. -1.
         21    1    1    2  503  502 -0.87295062486E+02  0.58029296763E+02 -0.14411616800E+03  0.17820577178E+03  0.00000000000E+00 0. -1.
         21    1    1    2  504  503  0.87295062486E+02 -0.58029296763E+02  0.66282215410E+03  0.67105963609E+03  0.00000000000E+00 0. -1.
<mgrwt>
<rscale>  2 0.10482284E+03</rscale>
<asrwt>0</asrwt>
<pdfrwt beam="1">  1       21 0.10522857E+00 0.10482284E+03</pdfrwt>
<pdfrwt beam="2">  1       21 0.25427648E-01 0.10482284E+03</pdfrwt>
<totfact> 0.11470549E+04</totfact>
</mgrwt>
</event>
<event>
 4    1  0.6024238E+003  0.1515547E+03  0.7546771E-02  0.1198575E+00
         21   -1    0    0  504  501  0.00000000000E+00  0.00000000000E+00  0.53682427297E+03  0.53682427297E+03  0.00000000000E+00 0. -1.
         21   -1    0    0  503  502 -0.00000000000E+00 -0.00000000000E+00 -0.77558991814E+02  0.77558991814E+02  0.00000000000E+00 0. -1.
         21    1    1    2  503  501  0.12752291226E+03 -0.81894706412E+02  0.23943596154E+02  0.15343445469E+03  0.00000000000E+00 0. -1.
         21    1    1    2  504  502 -0.12752291226E+03  0.81894706412E+02  0.43532168500E+03  0.46094881009E+03  0.00000000000E+00 0. -1.
<mgrwt>
<rscale>  2 0.15155473E+03</rscale>
<asrwt>0</asrwt>
<pdfrwt beam="1">  1       21 0.82588348E-01 0.15155473E+03</pdfrwt>
<pdfrwt beam="2">  1       21 0.11932153E-01 0.15155473E+03</pdfrwt>
<totfact> 0.77246737E+04</totfact>
</mgrwt>
</event>
<event>
 4    1  0.6024238E+003  0.1142123E+03  0.7546771E-02  0.1252962E+00
         21   -1    0    0  504  501  0.00000000000E+00  0.00000000000E+00  0.23647761058E+03  0.23647761058E+03  0.00000000000E+00 0.  1.
         21   -1    0    0  503  502 -0.00000000000E+00 -0.00000000000E+00 -0.10987432123E+03  0.10987432123E+03  0.00000000000E+00 0.  1.
         21    1    1    2  503  501  0.11131594832E+03 -0.25557822273E+02  0.18550534528E+03  0.21784553188E+03  0.00000000000E+00 0.  1.
         21    1    1    2  504  502 -0.11131594832E+03  0.25557822273E+02 -0.58902055930E+02  0.12850639993E+03  0.00000000000E+00 0.  1.
<mgrwt>
<rscale>  2 0.11421227E+03</rscale>
<asrwt>0</asrwt>
<pdfrwt beam="1">  1       21 0.36381171E-01 0.11421227E+03</pdfrwt>
<pdfrwt beam="2">  1       21 0.16903742E-01 0.11421227E+03</pdfrwt>
<totfact> 0.23419114E+05</totfact>
</mgrwt>
</event>
<event>
 4    1  0.6024238E+003  0.1695954E+03  0.7546771E-02  0.1178270E+00
         21   -1    0    0  504  501  0.00000000000E+00  0.00000000000E+00  0.36206684793E+03  0.36206684793E+03  0.00000000000E+00 0.  1.
         21   -1    0    0  503  502 -0.00000000000E+00 -0.00000000000E+00 -0.89267801496E+02  0.89267801496E+02  0.00000000000E+00 0.  1.
         21    1    1    2  503  501  0.16716566341E+03 -0.28605161134E+02  0.21127644675E+03  0.27092499187E+03  0.00000000000E+00 0.  1.
         21    1    1    2  504  502 -0.16716566341E+03  0.28605161134E+02  0.61522599687E+02  0.18040965756E+03  0.00000000000E+00 0.  1.
<mgrwt>
<rscale>  2 0.16959544E+03</rscale>
<asrwt>0</asrwt>
<pdfrwt beam="1">  1       21 0.55702591E-01 0.16959544E+03</pdfrwt>
<pdfrwt beam="2">  1       21 0.13733508E-01 0.16959544E+03</pdfrwt>
<totfact> 0.14090301E+05</totfact>
</mgrwt>
</event>
<event>
 4    1  0.6024238E+003  0.1704067E+03  0.7546771E-02  0.1177424E+00
         21   -1    0    0  503  501  0.00000000000E+00  0.00000000000E+00  0.17319465999E+04  0.17319465999E+04  0.00000000000E+00 0.  1.
         21   -1    0    0  501  502 -0.00000000000E+00 -0.00000000000E+00 -0.10302854807E+03  0.10302854807E+03  0.00000000000E+00 0. -1.
         21    1    1    2  503  504 -0.16505751223E+03  0.42361196088E+02  0.16539801286E+04  0.16627353123E+04  0.00000000000E+00 0.  1.
         21    1    1    2  504  502  0.16505751223E+03 -0.42361196088E+02 -0.25062076740E+02  0.17223983560E+03  0.00000000000E+00 0. -1.
<mgrwt>
<rscale>  2 0.17040673E+03</rscale>
<asrwt>0</asrwt>
<pdfrwt beam="1">  1       21 0.26645330E+00 0.17040673E+03</pdfrwt>
<pdfrwt beam="2">  1       21 0.15850547E-01 0.17040673E+03</pdfrwt>
<totfact> 0.19444080E+03</totfact>
</mgrwt>
</event>
<event>
 4    1  0.6024238E+003  0.1189401E+03  0.7546771E-02  0.1244856E+00
         21   -1    0    0  503  501  0.00000000000E+00  0.00000000000E+00  0.14377723163E+02  0.14377723163E+02  0.00000000000E+00 0. -1.
         21   -1    0    0  504  502 -0.00000000000E+00 -0.00000000000E+00 -0.12467362482E+04  0.12467362482E+04  0.00000000000E+00 0. -1.
         21    1    1    2  503  502 -0.90267668855E+02  0.77449944978E+02 -0.32667783886E+03  0.34765666457E+03  0.00000000000E+00 0. -1.
         21    1    1    2  504  501  0.90267668855E+02 -0.77449944978E+02 -0.90568068613E+03  0.91345730674E+03  0.00000000000E+00 0. -1.
<mgrwt>
<rscale>  2 0.11894009E+03</rscale>
<asrwt>0</asrwt>
<pdfrwt beam="1">  1       21 0.22119579E-02 0.11894009E+03</pdfrwt>
<pdfrwt beam="2">  1       21 0.19180553E+00 0.11894009E+03</pdfrwt>
<totfact> 0.16489938E+05</totfact>
</mgrwt>
</event>
<event>
 4    1  0.6024238E+003  0.1086552E+03  0.7546771E-02  0.1263081E+00
         21   -1    0    0  504  501  0.00000000000E+00  0.00000000000E+00  0.27334821032E+03  0.27334821032E+03  0.00000000000E+00 0. -1.
         21   -1    0    0  503  502 -0.00000000000E+00 -0.00000000000E+00 -0.21313764380E+03  0.21313764380E+03  0.00000000000E+00 0.  1.
         21    1    1    2  503  501  0.10384232600E+03  0.31979916954E+02 -0.18709858377E+03  0.21636040258E+03  0.00000000000E+00 0.  1.
         21    1    1    2  504  502 -0.10384232600E+03 -0.31979916954E+02  0.24730915028E+03  0.27012545154E+03  0.00000000000E+00 0. -1.
<mgrwt>
<rscale>  2 0.10865516E+03</rscale>
<asrwt>0</asrwt>
<pdfrwt beam="1">  1       21 0.42053571E-01 0.10865516E+03</pdfrwt>
<pdfrwt beam="2">  1       21 0.32790407E-01 0.10865516E+03</pdfrwt>
<totfact> 0.50899340E+04</totfact>
</mgrwt>
</event>
<event>
 4    1  0.6024238E+003  0.1152329E+03  0.7546771E-02  0.1251175E+00
         21   -1    0    0  502  501  0.00000000000E+00  0.00000000000E+00  0.60969622318E+02  0.60969622318E+02  0.00000000000E+00 0.  1.
         21   -1    0    0  504  502 -0.00000000000E+00 -0.00000000000E+00 -0.13936421995E+04  0.13936421995E+04  0.00000000000E+00 0.  1.
         21    1    1    2  503  501  0.52478095168E+02 -0.10258983903E+03  0.17271198127E+01  0.11524586104E+03  0.00000000000E+00 0.  1.
         21    1    1    2  504  503 -0.52478095168E+02  0.10258983903E+03 -0.13343996970E+04  0.13393659608E+04  0.00000000000E+00 0.  1.
<mgrwt>
<rscale>  2 0.11523292E+03</rscale>
<asrwt>0</asrwt>
<pdfrwt beam="1">  1       21 0.93799419E-02 0.11523292E+03</pdfrwt>
<pdfrwt beam="2">  1       21 0.21440649E+00 0.11523292E+03</pdfrwt>
<totfact> 0.10721323E+04</totfact>
</mgrwt>
</event>
<event>
 4    1  0.6024238E+003  0.1069739E+03  0.7546771E-02  0.1266279E+00
         21   -1    0    0  504  501  0.00000000000E+00  0.00000000000E+00  0.28760764392E+03  0.28760764392E+03  0.00000000000E+00 0.  1.
         21   -1    0    0  503  502 -0.00000000000E+00 -0.00000000000E+00 -0.41230672691E+02  0.41230672691E+02  0.00000000000E+00 0.  1.
         21    1    1    2  503  501  0.10685306250E+03  0.50837058488E+01  0.92436015375E+02  0.14137835043E+03  0.00000000000E+00 0.  1.
         21    1    1    2  504  502 -0.10685306250E+03 -0.50837058488E+01  0.15394095585E+03  0.18745996618E+03  0.00000000000E+00 0.  1.
<mgrwt>
<rscale>  2 0.10697393E+03</rscale>
<asrwt>0</asrwt>
<pdfrwt beam="1">  1       21 0.44247329E-01 0.10697393E+03</pdfrwt>
<pdfrwt beam="2">  1       21 0.63431806E-02 0.10697393E+03</pdfrwt>
<totfact> 0.88101960E+05</totfact>
</mgrwt>
</event>
<event>
 4    1  0.6024238E+003  0.1077183E+03  0.7546771E-02  0.1264854E+00
         21   -1    0    0  504  501  0.00000000000E+00  0.00000000000E+00  0.16876923460E+02  0.16876923460E+02  0.00000000000E+00 0. -1.
         21   -1    0    0  503  502 -0.00000000000E+00 -0.00000000000E+00 -0.11824031486E+04  0.11824031486E+04  0.00000000000E+00 0.  1.
         21    1    1    2  503  501 -0.97287677976E+02 -0.46242297364E+02 -0.19482839533E+03  0.22262377676E+03  0.00000000000E+00 0. -1.
         21    1    1    2  504  502  0.97287677976E+02  0.46242297364E+02 -0.97069782977E+03  0.97665629526E+03  0.00000000000E+00 0.  1.
<mgrwt>
<rscale>  2 0.10771835E+03</rscale>
<asrwt>0</asrwt>
<pdfrwt beam="1">  1       21 0.25964493E-02 0.10771835E+03</pdfrwt>
<pdfrwt beam="2">  1       21 0.18190821E+00 0.10771835E+03</pdfrwt>
<totfact> 0.14848678E+05</totfact>
</mgrwt>
</event>
<event>
 4    1  0.6024238E+003  0.1302420E+03  0.7546771E-02  0.1227097E+00
         21   -1    0    0  503  501  0.00000000000E+00  0.00000000000E+00  0.79233020427E+03  0.79233020427E+03  0.00000000000E+00 0.  1.
         21   -1    0    0  504  502 -0.00000000000E+00 -0.00000000000E+00 -0.22219645336E+02  0.22219645336E+02  0.00000000000E+00 0.  1.
         21    1    1    2  503  502  0.11817661842E+03 -0.54747376590E+02  0.30726280541E+03  0.33372656468E+03  0.00000000000E+00 0.  1.
         21    1    1    2  504  501 -0.11817661842E+03  0.54747376590E+02  0.46284775353E+03  0.48082328493E+03  0.00000000000E+00 0.  1.
<mgrwt>
<rscale>  2 0.13024204E+03</rscale>
<asrwt>0</asrwt>
<pdfrwt beam="1">  1       21 0.12189693E+00 0.13024204E+03</pdfrwt>
<pdfrwt beam="2">  1       21 0.34184076E-02 0.13024204E+03</pdfrwt>
<totfact> 0.26381737E+05</totfact>
</mgrwt>
</event>
<event>
 4    1  0.6024238E+003  0.1133511E+03  0.7546771E-02  0.1254487E+00
         21   -1    0    0  504  501  0.00000000000E+00  0.00000000000E+00  0.40183882516E+02  0.40183882516E+02  0.00000000000E+00 0. -1.
         21   -1    0    0  503  502 -0.00000000000E+00 -0.00000000000E+00 -0.12240479889E+04  0.12240479889E+04  0.00000000000E+00 0. -1.
         21    1    1    2  503  501  0.57546458560E+02  0.97656944170E+02 -0.11352514729E+04  0.11408963057E+04  0.00000000000E+00 0. -1.
         21    1    1    2  504  502 -0.57546458560E+02 -0.97656944170E+02 -0.48612633489E+02  0.12333556572E+03  0.00000000000E+00 0. -1.
<mgrwt>
<rscale>  2 0.11335111E+03</rscale>
<asrwt>0</asrwt>
<pdfrwt beam="1">  1       21 0.61821352E-02 0.11335111E+03</pdfrwt>
<pdfrwt beam="2">  1       21 0.18831509E+00 0.11335111E+03</pdfrwt>
<totfact> 0.31919335E+04</totfact>
</mgrwt>
</event>
<event>
 4    1  0.6024238E+003  0.1082544E+03  0.7546771E-02  0.1263837E+00
         21   -1    0    0  502  501  0.00000000000E+00  0.00000000000E+00  0.11413615023E+04  0.11413615023E+04  0.00000000000E+00 0. -1.
         21   -1    0    0  503  502 -0.00000000000E+00 -0.00000000000E+00 -0.27703184166E+02  0.27703184166E+02  0.00000000000E+00 0. -1.
         21    1    1    2  503  504 -0.51976858180E+02  0.94960141704E+02  0.93102372520E+02  0.14278331159E+03  0.00000000000E+00 0. -1.
         21    1    1    2  504  501  0.51976858180E+02 -0.94960141704E+02  0.10205559457E+04  0.10262813749E+04  0.00000000000E+00 0. -1.
<mgrwt>
<rscale>  2 0.10825443E+03</rscale>
<asrwt>0</asrwt>
<pdfrwt beam="1">  1       21 0.17559404E+00 0.10825443E+03</pdfrwt>
<pdfrwt beam="2">  1       21 0.42620292E-02 0.10825443E+03</pdfrwt>
<totfact> 0.72510721E+04</totfact>
</mgrwt>
</event>
<event>
 4    1  0.6024238E+003  0.1426391E+03  0.7546771E-02  0.1209821E+00
         21   -1    0    0  502  501  0.00000000000E+00  0.00000000000E+00  0.74823354056E+02  0.74823354056E+02  0.00000000000E+00 0. -1.
         21   -1    0    0  503  502 -0.00000000000E+00 -0.00000000000E+00 -0.37551422905E+03  0.37551422905E+03  0.00000000000E+00 0. -1.
         21    1    1    2  503  504  0.88940124259E+02 -0.11151489647E+03 -0.26861259009E+03  0.30413589297E+03  0.00000000000E+00 0. -1.
         21    1    1    2  504  501 -0.88940124259E+02  0.11151489647E+03 -0.32078284906E+02  0.14620169014E+03  0.00000000000E+00 0. -1.
<mgrwt>
<rscale>  2 0.14263912E+03</rscale>
<asrwt>0</asrwt>
<pdfrwt beam="1">  1       21 0.11511285E-01 0.14263912E+03</pdfrwt>
<pdfrwt beam="2">  1       21 0.57771420E-01 0.14263912E+03</pdfrwt>
<totfact> 0.18030393E+05</totfact>
</mgrwt>
</event>
<event>
 4    1  0.6024238E+003  0.1158136E+03  0.7546771E-02  0.1250168E+00
         21   -1    0    0  502  501  0.00000000000E+00  0.00000000000E+00  0.32706496249E+02  0.32706496249E+02  0.00000000000E+00 0.  1.
         21   -1    0    0  503  502 -0.00000000000E+00 -0.00000000000E+00 -0.48535741864E+03  0.48535741864E+03  0.00000000000E+00 0.  1.
         21    1    1    2  503  504  0.97620132933E+02 -0.62314475442E+02 -0.32832786225E+03  0.34815509380E+03  0.00000000000E+00 0.  1.
         21    1    1    2  504  501 -0.97620132933E+02  0.62314475442E+02 -0.12432306014E+03  0.16990882110E+03  0.00000000000E+00 0.  1.
<mgrwt>
<rscale>  2 0.11581358E+03</rscale>
<asrwt>0</asrwt>
<pdfrwt beam="1">  1       21 0.50317689E-02 0.11581358E+03</pdfrwt>
<pdfrwt beam="2">  1       21 0.74670369E-01 0.11581358E+03</pdfrwt>
<totfact> 0.43298621E+05</totfact>
</mgrwt>
</event>
<event>
 4    1  0.6024238E+003  0.1697001E+03  0.7546771E-02  0.1178161E+00
         21   -1    0    0  502  501  0.00000000000E+00  0.00000000000E+00  0.13052975885E+03  0.13052975885E+03  0.00000000000E+00 0.  1.
         21   -1    0    0  503  502 -0.00000000000E+00 -0.00000000000E+00 -0.22650812153E+03  0.22650812153E+03  0.00000000000E+00 0.  1.
         21    1    1    2  503  504 -0.14791407922E+02  0.16905429115E+03 -0.76759402057E+02  0.18625290577E+03  0.00000000000E+00 0.  1.
         21    1    1    2  504  501  0.14791407922E+02 -0.16905429115E+03 -0.19218960630E+02  0.17078497461E+03  0.00000000000E+00 0.  1.
<mgrwt>
<rscale>  2 0.16970014E+03</rscale>
<asrwt>0</asrwt>
<pdfrwt beam="1">  1       21 0.20081501E-01 0.16970014E+03</pdfrwt>
<pdfrwt beam="2">  1       21 0.34847403E-01 0.16970014E+03</pdfrwt>
<totfact> 0.18310525E+05</totfact>
</mgrwt>
</event>
<event>
 4    1  0.6024238E+003  0.1310340E+03  0.7546771E-02  0.1225929E+00
         21   -1    0    0  504  501  0.00000000000E+00  0.00000000000E+00  0.21473086084E+03  0.21473086084E+03  0.00000000000E+00 0. -1.
         21   -1    0    0  501  502 -0.00000000000E+00 -0.00000000000E+00 -0.15490102540E+03  0.15490102540E+03  0.00000000000E+00 0. -1.
         21    1    1    2  503  502  0.99516690576E+02 -0.85242869429E+02 -0.98634933313E+02  0.16400844052E+03  0.00000000000E+00 0. -1.
         21    1    1    2  504  503 -0.99516690576E+02  0.85242869429E+02  0.15846476875E+03  0.20562344572E+03  0.00000000000E+00 0. -1.
<mgrwt>
<rscale>  2 0.13103404E+03</rscale>
<asrwt>0</asrwt>
<pdfrwt beam="1">  1       21 0.33035517E-01 0.13103404E+03</pdfrwt>
<pdfrwt beam="2">  1       21 0.23830927E-01 0.13103404E+03</pdfrwt>
<totfact> 0.14930288E+05</totfact>
</mgrwt>
</event>
<event>
 4    1  0.6024238E+003  0.1124592E+03  0.7546771E-02  0.1256082E+00
         21   -1    0    0  504  501  0.00000000000E+00  0.00000000000E+00  0.10349623246E+03  0.10349623246E+03  0.00000000000E+00 0. -1.
         21   -1    0    0  503  502 -0.00000000000E+00 -0.00000000000E+00 -0.12249571831E+03  0.12249571831E+03  0.00000000000E+00 0. -1.
         21    1    1    2  503  501 -0.76280734626E+02  0.82633663035E+02 -0.15066756973E+02  0.11346400269E+03  0.00000000000E+00 0. -1.
         21    1    1    2  504  502  0.76280734626E+02 -0.82633663035E+02 -0.39327288840E+01  0.11252794808E+03  0.00000000000E+00 0. -1.
<mgrwt>
<rscale>  2 0.11245920E+03</rscale>
<asrwt>0</asrwt>
<pdfrwt beam="1">  1       21 0.15922497E-01 0.11245920E+03</pdfrwt>
<pdfrwt beam="2">  1       21 0.18845495E-01 0.11245920E+03</pdfrwt>
<totfact> 0.90787036E+05</totfact>
</mgrwt>
</event>
<event>
 4    1  0.6024238E+003  0.1448068E+03  0.7546771E-02  0.1207004E+00
         21   -1    0    0  502  501  0.00000000000E+00  0.00000000000E+00  0.13943887062E+03  0.13943887062E+03  0.00000000000E+00 0.  1.
         21   -1    0    0  504  502 -0.00000000000E+00 -0.00000000000E+00 -0.34815488931E+03  0.34815488931E+03  0.00000000000E+00 0.  1.
         21    1    1    2  503  501 -0.49095292336E+02 -0.13623019172E+03  0.79391390691E+02  0.16514238033E+03  0.00000000000E+00 0.  1.
         21    1    1    2  504  503  0.49095292336E+02  0.13623019172E+03 -0.28810740938E+03  0.32245137960E+03  0.00000000000E+00 0.  1.
<mgrwt>
<rscale>  2 0.14480681E+03</rscale>
<asrwt>0</asrwt>
<pdfrwt beam="1">  1       21 0.21452134E-01 0.14480681E+03</pdfrwt>
<pdfrwt beam="2">  1       21 0.53562290E-01 0.14480681E+03</pdfrwt>
<totfact> 0.68204788E+04</totfact>
</mgrwt>
</event>
<event>
 4    1  0.6024238E+003  0.1134135E+03  0.7546771E-02  0.1254376E+00
         21   -1    0    0  503  501  0.00000000000E+00  0.00000000000E+00  0.15932793013E+03  0.15932793013E+03  0.00000000000E+00 0.  1.
         21   -1    0    0  501  502 -0.00000000000E+00 -0.00000000000E+00 -0.13853302726E+03  0.13853302726E+03  0.00000000000E+00 0. -1.
         21    1    1    2  503  504 -0.21674656140E+02 -0.11132307928E+03  0.10659864248E+03  0.15564668091E+03  0.00000000000E+00 0.  1.
         21    1    1    2  504  502  0.21674656140E+02  0.11132307928E+03 -0.85803739617E+02  0.14221427647E+03  0.00000000000E+00 0. -1.
<mgrwt>
<rscale>  2 0.11341349E+03</rscale>
<asrwt>0</asrwt>
<pdfrwt beam="1">  1       21 0.24511989E-01 0.11341349E+03</pdfrwt>
<pdfrwt beam="2">  1       21 0.21312773E-01 0.11341349E+03</pdfrwt>
<totfact> 0.32707972E+05</totfact>
</mgrwt>
</event>
<event>
 4    1  0.6024238E+003  0.1108321E+03  0.7546771E-02  0.1259037E+00
         21   -1    0    0  503  501  0.00000000000E+00  0.00000000000E+00  0.22434140562E+03  0.22434140562E+03  0.00000000000E+00 0. -1.
         21   -1    0    0  504  502 -0.00000000000E+00 -0.00000000000E+00 -0.63095783445E+02  0.63095783445E+02  0.00000000000E+00 0. -1.
         21    1    1    2  503  502 -0.45446874804E+02 -0.10108580817E+03  0.28368448528E+02  0.11440510441E+03  0.00000000000E+00 0. -1.
         21    1    1    2  504  501  0.45446874804E+02  0.10108580817E+03  0.13287717364E+03  0.17303208465E+03  0.00000000000E+00 0. -1.
<mgrwt>
<rscale>  2 0.11083212E+03</rscale>
<asrwt>0</asrwt>
<pdfrwt beam="1">  1       21 0.34514062E-01 0.11083212E+03</pdfrwt>
<pdfrwt beam="2">  1       21 0.97070437E-02 0.11083212E+03</pdfrwt>
<totfact> 0.69532673E+05</totfact>
</mgrwt>
</event>
<event>
 4    1  0.6024238E+003  0.1678533E+03  0.7546771E-02  0.1180105E+00
         21   -1    0    0  504  501  0.00000000000E+00  0.00000000000E+00  0.74438115917E+02  0.74438115917E+02  0.00000000000E+00 0.  1.
         21   -1    0    0  503  502 -0.00000000000E+00 -0.00000000000E+00 -0.39047739455E+03  0.39047739455E+03  0.00000000000E+00 0.  1.
         21    1    1    2  503  501  0.16690104119E+03  0.17854114451E+02 -0.19873437357E+03  0.26013473084E+03  0.00000000000E+00 0.  1.
         21    1    1    2  504  502 -0.16690104119E+03 -0.17854114451E+02 -0.11730490506E+03  0.20478077962E+03  0.00000000000E+00 0.  1.
<mgrwt>
<rscale>  2 0.16785329E+03</rscale>
<asrwt>0</asrwt>
<pdfrwt beam="1">  1       21 0.11452018E-01 0.16785329E+03</pdfrwt>
<pdfrwt beam="2">  1       21 0.60073445E-01 0.16785329E+03</pdfrwt>
<totfact> 0.16619659E+05</totfact>
</mgrwt>
</event>
<event>
 4    1  0.6024238E+003  0.1041570E+03  0.7546771E-02  0.1271790E+00
         21   -1    0    0  503  501  0.00000000000E+00  0.00000000000E+00  0.19616786690E+04  0.19616786690E+04  0.00000000000E+00 0. -1.
         21   -1    0    0  501  502 -0.00000000000E+00 -0.00000000000E+00 -0.71871514677E+02  0.71871514677E+02  0.00000000000E+00 0. -1.
         21    1    1    2  503  504 -0.99145103233E+02  0.31920521181E+02  0.19217768106E+04  0.19245973036E+04  0.00000000000E+00 0. -1.
         21    1    1    2  504  502  0.99145103233E+02 -0.31920521181E+02 -0.31969656251E+02  0.10895288013E+03  0.00000000000E+00 0. -1.
<mgrwt>
<rscale>  2 0.10415695E+03</rscale>
<asrwt>0</asrwt>
<pdfrwt beam="1">  1       21 0.30179668E+00 0.10415695E+03</pdfrwt>
<pdfrwt beam="2">  1       21 0.11057158E-01 0.10415695E+03</pdfrwt>
<totfact> 0.26146255E+03</totfact>
</mgrwt>
</event>
<event>
 4    1  0.6024238E+003  0.1743164E+03  0.7546771E-02  0.1173420E+00
         21   -1    0    0  503  501  0.00000000000E+00  0.00000000000E+00  0.63316621781E+03  0.63316621781E+03  0.00000000000E+00 0.  1.
         21   -1    0    0  504  502 -0.00000000000E+00 -0.00000000000E+00 -0.48659698852E+02  0.48659698852E+02  0.00000000000E+00 0.  1.
         21    1    1    2  503  502 -0.41906096804E+02  0.16920427040E+03  0.33222121943E+03  0.37517615158E+03  0.00000000000E+00 0.  1.
         21    1    1    2  504  501  0.41906096804E+02 -0.16920427040E+03  0.25228529952E+03  0.30664976508E+03  0.00000000000E+00 0.  1.
<mgrwt>
<rscale>  2 0.17431640E+03</rscale>
<asrwt>0</asrwt>
<pdfrwt beam="1">  1       21 0.97410182E-01 0.17431640E+03</pdfrwt>
<pdfrwt beam="2">  1       21 0.74861079E-02 0.17431640E+03</pdfrwt>
<totfact> 0.11847655E+05</totfact>
</mgrwt>
</event>
<event>
 4    1  0.6024238E+003  0.1598698E+03  0.7546771E-02  0.1188844E+00
         21   -1    0    0  504  501  0.00000000000E+00  0.00000000000E+00  0.58386197185E+03  0.58386197185E+03  0.00000000000E+00 0.  1.
         21   -1    0    0  503  502 -0.00000000000E+00 -0.00000000000E+00 -0.10046388902E+03  0.10046388902E+03  0.00000000000E+00 0.  1.
         21    1    1    2  503  501 -0.15804147949E+03  0.24108811549E+02  0.49872579997E+03  0.52372298746E+03  0.00000000000E+00 0.  1.
         21    1    1    2  504  502  0.15804147949E+03 -0.24108811549E+02 -0.15327717140E+02  0.16060287341E+03  0.00000000000E+00 0.  1.
<mgrwt>
<rscale>  2 0.15986977E+03</rscale>
<asrwt>0</asrwt>
<pdfrwt beam="1">  1       21 0.89824917E-01 0.15986977E+03</pdfrwt>
<pdfrwt beam="2">  1       21 0.15455983E-01 0.15986977E+03</pdfrwt>
<totfact> 0.39907980E+04</totfact>
</mgrwt>
</event>
<event>
 4    1  0.6024238E+003  0.1126342E+03  0.7546771E-02  0.1255768E+00
         21   -1    0    0  503  501  0.00000000000E+00  0.00000000000E+00  0.40831391766E+03  0.40831391766E+03  0.00000000000E+00 0. -1.
         21   -1    0    0  504  502 -0.00000000000E+00 -0.00000000000E+00 -0.59936924546E+02  0.59936924546E+02  0.00000000000E+00 0. -1.
         21    1    1    2  503  502  0.42904127213E+02 -0.10414272672E+03  0.33666803899E+03  0.35500963386E+03  0.00000000000E+00 0. -1.
         21    1    1    2  504  501 -0.42904127213E+02  0.10414272672E+03  0.11708954126E+02  0.11324120834E+03  0.00000000000E+00 0. -1.
<mgrwt>
<rscale>  2 0.11263424E+03</rscale>
<asrwt>0</asrwt>
<pdfrwt beam="1">  1       21 0.62817524E-01 0.11263424E+03</pdfrwt>
<pdfrwt beam="2">  1       21 0.92210656E-02 0.11263424E+03</pdfrwt>
<totfact> 0.22448990E+05</totfact>
</mgrwt>
</event>
<event>
 4    1  0.6024238E+003  0.1209593E+03  0.7546771E-02  0.1241523E+00
         21   -1    0    0  502  501  0.00000000000E+00  0.00000000000E+00  0.26453160834E+03  0.26453160834E+03  0.00000000000E+00 0. -1.
         21   -1    0    0  504  502 -0.00000000000E+00 -0.00000000000E+00 -0.37733585849E+03  0.37733585849E+03  0.00000000000E+00 0. -1.
         21    1    1    2  503  501 -0.89703049523E+02 -0.81145014076E+02  0.24007892427E+03  0.26882901681E+03  0.00000000000E+00 0. -1.
         21    1    1    2  504  503  0.89703049523E+02  0.81145014076E+02 -0.35288317442E+03  0.37303845002E+03  0.00000000000E+00 0. -1.
<mgrwt>
<rscale>  2 0.12095929E+03</rscale>
<asrwt>0</asrwt>
<pdfrwt beam="1">  1       21 0.40697171E-01 0.12095929E+03</pdfrwt>
<pdfrwt beam="2">  1       21 0.58051670E-01 0.12095929E+03</pdfrwt>
<totfact> 0.17002123E+04</totfact>
</mgrwt>
</event>
<event>
 4    1  0.6024238E+003  0.1054558E+03  0.7546771E-02  0.1269224E+00
         21   -1    0    0  504  501  0.00000000000E+00  0.00000000000E+00  0.59148652664E+01  0.59148652664E+01  0.00000000000E+00 0. -1.
         21   -1    0    0  503  502 -0.00000000000E+00 -0.00000000000E+00 -0.22332155097E+04  0.22332155097E+04  0.00000000000E+00 0.  1.
         21    1    1    2  503  501  0.99420139232E+02  0.35164891330E+02 -0.15587951630E+04  0.15623582476E+04  0.00000000000E+00 0.  1.
         21    1    1    2  504  502 -0.99420139232E+02 -0.35164891330E+02 -0.66850548148E+03  0.67677212740E+03  0.00000000000E+00 0. -1.
<mgrwt>
<rscale>  2 0.10545584E+03</rscale>
<asrwt>0</asrwt>
<pdfrwt beam="1">  1       21 0.90997866E-03 0.10545584E+03</pdfrwt>
<pdfrwt beam="2">  1       21 0.34357185E+00 0.10545584E+03</pdfrwt>
<totfact> 0.92193714E+04</totfact>
</mgrwt>
</event>
<event>
 4    1  0.6024238E+003  0.1177836E+03  0.7546771E-02  0.1246799E+00
         21   -1    0    0  504  501  0.00000000000E+00  0.00000000000E+00  0.55080965287E+02  0.55080965287E+02  0.00000000000E+00 0. -1.
         21   -1    0    0  503  502 -0.00000000000E+00 -0.00000000000E+00 -0.27606504332E+03  0.27606504332E+03  0.00000000000E+00 0. -1.
         21    1    1    2  503  501 -0.30243865830E+02  0.11383443881E+03 -0.15951407139E+03  0.19828693818E+03  0.00000000000E+00 0. -1.
         21    1    1    2  504  502  0.30243865830E+02 -0.11383443881E+03 -0.61470006635E+02  0.13285907043E+03  0.00000000000E+00 0. -1.
<mgrwt>
<rscale>  2 0.11778358E+03</rscale>
<asrwt>0</asrwt>
<pdfrwt beam="1">  1       21 0.84739947E-02 0.11778358E+03</pdfrwt>
<pdfrwt beam="2">  1       21 0.42471545E-01 0.11778358E+03</pdfrwt>
<totfact> 0.58326185E+05</totfact>
</mgrwt>
</event>
<event>
 4    1  0.6024238E+003  0.1192224E+03  0.7546771E-02  0.1244385E+00
         21   -1    0    0  503  501  0.00000000000E+00  0.00000000000E+00  0.60541014460E+02  0.60541014460E+02  0.00000000000E+00 0.  1.
         21   -1    0    0  504  502 -0.00000000000E+00 -0.00000000000E+00 -0.25693642334E+03  0.25693642334E+03  0.00000000000E+00 0.  1.
         21    1    1    2  503  502  0.11183363621E+03  0.41318483009E+02 -0.51586107511E+02  0.12990421746E+03  0.00000000000E+00 0.  1.
         21    1    1    2  504  501 -0.11183363621E+03 -0.41318483009E+02 -0.14480930137E+03  0.18757322034E+03  0.00000000000E+00 0.  1.
<mgrwt>
<rscale>  2 0.11922239E+03</rscale>
<asrwt>0</asrwt>
<pdfrwt beam="1">  1       21 0.93140020E-02 0.11922239E+03</pdfrwt>
<pdfrwt beam="2">  1       21 0.39528681E-01 0.11922239E+03</pdfrwt>
<totfact> 0.57168626E+05</totfact>
</mgrwt>
</event>
<event>
 4    1  0.6024238E+003  0.1410664E+03  0.7546771E-02  0.1211901E+00
         21   -1    0    0  503  501  0.00000000000E+00  0.00000000000E+00  0.49843534491E+03  0.49843534491E+03  0.00000000000E+00 0.  1.
         21   -1    0    0  504  502 -0.00000000000E+00 -0.00000000000E+00 -0.13529638386E+04  0.13529638386E+04  0.00000000000E+00 0. -1.
         21    1    1    2  503  502 -0.88308590226E+02 -0.11000601839E+03 -0.13392034026E+04  0.13466125964E+04  0.00000000000E+00 0. -1.
         21    1    1    2  504  501  0.88308590226E+02  0.11000601839E+03  0.48467490893E+03  0.50478658712E+03  0.00000000000E+00 0.  1.
<mgrwt>
<rscale>  2 0.14106641E+03</rscale>
<asrwt>0</asrwt>
<pdfrwt beam="1">  1       21 0.76682360E-01 0.14106641E+03</pdfrwt>
<pdfrwt beam="2">  1       21 0.20814829E+00 0.14106641E+03</pdfrwt>
<totfact> 0.19548534E+02</totfact>
</mgrwt>
</event>
<event>
 4    1  0.6024238E+003  0.1049027E+03  0.7546771E-02  0.1270312E+00
         21   -1    0    0  502  501  0.00000000000E+00  0.00000000000E+00  0.57410691222E+01  0.57410691222E+01  0.00000000000E+00 0.  1.
         21   -1    0    0  503  502 -0.00000000000E+00 -0.00000000000E+00 -0.29341029771E+04  0.29341029771E+04  0.00000000000E+00 0.  1.
         21    1    1    2  503  504 -0.10469209528E+03  0.66431587895E+01 -0.23297039581E+04  0.23320645572E+04  0.00000000000E+00 0.  1.
         21    1    1    2  504  501  0.10469209528E+03 -0.66431587895E+01 -0.59865794983E+03  0.60777948901E+03  0.00000000000E+00 0.  1.
<mgrwt>
<rscale>  2 0.10490265E+03</rscale>
<asrwt>0</asrwt>
<pdfrwt beam="1">  1       21 0.88324216E-03 0.10490265E+03</pdfrwt>
<pdfrwt beam="2">  1       21 0.45140007E+00 0.10490265E+03</pdfrwt>
<totfact> 0.21549329E+04</totfact>
</mgrwt>
</event>
<event>
 4    1  0.6024238E+003  0.1102600E+03  0.7546771E-02  0.1260089E+00
         21   -1    0    0  504  501  0.00000000000E+00  0.00000000000E+00  0.82002972517E+03  0.82002972517E+03  0.00000000000E+00 0. -1.
         21   -1    0    0  501  502 -0.00000000000E+00 -0.00000000000E+00 -0.93123406573E+02  0.93123406573E+02  0.00000000000E+00 0. -1.
         21    1    1    2  503  502  0.39461021040E+02  0.10295678366E+03 -0.55204974401E+02  0.12330799115E+03  0.00000000000E+00 0. -1.
         21    1    1    2  504  503 -0.39461021040E+02 -0.10295678366E+03  0.78211129300E+03  0.78984514059E+03  0.00000000000E+00 0. -1.
<mgrwt>
<rscale>  2 0.11026002E+03</rscale>
<asrwt>0</asrwt>
<pdfrwt beam="1">  1       21 0.12615841E+00 0.11026002E+03</pdfrwt>
<pdfrwt beam="2">  1       21 0.14326678E-01 0.11026002E+03</pdfrwt>
<totfact> 0.21124547E+04</totfact>
</mgrwt>
</event>
<event>
 4    1  0.6024238E+003  0.1627589E+03  0.7546771E-02  0.1185617E+00
         21   -1    0    0  504  501  0.00000000000E+00  0.00000000000E+00  0.13629715941E+03  0.13629715941E+03  0.00000000000E+00 0.  1.
         21   -1    0    0  503  502 -0.00000000000E+00 -0.00000000000E+00 -0.28581830645E+03  0.28581830645E+03  0.00000000000E+00 0.  1.
         21    1    1    2  503  501 -0.15839368145E+03  0.37442065270E+02 -0.19415173272E+03  0.25334830154E+03  0.00000000000E+00 0.  1.
         21    1    1    2  504  502  0.15839368145E+03 -0.37442065270E+02  0.44630585684E+02  0.16876716432E+03  0.00000000000E+00 0.  1.
<mgrwt>
<rscale>  2 0.16275892E+03</rscale>
<asrwt>0</asrwt>
<pdfrwt beam="1">  1       21 0.20968794E-01 0.16275892E+03</pdfrwt>
<pdfrwt beam="2">  1       21 0.43972047E-01 0.16275892E+03</pdfrwt>
<totfact> 0.10618455E+05</totfact>
</mgrwt>
</event>
<event>
 4    1  0.6024238E+003  0.1210523E+03  0.7546771E-02  0.1241371E+00
         21   -1    0    0  503  501  0.00000000000E+00  0.00000000000E+00  0.10941429058E+03  0.10941429058E+03  0.00000000000E+00 0.  1.
         21   -1    0    0  504  502 -0.00000000000E+00 -0.00000000000E+00 -0.13769807142E+03  0.13769807142E+03  0.00000000000E+00 0.  1.
         21    1    1    2  503  502 -0.10056873137E+03  0.67376504130E+02  0.63019125012E+01  0.12121624124E+03  0.00000000000E+00 0.  1.
         21    1    1    2  504  501  0.10056873137E+03 -0.67376504130E+02 -0.34585693348E+02  0.12589612076E+03  0.00000000000E+00 0.  1.
<mgrwt>
<rscale>  2 0.12105232E+03</rscale>
<asrwt>0</asrwt>
<pdfrwt beam="1">  1       21 0.16832968E-01 0.12105232E+03</pdfrwt>
<pdfrwt beam="2">  1       21 0.21184319E-01 0.12105232E+03</pdfrwt>
<totfact> 0.66180428E+05</totfact>
</mgrwt>
</event>
<event>
 4    1  0.6024238E+003  0.1113716E+03  0.7546771E-02  0.1258051E+00
         21   -1    0    0  503  501  0.00000000000E+00  0.00000000000E+00  0.28504075910E+02  0.28504075910E+02  0.00000000000E+00 0. -1.
         21   -1    0    0  504  502 -0.00000000000E+00 -0.00000000000E+00 -0.90400892256E+03  0.90400892256E+03  0.00000000000E+00 0. -1.
         21    1    1    2  503  502 -0.23429850956E+02 -0.10887920167E+03 -0.77353501201E+03  0.78151139037E+03  0.00000000000E+00 0. -1.
         21    1    1    2  504  501  0.23429850956E+02  0.10887920167E+03 -0.10196983464E+03  0.15100160810E+03  0.00000000000E+00 0. -1.
<mgrwt>
<rscale>  2 0.11137162E+03</rscale>
<asrwt>0</asrwt>
<pdfrwt beam="1">  1       21 0.43852424E-02 0.11137162E+03</pdfrwt>
<pdfrwt beam="2">  1       21 0.13907830E+00 0.11137162E+03</pdfrwt>
<totfact> 0.12686314E+05</totfact>
</mgrwt>
</event>
<event>
 4    1  0.6024238E+003  0.1152548E+03  0.7546771E-02  0.1251137E+00
         21   -1    0    0  504  501  0.00000000000E+00  0.00000000000E+00  0.27223616173E+03  0.27223616173E+03  0.00000000000E+00 0. -1.
         21   -1    0    0  503  502 -0.00000000000E+00 -0.00000000000E+00 -0.51362265167E+02  0.51362265167E+02  0.00000000000E+00 0. -1.
         21    1    1    2  503  501 -0.48520664845E+02  0.10454379296E+03  0.14661306780E+03  0.18649142397E+03  0.00000000000E+00 0. -1.
         21    1    1    2  504  502  0.48520664845E+02 -0.10454379296E+03  0.74260828764E+02  0.13710700293E+03  0.00000000000E+00 0. -1.
<mgrwt>
<rscale>  2 0.11525476E+03</rscale>
<asrwt>0</asrwt>
<pdfrwt beam="1">  1       21 0.41882486E-01 0.11525476E+03</pdfrwt>
<pdfrwt beam="2">  1       21 0.79018871E-02 0.11525476E+03</pdfrwt>
<totfact> 0.67662604E+05</totfact>
</mgrwt>
</event>
<event>
 4    1  0.6024238E+003  0.1442197E+03  0.7546771E-02  0.1207761E+00
         21   -1    0    0  503  501  0.00000000000E+00  0.00000000000E+00  0.15614482466E+03  0.15614482466E+03  0.00000000000E+00 0.  1.
         21   -1    0    0  501  502 -0.00000000000E+00 -0.00000000000E+00 -0.28335261485E+03  0.28335261485E+03  0.00000000000E+00 0.  1.
         21    1    1    2  503  504 -0.31098379526E+02  0.14082692046E+03  0.96359793581E+02  0.17344895662E+03  0.00000000000E+00 0.  1.
         21    1    1    2  504  502  0.31098379526E+02 -0.14082692046E+03 -0.22356758377E+03  0.26604848289E+03  0.00000000000E+00 0.  1.
<mgrwt>
<rscale>  2 0.14421973E+03</rscale>
<asrwt>0</asrwt>
<pdfrwt beam="1">  1       21 0.24022281E-01 0.14421973E+03</pdfrwt>
<pdfrwt beam="2">  1       21 0.43592710E-01 0.14421973E+03</pdfrwt>
<totfact> 0.84310272E+04</totfact>
</mgrwt>
</event>
<event>
 4    1  0.6024238E+003  0.1110528E+03  0.7546771E-02  0.1258633E+00
         21   -1    0    0  503  501  0.00000000000E+00  0.00000000000E+00  0.86162678392E+01  0.86162678392E+01  0.00000000000E+00 0. -1.
         21   -1    0    0  504  502 -0.00000000000E+00 -0.00000000000E+00 -0.14546172628E+04  0.14546172628E+04  0.00000000000E+00 0. -1.
         21    1    1    2  503  502  0.33235838915E+02  0.10596278787E+03 -0.81556764119E+03  0.82309374360E+03  0.00000000000E+00 0. -1.
         21    1    1    2  504  501 -0.33235838915E+02 -0.10596278787E+03 -0.63043335374E+03  0.64013978700E+03  0.00000000000E+00 0. -1.
<mgrwt>
<rscale>  2 0.11105284E+03</rscale>
<asrwt>0</asrwt>
<pdfrwt beam="1">  1       21 0.13255784E-02 0.11105284E+03</pdfrwt>
<pdfrwt beam="2">  1       21 0.22378748E+00 0.11105284E+03</pdfrwt>
<totfact> 0.23940837E+05</totfact>
</mgrwt>
</event>
<event>
 4    1  0.6024238E+003  0.1809570E+03  0.7546771E-02  0.1166880E+00
         21   -1    0    0  503  501  0.00000000000E+00  0.00000000000E+00  0.12284758791E+03  0.12284758791E+03  0.00000000000E+00 0. -1.
         21   -1    0    0  501  502 -0.00000000000E+00 -0.00000000000E+00 -0.83465770271E+03  0.83465770271E+03  0.00000000000E+00 0. -1.
         21    1    1    2  503  504 -0.73972174727E+02  0.16514702789E+03  0.39071282948E+02  0.18512695267E+03  0.00000000000E+00 0. -1.
         21    1    1    2  504  502  0.73972174727E+02 -0.16514702789E+03 -0.75088139774E+03  0.77237833795E+03  0.00000000000E+00 0. -1.
<mgrwt>
<rscale>  2 0.18095697E+03</rscale>
<asrwt>0</asrwt>
<pdfrwt beam="1">  1       21 0.18899629E-01 0.18095697E+03</pdfrwt>
<pdfrwt beam="2">  1       21 0.12840888E+00 0.18095697E+03</pdfrwt>
<totfact> 0.11533102E+04</totfact>
</mgrwt>
</event>
<event>
 4    1  0.6024238E+003  0.1267631E+03  0.7546771E-02  0.1232339E+00
         21   -1    0    0  504  501  0.00000000000E+00  0.00000000000E+00  0.86356168512E+03  0.86356168512E+03  0.00000000000E+00 0. -1.
         21   -1    0    0  503  502 -0.00000000000E+00 -0.00000000000E+00 -0.18620700652E+02  0.18620700652E+02  0.00000000000E+00 0. -1.
         21    1    1    2  503  501 -0.12665875395E+03 -0.51433995850E+01  0.43412668085E+03  0.45225531455E+03  0.00000000000E+00 0. -1.
         21    1    1    2  504  502  0.12665875395E+03  0.51433995850E+01  0.41081430361E+03  0.42992707122E+03  0.00000000000E+00 0. -1.
<mgrwt>
<rscale>  2 0.12676314E+03</rscale>
<asrwt>0</asrwt>
<pdfrwt beam="1">  1       21 0.13285561E+00 0.12676314E+03</pdfrwt>
<pdfrwt beam="2">  1       21 0.28647238E-02 0.12676314E+03</pdfrwt>
<totfact> 0.28530055E+05</totfact>
</mgrwt>
</event>
<event>
 4    1  0.6024238E+003  0.1038062E+03  0.7546771E-02  0.1272490E+00
         21   -1    0    0  503  501  0.00000000000E+00  0.00000000000E+00  0.20590504656E+03  0.20590504656E+03  0.00000000000E+00 0. -1.
         21   -1    0    0  501  502 -0.00000000000E+00 -0.00000000000E+00 -0.53609052712E+02  0.53609052712E+02  0.00000000000E+00 0.  1.
         21    1    1    2  503  504 -0.25259794704E+01  0.10377546095E+03  0.96163436855E+02  0.14150312172E+03  0.00000000000E+00 0. -1.
         21    1    1    2  504  502  0.25259794704E+01 -0.10377546095E+03  0.56132556990E+02  0.11801097755E+03  0.00000000000E+00 0.  1.
<mgrwt>
<rscale>  2 0.10380620E+03</rscale>
<asrwt>0</asrwt>
<pdfrwt beam="1">  1       21 0.31677699E-01 0.10380620E+03</pdfrwt>
<pdfrwt beam="2">  1       21 0.82475467E-02 0.10380620E+03</pdfrwt>
<totfact> 0.10876088E+06</totfact>
</mgrwt>
</event>
<event>
 4    1  0.6024238E+003  0.1173153E+03  0.7546771E-02  0.1247593E+00
         21   -1    0    0  504  501  0.00000000000E+00  0.00000000000E+00  0.10208963071E+03  0.10208963071E+03  0.00000000000E+00 0.  1.
         21   -1    0    0  503  502 -0.00000000000E+00 -0.00000000000E+00 -0.13637006882E+03  0.13637006882E+03  0.00000000000E+00 0.  1.
         21    1    1    2  503  501  0.43907934407E+02 -0.10878865583E+03 -0.29885761054E+02  0.12106212065E+03  0.00000000000E+00 0.  1.
         21    1    1    2  504  502 -0.43907934407E+02  0.10878865583E+03 -0.43946770552E+01  0.11739757889E+03  0.00000000000E+00 0.  1.
<mgrwt>
<rscale>  2 0.11731529E+03</rscale>
<asrwt>0</asrwt>
<pdfrwt beam="1">  1       21 0.15706097E-01 0.11731529E+03</pdfrwt>
<pdfrwt beam="2">  1       21 0.20980010E-01 0.11731529E+03</pdfrwt>
<totfact> 0.76384672E+05</totfact>
</mgrwt>
</event>
<event>
 4    1  0.6024238E+003  0.1108989E+03  0.7546771E-02  0.1258914E+00
         21   -1    0    0  504  501  0.00000000000E+00  0.00000000000E+00  0.13257906814E+03  0.13257906814E+03  0.00000000000E+00 0. -1.
         21   -1    0    0  503  502 -0.00000000000E+00 -0.00000000000E+00 -0.11861866154E+03  0.11861866154E+03  0.00000000000E+00 0. -1.
         21    1    1    2  503  501 -0.94064037996E+02 -0.58741196429E+02 -0.51657669493E+02  0.12234004340E+03  0.00000000000E+00 0. -1.
         21    1    1    2  504  502  0.94064037996E+02  0.58741196429E+02  0.65618076097E+02  0.12885768628E+03  0.00000000000E+00 0. -1.
<mgrwt>
<rscale>  2 0.11089892E+03</rscale>
<asrwt>0</asrwt>
<pdfrwt beam="1">  1       21 0.20396780E-01 0.11089892E+03</pdfrwt>
<pdfrwt beam="2">  1       21 0.18249025E-01 0.11089892E+03</pdfrwt>
<totfact> 0.61284908E+05</totfact>
</mgrwt>
</event>
<event>
 4    1  0.6024238E+003  0.1230750E+03  0.7546771E-02  0.1238109E+00
         21   -1    0    0  503  501  0.00000000000E+00  0.00000000000E+00  0.70348108572E+02  0.70348108572E+02  0.00000000000E+00 0.  1.
         21   -1    0    0  504  502 -0.00000000000E+00 -0.00000000000E+00 -0.21965379960E+03  0.21965379960E+03  0.00000000000E+00 0.  1.
         21    1    1    2  503  502  0.10496861057E+03  0.64257657360E+02 -0.54288804422E+02  0.13451665332E+03  0.00000000000E+00 0.  1.
         21    1    1    2  504  501 -0.10496861057E+03 -0.64257657360E+02 -0.95016886602E+02  0.15548525485E+03  0.00000000000E+00 0.  1.
<mgrwt>
<rscale>  2 0.12307500E+03</rscale>
<asrwt>0</asrwt>
<pdfrwt beam="1">  1       21 0.10822786E-01 0.12307500E+03</pdfrwt>
<pdfrwt beam="2">  1       21 0.33792892E-01 0.12307500E+03</pdfrwt>
<totfact> 0.59900146E+05</totfact>
</mgrwt>
</event>
<event>
 4    1  0.6024238E+003  0.1772933E+03  0.7546771E-02  0.1170449E+00
         21   -1    0    0  504  501  0.00000000000E+00  0.00000000000E+00  0.78404651598E+03  0.78404651598E+03  0.00000000000E+00 0.  1.
         21   -1    0    0  503  502 -0.00000000000E+00 -0.00000000000E+00 -0.42214393919E+02  0.42214393919E+02  0.00000000000E+00 0.  1.
         21    1    1    2  503  501 -0.11915274789E+03 -0.13128414717E+03  0.27825187909E+03  0.32993486151E+03  0.00000000000E+00 0.  1.
         21    1    1    2  504  502  0.11915274789E+03  0.13128414717E+03  0.46358024298E+03  0.49632604839E+03  0.00000000000E+00 0.  1.
<mgrwt>
<rscale>  2 0.17729327E+03</rscale>
<asrwt>0</asrwt>
<pdfrwt beam="1">  1       21 0.12062253E+00 0.17729327E+03</pdfrwt>
<pdfrwt beam="2">  1       21 0.64945227E-02 0.17729327E+03</pdfrwt>
<totfact> 0.90359290E+04</totfact>
</mgrwt>
</event>
<event>
 4    1  0.6024238E+003  0.1126875E+03  0.7546771E-02  0.1255672E+00
         21   -1    0    0  504  501  0.00000000000E+00  0.00000000000E+00  0.68218397015E+02  0.68218397015E+02  0.00000000000E+00 0.  1.
         21   -1    0    0  503  502 -0.00000000000E+00 -0.00000000000E+00 -0.94396216020E+03  0.94396216020E+03  0.00000000000E+00 0. -1.
         21    1    1    2  503  501 -0.91307293974E+02  0.66041348061E+02  0.15581927231E+02  0.11375973823E+03  0.00000000000E+00 0.  1.
         21    1    1    2  504  502  0.91307293974E+02 -0.66041348061E+02 -0.89132569042E+03  0.89842081899E+03  0.00000000000E+00 0. -1.
<mgrwt>
<rscale>  2 0.11268754E+03</rscale>
<asrwt>0</asrwt>
<pdfrwt beam="1">  1       21 0.10495138E-01 0.11268754E+03</pdfrwt>
<pdfrwt beam="2">  1       21 0.14522494E+00 0.11268754E+03</pdfrwt>
<totfact> 0.25696827E+04</totfact>
</mgrwt>
</event>
<event>
 4    1  0.6024238E+003  0.1857607E+03  0.7546771E-02  0.1162341E+00
         21   -1    0    0  503  501  0.00000000000E+00  0.00000000000E+00  0.64201023573E+03  0.64201023573E+03  0.00000000000E+00 0. -1.
         21   -1    0    0  501  502 -0.00000000000E+00 -0.00000000000E+00 -0.57047328241E+02  0.57047328241E+02  0.00000000000E+00 0. -1.
         21    1    1    2  503  504 -0.14148017578E+03  0.12037609357E+03  0.37653374584E+03  0.41986272256E+03  0.00000000000E+00 0. -1.
         21    1    1    2  504  502  0.14148017578E+03 -0.12037609357E+03  0.20842916165E+03  0.27919484141E+03  0.00000000000E+00 0. -1.
<mgrwt>
<rscale>  2 0.18576072E+03</rscale>
<asrwt>0</asrwt>
<pdfrwt beam="1">  1       21 0.98770801E-01 0.18576072E+03</pdfrwt>
<pdfrwt beam="2">  1       21 0.87765125E-02 0.18576072E+03</pdfrwt>
<totfact> 0.86548414E+04</totfact>
</mgrwt>
</event>
<event>
 4    1  0.6024238E+003  0.1353144E+03  0.7546771E-02  0.1219776E+00
         21   -1    0    0  504  501  0.00000000000E+00  0.00000000000E+00  0.11330484875E+03  0.11330484875E+03  0.00000000000E+00 0.  1.
         21   -1    0    0  501  502 -0.00000000000E+00 -0.00000000000E+00 -0.17983151432E+03  0.17983151432E+03  0.00000000000E+00 0.  1.
         21    1    1    2  503  502 -0.38873995075E+01  0.13525859372E+03 -0.79931951976E+02  0.15715952404E+03  0.00000000000E+00 0.  1.
         21    1    1    2  504  503  0.38873995075E+01 -0.13525859372E+03  0.13405286402E+02  0.13597683903E+03  0.00000000000E+00 0.  1.
<mgrwt>
<rscale>  2 0.13531445E+03</rscale>
<asrwt>0</asrwt>
<pdfrwt beam="1">  1       21 0.17431515E-01 0.13531445E+03</pdfrwt>
<pdfrwt beam="2">  1       21 0.27666387E-01 0.13531445E+03</pdfrwt>
<totfact> 0.37520955E+05</totfact>
</mgrwt>
</event>
<event>
 4    1  0.6024238E+003  0.1402860E+03  0.7546771E-02  0.1212945E+00
         21   -1    0    0  502  501  0.00000000000E+00  0.00000000000E+00  0.87163889821E+02  0.87163889821E+02  0.00000000000E+00 0.  1.
         21   -1    0    0  504  502 -0.00000000000E+00 -0.00000000000E+00 -0.42316200669E+03  0.42316200669E+03  0.00000000000E+00 0. -1.
         21    1    1    2  503  501  0.60311427771E+02  0.12665976775E+03  0.62675765642E+01  0.14042595060E+03  0.00000000000E+00 0.  1.
         21    1    1    2  504  503 -0.60311427771E+02 -0.12665976775E+03 -0.34226569344E+03  0.36989994592E+03  0.00000000000E+00 0. -1.
<mgrwt>
<rscale>  2 0.14028601E+03</rscale>
<asrwt>0</asrwt>
<pdfrwt beam="1">  1       21 0.13409829E-01 0.14028601E+03</pdfrwt>
<pdfrwt beam="2">  1       21 0.65101847E-01 0.14028601E+03</pdfrwt>
<totfact> 0.10651833E+05</totfact>
</mgrwt>
</event>
<event>
 4    1  0.6024238E+003  0.1021768E+03  0.7546771E-02  0.1275784E+00
         21   -1    0    0  503  501  0.00000000000E+00  0.00000000000E+00  0.11808134625E+04  0.11808134625E+04  0.00000000000E+00 0.  1.
         21   -1    0    0  504  502 -0.00000000000E+00 -0.00000000000E+00 -0.11450292530E+02  0.11450292530E+02  0.00000000000E+00 0.  1.
         21    1    1    2  503  502 -0.72841271003E+01  0.10191681424E+03  0.86923154408E+03  0.87521630055E+03  0.00000000000E+00 0.  1.
         21    1    1    2  504  501  0.72841271003E+01 -0.10191681424E+03  0.30013162594E+03  0.31704745452E+03  0.00000000000E+00 0.  1.
<mgrwt>
<rscale>  2 0.10217679E+03</rscale>
<asrwt>0</asrwt>
<pdfrwt beam="1">  1       21 0.18166351E+00 0.10217679E+03</pdfrwt>
<pdfrwt beam="2">  1       21 0.17615844E-02 0.10217679E+03</pdfrwt>
<totfact> 0.27923156E+05</totfact>
</mgrwt>
</event>
<event>
 4    1  0.6024238E+003  0.1080600E+03  0.7546771E-02  0.1264205E+00
         21   -1    0    0  504  501  0.00000000000E+00  0.00000000000E+00  0.41368793405E+03  0.41368793405E+03  0.00000000000E+00 0.  1.
         21   -1    0    0  503  502 -0.00000000000E+00 -0.00000000000E+00 -0.45556682870E+02  0.45556682870E+02  0.00000000000E+00 0.  1.
         21    1    1    2  503  501 -0.10684791228E+03 -0.16139669835E+02  0.32569049376E+03  0.34314903909E+03  0.00000000000E+00 0.  1.
         21    1    1    2  504  502  0.10684791228E+03  0.16139669835E+02  0.42440757414E+02  0.11609557783E+03  0.00000000000E+00 0.  1.
<mgrwt>
<rscale>  2 0.10806001E+03</rscale>
<asrwt>0</asrwt>
<pdfrwt beam="1">  1       21 0.63644295E-01 0.10806001E+03</pdfrwt>
<pdfrwt beam="2">  1       21 0.70087207E-02 0.10806001E+03</pdfrwt>
<totfact> 0.35011189E+05</totfact>
</mgrwt>
</event>
<event>
 4    1  0.6024238E+003  0.1202131E+03  0.7546771E-02  0.1242746E+00
         21   -1    0    0  502  501  0.00000000000E+00  0.00000000000E+00  0.65130926759E+02  0.65130926759E+02  0.00000000000E+00 0.  1.
         21   -1    0    0  503  502 -0.00000000000E+00 -0.00000000000E+00 -0.74814015334E+03  0.74814015334E+03  0.00000000000E+00 0. -1.
         21    1    1    2  503  504  0.27321168989E+02  0.11706723959E+03 -0.68255182880E+03  0.69305712886E+03  0.00000000000E+00 0. -1.
         21    1    1    2  504  501 -0.27321168989E+02 -0.11706723959E+03 -0.45739777636E+00  0.12021395124E+03  0.00000000000E+00 0.  1.
<mgrwt>
<rscale>  2 0.12021308E+03</rscale>
<asrwt>0</asrwt>
<pdfrwt beam="1">  1       21 0.10020142E-01 0.12021308E+03</pdfrwt>
<pdfrwt beam="2">  1       21 0.11509849E+00 0.12021308E+03</pdfrwt>
<totfact> 0.49273097E+04</totfact>
</mgrwt>
</event>
<event>
 4    1  0.6024238E+003  0.1144224E+03  0.7546771E-02  0.1252593E+00
         21   -1    0    0  504  501  0.00000000000E+00  0.00000000000E+00  0.54744093619E+02  0.54744093619E+02  0.00000000000E+00 0.  1.
         21   -1    0    0  503  502 -0.00000000000E+00 -0.00000000000E+00 -0.53450539899E+03  0.53450539899E+03  0.00000000000E+00 0.  1.
         21    1    1    2  503  501  0.17534526896E+02 -0.11307090602E+03 -0.45888852642E+03  0.47293886402E+03  0.00000000000E+00 0.  1.
         21    1    1    2  504  502 -0.17534526896E+02  0.11307090602E+03 -0.20872778946E+02  0.11631062858E+03  0.00000000000E+00 0.  1.
<mgrwt>
<rscale>  2 0.11442242E+03</rscale>
<asrwt>0</asrwt>
<pdfrwt beam="1">  1       21 0.84221683E-02 0.11442242E+03</pdfrwt>
<pdfrwt beam="2">  1       21 0.82231599E-01 0.11442242E+03</pdfrwt>
<totfact> 0.14576473E+05</totfact>
</mgrwt>
</event>
<event>
 4    1  0.6024238E+003  0.1003588E+03  0.7546771E-02  0.1279543E+00
         21   -1    0    0  504  501  0.00000000000E+00  0.00000000000E+00  0.55705753470E+02  0.55705753470E+02  0.00000000000E+00 0. -1.
         21   -1    0    0  501  502 -0.00000000000E+00 -0.00000000000E+00 -0.36074600601E+03  0.36074600601E+03  0.00000000000E+00 0.  1.
         21    1    1    2  503  502 -0.10010366508E+03  0.71519381574E+01 -0.29958152155E+03  0.31594458697E+03  0.00000000000E+00 0.  1.
         21    1    1    2  504  503  0.10010366508E+03 -0.71519381574E+01 -0.54587309847E+01  0.10050717251E+03  0.00000000000E+00 0. -1.
<mgrwt>
<rscale>  2 0.10035883E+03</rscale>
<asrwt>0</asrwt>
<pdfrwt beam="1">  1       21 0.85701162E-02 0.10035883E+03</pdfrwt>
<pdfrwt beam="2">  1       21 0.55499384E-01 0.10035883E+03</pdfrwt>
<totfact> 0.33157906E+05</totfact>
</mgrwt>
</event>
<event>
 4    1  0.6024238E+003  0.1521139E+03  0.7546771E-02  0.1197899E+00
         21   -1    0    0  504  501  0.00000000000E+00  0.00000000000E+00  0.18342415338E+04  0.18342415338E+04  0.00000000000E+00 0.  1.
         21   -1    0    0  503  502 -0.00000000000E+00 -0.00000000000E+00 -0.21438895954E+02  0.21438895954E+02  0.00000000000E+00 0.  1.
         21    1    1    2  503  501  0.12645129588E+03  0.84549955094E+02  0.15016612157E+04  0.15093458953E+04  0.00000000000E+00 0.  1.
         21    1    1    2  504  502 -0.12645129588E+03 -0.84549955094E+02  0.31114142220E+03  0.34633453444E+03  0.00000000000E+00 0.  1.
<mgrwt>
<rscale>  2 0.15211386E+03</rscale>
<asrwt>0</asrwt>
<pdfrwt beam="1">  1       21 0.28219088E+00 0.15211386E+03</pdfrwt>
<pdfrwt beam="2">  1       21 0.32982931E-02 0.15211386E+03</pdfrwt>
<totfact> 0.24353417E+04</totfact>
</mgrwt>
</event>
<event>
 4    1  0.6024238E+003  0.1367184E+03  0.7546771E-02  0.1217814E+00
         21   -1    0    0  504  501  0.00000000000E+00  0.00000000000E+00  0.50616406857E+02  0.50616406857E+02  0.00000000000E+00 0. -1.
         21   -1    0    0  501  502 -0.00000000000E+00 -0.00000000000E+00 -0.82674749649E+03  0.82674749649E+03  0.00000000000E+00 0.  1.
         21    1    1    2  503  502 -0.67528429510E+02  0.11887736425E+03 -0.71438331618E+03  0.72734822400E+03  0.00000000000E+00 0.  1.
         21    1    1    2  504  503  0.67528429510E+02 -0.11887736425E+03 -0.61747773452E+02  0.15001567934E+03  0.00000000000E+00 0. -1.
<mgrwt>
<rscale>  2 0.13671838E+03</rscale>
<asrwt>0</asrwt>
<pdfrwt beam="1">  1       21 0.77871402E-02 0.13671838E+03</pdfrwt>
<pdfrwt beam="2">  1       21 0.12719191E+00 0.13671838E+03</pdfrwt>
<totfact> 0.59173813E+04</totfact>
</mgrwt>
</event>
<event>
 4    1  0.6024238E+003  0.1474170E+03  0.7546771E-02  0.1203683E+00
         21   -1    0    0  503  501  0.00000000000E+00  0.00000000000E+00  0.54690833458E+03  0.54690833458E+03  0.00000000000E+00 0. -1.
         21   -1    0    0  504  502 -0.00000000000E+00 -0.00000000000E+00 -0.35927268164E+03  0.35927268164E+03  0.00000000000E+00 0. -1.
         21    1    1    2  503  502  0.50528201603E+01 -0.14733040062E+03  0.52111836485E+03  0.54156821189E+03  0.00000000000E+00 0. -1.
         21    1    1    2  504  501 -0.50528201603E+01  0.14733040062E+03 -0.33348271191E+03  0.36461280433E+03  0.00000000000E+00 0. -1.
<mgrwt>
<rscale>  2 0.14741702E+03</rscale>
<asrwt>0</asrwt>
<pdfrwt beam="1">  1       21 0.84139744E-01 0.14741702E+03</pdfrwt>
<pdfrwt beam="2">  1       21 0.55272720E-01 0.14741702E+03</pdfrwt>
<totfact> 0.39412168E+03</totfact>
</mgrwt>
</event>
<event>
 4    1  0.6024238E+003  0.1072012E+03  0.7546771E-02  0.1265842E+00
         21   -1    0    0  503  501  0.00000000000E+00  0.00000000000E+00  0.26442413262E+02  0.26442413262E+02  0.00000000000E+00 0.  1.
         21   -1    0    0  501  502 -0.00000000000E+00 -0.00000000000E+00 -0.10116549728E+04  0.10116549728E+04  0.00000000000E+00 0.  1.
         21    1    1    2  503  504 -0.56303135309E+02 -0.91225297585E+02 -0.10059615760E+03  0.14700913199E+03  0.00000000000E+00 0.  1.
         21    1    1    2  504  502  0.56303135309E+02  0.91225297585E+02 -0.88461640193E+03  0.89108825406E+03  0.00000000000E+00 0.  1.
<mgrwt>
<rscale>  2 0.10720120E+03</rscale>
<asrwt>0</asrwt>
<pdfrwt beam="1">  1       21 0.40680638E-02 0.10720120E+03</pdfrwt>
<pdfrwt beam="2">  1       21 0.15563922E+00 0.10720120E+03</pdfrwt>
<totfact> 0.10800635E+05</totfact>
</mgrwt>
</event>
<event>
 4    1  0.6024238E+003  0.1034934E+03  0.7546771E-02  0.1273117E+00
         21   -1    0    0  504  501  0.00000000000E+00  0.00000000000E+00  0.43047939882E+03  0.43047939882E+03  0.00000000000E+00 0. -1.
         21   -1    0    0  501  502 -0.00000000000E+00 -0.00000000000E+00 -0.50576407183E+02  0.50576407183E+02  0.00000000000E+00 0. -1.
         21    1    1    2  503  502  0.33281062436E+02  0.97996160354E+02  0.18509623681E+02  0.10513554456E+03  0.00000000000E+00 0. -1.
         21    1    1    2  504  503 -0.33281062436E+02 -0.97996160354E+02  0.36139336795E+03  0.37592026144E+03  0.00000000000E+00 0. -1.
<mgrwt>
<rscale>  2 0.10349336E+03</rscale>
<asrwt>0</asrwt>
<pdfrwt beam="1">  1       21 0.66227597E-01 0.10349336E+03</pdfrwt>
<pdfrwt beam="2">  1       21 0.77809860E-02 0.10349336E+03</pdfrwt>
<totfact> 0.26922621E+05</totfact>
</mgrwt>
</event>
<event>
 4    1  0.6024238E+003  0.1400797E+03  0.7546771E-02  0.1213222E+00
         21   -1    0    0  503  501  0.00000000000E+00  0.00000000000E+00  0.11457294699E+03  0.11457294699E+03  0.00000000000E+00 0. -1.
         21   -1    0    0  504  502 -0.00000000000E+00 -0.00000000000E+00 -0.17523387920E+03  0.17523387920E+03  0.00000000000E+00 0. -1.
         21    1    1    2  503  502  0.14005082960E+03 -0.28434661320E+01 -0.52138221400E+02  0.14946810463E+03  0.00000000000E+00 0. -1.
         21    1    1    2  504  501 -0.14005082960E+03  0.28434661320E+01 -0.85227108112E+01  0.14033872157E+03  0.00000000000E+00 0. -1.
<mgrwt>
<rscale>  2 0.14007969E+03</rscale>
<asrwt>0</asrwt>
<pdfrwt beam="1">  1       21 0.17626607E-01 0.14007969E+03</pdfrwt>
<pdfrwt beam="2">  1       21 0.26959058E-01 0.14007969E+03</pdfrwt>
<totfact> 0.38605001E+05</totfact>
</mgrwt>
</event>
<event>
 4    1  0.6024238E+003  0.1303889E+03  0.7546771E-02  0.1226880E+00
         21   -1    0    0  502  501  0.00000000000E+00  0.00000000000E+00  0.24203231229E+03  0.24203231229E+03  0.00000000000E+00 0.  1.
         21   -1    0    0  504  502 -0.00000000000E+00 -0.00000000000E+00 -0.75038618988E+02  0.75038618988E+02  0.00000000000E+00 0.  1.
         21    1    1    2  503  501 -0.11283242031E+03  0.65346006451E+02  0.12357176896E+03  0.17964197092E+03  0.00000000000E+00 0.  1.
         21    1    1    2  504  503  0.11283242031E+03 -0.65346006451E+02  0.43421924347E+02  0.13742896036E+03  0.00000000000E+00 0.  1.
<mgrwt>
<rscale>  2 0.13038886E+03</rscale>
<asrwt>0</asrwt>
<pdfrwt beam="1">  1       21 0.37235740E-01 0.13038886E+03</pdfrwt>
<pdfrwt beam="2">  1       21 0.11544403E-01 0.13038886E+03</pdfrwt>
<totfact> 0.44154255E+05</totfact>
</mgrwt>
</event>
<event>
 4    1  0.6024238E+003  0.1342785E+03  0.7546771E-02  0.1221242E+00
         21   -1    0    0  503  501  0.00000000000E+00  0.00000000000E+00  0.16063754592E+03  0.16063754592E+03  0.00000000000E+00 0.  1.
         21   -1    0    0  504  502 -0.00000000000E+00 -0.00000000000E+00 -0.11343729663E+03  0.11343729663E+03  0.00000000000E+00 0.  1.
         21    1    1    2  503  502  0.83254117120E+02 -0.10535402581E+03  0.37650944352E+02  0.13945720628E+03  0.00000000000E+00 0.  1.
         21    1    1    2  504  501 -0.83254117120E+02  0.10535402581E+03  0.95493049309E+01  0.13461763628E+03  0.00000000000E+00 0.  1.
<mgrwt>
<rscale>  2 0.13427851E+03</rscale>
<asrwt>0</asrwt>
<pdfrwt beam="1">  1       21 0.24713469E-01 0.13427851E+03</pdfrwt>
<pdfrwt beam="2">  1       21 0.17451892E-01 0.13427851E+03</pdfrwt>
<totfact> 0.46407978E+05</totfact>
</mgrwt>
</event>
<event>
 4    1  0.6024238E+003  0.1713922E+03  0.7546771E-02  0.1176404E+00
         21   -1    0    0  504  501  0.00000000000E+00  0.00000000000E+00  0.18880066682E+03  0.18880066682E+03  0.00000000000E+00 0. -1.
         21   -1    0    0  501  502 -0.00000000000E+00 -0.00000000000E+00 -0.31714110461E+03  0.31714110461E+03  0.00000000000E+00 0. -1.
         21    1    1    2  503  502 -0.16586864573E+03  0.43160914545E+02 -0.24472160700E+03  0.29877070993E+03  0.00000000000E+00 0. -1.
         21    1    1    2  504  503  0.16586864573E+03 -0.43160914545E+02  0.11638116920E+03  0.20717106150E+03  0.00000000000E+00 0. -1.
<mgrwt>
<rscale>  2 0.17139216E+03</rscale>
<asrwt>0</asrwt>
<pdfrwt beam="1">  1       21 0.29046256E-01 0.17139216E+03</pdfrwt>
<pdfrwt beam="2">  1       21 0.48790939E-01 0.17139216E+03</pdfrwt>
<totfact> 0.45977017E+04</totfact>
</mgrwt>
</event>
<event>
 4    1  0.6024238E+003  0.1181508E+03  0.7546771E-02  0.1246179E+00
         21   -1    0    0  504  501  0.00000000000E+00  0.00000000000E+00  0.40093570227E+03  0.40093570227E+03  0.00000000000E+00 0.  1.
         21   -1    0    0  503  502 -0.00000000000E+00 -0.00000000000E+00 -0.63453186594E+03  0.63453186594E+03  0.00000000000E+00 0.  1.
         21    1    1    2  503  501  0.92032628443E+02 -0.74091849009E+02  0.38653095762E+03  0.40418533866E+03  0.00000000000E+00 0.  1.
         21    1    1    2  504  502 -0.92032628443E+02  0.74091849009E+02 -0.62012712129E+03  0.63128222955E+03  0.00000000000E+00 0.  1.
<mgrwt>
<rscale>  2 0.11815078E+03</rscale>
<asrwt>0</asrwt>
<pdfrwt beam="1">  1       21 0.61682417E-01 0.11815078E+03</pdfrwt>
<pdfrwt beam="2">  1       21 0.97620286E-01 0.11815078E+03</pdfrwt>
<totfact> 0.22982194E+03</totfact>
</mgrwt>
</event>
<event>
 4    1  0.6024238E+003  0.1090990E+03  0.7546771E-02  0.1262248E+00
         21   -1    0    0  503  501  0.00000000000E+00  0.00000000000E+00  0.94363792486E+02  0.94363792486E+02  0.00000000000E+00 0.  1.
         21   -1    0    0  504  502 -0.00000000000E+00 -0.00000000000E+00 -0.12861278500E+03  0.12861278500E+03  0.00000000000E+00 0.  1.
         21    1    1    2  503  502  0.20248013553E+02 -0.10720356516E+03 -0.32598767058E+02  0.11386512218E+03  0.00000000000E+00 0.  1.
         21    1    1    2  504  501 -0.20248013553E+02  0.10720356516E+03 -0.16502254598E+01  0.10911145531E+03  0.00000000000E+00 0.  1.
<mgrwt>
<rscale>  2 0.10909898E+03</rscale>
<asrwt>0</asrwt>
<pdfrwt beam="1">  1       21 0.14517507E-01 0.10909898E+03</pdfrwt>
<pdfrwt beam="2">  1       21 0.19786582E-01 0.10909898E+03</pdfrwt>
<totfact> 0.97984093E+05</totfact>
</mgrwt>
</event>
<event>
 4    1  0.6024238E+003  0.2126220E+03  0.7546771E-02  0.1139506E+00
         21   -1    0    0  503  501  0.00000000000E+00  0.00000000000E+00  0.56913814889E+03  0.56913814889E+03  0.00000000000E+00 0. -1.
         21   -1    0    0  504  502 -0.00000000000E+00 -0.00000000000E+00 -0.20070692553E+03  0.20070692553E+03  0.00000000000E+00 0.  1.
         21    1    1    2  503  502  0.25344542801E+02  0.21110602717E+03  0.48342599806E+03  0.52811816495E+03  0.00000000000E+00 0. -1.
         21    1    1    2  504  501 -0.25344542801E+02 -0.21110602717E+03 -0.11499477470E+03  0.24172690947E+03  0.00000000000E+00 0.  1.
<mgrwt>
<rscale>  2 0.21262197E+03</rscale>
<asrwt>0</asrwt>
<pdfrwt beam="1">  1       21 0.87559714E-01 0.21262197E+03</pdfrwt>
<pdfrwt beam="2">  1       21 0.30877989E-01 0.21262197E+03</pdfrwt>
<totfact> 0.11124858E+04</totfact>
</mgrwt>
</event>
<event>
 4    1  0.6024238E+003  0.1190503E+03  0.7546771E-02  0.1244672E+00
         21   -1    0    0  502  501  0.00000000000E+00  0.00000000000E+00  0.11685053085E+04  0.11685053085E+04  0.00000000000E+00 0.  1.
         21   -1    0    0  504  502 -0.00000000000E+00 -0.00000000000E+00 -0.42944443718E+02  0.42944443718E+02  0.00000000000E+00 0. -1.
         21    1    1    2  503  501 -0.99155568389E+02  0.65887467741E+02  0.10758839838E+04  0.10824506140E+04  0.00000000000E+00 0.  1.
         21    1    1    2  504  503  0.99155568389E+02 -0.65887467741E+02  0.49676880921E+02  0.12899913816E+03  0.00000000000E+00 0. -1.
<mgrwt>
<rscale>  2 0.11905035E+03</rscale>
<asrwt>0</asrwt>
<pdfrwt beam="1">  1       21 0.17977002E+00 0.11905035E+03</pdfrwt>
<pdfrwt beam="2">  1       21 0.66068384E-02 0.11905035E+03</pdfrwt>
<totfact> 0.32263325E+04</totfact>
</mgrwt>
</event>
<event>
 4    1  0.6024238E+003  0.1075232E+03  0.7546771E-02  0.1265226E+00
         21   -1    0    0  502  501  0.00000000000E+00  0.00000000000E+00  0.87602060498E+02  0.87602060498E+02  0.00000000000E+00 0.  1.
         21   -1    0    0  503  502 -0.00000000000E+00 -0.00000000000E+00 -0.49350857254E+03  0.49350857254E+03  0.00000000000E+00 0.  1.
         21    1    1    2  503  504 -0.20188174728E+02 -0.10561101487E+03 -0.45164193712E+03  0.46426467475E+03  0.00000000000E+00 0.  1.
         21    1    1    2  504  501  0.20188174728E+02  0.10561101487E+03  0.45735425073E+02  0.11684595829E+03  0.00000000000E+00 0.  1.
<mgrwt>
<rscale>  2 0.10752325E+03</rscale>
<asrwt>0</asrwt>
<pdfrwt beam="1">  1       21 0.13477240E-01 0.10752325E+03</pdfrwt>
<pdfrwt beam="2">  1       21 0.75924397E-01 0.10752325E+03</pdfrwt>
<totfact> 0.76658428E+04</totfact>
</mgrwt>
</event>
<event>
 4    1  0.6024238E+003  0.1062483E+03  0.7546771E-02  0.1267679E+00
         21   -1    0    0  503  501  0.00000000000E+00  0.00000000000E+00  0.70523588580E+03  0.70523588580E+03  0.00000000000E+00 0. -1.
         21   -1    0    0  504  502 -0.00000000000E+00 -0.00000000000E+00 -0.80546597683E+02  0.80546597683E+02  0.00000000000E+00 0.  1.
         21    1    1    2  503  502 -0.50999251534E+02 -0.93208275110E+02  0.66403616385E+03  0.67248251510E+03  0.00000000000E+00 0. -1.
         21    1    1    2  504  501  0.50999251534E+02  0.93208275110E+02 -0.39346875737E+02  0.11329996839E+03  0.00000000000E+00 0.  1.
<mgrwt>
<rscale>  2 0.10624832E+03</rscale>
<asrwt>0</asrwt>
<pdfrwt beam="1">  1       21 0.10849782E+00 0.10624832E+03</pdfrwt>
<pdfrwt beam="2">  1       21 0.12391785E-01 0.10624832E+03</pdfrwt>
<totfact> 0.39448466E+04</totfact>
</mgrwt>
</event>
<event>
 4    1  0.6024238E+003  0.1212131E+03  0.7546771E-02  0.1241109E+00
         21   -1    0    0  504  501  0.00000000000E+00  0.00000000000E+00  0.37160144419E+03  0.37160144419E+03  0.00000000000E+00 0. -1.
         21   -1    0    0  503  502 -0.00000000000E+00 -0.00000000000E+00 -0.40118668932E+02  0.40118668932E+02  0.00000000000E+00 0. -1.
         21    1    1    2  503  501 -0.19298040850E+02 -0.11966699350E+03  0.14098793638E+03  0.18593063739E+03  0.00000000000E+00 0. -1.
         21    1    1    2  504  502  0.19298040850E+02  0.11966699350E+03  0.19049483888E+03  0.22578947573E+03  0.00000000000E+00 0. -1.
<mgrwt>
<rscale>  2 0.12121305E+03</rscale>
<asrwt>0</asrwt>
<pdfrwt beam="1">  1       21 0.57169451E-01 0.12121305E+03</pdfrwt>
<pdfrwt beam="2">  1       21 0.61721032E-02 0.12121305E+03</pdfrwt>
<totfact> 0.54456521E+05</totfact>
</mgrwt>
</event>
<event>
 4    1  0.6024238E+003  0.1659556E+03  0.7546771E-02  0.1182132E+00
         21   -1    0    0  502  501  0.00000000000E+00  0.00000000000E+00  0.63970879182E+02  0.63970879182E+02  0.00000000000E+00 0.  1.
         21   -1    0    0  503  502 -0.00000000000E+00 -0.00000000000E+00 -0.47575370241E+03  0.47575370241E+03  0.00000000000E+00 0.  1.
         21    1    1    2  503  504  0.15886822937E+03  0.47980705697E+02 -0.28909521765E+03  0.33334262747E+03  0.00000000000E+00 0.  1.
         21    1    1    2  504  501 -0.15886822937E+03 -0.47980705697E+02 -0.12268760558E+03  0.20638195412E+03  0.00000000000E+00 0.  1.
<mgrwt>
<rscale>  2 0.16595560E+03</rscale>
<asrwt>0</asrwt>
<pdfrwt beam="1">  1       21 0.98416736E-02 0.16595560E+03</pdfrwt>
<pdfrwt beam="2">  1       21 0.73192878E-01 0.16595560E+03</pdfrwt>
<totfact> 0.14144886E+05</totfact>
</mgrwt>
</event>
<event>
 4    1  0.6024238E+003  0.1846235E+03  0.7546771E-02  0.1163402E+00
         21   -1    0    0  503  501  0.00000000000E+00  0.00000000000E+00  0.10590463161E+04  0.10590463161E+04  0.00000000000E+00 0.  1.
         21   -1    0    0  504  502 -0.00000000000E+00 -0.00000000000E+00 -0.15208008481E+03  0.15208008481E+03  0.00000000000E+00 0.  1.
         21    1    1    2  503  502  0.18111761187E+01  0.18461465177E+03  0.99116231084E+03  0.10082105814E+04  0.00000000000E+00 0.  1.
         21    1    1    2  504  501 -0.18111761187E+01 -0.18461465177E+03 -0.84196079539E+02  0.20291581953E+03  0.00000000000E+00 0.  1.
<mgrwt>
<rscale>  2 0.18462354E+03</rscale>
<asrwt>0</asrwt>
<pdfrwt beam="1">  1       21 0.16293020E+00 0.18462354E+03</pdfrwt>
<pdfrwt beam="2">  1       21 0.23396937E-01 0.18462354E+03</pdfrwt>
<totfact> 0.41472636E+03</totfact>
</mgrwt>
</event>
<event>
 4    1  0.6024238E+003  0.1007245E+03  0.7546771E-02  0.1278780E+00
         21   -1    0    0  503  501  0.00000000000E+00  0.00000000000E+00  0.12955112363E+04  0.12955112363E+04  0.00000000000E+00 0.  1.
         21   -1    0    0  504  502 -0.00000000000E+00 -0.00000000000E+00 -0.13060483787E+02  0.13060483787E+02  0.00000000000E+00 0.  1.
         21    1    1    2  503  502  0.76137588354E+02 -0.65943050464E+02  0.22721744027E+03  0.24854211600E+03  0.00000000000E+00 0.  1.
         21    1    1    2  504  501 -0.76137588354E+02  0.65943050464E+02  0.10552333122E+04  0.10600296041E+04  0.00000000000E+00 0.  1.
<mgrwt>
<rscale>  2 0.10072447E+03</rscale>
<asrwt>0</asrwt>
<pdfrwt beam="1">  1       21 0.19930932E+00 0.10072447E+03</pdfrwt>
<pdfrwt beam="2">  1       21 0.20093062E-02 0.10072447E+03</pdfrwt>
<totfact> 0.17473363E+05</totfact>
</mgrwt>
</event>
<event>
 4    1  0.6024238E+003  0.1021092E+03  0.7546771E-02  0.1275922E+00
         21   -1    0    0  504  501  0.00000000000E+00  0.00000000000E+00  0.11831207061E+03  0.11831207061E+03  0.00000000000E+00 0. -1.
         21   -1    0    0  503  502 -0.00000000000E+00 -0.00000000000E+00 -0.19117281860E+03  0.19117281860E+03  0.00000000000E+00 0.  1.
         21    1    1    2  503  501  0.67634915901E+01  0.10188492156E+03 -0.15004002715E+03  0.18148909556E+03  0.00000000000E+00 0.  1.
         21    1    1    2  504  502 -0.67634915901E+01 -0.10188492156E+03  0.77179279166E+02  0.12799579365E+03  0.00000000000E+00 0. -1.
<mgrwt>
<rscale>  2 0.10210917E+03</rscale>
<asrwt>0</asrwt>
<pdfrwt beam="1">  1       21 0.18201857E-01 0.10210917E+03</pdfrwt>
<pdfrwt beam="2">  1       21 0.29411203E-01 0.10210917E+03</pdfrwt>
<totfact> 0.30999453E+05</totfact>
</mgrwt>
</event>
<event>
 4    1  0.6024238E+003  0.1059890E+03  0.7546771E-02  0.1268183E+00
         21   -1    0    0  503  501  0.00000000000E+00  0.00000000000E+00  0.24637820959E+03  0.24637820959E+03  0.00000000000E+00 0. -1.
         21   -1    0    0  504  502 -0.00000000000E+00 -0.00000000000E+00 -0.52538667369E+02  0.52538667369E+02  0.00000000000E+00 0. -1.
         21    1    1    2  503  502  0.10552577495E+03  0.98981279689E+01  0.42586066178E+02  0.11422449452E+03  0.00000000000E+00 0. -1.
         21    1    1    2  504  501 -0.10552577495E+03 -0.98981279689E+01  0.15125347604E+03  0.18469238244E+03  0.00000000000E+00 0. -1.
<mgrwt>
<rscale>  2 0.10598897E+03</rscale>
<asrwt>0</asrwt>
<pdfrwt beam="1">  1       21 0.37904339E-01 0.10598897E+03</pdfrwt>
<pdfrwt beam="2">  1       21 0.80828721E-02 0.10598897E+03</pdfrwt>
<totfact> 0.79356019E+05</totfact>
</mgrwt>
</event>
<event>
 4    1  0.6024238E+003  0.1015348E+03  0.7546771E-02  0.1277101E+00
         21   -1    0    0  503  501  0.00000000000E+00  0.00000000000E+00  0.15545775000E+03  0.15545775000E+03  0.00000000000E+00 0.  1.
         21   -1    0    0  504  502 -0.00000000000E+00 -0.00000000000E+00 -0.34670710538E+03  0.34670710538E+03  0.00000000000E+00 0. -1.
         21    1    1    2  503  502  0.62517856062E+02 -0.80005267209E+02 -0.32142113281E+03  0.33707694926E+03  0.00000000000E+00 0. -1.
         21    1    1    2  504  501 -0.62517856062E+02  0.80005267209E+02  0.13017177743E+03  0.16508790612E+03  0.00000000000E+00 0.  1.
<mgrwt>
<rscale>  2 0.10153485E+03</rscale>
<asrwt>0</asrwt>
<pdfrwt beam="1">  1       21 0.23916577E-01 0.10153485E+03</pdfrwt>
<pdfrwt beam="2">  1       21 0.53339554E-01 0.10153485E+03</pdfrwt>
<totfact> 0.57461861E+04</totfact>
</mgrwt>
</event>
<event>
 4    1  0.6024238E+003  0.1408849E+03  0.7546771E-02  0.1212143E+00
         21   -1    0    0  502  501  0.00000000000E+00  0.00000000000E+00  0.76530408512E+02  0.76530408512E+02  0.00000000000E+00 0. -1.
         21   -1    0    0  504  502 -0.00000000000E+00 -0.00000000000E+00 -0.41093509595E+03  0.41093509595E+03  0.00000000000E+00 0. -1.
         21    1    1    2  503  501 -0.12090138440E+03  0.72328490733E+02 -0.19172883874E+02  0.14218352506E+03  0.00000000000E+00 0. -1.
         21    1    1    2  504  503  0.12090138440E+03 -0.72328490733E+02 -0.31523180356E+03  0.34528197940E+03  0.00000000000E+00 0. -1.
<mgrwt>
<rscale>  2 0.14088490E+03</rscale>
<asrwt>0</asrwt>
<pdfrwt beam="1">  1       21 0.11773909E-01 0.14088490E+03</pdfrwt>
<pdfrwt beam="2">  1       21 0.63220785E-01 0.14088490E+03</pdfrwt>
<totfact> 0.14302538E+05</totfact>
</mgrwt>
</event>
<event>
 4    1  0.6024238E+003  0.1017790E+03  0.7546771E-02  0.1276599E+00
         21   -1    0    0  502  501  0.00000000000E+00  0.00000000000E+00  0.15591808451E+04  0.15591808451E+04  0.00000000000E+00 0.  1.
         21   -1    0    0  504  502 -0.00000000000E+00 -0.00000000000E+00 -0.76208343885E+02  0.76208343885E+02  0.00000000000E+00 0. -1.
         21    1    1    2  503  501  0.39271910658E+02  0.93897176097E+02  0.15227248303E+04  0.15261224955E+04  0.00000000000E+00 0.  1.
         21    1    1    2  504  503 -0.39271910658E+02 -0.93897176097E+02 -0.39752329012E+02  0.10926669350E+03  0.00000000000E+00 0. -1.
<mgrwt>
<rscale>  2 0.10177899E+03</rscale>
<asrwt>0</asrwt>
<pdfrwt beam="1">  1       21 0.23987395E+00 0.10177899E+03</pdfrwt>
<pdfrwt beam="2">  1       21 0.11724362E-01 0.10177899E+03</pdfrwt>
<totfact> 0.52564390E+03</totfact>
</mgrwt>
</event>
<event>
 4    1  0.6024238E+003  0.1343988E+03  0.7546771E-02  0.1221071E+00
         21   -1    0    0  504  501  0.00000000000E+00  0.00000000000E+00  0.13299693080E+03  0.13299693080E+03  0.00000000000E+00 0.  1.
         21   -1    0    0  503  502 -0.00000000000E+00 -0.00000000000E+00 -0.36846636234E+03  0.36846636234E+03  0.00000000000E+00 0. -1.
         21    1    1    2  503  501 -0.13177758775E+03  0.26414118449E+02  0.81498895658E+02  0.15717858722E+03  0.00000000000E+00 0.  1.
         21    1    1    2  504  502  0.13177758775E+03 -0.26414118449E+02 -0.31696832720E+03  0.34428470592E+03  0.00000000000E+00 0. -1.
<mgrwt>
<rscale>  2 0.13439880E+03</rscale>
<asrwt>0</asrwt>
<pdfrwt beam="1">  1       21 0.20461067E-01 0.13439880E+03</pdfrwt>
<pdfrwt beam="2">  1       21 0.56687131E-01 0.13439880E+03</pdfrwt>
<totfact> 0.66447351E+04</totfact>
</mgrwt>
</event>
<event>
 4    1  0.6024238E+003  0.1056480E+03  0.7546771E-02  0.1268848E+00
         21   -1    0    0  502  501  0.00000000000E+00  0.00000000000E+00  0.60129378787E+03  0.60129378787E+03  0.00000000000E+00 0. -1.
         21   -1    0    0  504  502 -0.00000000000E+00 -0.00000000000E+00 -0.67896490695E+02  0.67896490695E+02  0.00000000000E+00 0. -1.
         21    1    1    2  503  501 -0.42268691688E+02  0.96823847904E+02  0.55191157548E+03  0.56193227970E+03  0.00000000000E+00 0. -1.
         21    1    1    2  504  503  0.42268691688E+02 -0.96823847904E+02 -0.18514278302E+02  0.10725799887E+03  0.00000000000E+00 0. -1.
<mgrwt>
<rscale>  2 0.10564800E+03</rscale>
<asrwt>0</asrwt>
<pdfrwt beam="1">  1       21 0.92506733E-01 0.10564800E+03</pdfrwt>
<pdfrwt beam="2">  1       21 0.10445614E-01 0.10564800E+03</pdfrwt>
<totfact> 0.77208230E+04</totfact>
</mgrwt>
</event>
<event>
 4    1  0.6024238E+003  0.1957939E+03  0.7546771E-02  0.1153337E+00
         21   -1    0    0  503  501  0.00000000000E+00  0.00000000000E+00  0.26561267704E+03  0.26561267704E+03  0.00000000000E+00 0. -1.
         21   -1    0    0  504  502 -0.00000000000E+00 -0.00000000000E+00 -0.16619730192E+03  0.16619730192E+03  0.00000000000E+00 0. -1.
         21    1    1    2  503  502 -0.13165497392E+03  0.14492136846E+03 -0.28612246582E+02  0.19787343391E+03  0.00000000000E+00 0. -1.
         21    1    1    2  504  501  0.13165497392E+03 -0.14492136846E+03  0.12802762170E+03  0.23393654505E+03  0.00000000000E+00 0. -1.
<mgrwt>
<rscale>  2 0.19579386E+03</rscale>
<asrwt>0</asrwt>
<pdfrwt beam="1">  1       21 0.40863489E-01 0.19579386E+03</pdfrwt>
<pdfrwt beam="2">  1       21 0.25568816E-01 0.19579386E+03</pdfrwt>
<totfact> 0.83591608E+04</totfact>
</mgrwt>
</event>
<event>
 4    1  0.6024238E+003  0.1060408E+03  0.7546771E-02  0.1268082E+00
         21   -1    0    0  502  501  0.00000000000E+00  0.00000000000E+00  0.11115718061E+03  0.11115718061E+03  0.00000000000E+00 0.  1.
         21   -1    0    0  503  502 -0.00000000000E+00 -0.00000000000E+00 -0.11446819847E+03  0.11446819847E+03  0.00000000000E+00 0.  1.
         21    1    1    2  503  504  0.10375677196E+03 -0.21890130250E+02 -0.40121537100E+02  0.11337717261E+03  0.00000000000E+00 0.  1.
         21    1    1    2  504  501 -0.10375677196E+03  0.21890130250E+02  0.36810519243E+02  0.11224820647E+03  0.00000000000E+00 0.  1.
<mgrwt>
<rscale>  2 0.10604077E+03</rscale>
<asrwt>0</asrwt>
<pdfrwt beam="1">  1       21 0.17101105E-01 0.10604077E+03</pdfrwt>
<pdfrwt beam="2">  1       21 0.17610492E-01 0.10604077E+03</pdfrwt>
<totfact> 0.90228102E+05</totfact>
</mgrwt>
</event>
<event>
 4    1  0.6024238E+003  0.1063412E+03  0.7546771E-02  0.1267499E+00
         21   -1    0    0  503  501  0.00000000000E+00  0.00000000000E+00  0.10903633861E+03  0.10903633861E+03  0.00000000000E+00 0. -1.
         21   -1    0    0  504  502 -0.00000000000E+00 -0.00000000000E+00 -0.15029604573E+03  0.15029604573E+03  0.00000000000E+00 0. -1.
         21    1    1    2  503  502  0.37958100014E+02 -0.99335943663E+02 -0.92818446352E+02  0.14115137634E+03  0.00000000000E+00 0. -1.
         21    1    1    2  504  501 -0.37958100014E+02  0.99335943663E+02  0.51558739231E+02  0.11818100800E+03  0.00000000000E+00 0. -1.
<mgrwt>
<rscale>  2 0.10634118E+03</rscale>
<asrwt>0</asrwt>
<pdfrwt beam="1">  1       21 0.16774821E-01 0.10634118E+03</pdfrwt>
<pdfrwt beam="2">  1       21 0.23122468E-01 0.10634118E+03</pdfrwt>
<totfact> 0.56597832E+05</totfact>
</mgrwt>
</event>
<event>
 4    1  0.6024238E+003  0.1078853E+03  0.7546771E-02  0.1264537E+00
         21   -1    0    0  503  501  0.00000000000E+00  0.00000000000E+00  0.13702073968E+04  0.13702073968E+04  0.00000000000E+00 0.  1.
         21   -1    0    0  501  502 -0.00000000000E+00 -0.00000000000E+00 -0.31463562014E+02  0.31463562014E+02  0.00000000000E+00 0. -1.
         21    1    1    2  503  504  0.66070077892E+02 -0.85287640173E+02  0.12681745439E+04  0.12727552438E+04  0.00000000000E+00 0.  1.
         21    1    1    2  504  502 -0.66070077892E+02  0.85287640173E+02  0.70569290807E+02  0.12891571496E+03  0.00000000000E+00 0. -1.
<mgrwt>
<rscale>  2 0.10788529E+03</rscale>
<asrwt>0</asrwt>
<pdfrwt beam="1">  1       21 0.21080109E+00 0.10788529E+03</pdfrwt>
<pdfrwt beam="2">  1       21 0.48405491E-02 0.10788529E+03</pdfrwt>
<totfact> 0.35050365E+04</totfact>
</mgrwt>
</event>
<event>
 4    1  0.6024238E+003  0.1048116E+03  0.7546771E-02  0.1270491E+00
         21   -1    0    0  503  501  0.00000000000E+00  0.00000000000E+00  0.66778140272E+03  0.66778140272E+03  0.00000000000E+00 0. -1.
         21   -1    0    0  504  502 -0.00000000000E+00 -0.00000000000E+00 -0.16455492227E+02  0.16455492227E+02  0.00000000000E+00 0. -1.
         21    1    1    2  503  502  0.86995986270E+02  0.58456480405E+02  0.33151022694E+03  0.34768447232E+03  0.00000000000E+00 0. -1.
         21    1    1    2  504  501 -0.86995986270E+02 -0.58456480405E+02  0.31981568356E+03  0.33655242263E+03  0.00000000000E+00 0. -1.
<mgrwt>
<rscale>  2 0.10481155E+03</rscale>
<asrwt>0</asrwt>
<pdfrwt beam="1">  1       21 0.10273558E+00 0.10481155E+03</pdfrwt>
<pdfrwt beam="2">  1       21 0.25316147E-02 0.10481155E+03</pdfrwt>
<totfact> 0.65221044E+05</totfact>
</mgrwt>
</event>
<event>
 4    1  0.6024238E+003  0.1462006E+03  0.7546771E-02  0.1205221E+00
         21   -1    0    0  503  501  0.00000000000E+00  0.00000000000E+00  0.57681886828E+03  0.57681886828E+03  0.00000000000E+00 0.  1.
         21   -1    0    0  504  502 -0.00000000000E+00 -0.00000000000E+00 -0.38401432206E+02  0.38401432206E+02  0.00000000000E+00 0. -1.
         21    1    1    2  503  502  0.11472666280E+03  0.90622366739E+02  0.21163130914E+03  0.25722058922E+03  0.00000000000E+00 0. -1.
         21    1    1    2  504  501 -0.11472666280E+03 -0.90622366739E+02  0.32678612693E+03  0.35799971126E+03  0.00000000000E+00 0.  1.
<mgrwt>
<rscale>  2 0.14620062E+03</rscale>
<asrwt>0</asrwt>
<pdfrwt beam="1">  1       21 0.88741358E-01 0.14620062E+03</pdfrwt>
<pdfrwt beam="2">  1       21 0.59079131E-02 0.14620062E+03</pdfrwt>
<totfact> 0.22279664E+05</totfact>
</mgrwt>
</event>
<event>
 4    1  0.6024238E+003  0.1213336E+03  0.7546771E-02  0.1240913E+00
         21   -1    0    0  503  501  0.00000000000E+00  0.00000000000E+00  0.11058386884E+04  0.11058386884E+04  0.00000000000E+00 0. -1.
         21   -1    0    0  504  502 -0.00000000000E+00 -0.00000000000E+00 -0.36391213632E+02  0.36391213632E+02  0.00000000000E+00 0. -1.
         21    1    1    2  503  502  0.95684762367E+02 -0.74607419288E+02  0.98953160467E+03  0.99694264499E+03  0.00000000000E+00 0. -1.
         21    1    1    2  504  501 -0.95684762367E+02  0.74607419288E+02  0.79915870078E+02  0.14528725702E+03  0.00000000000E+00 0. -1.
<mgrwt>
<rscale>  2 0.12133359E+03</rscale>
<asrwt>0</asrwt>
<pdfrwt beam="1">  1       21 0.17012900E+00 0.12133359E+03</pdfrwt>
<pdfrwt beam="2">  1       21 0.55986491E-02 0.12133359E+03</pdfrwt>
<totfact> 0.49537753E+04</totfact>
</mgrwt>
</event>
<event>
 4    1  0.6024238E+003  0.2027496E+03  0.7546771E-02  0.1147440E+00
         21   -1    0    0  504  501  0.00000000000E+00  0.00000000000E+00  0.18172354702E+04  0.18172354702E+04  0.00000000000E+00 0. -1.
         21   -1    0    0  501  502 -0.00000000000E+00 -0.00000000000E+00 -0.16073327757E+03  0.16073327757E+03  0.00000000000E+00 0.  1.
         21    1    1    2  503  502 -0.62179909778E+01  0.20265421472E+03 -0.88503135503E+02  0.22122431862E+03  0.00000000000E+00 0.  1.
         21    1    1    2  504  503  0.62179909778E+01 -0.20265421472E+03  0.17450053281E+04  0.17567444291E+04  0.00000000000E+00 0. -1.
<mgrwt>
<rscale>  2 0.20274958E+03</rscale>
<asrwt>0</asrwt>
<pdfrwt beam="1">  1       21 0.27957467E+00 0.20274958E+03</pdfrwt>
<pdfrwt beam="2">  1       21 0.24728198E-01 0.20274958E+03</pdfrwt>
<totfact> 0.68297548E+02</totfact>
</mgrwt>
</event>
<event>
 4    1  0.6024238E+003  0.1009903E+03  0.7546771E-02  0.1278227E+00
         21   -1    0    0  503  501  0.00000000000E+00  0.00000000000E+00  0.79613122433E+01  0.79613122433E+01  0.00000000000E+00 0. -1.
         21   -1    0    0  504  502 -0.00000000000E+00 -0.00000000000E+00 -0.15202866726E+04  0.15202866726E+04  0.00000000000E+00 0. -1.
         21    1    1    2  503  502  0.59206505204E+02 -0.81814580673E+02 -0.45305807966E+03  0.46417740080E+03  0.00000000000E+00 0. -1.
         21    1    1    2  504  501 -0.59206505204E+02  0.81814580673E+02 -0.10592672807E+04  0.10640705840E+04  0.00000000000E+00 0. -1.
<mgrwt>
<rscale>  2 0.10099028E+03</rscale>
<asrwt>0</asrwt>
<pdfrwt beam="1">  1       21 0.12248177E-02 0.10099028E+03</pdfrwt>
<pdfrwt beam="2">  1       21 0.23389018E+00 0.10099028E+03</pdfrwt>
<totfact> 0.23872076E+05</totfact>
</mgrwt>
</event>
<event>
 4    1  0.6024238E+003  0.1178090E+03  0.7546771E-02  0.1246756E+00
         21   -1    0    0  504  501  0.00000000000E+00  0.00000000000E+00  0.38679793873E+02  0.38679793873E+02  0.00000000000E+00 0. -1.
         21   -1    0    0  503  502 -0.00000000000E+00 -0.00000000000E+00 -0.37504381013E+03  0.37504381013E+03  0.00000000000E+00 0.  1.
         21    1    1    2  503  501  0.74046820808E+02 -0.91629799349E+02 -0.12515299901E+03  0.17187851803E+03  0.00000000000E+00 0.  1.
         21    1    1    2  504  502 -0.74046820808E+02  0.91629799349E+02 -0.21121101725E+03  0.24184508597E+03  0.00000000000E+00 0. -1.
<mgrwt>
<rscale>  2 0.11780896E+03</rscale>
<asrwt>0</asrwt>
<pdfrwt beam="1">  1       21 0.59507376E-02 0.11780896E+03</pdfrwt>
<pdfrwt beam="2">  1       21 0.57699047E-01 0.11780896E+03</pdfrwt>
<totfact> 0.56830697E+05</totfact>
</mgrwt>
</event>
<event>
 4    1  0.6024238E+003  0.1774970E+03  0.7546771E-02  0.1170248E+00
         21   -1    0    0  504  501  0.00000000000E+00  0.00000000000E+00  0.17166767649E+04  0.17166767649E+04  0.00000000000E+00 0. -1.
         21   -1    0    0  503  502 -0.00000000000E+00 -0.00000000000E+00 -0.10081135922E+03  0.10081135922E+03  0.00000000000E+00 0. -1.
         21    1    1    2  503  501 -0.35201126611E+02  0.17397147750E+03 -0.13942145566E+02  0.17804375227E+03  0.00000000000E+00 0. -1.
         21    1    1    2  504  502  0.35201126611E+02 -0.17397147750E+03  0.16298075512E+04  0.16394443718E+04  0.00000000000E+00 0. -1.
<mgrwt>
<rscale>  2 0.17749703E+03</rscale>
<asrwt>0</asrwt>
<pdfrwt beam="1">  1       21 0.26410410E+00 0.17749703E+03</pdfrwt>
<pdfrwt beam="2">  1       21 0.15509441E-01 0.17749703E+03</pdfrwt>
<totfact> 0.20681626E+03</totfact>
</mgrwt>
</event>
<event>
 4    1  0.6024238E+003  0.1164769E+03  0.7546771E-02  0.1249025E+00
         21   -1    0    0  503  501  0.00000000000E+00  0.00000000000E+00  0.54097511804E+02  0.54097511804E+02  0.00000000000E+00 0.  1.
         21   -1    0    0  501  502 -0.00000000000E+00 -0.00000000000E+00 -0.37034949487E+03  0.37034949487E+03  0.00000000000E+00 0.  1.
         21    1    1    2  503  504  0.86204000867E+02  0.78330945431E+02 -0.37542468057E+02  0.12237770910E+03  0.00000000000E+00 0.  1.
         21    1    1    2  504  502 -0.86204000867E+02 -0.78330945431E+02 -0.27870951501E+03  0.30206929757E+03  0.00000000000E+00 0.  1.
<mgrwt>
<rscale>  2 0.11647689E+03</rscale>
<asrwt>0</asrwt>
<pdfrwt beam="1">  1       21 0.83226939E-02 0.11647689E+03</pdfrwt>
<pdfrwt beam="2">  1       21 0.56976847E-01 0.11647689E+03</pdfrwt>
<totfact> 0.32918064E+05</totfact>
</mgrwt>
</event>
<event>
 4    1  0.6024238E+003  0.1197961E+03  0.7546771E-02  0.1243434E+00
         21   -1    0    0  504  501  0.00000000000E+00  0.00000000000E+00  0.33990569245E+03  0.33990569245E+03  0.00000000000E+00 0. -1.
         21   -1    0    0  503  502 -0.00000000000E+00 -0.00000000000E+00 -0.10929861279E+03  0.10929861279E+03  0.00000000000E+00 0.  1.
         21    1    1    2  503  501  0.42950916727E+01 -0.11971911492E+03  0.29125618778E+03  0.31493059744E+03  0.00000000000E+00 0. -1.
         21    1    1    2  504  502 -0.42950916727E+01  0.11971911492E+03 -0.60649108118E+02  0.13427370779E+03  0.00000000000E+00 0.  1.
<mgrwt>
<rscale>  2 0.11979614E+03</rscale>
<asrwt>0</asrwt>
<pdfrwt beam="1">  1       21 0.52293183E-01 0.11979614E+03</pdfrwt>
<pdfrwt beam="2">  1       21 0.16815171E-01 0.11979614E+03</pdfrwt>
<totfact> 0.11347316E+05</totfact>
</mgrwt>
</event>
<event>
 4    1  0.6024238E+003  0.1346922E+03  0.7546771E-02  0.1220655E+00
         21   -1    0    0  503  501  0.00000000000E+00  0.00000000000E+00  0.48553996137E+03  0.48553996137E+03  0.00000000000E+00 0. -1.
         21   -1    0    0  504  502 -0.00000000000E+00 -0.00000000000E+00 -0.59612593625E+02  0.59612593625E+02  0.00000000000E+00 0. -1.
         21    1    1    2  503  502  0.91568729919E+02 -0.98778267779E+02  0.37948315969E+03  0.40267784515E+03  0.00000000000E+00 0. -1.
         21    1    1    2  504  501 -0.91568729919E+02  0.98778267779E+02  0.46444208057E+02  0.14247470985E+03  0.00000000000E+00 0. -1.
<mgrwt>
<rscale>  2 0.13469216E+03</rscale>
<asrwt>0</asrwt>
<pdfrwt beam="1">  1       21 0.74698453E-01 0.13469216E+03</pdfrwt>
<pdfrwt beam="2">  1       21 0.91711686E-02 0.13469216E+03</pdfrwt>
<totfact> 0.15458066E+05</totfact>
</mgrwt>
</event>
<event>
 4    1  0.6024238E+003  0.1240549E+03  0.7546771E-02  0.1236554E+00
         21   -1    0    0  503  501  0.00000000000E+00  0.00000000000E+00  0.37033354900E+02  0.37033354900E+02  0.00000000000E+00 0.  1.
         21   -1    0    0  501  502 -0.00000000000E+00 -0.00000000000E+00 -0.13949674977E+04  0.13949674977E+04  0.00000000000E+00 0. -1.
         21    1    1    2  503  504 -0.11921719138E+03 -0.34305848203E+02 -0.79020389933E+02  0.14708450621E+03  0.00000000000E+00 0.  1.
         21    1    1    2  504  502  0.11921719138E+03  0.34305848203E+02 -0.12789137529E+04  0.12849163464E+04  0.00000000000E+00 0. -1.
<mgrwt>
<rscale>  2 0.12405495E+03</rscale>
<asrwt>0</asrwt>
<pdfrwt beam="1">  1       21 0.56974400E-02 0.12405495E+03</pdfrwt>
<pdfrwt beam="2">  1       21 0.21461036E+00 0.12405495E+03</pdfrwt>
<totfact> 0.24843532E+04</totfact>
</mgrwt>
</event>
<event>
 4    1  0.6024238E+003  0.1851125E+03  0.7546771E-02  0.1162945E+00
         21   -1    0    0  503  501  0.00000000000E+00  0.00000000000E+00  0.57606426872E+02  0.57606426872E+02  0.00000000000E+00 0. -1.
         21   -1    0    0  504  502 -0.00000000000E+00 -0.00000000000E+00 -0.64039689264E+03  0.64039689264E+03  0.00000000000E+00 0. -1.
         21    1    1    2  503  502  0.72632798050E+02  0.17026777248E+03 -0.38447973670E+03  0.42672157859E+03  0.00000000000E+00 0. -1.
         21    1    1    2  504  501 -0.72632798050E+02 -0.17026777248E+03 -0.19831072906E+03  0.27128174092E+03  0.00000000000E+00 0. -1.
<mgrwt>
<rscale>  2 0.18511250E+03</rscale>
<asrwt>0</asrwt>
<pdfrwt beam="1">  1       21 0.88625269E-02 0.18511250E+03</pdfrwt>
<pdfrwt beam="2">  1       21 0.98522602E-01 0.18511250E+03</pdfrwt>
<totfact> 0.85613874E+04</totfact>
</mgrwt>
</event>
<event>
 4    1  0.6024238E+003  0.1524863E+03  0.7546771E-02  0.1197451E+00
         21   -1    0    0  504  501  0.00000000000E+00  0.00000000000E+00  0.68623566211E+03  0.68623566211E+03  0.00000000000E+00 0.  1.
         21   -1    0    0  503  502 -0.00000000000E+00 -0.00000000000E+00 -0.10791200273E+03  0.10791200273E+03  0.00000000000E+00 0.  1.
         21    1    1    2  503  501 -0.70597459135E+02  0.13515937050E+03 -0.39716996833E+02  0.15757378115E+03  0.00000000000E+00 0.  1.
         21    1    1    2  504  502  0.70597459135E+02 -0.13515937050E+03  0.61804065621E+03  0.63657388369E+03  0.00000000000E+00 0.  1.
<mgrwt>
<rscale>  2 0.15248625E+03</rscale>
<asrwt>0</asrwt>
<pdfrwt beam="1">  1       21 0.10557471E+00 0.15248625E+03</pdfrwt>
<pdfrwt beam="2">  1       21 0.16601847E-01 0.15248625E+03</pdfrwt>
<totfact> 0.24099283E+04</totfact>
</mgrwt>
</event>
<event>
 4    1  0.6024238E+003  0.1018295E+03  0.7546771E-02  0.1276495E+00
         21   -1    0    0  503  501  0.00000000000E+00  0.00000000000E+00  0.52827417953E+03  0.52827417953E+03  0.00000000000E+00 0.  1.
         21   -1    0    0  504  502 -0.00000000000E+00 -0.00000000000E+00 -0.24881793365E+02  0.24881793365E+02  0.00000000000E+00 0.  1.
         21    1    1    2  503  502  0.99956041035E+01 -0.10133767894E+03  0.12461186182E+03  0.16092654654E+03  0.00000000000E+00 0.  1.
         21    1    1    2  504  501 -0.99956041035E+01  0.10133767894E+03  0.37878052434E+03  0.39222942635E+03  0.00000000000E+00 0.  1.
<mgrwt>
<rscale>  2 0.10182945E+03</rscale>
<asrwt>0</asrwt>
<pdfrwt beam="1">  1       21 0.81272942E-01 0.10182945E+03</pdfrwt>
<pdfrwt beam="2">  1       21 0.38279686E-02 0.10182945E+03</pdfrwt>
<totfact> 0.56630654E+05</totfact>
</mgrwt>
</event>
<event>
 4    1  0.6024238E+003  0.1255756E+03  0.7546771E-02  0.1234172E+00
         21   -1    0    0  504  501  0.00000000000E+00  0.00000000000E+00  0.60696346763E+03  0.60696346763E+03  0.00000000000E+00 0. -1.
         21   -1    0    0  503  502 -0.00000000000E+00 -0.00000000000E+00 -0.26999721077E+02  0.26999721077E+02  0.00000000000E+00 0. -1.
         21    1    1    2  503  501 -0.11244943465E+03 -0.55895963897E+02  0.22839592008E+03  0.26064138283E+03  0.00000000000E+00 0. -1.
         21    1    1    2  504  502  0.11244943465E+03  0.55895963897E+02  0.35156782648E+03  0.37332180588E+03  0.00000000000E+00 0. -1.
<mgrwt>
<rscale>  2 0.12557561E+03</rscale>
<asrwt>0</asrwt>
<pdfrwt beam="1">  1       21 0.93378985E-01 0.12557561E+03</pdfrwt>
<pdfrwt beam="2">  1       21 0.41538037E-02 0.12557561E+03</pdfrwt>
<totfact> 0.36009414E+05</totfact>
</mgrwt>
</event>
<event>
 4    1  0.6024238E+003  0.1145355E+03  0.7546771E-02  0.1252394E+00
         21   -1    0    0  502  501  0.00000000000E+00  0.00000000000E+00  0.47212227961E+02  0.47212227961E+02  0.00000000000E+00 0.  1.
         21   -1    0    0  503  502 -0.00000000000E+00 -0.00000000000E+00 -0.41743341600E+03  0.41743341600E+03  0.00000000000E+00 0.  1.
         21    1    1    2  503  504 -0.18409443571E+02  0.11304632034E+03 -0.31944894144E+03  0.33936117094E+03  0.00000000000E+00 0.  1.
         21    1    1    2  504  501  0.18409443571E+02 -0.11304632034E+03 -0.50772246605E+02  0.12528447302E+03  0.00000000000E+00 0.  1.
<mgrwt>
<rscale>  2 0.11453549E+03</rscale>
<asrwt>0</asrwt>
<pdfrwt beam="1">  1       21 0.72634197E-02 0.11453549E+03</pdfrwt>
<pdfrwt beam="2">  1       21 0.64220526E-01 0.11453549E+03</pdfrwt>
<totfact> 0.32275766E+05</totfact>
</mgrwt>
</event>
<event>
 4    1  0.6024238E+003  0.1132279E+03  0.7546771E-02  0.1254707E+00
         21   -1    0    0  504  501  0.00000000000E+00  0.00000000000E+00  0.32502311616E+03  0.32502311616E+03  0.00000000000E+00 0. -1.
         21   -1    0    0  501  502 -0.00000000000E+00 -0.00000000000E+00 -0.14280856424E+03  0.14280856424E+03  0.00000000000E+00 0. -1.
         21    1    1    2  503  502 -0.11030068546E+03  0.25579432031E+02 -0.10789872291E+03  0.15640550810E+03  0.00000000000E+00 0. -1.
         21    1    1    2  504  503  0.11030068546E+03 -0.25579432031E+02  0.29011327484E+03  0.31142617230E+03  0.00000000000E+00 0. -1.
<mgrwt>
<rscale>  2 0.11322786E+03</rscale>
<asrwt>0</asrwt>
<pdfrwt beam="1">  1       21 0.50003556E-01 0.11322786E+03</pdfrwt>
<pdfrwt beam="2">  1       21 0.21970548E-01 0.11322786E+03</pdfrwt>
<totfact> 0.76382588E+04</totfact>
</mgrwt>
</event>
<event>
 4    1  0.6024238E+003  0.1059639E+03  0.7546771E-02  0.1268232E+00
         21   -1    0    0  504  501  0.00000000000E+00  0.00000000000E+00  0.17400163556E+04  0.17400163556E+04  0.00000000000E+00 0. -1.
         21   -1    0    0  503  502 -0.00000000000E+00 -0.00000000000E+00 -0.14454091082E+02  0.14454091082E+02  0.00000000000E+00 0. -1.
         21    1    1    2  503  501  0.89277658064E+02 -0.57077579255E+02  0.21010927118E+03  0.23531735193E+03  0.00000000000E+00 0. -1.
         21    1    1    2  504  502 -0.89277658064E+02  0.57077579255E+02  0.15154529933E+04  0.15191530947E+04  0.00000000000E+00 0. -1.
<mgrwt>
<rscale>  2 0.10596391E+03</rscale>
<asrwt>0</asrwt>
<pdfrwt beam="1">  1       21 0.26769466E+00 0.10596391E+03</pdfrwt>
<pdfrwt beam="2">  1       21 0.22237077E-02 0.10596391E+03</pdfrwt>
<totfact> 0.59063326E+04</totfact>
</mgrwt>
</event>
<event>
 4    1  0.6024238E+003  0.1252064E+03  0.7546771E-02  0.1234747E+00
         21   -1    0    0  504  501  0.00000000000E+00  0.00000000000E+00  0.23226508321E+02  0.23226508321E+02  0.00000000000E+00 0. -1.
         21   -1    0    0  501  502 -0.00000000000E+00 -0.00000000000E+00 -0.68680252999E+03  0.68680252999E+03  0.00000000000E+00 0. -1.
         21    1    1    2  503  502 -0.11913053533E+03  0.38529932360E+02 -0.37843332131E+03  0.39860810179E+03  0.00000000000E+00 0. -1.
         21    1    1    2  504  503  0.11913053533E+03 -0.38529932360E+02 -0.28514270036E+03  0.31142093652E+03  0.00000000000E+00 0. -1.
<mgrwt>
<rscale>  2 0.12520639E+03</rscale>
<asrwt>0</asrwt>
<pdfrwt beam="1">  1       21 0.35733089E-02 0.12520639E+03</pdfrwt>
<pdfrwt beam="2">  1       21 0.10566193E+00 0.12520639E+03</pdfrwt>
<totfact> 0.34624924E+05</totfact>
</mgrwt>
</event>
<event>
 4    1  0.6024238E+003  0.1002749E+03  0.7546771E-02  0.1279719E+00
         21   -1    0    0  504  501  0.00000000000E+00  0.00000000000E+00  0.37634375470E+03  0.37634375470E+03  0.00000000000E+00 0. -1.
         21   -1    0    0  501  502 -0.00000000000E+00 -0.00000000000E+00 -0.57120172655E+02  0.57120172655E+02  0.00000000000E+00 0. -1.
         21    1    1    2  503  502  0.99958877674E+02  0.79550215525E+01  0.14934377517E+01  0.10028604065E+03  0.00000000000E+00 0. -1.
         21    1    1    2  504  503 -0.99958877674E+02 -0.79550215525E+01  0.31773014429E+03  0.33317788670E+03  0.00000000000E+00 0. -1.
<mgrwt>
<rscale>  2 0.10027492E+03</rscale>
<asrwt>0</asrwt>
<pdfrwt beam="1">  1       21 0.57899038E-01 0.10027492E+03</pdfrwt>
<pdfrwt beam="2">  1       21 0.87877191E-02 0.10027492E+03</pdfrwt>
<totfact> 0.29071145E+05</totfact>
</mgrwt>
</event>
<event>
 4    1  0.6024238E+003  0.1000173E+03  0.7546771E-02  0.1280260E+00
         21   -1    0    0  504  501  0.00000000000E+00  0.00000000000E+00  0.85697264614E+02  0.85697264614E+02  0.00000000000E+00 0. -1.
         21   -1    0    0  503  502 -0.00000000000E+00 -0.00000000000E+00 -0.25959928154E+03  0.25959928154E+03  0.00000000000E+00 0.  1.
         21    1    1    2  503  501 -0.73964732739E+02  0.67325148255E+02  0.41128499247E+02  0.10814347288E+03  0.00000000000E+00 0. -1.
         21    1    1    2  504  502  0.73964732739E+02 -0.67325148255E+02 -0.21503051617E+03  0.23715307327E+03  0.00000000000E+00 0.  1.
<mgrwt>
<rscale>  2 0.10001728E+03</rscale>
<asrwt>0</asrwt>
<pdfrwt beam="1">  1       21 0.13184195E-01 0.10001728E+03</pdfrwt>
<pdfrwt beam="2">  1       21 0.39938350E-01 0.10001728E+03</pdfrwt>
<totfact> 0.30505601E+05</totfact>
</mgrwt>
</event>
<event>
 4    1  0.6024238E+003  0.1244245E+03  0.7546771E-02  0.1235971E+00
         21   -1    0    0  503  501  0.00000000000E+00  0.00000000000E+00  0.15165375041E+04  0.15165375041E+04  0.00000000000E+00 0.  1.
         21   -1    0    0  504  502 -0.00000000000E+00 -0.00000000000E+00 -0.44223587317E+02  0.44223587317E+02  0.00000000000E+00 0.  1.
         21    1    1    2  503  502 -0.11874531951E+03 -0.37161791965E+02  0.51747875457E+02  0.13475641840E+03  0.00000000000E+00 0.  1.
         21    1    1    2  504  501  0.11874531951E+03  0.37161791965E+02  0.14205660414E+04  0.14260046730E+04  0.00000000000E+00 0.  1.
<mgrwt>
<rscale>  2 0.12442447E+03</rscale>
<asrwt>0</asrwt>
<pdfrwt beam="1">  1       21 0.23331342E+00 0.12442447E+03</pdfrwt>
<pdfrwt beam="2">  1       21 0.68036300E-02 0.12442447E+03</pdfrwt>
<totfact> 0.14223647E+04</totfact>
</mgrwt>
</event>
<event>
 4    1  0.6024238E+003  0.1211681E+03  0.7546771E-02  0.1241182E+00
         21   -1    0    0  503  501  0.00000000000E+00  0.00000000000E+00  0.23330720771E+03  0.23330720771E+03  0.00000000000E+00 0.  1.
         21   -1    0    0  501  502 -0.00000000000E+00 -0.00000000000E+00 -0.22270608441E+03  0.22270608441E+03  0.00000000000E+00 0. -1.
         21    1    1    2  503  504  0.10359271081E+03  0.62851106934E+02  0.19842585873E+03  0.23249630704E+03  0.00000000000E+00 0.  1.
         21    1    1    2  504  502 -0.10359271081E+03 -0.62851106934E+02 -0.18782473543E+03  0.22351698507E+03  0.00000000000E+00 0. -1.
<mgrwt>
<rscale>  2 0.12116811E+03</rscale>
<asrwt>0</asrwt>
<pdfrwt beam="1">  1       21 0.35893417E-01 0.12116811E+03</pdfrwt>
<pdfrwt beam="2">  1       21 0.34262475E-01 0.12116811E+03</pdfrwt>
<totfact> 0.63522001E+04</totfact>
</mgrwt>
</event>
<event>
 4    1  0.6024238E+003  0.1136387E+03  0.7546771E-02  0.1253976E+00
         21   -1    0    0  503  501  0.00000000000E+00  0.00000000000E+00  0.63046345563E+02  0.63046345563E+02  0.00000000000E+00 0.  1.
         21   -1    0    0  504  502 -0.00000000000E+00 -0.00000000000E+00 -0.12889713606E+04  0.12889713606E+04  0.00000000000E+00 0.  1.
         21    1    1    2  503  502  0.10964288831E+03  0.29869478816E+02  0.70119753197E+01  0.11385480456E+03  0.00000000000E+00 0.  1.
         21    1    1    2  504  501 -0.10964288831E+03 -0.29869478816E+02 -0.12329369904E+04  0.12381629016E+04  0.00000000000E+00 0.  1.
<mgrwt>
<rscale>  2 0.11363868E+03</rscale>
<asrwt>0</asrwt>
<pdfrwt beam="1">  1       21 0.96994378E-02 0.11363868E+03</pdfrwt>
<pdfrwt beam="2">  1       21 0.19830329E+00 0.11363868E+03</pdfrwt>
<totfact> 0.12728722E+04</totfact>
</mgrwt>
</event>
<event>
 4    1  0.6024238E+003  0.1096938E+03  0.7546771E-02  0.1261138E+00
         21   -1    0    0  502  501  0.00000000000E+00  0.00000000000E+00  0.12757182518E+03  0.12757182518E+03  0.00000000000E+00 0.  1.
         21   -1    0    0  503  502 -0.00000000000E+00 -0.00000000000E+00 -0.28624733784E+03  0.28624733784E+03  0.00000000000E+00 0.  1.
         21    1    1    2  503  504 -0.10253656149E+03 -0.38974179497E+02 -0.24876251965E+03  0.27187409640E+03  0.00000000000E+00 0.  1.
         21    1    1    2  504  501  0.10253656149E+03  0.38974179497E+02  0.90087006987E+02  0.14194506662E+03  0.00000000000E+00 0.  1.
<mgrwt>
<rscale>  2 0.10969382E+03</rscale>
<asrwt>0</asrwt>
<pdfrwt beam="1">  1       21 0.19626435E-01 0.10969382E+03</pdfrwt>
<pdfrwt beam="2">  1       21 0.44038051E-01 0.10969382E+03</pdfrwt>
<totfact> 0.12207015E+05</totfact>
</mgrwt>
</event>
<event>
 4    1  0.6024238E+003  0.1310564E+03  0.7546771E-02  0.1225897E+00
         21   -1    0    0  504  501  0.00000000000E+00  0.00000000000E+00  0.35033194994E+03  0.35033194994E+03  0.00000000000E+00 0.  1.
         21   -1    0    0  503  502 -0.00000000000E+00 -0.00000000000E+00 -0.96037422725E+02  0.96037422725E+02  0.00000000000E+00 0.  1.
         21    1    1    2  503  501 -0.26297652177E+02  0.12839085615E+03 -0.29002205163E+02  0.13422707013E+03  0.00000000000E+00 0.  1.
         21    1    1    2  504  502  0.26297652177E+02 -0.12839085615E+03  0.28329673237E+03  0.31214230253E+03  0.00000000000E+00 0.  1.
<mgrwt>
<rscale>  2 0.13105639E+03</rscale>
<asrwt>0</asrwt>
<pdfrwt beam="1">  1       21 0.53897222E-01 0.13105639E+03</pdfrwt>
<pdfrwt beam="2">  1       21 0.14774988E-01 0.13105639E+03</pdfrwt>
<totfact> 0.13408207E+05</totfact>
</mgrwt>
</event>
<event>
 4    1  0.6024238E+003  0.1093420E+03  0.7546771E-02  0.1261793E+00
         21   -1    0    0  504  501  0.00000000000E+00  0.00000000000E+00  0.25269998304E+03  0.25269998304E+03  0.00000000000E+00 0. -1.
         21   -1    0    0  501  502 -0.00000000000E+00 -0.00000000000E+00 -0.12987050943E+03  0.12987050943E+03  0.00000000000E+00 0. -1.
         21    1    1    2  503  502 -0.56732159757E+02 -0.93472656401E+02 -0.91098596306E+02  0.14231876087E+03  0.00000000000E+00 0. -1.
         21    1    1    2  504  503  0.56732159757E+02  0.93472656401E+02  0.21392806992E+03  0.24025173161E+03  0.00000000000E+00 0. -1.
<mgrwt>
<rscale>  2 0.10934201E+03</rscale>
<asrwt>0</asrwt>
<pdfrwt beam="1">  1       21 0.38876920E-01 0.10934201E+03</pdfrwt>
<pdfrwt beam="2">  1       21 0.19980078E-01 0.10934201E+03</pdfrwt>
<totfact> 0.15158052E+05</totfact>
</mgrwt>
</event>
<event>
 4    1  0.6024238E+003  0.1528663E+03  0.7546771E-02  0.1196995E+00
         21   -1    0    0  503  501  0.00000000000E+00  0.00000000000E+00  0.30564227468E+03  0.30564227468E+03  0.00000000000E+00 0. -1.
         21   -1    0    0  504  502 -0.00000000000E+00 -0.00000000000E+00 -0.49982623774E+03  0.49982623774E+03  0.00000000000E+00 0.  1.
         21    1    1    2  503  502  0.15154538050E+03  0.20052392857E+02  0.27356258205E+03  0.31337611126E+03  0.00000000000E+00 0. -1.
         21    1    1    2  504  501 -0.15154538050E+03 -0.20052392857E+02 -0.46774654511E+03  0.49209240115E+03  0.00000000000E+00 0.  1.
<mgrwt>
<rscale>  2 0.15286628E+03</rscale>
<asrwt>0</asrwt>
<pdfrwt beam="1">  1       21 0.47021889E-01 0.15286628E+03</pdfrwt>
<pdfrwt beam="2">  1       21 0.76896344E-01 0.15286628E+03</pdfrwt>
<totfact> 0.67177646E+03</totfact>
</mgrwt>
</event>
<event>
 4    1  0.6024238E+003  0.1199112E+03  0.7546771E-02  0.1243244E+00
         21   -1    0    0  503  501  0.00000000000E+00  0.00000000000E+00  0.38249956058E+03  0.38249956058E+03  0.00000000000E+00 0. -1.
         21   -1    0    0  504  502 -0.00000000000E+00 -0.00000000000E+00 -0.13989226731E+03  0.13989226731E+03  0.00000000000E+00 0. -1.
         21    1    1    2  503  502  0.11978309360E+03  0.55415355968E+01  0.34466557944E+03  0.36492884207E+03  0.00000000000E+00 0. -1.
         21    1    1    2  504  501 -0.11978309360E+03 -0.55415355968E+01 -0.10205828617E+03  0.15746298582E+03  0.00000000000E+00 0. -1.
<mgrwt>
<rscale>  2 0.11991121E+03</rscale>
<asrwt>0</asrwt>
<pdfrwt beam="1">  1       21 0.58846086E-01 0.11991121E+03</pdfrwt>
<pdfrwt beam="2">  1       21 0.21521887E-01 0.11991121E+03</pdfrwt>
<totfact> 0.56331916E+04</totfact>
</mgrwt>
</event>
<event>
 4    1  0.6024238E+003  0.1008548E+03  0.7546771E-02  0.1278509E+00
         21   -1    0    0  502  501  0.00000000000E+00  0.00000000000E+00  0.16749063811E+03  0.16749063811E+03  0.00000000000E+00 0.  1.
         21   -1    0    0  504  502 -0.00000000000E+00 -0.00000000000E+00 -0.12147234445E+03  0.12147234445E+03  0.00000000000E+00 0.  1.
         21    1    1    2  503  501 -0.75339381885E+02  0.67049757055E+02  0.12517825071E+03  0.16075225297E+03  0.00000000000E+00 0.  1.
         21    1    1    2  504  503  0.75339381885E+02 -0.67049757055E+02 -0.79159957043E+02  0.12821072959E+03  0.00000000000E+00 0.  1.
<mgrwt>
<rscale>  2 0.10085481E+03</rscale>
<asrwt>0</asrwt>
<pdfrwt beam="1">  1       21 0.25767791E-01 0.10085481E+03</pdfrwt>
<pdfrwt beam="2">  1       21 0.18688053E-01 0.10085481E+03</pdfrwt>
<totfact> 0.37979066E+05</totfact>
</mgrwt>
</event>
<event>
 4    1  0.6024238E+003  0.1050040E+03  0.7546771E-02  0.1270112E+00
         21   -1    0    0  502  501  0.00000000000E+00  0.00000000000E+00  0.68074889607E+01  0.68074889607E+01  0.00000000000E+00 0.  1.
         21   -1    0    0  503  502 -0.00000000000E+00 -0.00000000000E+00 -0.25170790816E+04  0.25170790816E+04  0.00000000000E+00 0.  1.
         21    1    1    2  503  504  0.88370055512E+02 -0.56714760756E+02 -0.20086450436E+04  0.20113877652E+04  0.00000000000E+00 0.  1.
         21    1    1    2  504  501 -0.88370055512E+02  0.56714760756E+02 -0.50162654899E+03  0.51249880531E+03  0.00000000000E+00 0.  1.
<mgrwt>
<rscale>  2 0.10500396E+03</rscale>
<asrwt>0</asrwt>
<pdfrwt beam="1">  1       21 0.10473047E-02 0.10500396E+03</pdfrwt>
<pdfrwt beam="2">  1       21 0.38724343E+00 0.10500396E+03</pdfrwt>
<totfact> 0.41326081E+04</totfact>
</mgrwt>
</event>
<event>
 4    1  0.6024238E+003  0.1886322E+03  0.7546771E-02  0.1159701E+00
         21   -1    0    0  502  501  0.00000000000E+00  0.00000000000E+00  0.19772397601E+03  0.19772397601E+03  0.00000000000E+00 0.  1.
         21   -1    0    0  504  502 -0.00000000000E+00 -0.00000000000E+00 -0.11570909639E+04  0.11570909639E+04  0.00000000000E+00 0.  1.
         21    1    1    2  503  501 -0.14035570833E+03  0.12602527099E+03  0.14282168650E+03  0.23660120017E+03  0.00000000000E+00 0.  1.
         21    1    1    2  504  503  0.14035570833E+03 -0.12602527099E+03 -0.11021886743E+04  0.11182137397E+04  0.00000000000E+00 0.  1.
<mgrwt>
<rscale>  2 0.18863217E+03</rscale>
<asrwt>0</asrwt>
<pdfrwt beam="1">  1       21 0.30419073E-01 0.18863217E+03</pdfrwt>
<pdfrwt beam="2">  1       21 0.17801399E+00 0.18863217E+03</pdfrwt>
<totfact> 0.19550859E+03</totfact>
</mgrwt>
</event>
<event>
 4    1  0.6024238E+003  0.1093451E+03  0.7546771E-02  0.1261788E+00
         21   -1    0    0  502  501  0.00000000000E+00  0.00000000000E+00  0.83049733732E+02  0.83049733732E+02  0.00000000000E+00 0. -1.
         21   -1    0    0  504  502 -0.00000000000E+00 -0.00000000000E+00 -0.26612594656E+03  0.26612594656E+03  0.00000000000E+00 0. -1.
         21    1    1    2  503  501 -0.73874017461E+02 -0.80616235156E+02  0.26748232109E+02  0.11256915984E+03  0.00000000000E+00 0. -1.
         21    1    1    2  504  503  0.73874017461E+02  0.80616235156E+02 -0.20982444494E+03  0.23660652045E+03  0.00000000000E+00 0. -1.
<mgrwt>
<rscale>  2 0.10934509E+03</rscale>
<asrwt>0</asrwt>
<pdfrwt beam="1">  1       21 0.12776882E-01 0.10934509E+03</pdfrwt>
<pdfrwt beam="2">  1       21 0.40942453E-01 0.10934509E+03</pdfrwt>
<totfact> 0.30646138E+05</totfact>
</mgrwt>
</event>
<event>
 4    1  0.6024238E+003  0.1274894E+03  0.7546771E-02  0.1231229E+00
         21   -1    0    0  502  501  0.00000000000E+00  0.00000000000E+00  0.22215089415E+03  0.22215089415E+03  0.00000000000E+00 0.  1.
         21   -1    0    0  503  502 -0.00000000000E+00 -0.00000000000E+00 -0.14378417464E+03  0.14378417464E+03  0.00000000000E+00 0.  1.
         21    1    1    2  503  504 -0.10946944970E+03 -0.65345121948E+02 -0.89044247198E+02  0.15550698807E+03  0.00000000000E+00 0.  1.
         21    1    1    2  504  501  0.10946944970E+03  0.65345121948E+02  0.16741096671E+03  0.21042808072E+03  0.00000000000E+00 0.  1.
<mgrwt>
<rscale>  2 0.12748939E+03</rscale>
<asrwt>0</asrwt>
<pdfrwt beam="1">  1       21 0.34177061E-01 0.12748939E+03</pdfrwt>
<pdfrwt beam="2">  1       21 0.22120642E-01 0.12748939E+03</pdfrwt>
<totfact> 0.16080622E+05</totfact>
</mgrwt>
</event>
<event>
 4    1  0.6024238E+003  0.1084830E+03  0.7546771E-02  0.1263405E+00
         21   -1    0    0  502  501  0.00000000000E+00  0.00000000000E+00  0.19735389737E+03  0.19735389737E+03  0.00000000000E+00 0.  1.
         21   -1    0    0  504  502 -0.00000000000E+00 -0.00000000000E+00 -0.27964521935E+03  0.27964521935E+03  0.00000000000E+00 0. -1.
         21    1    1    2  503  501 -0.86090243168E+02 -0.66007822443E+02  0.17040212896E+03  0.20200358449E+03  0.00000000000E+00 0.  1.
         21    1    1    2  504  503  0.86090243168E+02  0.66007822443E+02 -0.25269345095E+03  0.27499553223E+03  0.00000000000E+00 0. -1.
<mgrwt>
<rscale>  2 0.10848301E+03</rscale>
<asrwt>0</asrwt>
<pdfrwt beam="1">  1       21 0.30362138E-01 0.10848301E+03</pdfrwt>
<pdfrwt beam="2">  1       21 0.43022341E-01 0.10848301E+03</pdfrwt>
<totfact> 0.56420421E+04</totfact>
</mgrwt>
</event>
<event>
 4    1  0.6024238E+003  0.1045214E+03  0.7546771E-02  0.1271066E+00
         21   -1    0    0  504  501  0.00000000000E+00  0.00000000000E+00  0.28868085541E+04  0.28868085541E+04  0.00000000000E+00 0.  1.
         21   -1    0    0  501  502 -0.00000000000E+00 -0.00000000000E+00 -0.83855282705E+01  0.83855282705E+01  0.00000000000E+00 0.  1.
         21    1    1    2  503  502 -0.73604969142E+02  0.74209311097E+02  0.36691057412E+03  0.38150764441E+03  0.00000000000E+00 0.  1.
         21    1    1    2  504  503  0.73604969142E+02 -0.74209311097E+02  0.25115124517E+04  0.25136864380E+04  0.00000000000E+00 0.  1.
<mgrwt>
<rscale>  2 0.10452135E+03</rscale>
<asrwt>0</asrwt>
<pdfrwt beam="1">  1       21 0.44412360E+00 0.10452135E+03</pdfrwt>
<pdfrwt beam="2">  1       21 0.12900836E-02 0.10452135E+03</pdfrwt>
<totfact> 0.13253895E+04</totfact>
</mgrwt>
</event>
<event>
 4    1  0.6024238E+003  0.1677108E+03  0.7546771E-02  0.1180256E+00
         21   -1    0    0  504  501  0.00000000000E+00  0.00000000000E+00  0.13859500658E+03  0.13859500658E+03  0.00000000000E+00 0.  1.
         21   -1    0    0  503  502 -0.00000000000E+00 -0.00000000000E+00 -0.20311414059E+03  0.20311414059E+03  0.00000000000E+00 0.  1.
         21    1    1    2  503  501 -0.12526739482E+03 -0.11151231845E+03 -0.37215774890E+02  0.17179037013E+03  0.00000000000E+00 0.  1.
         21    1    1    2  504  502  0.12526739482E+03  0.11151231845E+03 -0.27303359130E+02  0.16991877704E+03  0.00000000000E+00 0.  1.
<mgrwt>
<rscale>  2 0.16771081E+03</rscale>
<asrwt>0</asrwt>
<pdfrwt beam="1">  1       21 0.21322309E-01 0.16771081E+03</pdfrwt>
<pdfrwt beam="2">  1       21 0.31248329E-01 0.16771081E+03</pdfrwt>
<totfact> 0.20292343E+05</totfact>
</mgrwt>
</event>
<event>
 4    1  0.6024238E+003  0.1039396E+03  0.7546771E-02  0.1272223E+00
         21   -1    0    0  502  501  0.00000000000E+00  0.00000000000E+00  0.44055249636E+03  0.44055249636E+03  0.00000000000E+00 0.  1.
         21   -1    0    0  503  502 -0.00000000000E+00 -0.00000000000E+00 -0.28536339864E+02  0.28536339864E+02  0.00000000000E+00 0.  1.
         21    1    1    2  503  504  0.10012127315E+03 -0.27913756981E+02  0.11804383650E+03  0.15728253082E+03  0.00000000000E+00 0.  1.
         21    1    1    2  504  501 -0.10012127315E+03  0.27913756981E+02  0.29397231999E+03  0.31180630540E+03  0.00000000000E+00 0.  1.
<mgrwt>
<rscale>  2 0.10393963E+03</rscale>
<asrwt>0</asrwt>
<pdfrwt beam="1">  1       21 0.67777302E-01 0.10393963E+03</pdfrwt>
<pdfrwt beam="2">  1       21 0.43902065E-02 0.10393963E+03</pdfrwt>
<totfact> 0.67173202E+05</totfact>
</mgrwt>
</event>
<event>
 4    1  0.6024238E+003  0.1005591E+03  0.7546771E-02  0.1279125E+00
         21   -1    0    0  504  501  0.00000000000E+00  0.00000000000E+00  0.14425988281E+02  0.14425988281E+02  0.00000000000E+00 0.  1.
         21   -1    0    0  501  502 -0.00000000000E+00 -0.00000000000E+00 -0.15830531068E+04  0.15830531068E+04  0.00000000000E+00 0.  1.
         21    1    1    2  503  502 -0.67931510242E+02 -0.74144803875E+02 -0.13805423337E+04  0.13841998689E+04  0.00000000000E+00 0.  1.
         21    1    1    2  504  503  0.67931510242E+02  0.74144803875E+02 -0.18808478484E+03  0.21327922617E+03  0.00000000000E+00 0.  1.
<mgrwt>
<rscale>  2 0.10055915E+03</rscale>
<asrwt>0</asrwt>
<pdfrwt beam="1">  1       21 0.22193821E-02 0.10055915E+03</pdfrwt>
<pdfrwt beam="2">  1       21 0.24354671E+00 0.10055915E+03</pdfrwt>
<totfact> 0.81561926E+04</totfact>
</mgrwt>
</event>
<event>
 4    1  0.6024238E+003  0.1048160E+03  0.7546771E-02  0.1270483E+00
         21   -1    0    0  502  501  0.00000000000E+00  0.00000000000E+00  0.13298201048E+02  0.13298201048E+02  0.00000000000E+00 0. -1.
         21   -1    0    0  503  502 -0.00000000000E+00 -0.00000000000E+00 -0.83576692386E+03  0.83576692386E+03  0.00000000000E+00 0. -1.
         21    1    1    2  503  504  0.24425555469E+02  0.10193030076E+03 -0.45675850993E+03  0.46863069721E+03  0.00000000000E+00 0. -1.
         21    1    1    2  504  501 -0.24425555469E+02 -0.10193030076E+03 -0.36571021288E+03  0.38043442770E+03  0.00000000000E+00 0. -1.
<mgrwt>
<rscale>  2 0.10481600E+03</rscale>
<asrwt>0</asrwt>
<pdfrwt beam="1">  1       21 0.20458770E-02 0.10481600E+03</pdfrwt>
<pdfrwt beam="2">  1       21 0.12857953E+00 0.10481600E+03</pdfrwt>
<totfact> 0.53707566E+05</totfact>
</mgrwt>
</event>
<event>
 4    1  0.6024238E+003  0.1033827E+03  0.7546771E-02  0.1273339E+00
         21   -1    0    0  502  501  0.00000000000E+00  0.00000000000E+00  0.66998814701E+03  0.66998814701E+03  0.00000000000E+00 0.  1.
         21   -1    0    0  504  502 -0.00000000000E+00 -0.00000000000E+00 -0.26727195497E+02  0.26727195497E+02  0.00000000000E+00 0. -1.
         21    1    1    2  503  501 -0.69910799866E+01  0.10314606949E+03  0.54281317722E+03  0.55257047714E+03  0.00000000000E+00 0.  1.
         21    1    1    2  504  503  0.69910799866E+01 -0.10314606949E+03  0.10044777430E+03  0.14414486536E+03  0.00000000000E+00 0. -1.
<mgrwt>
<rscale>  2 0.10338272E+03</rscale>
<asrwt>0</asrwt>
<pdfrwt beam="1">  1       21 0.10307509E+00 0.10338272E+03</pdfrwt>
<pdfrwt beam="2">  1       21 0.41118767E-02 0.10338272E+03</pdfrwt>
<totfact> 0.29266255E+05</totfact>
</mgrwt>
</event>
<event>
 4    1  0.6024238E+003  0.1696986E+03  0.7546771E-02  0.1178163E+00
         21   -1    0    0  503  501  0.00000000000E+00  0.00000000000E+00  0.18548531147E+04  0.18548531147E+04  0.00000000000E+00 0.  1.
         21   -1    0    0  501  502 -0.00000000000E+00 -0.00000000000E+00 -0.25990249306E+02  0.25990249306E+02  0.00000000000E+00 0.  1.
         21    1    1    2  503  504 -0.76772204444E+02  0.15133952651E+03  0.15111653022E+04  0.15206637348E+04  0.00000000000E+00 0.  1.
         21    1    1    2  504  502  0.76772204444E+02 -0.15133952651E+03  0.31769756318E+03  0.36017962923E+03  0.00000000000E+00 0.  1.
<mgrwt>
<rscale>  2 0.16969863E+03</rscale>
<asrwt>0</asrwt>
<pdfrwt beam="1">  1       21 0.28536191E+00 0.16969863E+03</pdfrwt>
<pdfrwt beam="2">  1       21 0.39985014E-02 0.16969863E+03</pdfrwt>
<totfact> 0.16641020E+04</totfact>
</mgrwt>
</event>
<event>
 4    1  0.6024238E+003  0.1097428E+03  0.7546771E-02  0.1261047E+00
         21   -1    0    0  504  501  0.00000000000E+00  0.00000000000E+00  0.54519871273E+02  0.54519871273E+02  0.00000000000E+00 0. -1.
         21   -1    0    0  503  502 -0.00000000000E+00 -0.00000000000E+00 -0.22514747220E+03  0.22514747220E+03  0.00000000000E+00 0. -1.
         21    1    1    2  503  501 -0.14179369847E+02  0.10882292215E+03 -0.10451829325E+03  0.15155050821E+03  0.00000000000E+00 0. -1.
         21    1    1    2  504  502  0.14179369847E+02 -0.10882292215E+03 -0.66109307676E+02  0.12811683526E+03  0.00000000000E+00 0. -1.
<mgrwt>
<rscale>  2 0.10974280E+03</rscale>
<asrwt>0</asrwt>
<pdfrwt beam="1">  1       21 0.83876725E-02 0.10974280E+03</pdfrwt>
<pdfrwt beam="2">  1       21 0.34638073E-01 0.10974280E+03</pdfrwt>
<totfact> 0.88903447E+05</totfact>
</mgrwt>
</event>
<event>
 4    1  0.6024238E+003  0.1122124E+03  0.7546771E-02  0.1256527E+00
         21   -1    0    0  503  501  0.00000000000E+00  0.00000000000E+00  0.35936763723E+02  0.35936763723E+02  0.00000000000E+00 0.  1.
         21   -1    0    0  504  502 -0.00000000000E+00 -0.00000000000E+00 -0.36920113858E+03  0.36920113858E+03  0.00000000000E+00 0.  1.
         21    1    1    2  503  502 -0.92025284022E+02  0.64210425445E+02 -0.21236516915E+03  0.24018866897E+03  0.00000000000E+00 0.  1.
         21    1    1    2  504  501  0.92025284022E+02 -0.64210425445E+02 -0.12089920571E+03  0.16494923333E+03  0.00000000000E+00 0.  1.
<mgrwt>
<rscale>  2 0.11221244E+03</rscale>
<asrwt>0</asrwt>
<pdfrwt beam="1">  1       21 0.55287329E-02 0.11221244E+03</pdfrwt>
<pdfrwt beam="2">  1       21 0.56800175E-01 0.11221244E+03</pdfrwt>
<totfact> 0.66511097E+05</totfact>
</mgrwt>
</event>
<event>
 4    1  0.6024238E+003  0.1281868E+03  0.7546771E-02  0.1230171E+00
         21   -1    0    0  504  501  0.00000000000E+00  0.00000000000E+00  0.17616569545E+03  0.17616569545E+03  0.00000000000E+00 0. -1.
         21   -1    0    0  503  502 -0.00000000000E+00 -0.00000000000E+00 -0.12773183798E+03  0.12773183798E+03  0.00000000000E+00 0. -1.
         21    1    1    2  503  501  0.94067959652E+02  0.87080800378E+02 -0.54702804795E+02  0.13937088534E+03  0.00000000000E+00 0. -1.
         21    1    1    2  504  502 -0.94067959652E+02 -0.87080800378E+02  0.10313666227E+03  0.16452664809E+03  0.00000000000E+00 0. -1.
<mgrwt>
<rscale>  2 0.12818677E+03</rscale>
<asrwt>0</asrwt>
<pdfrwt beam="1">  1       21 0.27102415E-01 0.12818677E+03</pdfrwt>
<pdfrwt beam="2">  1       21 0.19651052E-01 0.12818677E+03</pdfrwt>
<totfact> 0.31349888E+05</totfact>
</mgrwt>
</event>
<event>
 4    1  0.6024238E+003  0.1045991E+03  0.7546771E-02  0.1270911E+00
         21   -1    0    0  504  501  0.00000000000E+00  0.00000000000E+00  0.26757899725E+02  0.26757899725E+02  0.00000000000E+00 0. -1.
         21   -1    0    0  503  502 -0.00000000000E+00 -0.00000000000E+00 -0.43160819620E+03  0.43160819620E+03  0.00000000000E+00 0.  1.
         21    1    1    2  503  501  0.80176848678E+02 -0.67176234666E+02 -0.14984189511E+03  0.18273906834E+03  0.00000000000E+00 0. -1.
         21    1    1    2  504  502 -0.80176848678E+02  0.67176234666E+02 -0.25500840136E+03  0.27562702758E+03  0.00000000000E+00 0.  1.
<mgrwt>
<rscale>  2 0.10459911E+03</rscale>
<asrwt>0</asrwt>
<pdfrwt beam="1">  1       21 0.41166001E-02 0.10459911E+03</pdfrwt>
<pdfrwt beam="2">  1       21 0.66401259E-01 0.10459911E+03</pdfrwt>
<totfact> 0.78104112E+05</totfact>
</mgrwt>
</event>
<event>
 4    1  0.6024238E+003  0.1810271E+03  0.7546771E-02  0.1166813E+00
         21   -1    0    0  503  501  0.00000000000E+00  0.00000000000E+00  0.24161119468E+03  0.24161119468E+03  0.00000000000E+00 0. -1.
         21   -1    0    0  504  502 -0.00000000000E+00 -0.00000000000E+00 -0.33693613613E+03  0.33693613613E+03  0.00000000000E+00 0. -1.
         21    1    1    2  503  502  0.61180332717E+02 -0.17037536523E+03  0.17593084903E+03  0.25243308387E+03  0.00000000000E+00 0. -1.
         21    1    1    2  504  501 -0.61180332717E+02  0.17037536523E+03 -0.27125579048E+03  0.32611424694E+03  0.00000000000E+00 0. -1.
<mgrwt>
<rscale>  2 0.18102706E+03</rscale>
<asrwt>0</asrwt>
<pdfrwt beam="1">  1       21 0.37170953E-01 0.18102706E+03</pdfrwt>
<pdfrwt beam="2">  1       21 0.51836329E-01 0.18102706E+03</pdfrwt>
<totfact> 0.24828428E+04</totfact>
</mgrwt>
</event>
<event>
 4    1  0.6024238E+003  0.1311139E+03  0.7546771E-02  0.1225812E+00
         21   -1    0    0  503  501  0.00000000000E+00  0.00000000000E+00  0.16044601841E+03  0.16044601841E+03  0.00000000000E+00 0.  1.
         21   -1    0    0  504  502 -0.00000000000E+00 -0.00000000000E+00 -0.10715322448E+03  0.10715322448E+03  0.00000000000E+00 0. -1.
         21    1    1    2  503  502  0.88340477839E+02  0.96885578936E+02  0.27876354867E+02  0.13404456942E+03  0.00000000000E+00 0. -1.
         21    1    1    2  504  501 -0.88340477839E+02 -0.96885578936E+02  0.25416439057E+02  0.13355467347E+03  0.00000000000E+00 0.  1.
<mgrwt>
<rscale>  2 0.13111390E+03</rscale>
<asrwt>0</asrwt>
<pdfrwt beam="1">  1       21 0.24684003E-01 0.13111390E+03</pdfrwt>
<pdfrwt beam="2">  1       21 0.16485111E-01 0.13111390E+03</pdfrwt>
<totfact> 0.51616631E+05</totfact>
</mgrwt>
</event>
<event>
 4    1  0.6024238E+003  0.1099871E+03  0.7546771E-02  0.1260594E+00
         21   -1    0    0  504  501  0.00000000000E+00  0.00000000000E+00  0.94038302782E+01  0.94038302782E+01  0.00000000000E+00 0.  1.
         21   -1    0    0  503  502 -0.00000000000E+00 -0.00000000000E+00 -0.13018700229E+04  0.13018700229E+04  0.00000000000E+00 0.  1.
         21    1    1    2  503  501  0.10995294391E+03 -0.27402061466E+01 -0.71768578394E+03  0.72606476507E+03  0.00000000000E+00 0.  1.
         21    1    1    2  504  502 -0.10995294391E+03  0.27402061466E+01 -0.57478040872E+03  0.58520908815E+03  0.00000000000E+00 0.  1.
<mgrwt>
<rscale>  2 0.10998708E+03</rscale>
<asrwt>0</asrwt>
<pdfrwt beam="1">  1       21 0.14467441E-02 0.10998708E+03</pdfrwt>
<pdfrwt beam="2">  1       21 0.20028756E+00 0.10998708E+03</pdfrwt>
<totfact> 0.28933880E+05</totfact>
</mgrwt>
</event>
<event>
 4    1  0.6024238E+003  0.1140605E+03  0.7546771E-02  0.1253230E+00
         21   -1    0    0  503  501  0.00000000000E+00  0.00000000000E+00  0.11761976913E+03  0.11761976913E+03  0.00000000000E+00 0.  1.
         21   -1    0    0  504  502 -0.00000000000E+00 -0.00000000000E+00 -0.16605847301E+03  0.16605847301E+03  0.00000000000E+00 0. -1.
         21    1    1    2  503  502  0.11389929672E+03  0.60624920015E+01  0.57742973331E+02  0.12784386795E+03  0.00000000000E+00 0.  1.
         21    1    1    2  504  501 -0.11389929672E+03 -0.60624920015E+01 -0.10618167721E+03  0.15583437419E+03  0.00000000000E+00 0. -1.
<mgrwt>
<rscale>  2 0.11406053E+03</rscale>
<asrwt>0</asrwt>
<pdfrwt beam="1">  1       21 0.18095349E-01 0.11406053E+03</pdfrwt>
<pdfrwt beam="2">  1       21 0.25547457E-01 0.11406053E+03</pdfrwt>
<totfact> 0.40879852E+05</totfact>
</mgrwt>
</event>
<event>
 4    1  0.6024238E+003  0.1181373E+03  0.7546771E-02  0.1246202E+00
         21   -1    0    0  502  501  0.00000000000E+00  0.00000000000E+00  0.17211292244E+03  0.17211292244E+03  0.00000000000E+00 0. -1.
         21   -1    0    0  504  502 -0.00000000000E+00 -0.00000000000E+00 -0.13692394677E+03  0.13692394677E+03  0.00000000000E+00 0.  1.
         21    1    1    2  503  501 -0.14998482740E+02 -0.11718137757E+03  0.11626660349E+03  0.16575389232E+03  0.00000000000E+00 0. -1.
         21    1    1    2  504  503  0.14998482740E+02  0.11718137757E+03 -0.81077627823E+02  0.14328297689E+03  0.00000000000E+00 0.  1.
<mgrwt>
<rscale>  2 0.11813733E+03</rscale>
<asrwt>0</asrwt>
<pdfrwt beam="1">  1       21 0.26478911E-01 0.11813733E+03</pdfrwt>
<pdfrwt beam="2">  1       21 0.21065222E-01 0.11813733E+03</pdfrwt>
<totfact> 0.28866814E+05</totfact>
</mgrwt>
</event>
<event>
 4    1  0.6024238E+003  0.1098537E+03  0.7546771E-02  0.1260841E+00
         21   -1    0    0  504  501  0.00000000000E+00  0.00000000000E+00  0.94966183376E+01  0.94966183376E+01  0.00000000000E+00 0. -1.
         21   -1    0    0  503  502 -0.00000000000E+00 -0.00000000000E+00 -0.12787340915E+04  0.12787340915E+04  0.00000000000E+00 0. -1.
         21    1    1    2  503  501 -0.25301555372E+02 -0.10690022515E+03 -0.68551535095E+03  0.69426156687E+03  0.00000000000E+00 0. -1.
         21    1    1    2  504  502  0.25301555372E+02  0.10690022515E+03 -0.58372212224E+03  0.59396914299E+03  0.00000000000E+00 0. -1.
<mgrwt>
<rscale>  2 0.10985366E+03</rscale>
<asrwt>0</asrwt>
<pdfrwt beam="1">  1       21 0.14610196E-02 0.10985366E+03</pdfrwt>
<pdfrwt beam="2">  1       21 0.19672814E+00 0.10985366E+03</pdfrwt>
<totfact> 0.29987321E+05</totfact>
</mgrwt>
</event>
<event>
 4    1  0.6024238E+003  0.1243260E+03  0.7546771E-02  0.1236126E+00
         21   -1    0    0  502  501  0.00000000000E+00  0.00000000000E+00  0.62953877068E+02  0.62953877068E+02  0.00000000000E+00 0.  1.
         21   -1    0    0  504  502 -0.00000000000E+00 -0.00000000000E+00 -0.30091553397E+03  0.30091553397E+03  0.00000000000E+00 0.  1.
         21    1    1    2  503  501 -0.92391052538E+02  0.83191617148E+02 -0.40926228578E+02  0.13088891450E+03  0.00000000000E+00 0.  1.
         21    1    1    2  504  503  0.92391052538E+02 -0.83191617148E+02 -0.19703542832E+03  0.23298049654E+03  0.00000000000E+00 0.  1.
<mgrwt>
<rscale>  2 0.12432599E+03</rscale>
<asrwt>0</asrwt>
<pdfrwt beam="1">  1       21 0.96852121E-02 0.12432599E+03</pdfrwt>
<pdfrwt beam="2">  1       21 0.46294696E-01 0.12432599E+03</pdfrwt>
<totfact> 0.38830025E+05</totfact>
</mgrwt>
</event>
<event>
 4    1  0.6024238E+003  0.1118210E+03  0.7546771E-02  0.1257234E+00
         21   -1    0    0  504  501  0.00000000000E+00  0.00000000000E+00  0.25913324071E+03  0.25913324071E+03  0.00000000000E+00 0.  1.
         21   -1    0    0  503  502 -0.00000000000E+00 -0.00000000000E+00 -0.51154927545E+02  0.51154927545E+02  0.00000000000E+00 0. -1.
         21    1    1    2  503  501 -0.81467546451E+02  0.76596232324E+02  0.14094118870E+03  0.17991209688E+03  0.00000000000E+00 0.  1.
         21    1    1    2  504  502  0.81467546451E+02 -0.76596232324E+02  0.67037124462E+02  0.13037607137E+03  0.00000000000E+00 0. -1.
<mgrwt>
<rscale>  2 0.11182104E+03</rscale>
<asrwt>0</asrwt>
<pdfrwt beam="1">  1       21 0.39866652E-01 0.11182104E+03</pdfrwt>
<pdfrwt beam="2">  1       21 0.78699890E-02 0.11182104E+03</pdfrwt>
<totfact> 0.75191390E+05</totfact>
</mgrwt>
</event>
<event>
 4    1  0.6024238E+003  0.1364041E+03  0.7546771E-02  0.1218251E+00
         21   -1    0    0  502  501  0.00000000000E+00  0.00000000000E+00  0.55584026906E+02  0.55584026906E+02  0.00000000000E+00 0. -1.
         21   -1    0    0  504  502 -0.00000000000E+00 -0.00000000000E+00 -0.34019577149E+03  0.34019577149E+03  0.00000000000E+00 0. -1.
         21    1    1    2  503  501 -0.12804793389E+03  0.47008429949E+02 -0.16737165439E+03  0.21591511423E+03  0.00000000000E+00 0. -1.
         21    1    1    2  504  503  0.12804793389E+03 -0.47008429949E+02 -0.11724009020E+03  0.17986468417E+03  0.00000000000E+00 0. -1.
<mgrwt>
<rscale>  2 0.13640405E+03</rscale>
<asrwt>0</asrwt>
<pdfrwt beam="1">  1       21 0.85513886E-02 0.13640405E+03</pdfrwt>
<pdfrwt beam="2">  1       21 0.52337812E-01 0.13640405E+03</pdfrwt>
<totfact> 0.37389421E+05</totfact>
</mgrwt>
</event>
<event>
 4    1  0.6024238E+003  0.1085540E+03  0.7546771E-02  0.1263271E+00
         21   -1    0    0  504  501  0.00000000000E+00  0.00000000000E+00  0.33736397508E+03  0.33736397508E+03  0.00000000000E+00 0. -1.
         21   -1    0    0  501  502 -0.00000000000E+00 -0.00000000000E+00 -0.83376838543E+02  0.83376838543E+02  0.00000000000E+00 0. -1.
         21    1    1    2  503  502  0.25995874017E+02  0.10539536518E+03 -0.33366679137E+02  0.11356629669E+03  0.00000000000E+00 0. -1.
         21    1    1    2  504  503 -0.25995874017E+02 -0.10539536518E+03  0.28735381568E+03  0.30717451693E+03  0.00000000000E+00 0. -1.
<mgrwt>
<rscale>  2 0.10855399E+03</rscale>
<asrwt>0</asrwt>
<pdfrwt beam="1">  1       21 0.51902149E-01 0.10855399E+03</pdfrwt>
<pdfrwt beam="2">  1       21 0.12827206E-01 0.10855399E+03</pdfrwt>
<totfact> 0.18808283E+05</totfact>
</mgrwt>
</event>
<event>
 4    1  0.6024238E+003  0.1315940E+03  0.7546771E-02  0.1225109E+00
         21   -1    0    0  504  501  0.00000000000E+00  0.00000000000E+00  0.79535678397E+03  0.79535678397E+03  0.00000000000E+00 0. -1.
         21   -1    0    0  503  502 -0.00000000000E+00 -0.00000000000E+00 -0.41649176393E+02  0.41649176393E+02  0.00000000000E+00 0.  1.
         21    1    1    2  503  501  0.12875390815E+03  0.27192367467E+02  0.66596573794E+03  0.67884266058E+03  0.00000000000E+00 0. -1.
         21    1    1    2  504  502 -0.12875390815E+03 -0.27192367467E+02  0.87741869636E+02  0.15816329978E+03  0.00000000000E+00 0.  1.
<mgrwt>
<rscale>  2 0.13159405E+03</rscale>
<asrwt>0</asrwt>
<pdfrwt beam="1">  1       21 0.12236257E+00 0.13159405E+03</pdfrwt>
<pdfrwt beam="2">  1       21 0.64075662E-02 0.13159405E+03</pdfrwt>
<totfact> 0.91185583E+04</totfact>
</mgrwt>
</event>
<event>
 4    1  0.6024238E+003  0.1222311E+03  0.7546771E-02  0.1239461E+00
         21   -1    0    0  502  501  0.00000000000E+00  0.00000000000E+00  0.34420691203E+02  0.34420691203E+02  0.00000000000E+00 0. -1.
         21   -1    0    0  503  502 -0.00000000000E+00 -0.00000000000E+00 -0.10223425014E+04  0.10223425014E+04  0.00000000000E+00 0.  1.
         21    1    1    2  503  504  0.12115180516E+03  0.16207486637E+02 -0.89477650267E+03  0.90308661393E+03  0.00000000000E+00 0.  1.
         21    1    1    2  504  501 -0.12115180516E+03 -0.16207486637E+02 -0.93145307502E+02  0.15367657865E+03  0.00000000000E+00 0. -1.
<mgrwt>
<rscale>  2 0.12223110E+03</rscale>
<asrwt>0</asrwt>
<pdfrwt beam="1">  1       21 0.52954918E-02 0.12223110E+03</pdfrwt>
<pdfrwt beam="2">  1       21 0.15728344E+00 0.12223110E+03</pdfrwt>
<totfact> 0.67010075E+04</totfact>
</mgrwt>
</event>
<event>
 4    1  0.6024238E+003  0.1096141E+03  0.7546771E-02  0.1261286E+00
         21   -1    0    0  503  501  0.00000000000E+00  0.00000000000E+00  0.38781359504E+02  0.38781359504E+02  0.00000000000E+00 0.  1.
         21   -1    0    0  504  502 -0.00000000000E+00 -0.00000000000E+00 -0.57195196753E+03  0.57195196753E+03  0.00000000000E+00 0. -1.
         21    1    1    2  503  502  0.92104776634E+02  0.59430325941E+02 -0.47331438155E+03  0.48584128818E+03  0.00000000000E+00 0. -1.
         21    1    1    2  504  501 -0.92104776634E+02 -0.59430325941E+02 -0.59856226473E+02  0.12489203885E+03  0.00000000000E+00 0.  1.
<mgrwt>
<rscale>  2 0.10961411E+03</rscale>
<asrwt>0</asrwt>
<pdfrwt beam="1">  1       21 0.59663635E-02 0.10961411E+03</pdfrwt>
<pdfrwt beam="2">  1       21 0.87992603E-01 0.10961411E+03</pdfrwt>
<totfact> 0.22573107E+05</totfact>
</mgrwt>
</event>
<event>
 4    1  0.6024238E+003  0.1591547E+03  0.7546771E-02  0.1189654E+00
         21   -1    0    0  504  501  0.00000000000E+00  0.00000000000E+00  0.17520265320E+03  0.17520265320E+03  0.00000000000E+00 0. -1.
         21   -1    0    0  503  502 -0.00000000000E+00 -0.00000000000E+00 -0.18887982046E+03  0.18887982046E+03  0.00000000000E+00 0. -1.
         21    1    1    2  503  501 -0.15474525618E+03 -0.37203957337E+02  0.81325957268E+02  0.17872923677E+03  0.00000000000E+00 0. -1.
         21    1    1    2  504  502  0.15474525618E+03  0.37203957337E+02 -0.95003124527E+02  0.18535323688E+03  0.00000000000E+00 0. -1.
<mgrwt>
<rscale>  2 0.15915473E+03</rscale>
<asrwt>0</asrwt>
<pdfrwt beam="1">  1       21 0.26954254E-01 0.15915473E+03</pdfrwt>
<pdfrwt beam="2">  1       21 0.29058434E-01 0.15915473E+03</pdfrwt>
<totfact> 0.15034188E+05</totfact>
</mgrwt>
</event>
<event>
 4    1  0.6024238E+003  0.1185869E+03  0.7546771E-02  0.1245447E+00
         21   -1    0    0  503  501  0.00000000000E+00  0.00000000000E+00  0.54091733720E+02  0.54091733720E+02  0.00000000000E+00 0.  1.
         21   -1    0    0  504  502 -0.00000000000E+00 -0.00000000000E+00 -0.26868228145E+03  0.26868228145E+03  0.00000000000E+00 0.  1.
         21    1    1    2  503  502 -0.10748529943E+03  0.50097497302E+02 -0.78253124290E+02  0.14207885237E+03  0.00000000000E+00 0.  1.
         21    1    1    2  504  501  0.10748529943E+03 -0.50097497302E+02 -0.13633742344E+03  0.18069516280E+03  0.00000000000E+00 0.  1.
<mgrwt>
<rscale>  2 0.11858688E+03</rscale>
<asrwt>0</asrwt>
<pdfrwt beam="1">  1       21 0.83218053E-02 0.11858688E+03</pdfrwt>
<pdfrwt beam="2">  1       21 0.41335735E-01 0.11858688E+03</pdfrwt>
<totfact> 0.63541763E+05</totfact>
</mgrwt>
</event>
<event>
 4    1  0.6024238E+003  0.1393129E+03  0.7546771E-02  0.1214257E+00
         21   -1    0    0  504  501  0.00000000000E+00  0.00000000000E+00  0.80177261623E+03  0.80177261623E+03  0.00000000000E+00 0. -1.
         21   -1    0    0  503  502 -0.00000000000E+00 -0.00000000000E+00 -0.93151890362E+02  0.93151890362E+02  0.00000000000E+00 0. -1.
         21    1    1    2  503  501 -0.43606346647E+01  0.13924462702E+03 -0.30647588568E+02  0.14264415857E+03  0.00000000000E+00 0. -1.
         21    1    1    2  504  502  0.43606346647E+01 -0.13924462702E+03  0.73926831443E+03  0.75228034802E+03  0.00000000000E+00 0. -1.
<mgrwt>
<rscale>  2 0.13931289E+03</rscale>
<asrwt>0</asrwt>
<pdfrwt beam="1">  1       21 0.12334963E+00 0.13931289E+03</pdfrwt>
<pdfrwt beam="2">  1       21 0.14331061E-01 0.13931289E+03</pdfrwt>
<totfact> 0.21787034E+04</totfact>
</mgrwt>
</event>
<event>
 4    1  0.6024238E+003  0.1000742E+03  0.7546771E-02  0.1280140E+00
         21   -1    0    0  504  501  0.00000000000E+00  0.00000000000E+00  0.10964580779E+02  0.10964580779E+02  0.00000000000E+00 0. -1.
         21   -1    0    0  503  502 -0.00000000000E+00 -0.00000000000E+00 -0.11666307666E+04  0.11666307666E+04  0.00000000000E+00 0. -1.
         21    1    1    2  503  501 -0.75391068854E+02 -0.65810594857E+02 -0.85216307917E+03  0.85801909137E+03  0.00000000000E+00 0. -1.
         21    1    1    2  504  502  0.75391068854E+02  0.65810594857E+02 -0.30350310669E+03  0.31957625605E+03  0.00000000000E+00 0. -1.
<mgrwt>
<rscale>  2 0.10007421E+03</rscale>
<asrwt>0</asrwt>
<pdfrwt beam="1">  1       21 0.16868589E-02 0.10007421E+03</pdfrwt>
<pdfrwt beam="2">  1       21 0.17948163E+00 0.10007421E+03</pdfrwt>
<totfact> 0.30962121E+05</totfact>
</mgrwt>
</event>
<event>
 4    1  0.6024238E+003  0.1269647E+03  0.7546771E-02  0.1232030E+00
         21   -1    0    0  502  501  0.00000000000E+00  0.00000000000E+00  0.30868152084E+03  0.30868152084E+03  0.00000000000E+00 0. -1.
         21   -1    0    0  504  502 -0.00000000000E+00 -0.00000000000E+00 -0.25414392393E+03  0.25414392393E+03  0.00000000000E+00 0. -1.
         21    1    1    2  503  501 -0.41933878595E+02  0.11983980067E+03  0.27810798583E+03  0.30571895555E+03  0.00000000000E+00 0. -1.
         21    1    1    2  504  503  0.41933878595E+02 -0.11983980067E+03 -0.22357038892E+03  0.25710648923E+03  0.00000000000E+00 0. -1.
<mgrwt>
<rscale>  2 0.12696467E+03</rscale>
<asrwt>0</asrwt>
<pdfrwt beam="1">  1       21 0.47489465E-01 0.12696467E+03</pdfrwt>
<pdfrwt beam="2">  1       21 0.39099065E-01 0.12696467E+03</pdfrwt>
<totfact> 0.27819220E+04</totfact>
</mgrwt>
</event>
<event>
 4    1  0.6024238E+003  0.1222138E+03  0.7546771E-02  0.1239489E+00
         21   -1    0    0  503  501  0.00000000000E+00  0.00000000000E+00  0.48637228032E+03  0.48637228032E+03  0.00000000000E+00 0. -1.
         21   -1    0    0  501  502 -0.00000000000E+00 -0.00000000000E+00 -0.31556598476E+02  0.31556598476E+02  0.00000000000E+00 0. -1.
         21    1    1    2  503  504 -0.10003560350E+03  0.70207467893E+02  0.26983877162E+03  0.29622486929E+03  0.00000000000E+00 0. -1.
         21    1    1    2  504  502  0.10003560350E+03 -0.70207467893E+02  0.18497691023E+03  0.22170400951E+03  0.00000000000E+00 0. -1.
<mgrwt>
<rscale>  2 0.12221379E+03</rscale>
<asrwt>0</asrwt>
<pdfrwt beam="1">  1       21 0.74826499E-01 0.12221379E+03</pdfrwt>
<pdfrwt beam="2">  1       21 0.48548617E-02 0.12221379E+03</pdfrwt>
<totfact> 0.45723840E+05</totfact>
</mgrwt>
</event>
<event>
 4    1  0.6024238E+003  0.1154342E+03  0.7546771E-02  0.1250825E+00
         21   -1    0    0  504  501  0.00000000000E+00  0.00000000000E+00  0.83242462842E+03  0.83242462842E+03  0.00000000000E+00 0. -1.
         21   -1    0    0  503  502 -0.00000000000E+00 -0.00000000000E+00 -0.26145727866E+02  0.26145727866E+02  0.00000000000E+00 0.  1.
         21    1    1    2  503  501  0.11283982879E+03 -0.24335896910E+02  0.67045602708E+03  0.68032076779E+03  0.00000000000E+00 0. -1.
         21    1    1    2  504  502 -0.11283982879E+03  0.24335896910E+02  0.13582287347E+03  0.17824958849E+03  0.00000000000E+00 0.  1.
<mgrwt>
<rscale>  2 0.11543424E+03</rscale>
<asrwt>0</asrwt>
<pdfrwt beam="1">  1       21 0.12806531E+00 0.11543424E+03</pdfrwt>
<pdfrwt beam="2">  1       21 0.40224203E-02 0.11543424E+03</pdfrwt>
<totfact> 0.17947385E+05</totfact>
</mgrwt>
</event>
<event>
 4    1  0.6024238E+003  0.1558882E+03  0.7546771E-02  0.1193419E+00
         21   -1    0    0  504  501  0.00000000000E+00  0.00000000000E+00  0.59232524955E+03  0.59232524955E+03  0.00000000000E+00 0.  1.
         21   -1    0    0  501  502 -0.00000000000E+00 -0.00000000000E+00 -0.53496352818E+02  0.53496352818E+02  0.00000000000E+00 0. -1.
         21    1    1    2  503  502  0.11281573072E+03  0.10758131955E+03  0.11351367110E+03  0.19283797069E+03  0.00000000000E+00 0. -1.
         21    1    1    2  504  503 -0.11281573072E+03 -0.10758131955E+03  0.42531522563E+03  0.45298363168E+03  0.00000000000E+00 0.  1.
<mgrwt>
<rscale>  2 0.15588820E+03</rscale>
<asrwt>0</asrwt>
<pdfrwt beam="1">  1       21 0.91126957E-01 0.15588820E+03</pdfrwt>
<pdfrwt beam="2">  1       21 0.82302085E-02 0.15588820E+03</pdfrwt>
<totfact> 0.11828291E+05</totfact>
</mgrwt>
</event>
<event>
 4    1  0.6024238E+003  0.1036112E+03  0.7546771E-02  0.1272880E+00
         21   -1    0    0  503  501  0.00000000000E+00  0.00000000000E+00  0.11485109835E+04  0.11485109835E+04  0.00000000000E+00 0.  1.
         21   -1    0    0  501  502 -0.00000000000E+00 -0.00000000000E+00 -0.20772771586E+02  0.20772771586E+02  0.00000000000E+00 0.  1.
         21    1    1    2  503  504 -0.19167073381E+02 -0.10182290836E+03  0.99746283991E+03  0.10028296956E+04  0.00000000000E+00 0.  1.
         21    1    1    2  504  502  0.19167073381E+02  0.10182290836E+03  0.13027537200E+03  0.16645405948E+03  0.00000000000E+00 0.  1.
<mgrwt>
<rscale>  2 0.10361120E+03</rscale>
<asrwt>0</asrwt>
<pdfrwt beam="1">  1       21 0.17669395E+00 0.10361120E+03</pdfrwt>
<pdfrwt beam="2">  1       21 0.31958119E-02 0.10361120E+03</pdfrwt>
<totfact> 0.11495059E+05</totfact>
</mgrwt>
</event>
<event>
 4    1  0.6024238E+003  0.1010602E+03  0.7546771E-02  0.1278082E+00
         21   -1    0    0  503  501  0.00000000000E+00  0.00000000000E+00  0.62299122257E+02  0.62299122257E+02  0.00000000000E+00 0. -1.
         21   -1    0    0  501  502 -0.00000000000E+00 -0.00000000000E+00 -0.44964971940E+03  0.44964971940E+03  0.00000000000E+00 0.  1.
         21    1    1    2  503  504  0.97084337249E+02  0.28067810119E+02  0.10368647377E+02  0.10159074442E+03  0.00000000000E+00 0. -1.
         21    1    1    2  504  502 -0.97084337249E+02 -0.28067810119E+02 -0.39771924452E+03  0.41035809724E+03  0.00000000000E+00 0.  1.
<mgrwt>
<rscale>  2 0.10106023E+03</rscale>
<asrwt>0</asrwt>
<pdfrwt beam="1">  1       21 0.95844802E-02 0.10106023E+03</pdfrwt>
<pdfrwt beam="2">  1       21 0.69176881E-01 0.10106023E+03</pdfrwt>
<totfact> 0.17131248E+05</totfact>
</mgrwt>
</event>
<event>
 4    1  0.6024238E+003  0.1224000E+03  0.7546771E-02  0.1239190E+00
         21   -1    0    0  503  501  0.00000000000E+00  0.00000000000E+00  0.40468130717E+02  0.40468130717E+02  0.00000000000E+00 0. -1.
         21   -1    0    0  504  502 -0.00000000000E+00 -0.00000000000E+00 -0.83129446639E+03  0.83129446639E+03  0.00000000000E+00 0. -1.
         21    1    1    2  503  502 -0.11616917598E+03  0.38554771719E+02 -0.72003711756E+03  0.73036648234E+03  0.00000000000E+00 0. -1.
         21    1    1    2  504  501  0.11616917598E+03 -0.38554771719E+02 -0.70789218118E+02  0.14139611477E+03  0.00000000000E+00 0. -1.
<mgrwt>
<rscale>  2 0.12239995E+03</rscale>
<asrwt>0</asrwt>
<pdfrwt beam="1">  1       21 0.62258665E-02 0.12239995E+03</pdfrwt>
<pdfrwt beam="2">  1       21 0.12789145E+00 0.12239995E+03</pdfrwt>
<totfact> 0.86286078E+04</totfact>
</mgrwt>
</event>
<event>
 4    1  0.6024238E+003  0.1059774E+03  0.7546771E-02  0.1268206E+00
         21   -1    0    0  503  501  0.00000000000E+00  0.00000000000E+00  0.49779807513E+03  0.49779807513E+03  0.00000000000E+00 0. -1.
         21   -1    0    0  504  502 -0.00000000000E+00 -0.00000000000E+00 -0.23097126175E+02  0.23097126175E+02  0.00000000000E+00 0. -1.
         21    1    1    2  503  502 -0.96553339509E+02  0.43688239499E+02  0.19769897950E+03  0.22431249661E+03  0.00000000000E+00 0. -1.
         21    1    1    2  504  501  0.96553339509E+02 -0.43688239499E+02  0.27700196945E+03  0.29658270469E+03  0.00000000000E+00 0. -1.
<mgrwt>
<rscale>  2 0.10597740E+03</rscale>
<asrwt>0</asrwt>
<pdfrwt beam="1">  1       21 0.76584312E-01 0.10597740E+03</pdfrwt>
<pdfrwt beam="2">  1       21 0.35534044E-02 0.10597740E+03</pdfrwt>
<totfact> 0.73001128E+05</totfact>
</mgrwt>
</event>
<event>
 4    1  0.6024238E+003  0.1045202E+03  0.7546771E-02  0.1271068E+00
         21   -1    0    0  502  501  0.00000000000E+00  0.00000000000E+00  0.17548527148E+03  0.17548527148E+03  0.00000000000E+00 0. -1.
         21   -1    0    0  503  502 -0.00000000000E+00 -0.00000000000E+00 -0.10558228015E+03  0.10558228015E+03  0.00000000000E+00 0. -1.
         21    1    1    2  503  504 -0.46742284130E+02 -0.93485960471E+02 -0.55076268959E+02  0.11814339310E+03  0.00000000000E+00 0. -1.
         21    1    1    2  504  501  0.46742284130E+02  0.93485960471E+02  0.12497926029E+03  0.16292415853E+03  0.00000000000E+00 0. -1.
<mgrwt>
<rscale>  2 0.10452017E+03</rscale>
<asrwt>0</asrwt>
<pdfrwt beam="1">  1       21 0.26997734E-01 0.10452017E+03</pdfrwt>
<pdfrwt beam="2">  1       21 0.16243428E-01 0.10452017E+03</pdfrwt>
<totfact> 0.44835299E+05</totfact>
</mgrwt>
</event>
<event>
 4    1  0.6024238E+003  0.1136551E+03  0.7546771E-02  0.1253947E+00
         21   -1    0    0  503  501  0.00000000000E+00  0.00000000000E+00  0.52972514312E+03  0.52972514312E+03  0.00000000000E+00 0. -1.
         21   -1    0    0  501  502 -0.00000000000E+00 -0.00000000000E+00 -0.51835816940E+02  0.51835816940E+02  0.00000000000E+00 0. -1.
         21    1    1    2  503  504 -0.11169468333E+03  0.21018807245E+02  0.45054957667E+03  0.46466376401E+03  0.00000000000E+00 0. -1.
         21    1    1    2  504  502  0.11169468333E+03 -0.21018807245E+02  0.27339749510E+02  0.11689719605E+03  0.00000000000E+00 0. -1.
<mgrwt>
<rscale>  2 0.11365515E+03</rscale>
<asrwt>0</asrwt>
<pdfrwt beam="1">  1       21 0.81496172E-01 0.11365515E+03</pdfrwt>
<pdfrwt beam="2">  1       21 0.79747414E-02 0.11365515E+03</pdfrwt>
<totfact> 0.16341994E+05</totfact>
</mgrwt>
</event>
<event>
 4    1  0.6024238E+003  0.1913832E+03  0.7546771E-02  0.1157220E+00
         21   -1    0    0  503  501  0.00000000000E+00  0.00000000000E+00  0.42456383384E+02  0.42456383384E+02  0.00000000000E+00 0. -1.
         21   -1    0    0  504  502 -0.00000000000E+00 -0.00000000000E+00 -0.10406355659E+04  0.10406355659E+04  0.00000000000E+00 0. -1.
         21    1    1    2  503  502 -0.12675340809E+03 -0.14339137578E+03 -0.27516275838E+03  0.33517466597E+03  0.00000000000E+00 0. -1.
         21    1    1    2  504  501  0.12675340809E+03  0.14339137578E+03 -0.72301642414E+03  0.74791728332E+03  0.00000000000E+00 0. -1.
<mgrwt>
<rscale>  2 0.19138316E+03</rscale>
<asrwt>0</asrwt>
<pdfrwt beam="1">  1       21 0.65317519E-02 0.19138316E+03</pdfrwt>
<pdfrwt beam="2">  1       21 0.16009777E+00 0.19138316E+03</pdfrwt>
<totfact> 0.42861608E+04</totfact>
</mgrwt>
</event>
<event>
 4    1  0.6024238E+003  0.1016349E+03  0.7546771E-02  0.1276895E+00
         21   -1    0    0  503  501  0.00000000000E+00  0.00000000000E+00  0.10166299778E+03  0.10166299778E+03  0.00000000000E+00 0.  1.
         21   -1    0    0  504  502 -0.00000000000E+00 -0.00000000000E+00 -0.17058235591E+03  0.17058235591E+03  0.00000000000E+00 0. -1.
         21    1    1    2  503  502  0.60093479811E+02 -0.81965998832E+02  0.52099085687E+02  0.11421018348E+03  0.00000000000E+00 0.  1.
         21    1    1    2  504  501 -0.60093479811E+02  0.81965998832E+02 -0.12101844382E+03  0.15803517021E+03  0.00000000000E+00 0. -1.
<mgrwt>
<rscale>  2 0.10163489E+03</rscale>
<asrwt>0</asrwt>
<pdfrwt beam="1">  1       21 0.15640461E-01 0.10163489E+03</pdfrwt>
<pdfrwt beam="2">  1       21 0.26243439E-01 0.10163489E+03</pdfrwt>
<totfact> 0.50643803E+05</totfact>
</mgrwt>
</event>
<event>
 4    1  0.6024238E+003  0.1293621E+03  0.7546771E-02  0.1228405E+00
         21   -1    0    0  504  501  0.00000000000E+00  0.00000000000E+00  0.13230477002E+03  0.13230477002E+03  0.00000000000E+00 0.  1.
         21   -1    0    0  503  502 -0.00000000000E+00 -0.00000000000E+00 -0.24133975424E+03  0.24133975424E+03  0.00000000000E+00 0.  1.
         21    1    1    2  503  501  0.64202416013E+02 -0.11230588678E+03 -0.18339845536E+03  0.22443162847E+03  0.00000000000E+00 0.  1.
         21    1    1    2  504  502 -0.64202416013E+02  0.11230588678E+03  0.74363471139E+02  0.14921289578E+03  0.00000000000E+00 0.  1.
<mgrwt>
<rscale>  2 0.12936214E+03</rscale>
<asrwt>0</asrwt>
<pdfrwt beam="1">  1       21 0.20354580E-01 0.12936214E+03</pdfrwt>
<pdfrwt beam="2">  1       21 0.37129193E-01 0.12936214E+03</pdfrwt>
<totfact> 0.15937164E+05</totfact>
</mgrwt>
</event>
<event>
 4    1  0.6024238E+003  0.1235164E+03  0.7546771E-02  0.1237406E+00
         21   -1    0    0  504  501  0.00000000000E+00  0.00000000000E+00  0.32079655406E+03  0.32079655406E+03  0.00000000000E+00 0.  1.
         21   -1    0    0  501  502 -0.00000000000E+00 -0.00000000000E+00 -0.20080311545E+03  0.20080311545E+03  0.00000000000E+00 0. -1.
         21    1    1    2  503  502 -0.47580572136E+01  0.12342469327E+03 -0.16783598486E+03  0.20838716811E+03  0.00000000000E+00 0. -1.
         21    1    1    2  504  503  0.47580572136E+01 -0.12342469327E+03  0.28782942347E+03  0.31321250140E+03  0.00000000000E+00 0.  1.
<mgrwt>
<rscale>  2 0.12351637E+03</rscale>
<asrwt>0</asrwt>
<pdfrwt beam="1">  1       21 0.49353316E-01 0.12351637E+03</pdfrwt>
<pdfrwt beam="2">  1       21 0.30892787E-01 0.12351637E+03</pdfrwt>
<totfact> 0.40897155E+04</totfact>
</mgrwt>
</event>
<event>
 4    1  0.6024238E+003  0.1214560E+03  0.7546771E-02  0.1240714E+00
         21   -1    0    0  502  501  0.00000000000E+00  0.00000000000E+00  0.40025694714E+03  0.40025694714E+03  0.00000000000E+00 0.  1.
         21   -1    0    0  503  502 -0.00000000000E+00 -0.00000000000E+00 -0.43937243861E+03  0.43937243861E+03  0.00000000000E+00 0.  1.
         21    1    1    2  503  504  0.22743925151E+02 -0.11930745004E+03 -0.42137951900E+03  0.43853420938E+03  0.00000000000E+00 0.  1.
         21    1    1    2  504  501 -0.22743925151E+02  0.11930745004E+03  0.38226402752E+03  0.40109517637E+03  0.00000000000E+00 0.  1.
<mgrwt>
<rscale>  2 0.12145597E+03</rscale>
<asrwt>0</asrwt>
<pdfrwt beam="1">  1       21 0.61577992E-01 0.12145597E+03</pdfrwt>
<pdfrwt beam="2">  1       21 0.67595760E-01 0.12145597E+03</pdfrwt>
<totfact> 0.52281289E+03</totfact>
</mgrwt>
</event>
<event>
 4    1  0.6024238E+003  0.1089297E+03  0.7546771E-02  0.1262565E+00
         21   -1    0    0  503  501  0.00000000000E+00  0.00000000000E+00  0.35091628847E+03  0.35091628847E+03  0.00000000000E+00 0.  1.
         21   -1    0    0  504  502 -0.00000000000E+00 -0.00000000000E+00 -0.23969668272E+03  0.23969668272E+03  0.00000000000E+00 0.  1.
         21    1    1    2  503  502 -0.40276261869E+02  0.10121018057E+03 -0.21807614536E+03  0.24376809286E+03  0.00000000000E+00 0.  1.
         21    1    1    2  504  501  0.40276261869E+02 -0.10121018057E+03  0.32929575112E+03  0.34684487833E+03  0.00000000000E+00 0.  1.
<mgrwt>
<rscale>  2 0.10892969E+03</rscale>
<asrwt>0</asrwt>
<pdfrwt beam="1">  1       21 0.53987121E-01 0.10892969E+03</pdfrwt>
<pdfrwt beam="2">  1       21 0.36876413E-01 0.10892969E+03</pdfrwt>
<totfact> 0.24307926E+04</totfact>
</mgrwt>
</event>
<event>
 4    1  0.6024238E+003  0.1220108E+03  0.7546771E-02  0.1239816E+00
         21   -1    0    0  502  501  0.00000000000E+00  0.00000000000E+00  0.53516125043E+02  0.53516125043E+02  0.00000000000E+00 0. -1.
         21   -1    0    0  504  502 -0.00000000000E+00 -0.00000000000E+00 -0.43748744606E+03  0.43748744606E+03  0.00000000000E+00 0. -1.
         21    1    1    2  503  501  0.65671320254E+02  0.10282949607E+03 -0.43835431624E+02  0.12964633675E+03  0.00000000000E+00 0. -1.
         21    1    1    2  504  503 -0.65671320254E+02 -0.10282949607E+03 -0.34013588939E+03  0.36135723435E+03  0.00000000000E+00 0. -1.
<mgrwt>
<rscale>  2 0.12201077E+03</rscale>
<asrwt>0</asrwt>
<pdfrwt beam="1">  1       21 0.82332499E-02 0.12201077E+03</pdfrwt>
<pdfrwt beam="2">  1       21 0.67305761E-01 0.12201077E+03</pdfrwt>
<totfact> 0.23488381E+05</totfact>
</mgrwt>
</event>
<event>
 4    1  0.6024238E+003  0.1452282E+03  0.7546771E-02  0.1206462E+00
         21   -1    0    0  503  501  0.00000000000E+00  0.00000000000E+00  0.89825837612E+03  0.89825837612E+03  0.00000000000E+00 0. -1.
         21   -1    0    0  504  502 -0.00000000000E+00 -0.00000000000E+00 -0.10034936403E+03  0.10034936403E+03  0.00000000000E+00 0. -1.
         21    1    1    2  503  502  0.10958588907E+03  0.95300443803E+02 -0.38047911431E+02  0.15012956150E+03  0.00000000000E+00 0. -1.
         21    1    1    2  504  501 -0.10958588907E+03 -0.95300443803E+02  0.83595692352E+03  0.84847817866E+03  0.00000000000E+00 0. -1.
<mgrwt>
<rscale>  2 0.14522824E+03</rscale>
<asrwt>0</asrwt>
<pdfrwt beam="1">  1       21 0.13819359E+00 0.14522824E+03</pdfrwt>
<pdfrwt beam="2">  1       21 0.15438364E-01 0.14522824E+03</pdfrwt>
<totfact> 0.14271872E+04</totfact>
</mgrwt>
</event>
<event>
 4    1  0.6024238E+003  0.1086361E+03  0.7546771E-02  0.1263117E+00
         21   -1    0    0  502  501  0.00000000000E+00  0.00000000000E+00  0.11055854221E+04  0.11055854221E+04  0.00000000000E+00 0. -1.
         21   -1    0    0  503  502 -0.00000000000E+00 -0.00000000000E+00 -0.23575966811E+02  0.23575966811E+02  0.00000000000E+00 0. -1.
         21    1    1    2  503  504 -0.31482576945E+02  0.10397426226E+03  0.12335967869E+03  0.16437581997E+03  0.00000000000E+00 0. -1.
         21    1    1    2  504  501  0.31482576945E+02 -0.10397426226E+03  0.95864977657E+03  0.96478556891E+03  0.00000000000E+00 0. -1.
<mgrwt>
<rscale>  2 0.10863609E+03</rscale>
<asrwt>0</asrwt>
<pdfrwt beam="1">  1       21 0.17009002E+00 0.10863609E+03</pdfrwt>
<pdfrwt beam="2">  1       21 0.36270727E-02 0.10863609E+03</pdfrwt>
<totfact> 0.10312937E+05</totfact>
</mgrwt>
</event>
<event>
 4    1  0.6024238E+003  0.1114962E+03  0.7546771E-02  0.1257824E+00
         21   -1    0    0  502  501  0.00000000000E+00  0.00000000000E+00  0.76120144222E+02  0.76120144222E+02  0.00000000000E+00 0. -1.
         21   -1    0    0  504  502 -0.00000000000E+00 -0.00000000000E+00 -0.16733849249E+03  0.16733849249E+03  0.00000000000E+00 0. -1.
         21    1    1    2  503  501  0.10586153538E+03 -0.34996320198E+02 -0.26728904132E+02  0.11465531569E+03  0.00000000000E+00 0. -1.
         21    1    1    2  504  503 -0.10586153538E+03  0.34996320198E+02 -0.64489444140E+02  0.12880332102E+03  0.00000000000E+00 0. -1.
<mgrwt>
<rscale>  2 0.11149622E+03</rscale>
<asrwt>0</asrwt>
<pdfrwt beam="1">  1       21 0.11710792E-01 0.11149622E+03</pdfrwt>
<pdfrwt beam="2">  1       21 0.25744383E-01 0.11149622E+03</pdfrwt>
<totfact> 0.87899443E+05</totfact>
</mgrwt>
</event>
<event>
 4    1  0.6024238E+003  0.1122138E+03  0.7546771E-02  0.1256524E+00
         21   -1    0    0  504  501  0.00000000000E+00  0.00000000000E+00  0.97840458090E+03  0.97840458090E+03  0.00000000000E+00 0. -1.
         21   -1    0    0  503  502 -0.00000000000E+00 -0.00000000000E+00 -0.13278498510E+02  0.13278498510E+02  0.00000000000E+00 0. -1.
         21    1    1    2  503  501  0.62867844621E+02 -0.92949345929E+02  0.56954495024E+03  0.58049409742E+03  0.00000000000E+00 0. -1.
         21    1    1    2  504  502 -0.62867844621E+02  0.92949345929E+02  0.39558113215E+03  0.41118898199E+03  0.00000000000E+00 0. -1.
<mgrwt>
<rscale>  2 0.11221384E+03</rscale>
<asrwt>0</asrwt>
<pdfrwt beam="1">  1       21 0.15052372E+00 0.11221384E+03</pdfrwt>
<pdfrwt beam="2">  1       21 0.20428467E-02 0.11221384E+03</pdfrwt>
<totfact> 0.36136135E+05</totfact>
</mgrwt>
</event>
<event>
 4    1  0.6024238E+003  0.1032812E+03  0.7546771E-02  0.1273543E+00
         21   -1    0    0  504  501  0.00000000000E+00  0.00000000000E+00  0.14257685470E+03  0.14257685470E+03  0.00000000000E+00 0. -1.
         21   -1    0    0  503  502 -0.00000000000E+00 -0.00000000000E+00 -0.10806918624E+03  0.10806918624E+03  0.00000000000E+00 0. -1.
         21    1    1    2  503  501 -0.10032105443E+03  0.24549879612E+02  0.86771860643E+02  0.13489390776E+03  0.00000000000E+00 0. -1.
         21    1    1    2  504  502  0.10032105443E+03 -0.24549879612E+02 -0.52264192182E+02  0.11575213318E+03  0.00000000000E+00 0. -1.
<mgrwt>
<rscale>  2 0.10328122E+03</rscale>
<asrwt>0</asrwt>
<pdfrwt beam="1">  1       21 0.21934901E-01 0.10328122E+03</pdfrwt>
<pdfrwt beam="2">  1       21 0.16626028E-01 0.10328122E+03</pdfrwt>
<totfact> 0.63438719E+05</totfact>
</mgrwt>
</event>
<event>
 4    1  0.6024238E+003  0.1000566E+03  0.7546771E-02  0.1280177E+00
         21   -1    0    0  504  501  0.00000000000E+00  0.00000000000E+00  0.60009392231E+01  0.60009392231E+01  0.00000000000E+00 0.  1.
         21   -1    0    0  503  502 -0.00000000000E+00 -0.00000000000E+00 -0.17107511506E+04  0.17107511506E+04  0.00000000000E+00 0.  1.
         21    1    1    2  503  501  0.98601436003E+02  0.17002264650E+02 -0.71714645241E+03  0.72409278024E+03  0.00000000000E+00 0.  1.
         21    1    1    2  504  502 -0.98601436003E+02 -0.17002264650E+02 -0.98760375894E+03  0.99265930956E+03  0.00000000000E+00 0.  1.
<mgrwt>
<rscale>  2 0.10005658E+03</rscale>
<asrwt>0</asrwt>
<pdfrwt beam="1">  1       21 0.92321967E-03 0.10005658E+03</pdfrwt>
<pdfrwt beam="2">  1       21 0.26319298E+00 0.10005658E+03</pdfrwt>
<totfact> 0.25417574E+05</totfact>
</mgrwt>
</event>
<event>
 4    1  0.6024238E+003  0.1143479E+03  0.7546771E-02  0.1252724E+00
         21   -1    0    0  504  501  0.00000000000E+00  0.00000000000E+00  0.56654805959E+02  0.56654805959E+02  0.00000000000E+00 0.  1.
         21   -1    0    0  503  502 -0.00000000000E+00 -0.00000000000E+00 -0.23128173040E+03  0.23128173040E+03  0.00000000000E+00 0.  1.
         21    1    1    2  503  501 -0.11432741882E+03 -0.21619152481E+01 -0.93943470903E+02  0.14798921682E+03  0.00000000000E+00 0.  1.
         21    1    1    2  504  502  0.11432741882E+03  0.21619152481E+01 -0.80683453539E+02  0.13994731954E+03  0.00000000000E+00 0.  1.
<mgrwt>
<rscale>  2 0.11434786E+03</rscale>
<asrwt>0</asrwt>
<pdfrwt beam="1">  1       21 0.87161239E-02 0.11434786E+03</pdfrwt>
<pdfrwt beam="2">  1       21 0.35581805E-01 0.11434786E+03</pdfrwt>
<totfact> 0.78955480E+05</totfact>
</mgrwt>
</event>
<event>
 4    1  0.6024238E+003  0.1059215E+03  0.7546771E-02  0.1268315E+00
         21   -1    0    0  503  501  0.00000000000E+00  0.00000000000E+00  0.10701783263E+03  0.10701783263E+03  0.00000000000E+00 0. -1.
         21   -1    0    0  504  502 -0.00000000000E+00 -0.00000000000E+00 -0.67372968532E+03  0.67372968532E+03  0.00000000000E+00 0. -1.
         21    1    1    2  503  502  0.33852535334E+02 -0.10036621219E+03  0.75362062498E+02  0.12999542747E+03  0.00000000000E+00 0. -1.
         21    1    1    2  504  501 -0.33852535334E+02  0.10036621219E+03 -0.64207391519E+03  0.65075209048E+03  0.00000000000E+00 0. -1.
<mgrwt>
<rscale>  2 0.10592153E+03</rscale>
<asrwt>0</asrwt>
<pdfrwt beam="1">  1       21 0.16464282E-01 0.10592153E+03</pdfrwt>
<pdfrwt beam="2">  1       21 0.10365072E+00 0.10592153E+03</pdfrwt>
<totfact> 0.26453117E+04</totfact>
</mgrwt>
</event>
<event>
 4    1  0.6024238E+003  0.1130322E+03  0.7546771E-02  0.1255056E+00
         21   -1    0    0  502  501  0.00000000000E+00  0.00000000000E+00  0.37183255951E+03  0.37183255951E+03  0.00000000000E+00 0. -1.
         21   -1    0    0  503  502 -0.00000000000E+00 -0.00000000000E+00 -0.80146781748E+02  0.80146781748E+02  0.00000000000E+00 0. -1.
         21    1    1    2  503  504 -0.10369634448E+03 -0.44981589656E+02 -0.24967476014E+02  0.11575685778E+03  0.00000000000E+00 0. -1.
         21    1    1    2  504  501  0.10369634448E+03  0.44981589656E+02  0.31665325377E+03  0.33622248347E+03  0.00000000000E+00 0. -1.
<mgrwt>
<rscale>  2 0.11303219E+03</rscale>
<asrwt>0</asrwt>
<pdfrwt beam="1">  1       21 0.57205008E-01 0.11303219E+03</pdfrwt>
<pdfrwt beam="2">  1       21 0.12330274E-01 0.11303219E+03</pdfrwt>
<totfact> 0.16450010E+05</totfact>
</mgrwt>
</event>
<event>
 4    1  0.6024238E+003  0.1108951E+03  0.7546771E-02  0.1258921E+00
         21   -1    0    0  504  501  0.00000000000E+00  0.00000000000E+00  0.76966989498E+03  0.76966989498E+03  0.00000000000E+00 0.  1.
         21   -1    0    0  503  502 -0.00000000000E+00 -0.00000000000E+00 -0.70113784145E+02  0.70113784145E+02  0.00000000000E+00 0. -1.
         21    1    1    2  503  501 -0.91857145934E+02  0.62128817353E+02  0.71873718521E+03  0.72724195878E+03  0.00000000000E+00 0.  1.
         21    1    1    2  504  502  0.91857145934E+02 -0.62128817353E+02 -0.19181074373E+02  0.11254172035E+03  0.00000000000E+00 0. -1.
<mgrwt>
<rscale>  2 0.11089511E+03</rscale>
<asrwt>0</asrwt>
<pdfrwt beam="1">  1       21 0.11841075E+00 0.11089511E+03</pdfrwt>
<pdfrwt beam="2">  1       21 0.10786737E-01 0.11089511E+03</pdfrwt>
<totfact> 0.40724260E+04</totfact>
</mgrwt>
</event>
<event>
 4    1  0.6024238E+003  0.1248062E+03  0.7546771E-02  0.1235372E+00
         21   -1    0    0  503  501  0.00000000000E+00  0.00000000000E+00  0.19753570235E+03  0.19753570235E+03  0.00000000000E+00 0.  1.
         21   -1    0    0  501  502 -0.00000000000E+00 -0.00000000000E+00 -0.18378093396E+03  0.18378093396E+03  0.00000000000E+00 0.  1.
         21    1    1    2  503  504  0.10365047869E+03  0.69521009719E+02  0.15093885548E+03  0.19585487131E+03  0.00000000000E+00 0.  1.
         21    1    1    2  504  502 -0.10365047869E+03 -0.69521009719E+02 -0.13718408709E+03  0.18546176500E+03  0.00000000000E+00 0.  1.
<mgrwt>
<rscale>  2 0.12480622E+03</rscale>
<asrwt>0</asrwt>
<pdfrwt beam="1">  1       21 0.30390108E-01 0.12480622E+03</pdfrwt>
<pdfrwt beam="2">  1       21 0.28273990E-01 0.12480622E+03</pdfrwt>
<totfact> 0.12719406E+05</totfact>
</mgrwt>
</event>
<event>
 4    1  0.6024238E+003  0.1242552E+03  0.7546771E-02  0.1236238E+00
         21   -1    0    0  503  501  0.00000000000E+00  0.00000000000E+00  0.12812861841E+04  0.12812861841E+04  0.00000000000E+00 0.  1.
         21   -1    0    0  504  502 -0.00000000000E+00 -0.00000000000E+00 -0.34014574733E+03  0.34014574733E+03  0.00000000000E+00 0.  1.
         21    1    1    2  503  502 -0.46041122137E+02  0.11541043861E+03 -0.32565619084E+03  0.34855603409E+03  0.00000000000E+00 0.  1.
         21    1    1    2  504  501  0.46041122137E+02 -0.11541043861E+03  0.12667966276E+04  0.12728758973E+04  0.00000000000E+00 0.  1.
<mgrwt>
<rscale>  2 0.12425520E+03</rscale>
<asrwt>0</asrwt>
<pdfrwt beam="1">  1       21 0.19712095E+00 0.12425520E+03</pdfrwt>
<pdfrwt beam="2">  1       21 0.52330116E-01 0.12425520E+03</pdfrwt>
<totfact> 0.53618952E+02</totfact>
</mgrwt>
</event>
<event>
 4    1  0.6024238E+003  0.2192166E+03  0.7546771E-02  0.1134468E+00
         21   -1    0    0  504  501  0.00000000000E+00  0.00000000000E+00  0.26343750180E+03  0.26343750180E+03  0.00000000000E+00 0.  1.
         21   -1    0    0  503  502 -0.00000000000E+00 -0.00000000000E+00 -0.19367644463E+03  0.19367644463E+03  0.00000000000E+00 0.  1.
         21    1    1    2  503  501  0.14882884057E+03  0.16095310536E+03 -0.20223305994E+02  0.22014746879E+03  0.00000000000E+00 0.  1.
         21    1    1    2  504  502 -0.14882884057E+03 -0.16095310536E+03  0.89984363159E+02  0.23696647764E+03  0.00000000000E+00 0.  1.
<mgrwt>
<rscale>  2 0.21921662E+03</rscale>
<asrwt>0</asrwt>
<pdfrwt beam="1">  1       21 0.40528847E-01 0.21921662E+03</pdfrwt>
<pdfrwt beam="2">  1       21 0.29796376E-01 0.21921662E+03</pdfrwt>
<totfact> 0.62591717E+04</totfact>
</mgrwt>
</event>
<event>
 4    1  0.6024238E+003  0.1036523E+03  0.7546771E-02  0.1272798E+00
         21   -1    0    0  503  501  0.00000000000E+00  0.00000000000E+00  0.11961814470E+03  0.11961814470E+03  0.00000000000E+00 0.  1.
         21   -1    0    0  504  502 -0.00000000000E+00 -0.00000000000E+00 -0.10570962619E+03  0.10570962619E+03  0.00000000000E+00 0.  1.
         21    1    1    2  503  502 -0.54518461429E+02  0.88156293860E+02  0.50637954044E+02  0.11536029288E+03  0.00000000000E+00 0.  1.
         21    1    1    2  504  501  0.54518461429E+02 -0.88156293860E+02 -0.36729435531E+02  0.10996747800E+03  0.00000000000E+00 0.  1.
<mgrwt>
<rscale>  2 0.10365228E+03</rscale>
<asrwt>0</asrwt>
<pdfrwt beam="1">  1       21 0.18402792E-01 0.10365228E+03</pdfrwt>
<pdfrwt beam="2">  1       21 0.16263019E-01 0.10365228E+03</pdfrwt>
<totfact> 0.91176831E+05</totfact>
</mgrwt>
</event>
<event>
 4    1  0.6024238E+003  0.1170021E+03  0.7546771E-02  0.1248126E+00
         21   -1    0    0  503  501  0.00000000000E+00  0.00000000000E+00  0.81775272276E+02  0.81775272276E+02  0.00000000000E+00 0.  1.
         21   -1    0    0  504  502 -0.00000000000E+00 -0.00000000000E+00 -0.69576916039E+03  0.69576916039E+03  0.00000000000E+00 0. -1.
         21    1    1    2  503  502 -0.11549884168E+03  0.18695347482E+02 -0.64578630678E+03  0.65629981904E+03  0.00000000000E+00 0. -1.
         21    1    1    2  504  501  0.11549884168E+03 -0.18695347482E+02  0.31792418673E+02  0.12124461362E+03  0.00000000000E+00 0.  1.
<mgrwt>
<rscale>  2 0.11700213E+03</rscale>
<asrwt>0</asrwt>
<pdfrwt beam="1">  1       21 0.12580811E-01 0.11700213E+03</pdfrwt>
<pdfrwt beam="2">  1       21 0.10704141E+00 0.11700213E+03</pdfrwt>
<totfact> 0.39339918E+04</totfact>
</mgrwt>
</event>
<event>
 4    1  0.6024238E+003  0.1251329E+03  0.7546771E-02  0.1234862E+00
         21   -1    0    0  504  501  0.00000000000E+00  0.00000000000E+00  0.78729418080E+02  0.78729418080E+02  0.00000000000E+00 0.  1.
         21   -1    0    0  503  502 -0.00000000000E+00 -0.00000000000E+00 -0.37719022650E+03  0.37719022650E+03  0.00000000000E+00 0. -1.
         21    1    1    2  503  501  0.82040265383E+02  0.94486125460E+02  0.75017409408E+01  0.12535752537E+03  0.00000000000E+00 0.  1.
         21    1    1    2  504  502 -0.82040265383E+02 -0.94486125460E+02 -0.30596254936E+03  0.33056211922E+03  0.00000000000E+00 0. -1.
<mgrwt>
<rscale>  2 0.12513286E+03</rscale>
<asrwt>0</asrwt>
<pdfrwt beam="1">  1       21 0.12112218E-01 0.12513286E+03</pdfrwt>
<pdfrwt beam="2">  1       21 0.58029267E-01 0.12513286E+03</pdfrwt>
<totfact> 0.16408068E+05</totfact>
</mgrwt>
</event>
<event>
 4    1  0.6024238E+003  0.2637636E+03  0.7546771E-02  0.1104903E+00
         21   -1    0    0  504  501  0.00000000000E+00  0.00000000000E+00  0.90249566386E+02  0.90249566386E+02  0.00000000000E+00 0. -1.
         21   -1    0    0  503  502 -0.00000000000E+00 -0.00000000000E+00 -0.83489090973E+03  0.83489090973E+03  0.00000000000E+00 0. -1.
         21    1    1    2  503  501  0.25114565860E+03  0.80604564618E+02 -0.50040703727E+03  0.56566636865E+03  0.00000000000E+00 0. -1.
         21    1    1    2  504  502 -0.25114565860E+03 -0.80604564618E+02 -0.24423430607E+03  0.35947410746E+03  0.00000000000E+00 0. -1.
<mgrwt>
<rscale>  2 0.26376360E+03</rscale>
<asrwt>0</asrwt>
<pdfrwt beam="1">  1       21 0.13884548E-01 0.26376360E+03</pdfrwt>
<pdfrwt beam="2">  1       21 0.12844476E+00 0.26376360E+03</pdfrwt>
<totfact> 0.19306586E+04</totfact>
</mgrwt>
</event>
<event>
 4    1  0.6024238E+003  0.1138195E+03  0.7546771E-02  0.1253656E+00
         21   -1    0    0  503  501  0.00000000000E+00  0.00000000000E+00  0.95511930229E+02  0.95511930229E+02  0.00000000000E+00 0.  1.
         21   -1    0    0  501  502 -0.00000000000E+00 -0.00000000000E+00 -0.57458326412E+03  0.57458326412E+03  0.00000000000E+00 0.  1.
         21    1    1    2  503  504 -0.24881103464E+02  0.11106666671E+03  0.53308180272E+02  0.12568466831E+03  0.00000000000E+00 0.  1.
         21    1    1    2  504  502  0.24881103464E+02 -0.11106666671E+03 -0.53237951416E+03  0.54441052604E+03  0.00000000000E+00 0.  1.
<mgrwt>
<rscale>  2 0.11381948E+03</rscale>
<asrwt>0</asrwt>
<pdfrwt beam="1">  1       21 0.14694143E-01 0.11381948E+03</pdfrwt>
<pdfrwt beam="2">  1       21 0.88397426E-01 0.11381948E+03</pdfrwt>
<totfact> 0.46584020E+04</totfact>
</mgrwt>
</event>
<event>
 4    1  0.6024238E+003  0.1076385E+03  0.7546771E-02  0.1265007E+00
         21   -1    0    0  504  501  0.00000000000E+00  0.00000000000E+00  0.76112662087E+03  0.76112662087E+03  0.00000000000E+00 0.  1.
         21   -1    0    0  501  502 -0.00000000000E+00 -0.00000000000E+00 -0.74767619208E+02  0.74767619208E+02  0.00000000000E+00 0.  1.
         21    1    1    2  503  502  0.87851467411E+02  0.62194558957E+02 -0.29803153221E+02  0.11168827795E+03  0.00000000000E+00 0.  1.
         21    1    1    2  504  503 -0.87851467411E+02 -0.62194558957E+02  0.71616215489E+03  0.72420596213E+03  0.00000000000E+00 0.  1.
<mgrwt>
<rscale>  2 0.10763849E+03</rscale>
<asrwt>0</asrwt>
<pdfrwt beam="1">  1       21 0.11709640E+00 0.10763849E+03</pdfrwt>
<pdfrwt beam="2">  1       21 0.11502711E-01 0.10763849E+03</pdfrwt>
<totfact> 0.37464902E+04</totfact>
</mgrwt>
</event>
<event>
 4    1  0.6024238E+003  0.1429353E+03  0.7546771E-02  0.1209433E+00
         21   -1    0    0  504  501  0.00000000000E+00  0.00000000000E+00  0.65388806085E+03  0.65388806085E+03  0.00000000000E+00 0. -1.
         21   -1    0    0  503  502 -0.00000000000E+00 -0.00000000000E+00 -0.42563535476E+03  0.42563535476E+03  0.00000000000E+00 0. -1.
         21    1    1    2  503  501  0.14290752175E+03 -0.28174407168E+01 -0.40544663448E+03  0.42990402552E+03  0.00000000000E+00 0. -1.
         21    1    1    2  504  502 -0.14290752175E+03  0.28174407168E+01  0.63369934057E+03  0.64961939009E+03  0.00000000000E+00 0. -1.
<mgrwt>
<rscale>  2 0.14293529E+03</rscale>
<asrwt>0</asrwt>
<pdfrwt beam="1">  1       21 0.10059816E+00 0.14293529E+03</pdfrwt>
<pdfrwt beam="2">  1       21 0.65482362E-01 0.14293529E+03</pdfrwt>
<totfact> 0.18273172E+03</totfact>
</mgrwt>
</event>
<event>
 4    1  0.6024238E+003  0.1031617E+03  0.7546771E-02  0.1273784E+00
         21   -1    0    0  503  501  0.00000000000E+00  0.00000000000E+00  0.86119640543E+03  0.86119640543E+03  0.00000000000E+00 0.  1.
         21   -1    0    0  504  502 -0.00000000000E+00 -0.00000000000E+00 -0.16740507268E+02  0.16740507268E+02  0.00000000000E+00 0.  1.
         21    1    1    2  503  502  0.10162128319E+03 -0.17760747695E+02  0.19761765847E+03  0.22292390696E+03  0.00000000000E+00 0.  1.
         21    1    1    2  504  501 -0.10162128319E+03  0.17760747695E+02  0.64683823969E+03  0.65501300573E+03  0.00000000000E+00 0.  1.
<mgrwt>
<rscale>  2 0.10316167E+03</rscale>
<asrwt>0</asrwt>
<pdfrwt beam="1">  1       21 0.13249172E+00 0.10316167E+03</pdfrwt>
<pdfrwt beam="2">  1       21 0.25754633E-02 0.10316167E+03</pdfrwt>
<totfact> 0.34414288E+05</totfact>
</mgrwt>
</event>
<event>
 4    1  0.6024238E+003  0.2111174E+03  0.7546771E-02  0.1140684E+00
         21   -1    0    0  503  501  0.00000000000E+00  0.00000000000E+00  0.20784994488E+03  0.20784994488E+03  0.00000000000E+00 0.  1.
         21   -1    0    0  504  502 -0.00000000000E+00 -0.00000000000E+00 -0.21443844247E+03  0.21443844247E+03  0.00000000000E+00 0.  1.
         21    1    1    2  503  502  0.16632444509E+03 -0.13002589699E+03 -0.39751589383E+01  0.21115481716E+03  0.00000000000E+00 0.  1.
         21    1    1    2  504  501 -0.16632444509E+03  0.13002589699E+03 -0.26133386482E+01  0.21113357019E+03  0.00000000000E+00 0.  1.
<mgrwt>
<rscale>  2 0.21111740E+03</rscale>
<asrwt>0</asrwt>
<pdfrwt beam="1">  1       21 0.31976914E-01 0.21111740E+03</pdfrwt>
<pdfrwt beam="2">  1       21 0.32990530E-01 0.21111740E+03</pdfrwt>
<totfact> 0.82553512E+04</totfact>
</mgrwt>
</event>
<event>
 4    1  0.6024238E+003  0.1231520E+03  0.7546771E-02  0.1237986E+00
         21   -1    0    0  503  501  0.00000000000E+00  0.00000000000E+00  0.23526467092E+03  0.23526467092E+03  0.00000000000E+00 0. -1.
         21   -1    0    0  501  502 -0.00000000000E+00 -0.00000000000E+00 -0.69341614557E+02  0.69341614557E+02  0.00000000000E+00 0. -1.
         21    1    1    2  503  504  0.12129845925E+03  0.21286039572E+02  0.12334995799E+03  0.17430325250E+03  0.00000000000E+00 0. -1.
         21    1    1    2  504  502 -0.12129845925E+03 -0.21286039572E+02  0.42573098376E+02  0.13030303297E+03  0.00000000000E+00 0. -1.
<mgrwt>
<rscale>  2 0.12315199E+03</rscale>
<asrwt>0</asrwt>
<pdfrwt beam="1">  1       21 0.36194564E-01 0.12315199E+03</pdfrwt>
<pdfrwt beam="2">  1       21 0.10667941E-01 0.12315199E+03</pdfrwt>
<totfact> 0.53693430E+05</totfact>
</mgrwt>
</event>
<event>
 4    1  0.6024238E+003  0.1177217E+03  0.7546771E-02  0.1246904E+00
         21   -1    0    0  503  501  0.00000000000E+00  0.00000000000E+00  0.13745709019E+03  0.13745709019E+03  0.00000000000E+00 0. -1.
         21   -1    0    0  504  502 -0.00000000000E+00 -0.00000000000E+00 -0.27149018646E+03  0.27149018646E+03  0.00000000000E+00 0.  1.
         21    1    1    2  503  502 -0.11437292940E+03  0.27878725523E+02  0.95104498396E+02  0.15133821702E+03  0.00000000000E+00 0. -1.
         21    1    1    2  504  501  0.11437292940E+03 -0.27878725523E+02 -0.22913759466E+03  0.25760905963E+03  0.00000000000E+00 0.  1.
<mgrwt>
<rscale>  2 0.11772166E+03</rscale>
<asrwt>0</asrwt>
<pdfrwt beam="1">  1       21 0.21147245E-01 0.11772166E+03</pdfrwt>
<pdfrwt beam="2">  1       21 0.41767720E-01 0.11772166E+03</pdfrwt>
<totfact> 0.11791725E+05</totfact>
</mgrwt>
</event>
<event>
 4    1  0.6024238E+003  0.1209713E+03  0.7546771E-02  0.1241503E+00
         21   -1    0    0  503  501  0.00000000000E+00  0.00000000000E+00  0.26871966903E+03  0.26871966903E+03  0.00000000000E+00 0. -1.
         21   -1    0    0  504  502 -0.00000000000E+00 -0.00000000000E+00 -0.94991845849E+03  0.94991845849E+03  0.00000000000E+00 0.  1.
         21    1    1    2  503  502  0.19019842006E+01 -0.12095634786E+03 -0.93219467571E+03  0.94001115369E+03  0.00000000000E+00 0.  1.
         21    1    1    2  504  501 -0.19019842006E+01  0.12095634786E+03  0.25099588625E+03  0.27862697383E+03  0.00000000000E+00 0. -1.
<mgrwt>
<rscale>  2 0.12097130E+03</rscale>
<asrwt>0</asrwt>
<pdfrwt beam="1">  1       21 0.41341488E-01 0.12097130E+03</pdfrwt>
<pdfrwt beam="2">  1       21 0.14614130E+00 0.12097130E+03</pdfrwt>
<totfact> 0.19574101E+03</totfact>
</mgrwt>
</event>
<event>
 4    1  0.6024238E+003  0.1128757E+03  0.7546771E-02  0.1255335E+00
         21   -1    0    0  504  501  0.00000000000E+00  0.00000000000E+00  0.60198819090E+02  0.60198819090E+02  0.00000000000E+00 0.  1.
         21   -1    0    0  503  502 -0.00000000000E+00 -0.00000000000E+00 -0.21174602827E+03  0.21174602827E+03  0.00000000000E+00 0.  1.
         21    1    1    2  503  501 -0.84230848478E+02 -0.75140500982E+02 -0.72840813223E+02  0.13433806160E+03  0.00000000000E+00 0.  1.
         21    1    1    2  504  502  0.84230848478E+02  0.75140500982E+02 -0.78706395957E+02  0.13760678576E+03  0.00000000000E+00 0.  1.
<mgrwt>
<rscale>  2 0.11287573E+03</rscale>
<asrwt>0</asrwt>
<pdfrwt beam="1">  1       21 0.92613568E-02 0.11287573E+03</pdfrwt>
<pdfrwt beam="2">  1       21 0.32576312E-01 0.11287573E+03</pdfrwt>
<totfact> 0.84432712E+05</totfact>
</mgrwt>
</event>
<event>
 4    1  0.6024238E+003  0.1182430E+03  0.7546771E-02  0.1246024E+00
         21   -1    0    0  503  501  0.00000000000E+00  0.00000000000E+00  0.58398372716E+02  0.58398372716E+02  0.00000000000E+00 0.  1.
         21   -1    0    0  504  502 -0.00000000000E+00 -0.00000000000E+00 -0.30264956951E+03  0.30264956951E+03  0.00000000000E+00 0. -1.
         21    1    1    2  503  502 -0.53202857631E+02 -0.10559760104E+03 -0.39608297767E+02  0.12470049983E+03  0.00000000000E+00 0.  1.
         21    1    1    2  504  501  0.53202857631E+02  0.10559760104E+03 -0.20464289903E+03  0.23634744240E+03  0.00000000000E+00 0. -1.
<mgrwt>
<rscale>  2 0.11824296E+03</rscale>
<asrwt>0</asrwt>
<pdfrwt beam="1">  1       21 0.89843651E-02 0.11824296E+03</pdfrwt>
<pdfrwt beam="2">  1       21 0.46561472E-01 0.11824296E+03</pdfrwt>
<totfact> 0.43764444E+05</totfact>
</mgrwt>
</event>
<event>
 4    1  0.6024238E+003  0.1125647E+03  0.7546771E-02  0.1255893E+00
         21   -1    0    0  504  501  0.00000000000E+00  0.00000000000E+00  0.72561025757E+03  0.72561025757E+03  0.00000000000E+00 0.  1.
         21   -1    0    0  503  502 -0.00000000000E+00 -0.00000000000E+00 -0.32239896935E+02  0.32239896935E+02  0.00000000000E+00 0. -1.
         21    1    1    2  503  501  0.39530539426E+02  0.10539515873E+03  0.60322740618E+03  0.61364004644E+03  0.00000000000E+00 0.  1.
         21    1    1    2  504  502 -0.39530539426E+02 -0.10539515873E+03  0.90142954457E+02  0.14421010807E+03  0.00000000000E+00 0. -1.
<mgrwt>
<rscale>  2 0.11256466E+03</rscale>
<asrwt>0</asrwt>
<pdfrwt beam="1">  1       21 0.11163234E+00 0.11256466E+03</pdfrwt>
<pdfrwt beam="2">  1       21 0.49599847E-02 0.11256466E+03</pdfrwt>
<totfact> 0.17687140E+05</totfact>
</mgrwt>
</event>
<event>
 4    1  0.6024238E+003  0.1001576E+03  0.7546771E-02  0.1279965E+00
         21   -1    0    0  504  501  0.00000000000E+00  0.00000000000E+00  0.89007864843E+02  0.89007864843E+02  0.00000000000E+00 0. -1.
         21   -1    0    0  503  502 -0.00000000000E+00 -0.00000000000E+00 -0.16110549444E+03  0.16110549444E+03  0.00000000000E+00 0. -1.
         21    1    1    2  503  501 -0.34590606387E+02  0.93994828041E+02 -0.10459469182E+03  0.14481570117E+03  0.00000000000E+00 0. -1.
         21    1    1    2  504  502  0.34590606387E+02 -0.93994828041E+02  0.32497062231E+02  0.10529765811E+03  0.00000000000E+00 0. -1.
<mgrwt>
<rscale>  2 0.10015756E+03</rscale>
<asrwt>0</asrwt>
<pdfrwt beam="1">  1       21 0.13693518E-01 0.10015756E+03</pdfrwt>
<pdfrwt beam="2">  1       21 0.24785461E-01 0.10015756E+03</pdfrwt>
<totfact> 0.71515790E+05</totfact>
</mgrwt>
</event>
<event>
 4    1  0.6024238E+003  0.1138839E+03  0.7546771E-02  0.1253542E+00
         21   -1    0    0  503  501  0.00000000000E+00  0.00000000000E+00  0.53867852198E+02  0.53867852198E+02  0.00000000000E+00 0. -1.
         21   -1    0    0  504  502 -0.00000000000E+00 -0.00000000000E+00 -0.38491532197E+03  0.38491532197E+03  0.00000000000E+00 0. -1.
         21    1    1    2  503  502  0.49370707306E+02 -0.10262588546E+03 -0.31264582349E+02  0.11809747337E+03  0.00000000000E+00 0. -1.
         21    1    1    2  504  501 -0.49370707306E+02  0.10262588546E+03 -0.29978288742E+03  0.32068570080E+03  0.00000000000E+00 0. -1.
<mgrwt>
<rscale>  2 0.11388388E+03</rscale>
<asrwt>0</asrwt>
<pdfrwt beam="1">  1       21 0.82873619E-02 0.11388388E+03</pdfrwt>
<pdfrwt beam="2">  1       21 0.59217742E-01 0.11388388E+03</pdfrwt>
<totfact> 0.30588494E+05</totfact>
</mgrwt>
</event>
<event>
 4    1  0.6024238E+003  0.1063654E+03  0.7546771E-02  0.1267453E+00
         21   -1    0    0  503  501  0.00000000000E+00  0.00000000000E+00  0.78208158394E+03  0.78208158394E+03  0.00000000000E+00 0. -1.
         21   -1    0    0  501  502 -0.00000000000E+00 -0.00000000000E+00 -0.27092195521E+02  0.27092195521E+02  0.00000000000E+00 0.  1.
         21    1    1    2  503  504 -0.74220230810E+02  0.76190217752E+02  0.65369615157E+03  0.66229317565E+03  0.00000000000E+00 0. -1.
         21    1    1    2  504  502  0.74220230810E+02 -0.76190217752E+02  0.10129323685E+03  0.14688060381E+03  0.00000000000E+00 0.  1.
<mgrwt>
<rscale>  2 0.10636537E+03</rscale>
<asrwt>0</asrwt>
<pdfrwt beam="1">  1       21 0.12032023E+00 0.10636537E+03</pdfrwt>
<pdfrwt beam="2">  1       21 0.41680307E-02 0.10636537E+03</pdfrwt>
<totfact> 0.19787721E+05</totfact>
</mgrwt>
</event>
<event>
 4    1  0.6024238E+003  0.2182985E+03  0.7546771E-02  0.1135158E+00
         21   -1    0    0  502  501  0.00000000000E+00  0.00000000000E+00  0.24475576566E+04  0.24475576566E+04  0.00000000000E+00 0. -1.
         21   -1    0    0  503  502 -0.00000000000E+00 -0.00000000000E+00 -0.32474012220E+03  0.32474012220E+03  0.00000000000E+00 0. -1.
         21    1    1    2  503  504 -0.93022575901E+02 -0.19748683892E+03 -0.28254388440E+03  0.35705083362E+03  0.00000000000E+00 0. -1.
         21    1    1    2  504  501  0.93022575901E+02  0.19748683892E+03  0.24053614188E+04  0.24152469452E+04  0.00000000000E+00 0. -1.
<mgrwt>
<rscale>  2 0.21829854E+03</rscale>
<asrwt>0</asrwt>
<pdfrwt beam="1">  1       21 0.37654732E+00 0.21829854E+03</pdfrwt>
<pdfrwt beam="2">  1       21 0.49960020E-01 0.21829854E+03</pdfrwt>
<totfact> 0.44247509E+01</totfact>
</mgrwt>
</event>
<event>
 4    1  0.6024238E+003  0.1249573E+03  0.7546771E-02  0.1235136E+00
         21   -1    0    0  503  501  0.00000000000E+00  0.00000000000E+00  0.75379887965E+02  0.75379887965E+02  0.00000000000E+00 0.  1.
         21   -1    0    0  504  502 -0.00000000000E+00 -0.00000000000E+00 -0.43557351399E+03  0.43557351399E+03  0.00000000000E+00 0. -1.
         21    1    1    2  503  502  0.12172643794E+03 -0.28231351345E+02  0.49146556004E+01  0.12505394328E+03  0.00000000000E+00 0.  1.
         21    1    1    2  504  501 -0.12172643794E+03  0.28231351345E+02 -0.36510828162E+03  0.38589945867E+03  0.00000000000E+00 0. -1.
<mgrwt>
<rscale>  2 0.12495733E+03</rscale>
<asrwt>0</asrwt>
<pdfrwt beam="1">  1       21 0.11596906E-01 0.12495733E+03</pdfrwt>
<pdfrwt beam="2">  1       21 0.67011312E-01 0.12495733E+03</pdfrwt>
<totfact> 0.13031298E+05</totfact>
</mgrwt>
</event>
<event>
 4    1  0.6024238E+003  0.1178047E+03  0.7546771E-02  0.1246763E+00
         21   -1    0    0  502  501  0.00000000000E+00  0.00000000000E+00  0.18651780252E+03  0.18651780252E+03  0.00000000000E+00 0. -1.
         21   -1    0    0  503  502 -0.00000000000E+00 -0.00000000000E+00 -0.14789595277E+03  0.14789595277E+03  0.00000000000E+00 0.  1.
         21    1    1    2  503  504  0.11780167895E+03 -0.84092913955E+00 -0.98555897337E+02  0.15359429555E+03  0.00000000000E+00 0.  1.
         21    1    1    2  504  501 -0.11780167895E+03  0.84092913955E+00  0.13717774708E+03  0.18081945974E+03  0.00000000000E+00 0. -1.
<mgrwt>
<rscale>  2 0.11780468E+03</rscale>
<asrwt>0</asrwt>
<pdfrwt beam="1">  1       21 0.28695047E-01 0.11780468E+03</pdfrwt>
<pdfrwt beam="2">  1       21 0.22753223E-01 0.11780468E+03</pdfrwt>
<totfact> 0.21459945E+05</totfact>
</mgrwt>
</event>
<event>
 4    1  0.6024238E+003  0.1011637E+03  0.7546771E-02  0.1277868E+00
         21   -1    0    0  504  501  0.00000000000E+00  0.00000000000E+00  0.72179285178E+02  0.72179285178E+02  0.00000000000E+00 0. -1.
         21   -1    0    0  503  502 -0.00000000000E+00 -0.00000000000E+00 -0.14276947676E+03  0.14276947676E+03  0.00000000000E+00 0. -1.
         21    1    1    2  503  501  0.88812204016E+02 -0.48440620357E+02 -0.26380607382E+02  0.10454682075E+03  0.00000000000E+00 0. -1.
         21    1    1    2  504  502 -0.88812204016E+02  0.48440620357E+02 -0.44209584198E+02  0.11040194119E+03  0.00000000000E+00 0. -1.
<mgrwt>
<rscale>  2 0.10116374E+03</rscale>
<asrwt>0</asrwt>
<pdfrwt beam="1">  1       21 0.11104505E-01 0.10116374E+03</pdfrwt>
<pdfrwt beam="2">  1       21 0.21964535E-01 0.10116374E+03</pdfrwt>
<totfact> 0.12965766E+06</totfact>
</mgrwt>
</event>
<event>
 4    1  0.6024238E+003  0.2089529E+03  0.7546771E-02  0.1142398E+00
         21   -1    0    0  504  501  0.00000000000E+00  0.00000000000E+00  0.37464150448E+03  0.37464150448E+03  0.00000000000E+00 0. -1.
         21   -1    0    0  503  502 -0.00000000000E+00 -0.00000000000E+00 -0.18463551314E+03  0.18463551314E+03  0.00000000000E+00 0. -1.
         21    1    1    2  503  501  0.31742603263E+02  0.20652779756E+03 -0.74818817574E+02  0.22194409091E+03  0.00000000000E+00 0. -1.
         21    1    1    2  504  502 -0.31742603263E+02 -0.20652779756E+03  0.26482480891E+03  0.33733292671E+03  0.00000000000E+00 0. -1.
<mgrwt>
<rscale>  2 0.20895292E+03</rscale>
<asrwt>0</asrwt>
<pdfrwt beam="1">  1       21 0.57637154E-01 0.20895292E+03</pdfrwt>
<pdfrwt beam="2">  1       21 0.28405464E-01 0.20895292E+03</pdfrwt>
<totfact> 0.33169720E+04</totfact>
</mgrwt>
</event>
<event>
 4    1  0.6024238E+003  0.1064844E+03  0.7546771E-02  0.1267222E+00
         21   -1    0    0  504  501  0.00000000000E+00  0.00000000000E+00  0.43762834559E+03  0.43762834559E+03  0.00000000000E+00 0.  1.
         21   -1    0    0  503  502 -0.00000000000E+00 -0.00000000000E+00 -0.72533464014E+02  0.72533464014E+02  0.00000000000E+00 0. -1.
         21    1    1    2  503  501  0.91675023426E+02 -0.54172173037E+02  0.38705585464E+03  0.40143638208E+03  0.00000000000E+00 0.  1.
         21    1    1    2  504  502 -0.91675023426E+02  0.54172173037E+02 -0.21960973061E+02  0.10872542752E+03  0.00000000000E+00 0. -1.
<mgrwt>
<rscale>  2 0.10648443E+03</rscale>
<asrwt>0</asrwt>
<pdfrwt beam="1">  1       21 0.67327436E-01 0.10648443E+03</pdfrwt>
<pdfrwt beam="2">  1       21 0.11158995E-01 0.10648443E+03</pdfrwt>
<totfact> 0.13903469E+05</totfact>
</mgrwt>
</event>
<event>
 4    1  0.6024238E+003  0.1178824E+03  0.7546771E-02  0.1246632E+00
         21   -1    0    0  503  501  0.00000000000E+00  0.00000000000E+00  0.36920016462E+03  0.36920016462E+03  0.00000000000E+00 0. -1.
         21   -1    0    0  504  502 -0.00000000000E+00 -0.00000000000E+00 -0.52148058370E+02  0.52148058370E+02  0.00000000000E+00 0.  1.
         21    1    1    2  503  502 -0.99345222816E+02  0.63456876648E+02  0.47400275067E+02  0.12705524219E+03  0.00000000000E+00 0.  1.
         21    1    1    2  504  501  0.99345222816E+02 -0.63456876648E+02  0.26965183118E+03  0.29429298081E+03  0.00000000000E+00 0. -1.
<mgrwt>
<rscale>  2 0.11788235E+03</rscale>
<asrwt>0</asrwt>
<pdfrwt beam="1">  1       21 0.56800024E-01 0.11788235E+03</pdfrwt>
<pdfrwt beam="2">  1       21 0.80227785E-02 0.11788235E+03</pdfrwt>
<totfact> 0.35286441E+05</totfact>
</mgrwt>
</event>
<event>
 4    1  0.6024238E+003  0.1030254E+03  0.7546771E-02  0.1274060E+00
         21   -1    0    0  503  501  0.00000000000E+00  0.00000000000E+00  0.20403306551E+03  0.20403306551E+03  0.00000000000E+00 0. -1.
         21   -1    0    0  504  502 -0.00000000000E+00 -0.00000000000E+00 -0.68621466738E+02  0.68621466738E+02  0.00000000000E+00 0. -1.
         21    1    1    2  503  502 -0.61909424184E+02  0.82349598317E+02  0.13475570825E+03  0.16962704398E+03  0.00000000000E+00 0. -1.
         21    1    1    2  504  501  0.61909424184E+02 -0.82349598317E+02  0.65589052637E+00  0.10302748826E+03  0.00000000000E+00 0. -1.
<mgrwt>
<rscale>  2 0.10302540E+03</rscale>
<asrwt>0</asrwt>
<pdfrwt beam="1">  1       21 0.31389702E-01 0.10302540E+03</pdfrwt>
<pdfrwt beam="2">  1       21 0.10557149E-01 0.10302540E+03</pdfrwt>
<totfact> 0.72184848E+05</totfact>
</mgrwt>
</event>
<event>
 4    1  0.6024238E+003  0.1196074E+03  0.7546771E-02  0.1243746E+00
         21   -1    0    0  504  501  0.00000000000E+00  0.00000000000E+00  0.63248335069E+03  0.63248335069E+03  0.00000000000E+00 0. -1.
         21   -1    0    0  503  502 -0.00000000000E+00 -0.00000000000E+00 -0.33790494787E+02  0.33790494787E+02  0.00000000000E+00 0. -1.
         21    1    1    2  503  501 -0.20643324515E+02 -0.11781248970E+03  0.49089884325E+03  0.50525993694E+03  0.00000000000E+00 0. -1.
         21    1    1    2  504  502  0.20643324515E+02  0.11781248970E+03  0.10779401265E+03  0.16101390853E+03  0.00000000000E+00 0. -1.
<mgrwt>
<rscale>  2 0.11960740E+03</rscale>
<asrwt>0</asrwt>
<pdfrwt beam="1">  1       21 0.97305122E-01 0.11960740E+03</pdfrwt>
<pdfrwt beam="2">  1       21 0.51985381E-02 0.11960740E+03</pdfrwt>
<totfact> 0.22536949E+05</totfact>
</mgrwt>
</event>
<event>
 4    1  0.6024238E+003  0.1181974E+03  0.7546771E-02  0.1246101E+00
         21   -1    0    0  503  501  0.00000000000E+00  0.00000000000E+00  0.15293378224E+03  0.15293378224E+03  0.00000000000E+00 0. -1.
         21   -1    0    0  504  502 -0.00000000000E+00 -0.00000000000E+00 -0.19623044506E+03  0.19623044506E+03  0.00000000000E+00 0. -1.
         21    1    1    2  503  502 -0.10911846454E+03  0.45428856532E+02  0.10598443965E+03  0.15875554087E+03  0.00000000000E+00 0. -1.
         21    1    1    2  504  501  0.10911846454E+03 -0.45428856532E+02 -0.14928110247E+03  0.19040868643E+03  0.00000000000E+00 0. -1.
<mgrwt>
<rscale>  2 0.11819738E+03</rscale>
<asrwt>0</asrwt>
<pdfrwt beam="1">  1       21 0.23528274E-01 0.11819738E+03</pdfrwt>
<pdfrwt beam="2">  1       21 0.30189299E-01 0.11819738E+03</pdfrwt>
<totfact> 0.18282697E+05</totfact>
</mgrwt>
</event>
<event>
 4    1  0.6024238E+003  0.1138238E+03  0.7546771E-02  0.1253648E+00
         21   -1    0    0  502  501  0.00000000000E+00  0.00000000000E+00  0.41779682985E+03  0.41779682985E+03  0.00000000000E+00 0. -1.
         21   -1    0    0  503  502 -0.00000000000E+00 -0.00000000000E+00 -0.69287214470E+02  0.69287214470E+02  0.00000000000E+00 0.  1.
         21    1    1    2  503  504 -0.10350672882E+03 -0.47352128742E+02 -0.67614957314E+01  0.11402449224E+03  0.00000000000E+00 0.  1.
         21    1    1    2  504  501  0.10350672882E+03  0.47352128742E+02  0.35527111111E+03  0.37305955208E+03  0.00000000000E+00 0. -1.
<mgrwt>
<rscale>  2 0.11382384E+03</rscale>
<asrwt>0</asrwt>
<pdfrwt beam="1">  1       21 0.64276434E-01 0.11382384E+03</pdfrwt>
<pdfrwt beam="2">  1       21 0.10659572E-01 0.11382384E+03</pdfrwt>
<totfact> 0.16596913E+05</totfact>
</mgrwt>
</event>
<event>
 4    1  0.6024238E+003  0.1055714E+03  0.7546771E-02  0.1268998E+00
         21   -1    0    0  502  501  0.00000000000E+00  0.00000000000E+00  0.15219338579E+03  0.15219338579E+03  0.00000000000E+00 0.  1.
         21   -1    0    0  504  502 -0.00000000000E+00 -0.00000000000E+00 -0.10630274599E+03  0.10630274599E+03  0.00000000000E+00 0. -1.
         21    1    1    2  503  501  0.35073758473E+02 -0.99574895804E+02  0.95035816739E+02  0.14204624202E+03  0.00000000000E+00 0.  1.
         21    1    1    2  504  503 -0.35073758473E+02  0.99574895804E+02 -0.49145176940E+02  0.11644988976E+03  0.00000000000E+00 0. -1.
<mgrwt>
<rscale>  2 0.10557144E+03</rscale>
<asrwt>0</asrwt>
<pdfrwt beam="1">  1       21 0.23414367E-01 0.10557144E+03</pdfrwt>
<pdfrwt beam="2">  1       21 0.16354269E-01 0.10557144E+03</pdfrwt>
<totfact> 0.57885070E+05</totfact>
</mgrwt>
</event>
<event>
 4    1  0.6024238E+003  0.1055612E+03  0.7546771E-02  0.1269018E+00
         21   -1    0    0  503  501  0.00000000000E+00  0.00000000000E+00  0.26483888599E+03  0.26483888599E+03  0.00000000000E+00 0. -1.
         21   -1    0    0  504  502 -0.00000000000E+00 -0.00000000000E+00 -0.10714416681E+03  0.10714416681E+03  0.00000000000E+00 0. -1.
         21    1    1    2  503  502  0.48040203221E+01  0.10545178738E+03  0.22378985528E+03  0.24743697662E+03  0.00000000000E+00 0. -1.
         21    1    1    2  504  501 -0.48040203221E+01 -0.10545178738E+03 -0.66095136102E+02  0.12454607617E+03  0.00000000000E+00 0. -1.
<mgrwt>
<rscale>  2 0.10556116E+03</rscale>
<asrwt>0</asrwt>
<pdfrwt beam="1">  1       21 0.40744444E-01 0.10556116E+03</pdfrwt>
<pdfrwt beam="2">  1       21 0.16483718E-01 0.10556116E+03</pdfrwt>
<totfact> 0.19632542E+05</totfact>
</mgrwt>
</event>
<event>
 4    1  0.6024238E+003  0.1840114E+03  0.7546771E-02  0.1163976E+00
         21   -1    0    0  503  501  0.00000000000E+00  0.00000000000E+00  0.93294567851E+02  0.93294567851E+02  0.00000000000E+00 0.  1.
         21   -1    0    0  504  502 -0.00000000000E+00 -0.00000000000E+00 -0.36498265798E+03  0.36498265798E+03  0.00000000000E+00 0.  1.
         21    1    1    2  503  502  0.10829389681E+03 -0.14877034350E+03 -0.15299260794E+03  0.23930507992E+03  0.00000000000E+00 0.  1.
         21    1    1    2  504  501 -0.10829389681E+03  0.14877034350E+03 -0.11869548219E+03  0.21897214591E+03  0.00000000000E+00 0.  1.
<mgrwt>
<rscale>  2 0.18401137E+03</rscale>
<asrwt>0</asrwt>
<pdfrwt beam="1">  1       21 0.14353010E-01 0.18401137E+03</pdfrwt>
<pdfrwt beam="2">  1       21 0.56151179E-01 0.18401137E+03</pdfrwt>
<totfact> 0.12725907E+05</totfact>
</mgrwt>
</event>
<event>
 4    1  0.6024238E+003  0.1133074E+03  0.7546771E-02  0.1254565E+00
         21   -1    0    0  503  501  0.00000000000E+00  0.00000000000E+00  0.50226218291E+03  0.50226218291E+03  0.00000000000E+00 0. -1.
         21   -1    0    0  504  502 -0.00000000000E+00 -0.00000000000E+00 -0.10194763936E+03  0.10194763936E+03  0.00000000000E+00 0. -1.
         21    1    1    2  503  502  0.11303437303E+03 -0.78604862992E+01  0.46166021488E+03  0.47536166309E+03  0.00000000000E+00 0. -1.
         21    1    1    2  504  501 -0.11303437303E+03  0.78604862992E+01 -0.61345671327E+02  0.12884815918E+03  0.00000000000E+00 0. -1.
<mgrwt>
<rscale>  2 0.11330736E+03</rscale>
<asrwt>0</asrwt>
<pdfrwt beam="1">  1       21 0.77271104E-01 0.11330736E+03</pdfrwt>
<pdfrwt beam="2">  1       21 0.15684252E-01 0.11330736E+03</pdfrwt>
<totfact> 0.56013534E+04</totfact>
</mgrwt>
</event>
<event>
 4    1  0.6024238E+003  0.1107184E+03  0.7546771E-02  0.1259245E+00
         21   -1    0    0  504  501  0.00000000000E+00  0.00000000000E+00  0.53402161920E+03  0.53402161920E+03  0.00000000000E+00 0.  1.
         21   -1    0    0  503  502 -0.00000000000E+00 -0.00000000000E+00 -0.26569142261E+02  0.26569142261E+02  0.00000000000E+00 0. -1.
         21    1    1    2  503  501 -0.10361443646E+03  0.39020578482E+02  0.35710220619E+03  0.37387236145E+03  0.00000000000E+00 0.  1.
         21    1    1    2  504  502  0.10361443646E+03 -0.39020578482E+02  0.15035027075E+03  0.18671840001E+03  0.00000000000E+00 0. -1.
<mgrwt>
<rscale>  2 0.11071837E+03</rscale>
<asrwt>0</asrwt>
<pdfrwt beam="1">  1       21 0.82157164E-01 0.11071837E+03</pdfrwt>
<pdfrwt beam="2">  1       21 0.40875607E-02 0.11071837E+03</pdfrwt>
<totfact> 0.49563269E+05</totfact>
</mgrwt>
</event>
<event>
 4    1  0.6024238E+003  0.1021299E+03  0.7546771E-02  0.1275880E+00
         21   -1    0    0  503  501  0.00000000000E+00  0.00000000000E+00  0.33863109279E+03  0.33863109279E+03  0.00000000000E+00 0. -1.
         21   -1    0    0  504  502 -0.00000000000E+00 -0.00000000000E+00 -0.51796798721E+02  0.51796798721E+02  0.00000000000E+00 0. -1.
         21    1    1    2  503  502  0.89673270638E+02  0.48879662326E+02  0.26770113455E+03  0.28652122835E+03  0.00000000000E+00 0. -1.
         21    1    1    2  504  501 -0.89673270638E+02 -0.48879662326E+02  0.19133159520E+02  0.10390666316E+03  0.00000000000E+00 0. -1.
<mgrwt>
<rscale>  2 0.10212990E+03</rscale>
<asrwt>0</asrwt>
<pdfrwt beam="1">  1       21 0.52097090E-01 0.10212990E+03</pdfrwt>
<pdfrwt beam="2">  1       21 0.79687385E-02 0.10212990E+03</pdfrwt>
<totfact> 0.42818765E+05</totfact>
</mgrwt>
</event>
<event>
 4    1  0.6024238E+003  0.1196421E+03  0.7546771E-02  0.1243689E+00
         21   -1    0    0  504  501  0.00000000000E+00  0.00000000000E+00  0.55697867770E+02  0.55697867770E+02  0.00000000000E+00 0.  1.
         21   -1    0    0  503  502 -0.00000000000E+00 -0.00000000000E+00 -0.28706702550E+03  0.28706702550E+03  0.00000000000E+00 0.  1.
         21    1    1    2  503  501  0.10933761777E+03  0.48574770896E+02 -0.60217327946E+02  0.13394159030E+03  0.00000000000E+00 0.  1.
         21    1    1    2  504  502 -0.10933761777E+03 -0.48574770896E+02 -0.17115182979E+03  0.20882330298E+03  0.00000000000E+00 0.  1.
<mgrwt>
<rscale>  2 0.11964206E+03</rscale>
<asrwt>0</asrwt>
<pdfrwt beam="1">  1       21 0.85689026E-02 0.11964206E+03</pdfrwt>
<pdfrwt beam="2">  1       21 0.44164158E-01 0.11964206E+03</pdfrwt>
<totfact> 0.52873828E+05</totfact>
</mgrwt>
</event>
<event>
 4    1  0.6024238E+003  0.1129721E+03  0.7546771E-02  0.1255163E+00
         21   -1    0    0  504  501  0.00000000000E+00  0.00000000000E+00  0.26357650782E+04  0.26357650782E+04  0.00000000000E+00 0. -1.
         21   -1    0    0  503  502 -0.00000000000E+00 -0.00000000000E+00 -0.93123206382E+01  0.93123206382E+01  0.00000000000E+00 0.  1.
         21    1    1    2  503  501 -0.10895043814E+02  0.11244554185E+03  0.39691573202E+03  0.41268002155E+03  0.00000000000E+00 0.  1.
         21    1    1    2  504  502  0.10895043814E+02 -0.11244554185E+03  0.22295370256E+04  0.22323973773E+04  0.00000000000E+00 0. -1.
<mgrwt>
<rscale>  2 0.11297213E+03</rscale>
<asrwt>0</asrwt>
<pdfrwt beam="1">  1       21 0.40550172E+00 0.11297213E+03</pdfrwt>
<pdfrwt beam="2">  1       21 0.14326668E-02 0.11297213E+03</pdfrwt>
<totfact> 0.19232568E+04</totfact>
</mgrwt>
</event>
<event>
 4    1  0.6024238E+003  0.1754357E+03  0.7546771E-02  0.1172295E+00
         21   -1    0    0  504  501  0.00000000000E+00  0.00000000000E+00  0.78930849177E+03  0.78930849177E+03  0.00000000000E+00 0.  1.
         21   -1    0    0  503  502 -0.00000000000E+00 -0.00000000000E+00 -0.60726553911E+02  0.60726553911E+02  0.00000000000E+00 0.  1.
         21    1    1    2  503  501  0.17450277906E+03  0.18068630515E+02  0.11002953276E+03  0.20708499073E+03  0.00000000000E+00 0.  1.
         21    1    1    2  504  502 -0.17450277906E+03 -0.18068630515E+02  0.61855240509E+03  0.64295005495E+03  0.00000000000E+00 0.  1.
<mgrwt>
<rscale>  2 0.17543573E+03</rscale>
<asrwt>0</asrwt>
<pdfrwt beam="1">  1       21 0.12143207E+00 0.17543573E+03</pdfrwt>
<pdfrwt beam="2">  1       21 0.93425473E-02 0.17543573E+03</pdfrwt>
<totfact> 0.47340082E+04</totfact>
</mgrwt>
</event>
<event>
 4    1  0.6024238E+003  0.1450340E+03  0.7546771E-02  0.1206711E+00
         21   -1    0    0  504  501  0.00000000000E+00  0.00000000000E+00  0.97467727327E+03  0.97467727327E+03  0.00000000000E+00 0. -1.
         21   -1    0    0  501  502 -0.00000000000E+00 -0.00000000000E+00 -0.43324156300E+02  0.43324156300E+02  0.00000000000E+00 0. -1.
         21    1    1    2  503  502 -0.11674245060E+03 -0.86058448330E+02  0.10508871341E+03  0.17910470119E+03  0.00000000000E+00 0. -1.
         21    1    1    2  504  503  0.11674245060E+03  0.86058448330E+02  0.82626440356E+03  0.83889672838E+03  0.00000000000E+00 0. -1.
<mgrwt>
<rscale>  2 0.14503398E+03</rscale>
<asrwt>0</asrwt>
<pdfrwt beam="1">  1       21 0.14995033E+00 0.14503398E+03</pdfrwt>
<pdfrwt beam="2">  1       21 0.66652555E-02 0.14503398E+03</pdfrwt>
<totfact> 0.50640909E+04</totfact>
</mgrwt>
</event>
<event>
 4    1  0.6024238E+003  0.1474920E+03  0.7546771E-02  0.1203589E+00
         21   -1    0    0  503  501  0.00000000000E+00  0.00000000000E+00  0.65256739779E+03  0.65256739779E+03  0.00000000000E+00 0. -1.
         21   -1    0    0  504  502 -0.00000000000E+00 -0.00000000000E+00 -0.36134040411E+02  0.36134040411E+02  0.00000000000E+00 0. -1.
         21    1    1    2  503  502  0.64125303526E+00  0.14749062623E+03  0.21239130669E+03  0.25858067056E+03  0.00000000000E+00 0. -1.
         21    1    1    2  504  501 -0.64125303526E+00 -0.14749062623E+03  0.40404205069E+03  0.43012076764E+03  0.00000000000E+00 0. -1.
<mgrwt>
<rscale>  2 0.14749202E+03</rscale>
<asrwt>0</asrwt>
<pdfrwt beam="1">  1       21 0.10039498E+00 0.14749202E+03</pdfrwt>
<pdfrwt beam="2">  1       21 0.55590836E-02 0.14749202E+03</pdfrwt>
<totfact> 0.18548761E+05</totfact>
</mgrwt>
</event>
<event>
 4    1  0.6024238E+003  0.1031618E+03  0.7546771E-02  0.1273784E+00
         21   -1    0    0  504  501  0.00000000000E+00  0.00000000000E+00  0.10371306919E+04  0.10371306919E+04  0.00000000000E+00 0. -1.
         21   -1    0    0  503  502 -0.00000000000E+00 -0.00000000000E+00 -0.28474892376E+02  0.28474892376E+02  0.00000000000E+00 0.  1.
         21    1    1    2  503  501  0.26670767337E+02  0.99654547334E+02  0.93044865114E+03  0.93615012207E+03  0.00000000000E+00 0. -1.
         21    1    1    2  504  502 -0.26670767337E+02 -0.99654547334E+02  0.78207148352E+02  0.12945546218E+03  0.00000000000E+00 0.  1.
<mgrwt>
<rscale>  2 0.10316181E+03</rscale>
<asrwt>0</asrwt>
<pdfrwt beam="1">  1       21 0.15955854E+00 0.10316181E+03</pdfrwt>
<pdfrwt beam="2">  1       21 0.43807535E-02 0.10316181E+03</pdfrwt>
<totfact> 0.89767047E+04</totfact>
</mgrwt>
</event>
<event>
 4    1  0.6024238E+003  0.1221284E+03  0.7546771E-02  0.1239627E+00
         21   -1    0    0  503  501  0.00000000000E+00  0.00000000000E+00  0.38766079381E+03  0.38766079381E+03  0.00000000000E+00 0.  1.
         21   -1    0    0  501  502 -0.00000000000E+00 -0.00000000000E+00 -0.57334245866E+02  0.57334245866E+02  0.00000000000E+00 0.  1.
         21    1    1    2  503  504  0.66957145241E+02 -0.10213763060E+03  0.29277104995E+03  0.31722270186E+03  0.00000000000E+00 0.  1.
         21    1    1    2  504  502 -0.66957145241E+02  0.10213763060E+03  0.37555497994E+02  0.12777233782E+03  0.00000000000E+00 0.  1.
<mgrwt>
<rscale>  2 0.12212844E+03</rscale>
<asrwt>0</asrwt>
<pdfrwt beam="1">  1       21 0.59640121E-01 0.12212844E+03</pdfrwt>
<pdfrwt beam="2">  1       21 0.88206534E-02 0.12212844E+03</pdfrwt>
<totfact> 0.27007782E+05</totfact>
</mgrwt>
</event>
<event>
 4    1  0.6024238E+003  0.1065109E+03  0.7546771E-02  0.1267171E+00
         21   -1    0    0  504  501  0.00000000000E+00  0.00000000000E+00  0.15508478076E+02  0.15508478076E+02  0.00000000000E+00 0. -1.
         21   -1    0    0  503  502 -0.00000000000E+00 -0.00000000000E+00 -0.91086737351E+03  0.91086737351E+03  0.00000000000E+00 0. -1.
         21    1    1    2  503  501  0.98459906397E+02 -0.40622793131E+02 -0.65321766115E+03  0.66184429992E+03  0.00000000000E+00 0. -1.
         21    1    1    2  504  502 -0.98459906397E+02  0.40622793131E+02 -0.24214123428E+03  0.26453155167E+03  0.00000000000E+00 0. -1.
<mgrwt>
<rscale>  2 0.10651087E+03</rscale>
<asrwt>0</asrwt>
<pdfrwt beam="1">  1       21 0.23859206E-02 0.10651087E+03</pdfrwt>
<pdfrwt beam="2">  1       21 0.14013339E+00 0.10651087E+03</pdfrwt>
<totfact> 0.33821869E+05</totfact>
</mgrwt>
</event>
<event>
 4    1  0.6024238E+003  0.1067131E+03  0.7546771E-02  0.1266781E+00
         21   -1    0    0  504  501  0.00000000000E+00  0.00000000000E+00  0.30401715644E+02  0.30401715644E+02  0.00000000000E+00 0. -1.
         21   -1    0    0  503  502 -0.00000000000E+00 -0.00000000000E+00 -0.42688560635E+03  0.42688560635E+03  0.00000000000E+00 0.  1.
         21    1    1    2  503  501  0.10159336189E+03  0.32657011419E+02 -0.11820278432E+03  0.15924694596E+03  0.00000000000E+00 0. -1.
         21    1    1    2  504  502 -0.10159336189E+03 -0.32657011419E+02 -0.27828110639E+03  0.29804037604E+03  0.00000000000E+00 0.  1.
<mgrwt>
<rscale>  2 0.10671313E+03</rscale>
<asrwt>0</asrwt>
<pdfrwt beam="1">  1       21 0.46771874E-02 0.10671313E+03</pdfrwt>
<pdfrwt beam="2">  1       21 0.65674704E-01 0.10671313E+03</pdfrwt>
<totfact> 0.64694982E+05</totfact>
</mgrwt>
</event>
<event>
 4    1  0.6024238E+003  0.1351064E+03  0.7546771E-02  0.1220070E+00
         21   -1    0    0  502  501  0.00000000000E+00  0.00000000000E+00  0.11264888529E+03  0.11264888529E+03  0.00000000000E+00 0.  1.
         21   -1    0    0  504  502 -0.00000000000E+00 -0.00000000000E+00 -0.25753055058E+03  0.25753055058E+03  0.00000000000E+00 0.  1.
         21    1    1    2  503  501  0.94706392910E+02 -0.96355761036E+02  0.40264880288E+02  0.14097870097E+03  0.00000000000E+00 0.  1.
         21    1    1    2  504  503 -0.94706392910E+02  0.96355761036E+02 -0.18514654558E+03  0.22920073491E+03  0.00000000000E+00 0.  1.
<mgrwt>
<rscale>  2 0.13510638E+03</rscale>
<asrwt>0</asrwt>
<pdfrwt beam="1">  1       21 0.17330598E-01 0.13510638E+03</pdfrwt>
<pdfrwt beam="2">  1       21 0.39620084E-01 0.13510638E+03</pdfrwt>
<totfact> 0.18796472E+05</totfact>
</mgrwt>
</event>
<event>
 4    1  0.6024238E+003  0.1002570E+03  0.7546771E-02  0.1279756E+00
         21   -1    0    0  504  501  0.00000000000E+00  0.00000000000E+00  0.33761065929E+02  0.33761065929E+02  0.00000000000E+00 0. -1.
         21   -1    0    0  503  502 -0.00000000000E+00 -0.00000000000E+00 -0.47696791412E+03  0.47696791412E+03  0.00000000000E+00 0. -1.
         21    1    1    2  503  501 -0.67752046374E+02 -0.73899448919E+02 -0.37814818469E+03  0.39121288057E+03  0.00000000000E+00 0. -1.
         21    1    1    2  504  502  0.67752046374E+02  0.73899448919E+02 -0.65058663501E+02  0.11951609948E+03  0.00000000000E+00 0. -1.
<mgrwt>
<rscale>  2 0.10025701E+03</rscale>
<asrwt>0</asrwt>
<pdfrwt beam="1">  1       21 0.51940104E-02 0.10025701E+03</pdfrwt>
<pdfrwt beam="2">  1       21 0.73379675E-01 0.10025701E+03</pdfrwt>
<totfact> 0.42743853E+05</totfact>
</mgrwt>
</event>
<event>
 4    1  0.6024238E+003  0.1093278E+03  0.7546771E-02  0.1261820E+00
         21   -1    0    0  502  501  0.00000000000E+00  0.00000000000E+00  0.10103207973E+04  0.10103207973E+04  0.00000000000E+00 0.  1.
         21   -1    0    0  503  502 -0.00000000000E+00 -0.00000000000E+00 -0.15148063645E+02  0.15148063645E+02  0.00000000000E+00 0.  1.
         21    1    1    2  503  504  0.79567161454E+02 -0.74977593477E+02  0.25763383683E+03  0.27987098204E+03  0.00000000000E+00 0.  1.
         21    1    1    2  504  501 -0.79567161454E+02  0.74977593477E+02  0.73753889686E+03  0.74559787895E+03  0.00000000000E+00 0.  1.
<mgrwt>
<rscale>  2 0.10932782E+03</rscale>
<asrwt>0</asrwt>
<pdfrwt beam="1">  1       21 0.15543392E+00 0.10932782E+03</pdfrwt>
<pdfrwt beam="2">  1       21 0.23304721E-02 0.10932782E+03</pdfrwt>
<totfact> 0.26919299E+05</totfact>
</mgrwt>
</event>
<event>
 4    1  0.6024238E+003  0.1363843E+03  0.7546771E-02  0.1218279E+00
         21   -1    0    0  504  501  0.00000000000E+00  0.00000000000E+00  0.11696223270E+03  0.11696223270E+03  0.00000000000E+00 0.  1.
         21   -1    0    0  501  502 -0.00000000000E+00 -0.00000000000E+00 -0.17102299704E+03  0.17102299704E+03  0.00000000000E+00 0.  1.
         21    1    1    2  503  502 -0.61033808077E+02  0.12196536837E+03 -0.65158911257E+02  0.15115012579E+03  0.00000000000E+00 0.  1.
         21    1    1    2  504  503  0.61033808077E+02 -0.12196536837E+03  0.11098146920E+02  0.13683510396E+03  0.00000000000E+00 0.  1.
<mgrwt>
<rscale>  2 0.13638430E+03</rscale>
<asrwt>0</asrwt>
<pdfrwt beam="1">  1       21 0.17994190E-01 0.13638430E+03</pdfrwt>
<pdfrwt beam="2">  1       21 0.26311230E-01 0.13638430E+03</pdfrwt>
<totfact> 0.38955873E+05</totfact>
</mgrwt>
</event>
<event>
 4    1  0.6024238E+003  0.1229646E+03  0.7546771E-02  0.1238285E+00
         21   -1    0    0  504  501  0.00000000000E+00  0.00000000000E+00  0.38911189116E+03  0.38911189116E+03  0.00000000000E+00 0. -1.
         21   -1    0    0  501  502 -0.00000000000E+00 -0.00000000000E+00 -0.28558558475E+03  0.28558558475E+03  0.00000000000E+00 0.  1.
         21    1    1    2  503  502 -0.11730436550E+03  0.36877753927E+02 -0.26179594808E+03  0.28923589219E+03  0.00000000000E+00 0.  1.
         21    1    1    2  504  503  0.11730436550E+03 -0.36877753927E+02  0.36532225449E+03  0.38546158372E+03  0.00000000000E+00 0. -1.
<mgrwt>
<rscale>  2 0.12296456E+03</rscale>
<asrwt>0</asrwt>
<pdfrwt beam="1">  1       21 0.59863368E-01 0.12296456E+03</pdfrwt>
<pdfrwt beam="2">  1       21 0.43936244E-01 0.12296456E+03</pdfrwt>
<totfact> 0.13634636E+04</totfact>
</mgrwt>
</event>
<event>
 4    1  0.6024238E+003  0.1845451E+03  0.7546771E-02  0.1163475E+00
         21   -1    0    0  504  501  0.00000000000E+00  0.00000000000E+00  0.66010433994E+03  0.66010433994E+03  0.00000000000E+00 0.  1.
         21   -1    0    0  503  502 -0.00000000000E+00 -0.00000000000E+00 -0.58995919704E+02  0.58995919704E+02  0.00000000000E+00 0.  1.
         21    1    1    2  503  501 -0.17363748331E+03  0.62505381864E+02  0.42791741393E+03  0.46601524816E+03  0.00000000000E+00 0.  1.
         21    1    1    2  504  502  0.17363748331E+03 -0.62505381864E+02  0.17319100631E+03  0.25308501149E+03  0.00000000000E+00 0.  1.
<mgrwt>
<rscale>  2 0.18454511E+03</rscale>
<asrwt>0</asrwt>
<pdfrwt beam="1">  1       21 0.10155451E+00 0.18454511E+03</pdfrwt>
<pdfrwt beam="2">  1       21 0.90762958E-02 0.18454511E+03</pdfrwt>
<totfact> 0.76439434E+04</totfact>
</mgrwt>
</event>
<event>
 4    1  0.6024238E+003  0.1167715E+03  0.7546771E-02  0.1248520E+00
         21   -1    0    0  503  501  0.00000000000E+00  0.00000000000E+00  0.14096775598E+02  0.14096775598E+02  0.00000000000E+00 0. -1.
         21   -1    0    0  504  502 -0.00000000000E+00 -0.00000000000E+00 -0.15239150917E+04  0.15239150917E+04  0.00000000000E+00 0. -1.
         21    1    1    2  503  502 -0.89687521891E+02 -0.74777941259E+02 -0.12196735573E+04  0.12252506594E+04  0.00000000000E+00 0. -1.
         21    1    1    2  504  501  0.89687521891E+02  0.74777941259E+02 -0.29014475883E+03  0.31276120788E+03  0.00000000000E+00 0. -1.
<mgrwt>
<rscale>  2 0.11677154E+03</rscale>
<asrwt>0</asrwt>
<pdfrwt beam="1">  1       21 0.21687344E-02 0.11677154E+03</pdfrwt>
<pdfrwt beam="2">  1       21 0.23444851E+00 0.11677154E+03</pdfrwt>
<totfact> 0.93918852E+04</totfact>
</mgrwt>
</event>
<event>
 4    1  0.6024238E+003  0.1016828E+03  0.7546771E-02  0.1276796E+00
         21   -1    0    0  503  501  0.00000000000E+00  0.00000000000E+00  0.16712854170E+02  0.16712854170E+02  0.00000000000E+00 0. -1.
         21   -1    0    0  504  502 -0.00000000000E+00 -0.00000000000E+00 -0.74792492880E+03  0.74792492880E+03  0.00000000000E+00 0. -1.
         21    1    1    2  503  502 -0.11755748177E+02 -0.10100099780E+03 -0.20665816539E+03  0.23031933591E+03  0.00000000000E+00 0. -1.
         21    1    1    2  504  501  0.11755748177E+02  0.10100099780E+03 -0.52455390925E+03  0.53431844707E+03  0.00000000000E+00 0. -1.
<mgrwt>
<rscale>  2 0.10168284E+03</rscale>
<asrwt>0</asrwt>
<pdfrwt beam="1">  1       21 0.25712086E-02 0.10168284E+03</pdfrwt>
<pdfrwt beam="2">  1       21 0.11506536E+00 0.10168284E+03</pdfrwt>
<totfact> 0.48663645E+05</totfact>
</mgrwt>
</event>
<event>
 4    1  0.6024238E+003  0.1007609E+03  0.7546771E-02  0.1278704E+00
         21   -1    0    0  503  501  0.00000000000E+00  0.00000000000E+00  0.52485722379E+02  0.52485722379E+02  0.00000000000E+00 0. -1.
         21   -1    0    0  501  502 -0.00000000000E+00 -0.00000000000E+00 -0.19884880360E+03  0.19884880360E+03  0.00000000000E+00 0. -1.
         21    1    1    2  503  504  0.52244767854E+02  0.86158197610E+02 -0.52452553628E+02  0.11359586773E+03  0.00000000000E+00 0. -1.
         21    1    1    2  504  502 -0.52244767854E+02 -0.86158197610E+02 -0.93910527594E+02  0.13773865825E+03  0.00000000000E+00 0. -1.
<mgrwt>
<rscale>  2 0.10076086E+03</rscale>
<asrwt>0</asrwt>
<pdfrwt beam="1">  1       21 0.80747267E-02 0.10076086E+03</pdfrwt>
<pdfrwt beam="2">  1       21 0.30592123E-01 0.10076086E+03</pdfrwt>
<totfact> 0.12054725E+06</totfact>
</mgrwt>
</event>
<event>
 4    1  0.6024238E+003  0.1025485E+03  0.7546771E-02  0.1275026E+00
         21   -1    0    0  504  501  0.00000000000E+00  0.00000000000E+00  0.57666592902E+02  0.57666592902E+02  0.00000000000E+00 0.  1.
         21   -1    0    0  501  502 -0.00000000000E+00 -0.00000000000E+00 -0.23005453245E+03  0.23005453245E+03  0.00000000000E+00 0.  1.
         21    1    1    2  503  502 -0.27562307494E+02 -0.98775069758E+02 -0.15169551580E+03  0.18310577466E+03  0.00000000000E+00 0.  1.
         21    1    1    2  504  503  0.27562307494E+02  0.98775069758E+02 -0.20692423749E+02  0.10461535069E+03  0.00000000000E+00 0.  1.
<mgrwt>
<rscale>  2 0.10254850E+03</rscale>
<asrwt>0</asrwt>
<pdfrwt beam="1">  1       21 0.88717836E-02 0.10254850E+03</pdfrwt>
<pdfrwt beam="2">  1       21 0.35393005E-01 0.10254850E+03</pdfrwt>
<totfact> 0.77329473E+05</totfact>
</mgrwt>
</event>
<event>
 4    1  0.6024238E+003  0.1148191E+03  0.7546771E-02  0.1251897E+00
         21   -1    0    0  503  501  0.00000000000E+00  0.00000000000E+00  0.96561582987E+02  0.96561582987E+02  0.00000000000E+00 0.  1.
         21   -1    0    0  504  502 -0.00000000000E+00 -0.00000000000E+00 -0.14920076373E+03  0.14920076373E+03  0.00000000000E+00 0.  1.
         21    1    1    2  503  502  0.11171786165E+03 -0.26505531449E+02  0.94920436259E+01  0.11521077511E+03  0.00000000000E+00 0.  1.
         21    1    1    2  504  501 -0.11171786165E+03  0.26505531449E+02 -0.62131224371E+02  0.13055157161E+03  0.00000000000E+00 0.  1.
<mgrwt>
<rscale>  2 0.11481909E+03</rscale>
<asrwt>0</asrwt>
<pdfrwt beam="1">  1       21 0.14855628E-01 0.11481909E+03</pdfrwt>
<pdfrwt beam="2">  1       21 0.22953964E-01 0.11481909E+03</pdfrwt>
<totfact> 0.71428675E+05</totfact>
</mgrwt>
</event>
<event>
 4    1  0.6024238E+003  0.1161130E+03  0.7546771E-02  0.1249651E+00
         21   -1    0    0  503  501  0.00000000000E+00  0.00000000000E+00  0.35434830641E+02  0.35434830641E+02  0.00000000000E+00 0. -1.
         21   -1    0    0  504  502 -0.00000000000E+00 -0.00000000000E+00 -0.38205643418E+03  0.38205643418E+03  0.00000000000E+00 0. -1.
         21    1    1    2  503  502  0.11592644673E+03 -0.65789514744E+01 -0.15989946574E+03  0.19761088735E+03  0.00000000000E+00 0. -1.
         21    1    1    2  504  501 -0.11592644673E+03  0.65789514744E+01 -0.18672213780E+03  0.21988037747E+03  0.00000000000E+00 0. -1.
<mgrwt>
<rscale>  2 0.11611298E+03</rscale>
<asrwt>0</asrwt>
<pdfrwt beam="1">  1       21 0.54515126E-02 0.11611298E+03</pdfrwt>
<pdfrwt beam="2">  1       21 0.58777911E-01 0.11611298E+03</pdfrwt>
<totfact> 0.63364743E+05</totfact>
</mgrwt>
</event>
<event>
 4    1  0.6024238E+003  0.1593237E+03  0.7546771E-02  0.1189462E+00
         21   -1    0    0  504  501  0.00000000000E+00  0.00000000000E+00  0.93663990308E+02  0.93663990308E+02  0.00000000000E+00 0.  1.
         21   -1    0    0  503  502 -0.00000000000E+00 -0.00000000000E+00 -0.56063781056E+03  0.56063781056E+03  0.00000000000E+00 0.  1.
         21    1    1    2  503  501  0.94751645561E+02 -0.12808656324E+03 -0.46862649423E+03  0.49496952746E+03  0.00000000000E+00 0.  1.
         21    1    1    2  504  502 -0.94751645561E+02  0.12808656324E+03  0.16526739711E+01  0.15933227341E+03  0.00000000000E+00 0.  1.
<mgrwt>
<rscale>  2 0.15932370E+03</rscale>
<asrwt>0</asrwt>
<pdfrwt beam="1">  1       21 0.14409845E-01 0.15932370E+03</pdfrwt>
<pdfrwt beam="2">  1       21 0.86251968E-01 0.15932370E+03</pdfrwt>
<totfact> 0.49740903E+04</totfact>
</mgrwt>
</event>
<event>
 4    1  0.6024238E+003  0.2306782E+03  0.7546771E-02  0.1126163E+00
         21   -1    0    0  504  501  0.00000000000E+00  0.00000000000E+00  0.54699244103E+02  0.54699244103E+02  0.00000000000E+00 0. -1.
         21   -1    0    0  503  502 -0.00000000000E+00 -0.00000000000E+00 -0.18662016287E+04  0.18662016287E+04  0.00000000000E+00 0.  1.
         21    1    1    2  503  501  0.22387360540E+03  0.55615292457E+02 -0.24122136143E+03  0.33376668072E+03  0.00000000000E+00 0. -1.
         21    1    1    2  504  502 -0.22387360540E+03 -0.55615292457E+02 -0.15702810232E+04  0.15871341921E+04  0.00000000000E+00 0.  1.
<mgrwt>
<rscale>  2 0.23067824E+03</rscale>
<asrwt>0</asrwt>
<pdfrwt beam="1">  1       21 0.84152668E-02 0.23067824E+03</pdfrwt>
<pdfrwt beam="2">  1       21 0.28710799E+00 0.23067824E+03</pdfrwt>
<totfact> 0.42727918E+03</totfact>
</mgrwt>
</event>
<event>
 4    1  0.6024238E+003  0.1047999E+03  0.7546771E-02  0.1270514E+00
         21   -1    0    0  502  501  0.00000000000E+00  0.00000000000E+00  0.24763850320E+02  0.24763850320E+02  0.00000000000E+00 0.  1.
         21   -1    0    0  504  502 -0.00000000000E+00 -0.00000000000E+00 -0.73966515413E+03  0.73966515413E+03  0.00000000000E+00 0. -1.
         21    1    1    2  503  501 -0.52329733775E+02  0.90799876728E+02 -0.11559896067E+03  0.15603249136E+03  0.00000000000E+00 0.  1.
         21    1    1    2  504  503  0.52329733775E+02 -0.90799876728E+02 -0.59930234314E+03  0.60839651309E+03  0.00000000000E+00 0. -1.
<mgrwt>
<rscale>  2 0.10479990E+03</rscale>
<asrwt>0</asrwt>
<pdfrwt beam="1">  1       21 0.38098236E-02 0.10479990E+03</pdfrwt>
<pdfrwt beam="2">  1       21 0.11379462E+00 0.10479990E+03</pdfrwt>
<totfact> 0.26260613E+05</totfact>
</mgrwt>
</event>
<event>
 4    1  0.6024238E+003  0.1113232E+03  0.7546771E-02  0.1258139E+00
         21   -1    0    0  504  501  0.00000000000E+00  0.00000000000E+00  0.11501844343E+04  0.11501844343E+04  0.00000000000E+00 0. -1.
         21   -1    0    0  503  502 -0.00000000000E+00 -0.00000000000E+00 -0.91639817911E+02  0.91639817911E+02  0.00000000000E+00 0.  1.
         21    1    1    2  503  501 -0.10781275641E+03 -0.27735762574E+02  0.11125410641E+04  0.11180968126E+04  0.00000000000E+00 0. -1.
         21    1    1    2  504  502  0.10781275641E+03  0.27735762574E+02 -0.53996447665E+02  0.12372743969E+03  0.00000000000E+00 0.  1.
<mgrwt>
<rscale>  2 0.11132324E+03</rscale>
<asrwt>0</asrwt>
<pdfrwt beam="1">  1       21 0.17695144E+00 0.11132324E+03</pdfrwt>
<pdfrwt beam="2">  1       21 0.14098434E-01 0.11132324E+03</pdfrwt>
<totfact> 0.90767902E+03</totfact>
</mgrwt>
</event>
<event>
 4    1  0.6024238E+003  0.1145292E+03  0.7546771E-02  0.1252405E+00
         21   -1    0    0  504  501  0.00000000000E+00  0.00000000000E+00  0.16854607318E+03  0.16854607318E+03  0.00000000000E+00 0. -1.
         21   -1    0    0  503  502 -0.00000000000E+00 -0.00000000000E+00 -0.17032253501E+03  0.17032253501E+03  0.00000000000E+00 0. -1.
         21    1    1    2  503  501 -0.46321080726E+02  0.10474391250E+03 -0.12575092826E+03  0.17008887584E+03  0.00000000000E+00 0. -1.
         21    1    1    2  504  502  0.46321080726E+02 -0.10474391250E+03  0.12397446643E+03  0.16877973235E+03  0.00000000000E+00 0. -1.
<mgrwt>
<rscale>  2 0.11452917E+03</rscale>
<asrwt>0</asrwt>
<pdfrwt beam="1">  1       21 0.25930165E-01 0.11452917E+03</pdfrwt>
<pdfrwt beam="2">  1       21 0.26203467E-01 0.11452917E+03</pdfrwt>
<totfact> 0.19974017E+05</totfact>
</mgrwt>
</event>
<event>
 4    1  0.6024238E+003  0.1124451E+03  0.7546771E-02  0.1256108E+00
         21   -1    0    0  504  501  0.00000000000E+00  0.00000000000E+00  0.11035459793E+02  0.11035459793E+02  0.00000000000E+00 0.  1.
         21   -1    0    0  501  502 -0.00000000000E+00 -0.00000000000E+00 -0.20628726023E+04  0.20628726023E+04  0.00000000000E+00 0.  1.
         21    1    1    2  503  502 -0.11198661120E+03  0.10144130362E+02 -0.17173298057E+04  0.17210071371E+04  0.00000000000E+00 0.  1.
         21    1    1    2  504  503  0.11198661120E+03 -0.10144130362E+02 -0.33450733679E+03  0.35290092496E+03  0.00000000000E+00 0.  1.
<mgrwt>
<rscale>  2 0.11244512E+03</rscale>
<asrwt>0</asrwt>
<pdfrwt beam="1">  1       21 0.16977630E-02 0.11244512E+03</pdfrwt>
<pdfrwt beam="2">  1       21 0.31736502E+00 0.11244512E+03</pdfrwt>
<totfact> 0.47765722E+04</totfact>
</mgrwt>
</event>
<event>
 4    1  0.6024238E+003  0.1099258E+03  0.7546771E-02  0.1260707E+00
         21   -1    0    0  503  501  0.00000000000E+00  0.00000000000E+00  0.34925545751E+02  0.34925545751E+02  0.00000000000E+00 0.  1.
         21   -1    0    0  504  502 -0.00000000000E+00 -0.00000000000E+00 -0.35034033363E+03  0.35034033363E+03  0.00000000000E+00 0.  1.
         21    1    1    2  503  502  0.10355889571E+03 -0.36867894412E+02 -0.13622727043E+03  0.17504729569E+03  0.00000000000E+00 0.  1.
         21    1    1    2  504  501 -0.10355889571E+03  0.36867894412E+02 -0.17918751745E+03  0.21021858369E+03  0.00000000000E+00 0.  1.
<mgrwt>
<rscale>  2 0.10992582E+03</rscale>
<asrwt>0</asrwt>
<pdfrwt beam="1">  1       21 0.53731606E-02 0.10992582E+03</pdfrwt>
<pdfrwt beam="2">  1       21 0.53898515E-01 0.10992582E+03</pdfrwt>
<totfact> 0.77847101E+05</totfact>
</mgrwt>
</event>
<event>
 4    1  0.6024238E+003  0.1112917E+03  0.7546771E-02  0.1258196E+00
         21   -1    0    0  502  501  0.00000000000E+00  0.00000000000E+00  0.17841025876E+02  0.17841025876E+02  0.00000000000E+00 0. -1.
         21   -1    0    0  504  502 -0.00000000000E+00 -0.00000000000E+00 -0.16167828661E+04  0.16167828661E+04  0.00000000000E+00 0.  1.
         21    1    1    2  503  501  0.32704570442E+02 -0.10637783082E+03 -0.18208476746E+03  0.21340265781E+03  0.00000000000E+00 0. -1.
         21    1    1    2  504  503 -0.32704570442E+02  0.10637783082E+03 -0.14168570727E+04  0.14212212341E+04  0.00000000000E+00 0.  1.
<mgrwt>
<rscale>  2 0.11129165E+03</rscale>
<asrwt>0</asrwt>
<pdfrwt beam="1">  1       21 0.27447736E-02 0.11129165E+03</pdfrwt>
<pdfrwt beam="2">  1       21 0.24873579E+00 0.11129165E+03</pdfrwt>
<totfact> 0.53351312E+04</totfact>
</mgrwt>
</event>
<event>
 4    1  0.6024238E+003  0.1266613E+03  0.7546771E-02  0.1232496E+00
         21   -1    0    0  503  501  0.00000000000E+00  0.00000000000E+00  0.35070771621E+03  0.35070771621E+03  0.00000000000E+00 0.  1.
         21   -1    0    0  504  502 -0.00000000000E+00 -0.00000000000E+00 -0.60371357354E+03  0.60371357354E+03  0.00000000000E+00 0.  1.
         21    1    1    2  503  502  0.92221590430E+02  0.86823140264E+02 -0.58527774698E+03  0.59882645277E+03  0.00000000000E+00 0.  1.
         21    1    1    2  504  501 -0.92221590430E+02 -0.86823140264E+02  0.33227188966E+03  0.35559483697E+03  0.00000000000E+00 0.  1.
<mgrwt>
<rscale>  2 0.12666128E+03</rscale>
<asrwt>0</asrwt>
<pdfrwt beam="1">  1       21 0.53955033E-01 0.12666128E+03</pdfrwt>
<pdfrwt beam="2">  1       21 0.92879011E-01 0.12666128E+03</pdfrwt>
<totfact> 0.33817515E+03</totfact>
</mgrwt>
</event>
<event>
 4    1  0.6024238E+003  0.1110023E+03  0.7546771E-02  0.1258725E+00
         21   -1    0    0  504  501  0.00000000000E+00  0.00000000000E+00  0.20918156129E+03  0.20918156129E+03  0.00000000000E+00 0.  1.
         21   -1    0    0  503  502 -0.00000000000E+00 -0.00000000000E+00 -0.81222246054E+02  0.81222246054E+02  0.00000000000E+00 0.  1.
         21    1    1    2  503  501  0.35296823254E+02  0.10524091990E+03 -0.12135321629E+02  0.11166370487E+03  0.00000000000E+00 0.  1.
         21    1    1    2  504  502 -0.35296823254E+02 -0.10524091990E+03  0.14009463686E+03  0.17874010247E+03  0.00000000000E+00 0.  1.
<mgrwt>
<rscale>  2 0.11100233E+03</rscale>
<asrwt>0</asrwt>
<pdfrwt beam="1">  1       21 0.32181779E-01 0.11100233E+03</pdfrwt>
<pdfrwt beam="2">  1       21 0.12495730E-01 0.11100233E+03</pdfrwt>
<totfact> 0.51156490E+05</totfact>
</mgrwt>
</event>
<event>
 4    1  0.6024238E+003  0.1216506E+03  0.7546771E-02  0.1240399E+00
         21   -1    0    0  503  501  0.00000000000E+00  0.00000000000E+00  0.48575865282E+03  0.48575865282E+03  0.00000000000E+00 0. -1.
         21   -1    0    0  504  502 -0.00000000000E+00 -0.00000000000E+00 -0.27534825223E+03  0.27534825223E+03  0.00000000000E+00 0.  1.
         21    1    1    2  503  502  0.15492817857E+02 -0.12066000946E+03 -0.25367841433E+03  0.28133894715E+03  0.00000000000E+00 0.  1.
         21    1    1    2  504  501 -0.15492817857E+02  0.12066000946E+03  0.46408881492E+03  0.47976795789E+03  0.00000000000E+00 0. -1.
<mgrwt>
<rscale>  2 0.12165059E+03</rscale>
<asrwt>0</asrwt>
<pdfrwt beam="1">  1       21 0.74732100E-01 0.12165059E+03</pdfrwt>
<pdfrwt beam="2">  1       21 0.42361270E-01 0.12165059E+03</pdfrwt>
<totfact> 0.90996325E+03</totfact>
</mgrwt>
</event>
<event>
 4    1  0.6024238E+003  0.1165297E+03  0.7546771E-02  0.1248934E+00
         21   -1    0    0  504  501  0.00000000000E+00  0.00000000000E+00  0.33173535653E+03  0.33173535653E+03  0.00000000000E+00 0. -1.
         21   -1    0    0  503  502 -0.00000000000E+00 -0.00000000000E+00 -0.40975204912E+02  0.40975204912E+02  0.00000000000E+00 0. -1.
         21    1    1    2  503  501  0.76052392446E+02  0.88290489632E+02  0.15130650688E+03  0.19097862703E+03  0.00000000000E+00 0. -1.
         21    1    1    2  504  502 -0.76052392446E+02 -0.88290489632E+02  0.13945364473E+03  0.18173193441E+03  0.00000000000E+00 0. -1.
<mgrwt>
<rscale>  2 0.11652973E+03</rscale>
<asrwt>0</asrwt>
<pdfrwt beam="1">  1       21 0.51036207E-01 0.11652973E+03</pdfrwt>
<pdfrwt beam="2">  1       21 0.63038779E-02 0.11652973E+03</pdfrwt>
<totfact> 0.66561293E+05</totfact>
</mgrwt>
</event>
<event>
 4    1  0.6024238E+003  0.1102750E+03  0.7546771E-02  0.1260061E+00
         21   -1    0    0  503  501  0.00000000000E+00  0.00000000000E+00  0.54134590689E+03  0.54134590689E+03  0.00000000000E+00 0.  1.
         21   -1    0    0  501  502 -0.00000000000E+00 -0.00000000000E+00 -0.69941006560E+02  0.69941006560E+02  0.00000000000E+00 0.  1.
         21    1    1    2  503  504 -0.46022213969E+02 -0.10021243033E+03  0.48752387622E+03  0.49984007969E+03  0.00000000000E+00 0.  1.
         21    1    1    2  504  502  0.46022213969E+02  0.10021243033E+03 -0.16118975896E+02  0.11144683376E+03  0.00000000000E+00 0.  1.
<mgrwt>
<rscale>  2 0.11027500E+03</rscale>
<asrwt>0</asrwt>
<pdfrwt beam="1">  1       21 0.83283983E-01 0.11027500E+03</pdfrwt>
<pdfrwt beam="2">  1       21 0.10760155E-01 0.11027500E+03</pdfrwt>
<totfact> 0.92735507E+04</totfact>
</mgrwt>
</event>
<event>
 4    1  0.6024238E+003  0.1154798E+03  0.7546771E-02  0.1250746E+00
         21   -1    0    0  503  501  0.00000000000E+00  0.00000000000E+00  0.14282399076E+03  0.14282399076E+03  0.00000000000E+00 0.  1.
         21   -1    0    0  504  502 -0.00000000000E+00 -0.00000000000E+00 -0.93964688289E+02  0.93964688289E+02  0.00000000000E+00 0.  1.
         21    1    1    2  503  502 -0.71397824253E+02 -0.90763009601E+02  0.33843010687E+02  0.12033670509E+03  0.00000000000E+00 0.  1.
         21    1    1    2  504  501  0.71397824253E+02  0.90763009601E+02  0.15016291785E+02  0.11645197396E+03  0.00000000000E+00 0.  1.
<mgrwt>
<rscale>  2 0.11547975E+03</rscale>
<asrwt>0</asrwt>
<pdfrwt beam="1">  1       21 0.21972922E-01 0.11547975E+03</pdfrwt>
<pdfrwt beam="2">  1       21 0.14456106E-01 0.11547975E+03</pdfrwt>
<totfact> 0.81372428E+05</totfact>
</mgrwt>
</event>
<event>
 4    1  0.6024238E+003  0.1029668E+03  0.7546771E-02  0.1274178E+00
         21   -1    0    0  504  501  0.00000000000E+00  0.00000000000E+00  0.48499348740E+03  0.48499348740E+03  0.00000000000E+00 0.  1.
         21   -1    0    0  503  502 -0.00000000000E+00 -0.00000000000E+00 -0.82063541174E+02  0.82063541174E+02  0.00000000000E+00 0. -1.
         21    1    1    2  503  501  0.10275829545E+03  0.65486338857E+01  0.44431110444E+03  0.45608607676E+03  0.00000000000E+00 0.  1.
         21    1    1    2  504  502 -0.10275829545E+03 -0.65486338857E+01 -0.41381158215E+02  0.11097095181E+03  0.00000000000E+00 0. -1.
<mgrwt>
<rscale>  2 0.10296675E+03</rscale>
<asrwt>0</asrwt>
<pdfrwt beam="1">  1       21 0.74614381E-01 0.10296675E+03</pdfrwt>
<pdfrwt beam="2">  1       21 0.12625161E-01 0.10296675E+03</pdfrwt>
<totfact> 0.89644598E+04</totfact>
</mgrwt>
</event>
<event>
 4    1  0.6024238E+003  0.1900730E+03  0.7546771E-02  0.1158396E+00
         21   -1    0    0  504  501  0.00000000000E+00  0.00000000000E+00  0.32797271768E+03  0.32797271768E+03  0.00000000000E+00 0.  1.
         21   -1    0    0  503  502 -0.00000000000E+00 -0.00000000000E+00 -0.11824847486E+03  0.11824847486E+03  0.00000000000E+00 0.  1.
         21    1    1    2  503  501  0.16355156968E+03 -0.96843318464E+02  0.16323314811E+03  0.25054501575E+03  0.00000000000E+00 0.  1.
         21    1    1    2  504  502 -0.16355156968E+03  0.96843318464E+02  0.46491094711E+02  0.19567617679E+03  0.00000000000E+00 0.  1.
<mgrwt>
<rscale>  2 0.19007300E+03</rscale>
<asrwt>0</asrwt>
<pdfrwt beam="1">  1       21 0.50457341E-01 0.19007300E+03</pdfrwt>
<pdfrwt beam="2">  1       21 0.18192073E-01 0.19007300E+03</pdfrwt>
<totfact> 0.10302846E+05</totfact>
</mgrwt>
</event>
<event>
 4    1  0.6024238E+003  0.1289452E+03  0.7546771E-02  0.1229029E+00
         21   -1    0    0  502  501  0.00000000000E+00  0.00000000000E+00  0.25691449616E+03  0.25691449616E+03  0.00000000000E+00 0. -1.
         21   -1    0    0  503  502 -0.00000000000E+00 -0.00000000000E+00 -0.67355922753E+02  0.67355922753E+02  0.00000000000E+00 0. -1.
         21    1    1    2  503  504  0.20844269951E+02 -0.12724932093E+03  0.62690105578E+02  0.14337685519E+03  0.00000000000E+00 0. -1.
         21    1    1    2  504  501 -0.20844269951E+02  0.12724932093E+03  0.12686846783E+03  0.18089356372E+03  0.00000000000E+00 0. -1.
<mgrwt>
<rscale>  2 0.12894523E+03</rscale>
<asrwt>0</asrwt>
<pdfrwt beam="1">  1       21 0.39525307E-01 0.12894523E+03</pdfrwt>
<pdfrwt beam="2">  1       21 0.10362450E-01 0.12894523E+03</pdfrwt>
<totfact> 0.47434298E+05</totfact>
</mgrwt>
</event>
<event>
 4    1  0.6024238E+003  0.1191914E+03  0.7546771E-02  0.1244437E+00
         21   -1    0    0  503  501  0.00000000000E+00  0.00000000000E+00  0.90247268671E+02  0.90247268671E+02  0.00000000000E+00 0.  1.
         21   -1    0    0  501  502 -0.00000000000E+00 -0.00000000000E+00 -0.31987017546E+03  0.31987017546E+03  0.00000000000E+00 0. -1.
         21    1    1    2  503  504  0.10564107570E+03 -0.55195685824E+02  0.31323231524E+02  0.12323857124E+03  0.00000000000E+00 0.  1.
         21    1    1    2  504  502 -0.10564107570E+03  0.55195685824E+02 -0.26094613831E+03  0.28687887288E+03  0.00000000000E+00 0. -1.
<mgrwt>
<rscale>  2 0.11919145E+03</rscale>
<asrwt>0</asrwt>
<pdfrwt beam="1">  1       21 0.13884195E-01 0.11919145E+03</pdfrwt>
<pdfrwt beam="2">  1       21 0.49210796E-01 0.11919145E+03</pdfrwt>
<totfact> 0.18167715E+05</totfact>
</mgrwt>
</event>
<event>
 4    1  0.6024238E+003  0.1999696E+03  0.7546771E-02  0.1149765E+00
         21   -1    0    0  503  501  0.00000000000E+00  0.00000000000E+00  0.79425822610E+03  0.79425822610E+03  0.00000000000E+00 0.  1.
         21   -1    0    0  501  502 -0.00000000000E+00 -0.00000000000E+00 -0.56231615339E+02  0.56231615339E+02  0.00000000000E+00 0.  1.
         21    1    1    2  503  504 -0.28440073310E+02 -0.19793685673E+03  0.50658832162E+03  0.54462791393E+03  0.00000000000E+00 0.  1.
         21    1    1    2  504  502  0.28440073310E+02  0.19793685673E+03  0.23143828914E+03  0.30586192751E+03  0.00000000000E+00 0.  1.
<mgrwt>
<rscale>  2 0.19996959E+03</rscale>
<asrwt>0</asrwt>
<pdfrwt beam="1">  1       21 0.12219356E+00 0.19996959E+03</pdfrwt>
<pdfrwt beam="2">  1       21 0.86510183E-02 0.19996959E+03</pdfrwt>
<totfact> 0.52648146E+04</totfact>
</mgrwt>
</event>
<event>
 4    1  0.6024238E+003  0.1628620E+03  0.7546771E-02  0.1185503E+00
         21   -1    0    0  502  501  0.00000000000E+00  0.00000000000E+00  0.18787345105E+03  0.18787345105E+03  0.00000000000E+00 0.  1.
         21   -1    0    0  503  502 -0.00000000000E+00 -0.00000000000E+00 -0.28373077914E+03  0.28373077914E+03  0.00000000000E+00 0.  1.
         21    1    1    2  503  504 -0.13454132001E+03  0.91775036354E+02 -0.21506807262E+03  0.26977453540E+03  0.00000000000E+00 0.  1.
         21    1    1    2  504  501  0.13454132001E+03 -0.91775036354E+02  0.11921074453E+03  0.20182969479E+03  0.00000000000E+00 0.  1.
<mgrwt>
<rscale>  2 0.16286198E+03</rscale>
<asrwt>0</asrwt>
<pdfrwt beam="1">  1       21 0.28903608E-01 0.16286198E+03</pdfrwt>
<pdfrwt beam="2">  1       21 0.43650889E-01 0.16286198E+03</pdfrwt>
<totfact> 0.58593606E+04</totfact>
</mgrwt>
</event>
<event>
 4    1  0.6024238E+003  0.1160029E+03  0.7546771E-02  0.1249841E+00
         21   -1    0    0  503  501  0.00000000000E+00  0.00000000000E+00  0.18297493236E+03  0.18297493236E+03  0.00000000000E+00 0.  1.
         21   -1    0    0  504  502 -0.00000000000E+00 -0.00000000000E+00 -0.93194266578E+02  0.93194266578E+02  0.00000000000E+00 0.  1.
         21    1    1    2  503  502  0.10029605902E+03 -0.58287032332E+02  0.10829726379E+03  0.15869774711E+03  0.00000000000E+00 0.  1.
         21    1    1    2  504  501 -0.10029605902E+03  0.58287032332E+02 -0.18516598006E+02  0.11747145183E+03  0.00000000000E+00 0.  1.
<mgrwt>
<rscale>  2 0.11600292E+03</rscale>
<asrwt>0</asrwt>
<pdfrwt beam="1">  1       21 0.28149990E-01 0.11600292E+03</pdfrwt>
<pdfrwt beam="2">  1       21 0.14337580E-01 0.11600292E+03</pdfrwt>
<totfact> 0.51786413E+05</totfact>
</mgrwt>
</event>
<event>
 4    1  0.6024238E+003  0.1439505E+03  0.7546771E-02  0.1208110E+00
         21   -1    0    0  503  501  0.00000000000E+00  0.00000000000E+00  0.85025581584E+02  0.85025581584E+02  0.00000000000E+00 0.  1.
         21   -1    0    0  504  502 -0.00000000000E+00 -0.00000000000E+00 -0.28440474298E+03  0.28440474298E+03  0.00000000000E+00 0.  1.
         21    1    1    2  503  502  0.95175831097E+02 -0.10799680706E+03 -0.16955993551E+03  0.22242374174E+03  0.00000000000E+00 0.  1.
         21    1    1    2  504  501 -0.95175831097E+02  0.10799680706E+03 -0.29819225886E+02  0.14700658282E+03  0.00000000000E+00 0.  1.
<mgrwt>
<rscale>  2 0.14395051E+03</rscale>
<asrwt>0</asrwt>
<pdfrwt beam="1">  1       21 0.13080858E-01 0.14395051E+03</pdfrwt>
<pdfrwt beam="2">  1       21 0.43754577E-01 0.14395051E+03</pdfrwt>
<totfact> 0.25532009E+05</totfact>
</mgrwt>
</event>
<event>
 4    1  0.6024238E+003  0.1001792E+03  0.7546771E-02  0.1279920E+00
         21   -1    0    0  503  501  0.00000000000E+00  0.00000000000E+00  0.48699736475E+01  0.48699736475E+01  0.00000000000E+00 0.  1.
         21   -1    0    0  504  502 -0.00000000000E+00 -0.00000000000E+00 -0.28337144598E+04  0.28337144598E+04  0.00000000000E+00 0. -1.
         21    1    1    2  503  502  0.94699901733E+02  0.32677237302E+02 -0.21556799344E+04  0.21580064534E+04  0.00000000000E+00 0. -1.
         21    1    1    2  504  501 -0.94699901733E+02 -0.32677237302E+02 -0.67316455175E+03  0.68057798008E+03  0.00000000000E+00 0.  1.
<mgrwt>
<rscale>  2 0.10017921E+03</rscale>
<asrwt>0</asrwt>
<pdfrwt beam="1">  1       21 0.74922527E-03 0.10017921E+03</pdfrwt>
<pdfrwt beam="2">  1       21 0.43595691E+00 0.10017921E+03</pdfrwt>
<totfact> 0.35392136E+04</totfact>
</mgrwt>
</event>
<event>
 4    1  0.6024238E+003  0.1004176E+03  0.7546771E-02  0.1279420E+00
         21   -1    0    0  503  501  0.00000000000E+00  0.00000000000E+00  0.24437691378E+03  0.24437691378E+03  0.00000000000E+00 0.  1.
         21   -1    0    0  501  502 -0.00000000000E+00 -0.00000000000E+00 -0.22672579666E+03  0.22672579666E+03  0.00000000000E+00 0.  1.
         21    1    1    2  503  504  0.10307476878E+02  0.99887171353E+02  0.22186680860E+03  0.24353351276E+03  0.00000000000E+00 0.  1.
         21    1    1    2  504  502 -0.10307476878E+02 -0.99887171353E+02 -0.20421569148E+03  0.22756919767E+03  0.00000000000E+00 0.  1.
<mgrwt>
<rscale>  2 0.10041758E+03</rscale>
<asrwt>0</asrwt>
<pdfrwt beam="1">  1       21 0.37596448E-01 0.10041758E+03</pdfrwt>
<pdfrwt beam="2">  1       21 0.34880892E-01 0.10041758E+03</pdfrwt>
<totfact> 0.56677772E+04</totfact>
</mgrwt>
</event>
<event>
 4    1  0.6024238E+003  0.1109785E+03  0.7546771E-02  0.1258769E+00
         21   -1    0    0  504  501  0.00000000000E+00  0.00000000000E+00  0.15373619048E+03  0.15373619048E+03  0.00000000000E+00 0.  1.
         21   -1    0    0  503  502 -0.00000000000E+00 -0.00000000000E+00 -0.22623064763E+03  0.22623064763E+03  0.00000000000E+00 0.  1.
         21    1    1    2  503  501 -0.43325108345E+02 -0.10217216924E+03  0.11643616408E+03  0.16085271985E+03  0.00000000000E+00 0.  1.
         21    1    1    2  504  502  0.43325108345E+02  0.10217216924E+03 -0.18893062123E+03  0.21911411825E+03  0.00000000000E+00 0.  1.
<mgrwt>
<rscale>  2 0.11097845E+03</rscale>
<asrwt>0</asrwt>
<pdfrwt beam="1">  1       21 0.23651722E-01 0.11097845E+03</pdfrwt>
<pdfrwt beam="2">  1       21 0.34804715E-01 0.11097845E+03</pdfrwt>
<totfact> 0.13771639E+05</totfact>
</mgrwt>
</event>
<event>
 4    1  0.6024238E+003  0.1027906E+03  0.7546771E-02  0.1274535E+00
         21   -1    0    0  504  501  0.00000000000E+00  0.00000000000E+00  0.30025733830E+02  0.30025733830E+02  0.00000000000E+00 0.  1.
         21   -1    0    0  501  502 -0.00000000000E+00 -0.00000000000E+00 -0.65883225870E+03  0.65883225870E+03  0.00000000000E+00 0.  1.
         21    1    1    2  503  502 -0.37869631471E+02  0.95560417589E+02 -0.54949488796E+03  0.55902641645E+03  0.00000000000E+00 0.  1.
         21    1    1    2  504  503  0.37869631471E+02 -0.95560417589E+02 -0.79311636911E+02  0.12983157608E+03  0.00000000000E+00 0.  1.
<mgrwt>
<rscale>  2 0.10279058E+03</rscale>
<asrwt>0</asrwt>
<pdfrwt beam="1">  1       21 0.46193441E-02 0.10279058E+03</pdfrwt>
<pdfrwt beam="2">  1       21 0.10135880E+00 0.10279058E+03</pdfrwt>
<totfact> 0.25099673E+05</totfact>
</mgrwt>
</event>
<event>
 4    1  0.6024238E+003  0.1045116E+03  0.7546771E-02  0.1271085E+00
         21   -1    0    0  504  501  0.00000000000E+00  0.00000000000E+00  0.11110605451E+03  0.11110605451E+03  0.00000000000E+00 0. -1.
         21   -1    0    0  503  502 -0.00000000000E+00 -0.00000000000E+00 -0.20941975719E+03  0.20941975719E+03  0.00000000000E+00 0.  1.
         21    1    1    2  503  501  0.94664362927E+02  0.44286877890E+02  0.67578723149E+02  0.12445703268E+03  0.00000000000E+00 0. -1.
         21    1    1    2  504  502 -0.94664362927E+02 -0.44286877890E+02 -0.16589242582E+03  0.19606877902E+03  0.00000000000E+00 0.  1.
<mgrwt>
<rscale>  2 0.10451157E+03</rscale>
<asrwt>0</asrwt>
<pdfrwt beam="1">  1       21 0.17093239E-01 0.10451157E+03</pdfrwt>
<pdfrwt beam="2">  1       21 0.32218424E-01 0.10451157E+03</pdfrwt>
<totfact> 0.29148503E+05</totfact>
</mgrwt>
</event>
<event>
 4    1  0.6024238E+003  0.1000843E+03  0.7546771E-02  0.1280119E+00
         21   -1    0    0  503  501  0.00000000000E+00  0.00000000000E+00  0.35687327920E+03  0.35687327920E+03  0.00000000000E+00 0. -1.
         21   -1    0    0  504  502 -0.00000000000E+00 -0.00000000000E+00 -0.50944963459E+02  0.50944963459E+02  0.00000000000E+00 0.  1.
         21    1    1    2  503  502 -0.43949754997E+02 -0.89918212102E+02  0.16323068790E+02  0.10140664873E+03  0.00000000000E+00 0.  1.
         21    1    1    2  504  501  0.43949754997E+02  0.89918212102E+02  0.28960524696E+03  0.30641159393E+03  0.00000000000E+00 0. -1.
<mgrwt>
<rscale>  2 0.10008429E+03</rscale>
<asrwt>0</asrwt>
<pdfrwt beam="1">  1       21 0.54903580E-01 0.10008429E+03</pdfrwt>
<pdfrwt beam="2">  1       21 0.78376869E-02 0.10008429E+03</pdfrwt>
<totfact> 0.39527687E+05</totfact>
</mgrwt>
</event>
<event>
 4    1  0.6024238E+003  0.1283422E+03  0.7546771E-02  0.1229937E+00
         21   -1    0    0  504  501  0.00000000000E+00  0.00000000000E+00  0.13014121412E+04  0.13014121412E+04  0.00000000000E+00 0. -1.
         21   -1    0    0  503  502 -0.00000000000E+00 -0.00000000000E+00 -0.12862568614E+03  0.12862568614E+03  0.00000000000E+00 0.  1.
         21    1    1    2  503  501 -0.12833371322E+03  0.14737515662E+01 -0.92535866130E+02  0.15822326129E+03  0.00000000000E+00 0.  1.
         21    1    1    2  504  502  0.12833371322E+03 -0.14737515662E+01  0.12653223212E+04  0.12718145660E+04  0.00000000000E+00 0. -1.
<mgrwt>
<rscale>  2 0.12834218E+03</rscale>
<asrwt>0</asrwt>
<pdfrwt beam="1">  1       21 0.20021724E+00 0.12834218E+03</pdfrwt>
<pdfrwt beam="2">  1       21 0.19788568E-01 0.12834218E+03</pdfrwt>
<totfact> 0.33900965E+03</totfact>
</mgrwt>
</event>
<event>
 4    1  0.6024238E+003  0.1136703E+03  0.7546771E-02  0.1253920E+00
         21   -1    0    0  504  501  0.00000000000E+00  0.00000000000E+00  0.18765995229E+03  0.18765995229E+03  0.00000000000E+00 0. -1.
         21   -1    0    0  503  502 -0.00000000000E+00 -0.00000000000E+00 -0.38777710104E+03  0.38777710104E+03  0.00000000000E+00 0. -1.
         21    1    1    2  503  501  0.11344824063E+03 -0.71019081805E+01 -0.36098643610E+03  0.37846023233E+03  0.00000000000E+00 0. -1.
         21    1    1    2  504  502 -0.11344824063E+03  0.71019081805E+01  0.16086928735E+03  0.19697682101E+03  0.00000000000E+00 0. -1.
<mgrwt>
<rscale>  2 0.11367031E+03</rscale>
<asrwt>0</asrwt>
<pdfrwt beam="1">  1       21 0.28870762E-01 0.11367031E+03</pdfrwt>
<pdfrwt beam="2">  1       21 0.59658015E-01 0.11367031E+03</pdfrwt>
<totfact> 0.31585154E+04</totfact>
</mgrwt>
</event>
<event>
 4    1  0.6024238E+003  0.1508126E+03  0.7546771E-02  0.1199478E+00
         21   -1    0    0  502  501  0.00000000000E+00  0.00000000000E+00  0.21161423966E+03  0.21161423966E+03  0.00000000000E+00 0.  1.
         21   -1    0    0  503  502 -0.00000000000E+00 -0.00000000000E+00 -0.11542684848E+04  0.11542684848E+04  0.00000000000E+00 0. -1.
         21    1    1    2  503  504  0.14490558867E+03  0.41794816597E+02 -0.11216953712E+04  0.11317883822E+04  0.00000000000E+00 0. -1.
         21    1    1    2  504  501 -0.14490558867E+03 -0.41794816597E+02  0.17904112598E+03  0.23409434234E+03  0.00000000000E+00 0.  1.
<mgrwt>
<rscale>  2 0.15081259E+03</rscale>
<asrwt>0</asrwt>
<pdfrwt beam="1">  1       21 0.32556037E-01 0.15081259E+03</pdfrwt>
<pdfrwt beam="2">  1       21 0.17757977E+00 0.15081259E+03</pdfrwt>
<totfact> 0.17982977E+03</totfact>
</mgrwt>
</event>
<event>
 4    1  0.6024238E+003  0.1356703E+03  0.7546771E-02  0.1219277E+00
         21   -1    0    0  504  501  0.00000000000E+00  0.00000000000E+00  0.14826605904E+03  0.14826605904E+03  0.00000000000E+00 0.  1.
         21   -1    0    0  503  502 -0.00000000000E+00 -0.00000000000E+00 -0.14376035565E+03  0.14376035565E+03  0.00000000000E+00 0.  1.
         21    1    1    2  503  501 -0.33451177274E+02 -0.13148172636E+03  0.56188445422E+02  0.14684538476E+03  0.00000000000E+00 0.  1.
         21    1    1    2  504  502  0.33451177274E+02  0.13148172636E+03 -0.51682742029E+02  0.14518102993E+03  0.00000000000E+00 0.  1.
<mgrwt>
<rscale>  2 0.13567028E+03</rscale>
<asrwt>0</asrwt>
<pdfrwt beam="1">  1       21 0.22810163E-01 0.13567028E+03</pdfrwt>
<pdfrwt beam="2">  1       21 0.22116978E-01 0.13567028E+03</pdfrwt>
<totfact> 0.34824597E+05</totfact>
</mgrwt>
</event>
<event>
 4    1  0.6024238E+003  0.1043984E+03  0.7546771E-02  0.1271310E+00
         21   -1    0    0  503  501  0.00000000000E+00  0.00000000000E+00  0.33881491464E+03  0.33881491464E+03  0.00000000000E+00 0.  1.
         21   -1    0    0  501  502 -0.00000000000E+00 -0.00000000000E+00 -0.96618988378E+02  0.96618988378E+02  0.00000000000E+00 0. -1.
         21    1    1    2  503  504  0.73826361696E+02  0.73815207166E+02  0.29891591776E+03  0.31662239716E+03  0.00000000000E+00 0.  1.
         21    1    1    2  504  502 -0.73826361696E+02 -0.73815207166E+02 -0.56719991497E+02  0.11881150586E+03  0.00000000000E+00 0. -1.
<mgrwt>
<rscale>  2 0.10439835E+03</rscale>
<asrwt>0</asrwt>
<pdfrwt beam="1">  1       21 0.52125371E-01 0.10439835E+03</pdfrwt>
<pdfrwt beam="2">  1       21 0.14864460E-01 0.10439835E+03</pdfrwt>
<totfact> 0.14356086E+05</totfact>
</mgrwt>
</event>
<event>
 4    1  0.6024238E+003  0.1528214E+03  0.7546771E-02  0.1197048E+00
         21   -1    0    0  504  501  0.00000000000E+00  0.00000000000E+00  0.12509852339E+03  0.12509852339E+03  0.00000000000E+00 0. -1.
         21   -1    0    0  501  502 -0.00000000000E+00 -0.00000000000E+00 -0.21962393495E+03  0.21962393495E+03  0.00000000000E+00 0. -1.
         21    1    1    2  503  502 -0.75114413564E+02  0.13308725350E+03 -0.11401017401E+03  0.19066387164E+03  0.00000000000E+00 0. -1.
         21    1    1    2  504  503  0.75114413564E+02 -0.13308725350E+03  0.19484762450E+02  0.15405858671E+03  0.00000000000E+00 0. -1.
<mgrwt>
<rscale>  2 0.15282144E+03</rscale>
<asrwt>0</asrwt>
<pdfrwt beam="1">  1       21 0.19245927E-01 0.15282144E+03</pdfrwt>
<pdfrwt beam="2">  1       21 0.33788297E-01 0.15282144E+03</pdfrwt>
<totfact> 0.21156676E+05</totfact>
</mgrwt>
</event>
<event>
 4    1  0.6024238E+003  0.1834250E+03  0.7546771E-02  0.1164529E+00
         21   -1    0    0  502  501  0.00000000000E+00  0.00000000000E+00  0.41383206211E+03  0.41383206211E+03  0.00000000000E+00 0. -1.
         21   -1    0    0  503  502 -0.00000000000E+00 -0.00000000000E+00 -0.16467086004E+03  0.16467086004E+03  0.00000000000E+00 0. -1.
         21    1    1    2  503  504  0.12307588002E+03 -0.13600394500E+03 -0.81232527827E+02  0.20060774879E+03  0.00000000000E+00 0. -1.
         21    1    1    2  504  501 -0.12307588002E+03  0.13600394500E+03  0.33039372989E+03  0.37789517336E+03  0.00000000000E+00 0. -1.
<mgrwt>
<rscale>  2 0.18342504E+03</rscale>
<asrwt>0</asrwt>
<pdfrwt beam="1">  1       21 0.63666471E-01 0.18342504E+03</pdfrwt>
<pdfrwt beam="2">  1       21 0.25333979E-01 0.18342504E+03</pdfrwt>
<totfact> 0.33831942E+04</totfact>
</mgrwt>
</event>
<event>
 4    1  0.6024238E+003  0.1176697E+03  0.7546771E-02  0.1246992E+00
         21   -1    0    0  502  501  0.00000000000E+00  0.00000000000E+00  0.14695756200E+03  0.14695756200E+03  0.00000000000E+00 0.  1.
         21   -1    0    0  503  502 -0.00000000000E+00 -0.00000000000E+00 -0.10273112651E+03  0.10273112651E+03  0.00000000000E+00 0.  1.
         21    1    1    2  503  504  0.31668859711E+02 -0.11332798891E+03 -0.13824017005E+02  0.11847891455E+03  0.00000000000E+00 0.  1.
         21    1    1    2  504  501 -0.31668859711E+02  0.11332798891E+03  0.58050452501E+02  0.13120977396E+03  0.00000000000E+00 0.  1.
<mgrwt>
<rscale>  2 0.11766966E+03</rscale>
<asrwt>0</asrwt>
<pdfrwt beam="1">  1       21 0.22608856E-01 0.11766966E+03</pdfrwt>
<pdfrwt beam="2">  1       21 0.15804789E-01 0.11766966E+03</pdfrwt>
<totfact> 0.65723357E+05</totfact>
</mgrwt>
</event>
<event>
 4    1  0.6024238E+003  0.1151736E+03  0.7546771E-02  0.1251278E+00
         21   -1    0    0  504  501  0.00000000000E+00  0.00000000000E+00  0.28156348730E+03  0.28156348730E+03  0.00000000000E+00 0. -1.
         21   -1    0    0  503  502 -0.00000000000E+00 -0.00000000000E+00 -0.19584573135E+03  0.19584573135E+03  0.00000000000E+00 0.  1.
         21    1    1    2  503  501  0.37160275855E+02  0.10901414292E+03 -0.16516287118E+03  0.20135477018E+03  0.00000000000E+00 0.  1.
         21    1    1    2  504  502 -0.37160275855E+02 -0.10901414292E+03  0.25088062713E+03  0.27605444848E+03  0.00000000000E+00 0. -1.
<mgrwt>
<rscale>  2 0.11517365E+03</rscale>
<asrwt>0</asrwt>
<pdfrwt beam="1">  1       21 0.43317459E-01 0.11517365E+03</pdfrwt>
<pdfrwt beam="2">  1       21 0.30130113E-01 0.11517365E+03</pdfrwt>
<totfact> 0.56250688E+04</totfact>
</mgrwt>
</event>
<event>
 4    1  0.6024238E+003  0.1589717E+03  0.7546771E-02  0.1189863E+00
         21   -1    0    0  504  501  0.00000000000E+00  0.00000000000E+00  0.29709886868E+03  0.29709886868E+03  0.00000000000E+00 0.  1.
         21   -1    0    0  503  502 -0.00000000000E+00 -0.00000000000E+00 -0.21779646350E+03  0.21779646350E+03  0.00000000000E+00 0.  1.
         21    1    1    2  503  501 -0.14924320793E+03 -0.54758212775E+02 -0.16132953882E+03  0.22649330470E+03  0.00000000000E+00 0.  1.
         21    1    1    2  504  502  0.14924320793E+03  0.54758212775E+02  0.24063194400E+03  0.28840202747E+03  0.00000000000E+00 0.  1.
<mgrwt>
<rscale>  2 0.15897169E+03</rscale>
<asrwt>0</asrwt>
<pdfrwt beam="1">  1       21 0.45707518E-01 0.15897169E+03</pdfrwt>
<pdfrwt beam="2">  1       21 0.33507148E-01 0.15897169E+03</pdfrwt>
<totfact> 0.40071281E+04</totfact>
</mgrwt>
</event>
<event>
 4    1  0.6024238E+003  0.1209338E+03  0.7546771E-02  0.1241564E+00
         21   -1    0    0  502  501  0.00000000000E+00  0.00000000000E+00  0.11932197675E+03  0.11932197675E+03  0.00000000000E+00 0. -1.
         21   -1    0    0  504  502 -0.00000000000E+00 -0.00000000000E+00 -0.65409414701E+03  0.65409414701E+03  0.00000000000E+00 0.  1.
         21    1    1    2  503  501  0.13642269155E+02  0.12016188760E+03  0.81212511883E+02  0.14567245046E+03  0.00000000000E+00 0. -1.
         21    1    1    2  504  503 -0.13642269155E+02 -0.12016188760E+03 -0.61598468214E+03  0.62774367330E+03  0.00000000000E+00 0.  1.
<mgrwt>
<rscale>  2 0.12093383E+03</rscale>
<asrwt>0</asrwt>
<pdfrwt beam="1">  1       21 0.18357227E-01 0.12093383E+03</pdfrwt>
<pdfrwt beam="2">  1       21 0.10062987E+00 0.12093383E+03</pdfrwt>
<totfact> 0.22974335E+04</totfact>
</mgrwt>
</event>
<event>
 4    1  0.6024238E+003  0.2151834E+03  0.7546771E-02  0.1137526E+00
         21   -1    0    0  504  501  0.00000000000E+00  0.00000000000E+00  0.47174089789E+02  0.47174089789E+02  0.00000000000E+00 0.  1.
         21   -1    0    0  503  502 -0.00000000000E+00 -0.00000000000E+00 -0.10172149650E+04  0.10172149650E+04  0.00000000000E+00 0.  1.
         21    1    1    2  503  501 -0.65861950074E+02 -0.20485632237E+03 -0.58466681507E+03  0.62300818127E+03  0.00000000000E+00 0.  1.
         21    1    1    2  504  502  0.65861950074E+02  0.20485632237E+03 -0.38537406017E+03  0.44138087355E+03  0.00000000000E+00 0.  1.
<mgrwt>
<rscale>  2 0.21518343E+03</rscale>
<asrwt>0</asrwt>
<pdfrwt beam="1">  1       21 0.72575519E-02 0.21518343E+03</pdfrwt>
<pdfrwt beam="2">  1       21 0.15649462E+00 0.21518343E+03</pdfrwt>
<totfact> 0.37453116E+04</totfact>
</mgrwt>
</event>
<event>
 4    1  0.6024238E+003  0.1011623E+03  0.7546771E-02  0.1277871E+00
         21   -1    0    0  504  501  0.00000000000E+00  0.00000000000E+00  0.55230372035E+02  0.55230372035E+02  0.00000000000E+00 0. -1.
         21   -1    0    0  503  502 -0.00000000000E+00 -0.00000000000E+00 -0.22100774039E+03  0.22100774039E+03  0.00000000000E+00 0.  1.
         21    1    1    2  503  501 -0.97180123547E+02 -0.28103885238E+02 -0.13841172316E+03  0.17143981418E+03  0.00000000000E+00 0.  1.
         21    1    1    2  504  502  0.97180123547E+02  0.28103885238E+02 -0.27365645194E+02  0.10479829824E+03  0.00000000000E+00 0. -1.
<mgrwt>
<rscale>  2 0.10116227E+03</rscale>
<asrwt>0</asrwt>
<pdfrwt beam="1">  1       21 0.84969805E-02 0.10116227E+03</pdfrwt>
<pdfrwt beam="2">  1       21 0.34001190E-01 0.10116227E+03</pdfrwt>
<totfact> 0.90060356E+05</totfact>
</mgrwt>
</event>
<event>
 4    1  0.6024238E+003  0.1190712E+03  0.7546771E-02  0.1244637E+00
         21   -1    0    0  504  501  0.00000000000E+00  0.00000000000E+00  0.17585868588E+04  0.17585868588E+04  0.00000000000E+00 0. -1.
         21   -1    0    0  503  502 -0.00000000000E+00 -0.00000000000E+00 -0.47472675662E+02  0.47472675662E+02  0.00000000000E+00 0. -1.
         21    1    1    2  503  501 -0.10834336132E+03 -0.49393020091E+02  0.32771950385E+02  0.12349880610E+03  0.00000000000E+00 0. -1.
         21    1    1    2  504  502  0.10834336132E+03  0.49393020091E+02  0.16783422328E+04  0.16825607284E+04  0.00000000000E+00 0. -1.
<mgrwt>
<rscale>  2 0.11907122E+03</rscale>
<asrwt>0</asrwt>
<pdfrwt beam="1">  1       21 0.27055177E+00 0.11907122E+03</pdfrwt>
<pdfrwt beam="2">  1       21 0.73034899E-02 0.11907122E+03</pdfrwt>
<totfact> 0.77771365E+03</totfact>
</mgrwt>
</event>
<event>
 4    1  0.6024238E+003  0.1029806E+03  0.7546771E-02  0.1274150E+00
         21   -1    0    0  504  501  0.00000000000E+00  0.00000000000E+00  0.10499619092E+02  0.10499619092E+02  0.00000000000E+00 0. -1.
         21   -1    0    0  501  502 -0.00000000000E+00 -0.00000000000E+00 -0.10537229894E+04  0.10537229894E+04  0.00000000000E+00 0. -1.
         21    1    1    2  503  502 -0.93643469964E+02 -0.42847360033E+02 -0.41326536842E+03  0.42590287680E+03  0.00000000000E+00 0. -1.
         21    1    1    2  504  503  0.93643469964E+02  0.42847360033E+02 -0.62995800193E+03  0.63831973173E+03  0.00000000000E+00 0. -1.
<mgrwt>
<rscale>  2 0.10298056E+03</rscale>
<asrwt>0</asrwt>
<pdfrwt beam="1">  1       21 0.16153255E-02 0.10298056E+03</pdfrwt>
<pdfrwt beam="2">  1       21 0.16211128E+00 0.10298056E+03</pdfrwt>
<totfact> 0.43516984E+05</totfact>
</mgrwt>
</event>
<event>
 4    1  0.6024238E+003  0.1074017E+03  0.7546771E-02  0.1265459E+00
         21   -1    0    0  504  501  0.00000000000E+00  0.00000000000E+00  0.34553380037E+02  0.34553380037E+02  0.00000000000E+00 0. -1.
         21   -1    0    0  503  502 -0.00000000000E+00 -0.00000000000E+00 -0.38935450028E+03  0.38935450028E+03  0.00000000000E+00 0. -1.
         21    1    1    2  503  501 -0.15295120760E+02 -0.10630704986E+03 -0.97363440821E+02  0.14496471701E+03  0.00000000000E+00 0. -1.
         21    1    1    2  504  502  0.15295120760E+02  0.10630704986E+03 -0.25743767942E+03  0.27894316330E+03  0.00000000000E+00 0. -1.
<mgrwt>
<rscale>  2 0.10740172E+03</rscale>
<asrwt>0</asrwt>
<pdfrwt beam="1">  1       21 0.53159046E-02 0.10740172E+03</pdfrwt>
<pdfrwt beam="2">  1       21 0.59900692E-01 0.10740172E+03</pdfrwt>
<totfact> 0.63532446E+05</totfact>
</mgrwt>
</event>
<event>
 4    1  0.6024238E+003  0.1204740E+03  0.7546771E-02  0.1242317E+00
         21   -1    0    0  504  501  0.00000000000E+00  0.00000000000E+00  0.48208807789E+03  0.48208807789E+03  0.00000000000E+00 0. -1.
         21   -1    0    0  503  502 -0.00000000000E+00 -0.00000000000E+00 -0.19778357758E+03  0.19778357758E+03  0.00000000000E+00 0.  1.
         21    1    1    2  503  501  0.39539487855E+02 -0.11380080648E+03  0.45514814890E+03  0.47082250594E+03  0.00000000000E+00 0. -1.
         21    1    1    2  504  502 -0.39539487855E+02  0.11380080648E+03 -0.17084364858E+03  0.20904914952E+03  0.00000000000E+00 0.  1.
<mgrwt>
<rscale>  2 0.12047404E+03</rscale>
<asrwt>0</asrwt>
<pdfrwt beam="1">  1       21 0.74167397E-01 0.12047404E+03</pdfrwt>
<pdfrwt beam="2">  1       21 0.30428243E-01 0.12047404E+03</pdfrwt>
<totfact> 0.17764165E+04</totfact>
</mgrwt>
</event>
<event>
 4    1  0.6024238E+003  0.1280435E+03  0.7546771E-02  0.1230388E+00
         21   -1    0    0  503  501  0.00000000000E+00  0.00000000000E+00  0.48738325603E+03  0.48738325603E+03  0.00000000000E+00 0.  1.
         21   -1    0    0  504  502 -0.00000000000E+00 -0.00000000000E+00 -0.42747649696E+02  0.42747649696E+02  0.00000000000E+00 0.  1.
         21    1    1    2  503  502 -0.93325697901E+02 -0.87666732786E+02  0.34467266747E+03  0.36768789704E+03  0.00000000000E+00 0.  1.
         21    1    1    2  504  501  0.93325697901E+02  0.87666732786E+02  0.99962938864E+02  0.16244300869E+03  0.00000000000E+00 0.  1.
<mgrwt>
<rscale>  2 0.12804352E+03</rscale>
<asrwt>0</asrwt>
<pdfrwt beam="1">  1       21 0.74982036E-01 0.12804352E+03</pdfrwt>
<pdfrwt beam="2">  1       21 0.65765618E-02 0.12804352E+03</pdfrwt>
<totfact> 0.27229863E+05</totfact>
</mgrwt>
</event>
<event>
 4    1  0.6024238E+003  0.1045911E+03  0.7546771E-02  0.1270927E+00
         21   -1    0    0  502  501  0.00000000000E+00  0.00000000000E+00  0.59800088119E+02  0.59800088119E+02  0.00000000000E+00 0. -1.
         21   -1    0    0  503  502 -0.00000000000E+00 -0.00000000000E+00 -0.34670885083E+03  0.34670885083E+03  0.00000000000E+00 0. -1.
         21    1    1    2  503  504 -0.29910756887E+02 -0.10022295508E+03 -0.28315075460E+03  0.30185036679E+03  0.00000000000E+00 0. -1.
         21    1    1    2  504  501  0.29910756887E+02  0.10022295508E+03 -0.37580081158E+01  0.10465857216E+03  0.00000000000E+00 0. -1.
<mgrwt>
<rscale>  2 0.10459108E+03</rscale>
<asrwt>0</asrwt>
<pdfrwt beam="1">  1       21 0.92000137E-02 0.10459108E+03</pdfrwt>
<pdfrwt beam="2">  1       21 0.53339822E-01 0.10459108E+03</pdfrwt>
<totfact> 0.31835792E+05</totfact>
</mgrwt>
</event>
<event>
 4    1  0.6024238E+003  0.1293158E+03  0.7546771E-02  0.1228475E+00
         21   -1    0    0  504  501  0.00000000000E+00  0.00000000000E+00  0.49074545342E+03  0.49074545342E+03  0.00000000000E+00 0.  1.
         21   -1    0    0  503  502 -0.00000000000E+00 -0.00000000000E+00 -0.11078392240E+04  0.11078392240E+04  0.00000000000E+00 0. -1.
         21    1    1    2  503  501  0.97526129216E+02 -0.84918931886E+02 -0.10954505601E+04  0.11030568891E+04  0.00000000000E+00 0. -1.
         21    1    1    2  504  502 -0.97526129216E+02  0.84918931886E+02  0.47835678957E+03  0.49552778832E+03  0.00000000000E+00 0.  1.
<mgrwt>
<rscale>  2 0.12931578E+03</rscale>
<asrwt>0</asrwt>
<pdfrwt beam="1">  1       21 0.75499301E-01 0.12931578E+03</pdfrwt>
<pdfrwt beam="2">  1       21 0.17043680E+00 0.12931578E+03</pdfrwt>
<totfact> 0.36360704E+02</totfact>
</mgrwt>
</event>
<event>
 4    1  0.6024238E+003  0.1113221E+03  0.7546771E-02  0.1258141E+00
         21   -1    0    0  504  501  0.00000000000E+00  0.00000000000E+00  0.61296304235E+01  0.61296304235E+01  0.00000000000E+00 0.  1.
         21   -1    0    0  503  502 -0.00000000000E+00 -0.00000000000E+00 -0.23106800761E+04  0.23106800761E+04  0.00000000000E+00 0.  1.
         21    1    1    2  503  501 -0.13231012481E+02  0.11053302705E+03 -0.74265327023E+03  0.75095039087E+03  0.00000000000E+00 0.  1.
         21    1    1    2  504  502  0.13231012481E+02 -0.11053302705E+03 -0.15618971754E+04  0.15658593156E+04  0.00000000000E+00 0.  1.
<mgrwt>
<rscale>  2 0.11132210E+03</rscale>
<asrwt>0</asrwt>
<pdfrwt beam="1">  1       21 0.94301843E-03 0.11132210E+03</pdfrwt>
<pdfrwt beam="2">  1       21 0.35548986E+00 0.11132210E+03</pdfrwt>
<totfact> 0.73827438E+04</totfact>
</mgrwt>
</event>
<event>
 4    1  0.6024238E+003  0.1216233E+03  0.7546771E-02  0.1240443E+00
         21   -1    0    0  504  501  0.00000000000E+00  0.00000000000E+00  0.95785518896E+02  0.95785518896E+02  0.00000000000E+00 0.  1.
         21   -1    0    0  503  502 -0.00000000000E+00 -0.00000000000E+00 -0.17400118066E+03  0.17400118066E+03  0.00000000000E+00 0.  1.
         21    1    1    2  503  501 -0.56596703613E+02 -0.10765239630E+03 -0.84347052487E+02  0.14800895430E+03  0.00000000000E+00 0.  1.
         21    1    1    2  504  502  0.56596703613E+02  0.10765239630E+03  0.61313907187E+01  0.12177774526E+03  0.00000000000E+00 0.  1.
<mgrwt>
<rscale>  2 0.12162329E+03</rscale>
<asrwt>0</asrwt>
<pdfrwt beam="1">  1       21 0.14736234E-01 0.12162329E+03</pdfrwt>
<pdfrwt beam="2">  1       21 0.26769412E-01 0.12162329E+03</pdfrwt>
<totfact> 0.54239506E+05</totfact>
</mgrwt>
</event>
<event>
 4    1  0.6024238E+003  0.1001397E+03  0.7546771E-02  0.1280003E+00
         21   -1    0    0  504  501  0.00000000000E+00  0.00000000000E+00  0.11444708486E+03  0.11444708486E+03  0.00000000000E+00 0. -1.
         21   -1    0    0  501  502 -0.00000000000E+00 -0.00000000000E+00 -0.14836531990E+03  0.14836531990E+03  0.00000000000E+00 0.  1.
         21    1    1    2  503  502 -0.96915086256E+02 -0.25207507551E+02 -0.10104110938E+03  0.14225771742E+03  0.00000000000E+00 0.  1.
         21    1    1    2  504  503  0.96915086256E+02  0.25207507551E+02  0.67122874336E+02  0.12055468734E+03  0.00000000000E+00 0. -1.
<mgrwt>
<rscale>  2 0.10013966E+03</rscale>
<asrwt>0</asrwt>
<pdfrwt beam="1">  1       21 0.17607244E-01 0.10013966E+03</pdfrwt>
<pdfrwt beam="2">  1       21 0.22825434E-01 0.10013966E+03</pdfrwt>
<totfact> 0.53107951E+05</totfact>
</mgrwt>
</event>
<event>
 4    1  0.6024238E+003  0.1121228E+03  0.7546771E-02  0.1256689E+00
         21   -1    0    0  503  501  0.00000000000E+00  0.00000000000E+00  0.16547211002E+04  0.16547211002E+04  0.00000000000E+00 0.  1.
         21   -1    0    0  504  502 -0.00000000000E+00 -0.00000000000E+00 -0.31654939564E+02  0.31654939564E+02  0.00000000000E+00 0. -1.
         21    1    1    2  503  502 -0.11180244969E+03  0.84698166308E+01  0.76461598519E+02  0.13571256979E+03  0.00000000000E+00 0. -1.
         21    1    1    2  504  501  0.11180244969E+03 -0.84698166308E+01  0.15466045622E+04  0.15506634700E+04  0.00000000000E+00 0.  1.
<mgrwt>
<rscale>  2 0.11212281E+03</rscale>
<asrwt>0</asrwt>
<pdfrwt beam="1">  1       21 0.25457241E+00 0.11212281E+03</pdfrwt>
<pdfrwt beam="2">  1       21 0.48699920E-02 0.11212281E+03</pdfrwt>
<totfact> 0.19183262E+04</totfact>
</mgrwt>
</event>
<event>
 4    1  0.6024238E+003  0.1022836E+03  0.7546771E-02  0.1275566E+00
         21   -1    0    0  503  501  0.00000000000E+00  0.00000000000E+00  0.90258645051E+03  0.90258645051E+03  0.00000000000E+00 0.  1.
         21   -1    0    0  504  502 -0.00000000000E+00 -0.00000000000E+00 -0.31070752878E+02  0.31070752878E+02  0.00000000000E+00 0.  1.
         21    1    1    2  503  502  0.71315266660E+02 -0.73321733780E+02  0.66123352744E+02  0.12179590174E+03  0.00000000000E+00 0.  1.
         21    1    1    2  504  501 -0.71315266660E+02  0.73321733780E+02  0.80539234489E+03  0.81186130165E+03  0.00000000000E+00 0.  1.
<mgrwt>
<rscale>  2 0.10228364E+03</rscale>
<asrwt>0</asrwt>
<pdfrwt beam="1">  1       21 0.13885943E+00 0.10228364E+03</pdfrwt>
<pdfrwt beam="2">  1       21 0.47801165E-02 0.10228364E+03</pdfrwt>
<totfact> 0.11091170E+05</totfact>
</mgrwt>
</event>
<event>
 4    1  0.6024238E+003  0.1016130E+03  0.7546771E-02  0.1276940E+00
         21   -1    0    0  503  501  0.00000000000E+00  0.00000000000E+00  0.19150235472E+03  0.19150235472E+03  0.00000000000E+00 0.  1.
         21   -1    0    0  504  502 -0.00000000000E+00 -0.00000000000E+00 -0.22417796933E+03  0.22417796933E+03  0.00000000000E+00 0.  1.
         21    1    1    2  503  502  0.97367244491E+02 -0.29065951735E+02  0.16479232662E+03  0.19360196477E+03  0.00000000000E+00 0.  1.
         21    1    1    2  504  501 -0.97367244491E+02  0.29065951735E+02 -0.19746794123E+03  0.22207835929E+03  0.00000000000E+00 0.  1.
<mgrwt>
<rscale>  2 0.10161304E+03</rscale>
<asrwt>0</asrwt>
<pdfrwt beam="1">  1       21 0.29461901E-01 0.10161304E+03</pdfrwt>
<pdfrwt beam="2">  1       21 0.34488918E-01 0.10161304E+03</pdfrwt>
<totfact> 0.92906785E+04</totfact>
</mgrwt>
</event>
<event>
 4    1  0.6024238E+003  0.1420716E+03  0.7546771E-02  0.1210568E+00
         21   -1    0    0  503  501  0.00000000000E+00  0.00000000000E+00  0.29282544055E+02  0.29282544055E+02  0.00000000000E+00 0.  1.
         21   -1    0    0  501  502 -0.00000000000E+00 -0.00000000000E+00 -0.10194950397E+04  0.10194950397E+04  0.00000000000E+00 0.  1.
         21    1    1    2  503  504 -0.75166006257E+02 -0.12055872202E+03 -0.19667184110E+03  0.24261934596E+03  0.00000000000E+00 0.  1.
         21    1    1    2  504  502  0.75166006257E+02  0.12055872202E+03 -0.79354065456E+03  0.80615823781E+03  0.00000000000E+00 0.  1.
<mgrwt>
<rscale>  2 0.14207158E+03</rscale>
<asrwt>0</asrwt>
<pdfrwt beam="1">  1       21 0.45050061E-02 0.14207158E+03</pdfrwt>
<pdfrwt beam="2">  1       21 0.15684541E+00 0.14207158E+03</pdfrwt>
<totfact> 0.87490556E+04</totfact>
</mgrwt>
</event>
<event>
 4    1  0.6024238E+003  0.1022704E+03  0.7546771E-02  0.1275593E+00
         21   -1    0    0  504  501  0.00000000000E+00  0.00000000000E+00  0.52354635494E+02  0.52354635494E+02  0.00000000000E+00 0. -1.
         21   -1    0    0  501  502 -0.00000000000E+00 -0.00000000000E+00 -0.20666275316E+03  0.20666275316E+03  0.00000000000E+00 0. -1.
         21    1    1    2  503  502  0.87227273118E+02 -0.53391448751E+02 -0.53514009015E+02  0.11542527079E+03  0.00000000000E+00 0. -1.
         21    1    1    2  504  503 -0.87227273118E+02  0.53391448751E+02 -0.10079410866E+03  0.14359211787E+03  0.00000000000E+00 0. -1.
<mgrwt>
<rscale>  2 0.10227045E+03</rscale>
<asrwt>0</asrwt>
<pdfrwt beam="1">  1       21 0.80545595E-02 0.10227045E+03</pdfrwt>
<pdfrwt beam="2">  1       21 0.31794269E-01 0.10227045E+03</pdfrwt>
<totfact> 0.11244116E+06</totfact>
</mgrwt>
</event>
<event>
 4    1  0.6024238E+003  0.1118646E+03  0.7546771E-02  0.1257155E+00
         21   -1    0    0  503  501  0.00000000000E+00  0.00000000000E+00  0.47989020088E+02  0.47989020088E+02  0.00000000000E+00 0. -1.
         21   -1    0    0  501  502 -0.00000000000E+00 -0.00000000000E+00 -0.16652653525E+04  0.16652653525E+04  0.00000000000E+00 0. -1.
         21    1    1    2  503  504 -0.38865556591E+02  0.10489595335E+03 -0.21933754281E+02  0.11399465818E+03  0.00000000000E+00 0. -1.
         21    1    1    2  504  502  0.38865556591E+02 -0.10489595335E+03 -0.15953425782E+04  0.15992597144E+04  0.00000000000E+00 0. -1.
<mgrwt>
<rscale>  2 0.11186462E+03</rscale>
<asrwt>0</asrwt>
<pdfrwt beam="1">  1       21 0.73829259E-02 0.11186462E+03</pdfrwt>
<pdfrwt beam="2">  1       21 0.25619468E+00 0.11186462E+03</pdfrwt>
<totfact> 0.93009575E+03</totfact>
</mgrwt>
</event>
<event>
 4    1  0.6024238E+003  0.1153798E+03  0.7546771E-02  0.1250920E+00
         21   -1    0    0  502  501  0.00000000000E+00  0.00000000000E+00  0.12430166044E+03  0.12430166044E+03  0.00000000000E+00 0.  1.
         21   -1    0    0  504  502 -0.00000000000E+00 -0.00000000000E+00 -0.37857546372E+03  0.37857546372E+03  0.00000000000E+00 0.  1.
         21    1    1    2  503  501 -0.39945083345E+02 -0.10824455744E+03  0.85785973230E+02  0.14377665702E+03  0.00000000000E+00 0.  1.
         21    1    1    2  504  503  0.39945083345E+02  0.10824455744E+03 -0.34005977651E+03  0.35910046714E+03  0.00000000000E+00 0.  1.
<mgrwt>
<rscale>  2 0.11537978E+03</rscale>
<asrwt>0</asrwt>
<pdfrwt beam="1">  1       21 0.19123333E-01 0.11537978E+03</pdfrwt>
<pdfrwt beam="2">  1       21 0.58242379E-01 0.11537978E+03</pdfrwt>
<totfact> 0.71790269E+04</totfact>
</mgrwt>
</event>
<event>
 4    1  0.6024238E+003  0.1346266E+03  0.7546771E-02  0.1220748E+00
         21   -1    0    0  503  501  0.00000000000E+00  0.00000000000E+00  0.30834729097E+03  0.30834729097E+03  0.00000000000E+00 0.  1.
         21   -1    0    0  504  502 -0.00000000000E+00 -0.00000000000E+00 -0.11584813115E+03  0.11584813115E+03  0.00000000000E+00 0.  1.
         21    1    1    2  503  502  0.13349319404E+03 -0.17432623962E+02  0.24511447497E+03  0.27965234680E+03  0.00000000000E+00 0.  1.
         21    1    1    2  504  501 -0.13349319404E+03  0.17432623962E+02 -0.52615315149E+02  0.14454307531E+03  0.00000000000E+00 0.  1.
<mgrwt>
<rscale>  2 0.13462663E+03</rscale>
<asrwt>0</asrwt>
<pdfrwt beam="1">  1       21 0.47438044E-01 0.13462663E+03</pdfrwt>
<pdfrwt beam="2">  1       21 0.17822790E-01 0.13462663E+03</pdfrwt>
<totfact> 0.12404808E+05</totfact>
</mgrwt>
</event>
<event>
 4    1  0.6024238E+003  0.1325711E+03  0.7546771E-02  0.1223690E+00
         21   -1    0    0  503  501  0.00000000000E+00  0.00000000000E+00  0.19753157906E+03  0.19753157906E+03  0.00000000000E+00 0.  1.
         21   -1    0    0  504  502 -0.00000000000E+00 -0.00000000000E+00 -0.89219715399E+02  0.89219715399E+02  0.00000000000E+00 0.  1.
         21    1    1    2  503  502  0.11829867050E+03  0.59837399103E+02  0.46625136326E+02  0.14053111083E+03  0.00000000000E+00 0.  1.
         21    1    1    2  504  501 -0.11829867050E+03 -0.59837399103E+02  0.61686727339E+02  0.14622018364E+03  0.00000000000E+00 0.  1.
<mgrwt>
<rscale>  2 0.13257107E+03</rscale>
<asrwt>0</asrwt>
<pdfrwt beam="1">  1       21 0.30389474E-01 0.13257107E+03</pdfrwt>
<pdfrwt beam="2">  1       21 0.13726110E-01 0.13257107E+03</pdfrwt>
<totfact> 0.48280090E+05</totfact>
</mgrwt>
</event>
<event>
 4    1  0.6024238E+003  0.1288893E+03  0.7546771E-02  0.1229113E+00
         21   -1    0    0  503  501  0.00000000000E+00  0.00000000000E+00  0.30950953142E+03  0.30950953142E+03  0.00000000000E+00 0. -1.
         21   -1    0    0  501  502 -0.00000000000E+00 -0.00000000000E+00 -0.72305300624E+02  0.72305300624E+02  0.00000000000E+00 0. -1.
         21    1    1    2  503  504 -0.12788127908E+03 -0.16088455613E+02  0.21551134506E+03  0.25111272328E+03  0.00000000000E+00 0. -1.
         21    1    1    2  504  502  0.12788127908E+03  0.16088455613E+02  0.21692885739E+02  0.13070210877E+03  0.00000000000E+00 0. -1.
<mgrwt>
<rscale>  2 0.12888933E+03</rscale>
<asrwt>0</asrwt>
<pdfrwt beam="1">  1       21 0.47616850E-01 0.12888933E+03</pdfrwt>
<pdfrwt beam="2">  1       21 0.11123893E-01 0.12888933E+03</pdfrwt>
<totfact> 0.28736157E+05</totfact>
</mgrwt>
</event>
<event>
 4    1  0.6024238E+003  0.1226267E+03  0.7546771E-02  0.1238826E+00
         21   -1    0    0  504  501  0.00000000000E+00  0.00000000000E+00  0.42118173534E+02  0.42118173534E+02  0.00000000000E+00 0.  1.
         21   -1    0    0  503  502 -0.00000000000E+00 -0.00000000000E+00 -0.42017238951E+03  0.42017238951E+03  0.00000000000E+00 0.  1.
         21    1    1    2  503  501 -0.79881500244E+02 -0.93039037279E+02 -0.99419929460E+02  0.15786588901E+03  0.00000000000E+00 0.  1.
         21    1    1    2  504  502  0.79881500244E+02  0.93039037279E+02 -0.27863428652E+03  0.30442467404E+03  0.00000000000E+00 0.  1.
<mgrwt>
<rscale>  2 0.12262674E+03</rscale>
<asrwt>0</asrwt>
<pdfrwt beam="1">  1       21 0.64797189E-02 0.12262674E+03</pdfrwt>
<pdfrwt beam="2">  1       21 0.64641907E-01 0.12262674E+03</pdfrwt>
<totfact> 0.38612326E+05</totfact>
</mgrwt>
</event>
<event>
 4    1  0.6024238E+003  0.1736309E+03  0.7546771E-02  0.1174113E+00
         21   -1    0    0  502  501  0.00000000000E+00  0.00000000000E+00  0.54525096042E+03  0.54525096042E+03  0.00000000000E+00 0.  1.
         21   -1    0    0  503  502 -0.00000000000E+00 -0.00000000000E+00 -0.14591408891E+03  0.14591408891E+03  0.00000000000E+00 0.  1.
         21    1    1    2  503  504  0.17035271691E+03  0.33580112425E+02 -0.72678005861E+02  0.18822795925E+03  0.00000000000E+00 0.  1.
         21    1    1    2  504  501 -0.17035271691E+03 -0.33580112425E+02  0.47201487737E+03  0.50293709007E+03  0.00000000000E+00 0.  1.
<mgrwt>
<rscale>  2 0.17363085E+03</rscale>
<asrwt>0</asrwt>
<pdfrwt beam="1">  1       21 0.83884762E-01 0.17363085E+03</pdfrwt>
<pdfrwt beam="2">  1       21 0.22448322E-01 0.17363085E+03</pdfrwt>
<totfact> 0.23210128E+04</totfact>
</mgrwt>
</event>
<event>
 4    1  0.6024238E+003  0.1335348E+03  0.7546771E-02  0.1222303E+00
         21   -1    0    0  504  501  0.00000000000E+00  0.00000000000E+00  0.10979895383E+04  0.10979895383E+04  0.00000000000E+00 0. -1.
         21   -1    0    0  503  502 -0.00000000000E+00 -0.00000000000E+00 -0.16312444780E+02  0.16312444780E+02  0.00000000000E+00 0. -1.
         21    1    1    2  503  501  0.50974683316E+02  0.12342255355E+03  0.50375476223E+03  0.52115295790E+03  0.00000000000E+00 0. -1.
         21    1    1    2  504  502 -0.50974683316E+02 -0.12342255355E+03  0.57792233132E+03  0.59314902520E+03  0.00000000000E+00 0. -1.
<mgrwt>
<rscale>  2 0.13353481E+03</rscale>
<asrwt>0</asrwt>
<pdfrwt beam="1">  1       21 0.16892141E+00 0.13353481E+03</pdfrwt>
<pdfrwt beam="2">  1       21 0.25096077E-02 0.13353481E+03</pdfrwt>
<totfact> 0.18933994E+05</totfact>
</mgrwt>
</event>
<event>
 4    1  0.6024238E+003  0.1000626E+03  0.7546771E-02  0.1280164E+00
         21   -1    0    0  502  501  0.00000000000E+00  0.00000000000E+00  0.11914231128E+02  0.11914231128E+02  0.00000000000E+00 0. -1.
         21   -1    0    0  503  502 -0.00000000000E+00 -0.00000000000E+00 -0.14341456732E+04  0.14341456732E+04  0.00000000000E+00 0. -1.
         21    1    1    2  503  504  0.76617477806E+01  0.99768824215E+02 -0.11763438848E+04  0.11805919939E+04  0.00000000000E+00 0. -1.
         21    1    1    2  504  501 -0.76617477806E+01 -0.99768824215E+02 -0.24588755723E+03  0.26546791043E+03  0.00000000000E+00 0. -1.
<mgrwt>
<rscale>  2 0.10006258E+03</rscale>
<asrwt>0</asrwt>
<pdfrwt beam="1">  1       21 0.18329581E-02 0.10006258E+03</pdfrwt>
<pdfrwt beam="2">  1       21 0.22063786E+00 0.10006258E+03</pdfrwt>
<totfact> 0.15049504E+05</totfact>
</mgrwt>
</event>
<event>
 4    1  0.6024238E+003  0.1035670E+03  0.7546771E-02  0.1272969E+00
         21   -1    0    0  504  501  0.00000000000E+00  0.00000000000E+00  0.48161494612E+03  0.48161494612E+03  0.00000000000E+00 0.  1.
         21   -1    0    0  503  502 -0.00000000000E+00 -0.00000000000E+00 -0.23341641868E+02  0.23341641868E+02  0.00000000000E+00 0.  1.
         21    1    1    2  503  501 -0.16164397802E+02  0.10229774008E+03  0.28320603750E+03  0.30154895964E+03  0.00000000000E+00 0.  1.
         21    1    1    2  504  502  0.16164397802E+02 -0.10229774008E+03  0.17506726674E+03  0.20340762834E+03  0.00000000000E+00 0.  1.
<mgrwt>
<rscale>  2 0.10356696E+03</rscale>
<asrwt>0</asrwt>
<pdfrwt beam="1">  1       21 0.74094600E-01 0.10356696E+03</pdfrwt>
<pdfrwt beam="2">  1       21 0.35910222E-02 0.10356696E+03</pdfrwt>
<totfact> 0.77145332E+05</totfact>
</mgrwt>
</event>
<event>
 4    1  0.6024238E+003  0.1167052E+03  0.7546771E-02  0.1248634E+00
         21   -1    0    0  502  501  0.00000000000E+00  0.00000000000E+00  0.78070426461E+03  0.78070426461E+03  0.00000000000E+00 0. -1.
         21   -1    0    0  504  502 -0.00000000000E+00 -0.00000000000E+00 -0.48821690654E+02  0.48821690654E+02  0.00000000000E+00 0. -1.
         21    1    1    2  503  501  0.92684405296E+02  0.70920464637E+02  0.69844057058E+03  0.70812381822E+03  0.00000000000E+00 0. -1.
         21    1    1    2  504  503 -0.92684405296E+02 -0.70920464637E+02  0.33442003368E+02  0.12140213704E+03  0.00000000000E+00 0. -1.
<mgrwt>
<rscale>  2 0.11670523E+03</rscale>
<asrwt>0</asrwt>
<pdfrwt beam="1">  1       21 0.12010834E+00 0.11670523E+03</pdfrwt>
<pdfrwt beam="2">  1       21 0.75110299E-02 0.11670523E+03</pdfrwt>
<totfact> 0.73340799E+04</totfact>
</mgrwt>
</event>
<event>
 4    1  0.6024238E+003  0.1161634E+03  0.7546771E-02  0.1249564E+00
         21   -1    0    0  502  501  0.00000000000E+00  0.00000000000E+00  0.72022120873E+03  0.72022120873E+03  0.00000000000E+00 0.  1.
         21   -1    0    0  504  502 -0.00000000000E+00 -0.00000000000E+00 -0.44990575247E+02  0.44990575247E+02  0.00000000000E+00 0.  1.
         21    1    1    2  503  501  0.50625615073E+02 -0.10455129062E+03  0.62989254393E+03  0.64051427944E+03  0.00000000000E+00 0.  1.
         21    1    1    2  504  503 -0.50625615073E+02  0.10455129062E+03  0.45338089552E+02  0.12469750453E+03  0.00000000000E+00 0.  1.
<mgrwt>
<rscale>  2 0.11616336E+03</rscale>
<asrwt>0</asrwt>
<pdfrwt beam="1">  1       21 0.11080325E+00 0.11616336E+03</pdfrwt>
<pdfrwt beam="2">  1       21 0.69216275E-02 0.11616336E+03</pdfrwt>
<totfact> 0.10239348E+05</totfact>
</mgrwt>
</event>
<event>
 4    1  0.6024238E+003  0.1038069E+03  0.7546771E-02  0.1272488E+00
         21   -1    0    0  504  501  0.00000000000E+00  0.00000000000E+00  0.18973196495E+04  0.18973196495E+04  0.00000000000E+00 0.  1.
         21   -1    0    0  501  502 -0.00000000000E+00 -0.00000000000E+00 -0.14187490232E+02  0.14187490232E+02  0.00000000000E+00 0.  1.
         21    1    1    2  503  502 -0.82775819719E+02  0.62642142550E+02  0.20143951071E+03  0.22661365984E+03  0.00000000000E+00 0.  1.
         21    1    1    2  504  503  0.82775819719E+02 -0.62642142550E+02  0.16816926485E+04  0.16848934799E+04  0.00000000000E+00 0.  1.
<mgrwt>
<rscale>  2 0.10380691E+03</rscale>
<asrwt>0</asrwt>
<pdfrwt beam="1">  1       21 0.29189513E+00 0.10380691E+03</pdfrwt>
<pdfrwt beam="2">  1       21 0.21826923E-02 0.10380691E+03</pdfrwt>
<totfact> 0.44803823E+04</totfact>
</mgrwt>
</event>
<event>
 4    1  0.6024238E+003  0.1301543E+03  0.7546771E-02  0.1227227E+00
         21   -1    0    0  502  501  0.00000000000E+00  0.00000000000E+00  0.10772578090E+03  0.10772578090E+03  0.00000000000E+00 0.  1.
         21   -1    0    0  504  502 -0.00000000000E+00 -0.00000000000E+00 -0.31081784892E+03  0.31081784892E+03  0.00000000000E+00 0.  1.
         21    1    1    2  503  501 -0.12128257473E+03 -0.47229958058E+02  0.45551230813E+02  0.13789505611E+03  0.00000000000E+00 0.  1.
         21    1    1    2  504  503  0.12128257473E+03  0.47229958058E+02 -0.24864329882E+03  0.28064857370E+03  0.00000000000E+00 0.  1.
<mgrwt>
<rscale>  2 0.13015426E+03</rscale>
<asrwt>0</asrwt>
<pdfrwt beam="1">  1       21 0.16573197E-01 0.13015426E+03</pdfrwt>
<pdfrwt beam="2">  1       21 0.47818130E-01 0.13015426E+03</pdfrwt>
<totfact> 0.13955753E+05</totfact>
</mgrwt>
</event>
<event>
 4    1  0.6024238E+003  0.1311136E+03  0.7546771E-02  0.1225813E+00
         21   -1    0    0  503  501  0.00000000000E+00  0.00000000000E+00  0.39895276135E+02  0.39895276135E+02  0.00000000000E+00 0.  1.
         21   -1    0    0  504  502 -0.00000000000E+00 -0.00000000000E+00 -0.12361151059E+04  0.12361151059E+04  0.00000000000E+00 0. -1.
         21    1    1    2  503  502  0.69853734083E+02  0.11095601407E+03 -0.11130436474E+04  0.11207394622E+04  0.00000000000E+00 0. -1.
         21    1    1    2  504  501 -0.69853734083E+02 -0.11095601407E+03 -0.83176182405E+02  0.15527091983E+03  0.00000000000E+00 0.  1.
<mgrwt>
<rscale>  2 0.13111362E+03</rscale>
<asrwt>0</asrwt>
<pdfrwt beam="1">  1       21 0.61377354E-02 0.13111362E+03</pdfrwt>
<pdfrwt beam="2">  1       21 0.19017154E+00 0.13111362E+03</pdfrwt>
<totfact> 0.30917894E+04</totfact>
</mgrwt>
</event>
<event>
 4    1  0.6024238E+003  0.1036244E+03  0.7546771E-02  0.1272854E+00
         21   -1    0    0  503  501  0.00000000000E+00  0.00000000000E+00  0.47660361240E+02  0.47660361240E+02  0.00000000000E+00 0.  1.
         21   -1    0    0  501  502 -0.00000000000E+00 -0.00000000000E+00 -0.25328337794E+03  0.25328337794E+03  0.00000000000E+00 0.  1.
         21    1    1    2  503  504 -0.18762204491E+02  0.10191171096E+03 -0.52798887874E+02  0.11630021371E+03  0.00000000000E+00 0.  1.
         21    1    1    2  504  502  0.18762204491E+02 -0.10191171096E+03 -0.15282412882E+03  0.18464352547E+03  0.00000000000E+00 0.  1.
<mgrwt>
<rscale>  2 0.10362440E+03</rscale>
<asrwt>0</asrwt>
<pdfrwt beam="1">  1       21 0.73323632E-02 0.10362440E+03</pdfrwt>
<pdfrwt beam="2">  1       21 0.38966674E-01 0.10362440E+03</pdfrwt>
<totfact> 0.88751177E+05</totfact>
</mgrwt>
</event>
<event>
 4    1  0.6024238E+003  0.1506238E+03  0.7546771E-02  0.1199709E+00
         21   -1    0    0  503  501  0.00000000000E+00  0.00000000000E+00  0.37306778120E+02  0.37306778120E+02  0.00000000000E+00 0.  1.
         21   -1    0    0  504  502 -0.00000000000E+00 -0.00000000000E+00 -0.88109640393E+03  0.88109640393E+03  0.00000000000E+00 0.  1.
         21    1    1    2  503  502 -0.11777044141E+03  0.93902395003E+02 -0.16630547317E+03  0.22437701990E+03  0.00000000000E+00 0.  1.
         21    1    1    2  504  501  0.11777044141E+03 -0.93902395003E+02 -0.67748415265E+03  0.69402616215E+03  0.00000000000E+00 0.  1.
<mgrwt>
<rscale>  2 0.15062382E+03</rscale>
<asrwt>0</asrwt>
<pdfrwt beam="1">  1       21 0.57395047E-02 0.15062382E+03</pdfrwt>
<pdfrwt beam="2">  1       21 0.13555328E+00 0.15062382E+03</pdfrwt>
<totfact> 0.84424147E+04</totfact>
</mgrwt>
</event>
<event>
 4    1  0.6024238E+003  0.1199774E+03  0.7546771E-02  0.1243134E+00
         21   -1    0    0  503  501  0.00000000000E+00  0.00000000000E+00  0.68953574314E+03  0.68953574314E+03  0.00000000000E+00 0. -1.
         21   -1    0    0  504  502 -0.00000000000E+00 -0.00000000000E+00 -0.18962874126E+03  0.18962874126E+03  0.00000000000E+00 0.  1.
         21    1    1    2  503  502 -0.11452917041E+03 -0.35744123466E+02 -0.16472718039E+03  0.20378816746E+03  0.00000000000E+00 0.  1.
         21    1    1    2  504  501  0.11452917041E+03  0.35744123466E+02  0.66463418228E+03  0.67537631694E+03  0.00000000000E+00 0. -1.
<mgrwt>
<rscale>  2 0.11997739E+03</rscale>
<asrwt>0</asrwt>
<pdfrwt beam="1">  1       21 0.10608242E+00 0.11997739E+03</pdfrwt>
<pdfrwt beam="2">  1       21 0.29173653E-01 0.11997739E+03</pdfrwt>
<totfact> 0.85278112E+03</totfact>
</mgrwt>
</event>
<event>
 4    1  0.6024238E+003  0.1371085E+03  0.7546771E-02  0.1217273E+00
         21   -1    0    0  504  501  0.00000000000E+00  0.00000000000E+00  0.88170346315E+02  0.88170346315E+02  0.00000000000E+00 0. -1.
         21   -1    0    0  503  502 -0.00000000000E+00 -0.00000000000E+00 -0.70513057031E+03  0.70513057031E+03  0.00000000000E+00 0. -1.
         21    1    1    2  503  501  0.13386207977E+03  0.29659632459E+02  0.22819500155E+02  0.13899453149E+03  0.00000000000E+00 0. -1.
         21    1    1    2  504  502 -0.13386207977E+03 -0.29659632459E+02 -0.63977972415E+03  0.65430638514E+03  0.00000000000E+00 0. -1.
<mgrwt>
<rscale>  2 0.13710853E+03</rscale>
<asrwt>0</asrwt>
<pdfrwt beam="1">  1       21 0.13564669E-01 0.13710853E+03</pdfrwt>
<pdfrwt beam="2">  1       21 0.10848162E+00 0.13710853E+03</pdfrwt>
<totfact> 0.32870872E+04</totfact>
</mgrwt>
</event>
<event>
 4    1  0.6024238E+003  0.1143090E+03  0.7546771E-02  0.1252792E+00
         21   -1    0    0  503  501  0.00000000000E+00  0.00000000000E+00  0.56260800090E+03  0.56260800090E+03  0.00000000000E+00 0.  1.
         21   -1    0    0  504  502 -0.00000000000E+00 -0.00000000000E+00 -0.43988609457E+02  0.43988609457E+02  0.00000000000E+00 0. -1.
         21    1    1    2  503  502  0.11402037832E+03  0.81174612559E+01  0.46768769711E+03  0.48145438193E+03  0.00000000000E+00 0.  1.
         21    1    1    2  504  501 -0.11402037832E+03 -0.81174612559E+01  0.50931694334E+02  0.12514222843E+03  0.00000000000E+00 0. -1.
<mgrwt>
<rscale>  2 0.11430897E+03</rscale>
<asrwt>0</asrwt>
<pdfrwt beam="1">  1       21 0.86555072E-01 0.11430897E+03</pdfrwt>
<pdfrwt beam="2">  1       21 0.67674788E-02 0.11430897E+03</pdfrwt>
<totfact> 0.18895286E+05</totfact>
</mgrwt>
</event>
<event>
 4    1  0.6024238E+003  0.1080468E+03  0.7546771E-02  0.1264230E+00
         21   -1    0    0  504  501  0.00000000000E+00  0.00000000000E+00  0.62484104953E+02  0.62484104953E+02  0.00000000000E+00 0.  1.
         21   -1    0    0  503  502 -0.00000000000E+00 -0.00000000000E+00 -0.29415760780E+03  0.29415760780E+03  0.00000000000E+00 0. -1.
         21    1    1    2  503  501  0.65133410818E+02 -0.86207555092E+02 -0.81254190261E+01  0.10835186290E+03  0.00000000000E+00 0.  1.
         21    1    1    2  504  502 -0.65133410818E+02  0.86207555092E+02 -0.22354808382E+03  0.24828984985E+03  0.00000000000E+00 0. -1.
<mgrwt>
<rscale>  2 0.10804677E+03</rscale>
<asrwt>0</asrwt>
<pdfrwt beam="1">  1       21 0.96129393E-02 0.10804677E+03</pdfrwt>
<pdfrwt beam="2">  1       21 0.45255016E-01 0.10804677E+03</pdfrwt>
<totfact> 0.41282255E+05</totfact>
</mgrwt>
</event>
<event>
 4    1  0.6024238E+003  0.1048392E+03  0.7546771E-02  0.1270437E+00
         21   -1    0    0  502  501  0.00000000000E+00  0.00000000000E+00  0.55464670732E+02  0.55464670732E+02  0.00000000000E+00 0.  1.
         21   -1    0    0  504  502 -0.00000000000E+00 -0.00000000000E+00 -0.33067976654E+03  0.33067976654E+03  0.00000000000E+00 0. -1.
         21    1    1    2  503  501  0.10240748865E+03  0.22449159181E+02 -0.15386754040E+02  0.10596230782E+03  0.00000000000E+00 0.  1.
         21    1    1    2  504  503 -0.10240748865E+03 -0.22449159181E+02 -0.25982834177E+03  0.28018212946E+03  0.00000000000E+00 0. -1.
<mgrwt>
<rscale>  2 0.10483920E+03</rscale>
<asrwt>0</asrwt>
<pdfrwt beam="1">  1       21 0.85330264E-02 0.10483920E+03</pdfrwt>
<pdfrwt beam="2">  1       21 0.50873810E-01 0.10483920E+03</pdfrwt>
<totfact> 0.39969596E+05</totfact>
</mgrwt>
</event>
<event>
 4    1  0.6024238E+003  0.1002248E+03  0.7546771E-02  0.1279824E+00
         21   -1    0    0  503  501  0.00000000000E+00  0.00000000000E+00  0.88447947712E+02  0.88447947712E+02  0.00000000000E+00 0.  1.
         21   -1    0    0  504  502 -0.00000000000E+00 -0.00000000000E+00 -0.38108258308E+03  0.38108258308E+03  0.00000000000E+00 0.  1.
         21    1    1    2  503  502  0.41082360145E+02  0.91418008370E+02  0.50379163259E+02  0.11217429590E+03  0.00000000000E+00 0.  1.
         21    1    1    2  504  501 -0.41082360145E+02 -0.91418008370E+02 -0.34301379863E+03  0.35735623489E+03  0.00000000000E+00 0.  1.
<mgrwt>
<rscale>  2 0.10022481E+03</rscale>
<asrwt>0</asrwt>
<pdfrwt beam="1">  1       21 0.13607377E-01 0.10022481E+03</pdfrwt>
<pdfrwt beam="2">  1       21 0.58628089E-01 0.10022481E+03</pdfrwt>
<totfact> 0.13181537E+05</totfact>
</mgrwt>
</event>
<event>
 4    1  0.6024238E+003  0.1090850E+03  0.7546771E-02  0.1262274E+00
         21   -1    0    0  504  501  0.00000000000E+00  0.00000000000E+00  0.28309947494E+03  0.28309947494E+03  0.00000000000E+00 0. -1.
         21   -1    0    0  503  502 -0.00000000000E+00 -0.00000000000E+00 -0.59715341544E+02  0.59715341544E+02  0.00000000000E+00 0. -1.
         21    1    1    2  503  501  0.96412795686E+02 -0.51030499259E+02  0.18419119412E+02  0.11062912359E+03  0.00000000000E+00 0. -1.
         21    1    1    2  504  502 -0.96412795686E+02  0.51030499259E+02  0.20496501398E+03  0.23218569289E+03  0.00000000000E+00 0. -1.
<mgrwt>
<rscale>  2 0.10908501E+03</rscale>
<asrwt>0</asrwt>
<pdfrwt beam="1">  1       21 0.43553765E-01 0.10908501E+03</pdfrwt>
<pdfrwt beam="2">  1       21 0.91869758E-02 0.10908501E+03</pdfrwt>
<totfact> 0.48245705E+05</totfact>
</mgrwt>
</event>
<event>
 4    1  0.6024238E+003  0.1033961E+03  0.7546771E-02  0.1273312E+00
         21   -1    0    0  503  501  0.00000000000E+00  0.00000000000E+00  0.56776214545E+02  0.56776214545E+02  0.00000000000E+00 0. -1.
         21   -1    0    0  504  502 -0.00000000000E+00 -0.00000000000E+00 -0.20746328932E+03  0.20746328932E+03  0.00000000000E+00 0. -1.
         21    1    1    2  503  502 -0.42477654869E+02 -0.94267671436E+02 -0.11550183415E+03  0.15502070420E+03  0.00000000000E+00 0. -1.
         21    1    1    2  504  501  0.42477654869E+02  0.94267671436E+02 -0.35185240629E+02  0.10921879966E+03  0.00000000000E+00 0. -1.
<mgrwt>
<rscale>  2 0.10339606E+03</rscale>
<asrwt>0</asrwt>
<pdfrwt beam="1">  1       21 0.87348022E-02 0.10339606E+03</pdfrwt>
<pdfrwt beam="2">  1       21 0.31917429E-01 0.10339606E+03</pdfrwt>
<totfact> 0.97104045E+05</totfact>
</mgrwt>
</event>
<event>
 4    1  0.6024238E+003  0.1057666E+03  0.7546771E-02  0.1268617E+00
         21   -1    0    0  503  501  0.00000000000E+00  0.00000000000E+00  0.19516538181E+03  0.19516538181E+03  0.00000000000E+00 0.  1.
         21   -1    0    0  504  502 -0.00000000000E+00 -0.00000000000E+00 -0.57712162634E+02  0.57712162634E+02  0.00000000000E+00 0.  1.
         21    1    1    2  503  502 -0.10576649088E+03  0.15960481738E+00  0.79169949579E+02  0.13211531699E+03  0.00000000000E+00 0.  1.
         21    1    1    2  504  501  0.10576649088E+03 -0.15960481738E+00  0.58283269598E+02  0.12076222746E+03  0.00000000000E+00 0.  1.
<mgrwt>
<rscale>  2 0.10576661E+03</rscale>
<asrwt>0</asrwt>
<pdfrwt beam="1">  1       21 0.30025443E-01 0.10576661E+03</pdfrwt>
<pdfrwt beam="2">  1       21 0.88787943E-02 0.10576661E+03</pdfrwt>
<totfact> 0.10622357E+06</totfact>
</mgrwt>
</event>
<event>
 4    1  0.6024238E+003  0.1398494E+03  0.7546771E-02  0.1213532E+00
         21   -1    0    0  504  501  0.00000000000E+00  0.00000000000E+00  0.85378376423E+03  0.85378376423E+03  0.00000000000E+00 0. -1.
         21   -1    0    0  501  502 -0.00000000000E+00 -0.00000000000E+00 -0.43247136513E+02  0.43247136513E+02  0.00000000000E+00 0. -1.
         21    1    1    2  503  502  0.13041957964E+03  0.50483559065E+02  0.97677923881E+02  0.17058380141E+03  0.00000000000E+00 0. -1.
         21    1    1    2  504  503 -0.13041957964E+03 -0.50483559065E+02  0.71285870384E+03  0.72644709933E+03  0.00000000000E+00 0. -1.
<mgrwt>
<rscale>  2 0.13984941E+03</rscale>
<asrwt>0</asrwt>
<pdfrwt beam="1">  1       21 0.13135134E+00 0.13984941E+03</pdfrwt>
<pdfrwt beam="2">  1       21 0.66534063E-02 0.13984941E+03</pdfrwt>
<totfact> 0.71428294E+04</totfact>
</mgrwt>
</event>
<event>
 4    1  0.6024238E+003  0.1675516E+03  0.7546771E-02  0.1180425E+00
         21   -1    0    0  502  501  0.00000000000E+00  0.00000000000E+00  0.16402490557E+03  0.16402490557E+03  0.00000000000E+00 0. -1.
         21   -1    0    0  504  502 -0.00000000000E+00 -0.00000000000E+00 -0.54475852951E+03  0.54475852951E+03  0.00000000000E+00 0.  1.
         21    1    1    2  503  501  0.16489614809E+03  0.29712141497E+02  0.10311926019E+03  0.19674128400E+03  0.00000000000E+00 0. -1.
         21    1    1    2  504  503 -0.16489614809E+03 -0.29712141497E+02 -0.48385288413E+03  0.51204215109E+03  0.00000000000E+00 0.  1.
<mgrwt>
<rscale>  2 0.16755164E+03</rscale>
<asrwt>0</asrwt>
<pdfrwt beam="1">  1       21 0.25234601E-01 0.16755164E+03</pdfrwt>
<pdfrwt beam="2">  1       21 0.83809006E-01 0.16755164E+03</pdfrwt>
<totfact> 0.18708884E+04</totfact>
</mgrwt>
</event>
<event>
 4    1  0.6024238E+003  0.1052099E+03  0.7546771E-02  0.1269707E+00
         21   -1    0    0  504  501  0.00000000000E+00  0.00000000000E+00  0.31647810073E+03  0.31647810073E+03  0.00000000000E+00 0.  1.
         21   -1    0    0  501  502 -0.00000000000E+00 -0.00000000000E+00 -0.80279465551E+02  0.80279465551E+02  0.00000000000E+00 0. -1.
         21    1    1    2  503  502  0.75690709230E+02 -0.73075512637E+02 -0.30925659040E+02  0.10966088819E+03  0.00000000000E+00 0. -1.
         21    1    1    2  504  503 -0.75690709230E+02  0.73075512637E+02  0.26712429422E+03  0.28709667810E+03  0.00000000000E+00 0.  1.
<mgrwt>
<rscale>  2 0.10520986E+03</rscale>
<asrwt>0</asrwt>
<pdfrwt beam="1">  1       21 0.48688938E-01 0.10520986E+03</pdfrwt>
<pdfrwt beam="2">  1       21 0.12350687E-01 0.10520986E+03</pdfrwt>
<totfact> 0.22952535E+05</totfact>
</mgrwt>
</event>
<event>
 4    1  0.6024238E+003  0.1278520E+03  0.7546771E-02  0.1230678E+00
         21   -1    0    0  503  501  0.00000000000E+00  0.00000000000E+00  0.25007594864E+03  0.25007594864E+03  0.00000000000E+00 0.  1.
         21   -1    0    0  501  502 -0.00000000000E+00 -0.00000000000E+00 -0.92341201497E+02  0.92341201497E+02  0.00000000000E+00 0.  1.
         21    1    1    2  503  504 -0.75939502061E+02 -0.10285582971E+03  0.17140553725E+03  0.21383635771E+03  0.00000000000E+00 0.  1.
         21    1    1    2  504  502  0.75939502061E+02  0.10285582971E+03 -0.13670790104E+02  0.12858079243E+03  0.00000000000E+00 0.  1.
<mgrwt>
<rscale>  2 0.12785198E+03</rscale>
<asrwt>0</asrwt>
<pdfrwt beam="1">  1       21 0.38473223E-01 0.12785198E+03</pdfrwt>
<pdfrwt beam="2">  1       21 0.14206339E-01 0.12785198E+03</pdfrwt>
<totfact> 0.28609724E+05</totfact>
</mgrwt>
</event>
<event>
 4    1  0.6024238E+003  0.1233355E+03  0.7546771E-02  0.1237694E+00
         21   -1    0    0  503  501  0.00000000000E+00  0.00000000000E+00  0.22318514446E+03  0.22318514446E+03  0.00000000000E+00 0. -1.
         21   -1    0    0  504  502 -0.00000000000E+00 -0.00000000000E+00 -0.76007942496E+02  0.76007942496E+02  0.00000000000E+00 0. -1.
         21    1    1    2  503  502 -0.77630181950E+02 -0.95839437197E+02  0.12166715086E+03  0.17324704462E+03  0.00000000000E+00 0. -1.
         21    1    1    2  504  501  0.77630181950E+02  0.95839437197E+02  0.25510051101E+02  0.12594604233E+03  0.00000000000E+00 0. -1.
<mgrwt>
<rscale>  2 0.12333549E+03</rscale>
<asrwt>0</asrwt>
<pdfrwt beam="1">  1       21 0.34336176E-01 0.12333549E+03</pdfrwt>
<pdfrwt beam="2">  1       21 0.11693530E-01 0.12333549E+03</pdfrwt>
<totfact> 0.50662398E+05</totfact>
</mgrwt>
</event>
<event>
 4    1  0.6024238E+003  0.1009757E+03  0.7546771E-02  0.1278257E+00
         21   -1    0    0  504  501  0.00000000000E+00  0.00000000000E+00  0.21236315248E+02  0.21236315248E+02  0.00000000000E+00 0. -1.
         21   -1    0    0  503  502 -0.00000000000E+00 -0.00000000000E+00 -0.59008494041E+03  0.59008494041E+03  0.00000000000E+00 0. -1.
         21    1    1    2  503  501  0.86862690368E+02  0.51487582562E+02 -0.41637095441E+03  0.42844004226E+03  0.00000000000E+00 0. -1.
         21    1    1    2  504  502 -0.86862690368E+02 -0.51487582562E+02 -0.15247767076E+03  0.18288121340E+03  0.00000000000E+00 0. -1.
<mgrwt>
<rscale>  2 0.10097573E+03</rscale>
<asrwt>0</asrwt>
<pdfrwt beam="1">  1       21 0.32671260E-02 0.10097573E+03</pdfrwt>
<pdfrwt beam="2">  1       21 0.90782283E-01 0.10097573E+03</pdfrwt>
<totfact> 0.57282432E+05</totfact>
</mgrwt>
</event>
<event>
 4    1  0.6024238E+003  0.1208705E+03  0.7546771E-02  0.1241668E+00
         21   -1    0    0  504  501  0.00000000000E+00  0.00000000000E+00  0.67740597845E+03  0.67740597845E+03  0.00000000000E+00 0.  1.
         21   -1    0    0  503  502 -0.00000000000E+00 -0.00000000000E+00 -0.21671333750E+02  0.21671333750E+02  0.00000000000E+00 0.  1.
         21    1    1    2  503  501 -0.98268557444E+02  0.70377299021E+02  0.30362446112E+03  0.32679884790E+03  0.00000000000E+00 0.  1.
         21    1    1    2  504  502  0.98268557444E+02 -0.70377299021E+02  0.35211018357E+03  0.37227846429E+03  0.00000000000E+00 0.  1.
<mgrwt>
<rscale>  2 0.12087048E+03</rscale>
<asrwt>0</asrwt>
<pdfrwt beam="1">  1       21 0.10421629E+00 0.12087048E+03</pdfrwt>
<pdfrwt beam="2">  1       21 0.33340519E-02 0.12087048E+03</pdfrwt>
<totfact> 0.40137883E+05</totfact>
</mgrwt>
</event>
<event>
 4    1  0.6024238E+003  0.1446955E+03  0.7546771E-02  0.1207147E+00
         21   -1    0    0  504  501  0.00000000000E+00  0.00000000000E+00  0.45778053343E+02  0.45778053343E+02  0.00000000000E+00 0. -1.
         21   -1    0    0  503  502 -0.00000000000E+00 -0.00000000000E+00 -0.47093506426E+03  0.47093506426E+03  0.00000000000E+00 0. -1.
         21    1    1    2  503  501 -0.92508484162E+02 -0.11126079359E+03 -0.16870492509E+03  0.22225691346E+03  0.00000000000E+00 0. -1.
         21    1    1    2  504  502  0.92508484162E+02  0.11126079359E+03 -0.25645208583E+03  0.29445620414E+03  0.00000000000E+00 0. -1.
<mgrwt>
<rscale>  2 0.14469549E+03</rscale>
<asrwt>0</asrwt>
<pdfrwt beam="1">  1       21 0.70427779E-02 0.14469549E+03</pdfrwt>
<pdfrwt beam="2">  1       21 0.72451544E-01 0.14469549E+03</pdfrwt>
<totfact> 0.26023870E+05</totfact>
</mgrwt>
</event>
<event>
 4    1  0.6024238E+003  0.1095937E+03  0.7546771E-02  0.1261324E+00
         21   -1    0    0  503  501  0.00000000000E+00  0.00000000000E+00  0.36561372781E+02  0.36561372781E+02  0.00000000000E+00 0. -1.
         21   -1    0    0  504  502 -0.00000000000E+00 -0.00000000000E+00 -0.34740922012E+03  0.34740922012E+03  0.00000000000E+00 0.  1.
         21    1    1    2  503  502  0.41951196493E+01 -0.10951342037E+03 -0.11064583379E+03  0.15573467438E+03  0.00000000000E+00 0. -1.
         21    1    1    2  504  501 -0.41951196493E+01  0.10951342037E+03 -0.20020201355E+03  0.22823591851E+03  0.00000000000E+00 0.  1.
<mgrwt>
<rscale>  2 0.10959374E+03</rscale>
<asrwt>0</asrwt>
<pdfrwt beam="1">  1       21 0.56248265E-02 0.10959374E+03</pdfrwt>
<pdfrwt beam="2">  1       21 0.53447573E-01 0.10959374E+03</pdfrwt>
<totfact> 0.73349550E+05</totfact>
</mgrwt>
</event>
<event>
 4    1  0.6024238E+003  0.1234438E+03  0.7546771E-02  0.1237522E+00
         21   -1    0    0  503  501  0.00000000000E+00  0.00000000000E+00  0.35959356990E+02  0.35959356990E+02  0.00000000000E+00 0.  1.
         21   -1    0    0  504  502 -0.00000000000E+00 -0.00000000000E+00 -0.58606784856E+03  0.58606784856E+03  0.00000000000E+00 0.  1.
         21    1    1    2  503  502 -0.12020544043E+03  0.28089473702E+02 -0.11138515716E+03  0.16626791535E+03  0.00000000000E+00 0.  1.
         21    1    1    2  504  501  0.12020544043E+03 -0.28089473702E+02 -0.43872333441E+03  0.45575929019E+03  0.00000000000E+00 0.  1.
<mgrwt>
<rscale>  2 0.12344378E+03</rscale>
<asrwt>0</asrwt>
<pdfrwt beam="1">  1       21 0.55322091E-02 0.12344378E+03</pdfrwt>
<pdfrwt beam="2">  1       21 0.90164279E-01 0.12344378E+03</pdfrwt>
<totfact> 0.24160642E+05</totfact>
</mgrwt>
</event>
<event>
 4    1  0.6024238E+003  0.1087012E+03  0.7546771E-02  0.1262994E+00
         21   -1    0    0  504  501  0.00000000000E+00  0.00000000000E+00  0.18559158398E+03  0.18559158398E+03  0.00000000000E+00 0.  1.
         21   -1    0    0  503  502 -0.00000000000E+00 -0.00000000000E+00 -0.12449180565E+03  0.12449180565E+03  0.00000000000E+00 0.  1.
         21    1    1    2  503  501  0.52032231609E+02 -0.95439008167E+02  0.13892272817E+03  0.17639581007E+03  0.00000000000E+00 0.  1.
         21    1    1    2  504  502 -0.52032231609E+02  0.95439008167E+02 -0.77822949845E+02  0.13368757956E+03  0.00000000000E+00 0.  1.
<mgrwt>
<rscale>  2 0.10870123E+03</rscale>
<asrwt>0</asrwt>
<pdfrwt beam="1">  1       21 0.28552551E-01 0.10870123E+03</pdfrwt>
<pdfrwt beam="2">  1       21 0.19152585E-01 0.10870123E+03</pdfrwt>
<totfact> 0.29859041E+05</totfact>
</mgrwt>
</event>
<event>
 4    1  0.6024238E+003  0.1146362E+03  0.7546771E-02  0.1252217E+00
         21   -1    0    0  503  501  0.00000000000E+00  0.00000000000E+00  0.25970689014E+03  0.25970689014E+03  0.00000000000E+00 0. -1.
         21   -1    0    0  504  502 -0.00000000000E+00 -0.00000000000E+00 -0.21110459511E+03  0.21110459511E+03  0.00000000000E+00 0.  1.
         21    1    1    2  503  502 -0.87166549261E+02  0.74454358666E+02 -0.18096173962E+03  0.21421626932E+03  0.00000000000E+00 0.  1.
         21    1    1    2  504  501  0.87166549261E+02 -0.74454358666E+02  0.22956403465E+03  0.25659521594E+03  0.00000000000E+00 0. -1.
<mgrwt>
<rscale>  2 0.11463620E+03</rscale>
<asrwt>0</asrwt>
<pdfrwt beam="1">  1       21 0.39954906E-01 0.11463620E+03</pdfrwt>
<pdfrwt beam="2">  1       21 0.32477630E-01 0.11463620E+03</pdfrwt>
<totfact> 0.57229959E+04</totfact>
</mgrwt>
</event>
<event>
 4    1  0.6024238E+003  0.1084537E+03  0.7546771E-02  0.1263460E+00
         21   -1    0    0  502  501  0.00000000000E+00  0.00000000000E+00  0.27751506656E+02  0.27751506656E+02  0.00000000000E+00 0. -1.
         21   -1    0    0  504  502 -0.00000000000E+00 -0.00000000000E+00 -0.47208577483E+03  0.47208577483E+03  0.00000000000E+00 0. -1.
         21    1    1    2  503  501 -0.46078030253E+02  0.98178533527E+02 -0.14227277916E+03  0.17889592787E+03  0.00000000000E+00 0. -1.
         21    1    1    2  504  503  0.46078030253E+02 -0.98178533527E+02 -0.30206148901E+03  0.32094135362E+03  0.00000000000E+00 0. -1.
<mgrwt>
<rscale>  2 0.10845372E+03</rscale>
<asrwt>0</asrwt>
<pdfrwt beam="1">  1       21 0.42694624E-02 0.10845372E+03</pdfrwt>
<pdfrwt beam="2">  1       21 0.72628584E-01 0.10845372E+03</pdfrwt>
<totfact> 0.60554550E+05</totfact>
</mgrwt>
</event>
<event>
 4    1  0.6024238E+003  0.1874536E+03  0.7546771E-02  0.1160778E+00
         21   -1    0    0  503  501  0.00000000000E+00  0.00000000000E+00  0.77882526255E+03  0.77882526255E+03  0.00000000000E+00 0.  1.
         21   -1    0    0  504  502 -0.00000000000E+00 -0.00000000000E+00 -0.46431528017E+02  0.46431528017E+02  0.00000000000E+00 0.  1.
         21    1    1    2  503  502 -0.14834273119E+03 -0.11460060156E+03  0.29678890199E+03  0.35103064841E+03  0.00000000000E+00 0.  1.
         21    1    1    2  504  501  0.14834273119E+03  0.11460060156E+03  0.43560483254E+03  0.47422614216E+03  0.00000000000E+00 0.  1.
<mgrwt>
<rscale>  2 0.18745363E+03</rscale>
<asrwt>0</asrwt>
<pdfrwt beam="1">  1       21 0.11981926E+00 0.18745363E+03</pdfrwt>
<pdfrwt beam="2">  1       21 0.71433126E-02 0.18745363E+03</pdfrwt>
<totfact> 0.77609189E+04</totfact>
</mgrwt>
</event>
<event>
 4    1  0.6024238E+003  0.1056774E+03  0.7546771E-02  0.1268791E+00
         21   -1    0    0  504  501  0.00000000000E+00  0.00000000000E+00  0.96111859050E+02  0.96111859050E+02  0.00000000000E+00 0. -1.
         21   -1    0    0  503  502 -0.00000000000E+00 -0.00000000000E+00 -0.11701603393E+03  0.11701603393E+03  0.00000000000E+00 0. -1.
         21    1    1    2  503  501 -0.46171528267E+02 -0.95057385092E+02 -0.19378374621E+02  0.10743946149E+03  0.00000000000E+00 0. -1.
         21    1    1    2  504  502  0.46171528267E+02  0.95057385092E+02 -0.15258002548E+01  0.10568843148E+03  0.00000000000E+00 0. -1.
<mgrwt>
<rscale>  2 0.10567742E+03</rscale>
<asrwt>0</asrwt>
<pdfrwt beam="1">  1       21 0.14786440E-01 0.10567742E+03</pdfrwt>
<pdfrwt beam="2">  1       21 0.18002467E-01 0.10567742E+03</pdfrwt>
<totfact> 0.11264956E+06</totfact>
</mgrwt>
</event>
<event>
 4    1  0.6024238E+003  0.1297639E+03  0.7546771E-02  0.1227806E+00
         21   -1    0    0  503  501  0.00000000000E+00  0.00000000000E+00  0.33985538623E+03  0.33985538623E+03  0.00000000000E+00 0. -1.
         21   -1    0    0  504  502 -0.00000000000E+00 -0.00000000000E+00 -0.64345889522E+02  0.64345889522E+02  0.00000000000E+00 0. -1.
         21    1    1    2  503  502  0.11607689837E+03  0.58007125779E+02  0.23467799825E+03  0.26816494148E+03  0.00000000000E+00 0. -1.
         21    1    1    2  504  501 -0.11607689837E+03 -0.58007125779E+02  0.40831498454E+02  0.13603633427E+03  0.00000000000E+00 0. -1.
<mgrwt>
<rscale>  2 0.12976391E+03</rscale>
<asrwt>0</asrwt>
<pdfrwt beam="1">  1       21 0.52285443E-01 0.12976391E+03</pdfrwt>
<pdfrwt beam="2">  1       21 0.98993678E-02 0.12976391E+03</pdfrwt>
<totfact> 0.29071828E+05</totfact>
</mgrwt>
</event>
<event>
 4    1  0.6024238E+003  0.1049685E+03  0.7546771E-02  0.1270182E+00
         21   -1    0    0  504  501  0.00000000000E+00  0.00000000000E+00  0.39498897082E+03  0.39498897082E+03  0.00000000000E+00 0. -1.
         21   -1    0    0  503  502 -0.00000000000E+00 -0.00000000000E+00 -0.47287193317E+02  0.47287193317E+02  0.00000000000E+00 0. -1.
         21    1    1    2  503  501  0.10486996100E+03 -0.45462950587E+01  0.32238680608E+02  0.10980760469E+03  0.00000000000E+00 0. -1.
         21    1    1    2  504  502 -0.10486996100E+03  0.45462950587E+01  0.31546309689E+03  0.33246855945E+03  0.00000000000E+00 0. -1.
<mgrwt>
<rscale>  2 0.10496846E+03</rscale>
<asrwt>0</asrwt>
<pdfrwt beam="1">  1       21 0.60767532E-01 0.10496846E+03</pdfrwt>
<pdfrwt beam="2">  1       21 0.72749531E-02 0.10496846E+03</pdfrwt>
<totfact> 0.36265767E+05</totfact>
</mgrwt>
</event>
<event>
 4    1  0.6024238E+003  0.1126784E+03  0.7546771E-02  0.1255689E+00
         21   -1    0    0  502  501  0.00000000000E+00  0.00000000000E+00  0.11056526751E+04  0.11056526751E+04  0.00000000000E+00 0. -1.
         21   -1    0    0  503  502 -0.00000000000E+00 -0.00000000000E+00 -0.11483327531E+02  0.11483327531E+02  0.00000000000E+00 0. -1.
         21    1    1    2  503  504  0.60649842295E+02  0.94963285662E+02  0.54895799035E+03  0.56040280527E+03  0.00000000000E+00 0. -1.
         21    1    1    2  504  501 -0.60649842295E+02 -0.94963285662E+02  0.54521135723E+03  0.55673319737E+03  0.00000000000E+00 0. -1.
<mgrwt>
<rscale>  2 0.11267843E+03</rscale>
<asrwt>0</asrwt>
<pdfrwt beam="1">  1       21 0.17010033E+00 0.11267843E+03</pdfrwt>
<pdfrwt beam="2">  1       21 0.17666666E-02 0.11267843E+03</pdfrwt>
<totfact> 0.33065300E+05</totfact>
</mgrwt>
</event>
<event>
 4    1  0.6024238E+003  0.1104426E+03  0.7546771E-02  0.1259752E+00
         21   -1    0    0  504  501  0.00000000000E+00  0.00000000000E+00  0.50059431623E+03  0.50059431623E+03  0.00000000000E+00 0. -1.
         21   -1    0    0  501  502 -0.00000000000E+00 -0.00000000000E+00 -0.25003503779E+02  0.25003503779E+02  0.00000000000E+00 0. -1.
         21    1    1    2  503  502 -0.34831488899E+02  0.10480620795E+03  0.27975211344E+03  0.30076372590E+03  0.00000000000E+00 0. -1.
         21    1    1    2  504  503  0.34831488899E+02 -0.10480620795E+03  0.19583869901E+03  0.22483409411E+03  0.00000000000E+00 0. -1.
<mgrwt>
<rscale>  2 0.11044263E+03</rscale>
<asrwt>0</asrwt>
<pdfrwt beam="1">  1       21 0.77014503E-01 0.11044263E+03</pdfrwt>
<pdfrwt beam="2">  1       21 0.38466933E-02 0.11044263E+03</pdfrwt>
<totfact> 0.63264788E+05</totfact>
</mgrwt>
</event>
<event>
 4    1  0.6024238E+003  0.1076545E+03  0.7546771E-02  0.1264976E+00
         21   -1    0    0  504  501  0.00000000000E+00  0.00000000000E+00  0.44400890847E+03  0.44400890847E+03  0.00000000000E+00 0.  1.
         21   -1    0    0  503  502 -0.00000000000E+00 -0.00000000000E+00 -0.31205560358E+03  0.31205560358E+03  0.00000000000E+00 0.  1.
         21    1    1    2  503  501  0.92757233352E+02  0.54640522468E+02 -0.29590011537E+03  0.31487516465E+03  0.00000000000E+00 0.  1.
         21    1    1    2  504  502 -0.92757233352E+02 -0.54640522468E+02  0.42785342026E+03  0.44118934741E+03  0.00000000000E+00 0.  1.
<mgrwt>
<rscale>  2 0.10765450E+03</rscale>
<asrwt>0</asrwt>
<pdfrwt beam="1">  1       21 0.68309063E-01 0.10765450E+03</pdfrwt>
<pdfrwt beam="2">  1       21 0.48008554E-01 0.10765450E+03</pdfrwt>
<totfact> 0.87167557E+03</totfact>
</mgrwt>
</event>
<event>
 4    1  0.6024238E+003  0.1044937E+03  0.7546771E-02  0.1271120E+00
         21   -1    0    0  503  501  0.00000000000E+00  0.00000000000E+00  0.15289336137E+03  0.15289336137E+03  0.00000000000E+00 0.  1.
         21   -1    0    0  504  502 -0.00000000000E+00 -0.00000000000E+00 -0.10586582048E+03  0.10586582048E+03  0.00000000000E+00 0.  1.
         21    1    1    2  503  502  0.10262834396E+03 -0.19656066381E+02  0.97318681598E+02  0.14279308007E+03  0.00000000000E+00 0.  1.
         21    1    1    2  504  501 -0.10262834396E+03  0.19656066381E+02 -0.50291140705E+02  0.11596610178E+03  0.00000000000E+00 0.  1.
<mgrwt>
<rscale>  2 0.10449372E+03</rscale>
<asrwt>0</asrwt>
<pdfrwt beam="1">  1       21 0.23522056E-01 0.10449372E+03</pdfrwt>
<pdfrwt beam="2">  1       21 0.16287049E-01 0.10449372E+03</pdfrwt>
<totfact> 0.57819085E+05</totfact>
</mgrwt>
</event>
<event>
 4    1  0.6024238E+003  0.1095650E+03  0.7546771E-02  0.1261378E+00
         21   -1    0    0  504  501  0.00000000000E+00  0.00000000000E+00  0.65892659990E+02  0.65892659990E+02  0.00000000000E+00 0.  1.
         21   -1    0    0  501  502 -0.00000000000E+00 -0.00000000000E+00 -0.32243092558E+03  0.32243092558E+03  0.00000000000E+00 0.  1.
         21    1    1    2  503  502 -0.41847872894E+02  0.10125832313E+03 -0.25632348887E+03  0.27875836026E+03  0.00000000000E+00 0.  1.
         21    1    1    2  504  503  0.41847872894E+02 -0.10125832313E+03 -0.21477672303E+00  0.10956522531E+03  0.00000000000E+00 0.  1.
<mgrwt>
<rscale>  2 0.10956501E+03</rscale>
<asrwt>0</asrwt>
<pdfrwt beam="1">  1       21 0.10137332E-01 0.10956501E+03</pdfrwt>
<pdfrwt beam="2">  1       21 0.49604757E-01 0.10956501E+03</pdfrwt>
<totfact> 0.31213277E+05</totfact>
</mgrwt>
</event>
<event>
 4    1  0.6024238E+003  0.2245761E+03  0.7546771E-02  0.1130517E+00
         21   -1    0    0  503  501  0.00000000000E+00  0.00000000000E+00  0.41505108345E+02  0.41505108345E+02  0.00000000000E+00 0. -1.
         21   -1    0    0  504  502 -0.00000000000E+00 -0.00000000000E+00 -0.17217789125E+04  0.17217789125E+04  0.00000000000E+00 0. -1.
         21    1    1    2  503  502  0.28093329959E+02  0.22281204099E+03 -0.36188836972E+03  0.42590800995E+03  0.00000000000E+00 0. -1.
         21    1    1    2  504  501 -0.28093329959E+02 -0.22281204099E+03 -0.13183854344E+04  0.13373760109E+04  0.00000000000E+00 0. -1.
<mgrwt>
<rscale>  2 0.22457614E+03</rscale>
<asrwt>0</asrwt>
<pdfrwt beam="1">  1       21 0.63854006E-02 0.22457614E+03</pdfrwt>
<pdfrwt beam="2">  1       21 0.26488909E+00 0.22457614E+03</pdfrwt>
<totfact> 0.93589653E+03</totfact>
</mgrwt>
</event>
<event>
 4    1  0.6024238E+003  0.1169891E+03  0.7546771E-02  0.1248148E+00
         21   -1    0    0  504  501  0.00000000000E+00  0.00000000000E+00  0.14825339721E+04  0.14825339721E+04  0.00000000000E+00 0.  1.
         21   -1    0    0  503  502 -0.00000000000E+00 -0.00000000000E+00 -0.94889825366E+01  0.94889825366E+01  0.00000000000E+00 0.  1.
         21    1    1    2  503  501  0.16164477181E+02 -0.11586694979E+03  0.85934160892E+03  0.86726837899E+03  0.00000000000E+00 0.  1.
         21    1    1    2  504  502 -0.16164477181E+02  0.11586694979E+03  0.61370338064E+03  0.62475457564E+03  0.00000000000E+00 0.  1.
<mgrwt>
<rscale>  2 0.11698906E+03</rscale>
<asrwt>0</asrwt>
<pdfrwt beam="1">  1       21 0.22808197E+00 0.11698906E+03</pdfrwt>
<pdfrwt beam="2">  1       21 0.14598446E-02 0.11698906E+03</pdfrwt>
<totfact> 0.19296432E+05</totfact>
</mgrwt>
</event>
<event>
 4    1  0.6024238E+003  0.1181879E+03  0.7546771E-02  0.1246117E+00
         21   -1    0    0  503  501  0.00000000000E+00  0.00000000000E+00  0.31125495421E+02  0.31125495421E+02  0.00000000000E+00 0. -1.
         21   -1    0    0  504  502 -0.00000000000E+00 -0.00000000000E+00 -0.52415702592E+03  0.52415702592E+03  0.00000000000E+00 0. -1.
         21    1    1    2  503  502 -0.87160539675E+02  0.79821214443E+02 -0.14122668278E+03  0.18415580871E+03  0.00000000000E+00 0. -1.
         21    1    1    2  504  501  0.87160539675E+02 -0.79821214443E+02 -0.35180484772E+03  0.37112671264E+03  0.00000000000E+00 0. -1.
<mgrwt>
<rscale>  2 0.11818793E+03</rscale>
<asrwt>0</asrwt>
<pdfrwt beam="1">  1       21 0.47885379E-02 0.11818793E+03</pdfrwt>
<pdfrwt beam="2">  1       21 0.80639540E-01 0.11818793E+03</pdfrwt>
<totfact> 0.39660347E+05</totfact>
</mgrwt>
</event>
<event>
 4    1  0.6024238E+003  0.1376858E+03  0.7546771E-02  0.1216477E+00
         21   -1    0    0  503  501  0.00000000000E+00  0.00000000000E+00  0.50555538549E+03  0.50555538549E+03  0.00000000000E+00 0. -1.
         21   -1    0    0  501  502 -0.00000000000E+00 -0.00000000000E+00 -0.25470238126E+03  0.25470238126E+03  0.00000000000E+00 0. -1.
         21    1    1    2  503  504 -0.83452228044E+02 -0.10951303601E+03  0.47645997617E+03  0.49595512732E+03  0.00000000000E+00 0. -1.
         21    1    1    2  504  502  0.83452228044E+02  0.10951303601E+03 -0.22560697194E+03  0.26430263943E+03  0.00000000000E+00 0. -1.
<mgrwt>
<rscale>  2 0.13768580E+03</rscale>
<asrwt>0</asrwt>
<pdfrwt beam="1">  1       21 0.77777751E-01 0.13768580E+03</pdfrwt>
<pdfrwt beam="2">  1       21 0.39184982E-01 0.13768580E+03</pdfrwt>
<totfact> 0.95963016E+03</totfact>
</mgrwt>
</event>
<event>
 4    1  0.6024238E+003  0.1067660E+03  0.7546771E-02  0.1266679E+00
         21   -1    0    0  504  501  0.00000000000E+00  0.00000000000E+00  0.22581519421E+02  0.22581519421E+02  0.00000000000E+00 0.  1.
         21   -1    0    0  503  502 -0.00000000000E+00 -0.00000000000E+00 -0.51253348186E+03  0.51253348186E+03  0.00000000000E+00 0.  1.
         21    1    1    2  503  501  0.94760885555E+02 -0.49186876210E+02 -0.27785836179E+03  0.29766464929E+03  0.00000000000E+00 0.  1.
         21    1    1    2  504  502 -0.94760885555E+02  0.49186876210E+02 -0.21209360065E+03  0.23745035199E+03  0.00000000000E+00 0.  1.
<mgrwt>
<rscale>  2 0.10676598E+03</rscale>
<asrwt>0</asrwt>
<pdfrwt beam="1">  1       21 0.34740797E-02 0.10676598E+03</pdfrwt>
<pdfrwt beam="2">  1       21 0.78851309E-01 0.10676598E+03</pdfrwt>
<totfact> 0.71032421E+05</totfact>
</mgrwt>
</event>
<event>
 4    1  0.6024238E+003  0.1041134E+03  0.7546771E-02  0.1271876E+00
         21   -1    0    0  502  501  0.00000000000E+00  0.00000000000E+00  0.11073437386E+04  0.11073437386E+04  0.00000000000E+00 0.  1.
         21   -1    0    0  504  502 -0.00000000000E+00 -0.00000000000E+00 -0.15740409222E+03  0.15740409222E+03  0.00000000000E+00 0. -1.
         21    1    1    2  503  501 -0.44737290838E+02  0.94011610018E+02  0.10873647130E+04  0.10923376891E+04  0.00000000000E+00 0.  1.
         21    1    1    2  504  503  0.44737290838E+02 -0.94011610018E+02 -0.13742506664E+03  0.17241014167E+03  0.00000000000E+00 0. -1.
<mgrwt>
<rscale>  2 0.10411344E+03</rscale>
<asrwt>0</asrwt>
<pdfrwt beam="1">  1       21 0.17036057E+00 0.10411344E+03</pdfrwt>
<pdfrwt beam="2">  1       21 0.24216015E-01 0.10411344E+03</pdfrwt>
<totfact> 0.37809046E+03</totfact>
</mgrwt>
</event>
<event>
 4    1  0.6024238E+003  0.1583846E+03  0.7546771E-02  0.1190533E+00
         21   -1    0    0  504  501  0.00000000000E+00  0.00000000000E+00  0.29775315047E+02  0.29775315047E+02  0.00000000000E+00 0.  1.
         21   -1    0    0  503  502 -0.00000000000E+00 -0.00000000000E+00 -0.84347725344E+03  0.84347725344E+03  0.00000000000E+00 0.  1.
         21    1    1    2  503  501 -0.12544063211E+02 -0.15788703887E+03 -0.39198072276E+03  0.42277010015E+03  0.00000000000E+00 0.  1.
         21    1    1    2  504  502  0.12544063211E+02  0.15788703887E+03 -0.42172121563E+03  0.45048246834E+03  0.00000000000E+00 0.  1.
<mgrwt>
<rscale>  2 0.15838457E+03</rscale>
<asrwt>0</asrwt>
<pdfrwt beam="1">  1       21 0.45808179E-02 0.15838457E+03</pdfrwt>
<pdfrwt beam="2">  1       21 0.12976572E+00 0.15838457E+03</pdfrwt>
<totfact> 0.13742420E+05</totfact>
</mgrwt>
</event>
<event>
 4    1  0.6024238E+003  0.1058020E+03  0.7546771E-02  0.1268548E+00
         21   -1    0    0  503  501  0.00000000000E+00  0.00000000000E+00  0.22436598580E+03  0.22436598580E+03  0.00000000000E+00 0.  1.
         21   -1    0    0  504  502 -0.00000000000E+00 -0.00000000000E+00 -0.55890806675E+02  0.55890806675E+02  0.00000000000E+00 0.  1.
         21    1    1    2  503  502  0.10149996579E+03  0.29863288032E+02  0.13014574095E+03  0.16772588624E+03  0.00000000000E+00 0.  1.
         21    1    1    2  504  501 -0.10149996579E+03 -0.29863288032E+02  0.38329438176E+02  0.11253090624E+03  0.00000000000E+00 0.  1.
<mgrwt>
<rscale>  2 0.10580198E+03</rscale>
<asrwt>0</asrwt>
<pdfrwt beam="1">  1       21 0.34517844E-01 0.10580198E+03</pdfrwt>
<pdfrwt beam="2">  1       21 0.85985857E-02 0.10580198E+03</pdfrwt>
<totfact> 0.85726497E+05</totfact>
</mgrwt>
</event>
<event>
 4    1  0.6024238E+003  0.1149452E+03  0.7546771E-02  0.1251677E+00
         21   -1    0    0  504  501  0.00000000000E+00  0.00000000000E+00  0.96410652643E+02  0.96410652643E+02  0.00000000000E+00 0.  1.
         21   -1    0    0  503  502 -0.00000000000E+00 -0.00000000000E+00 -0.14085622637E+03  0.14085622637E+03  0.00000000000E+00 0.  1.
         21    1    1    2  503  501 -0.82046066881E+02  0.80503728397E+02 -0.27034962919E+01  0.11497702496E+03  0.00000000000E+00 0.  1.
         21    1    1    2  504  502  0.82046066881E+02 -0.80503728397E+02 -0.41742077440E+02  0.12228985406E+03  0.00000000000E+00 0.  1.
<mgrwt>
<rscale>  2 0.11494524E+03</rscale>
<asrwt>0</asrwt>
<pdfrwt beam="1">  1       21 0.14832408E-01 0.11494524E+03</pdfrwt>
<pdfrwt beam="2">  1       21 0.21670189E-01 0.11494524E+03</pdfrwt>
<totfact> 0.79734338E+05</totfact>
</mgrwt>
</event>
<event>
 4    1  0.6024238E+003  0.1483313E+03  0.7546771E-02  0.1202539E+00
         21   -1    0    0  504  501  0.00000000000E+00  0.00000000000E+00  0.10425368858E+02  0.10425368858E+02  0.00000000000E+00 0. -1.
         21   -1    0    0  501  502 -0.00000000000E+00 -0.00000000000E+00 -0.22040919986E+04  0.22040919986E+04  0.00000000000E+00 0. -1.
         21    1    1    2  503  502  0.72703982800E+02  0.12929152052E+03 -0.86859874253E+03  0.88117304879E+03  0.00000000000E+00 0. -1.
         21    1    1    2  504  503 -0.72703982800E+02 -0.12929152052E+03 -0.13250678872E+04  0.13333443186E+04  0.00000000000E+00 0. -1.
<mgrwt>
<rscale>  2 0.14833127E+03</rscale>
<asrwt>0</asrwt>
<pdfrwt beam="1">  1       21 0.16039018E-02 0.14833127E+03</pdfrwt>
<pdfrwt beam="2">  1       21 0.33909132E+00 0.14833127E+03</pdfrwt>
<totfact> 0.37517579E+04</totfact>
</mgrwt>
</event>
<event>
 4    1  0.6024238E+003  0.1195386E+03  0.7546771E-02  0.1243860E+00
         21   -1    0    0  504  501  0.00000000000E+00  0.00000000000E+00  0.86369282797E+02  0.86369282797E+02  0.00000000000E+00 0.  1.
         21   -1    0    0  503  502 -0.00000000000E+00 -0.00000000000E+00 -0.21417163255E+03  0.21417163255E+03  0.00000000000E+00 0.  1.
         21    1    1    2  503  501  0.10893564742E+03  0.49218795549E+02 -0.13557667310E+03  0.18074982546E+03  0.00000000000E+00 0.  1.
         21    1    1    2  504  502 -0.10893564742E+03 -0.49218795549E+02  0.77743233440E+01  0.11979108989E+03  0.00000000000E+00 0.  1.
<mgrwt>
<rscale>  2 0.11953855E+03</rscale>
<asrwt>0</asrwt>
<pdfrwt beam="1">  1       21 0.13287582E-01 0.11953855E+03</pdfrwt>
<pdfrwt beam="2">  1       21 0.32949482E-01 0.11953855E+03</pdfrwt>
<totfact> 0.43784188E+05</totfact>
</mgrwt>
</event>
<event>
 4    1  0.6024238E+003  0.1062813E+03  0.7546771E-02  0.1267616E+00
         21   -1    0    0  504  501  0.00000000000E+00  0.00000000000E+00  0.39624669767E+03  0.39624669767E+03  0.00000000000E+00 0. -1.
         21   -1    0    0  503  502 -0.00000000000E+00 -0.00000000000E+00 -0.80129604401E+02  0.80129604401E+02  0.00000000000E+00 0.  1.
         21    1    1    2  503  501 -0.51790448312E+02  0.92808726567E+02 -0.33122401473E+02  0.11132297042E+03  0.00000000000E+00 0.  1.
         21    1    1    2  504  502  0.51790448312E+02 -0.92808726567E+02  0.34923949474E+03  0.36505333165E+03  0.00000000000E+00 0. -1.
<mgrwt>
<rscale>  2 0.10628128E+03</rscale>
<asrwt>0</asrwt>
<pdfrwt beam="1">  1       21 0.60961029E-01 0.10628128E+03</pdfrwt>
<pdfrwt beam="2">  1       21 0.12327632E-01 0.10628128E+03</pdfrwt>
<totfact> 0.14426397E+05</totfact>
</mgrwt>
</event>
<event>
 4    1  0.6024238E+003  0.1334607E+03  0.7546771E-02  0.1222409E+00
         21   -1    0    0  504  501  0.00000000000E+00  0.00000000000E+00  0.54660939803E+03  0.54660939803E+03  0.00000000000E+00 0.  1.
         21   -1    0    0  503  502 -0.00000000000E+00 -0.00000000000E+00 -0.32596631791E+02  0.32596631791E+02  0.00000000000E+00 0. -1.
         21    1    1    2  503  501 -0.89640165085E+02 -0.98875662314E+02  0.26226265989E+03  0.29426766483E+03  0.00000000000E+00 0. -1.
         21    1    1    2  504  502  0.89640165085E+02  0.98875662314E+02  0.25175010635E+03  0.28493836499E+03  0.00000000000E+00 0.  1.
<mgrwt>
<rscale>  2 0.13346069E+03</rscale>
<asrwt>0</asrwt>
<pdfrwt beam="1">  1       21 0.84093747E-01 0.13346069E+03</pdfrwt>
<pdfrwt beam="2">  1       21 0.50148668E-02 0.13346069E+03</pdfrwt>
<totfact> 0.33314318E+05</totfact>
</mgrwt>
</event>
<event>
 4    1  0.6024238E+003  0.1682474E+03  0.7546771E-02  0.1179688E+00
         21   -1    0    0  504  501  0.00000000000E+00  0.00000000000E+00  0.69125157513E+02  0.69125157513E+02  0.00000000000E+00 0. -1.
         21   -1    0    0  503  502 -0.00000000000E+00 -0.00000000000E+00 -0.42219208153E+03  0.42219208153E+03  0.00000000000E+00 0. -1.
         21    1    1    2  503  501 -0.75385150481E+02  0.15041369188E+03 -0.21911610128E+03  0.27625905499E+03  0.00000000000E+00 0. -1.
         21    1    1    2  504  502  0.75385150481E+02 -0.15041369188E+03 -0.13395082273E+03  0.21505818406E+03  0.00000000000E+00 0. -1.
<mgrwt>
<rscale>  2 0.16824744E+03</rscale>
<asrwt>0</asrwt>
<pdfrwt beam="1">  1       21 0.10634640E-01 0.16824744E+03</pdfrwt>
<pdfrwt beam="2">  1       21 0.64952626E-01 0.16824744E+03</pdfrwt>
<totfact> 0.16014884E+05</totfact>
</mgrwt>
</event>
<event>
 4    1  0.6024238E+003  0.1202754E+03  0.7546771E-02  0.1242643E+00
         21   -1    0    0  503  501  0.00000000000E+00  0.00000000000E+00  0.76594454196E+02  0.76594454196E+02  0.00000000000E+00 0. -1.
         21   -1    0    0  501  502 -0.00000000000E+00 -0.00000000000E+00 -0.21577568572E+03  0.21577568572E+03  0.00000000000E+00 0. -1.
         21    1    1    2  503  504 -0.85623481161E+02 -0.84467696740E+02 -0.17967143052E+02  0.12160999362E+03  0.00000000000E+00 0. -1.
         21    1    1    2  504  502  0.85623481161E+02  0.84467696740E+02 -0.12121408847E+03  0.17076014629E+03  0.00000000000E+00 0. -1.
<mgrwt>
<rscale>  2 0.12027540E+03</rscale>
<asrwt>0</asrwt>
<pdfrwt beam="1">  1       21 0.11783762E-01 0.12027540E+03</pdfrwt>
<pdfrwt beam="2">  1       21 0.33196259E-01 0.12027540E+03</pdfrwt>
<totfact> 0.53395507E+05</totfact>
</mgrwt>
</event>
<event>
 4    1  0.6024238E+003  0.1046483E+03  0.7546771E-02  0.1270814E+00
         21   -1    0    0  504  501  0.00000000000E+00  0.00000000000E+00  0.66539658024E+02  0.66539658024E+02  0.00000000000E+00 0. -1.
         21   -1    0    0  503  502 -0.00000000000E+00 -0.00000000000E+00 -0.27999527922E+03  0.27999527922E+03  0.00000000000E+00 0. -1.
         21    1    1    2  503  501 -0.75078654803E+02  0.72900410229E+02 -0.21796968959E+03  0.24178928802E+03  0.00000000000E+00 0. -1.
         21    1    1    2  504  502  0.75078654803E+02 -0.72900410229E+02  0.45140683964E+01  0.10474564923E+03  0.00000000000E+00 0. -1.
<mgrwt>
<rscale>  2 0.10464834E+03</rscale>
<asrwt>0</asrwt>
<pdfrwt beam="1">  1       21 0.10236870E-01 0.10464834E+03</pdfrwt>
<pdfrwt beam="2">  1       21 0.43076197E-01 0.10464834E+03</pdfrwt>
<totfact> 0.40887199E+05</totfact>
</mgrwt>
</event>
<event>
 4    1  0.6024238E+003  0.1091997E+03  0.7546771E-02  0.1262059E+00
         21   -1    0    0  504  501  0.00000000000E+00  0.00000000000E+00  0.11463559456E+03  0.11463559456E+03  0.00000000000E+00 0. -1.
         21   -1    0    0  503  502 -0.00000000000E+00 -0.00000000000E+00 -0.10939586363E+03  0.10939586363E+03  0.00000000000E+00 0. -1.
         21    1    1    2  503  501  0.28066269758E+02  0.10553135225E+03 -0.22207845912E+02  0.11143504936E+03  0.00000000000E+00 0. -1.
         21    1    1    2  504  502 -0.28066269758E+02 -0.10553135225E+03  0.27447576842E+02  0.11259640883E+03  0.00000000000E+00 0. -1.
<mgrwt>
<rscale>  2 0.10919973E+03</rscale>
<asrwt>0</asrwt>
<pdfrwt beam="1">  1       21 0.17636245E-01 0.10919973E+03</pdfrwt>
<pdfrwt beam="2">  1       21 0.16830133E-01 0.10919973E+03</pdfrwt>
<totfact> 0.92668612E+05</totfact>
</mgrwt>
</event>
<event>
 4    1  0.6024238E+003  0.1011854E+03  0.7546771E-02  0.1277823E+00
         21   -1    0    0  503  501  0.00000000000E+00  0.00000000000E+00  0.11100233085E+03  0.11100233085E+03  0.00000000000E+00 0.  1.
         21   -1    0    0  504  502 -0.00000000000E+00 -0.00000000000E+00 -0.59712449367E+03  0.59712449367E+03  0.00000000000E+00 0. -1.
         21    1    1    2  503  502 -0.95954486595E+02 -0.32112502330E+02 -0.56863236449E+03  0.57756492470E+03  0.00000000000E+00 0. -1.
         21    1    1    2  504  501  0.95954486595E+02  0.32112502330E+02  0.82510201670E+02  0.13056189982E+03  0.00000000000E+00 0.  1.
<mgrwt>
<rscale>  2 0.10118536E+03</rscale>
<asrwt>0</asrwt>
<pdfrwt beam="1">  1       21 0.17077282E-01 0.10118536E+03</pdfrwt>
<pdfrwt beam="2">  1       21 0.91865305E-01 0.10118536E+03</pdfrwt>
<totfact> 0.32862308E+04</totfact>
</mgrwt>
</event>
<event>
 4    1  0.6024238E+003  0.1009566E+03  0.7546771E-02  0.1278297E+00
         21   -1    0    0  502  501  0.00000000000E+00  0.00000000000E+00  0.27071318392E+03  0.27071318392E+03  0.00000000000E+00 0. -1.
         21   -1    0    0  504  502 -0.00000000000E+00 -0.00000000000E+00 -0.23382836731E+03  0.23382836731E+03  0.00000000000E+00 0.  1.
         21    1    1    2  503  501 -0.37383462401E+02 -0.93780126685E+02  0.24951284007E+03  0.26916331990E+03  0.00000000000E+00 0. -1.
         21    1    1    2  504  503  0.37383462401E+02  0.93780126685E+02 -0.21262802346E+03  0.23537823133E+03  0.00000000000E+00 0.  1.
<mgrwt>
<rscale>  2 0.10095660E+03</rscale>
<asrwt>0</asrwt>
<pdfrwt beam="1">  1       21 0.41648182E-01 0.10095660E+03</pdfrwt>
<pdfrwt beam="2">  1       21 0.35973595E-01 0.10095660E+03</pdfrwt>
<totfact> 0.43548401E+04</totfact>
</mgrwt>
</event>
<event>
 4    1  0.6024238E+003  0.1120618E+03  0.7546771E-02  0.1256799E+00
         21   -1    0    0  504  501  0.00000000000E+00  0.00000000000E+00  0.20931578390E+03  0.20931578390E+03  0.00000000000E+00 0.  1.
         21   -1    0    0  503  502 -0.00000000000E+00 -0.00000000000E+00 -0.81312012982E+02  0.81312012982E+02  0.00000000000E+00 0.  1.
         21    1    1    2  503  501  0.39711473811E+02  0.10478953885E+03 -0.10401979512E+02  0.11254354616E+03  0.00000000000E+00 0.  1.
         21    1    1    2  504  502 -0.39711473811E+02 -0.10478953885E+03  0.13840575043E+03  0.17808425072E+03  0.00000000000E+00 0.  1.
<mgrwt>
<rscale>  2 0.11206181E+03</rscale>
<asrwt>0</asrwt>
<pdfrwt beam="1">  1       21 0.32202428E-01 0.11206181E+03</pdfrwt>
<pdfrwt beam="2">  1       21 0.12509541E-01 0.11206181E+03</pdfrwt>
<totfact> 0.50989372E+05</totfact>
</mgrwt>
</event>
<event>
 4    1  0.6024238E+003  0.1030604E+03  0.7546771E-02  0.1273989E+00
         21   -1    0    0  504  501  0.00000000000E+00  0.00000000000E+00  0.25725133235E+03  0.25725133235E+03  0.00000000000E+00 0. -1.
         21   -1    0    0  503  502 -0.00000000000E+00 -0.00000000000E+00 -0.11734664452E+03  0.11734664452E+03  0.00000000000E+00 0. -1.
         21    1    1    2  503  501  0.75836146671E+02 -0.69787741118E+02 -0.80838076745E+02  0.13098184838E+03  0.00000000000E+00 0. -1.
         21    1    1    2  504  502 -0.75836146671E+02  0.69787741118E+02  0.22074276457E+03  0.24361612849E+03  0.00000000000E+00 0. -1.
<mgrwt>
<rscale>  2 0.10306042E+03</rscale>
<asrwt>0</asrwt>
<pdfrwt beam="1">  1       21 0.39577128E-01 0.10306042E+03</pdfrwt>
<pdfrwt beam="2">  1       21 0.18053330E-01 0.10306042E+03</pdfrwt>
<totfact> 0.17651487E+05</totfact>
</mgrwt>
</event>
<event>
 4    1  0.6024238E+003  0.1326425E+03  0.7546771E-02  0.1223587E+00
         21   -1    0    0  503  501  0.00000000000E+00  0.00000000000E+00  0.24064631473E+03  0.24064631473E+03  0.00000000000E+00 0. -1.
         21   -1    0    0  501  502 -0.00000000000E+00 -0.00000000000E+00 -0.11543329732E+03  0.11543329732E+03  0.00000000000E+00 0.  1.
         21    1    1    2  503  504  0.11954702272E+03  0.57467780340E+02  0.17041007168E+03  0.21594820895E+03  0.00000000000E+00 0. -1.
         21    1    1    2  504  502 -0.11954702272E+03 -0.57467780340E+02 -0.45197054275E+02  0.14013140310E+03  0.00000000000E+00 0.  1.
<mgrwt>
<rscale>  2 0.13264251E+03</rscale>
<asrwt>0</asrwt>
<pdfrwt beam="1">  1       21 0.37022510E-01 0.13264251E+03</pdfrwt>
<pdfrwt beam="2">  1       21 0.17758969E-01 0.13264251E+03</pdfrwt>
<totfact> 0.20585181E+05</totfact>
</mgrwt>
</event>
<event>
 4    1  0.6024238E+003  0.1121968E+03  0.7546771E-02  0.1256555E+00
         21   -1    0    0  503  501  0.00000000000E+00  0.00000000000E+00  0.11115340331E+03  0.11115340331E+03  0.00000000000E+00 0.  1.
         21   -1    0    0  504  502 -0.00000000000E+00 -0.00000000000E+00 -0.11367238024E+03  0.11367238024E+03  0.00000000000E+00 0.  1.
         21    1    1    2  503  502  0.11042772470E+03  0.19845282594E+02 -0.81122395321E+01  0.11248967088E+03  0.00000000000E+00 0.  1.
         21    1    1    2  504  501 -0.11042772470E+03 -0.19845282594E+02  0.55932625995E+01  0.11233611267E+03  0.00000000000E+00 0.  1.
<mgrwt>
<rscale>  2 0.11219678E+03</rscale>
<asrwt>0</asrwt>
<pdfrwt beam="1">  1       21 0.17100524E-01 0.11219678E+03</pdfrwt>
<pdfrwt beam="2">  1       21 0.17488059E-01 0.11219678E+03</pdfrwt>
<totfact> 0.91444392E+05</totfact>
</mgrwt>
</event>
<event>
 4    1  0.6024238E+003  0.1180915E+03  0.7546771E-02  0.1246279E+00
         21   -1    0    0  502  501  0.00000000000E+00  0.00000000000E+00  0.62116359349E+02  0.62116359349E+02  0.00000000000E+00 0.  1.
         21   -1    0    0  504  502 -0.00000000000E+00 -0.00000000000E+00 -0.68338403445E+03  0.68338403445E+03  0.00000000000E+00 0.  1.
         21    1    1    2  503  501 -0.32143526493E+02  0.11363274770E+03 -0.51886783146E+01  0.11820545685E+03  0.00000000000E+00 0.  1.
         21    1    1    2  504  503  0.32143526493E+02 -0.11363274770E+03 -0.61607899679E+03  0.62729493695E+03  0.00000000000E+00 0.  1.
<mgrwt>
<rscale>  2 0.11809152E+03</rscale>
<asrwt>0</asrwt>
<pdfrwt beam="1">  1       21 0.95563639E-02 0.11809152E+03</pdfrwt>
<pdfrwt beam="2">  1       21 0.10513600E+00 0.11809152E+03</pdfrwt>
<totfact> 0.66483058E+04</totfact>
</mgrwt>
</event>
<event>
 4    1  0.6024238E+003  0.1542634E+03  0.7546771E-02  0.1195330E+00
         21   -1    0    0  502  501  0.00000000000E+00  0.00000000000E+00  0.15378980850E+03  0.15378980850E+03  0.00000000000E+00 0.  1.
         21   -1    0    0  504  502 -0.00000000000E+00 -0.00000000000E+00 -0.25662236347E+03  0.25662236347E+03  0.00000000000E+00 0.  1.
         21    1    1    2  503  501 -0.39527932755E+02 -0.14911319383E+03  0.77882887542E+02  0.17280898765E+03  0.00000000000E+00 0.  1.
         21    1    1    2  504  503  0.39527932755E+02  0.14911319383E+03 -0.18071544251E+03  0.23760318433E+03  0.00000000000E+00 0.  1.
<mgrwt>
<rscale>  2 0.15426342E+03</rscale>
<asrwt>0</asrwt>
<pdfrwt beam="1">  1       21 0.23659971E-01 0.15426342E+03</pdfrwt>
<pdfrwt beam="2">  1       21 0.39480363E-01 0.15426342E+03</pdfrwt>
<totfact> 0.10556494E+05</totfact>
</mgrwt>
</event>
<event>
 4    1  0.6024238E+003  0.1106348E+03  0.7546771E-02  0.1259399E+00
         21   -1    0    0  504  501  0.00000000000E+00  0.00000000000E+00  0.24355160585E+03  0.24355160585E+03  0.00000000000E+00 0.  1.
         21   -1    0    0  503  502 -0.00000000000E+00 -0.00000000000E+00 -0.18233171843E+03  0.18233171843E+03  0.00000000000E+00 0. -1.
         21    1    1    2  503  501 -0.67430517080E+01 -0.11042910757E+03 -0.15062425849E+03  0.18688960322E+03  0.00000000000E+00 0. -1.
         21    1    1    2  504  502  0.67430517080E+01  0.11042910757E+03  0.21184414591E+03  0.23899372106E+03  0.00000000000E+00 0.  1.
<mgrwt>
<rscale>  2 0.11063479E+03</rscale>
<asrwt>0</asrwt>
<pdfrwt beam="1">  1       21 0.37469478E-01 0.11063479E+03</pdfrwt>
<pdfrwt beam="2">  1       21 0.28051034E-01 0.11063479E+03</pdfrwt>
<totfact> 0.86346256E+04</totfact>
</mgrwt>
</event>
<event>
 4    1  0.6024238E+003  0.1102526E+03  0.7546771E-02  0.1260103E+00
         21   -1    0    0  504  501  0.00000000000E+00  0.00000000000E+00  0.22173643727E+03  0.22173643727E+03  0.00000000000E+00 0. -1.
         21   -1    0    0  503  502 -0.00000000000E+00 -0.00000000000E+00 -0.54853410002E+02  0.54853410002E+02  0.00000000000E+00 0. -1.
         21    1    1    2  503  501  0.71986380215E+02  0.83508092938E+02  0.80039776860E+02  0.13624245448E+03  0.00000000000E+00 0. -1.
         21    1    1    2  504  502 -0.71986380215E+02 -0.83508092938E+02  0.86843250409E+02  0.14034739280E+03  0.00000000000E+00 0. -1.
<mgrwt>
<rscale>  2 0.11025262E+03</rscale>
<asrwt>0</asrwt>
<pdfrwt beam="1">  1       21 0.34113298E-01 0.11025262E+03</pdfrwt>
<pdfrwt beam="2">  1       21 0.84389862E-02 0.11025262E+03</pdfrwt>
<totfact> 0.90638104E+05</totfact>
</mgrwt>
</event>
<event>
 4    1  0.6024238E+003  0.1130804E+03  0.7546771E-02  0.1254969E+00
         21   -1    0    0  503  501  0.00000000000E+00  0.00000000000E+00  0.79909665307E+02  0.79909665307E+02  0.00000000000E+00 0.  1.
         21   -1    0    0  504  502 -0.00000000000E+00 -0.00000000000E+00 -0.21427511807E+03  0.21427511807E+03  0.00000000000E+00 0.  1.
         21    1    1    2  503  502 -0.10926978329E+03  0.29108302379E+02  0.68328257695E+01  0.11328665550E+03  0.00000000000E+00 0.  1.
         21    1    1    2  504  501  0.10926978329E+03 -0.29108302379E+02 -0.14119827854E+03  0.18089812788E+03  0.00000000000E+00 0.  1.
<mgrwt>
<rscale>  2 0.11308041E+03</rscale>
<asrwt>0</asrwt>
<pdfrwt beam="1">  1       21 0.12293795E-01 0.11308041E+03</pdfrwt>
<pdfrwt beam="2">  1       21 0.32965402E-01 0.11308041E+03</pdfrwt>
<totfact> 0.50244021E+05</totfact>
</mgrwt>
</event>
<event>
 4    1  0.6024238E+003  0.1011016E+03  0.7546771E-02  0.1277996E+00
         21   -1    0    0  503  501  0.00000000000E+00  0.00000000000E+00  0.20174374349E+03  0.20174374349E+03  0.00000000000E+00 0. -1.
         21   -1    0    0  504  502 -0.00000000000E+00 -0.00000000000E+00 -0.55018387485E+02  0.55018387485E+02  0.00000000000E+00 0. -1.
         21    1    1    2  503  502  0.91075699347E+02 -0.43894745134E+02  0.10947163877E+03  0.14901533933E+03  0.00000000000E+00 0. -1.
         21    1    1    2  504  501 -0.91075699347E+02  0.43894745134E+02  0.37253717242E+02  0.10774679165E+03  0.00000000000E+00 0. -1.
<mgrwt>
<rscale>  2 0.10110159E+03</rscale>
<asrwt>0</asrwt>
<pdfrwt beam="1">  1       21 0.31037499E-01 0.10110159E+03</pdfrwt>
<pdfrwt beam="2">  1       21 0.84643674E-02 0.10110159E+03</pdfrwt>
<totfact> 0.10814112E+06</totfact>
</mgrwt>
</event>
<event>
 4    1  0.6024238E+003  0.1012522E+03  0.7546771E-02  0.1277685E+00
         21   -1    0    0  503  501  0.00000000000E+00  0.00000000000E+00  0.12475930451E+03  0.12475930451E+03  0.00000000000E+00 0. -1.
         21   -1    0    0  504  502 -0.00000000000E+00 -0.00000000000E+00 -0.98356689310E+03  0.98356689310E+03  0.00000000000E+00 0.  1.
         21    1    1    2  503  502 -0.92362324392E+02  0.41487397698E+02 -0.95991267101E+03  0.96523797019E+03  0.00000000000E+00 0.  1.
         21    1    1    2  504  501  0.92362324392E+02 -0.41487397698E+02  0.10110508242E+03  0.14308822742E+03  0.00000000000E+00 0. -1.
<mgrwt>
<rscale>  2 0.10125218E+03</rscale>
<asrwt>0</asrwt>
<pdfrwt beam="1">  1       21 0.19193738E-01 0.10125218E+03</pdfrwt>
<pdfrwt beam="2">  1       21 0.15131799E+00 0.10125218E+03</pdfrwt>
<totfact> 0.79669860E+03</totfact>
</mgrwt>
</event>
<event>
 4    1  0.6024238E+003  0.1561372E+03  0.7546771E-02  0.1193128E+00
         21   -1    0    0  504  501  0.00000000000E+00  0.00000000000E+00  0.39510200287E+03  0.39510200287E+03  0.00000000000E+00 0. -1.
         21   -1    0    0  503  502 -0.00000000000E+00 -0.00000000000E+00 -0.14176790895E+03  0.14176790895E+03  0.00000000000E+00 0.  1.
         21    1    1    2  503  501  0.84993172284E+02 -0.13097700405E+03 -0.75063810838E+02  0.17324373184E+03  0.00000000000E+00 0.  1.
         21    1    1    2  504  502 -0.84993172284E+02  0.13097700405E+03  0.32839790475E+03  0.36362617998E+03  0.00000000000E+00 0. -1.
<mgrwt>
<rscale>  2 0.15613717E+03</rscale>
<asrwt>0</asrwt>
<pdfrwt beam="1">  1       21 0.60784923E-01 0.15613717E+03</pdfrwt>
<pdfrwt beam="2">  1       21 0.21810448E-01 0.15613717E+03</pdfrwt>
<totfact> 0.50340727E+04</totfact>
</mgrwt>
</event>
<event>
 4    1  0.6024238E+003  0.1460991E+03  0.7546771E-02  0.1205350E+00
         21   -1    0    0  503  501  0.00000000000E+00  0.00000000000E+00  0.14677349976E+03  0.14677349976E+03  0.00000000000E+00 0. -1.
         21   -1    0    0  504  502 -0.00000000000E+00 -0.00000000000E+00 -0.17149704079E+03  0.17149704079E+03  0.00000000000E+00 0. -1.
         21    1    1    2  503  502 -0.14492636425E+03  0.18474096531E+02  0.49682622792E+02  0.15431560616E+03  0.00000000000E+00 0. -1.
         21    1    1    2  504  501  0.14492636425E+03 -0.18474096531E+02 -0.74406163816E+02  0.16395493439E+03  0.00000000000E+00 0. -1.
<mgrwt>
<rscale>  2 0.14609909E+03</rscale>
<asrwt>0</asrwt>
<pdfrwt beam="1">  1       21 0.22580538E-01 0.14609909E+03</pdfrwt>
<pdfrwt beam="2">  1       21 0.26384160E-01 0.14609909E+03</pdfrwt>
<totfact> 0.25391181E+05</totfact>
</mgrwt>
</event>
<event>
 4    1  0.6024238E+003  0.1263962E+03  0.7546771E-02  0.1232903E+00
         21   -1    0    0  504  501  0.00000000000E+00  0.00000000000E+00  0.85980402905E+03  0.85980402905E+03  0.00000000000E+00 0. -1.
         21   -1    0    0  501  502 -0.00000000000E+00 -0.00000000000E+00 -0.26226351646E+03  0.26226351646E+03  0.00000000000E+00 0.  1.
         21    1    1    2  503  502  0.10016264928E+03 -0.77093751408E+02 -0.24202424522E+03  0.27304164168E+03  0.00000000000E+00 0.  1.
         21    1    1    2  504  503 -0.10016264928E+03  0.77093751408E+02  0.83956475781E+03  0.84902590383E+03  0.00000000000E+00 0. -1.
<mgrwt>
<rscale>  2 0.12639621E+03</rscale>
<asrwt>0</asrwt>
<pdfrwt beam="1">  1       21 0.13227754E+00 0.12639621E+03</pdfrwt>
<pdfrwt beam="2">  1       21 0.40348234E-01 0.12639621E+03</pdfrwt>
<totfact> 0.26254226E+03</totfact>
</mgrwt>
</event>
<event>
 4    1  0.6024238E+003  0.1098107E+03  0.7546771E-02  0.1260921E+00
         21   -1    0    0  504  501  0.00000000000E+00  0.00000000000E+00  0.67054423060E+02  0.67054423060E+02  0.00000000000E+00 0. -1.
         21   -1    0    0  503  502 -0.00000000000E+00 -0.00000000000E+00 -0.18558944556E+03  0.18558944556E+03  0.00000000000E+00 0. -1.
         21    1    1    2  503  501 -0.18979914898E+02 -0.10815795134E+03 -0.81521209328E+02  0.13676288669E+03  0.00000000000E+00 0. -1.
         21    1    1    2  504  502  0.18979914898E+02  0.10815795134E+03 -0.37013813173E+02  0.11588098193E+03  0.00000000000E+00 0. -1.
<mgrwt>
<rscale>  2 0.10981065E+03</rscale>
<asrwt>0</asrwt>
<pdfrwt beam="1">  1       21 0.10316065E-01 0.10981065E+03</pdfrwt>
<pdfrwt beam="2">  1       21 0.28552222E-01 0.10981065E+03</pdfrwt>
<totfact> 0.90188468E+05</totfact>
</mgrwt>
</event>
<event>
 4    1  0.6024238E+003  0.1178278E+03  0.7546771E-02  0.1246724E+00
         21   -1    0    0  503  501  0.00000000000E+00  0.00000000000E+00  0.20653235221E+04  0.20653235221E+04  0.00000000000E+00 0. -1.
         21   -1    0    0  504  502 -0.00000000000E+00 -0.00000000000E+00 -0.31073742267E+03  0.31073742267E+03  0.00000000000E+00 0. -1.
         21    1    1    2  503  502 -0.90218612675E+02 -0.75789147043E+02  0.20524030140E+04  0.20557824605E+04  0.00000000000E+00 0. -1.
         21    1    1    2  504  501  0.90218612675E+02  0.75789147043E+02 -0.29781691459E+03  0.32027848429E+03  0.00000000000E+00 0. -1.
<mgrwt>
<rscale>  2 0.11782781E+03</rscale>
<asrwt>0</asrwt>
<pdfrwt beam="1">  1       21 0.31774207E+00 0.11782781E+03</pdfrwt>
<pdfrwt beam="2">  1       21 0.47805759E-01 0.11782781E+03</pdfrwt>
<totfact> 0.13196233E+02</totfact>
</mgrwt>
</event>
<event>
 4    1  0.6024238E+003  0.1121268E+03  0.7546771E-02  0.1256681E+00
         21   -1    0    0  502  501  0.00000000000E+00  0.00000000000E+00  0.92999980373E+03  0.92999980373E+03  0.00000000000E+00 0. -1.
         21   -1    0    0  504  502 -0.00000000000E+00 -0.00000000000E+00 -0.14141521660E+02  0.14141521660E+02  0.00000000000E+00 0.  1.
         21    1    1    2  503  501  0.95289618664E+02  0.59095818881E+02  0.55699550303E+03  0.56816935647E+03  0.00000000000E+00 0. -1.
         21    1    1    2  504  503 -0.95289618664E+02 -0.59095818881E+02  0.35886277903E+03  0.37597196891E+03  0.00000000000E+00 0.  1.
<mgrwt>
<rscale>  2 0.11212684E+03</rscale>
<asrwt>0</asrwt>
<pdfrwt beam="1">  1       21 0.14307685E+00 0.11212684E+03</pdfrwt>
<pdfrwt beam="2">  1       21 0.21756194E-02 0.11212684E+03</pdfrwt>
<totfact> 0.37177431E+05</totfact>
</mgrwt>
</event>
<event>
 4    1  0.6024238E+003  0.1084406E+03  0.7546771E-02  0.1263485E+00
         21   -1    0    0  504  501  0.00000000000E+00  0.00000000000E+00  0.26038570734E+02  0.26038570734E+02  0.00000000000E+00 0.  1.
         21   -1    0    0  503  502 -0.00000000000E+00 -0.00000000000E+00 -0.14913778773E+04  0.14913778773E+04  0.00000000000E+00 0. -1.
         21    1    1    2  503  501 -0.21381769709E+02  0.10631177298E+03 -0.99167076514E+02  0.14694720894E+03  0.00000000000E+00 0.  1.
         21    1    1    2  504  502  0.21381769709E+02 -0.10631177298E+03 -0.13661722301E+04  0.13704692391E+04  0.00000000000E+00 0. -1.
<mgrwt>
<rscale>  2 0.10844064E+03</rscale>
<asrwt>0</asrwt>
<pdfrwt beam="1">  1       21 0.40059352E-02 0.10844064E+03</pdfrwt>
<pdfrwt beam="2">  1       21 0.22944268E+00 0.10844064E+03</pdfrwt>
<totfact> 0.37176189E+04</totfact>
</mgrwt>
</event>
<event>
 4    1  0.6024238E+003  0.1706878E+03  0.7546771E-02  0.1177132E+00
         21   -1    0    0  504  501  0.00000000000E+00  0.00000000000E+00  0.44642180858E+03  0.44642180858E+03  0.00000000000E+00 0. -1.
         21   -1    0    0  503  502 -0.00000000000E+00 -0.00000000000E+00 -0.79611509544E+02  0.79611509544E+02  0.00000000000E+00 0. -1.
         21    1    1    2  503  501 -0.40276458735E+02 -0.16586785887E+03  0.29506967469E+03  0.34088187493E+03  0.00000000000E+00 0. -1.
         21    1    1    2  504  502  0.40276458735E+02  0.16586785887E+03  0.71740624347E+02  0.18515144319E+03  0.00000000000E+00 0. -1.
<mgrwt>
<rscale>  2 0.17068784E+03</rscale>
<asrwt>0</asrwt>
<pdfrwt beam="1">  1       21 0.68680277E-01 0.17068784E+03</pdfrwt>
<pdfrwt beam="2">  1       21 0.12247925E-01 0.17068784E+03</pdfrwt>
<totfact> 0.11022926E+05</totfact>
</mgrwt>
</event>
<event>
 4    1  0.6024238E+003  0.1029690E+03  0.7546771E-02  0.1274174E+00
         21   -1    0    0  503  501  0.00000000000E+00  0.00000000000E+00  0.58534028522E+03  0.58534028522E+03  0.00000000000E+00 0.  1.
         21   -1    0    0  504  502 -0.00000000000E+00 -0.00000000000E+00 -0.22577263714E+02  0.22577263714E+02  0.00000000000E+00 0.  1.
         21    1    1    2  503  502 -0.80232454577E+02 -0.64539663193E+02  0.41653434980E+03  0.42907281369E+03  0.00000000000E+00 0.  1.
         21    1    1    2  504  501  0.80232454577E+02  0.64539663193E+02  0.14622867171E+03  0.17884473524E+03  0.00000000000E+00 0.  1.
<mgrwt>
<rscale>  2 0.10296900E+03</rscale>
<asrwt>0</asrwt>
<pdfrwt beam="1">  1       21 0.90052340E-01 0.10296900E+03</pdfrwt>
<pdfrwt beam="2">  1       21 0.34734256E-02 0.10296900E+03</pdfrwt>
<totfact> 0.52762815E+05</totfact>
</mgrwt>
</event>
<event>
 4    1  0.6024238E+003  0.1197598E+03  0.7546771E-02  0.1243494E+00
         21   -1    0    0  503  501  0.00000000000E+00  0.00000000000E+00  0.23260108664E+02  0.23260108664E+02  0.00000000000E+00 0.  1.
         21   -1    0    0  501  502 -0.00000000000E+00 -0.00000000000E+00 -0.11043323616E+04  0.11043323616E+04  0.00000000000E+00 0.  1.
         21    1    1    2  503  504 -0.98458101811E+01  0.11935433830E+03 -0.16585748062E+03  0.20457541868E+03  0.00000000000E+00 0.  1.
         21    1    1    2  504  502  0.98458101811E+01 -0.11935433830E+03 -0.91521477230E+03  0.92301705157E+03  0.00000000000E+00 0.  1.
<mgrwt>
<rscale>  2 0.11975975E+03</rscale>
<asrwt>0</asrwt>
<pdfrwt beam="1">  1       21 0.35784786E-02 0.11975975E+03</pdfrwt>
<pdfrwt beam="2">  1       21 0.16989727E+00 0.11975975E+03</pdfrwt>
<totfact> 0.10500065E+05</totfact>
</mgrwt>
</event>
<event>
 4    1  0.6024238E+003  0.1022688E+03  0.7546771E-02  0.1275596E+00
         21   -1    0    0  502  501  0.00000000000E+00  0.00000000000E+00  0.83884334376E+03  0.83884334376E+03  0.00000000000E+00 0.  1.
         21   -1    0    0  504  502 -0.00000000000E+00 -0.00000000000E+00 -0.20524505012E+02  0.20524505012E+02  0.00000000000E+00 0.  1.
         21    1    1    2  503  501 -0.46626733145E+02 -0.91021180121E+02  0.67836210978E+03  0.68602773957E+03  0.00000000000E+00 0.  1.
         21    1    1    2  504  503  0.46626733145E+02  0.91021180121E+02  0.13995672897E+03  0.17334010920E+03  0.00000000000E+00 0.  1.
<mgrwt>
<rscale>  2 0.10226880E+03</rscale>
<asrwt>0</asrwt>
<pdfrwt beam="1">  1       21 0.12905280E+00 0.10226880E+03</pdfrwt>
<pdfrwt beam="2">  1       21 0.31576168E-02 0.10226880E+03</pdfrwt>
<totfact> 0.26364172E+05</totfact>
</mgrwt>
</event>
<event>
 4    1  0.6024238E+003  0.1112942E+03  0.7546771E-02  0.1258192E+00
         21   -1    0    0  502  501  0.00000000000E+00  0.00000000000E+00  0.13023703006E+04  0.13023703006E+04  0.00000000000E+00 0.  1.
         21   -1    0    0  503  502 -0.00000000000E+00 -0.00000000000E+00 -0.16970939170E+02  0.16970939170E+02  0.00000000000E+00 0. -1.
         21    1    1    2  503  504 -0.10541877672E+03 -0.35683133065E+02  0.20532698383E+03  0.23354994061E+03  0.00000000000E+00 0. -1.
         21    1    1    2  504  501  0.10541877672E+03  0.35683133065E+02  0.10800723776E+04  0.10857912992E+04  0.00000000000E+00 0.  1.
<mgrwt>
<rscale>  2 0.11129422E+03</rscale>
<asrwt>0</asrwt>
<pdfrwt beam="1">  1       21 0.20036458E+00 0.11129422E+03</pdfrwt>
<pdfrwt beam="2">  1       21 0.26109147E-02 0.11129422E+03</pdfrwt>
<totfact> 0.11186405E+05</totfact>
</mgrwt>
</event>
<event>
 4    1  0.6024238E+003  0.1022249E+03  0.7546771E-02  0.1275686E+00
         21   -1    0    0  504  501  0.00000000000E+00  0.00000000000E+00  0.16026081533E+03  0.16026081533E+03  0.00000000000E+00 0.  1.
         21   -1    0    0  503  502 -0.00000000000E+00 -0.00000000000E+00 -0.78625231698E+02  0.78625231698E+02  0.00000000000E+00 0.  1.
         21    1    1    2  503  501  0.36012237159E+02 -0.95671558539E+02  0.90163288067E+02  0.13630607783E+03  0.00000000000E+00 0.  1.
         21    1    1    2  504  502 -0.36012237159E+02  0.95671558539E+02 -0.85277044311E+01  0.10257996920E+03  0.00000000000E+00 0.  1.
<mgrwt>
<rscale>  2 0.10222489E+03</rscale>
<asrwt>0</asrwt>
<pdfrwt beam="1">  1       21 0.24655510E-01 0.10222489E+03</pdfrwt>
<pdfrwt beam="2">  1       21 0.12096190E-01 0.10222489E+03</pdfrwt>
<totfact> 0.89968299E+05</totfact>
</mgrwt>
</event>
<event>
 4    1  0.6024238E+003  0.1044784E+03  0.7546771E-02  0.1271151E+00
         21   -1    0    0  502  501  0.00000000000E+00  0.00000000000E+00  0.84966637624E+03  0.84966637624E+03  0.00000000000E+00 0. -1.
         21   -1    0    0  503  502 -0.00000000000E+00 -0.00000000000E+00 -0.43207451419E+02  0.43207451419E+02  0.00000000000E+00 0.  1.
         21    1    1    2  503  504 -0.10259833086E+03 -0.19731394431E+02  0.29003254828E+02  0.10842939736E+03  0.00000000000E+00 0.  1.
         21    1    1    2  504  501  0.10259833086E+03  0.19731394431E+02  0.77745566999E+03  0.78444443030E+03  0.00000000000E+00 0. -1.
<mgrwt>
<rscale>  2 0.10447844E+03</rscale>
<asrwt>0</asrwt>
<pdfrwt beam="1">  1       21 0.13071789E+00 0.10447844E+03</pdfrwt>
<pdfrwt beam="2">  1       21 0.66473009E-02 0.10447844E+03</pdfrwt>
<totfact> 0.73951525E+04</totfact>
</mgrwt>
</event>
<event>
 4    1  0.6024238E+003  0.1022874E+03  0.7546771E-02  0.1275558E+00
         21   -1    0    0  504  501  0.00000000000E+00  0.00000000000E+00  0.58996029620E+03  0.58996029620E+03  0.00000000000E+00 0. -1.
         21   -1    0    0  503  502 -0.00000000000E+00 -0.00000000000E+00 -0.21060491957E+02  0.21060491957E+02  0.00000000000E+00 0. -1.
         21    1    1    2  503  501 -0.65076135883E+02 -0.78916512868E+02  0.40585718538E+03  0.41854841343E+03  0.00000000000E+00 0. -1.
         21    1    1    2  504  502  0.65076135883E+02  0.78916512868E+02  0.16304261886E+03  0.19247237472E+03  0.00000000000E+00 0. -1.
<mgrwt>
<rscale>  2 0.10228744E+03</rscale>
<asrwt>0</asrwt>
<pdfrwt beam="1">  1       21 0.90763110E-01 0.10228744E+03</pdfrwt>
<pdfrwt beam="2">  1       21 0.32400761E-02 0.10228744E+03</pdfrwt>
<totfact> 0.58088978E+05</totfact>
</mgrwt>
</event>
<event>
 4    1  0.6024238E+003  0.2556898E+03  0.7546771E-02  0.1109761E+00
         21   -1    0    0  502  501  0.00000000000E+00  0.00000000000E+00  0.85859559118E+03  0.85859559118E+03  0.00000000000E+00 0.  1.
         21   -1    0    0  504  502 -0.00000000000E+00 -0.00000000000E+00 -0.24480623205E+03  0.24480623205E+03  0.00000000000E+00 0.  1.
         21    1    1    2  503  501  0.25561337548E+03  0.62500011449E+01  0.76482653151E+03  0.80643467407E+03  0.00000000000E+00 0.  1.
         21    1    1    2  504  503 -0.25561337548E+03 -0.62500011449E+01 -0.15103717237E+03  0.29696714916E+03  0.00000000000E+00 0.  1.
<mgrwt>
<rscale>  2 0.25568977E+03</rscale>
<asrwt>0</asrwt>
<pdfrwt beam="1">  1       21 0.13209163E+00 0.25568977E+03</pdfrwt>
<pdfrwt beam="2">  1       21 0.37662498E-01 0.25568977E+03</pdfrwt>
<totfact> 0.26847326E+03</totfact>
</mgrwt>
</event>
<event>
 4    1  0.6024238E+003  0.1228838E+03  0.7546771E-02  0.1238414E+00
         21   -1    0    0  503  501  0.00000000000E+00  0.00000000000E+00  0.82532176810E+02  0.82532176810E+02  0.00000000000E+00 0. -1.
         21   -1    0    0  501  502 -0.00000000000E+00 -0.00000000000E+00 -0.62640965654E+03  0.62640965654E+03  0.00000000000E+00 0. -1.
         21    1    1    2  503  504 -0.11462844244E+03  0.44280250128E+02  0.26305160450E+02  0.12566774381E+03  0.00000000000E+00 0. -1.
         21    1    1    2  504  502  0.11462844244E+03 -0.44280250128E+02 -0.57018264018E+03  0.58327408954E+03  0.00000000000E+00 0. -1.
<mgrwt>
<rscale>  2 0.12288377E+03</rscale>
<asrwt>0</asrwt>
<pdfrwt beam="1">  1       21 0.12697258E-01 0.12288377E+03</pdfrwt>
<pdfrwt beam="2">  1       21 0.96370715E-01 0.12288377E+03</pdfrwt>
<totfact> 0.49318455E+04</totfact>
</mgrwt>
</event>
<event>
 4    1  0.6024238E+003  0.1034669E+03  0.7546771E-02  0.1273170E+00
         21   -1    0    0  503  501  0.00000000000E+00  0.00000000000E+00  0.96214528585E+03  0.96214528585E+03  0.00000000000E+00 0. -1.
         21   -1    0    0  504  502 -0.00000000000E+00 -0.00000000000E+00 -0.14445441623E+02  0.14445441623E+02  0.00000000000E+00 0. -1.
         21    1    1    2  503  502  0.16010188575E+01  0.10345456007E+03  0.70790076718E+03  0.71542218684E+03  0.00000000000E+00 0. -1.
         21    1    1    2  504  501 -0.16010188575E+01 -0.10345456007E+03  0.23979907705E+03  0.26116854063E+03  0.00000000000E+00 0. -1.
<mgrwt>
<rscale>  2 0.10346695E+03</rscale>
<asrwt>0</asrwt>
<pdfrwt beam="1">  1       21 0.14802230E+00 0.10346695E+03</pdfrwt>
<pdfrwt beam="2">  1       21 0.22223764E-02 0.10346695E+03</pdfrwt>
<totfact> 0.33038195E+05</totfact>
</mgrwt>
</event>
<event>
 4    1  0.6024238E+003  0.1189145E+03  0.7546771E-02  0.1244899E+00
         21   -1    0    0  504  501  0.00000000000E+00  0.00000000000E+00  0.11939298184E+03  0.11939298184E+03  0.00000000000E+00 0. -1.
         21   -1    0    0  501  502 -0.00000000000E+00 -0.00000000000E+00 -0.38304084318E+03  0.38304084318E+03  0.00000000000E+00 0. -1.
         21    1    1    2  503  502  0.11667909724E+03 -0.22948699442E+02 -0.34062064646E+03  0.36078120701E+03  0.00000000000E+00 0. -1.
         21    1    1    2  504  503 -0.11667909724E+03  0.22948699442E+02  0.76972785116E+02  0.14165261800E+03  0.00000000000E+00 0. -1.
<mgrwt>
<rscale>  2 0.11891448E+03</rscale>
<asrwt>0</asrwt>
<pdfrwt beam="1">  1       21 0.18368151E-01 0.11891448E+03</pdfrwt>
<pdfrwt beam="2">  1       21 0.58929361E-01 0.11891448E+03</pdfrwt>
<totfact> 0.75265009E+04</totfact>
</mgrwt>
</event>
<event>
 4    1  0.6024238E+003  0.1057828E+03  0.7546771E-02  0.1268585E+00
         21   -1    0    0  503  501  0.00000000000E+00  0.00000000000E+00  0.63511303817E+03  0.63511303817E+03  0.00000000000E+00 0. -1.
         21   -1    0    0  504  502 -0.00000000000E+00 -0.00000000000E+00 -0.17797882822E+02  0.17797882822E+02  0.00000000000E+00 0.  1.
         21    1    1    2  503  502 -0.66186919185E+02  0.82518385660E+02  0.27591995835E+03  0.29550264916E+03  0.00000000000E+00 0. -1.
         21    1    1    2  504  501  0.66186919185E+02 -0.82518385660E+02  0.34139519700E+03  0.35740827184E+03  0.00000000000E+00 0.  1.
<mgrwt>
<rscale>  2 0.10578276E+03</rscale>
<asrwt>0</asrwt>
<pdfrwt beam="1">  1       21 0.97709681E-01 0.10578276E+03</pdfrwt>
<pdfrwt beam="2">  1       21 0.27381363E-02 0.10578276E+03</pdfrwt>
<totfact> 0.64535675E+05</totfact>
</mgrwt>
</event>
<event>
 4    1  0.6024238E+003  0.1207252E+03  0.7546771E-02  0.1241905E+00
         21   -1    0    0  502  501  0.00000000000E+00  0.00000000000E+00  0.15206553762E+03  0.15206553762E+03  0.00000000000E+00 0.  1.
         21   -1    0    0  503  502 -0.00000000000E+00 -0.00000000000E+00 -0.24865770517E+03  0.24865770517E+03  0.00000000000E+00 0.  1.
         21    1    1    2  503  504 -0.10346775940E+03  0.62201306101E+02 -0.20536658633E+03  0.23822261541E+03  0.00000000000E+00 0.  1.
         21    1    1    2  504  501  0.10346775940E+03 -0.62201306101E+02  0.10877441878E+03  0.16250062737E+03  0.00000000000E+00 0.  1.
<mgrwt>
<rscale>  2 0.12072522E+03</rscale>
<asrwt>0</asrwt>
<pdfrwt beam="1">  1       21 0.23394698E-01 0.12072522E+03</pdfrwt>
<pdfrwt beam="2">  1       21 0.38255031E-01 0.12072522E+03</pdfrwt>
<totfact> 0.11625151E+05</totfact>
</mgrwt>
</event>
<event>
 4    1  0.6024238E+003  0.1054689E+03  0.7546771E-02  0.1269199E+00
         21   -1    0    0  502  501  0.00000000000E+00  0.00000000000E+00  0.33139056089E+03  0.33139056089E+03  0.00000000000E+00 0.  1.
         21   -1    0    0  503  502 -0.00000000000E+00 -0.00000000000E+00 -0.98697963357E+02  0.98697963357E+02  0.00000000000E+00 0.  1.
         21    1    1    2  503  504  0.70813943268E+02 -0.78160577918E+02 -0.58343878248E+02  0.12053090322E+03  0.00000000000E+00 0.  1.
         21    1    1    2  504  501 -0.70813943268E+02  0.78160577918E+02  0.29103647578E+03  0.30955762103E+03  0.00000000000E+00 0.  1.
<mgrwt>
<rscale>  2 0.10546891E+03</rscale>
<asrwt>0</asrwt>
<pdfrwt beam="1">  1       21 0.50983163E-01 0.10546891E+03</pdfrwt>
<pdfrwt beam="2">  1       21 0.15184302E-01 0.10546891E+03</pdfrwt>
<totfact> 0.14457994E+05</totfact>
</mgrwt>
</event>
<event>
 4    1  0.6024238E+003  0.1086962E+03  0.7546771E-02  0.1263003E+00
         21   -1    0    0  503  501  0.00000000000E+00  0.00000000000E+00  0.94019479812E+02  0.94019479812E+02  0.00000000000E+00 0. -1.
         21   -1    0    0  504  502 -0.00000000000E+00 -0.00000000000E+00 -0.27596717654E+03  0.27596717654E+03  0.00000000000E+00 0. -1.
         21    1    1    2  503  502 -0.24791556294E+01 -0.10866795496E+03 -0.22749857848E+03  0.25213185808E+03  0.00000000000E+00 0. -1.
         21    1    1    2  504  501  0.24791556294E+01  0.10866795496E+03  0.45550881755E+02  0.11785479827E+03  0.00000000000E+00 0. -1.
<mgrwt>
<rscale>  2 0.10869623E+03</rscale>
<asrwt>0</asrwt>
<pdfrwt beam="1">  1       21 0.14464535E-01 0.10869623E+03</pdfrwt>
<pdfrwt beam="2">  1       21 0.42456488E-01 0.10869623E+03</pdfrwt>
<totfact> 0.22851577E+05</totfact>
</mgrwt>
</event>
<event>
 4    1  0.6024238E+003  0.1227531E+03  0.7546771E-02  0.1238623E+00
         21   -1    0    0  504  501  0.00000000000E+00  0.00000000000E+00  0.13110736711E+03  0.13110736711E+03  0.00000000000E+00 0. -1.
         21   -1    0    0  501  502 -0.00000000000E+00 -0.00000000000E+00 -0.19627976447E+03  0.19627976447E+03  0.00000000000E+00 0. -1.
         21    1    1    2  503  502 -0.10497364803E+03  0.63630587126E+02 -0.13796881282E+03  0.18467190288E+03  0.00000000000E+00 0. -1.
         21    1    1    2  504  503  0.10497364803E+03 -0.63630587126E+02  0.72796415467E+02  0.14271522871E+03  0.00000000000E+00 0. -1.
<mgrwt>
<rscale>  2 0.12275308E+03</rscale>
<asrwt>0</asrwt>
<pdfrwt beam="1">  1       21 0.20170364E-01 0.12275308E+03</pdfrwt>
<pdfrwt beam="2">  1       21 0.30196887E-01 0.12275308E+03</pdfrwt>
<totfact> 0.24307983E+05</totfact>
</mgrwt>
</event>
<event>
 4    1  0.6024238E+003  0.1062215E+03  0.7546771E-02  0.1267731E+00
         21   -1    0    0  503  501  0.00000000000E+00  0.00000000000E+00  0.25458024797E+02  0.25458024797E+02  0.00000000000E+00 0.  1.
         21   -1    0    0  504  502 -0.00000000000E+00 -0.00000000000E+00 -0.48810675295E+03  0.48810675295E+03  0.00000000000E+00 0.  1.
         21    1    1    2  503  502 -0.68310191747E+02  0.81343261337E+02 -0.15343800567E+03  0.18661787172E+03  0.00000000000E+00 0.  1.
         21    1    1    2  504  501  0.68310191747E+02 -0.81343261337E+02 -0.30921072248E+03  0.32694690602E+03  0.00000000000E+00 0.  1.
<mgrwt>
<rscale>  2 0.10622151E+03</rscale>
<asrwt>0</asrwt>
<pdfrwt beam="1">  1       21 0.39166191E-02 0.10622151E+03</pdfrwt>
<pdfrwt beam="2">  1       21 0.75093348E-01 0.10622151E+03</pdfrwt>
<totfact> 0.64931514E+05</totfact>
</mgrwt>
</event>
<event>
 4    1  0.6024238E+003  0.1014927E+03  0.7546771E-02  0.1277188E+00
         21   -1    0    0  503  501  0.00000000000E+00  0.00000000000E+00  0.44741391648E+03  0.44741391648E+03  0.00000000000E+00 0. -1.
         21   -1    0    0  504  502 -0.00000000000E+00 -0.00000000000E+00 -0.31913072900E+02  0.31913072900E+02  0.00000000000E+00 0. -1.
         21    1    1    2  503  502  0.72897559152E+02 -0.70616720508E+02  0.33424507284E+03  0.34931439143E+03  0.00000000000E+00 0. -1.
         21    1    1    2  504  501 -0.72897559152E+02  0.70616720508E+02  0.81255770737E+02  0.13001259794E+03  0.00000000000E+00 0. -1.
<mgrwt>
<rscale>  2 0.10149274E+03</rscale>
<asrwt>0</asrwt>
<pdfrwt beam="1">  1       21 0.68832905E-01 0.10149274E+03</pdfrwt>
<pdfrwt beam="2">  1       21 0.49097039E-02 0.10149274E+03</pdfrwt>
<totfact> 0.53943426E+05</totfact>
</mgrwt>
</event>
<event>
 4    1  0.6024238E+003  0.1150579E+03  0.7546771E-02  0.1251480E+00
         21   -1    0    0  503  501  0.00000000000E+00  0.00000000000E+00  0.47157482294E+02  0.47157482294E+02  0.00000000000E+00 0.  1.
         21   -1    0    0  501  502 -0.00000000000E+00 -0.00000000000E+00 -0.32053779242E+03  0.32053779242E+03  0.00000000000E+00 0.  1.
         21    1    1    2  503  504  0.40825125266E+02  0.10757151806E+03 -0.71897564954E+02  0.13567454514E+03  0.00000000000E+00 0.  1.
         21    1    1    2  504  502 -0.40825125266E+02 -0.10757151806E+03 -0.20148274517E+03  0.23202072958E+03  0.00000000000E+00 0.  1.
<mgrwt>
<rscale>  2 0.11505791E+03</rscale>
<asrwt>0</asrwt>
<pdfrwt beam="1">  1       21 0.72549970E-02 0.11505791E+03</pdfrwt>
<pdfrwt beam="2">  1       21 0.49313508E-01 0.11505791E+03</pdfrwt>
<totfact> 0.56236705E+05</totfact>
</mgrwt>
</event>
<event>
 4    1  0.6024238E+003  0.1749733E+03  0.7546771E-02  0.1172759E+00
         21   -1    0    0  503  501  0.00000000000E+00  0.00000000000E+00  0.12159471804E+03  0.12159471804E+03  0.00000000000E+00 0. -1.
         21   -1    0    0  501  502 -0.00000000000E+00 -0.00000000000E+00 -0.46214796959E+03  0.46214796959E+03  0.00000000000E+00 0.  1.
         21    1    1    2  503  504  0.12518459544E+03 -0.12224758965E+03  0.26641717576E+02  0.17698993538E+03  0.00000000000E+00 0. -1.
         21    1    1    2  504  502 -0.12518459544E+03  0.12224758965E+03 -0.36719496912E+03  0.40675275225E+03  0.00000000000E+00 0.  1.
<mgrwt>
<rscale>  2 0.17497330E+03</rscale>
<asrwt>0</asrwt>
<pdfrwt beam="1">  1       21 0.18706880E-01 0.17497330E+03</pdfrwt>
<pdfrwt beam="2">  1       21 0.71099688E-01 0.17497330E+03</pdfrwt>
<totfact> 0.47209807E+04</totfact>
</mgrwt>
</event>
<event>
 4    1  0.6024238E+003  0.1025191E+03  0.7546771E-02  0.1275086E+00
         21   -1    0    0  503  501  0.00000000000E+00  0.00000000000E+00  0.98626399087E+02  0.98626399087E+02  0.00000000000E+00 0.  1.
         21   -1    0    0  501  502 -0.00000000000E+00 -0.00000000000E+00 -0.19590507519E+03  0.19590507519E+03  0.00000000000E+00 0. -1.
         21    1    1    2  503  504 -0.91104302071E+02  0.47012453451E+02  0.50809790881E+02  0.11441940170E+03  0.00000000000E+00 0.  1.
         21    1    1    2  504  502  0.91104302071E+02 -0.47012453451E+02 -0.14808846698E+03  0.18011207258E+03  0.00000000000E+00 0. -1.
<mgrwt>
<rscale>  2 0.10251909E+03</rscale>
<asrwt>0</asrwt>
<pdfrwt beam="1">  1       21 0.15173292E-01 0.10251909E+03</pdfrwt>
<pdfrwt beam="2">  1       21 0.30139242E-01 0.10251909E+03</pdfrwt>
<totfact> 0.41095236E+05</totfact>
</mgrwt>
</event>
<event>
 4    1  0.6024238E+003  0.1001314E+03  0.7546771E-02  0.1280020E+00
         21   -1    0    0  502  501  0.00000000000E+00  0.00000000000E+00  0.59939845953E+03  0.59939845953E+03  0.00000000000E+00 0. -1.
         21   -1    0    0  504  502 -0.00000000000E+00 -0.00000000000E+00 -0.29724701428E+02  0.29724701428E+02  0.00000000000E+00 0. -1.
         21    1    1    2  503  501 -0.94823975430E+02 -0.32166803101E+02  0.49284293682E+03  0.50291197034E+03  0.00000000000E+00 0. -1.
         21    1    1    2  504  503  0.94823975430E+02  0.32166803101E+02  0.76830821278E+02  0.12621119061E+03  0.00000000000E+00 0. -1.
<mgrwt>
<rscale>  2 0.10013136E+03</rscale>
<asrwt>0</asrwt>
<pdfrwt beam="1">  1       21 0.92215138E-01 0.10013136E+03</pdfrwt>
<pdfrwt beam="2">  1       21 0.45730314E-02 0.10013136E+03</pdfrwt>
<totfact> 0.31758463E+05</totfact>
</mgrwt>
</event>
<event>
 4    1  0.6024238E+003  0.1006448E+03  0.7546771E-02  0.1278946E+00
         21   -1    0    0  502  501  0.00000000000E+00  0.00000000000E+00  0.68545523763E+02  0.68545523763E+02  0.00000000000E+00 0. -1.
         21   -1    0    0  503  502 -0.00000000000E+00 -0.00000000000E+00 -0.15153867864E+03  0.15153867864E+03  0.00000000000E+00 0. -1.
         21    1    1    2  503  504 -0.19832199695E+02  0.98671502592E+02 -0.58836500453E+02  0.11658093907E+03  0.00000000000E+00 0. -1.
         21    1    1    2  504  501  0.19832199695E+02 -0.98671502592E+02 -0.24156654428E+02  0.10350326334E+03  0.00000000000E+00 0. -1.
<mgrwt>
<rscale>  2 0.10064483E+03</rscale>
<asrwt>0</asrwt>
<pdfrwt beam="1">  1       21 0.10545465E-01 0.10064483E+03</pdfrwt>
<pdfrwt beam="2">  1       21 0.23313642E-01 0.10064483E+03</pdfrwt>
<totfact> 0.12700965E+06</totfact>
</mgrwt>
</event>
<event>
 4    1  0.6024238E+003  0.1048286E+03  0.7546771E-02  0.1270458E+00
         21   -1    0    0  503  501  0.00000000000E+00  0.00000000000E+00  0.39102765868E+03  0.39102765868E+03  0.00000000000E+00 0. -1.
         21   -1    0    0  504  502 -0.00000000000E+00 -0.00000000000E+00 -0.16466111273E+03  0.16466111273E+03  0.00000000000E+00 0.  1.
         21    1    1    2  503  502 -0.33847528844E+02 -0.99213817251E+02  0.36620913363E+03  0.38091753215E+03  0.00000000000E+00 0. -1.
         21    1    1    2  504  501  0.33847528844E+02  0.99213817251E+02 -0.13984258769E+03  0.17477123926E+03  0.00000000000E+00 0.  1.
<mgrwt>
<rscale>  2 0.10482861E+03</rscale>
<asrwt>0</asrwt>
<pdfrwt beam="1">  1       21 0.60158101E-01 0.10482861E+03</pdfrwt>
<pdfrwt beam="2">  1       21 0.25332479E-01 0.10482861E+03</pdfrwt>
<totfact> 0.40028388E+04</totfact>
</mgrwt>
</event>
<event>
 4    1  0.6024238E+003  0.1423325E+03  0.7546771E-02  0.1210224E+00
         21   -1    0    0  504  501  0.00000000000E+00  0.00000000000E+00  0.36968934139E+02  0.36968934139E+02  0.00000000000E+00 0. -1.
         21   -1    0    0  503  502 -0.00000000000E+00 -0.00000000000E+00 -0.24376293168E+04  0.24376293168E+04  0.00000000000E+00 0. -1.
         21    1    1    2  503  501 -0.10697151861E+02 -0.14192997138E+03 -0.22897130056E+04  0.22941325580E+04  0.00000000000E+00 0. -1.
         21    1    1    2  504  502  0.10697151861E+02  0.14192997138E+03 -0.11094737704E+03  0.18046569288E+03  0.00000000000E+00 0. -1.
<mgrwt>
<rscale>  2 0.14233252E+03</rscale>
<asrwt>0</asrwt>
<pdfrwt beam="1">  1       21 0.56875285E-02 0.14233252E+03</pdfrwt>
<pdfrwt beam="2">  1       21 0.37501988E+00 0.14233252E+03</pdfrwt>
<totfact> 0.29012059E+03</totfact>
</mgrwt>
</event>
<event>
 4    1  0.6024238E+003  0.1157606E+03  0.7546771E-02  0.1250259E+00
         21   -1    0    0  503  501  0.00000000000E+00  0.00000000000E+00  0.16236778420E+02  0.16236778420E+02  0.00000000000E+00 0. -1.
         21   -1    0    0  504  502 -0.00000000000E+00 -0.00000000000E+00 -0.87749588549E+03  0.87749588549E+03  0.00000000000E+00 0. -1.
         21    1    1    2  503  502 -0.23399282434E+02 -0.11337105919E+03 -0.32166287380E+03  0.34185892976E+03  0.00000000000E+00 0. -1.
         21    1    1    2  504  501  0.23399282434E+02  0.11337105919E+03 -0.53959623327E+03  0.55187373415E+03  0.00000000000E+00 0. -1.
<mgrwt>
<rscale>  2 0.11576063E+03</rscale>
<asrwt>0</asrwt>
<pdfrwt beam="1">  1       21 0.24979651E-02 0.11576063E+03</pdfrwt>
<pdfrwt beam="2">  1       21 0.13499941E+00 0.11576063E+03</pdfrwt>
<totfact> 0.34385828E+05</totfact>
</mgrwt>
</event>
<event>
 4    1  0.6024238E+003  0.1079839E+03  0.7546771E-02  0.1264350E+00
         21   -1    0    0  504  501  0.00000000000E+00  0.00000000000E+00  0.88699467632E+01  0.88699467632E+01  0.00000000000E+00 0.  1.
         21   -1    0    0  501  502 -0.00000000000E+00 -0.00000000000E+00 -0.18405533547E+04  0.18405533547E+04  0.00000000000E+00 0.  1.
         21    1    1    2  503  502 -0.60659396231E+02 -0.89336270362E+02 -0.14101536490E+04  0.14142820954E+04  0.00000000000E+00 0.  1.
         21    1    1    2  504  503  0.60659396231E+02  0.89336270362E+02 -0.42152975893E+03  0.43514120607E+03  0.00000000000E+00 0.  1.
<mgrwt>
<rscale>  2 0.10798394E+03</rscale>
<asrwt>0</asrwt>
<pdfrwt beam="1">  1       21 0.13646068E-02 0.10798394E+03</pdfrwt>
<pdfrwt beam="2">  1       21 0.28316213E+00 0.10798394E+03</pdfrwt>
<totfact> 0.10545925E+05</totfact>
</mgrwt>
</event>
<event>
 4    1  0.6024238E+003  0.1253170E+03  0.7546771E-02  0.1234575E+00
         21   -1    0    0  503  501  0.00000000000E+00  0.00000000000E+00  0.15017894868E+02  0.15017894868E+02  0.00000000000E+00 0. -1.
         21   -1    0    0  504  502 -0.00000000000E+00 -0.00000000000E+00 -0.10795499140E+04  0.10795499140E+04  0.00000000000E+00 0. -1.
         21    1    1    2  503  502  0.70345852753E+02 -0.10371019173E+03 -0.43536808574E+03  0.45304493480E+03  0.00000000000E+00 0. -1.
         21    1    1    2  504  501 -0.70345852753E+02  0.10371019173E+03 -0.62916393344E+03  0.64152287411E+03  0.00000000000E+00 0. -1.
<mgrwt>
<rscale>  2 0.12531697E+03</rscale>
<asrwt>0</asrwt>
<pdfrwt beam="1">  1       21 0.23104453E-02 0.12531697E+03</pdfrwt>
<pdfrwt beam="2">  1       21 0.16608461E+00 0.12531697E+03</pdfrwt>
<totfact> 0.22753487E+05</totfact>
</mgrwt>
</event>
<event>
 4    1  0.6024238E+003  0.1360288E+03  0.7546771E-02  0.1218775E+00
         21   -1    0    0  503  501  0.00000000000E+00  0.00000000000E+00  0.27748092796E+03  0.27748092796E+03  0.00000000000E+00 0.  1.
         21   -1    0    0  504  502 -0.00000000000E+00 -0.00000000000E+00 -0.42345588519E+03  0.42345588519E+03  0.00000000000E+00 0.  1.
         21    1    1    2  503  502 -0.16210988283E+02 -0.13505940655E+03  0.24870391219E+03  0.28347394126E+03  0.00000000000E+00 0.  1.
         21    1    1    2  504  501  0.16210988283E+02  0.13505940655E+03 -0.39467886942E+03  0.41746287189E+03  0.00000000000E+00 0.  1.
<mgrwt>
<rscale>  2 0.13602882E+03</rscale>
<asrwt>0</asrwt>
<pdfrwt beam="1">  1       21 0.42689374E-01 0.13602882E+03</pdfrwt>
<pdfrwt beam="2">  1       21 0.65147059E-01 0.13602882E+03</pdfrwt>
<totfact> 0.11928668E+04</totfact>
</mgrwt>
</event>
<event>
 4    1  0.6024238E+003  0.1052355E+03  0.7546771E-02  0.1269656E+00
         21   -1    0    0  503  501  0.00000000000E+00  0.00000000000E+00  0.44785196623E+03  0.44785196623E+03  0.00000000000E+00 0.  1.
         21   -1    0    0  504  502 -0.00000000000E+00 -0.00000000000E+00 -0.72539578817E+02  0.72539578817E+02  0.00000000000E+00 0.  1.
         21    1    1    2  503  502 -0.10045456612E+03 -0.31358965046E+02  0.39889759982E+03  0.41254551226E+03  0.00000000000E+00 0.  1.
         21    1    1    2  504  501  0.10045456612E+03  0.31358965046E+02 -0.23585212409E+02  0.10784603279E+03  0.00000000000E+00 0.  1.
<mgrwt>
<rscale>  2 0.10523547E+03</rscale>
<asrwt>0</asrwt>
<pdfrwt beam="1">  1       21 0.68900301E-01 0.10523547E+03</pdfrwt>
<pdfrwt beam="2">  1       21 0.11159935E-01 0.10523547E+03</pdfrwt>
<totfact> 0.13232520E+05</totfact>
</mgrwt>
</event>
<event>
 4    1  0.6024238E+003  0.1021663E+03  0.7546771E-02  0.1275805E+00
         21   -1    0    0  503  501  0.00000000000E+00  0.00000000000E+00  0.61898949138E+02  0.61898949138E+02  0.00000000000E+00 0.  1.
         21   -1    0    0  504  502 -0.00000000000E+00 -0.00000000000E+00 -0.38421292948E+03  0.38421292948E+03  0.00000000000E+00 0. -1.
         21    1    1    2  503  502 -0.90657402100E+02  0.47108241688E+02  0.59274885390E+01  0.10233809706E+03  0.00000000000E+00 0.  1.
         21    1    1    2  504  501  0.90657402100E+02 -0.47108241688E+02 -0.32824146889E+03  0.34377378156E+03  0.00000000000E+00 0. -1.
<mgrwt>
<rscale>  2 0.10216629E+03</rscale>
<asrwt>0</asrwt>
<pdfrwt beam="1">  1       21 0.95229153E-02 0.10216629E+03</pdfrwt>
<pdfrwt beam="2">  1       21 0.59109681E-01 0.10216629E+03</pdfrwt>
<totfact> 0.24215700E+05</totfact>
</mgrwt>
</event>
<event>
 4    1  0.6024238E+003  0.1566686E+03  0.7546771E-02  0.1192510E+00
         21   -1    0    0  502  501  0.00000000000E+00  0.00000000000E+00  0.82854683728E+03  0.82854683728E+03  0.00000000000E+00 0. -1.
         21   -1    0    0  503  502 -0.00000000000E+00 -0.00000000000E+00 -0.28348959808E+03  0.28348959808E+03  0.00000000000E+00 0.  1.
         21    1    1    2  503  504 -0.11208438691E+03  0.10946293956E+03 -0.25363668157E+03  0.29812180592E+03  0.00000000000E+00 0.  1.
         21    1    1    2  504  501  0.11208438691E+03 -0.10946293956E+03  0.79869392077E+03  0.81391462944E+03  0.00000000000E+00 0. -1.
<mgrwt>
<rscale>  2 0.15666858E+03</rscale>
<asrwt>0</asrwt>
<pdfrwt beam="1">  1       21 0.12746874E+00 0.15666858E+03</pdfrwt>
<pdfrwt beam="2">  1       21 0.43613785E-01 0.15666858E+03</pdfrwt>
<totfact> 0.23776750E+03</totfact>
</mgrwt>
</event>
<event>
 4    1  0.6024238E+003  0.1013593E+03  0.7546771E-02  0.1277463E+00
         21   -1    0    0  504  501  0.00000000000E+00  0.00000000000E+00  0.24021903532E+04  0.24021903532E+04  0.00000000000E+00 0. -1.
         21   -1    0    0  503  502 -0.00000000000E+00 -0.00000000000E+00 -0.28429450088E+02  0.28429450088E+02  0.00000000000E+00 0. -1.
         21    1    1    2  503  501 -0.35033349863E+02 -0.95112442210E+02  0.23070534749E+04  0.23092789889E+04  0.00000000000E+00 0. -1.
         21    1    1    2  504  502  0.35033349863E+02  0.95112442210E+02  0.66707428163E+02  0.12134081440E+03  0.00000000000E+00 0. -1.
<mgrwt>
<rscale>  2 0.10135932E+03</rscale>
<asrwt>0</asrwt>
<pdfrwt beam="1">  1       21 0.36956759E+00 0.10135932E+03</pdfrwt>
<pdfrwt beam="2">  1       21 0.43737634E-02 0.10135932E+03</pdfrwt>
<totfact> 0.52924976E+03</totfact>
</mgrwt>
</event>
<event>
 4    1  0.6024238E+003  0.1600290E+03  0.7546771E-02  0.1188664E+00
         21   -1    0    0  504  501  0.00000000000E+00  0.00000000000E+00  0.12451138939E+04  0.12451138939E+04  0.00000000000E+00 0.  1.
         21   -1    0    0  503  502 -0.00000000000E+00 -0.00000000000E+00 -0.14109179902E+03  0.14109179902E+03  0.00000000000E+00 0. -1.
         21    1    1    2  503  501 -0.94866389444E+02  0.12887842055E+03  0.11926060208E+04  0.12032948101E+04  0.00000000000E+00 0.  1.
         21    1    1    2  504  502  0.94866389444E+02 -0.12887842055E+03 -0.88583925920E+02  0.18291088284E+03  0.00000000000E+00 0. -1.
<mgrwt>
<rscale>  2 0.16002899E+03</rscale>
<asrwt>0</asrwt>
<pdfrwt beam="1">  1       21 0.19155598E+00 0.16002899E+03</pdfrwt>
<pdfrwt beam="2">  1       21 0.21706431E-01 0.16002899E+03</pdfrwt>
<totfact> 0.31206349E+03</totfact>
</mgrwt>
</event>
<event>
 4    1  0.6024238E+003  0.1125967E+03  0.7546771E-02  0.1255835E+00
         21   -1    0    0  504  501  0.00000000000E+00  0.00000000000E+00  0.82559329432E+03  0.82559329432E+03  0.00000000000E+00 0.  1.
         21   -1    0    0  503  502 -0.00000000000E+00 -0.00000000000E+00 -0.20618641576E+02  0.20618641576E+02  0.00000000000E+00 0. -1.
         21    1    1    2  503  501  0.78316417860E+02  0.80898378599E+02  0.61623978060E+03  0.62644191762E+03  0.00000000000E+00 0.  1.
         21    1    1    2  504  502 -0.78316417860E+02 -0.80898378599E+02  0.18873487215E+03  0.21977001827E+03  0.00000000000E+00 0. -1.
<mgrwt>
<rscale>  2 0.11259666E+03</rscale>
<asrwt>0</asrwt>
<pdfrwt beam="1">  1       21 0.12701433E+00 0.11259666E+03</pdfrwt>
<pdfrwt beam="2">  1       21 0.31720993E-02 0.11259666E+03</pdfrwt>
<totfact> 0.27116356E+05</totfact>
</mgrwt>
</event>
<event>
 4    1  0.6024238E+003  0.1069027E+03  0.7546771E-02  0.1266415E+00
         21   -1    0    0  503  501  0.00000000000E+00  0.00000000000E+00  0.10591172183E+04  0.10591172183E+04  0.00000000000E+00 0. -1.
         21   -1    0    0  504  502 -0.00000000000E+00 -0.00000000000E+00 -0.11827254310E+03  0.11827254310E+03  0.00000000000E+00 0.  1.
         21    1    1    2  503  502 -0.63056889095E+02 -0.86325108442E+02  0.10316210248E+04  0.10371451848E+04  0.00000000000E+00 0. -1.
         21    1    1    2  504  501  0.63056889095E+02  0.86325108442E+02 -0.90776349599E+02  0.14024457657E+03  0.00000000000E+00 0.  1.
<mgrwt>
<rscale>  2 0.10690274E+03</rscale>
<asrwt>0</asrwt>
<pdfrwt beam="1">  1       21 0.16294110E+00 0.10690274E+03</pdfrwt>
<pdfrwt beam="2">  1       21 0.18195777E-01 0.10690274E+03</pdfrwt>
<totfact> 0.71876092E+03</totfact>
</mgrwt>
</event>
<event>
 4    1  0.6024238E+003  0.1035337E+03  0.7546771E-02  0.1273036E+00
         21   -1    0    0  503  501  0.00000000000E+00  0.00000000000E+00  0.33549233578E+03  0.33549233578E+03  0.00000000000E+00 0. -1.
         21   -1    0    0  504  502 -0.00000000000E+00 -0.00000000000E+00 -0.15140450741E+03  0.15140450741E+03  0.00000000000E+00 0.  1.
         21    1    1    2  503  502  0.27118065690E+02 -0.99919112049E+02 -0.12419683655E+03  0.16169128810E+03  0.00000000000E+00 0.  1.
         21    1    1    2  504  501 -0.27118065690E+02  0.99919112049E+02  0.30828466492E+03  0.32520555509E+03  0.00000000000E+00 0. -1.
<mgrwt>
<rscale>  2 0.10353366E+03</rscale>
<asrwt>0</asrwt>
<pdfrwt beam="1">  1       21 0.51614206E-01 0.10353366E+03</pdfrwt>
<pdfrwt beam="2">  1       21 0.23293001E-01 0.10353366E+03</pdfrwt>
<totfact> 0.64526933E+04</totfact>
</mgrwt>
</event>
<event>
 4    1  0.6024238E+003  0.1015420E+03  0.7546771E-02  0.1277086E+00
         21   -1    0    0  504  501  0.00000000000E+00  0.00000000000E+00  0.10761926570E+03  0.10761926570E+03  0.00000000000E+00 0. -1.
         21   -1    0    0  503  502 -0.00000000000E+00 -0.00000000000E+00 -0.47097485616E+03  0.47097485616E+03  0.00000000000E+00 0. -1.
         21    1    1    2  503  501  0.87722072220E+02 -0.51143179054E+02 -0.43987848126E+03  0.45144641431E+03  0.00000000000E+00 0. -1.
         21    1    1    2  504  502 -0.87722072220E+02  0.51143179054E+02  0.76522890796E+02  0.12714770755E+03  0.00000000000E+00 0. -1.
<mgrwt>
<rscale>  2 0.10154204E+03</rscale>
<asrwt>0</asrwt>
<pdfrwt beam="1">  1       21 0.16556810E-01 0.10154204E+03</pdfrwt>
<pdfrwt beam="2">  1       21 0.72457670E-01 0.10154204E+03</pdfrwt>
<totfact> 0.58934989E+04</totfact>
</mgrwt>
</event>
<event>
 4    1  0.6024238E+003  0.1213859E+03  0.7546771E-02  0.1240828E+00
         21   -1    0    0  504  501  0.00000000000E+00  0.00000000000E+00  0.13445327969E+03  0.13445327969E+03  0.00000000000E+00 0. -1.
         21   -1    0    0  503  502 -0.00000000000E+00 -0.00000000000E+00 -0.17201685072E+03  0.17201685072E+03  0.00000000000E+00 0. -1.
         21    1    1    2  503  501  0.33552816136E+02  0.11665648074E+03 -0.11109498006E+03  0.16454975103E+03  0.00000000000E+00 0. -1.
         21    1    1    2  504  502 -0.33552816136E+02 -0.11665648074E+03  0.73531409034E+02  0.14192037938E+03  0.00000000000E+00 0. -1.
<mgrwt>
<rscale>  2 0.12138586E+03</rscale>
<asrwt>0</asrwt>
<pdfrwt beam="1">  1       21 0.20685120E-01 0.12138586E+03</pdfrwt>
<pdfrwt beam="2">  1       21 0.26464131E-01 0.12138586E+03</pdfrwt>
<totfact> 0.29870799E+05</totfact>
</mgrwt>
</event>
<event>
 4    1  0.6024238E+003  0.1077240E+03  0.7546771E-02  0.1264844E+00
         21   -1    0    0  503  501  0.00000000000E+00  0.00000000000E+00  0.76510908141E+03  0.76510908141E+03  0.00000000000E+00 0.  1.
         21   -1    0    0  504  502 -0.00000000000E+00 -0.00000000000E+00 -0.24544120964E+02  0.24544120964E+02  0.00000000000E+00 0. -1.
         21    1    1    2  503  502 -0.10249372880E+03  0.33158747952E+02  0.12623985919E+03  0.16595471990E+03  0.00000000000E+00 0. -1.
         21    1    1    2  504  501  0.10249372880E+03 -0.33158747952E+02  0.61432510125E+03  0.62369848247E+03  0.00000000000E+00 0.  1.
<mgrwt>
<rscale>  2 0.10772403E+03</rscale>
<asrwt>0</asrwt>
<pdfrwt beam="1">  1       21 0.11770907E+00 0.10772403E+03</pdfrwt>
<pdfrwt beam="2">  1       21 0.37760192E-02 0.10772403E+03</pdfrwt>
<totfact> 0.24554783E+05</totfact>
</mgrwt>
</event>
<event>
 4    1  0.6024238E+003  0.1043597E+03  0.7546771E-02  0.1271386E+00
         21   -1    0    0  503  501  0.00000000000E+00  0.00000000000E+00  0.29357688202E+03  0.29357688202E+03  0.00000000000E+00 0.  1.
         21   -1    0    0  504  502 -0.00000000000E+00 -0.00000000000E+00 -0.48778156681E+02  0.48778156681E+02  0.00000000000E+00 0.  1.
         21    1    1    2  503  502  0.28985750481E+02  0.10025353225E+03  0.20616563332E+03  0.23107404186E+03  0.00000000000E+00 0.  1.
         21    1    1    2  504  501 -0.28985750481E+02 -0.10025353225E+03  0.38633092018E+02  0.11128099684E+03  0.00000000000E+00 0.  1.
<mgrwt>
<rscale>  2 0.10435969E+03</rscale>
<asrwt>0</asrwt>
<pdfrwt beam="1">  1       21 0.45165673E-01 0.10435969E+03</pdfrwt>
<pdfrwt beam="2">  1       21 0.75043320E-02 0.10435969E+03</pdfrwt>
<totfact> 0.63498368E+05</totfact>
</mgrwt>
</event>
<event>
 4    1  0.6024238E+003  0.1016983E+03  0.7546771E-02  0.1276765E+00
         21   -1    0    0  502  501  0.00000000000E+00  0.00000000000E+00  0.28341346513E+03  0.28341346513E+03  0.00000000000E+00 0. -1.
         21   -1    0    0  504  502 -0.00000000000E+00 -0.00000000000E+00 -0.45579560977E+02  0.45579560977E+02  0.00000000000E+00 0. -1.
         21    1    1    2  503  501  0.10099854384E+03 -0.11909220414E+02  0.19236453149E+03  0.21759284998E+03  0.00000000000E+00 0. -1.
         21    1    1    2  504  503 -0.10099854384E+03  0.11909220414E+02  0.45469372660E+02  0.11140017612E+03  0.00000000000E+00 0. -1.
<mgrwt>
<rscale>  2 0.10169826E+03</rscale>
<asrwt>0</asrwt>
<pdfrwt beam="1">  1       21 0.43602071E-01 0.10169826E+03</pdfrwt>
<pdfrwt beam="2">  1       21 0.70122403E-02 0.10169826E+03</pdfrwt>
<totfact> 0.76516073E+05</totfact>
</mgrwt>
</event>
<event>
 4    1  0.6024238E+003  0.1491701E+03  0.7546771E-02  0.1201497E+00
         21   -1    0    0  502  501  0.00000000000E+00  0.00000000000E+00  0.40757882838E+03  0.40757882838E+03  0.00000000000E+00 0. -1.
         21   -1    0    0  504  502 -0.00000000000E+00 -0.00000000000E+00 -0.76839006637E+02  0.76839006637E+02  0.00000000000E+00 0. -1.
         21    1    1    2  503  501  0.12401694495E+03  0.82894539864E+02  0.29568874117E+03  0.33118505255E+03  0.00000000000E+00 0. -1.
         21    1    1    2  504  503 -0.12401694495E+03 -0.82894539864E+02  0.35051080570E+02  0.15323278247E+03  0.00000000000E+00 0. -1.
<mgrwt>
<rscale>  2 0.14917006E+03</rscale>
<asrwt>0</asrwt>
<pdfrwt beam="1">  1       21 0.62704434E-01 0.14917006E+03</pdfrwt>
<pdfrwt beam="2">  1       21 0.11821386E-01 0.14917006E+03</pdfrwt>
<totfact> 0.14414884E+05</totfact>
</mgrwt>
</event>
<event>
 4    1  0.6024238E+003  0.1100354E+03  0.7546771E-02  0.1260504E+00
         21   -1    0    0  503  501  0.00000000000E+00  0.00000000000E+00  0.14682091933E+03  0.14682091933E+03  0.00000000000E+00 0.  1.
         21   -1    0    0  501  502 -0.00000000000E+00 -0.00000000000E+00 -0.17494277655E+03  0.17494277655E+03  0.00000000000E+00 0.  1.
         21    1    1    2  503  504 -0.24795197413E+02 -0.10720537965E+03  0.10290904709E+03  0.15065877742E+03  0.00000000000E+00 0.  1.
         21    1    1    2  504  502  0.24795197413E+02  0.10720537965E+03 -0.13103090430E+03  0.17110491846E+03  0.00000000000E+00 0.  1.
<mgrwt>
<rscale>  2 0.11003543E+03</rscale>
<asrwt>0</asrwt>
<pdfrwt beam="1">  1       21 0.22587834E-01 0.11003543E+03</pdfrwt>
<pdfrwt beam="2">  1       21 0.26914273E-01 0.11003543E+03</pdfrwt>
<totfact> 0.24627642E+05</totfact>
</mgrwt>
</event>
<event>
 4    1  0.6024238E+003  0.1285145E+03  0.7546771E-02  0.1229677E+00
         21   -1    0    0  503  501  0.00000000000E+00  0.00000000000E+00  0.71135571898E+02  0.71135571898E+02  0.00000000000E+00 0.  1.
         21   -1    0    0  504  502 -0.00000000000E+00 -0.00000000000E+00 -0.23221942439E+03  0.23221942439E+03  0.00000000000E+00 0.  1.
         21    1    1    2  503  502  0.43921218124E+02 -0.12077621887E+03 -0.82617444184E+02  0.15277961424E+03  0.00000000000E+00 0.  1.
         21    1    1    2  504  501 -0.43921218124E+02  0.12077621887E+03 -0.78466408308E+02  0.15057538204E+03  0.00000000000E+00 0.  1.
<mgrwt>
<rscale>  2 0.12851447E+03</rscale>
<asrwt>0</asrwt>
<pdfrwt beam="1">  1       21 0.10943934E-01 0.12851447E+03</pdfrwt>
<pdfrwt beam="2">  1       21 0.35726065E-01 0.12851447E+03</pdfrwt>
<totfact> 0.52654706E+05</totfact>
</mgrwt>
</event>
<event>
 4    1  0.6024238E+003  0.1372715E+03  0.7546771E-02  0.1217048E+00
         21   -1    0    0  502  501  0.00000000000E+00  0.00000000000E+00  0.57768553046E+03  0.57768553046E+03  0.00000000000E+00 0.  1.
         21   -1    0    0  503  502 -0.00000000000E+00 -0.00000000000E+00 -0.25054558674E+03  0.25054558674E+03  0.00000000000E+00 0.  1.
         21    1    1    2  503  504  0.11444616251E+03  0.75799380118E+02 -0.22264879314E+03  0.26156443800E+03  0.00000000000E+00 0.  1.
         21    1    1    2  504  501 -0.11444616251E+03 -0.75799380118E+02  0.54978873686E+03  0.56666667920E+03  0.00000000000E+00 0.  1.
<mgrwt>
<rscale>  2 0.13727152E+03</rscale>
<asrwt>0</asrwt>
<pdfrwt beam="1">  1       21 0.88874697E-01 0.13727152E+03</pdfrwt>
<pdfrwt beam="2">  1       21 0.38545475E-01 0.13727152E+03</pdfrwt>
<totfact> 0.73430137E+03</totfact>
</mgrwt>
</event>
<event>
 4    1  0.6024238E+003  0.1722973E+03  0.7546771E-02  0.1175473E+00
         21   -1    0    0  504  501  0.00000000000E+00  0.00000000000E+00  0.19594511475E+03  0.19594511475E+03  0.00000000000E+00 0.  1.
         21   -1    0    0  503  502 -0.00000000000E+00 -0.00000000000E+00 -0.16682387511E+03  0.16682387511E+03  0.00000000000E+00 0.  1.
         21    1    1    2  503  501 -0.48550593405E+02  0.16531541238E+03  0.69528319844E+02  0.18579702083E+03  0.00000000000E+00 0.  1.
         21    1    1    2  504  502  0.48550593405E+02 -0.16531541238E+03 -0.40407080203E+02  0.17697196903E+03  0.00000000000E+00 0.  1.
<mgrwt>
<rscale>  2 0.17229726E+03</rscale>
<asrwt>0</asrwt>
<pdfrwt beam="1">  1       21 0.30145403E-01 0.17229726E+03</pdfrwt>
<pdfrwt beam="2">  1       21 0.25665211E-01 0.17229726E+03</pdfrwt>
<totfact> 0.15306615E+05</totfact>
</mgrwt>
</event>
<event>
 4    1  0.6024238E+003  0.1019286E+03  0.7546771E-02  0.1276292E+00
         21   -1    0    0  504  501  0.00000000000E+00  0.00000000000E+00  0.42785408066E+03  0.42785408066E+03  0.00000000000E+00 0. -1.
         21   -1    0    0  503  502 -0.00000000000E+00 -0.00000000000E+00 -0.12435773553E+03  0.12435773553E+03  0.00000000000E+00 0.  1.
         21    1    1    2  503  501  0.10037789312E+03  0.17712099320E+02 -0.95938270505E+02  0.13997711112E+03  0.00000000000E+00 0.  1.
         21    1    1    2  504  502 -0.10037789312E+03 -0.17712099320E+02  0.39943461564E+03  0.41223470506E+03  0.00000000000E+00 0. -1.
<mgrwt>
<rscale>  2 0.10192860E+03</rscale>
<asrwt>0</asrwt>
<pdfrwt beam="1">  1       21 0.65823704E-01 0.10192860E+03</pdfrwt>
<pdfrwt beam="2">  1       21 0.19131960E-01 0.10192860E+03</pdfrwt>
<totfact> 0.55751013E+04</totfact>
</mgrwt>
</event>
<event>
 4    1  0.6024238E+003  0.1183568E+03  0.7546771E-02  0.1245833E+00
         21   -1    0    0  502  501  0.00000000000E+00  0.00000000000E+00  0.59567844446E+03  0.59567844446E+03  0.00000000000E+00 0. -1.
         21   -1    0    0  504  502 -0.00000000000E+00 -0.00000000000E+00 -0.38736803219E+02  0.38736803219E+02  0.00000000000E+00 0.  1.
         21    1    1    2  503  501  0.47670128070E+02  0.10833229430E+03  0.47730546824E+03  0.49176095525E+03  0.00000000000E+00 0. -1.
         21    1    1    2  504  503 -0.47670128070E+02 -0.10833229430E+03  0.79636173003E+02  0.14265429243E+03  0.00000000000E+00 0.  1.
<mgrwt>
<rscale>  2 0.11835678E+03</rscale>
<asrwt>0</asrwt>
<pdfrwt beam="1">  1       21 0.91642831E-01 0.11835678E+03</pdfrwt>
<pdfrwt beam="2">  1       21 0.59595086E-02 0.11835678E+03</pdfrwt>
<totfact> 0.20561207E+05</totfact>
</mgrwt>
</event>
<event>
 4    1  0.6024238E+003  0.1054757E+03  0.7546771E-02  0.1269185E+00
         21   -1    0    0  502  501  0.00000000000E+00  0.00000000000E+00  0.18168694941E+02  0.18168694941E+02  0.00000000000E+00 0. -1.
         21   -1    0    0  504  502 -0.00000000000E+00 -0.00000000000E+00 -0.15262782340E+04  0.15262782340E+04  0.00000000000E+00 0. -1.
         21    1    1    2  503  501  0.10484545103E+03 -0.11513183642E+02 -0.15648524487E+03  0.18871341728E+03  0.00000000000E+00 0. -1.
         21    1    1    2  504  503 -0.10484545103E+03  0.11513183642E+02 -0.13516242942E+04  0.13557335117E+04  0.00000000000E+00 0. -1.
<mgrwt>
<rscale>  2 0.10547569E+03</rscale>
<asrwt>0</asrwt>
<pdfrwt beam="1">  1       21 0.27951831E-02 0.10547569E+03</pdfrwt>
<pdfrwt beam="2">  1       21 0.23481210E+00 0.10547569E+03</pdfrwt>
<totfact> 0.62655724E+04</totfact>
</mgrwt>
</event>
<event>
 4    1  0.6024238E+003  0.1104825E+03  0.7546771E-02  0.1259679E+00
         21   -1    0    0  503  501  0.00000000000E+00  0.00000000000E+00  0.88626114332E+03  0.88626114332E+03  0.00000000000E+00 0.  1.
         21   -1    0    0  504  502 -0.00000000000E+00 -0.00000000000E+00 -0.14373810713E+02  0.14373810713E+02  0.00000000000E+00 0. -1.
         21    1    1    2  503  502  0.10265139556E+03 -0.40854293929E+02  0.52801816171E+03  0.53945302060E+03  0.00000000000E+00 0.  1.
         21    1    1    2  504  501 -0.10265139556E+03  0.40854293929E+02  0.34386917090E+03  0.36118193344E+03  0.00000000000E+00 0. -1.
<mgrwt>
<rscale>  2 0.11048250E+03</rscale>
<asrwt>0</asrwt>
<pdfrwt beam="1">  1       21 0.13634783E+00 0.11048250E+03</pdfrwt>
<pdfrwt beam="2">  1       21 0.22113562E-02 0.11048250E+03</pdfrwt>
<totfact> 0.40919015E+05</totfact>
</mgrwt>
</event>
<event>
 4    1  0.6024238E+003  0.1003994E+03  0.7546771E-02  0.1279458E+00
         21   -1    0    0  504  501  0.00000000000E+00  0.00000000000E+00  0.42477970753E+03  0.42477970753E+03  0.00000000000E+00 0.  1.
         21   -1    0    0  503  502 -0.00000000000E+00 -0.00000000000E+00 -0.24218253375E+02  0.24218253375E+02  0.00000000000E+00 0.  1.
         21    1    1    2  503  501 -0.57994938301E+02 -0.81955058705E+02  0.16840629195E+03  0.19606306048E+03  0.00000000000E+00 0.  1.
         21    1    1    2  504  502  0.57994938301E+02  0.81955058705E+02  0.23215516220E+03  0.25293490043E+03  0.00000000000E+00 0.  1.
<mgrwt>
<rscale>  2 0.10039942E+03</rscale>
<asrwt>0</asrwt>
<pdfrwt beam="1">  1       21 0.65350719E-01 0.10039942E+03</pdfrwt>
<pdfrwt beam="2">  1       21 0.37258855E-02 0.10039942E+03</pdfrwt>
<totfact> 0.95248283E+05</totfact>
</mgrwt>
</event>
<event>
 4    1  0.6024238E+003  0.1434174E+03  0.7546771E-02  0.1208803E+00
         21   -1    0    0  503  501  0.00000000000E+00  0.00000000000E+00  0.23704289823E+03  0.23704289823E+03  0.00000000000E+00 0. -1.
         21   -1    0    0  501  502 -0.00000000000E+00 -0.00000000000E+00 -0.87407799422E+02  0.87407799422E+02  0.00000000000E+00 0. -1.
         21    1    1    2  503  504  0.10746023128E+03 -0.94978213776E+02  0.88659019746E+02  0.16860896827E+03  0.00000000000E+00 0. -1.
         21    1    1    2  504  502 -0.10746023128E+03  0.94978213776E+02  0.60976079058E+02  0.15584172938E+03  0.00000000000E+00 0. -1.
<mgrwt>
<rscale>  2 0.14341744E+03</rscale>
<asrwt>0</asrwt>
<pdfrwt beam="1">  1       21 0.36468138E-01 0.14341744E+03</pdfrwt>
<pdfrwt beam="2">  1       21 0.13447354E-01 0.14341744E+03</pdfrwt>
<totfact> 0.35012505E+05</totfact>
</mgrwt>
</event>
<event>
 4    1  0.6024238E+003  0.1054711E+03  0.7546771E-02  0.1269194E+00
         21   -1    0    0  503  501  0.00000000000E+00  0.00000000000E+00  0.13328275799E+03  0.13328275799E+03  0.00000000000E+00 0. -1.
         21   -1    0    0  504  502 -0.00000000000E+00 -0.00000000000E+00 -0.11349590725E+03  0.11349590725E+03  0.00000000000E+00 0. -1.
         21    1    1    2  503  502  0.91543885080E+02  0.52381863544E+02 -0.53579449882E+02  0.11830004215E+03  0.00000000000E+00 0. -1.
         21    1    1    2  504  501 -0.91543885080E+02 -0.52381863544E+02  0.73366300619E+02  0.12847862309E+03  0.00000000000E+00 0. -1.
<mgrwt>
<rscale>  2 0.10547105E+03</rscale>
<asrwt>0</asrwt>
<pdfrwt beam="1">  1       21 0.20505040E-01 0.10547105E+03</pdfrwt>
<pdfrwt beam="2">  1       21 0.17460909E-01 0.10547105E+03</pdfrwt>
<totfact> 0.65760140E+05</totfact>
</mgrwt>
</event>
<event>
 4    1  0.6024238E+003  0.1585388E+03  0.7546771E-02  0.1190356E+00
         21   -1    0    0  503  501  0.00000000000E+00  0.00000000000E+00  0.19037624186E+03  0.19037624186E+03  0.00000000000E+00 0.  1.
         21   -1    0    0  501  502 -0.00000000000E+00 -0.00000000000E+00 -0.13965681530E+03  0.13965681530E+03  0.00000000000E+00 0. -1.
         21    1    1    2  503  504 -0.62831247979E+02 -0.14555686528E+03  0.63933197463E+02  0.17094449535E+03  0.00000000000E+00 0.  1.
         21    1    1    2  504  502  0.62831247979E+02  0.14555686528E+03 -0.13213770903E+02  0.15908856180E+03  0.00000000000E+00 0. -1.
<mgrwt>
<rscale>  2 0.15853885E+03</rscale>
<asrwt>0</asrwt>
<pdfrwt beam="1">  1       21 0.29288652E-01 0.15853885E+03</pdfrwt>
<pdfrwt beam="2">  1       21 0.21485664E-01 0.15853885E+03</pdfrwt>
<totfact> 0.22746962E+05</totfact>
</mgrwt>
</event>
<event>
 4    1  0.6024238E+003  0.1429458E+03  0.7546771E-02  0.1209419E+00
         21   -1    0    0  503  501  0.00000000000E+00  0.00000000000E+00  0.61508677730E+03  0.61508677730E+03  0.00000000000E+00 0. -1.
         21   -1    0    0  504  502 -0.00000000000E+00 -0.00000000000E+00 -0.12445365066E+03  0.12445365066E+03  0.00000000000E+00 0. -1.
         21    1    1    2  503  502 -0.11207692225E+02 -0.14250577174E+03 -0.71278672249E+02  0.15973151368E+03  0.00000000000E+00 0. -1.
         21    1    1    2  504  501  0.11207692225E+02  0.14250577174E+03  0.56191179889E+03  0.57980891428E+03  0.00000000000E+00 0. -1.
<mgrwt>
<rscale>  2 0.14294582E+03</rscale>
<asrwt>0</asrwt>
<pdfrwt beam="1">  1       21 0.94628733E-01 0.14294582E+03</pdfrwt>
<pdfrwt beam="2">  1       21 0.19146716E-01 0.14294582E+03</pdfrwt>
<totfact> 0.24145576E+04</totfact>
</mgrwt>
</event>
<event>
 4    1  0.6024238E+003  0.1169852E+03  0.7546771E-02  0.1248155E+00
         21   -1    0    0  502  501  0.00000000000E+00  0.00000000000E+00  0.21229259984E+03  0.21229259984E+03  0.00000000000E+00 0. -1.
         21   -1    0    0  504  502 -0.00000000000E+00 -0.00000000000E+00 -0.78118023331E+02  0.78118023331E+02  0.00000000000E+00 0.  1.
         21    1    1    2  503  501  0.54355601341E+02  0.10359058999E+03  0.12779080589E+03  0.17325135440E+03  0.00000000000E+00 0. -1.
         21    1    1    2  504  503 -0.54355601341E+02 -0.10359058999E+03  0.63837706237E+01  0.11715926877E+03  0.00000000000E+00 0.  1.
<mgrwt>
<rscale>  2 0.11698522E+03</rscale>
<asrwt>0</asrwt>
<pdfrwt beam="1">  1       21 0.32660400E-01 0.11698522E+03</pdfrwt>
<pdfrwt beam="2">  1       21 0.12018158E-01 0.11698522E+03</pdfrwt>
<totfact> 0.53238500E+05</totfact>
</mgrwt>
</event>
<event>
 4    1  0.6024238E+003  0.1555927E+03  0.7546771E-02  0.1193764E+00
         21   -1    0    0  503  501  0.00000000000E+00  0.00000000000E+00  0.10160205545E+04  0.10160205545E+04  0.00000000000E+00 0.  1.
         21   -1    0    0  504  502 -0.00000000000E+00 -0.00000000000E+00 -0.77724348418E+02  0.77724348418E+02  0.00000000000E+00 0.  1.
         21    1    1    2  503  502 -0.12621631984E+03 -0.90986460043E+02  0.13751569879E+02  0.15619923489E+03  0.00000000000E+00 0.  1.
         21    1    1    2  504  501  0.12621631984E+03  0.90986460043E+02  0.92454463624E+03  0.93754566807E+03  0.00000000000E+00 0.  1.
<mgrwt>
<rscale>  2 0.15559272E+03</rscale>
<asrwt>0</asrwt>
<pdfrwt beam="1">  1       21 0.15631084E+00 0.15559272E+03</pdfrwt>
<pdfrwt beam="2">  1       21 0.11957593E-01 0.15559272E+03</pdfrwt>
<totfact> 0.16272319E+04</totfact>
</mgrwt>
</event>
<event>
 4    1  0.6024238E+003  0.1139851E+03  0.7546771E-02  0.1253363E+00
         21   -1    0    0  502  501  0.00000000000E+00  0.00000000000E+00  0.18322024973E+04  0.18322024973E+04  0.00000000000E+00 0.  1.
         21   -1    0    0  504  502 -0.00000000000E+00 -0.00000000000E+00 -0.34795979734E+02  0.34795979734E+02  0.00000000000E+00 0.  1.
         21    1    1    2  503  501 -0.11013723476E+03 -0.29366419024E+02  0.17316676395E+04  0.17354150543E+04  0.00000000000E+00 0.  1.
         21    1    1    2  504  503  0.11013723476E+03  0.29366419024E+02  0.65738878083E+02  0.13158342274E+03  0.00000000000E+00 0.  1.
<mgrwt>
<rscale>  2 0.11398507E+03</rscale>
<asrwt>0</asrwt>
<pdfrwt beam="1">  1       21 0.28187723E+00 0.11398507E+03</pdfrwt>
<pdfrwt beam="2">  1       21 0.53532291E-02 0.11398507E+03</pdfrwt>
<totfact> 0.11472770E+04</totfact>
</mgrwt>
</event>
<event>
 4    1  0.6024238E+003  0.1179547E+03  0.7546771E-02  0.1246510E+00
         21   -1    0    0  504  501  0.00000000000E+00  0.00000000000E+00  0.11815253594E+03  0.11815253594E+03  0.00000000000E+00 0.  1.
         21   -1    0    0  503  502 -0.00000000000E+00 -0.00000000000E+00 -0.12230431609E+03  0.12230431609E+03  0.00000000000E+00 0.  1.
         21    1    1    2  503  501  0.45738298731E+02 -0.10872593122E+03  0.21106112124E+02  0.11982816054E+03  0.00000000000E+00 0.  1.
         21    1    1    2  504  502 -0.45738298731E+02  0.10872593122E+03 -0.25257892271E+02  0.12062869149E+03  0.00000000000E+00 0.  1.
<mgrwt>
<rscale>  2 0.11795474E+03</rscale>
<asrwt>0</asrwt>
<pdfrwt beam="1">  1       21 0.18177313E-01 0.11795474E+03</pdfrwt>
<pdfrwt beam="2">  1       21 0.18816048E-01 0.11795474E+03</pdfrwt>
<totfact> 0.71599459E+05</totfact>
</mgrwt>
</event>
<event>
 4    1  0.6024238E+003  0.1472341E+03  0.7546771E-02  0.1203913E+00
         21   -1    0    0  503  501  0.00000000000E+00  0.00000000000E+00  0.22662107171E+03  0.22662107171E+03  0.00000000000E+00 0.  1.
         21   -1    0    0  504  502 -0.00000000000E+00 -0.00000000000E+00 -0.25649693339E+03  0.25649693339E+03  0.00000000000E+00 0. -1.
         21    1    1    2  503  502  0.37921292982E+01 -0.14718530356E+03  0.17634625623E+03  0.22973005009E+03  0.00000000000E+00 0.  1.
         21    1    1    2  504  501 -0.37921292982E+01  0.14718530356E+03 -0.20622211791E+03  0.25338795501E+03  0.00000000000E+00 0. -1.
<mgrwt>
<rscale>  2 0.14723415E+03</rscale>
<asrwt>0</asrwt>
<pdfrwt beam="1">  1       21 0.34864780E-01 0.14723415E+03</pdfrwt>
<pdfrwt beam="2">  1       21 0.39461067E-01 0.14723415E+03</pdfrwt>
<totfact> 0.50192820E+04</totfact>
</mgrwt>
</event>
<event>
 4    1  0.6024238E+003  0.1042287E+03  0.7546771E-02  0.1271647E+00
         21   -1    0    0  504  501  0.00000000000E+00  0.00000000000E+00  0.58054635800E+02  0.58054635800E+02  0.00000000000E+00 0.  1.
         21   -1    0    0  501  502 -0.00000000000E+00 -0.00000000000E+00 -0.31980804574E+03  0.31980804574E+03  0.00000000000E+00 0.  1.
         21    1    1    2  503  502  0.18815129207E+02 -0.10251638860E+03 -0.25256895862E+03  0.27323011891E+03  0.00000000000E+00 0.  1.
         21    1    1    2  504  503 -0.18815129207E+02  0.10251638860E+03 -0.91844513207E+01  0.10463256264E+03  0.00000000000E+00 0.  1.
<mgrwt>
<rscale>  2 0.10422869E+03</rscale>
<asrwt>0</asrwt>
<pdfrwt beam="1">  1       21 0.89314823E-02 0.10422869E+03</pdfrwt>
<pdfrwt beam="2">  1       21 0.49201238E-01 0.10422869E+03</pdfrwt>
<totfact> 0.39569990E+05</totfact>
</mgrwt>
</event>
<event>
 4    1  0.6024238E+003  0.1399198E+03  0.7546771E-02  0.1213437E+00
         21   -1    0    0  503  501  0.00000000000E+00  0.00000000000E+00  0.16356919247E+02  0.16356919247E+02  0.00000000000E+00 0.  1.
         21   -1    0    0  501  502 -0.00000000000E+00 -0.00000000000E+00 -0.14953869304E+04  0.14953869304E+04  0.00000000000E+00 0.  1.
         21    1    1    2  503  504 -0.64268452504E+02  0.12428638009E+03 -0.40181063523E+03  0.42547541039E+03  0.00000000000E+00 0.  1.
         21    1    1    2  504  502  0.64268452504E+02 -0.12428638009E+03 -0.10772193760E+04  0.10862684393E+04  0.00000000000E+00 0.  1.
<mgrwt>
<rscale>  2 0.13991976E+03</rscale>
<asrwt>0</asrwt>
<pdfrwt beam="1">  1       21 0.25164495E-02 0.13991976E+03</pdfrwt>
<pdfrwt beam="2">  1       21 0.23005949E+00 0.13991976E+03</pdfrwt>
<totfact> 0.76759544E+04</totfact>
</mgrwt>
</event>
<event>
 4    1  0.6024238E+003  0.1844560E+03  0.7546771E-02  0.1163559E+00
         21   -1    0    0  503  501  0.00000000000E+00  0.00000000000E+00  0.15294762161E+03  0.15294762161E+03  0.00000000000E+00 0. -1.
         21   -1    0    0  504  502 -0.00000000000E+00 -0.00000000000E+00 -0.53746013307E+03  0.53746013307E+03  0.00000000000E+00 0. -1.
         21    1    1    2  503  502 -0.18434316517E+03 -0.64522163941E+01 -0.45653427013E+03  0.49238965610E+03  0.00000000000E+00 0. -1.
         21    1    1    2  504  501  0.18434316517E+03  0.64522163941E+01  0.72021758668E+02  0.19801809857E+03  0.00000000000E+00 0. -1.
<mgrwt>
<rscale>  2 0.18445605E+03</rscale>
<asrwt>0</asrwt>
<pdfrwt beam="1">  1       21 0.23530403E-01 0.18445605E+03</pdfrwt>
<pdfrwt beam="2">  1       21 0.82686174E-01 0.18445605E+03</pdfrwt>
<totfact> 0.21796795E+04</totfact>
</mgrwt>
</event>
<event>
 4    1  0.6024238E+003  0.1077183E+03  0.7546771E-02  0.1264855E+00
         21   -1    0    0  503  501  0.00000000000E+00  0.00000000000E+00  0.23019886403E+03  0.23019886403E+03  0.00000000000E+00 0.  1.
         21   -1    0    0  501  502 -0.00000000000E+00 -0.00000000000E+00 -0.61865205362E+02  0.61865205362E+02  0.00000000000E+00 0. -1.
         21    1    1    2  503  504 -0.10016041886E+03 -0.39637282775E+02  0.14701852448E+03  0.18225715414E+03  0.00000000000E+00 0.  1.
         21    1    1    2  504  502  0.10016041886E+03  0.39637282775E+02  0.21315134187E+02  0.10980691526E+03  0.00000000000E+00 0. -1.
<mgrwt>
<rscale>  2 0.10771826E+03</rscale>
<asrwt>0</asrwt>
<pdfrwt beam="1">  1       21 0.35415210E-01 0.10771826E+03</pdfrwt>
<pdfrwt beam="2">  1       21 0.95177240E-02 0.10771826E+03</pdfrwt>
<totfact> 0.68410938E+05</totfact>
</mgrwt>
</event>
<event>
 4    1  0.6024238E+003  0.1348751E+03  0.7546771E-02  0.1220396E+00
         21   -1    0    0  504  501  0.00000000000E+00  0.00000000000E+00  0.96754838119E+02  0.96754838119E+02  0.00000000000E+00 0.  1.
         21   -1    0    0  503  502 -0.00000000000E+00 -0.00000000000E+00 -0.22183942689E+03  0.22183942689E+03  0.00000000000E+00 0. -1.
         21    1    1    2  503  501  0.13378639846E+03  0.17102201604E+02 -0.12474493223E+03  0.18371876287E+03  0.00000000000E+00 0. -1.
         21    1    1    2  504  502 -0.13378639846E+03 -0.17102201604E+02 -0.33965653842E+00  0.13487550214E+03  0.00000000000E+00 0.  1.
<mgrwt>
<rscale>  2 0.13487507E+03</rscale>
<asrwt>0</asrwt>
<pdfrwt beam="1">  1       21 0.14885360E-01 0.13487507E+03</pdfrwt>
<pdfrwt beam="2">  1       21 0.34129142E-01 0.13487507E+03</pdfrwt>
<totfact> 0.33282206E+05</totfact>
</mgrwt>
</event>
<event>
 4    1  0.6024238E+003  0.1278993E+03  0.7546771E-02  0.1230606E+00
         21   -1    0    0  503  501  0.00000000000E+00  0.00000000000E+00  0.40057943248E+03  0.40057943248E+03  0.00000000000E+00 0. -1.
         21   -1    0    0  504  502 -0.00000000000E+00 -0.00000000000E+00 -0.45611070046E+02  0.45611070046E+02  0.00000000000E+00 0. -1.
         21    1    1    2  503  502  0.68808468133E+02 -0.10781293080E+03  0.24966562824E+03  0.28051944542E+03  0.00000000000E+00 0. -1.
         21    1    1    2  504  501 -0.68808468133E+02  0.10781293080E+03  0.10530273419E+03  0.16567105711E+03  0.00000000000E+00 0. -1.
<mgrwt>
<rscale>  2 0.12789931E+03</rscale>
<asrwt>0</asrwt>
<pdfrwt beam="1">  1       21 0.61627603E-01 0.12789931E+03</pdfrwt>
<pdfrwt beam="2">  1       21 0.70170880E-02 0.12789931E+03</pdfrwt>
<totfact> 0.37302833E+05</totfact>
</mgrwt>
</event>
<event>
 4    1  0.6024238E+003  0.1151750E+03  0.7546771E-02  0.1251276E+00
         21   -1    0    0  504  501  0.00000000000E+00  0.00000000000E+00  0.36174214884E+03  0.36174214884E+03  0.00000000000E+00 0. -1.
         21   -1    0    0  503  502 -0.00000000000E+00 -0.00000000000E+00 -0.36902009843E+02  0.36902009843E+02  0.00000000000E+00 0. -1.
         21    1    1    2  503  501  0.19604565676E+02 -0.11349419007E+03  0.14663294897E+03  0.18645774830E+03  0.00000000000E+00 0. -1.
         21    1    1    2  504  502 -0.19604565676E+02  0.11349419007E+03  0.17820719002E+03  0.21218641038E+03  0.00000000000E+00 0. -1.
<mgrwt>
<rscale>  2 0.11517495E+03</rscale>
<asrwt>0</asrwt>
<pdfrwt beam="1">  1       21 0.55652636E-01 0.11517495E+03</pdfrwt>
<pdfrwt beam="2">  1       21 0.56772325E-02 0.11517495E+03</pdfrwt>
<totfact> 0.66377800E+05</totfact>
</mgrwt>
</event>
<event>
 4    1  0.6024238E+003  0.1641226E+03  0.7546771E-02  0.1184119E+00
         21   -1    0    0  504  501  0.00000000000E+00  0.00000000000E+00  0.20929179347E+03  0.20929179347E+03  0.00000000000E+00 0. -1.
         21   -1    0    0  503  502 -0.00000000000E+00 -0.00000000000E+00 -0.13815020475E+03  0.13815020475E+03  0.00000000000E+00 0. -1.
         21    1    1    2  503  501 -0.13750824747E+03  0.89597568485E+02  0.81002024314E+02  0.18302341474E+03  0.00000000000E+00 0. -1.
         21    1    1    2  504  502  0.13750824747E+03 -0.89597568485E+02 -0.98604355851E+01  0.16441858347E+03  0.00000000000E+00 0. -1.
<mgrwt>
<rscale>  2 0.16412264E+03</rscale>
<asrwt>0</asrwt>
<pdfrwt beam="1">  1       21 0.32198737E-01 0.16412264E+03</pdfrwt>
<pdfrwt beam="2">  1       21 0.21253878E-01 0.16412264E+03</pdfrwt>
<totfact> 0.19275434E+05</totfact>
</mgrwt>
</event>
<event>
 4    1  0.6024238E+003  0.1124951E+03  0.7546771E-02  0.1256018E+00
         21   -1    0    0  504  501  0.00000000000E+00  0.00000000000E+00  0.58968574914E+03  0.58968574914E+03  0.00000000000E+00 0.  1.
         21   -1    0    0  503  502 -0.00000000000E+00 -0.00000000000E+00 -0.21462532028E+02  0.21462532028E+02  0.00000000000E+00 0.  1.
         21    1    1    2  503  501  0.79971369352E+02 -0.79118445705E+02  0.28139414657E+03  0.30304754428E+03  0.00000000000E+00 0.  1.
         21    1    1    2  504  502 -0.79971369352E+02  0.79118445705E+02  0.28682907054E+03  0.30810073689E+03  0.00000000000E+00 0.  1.
<mgrwt>
<rscale>  2 0.11249510E+03</rscale>
<asrwt>0</asrwt>
<pdfrwt beam="1">  1       21 0.90720872E-01 0.11249510E+03</pdfrwt>
<pdfrwt beam="2">  1       21 0.33019285E-02 0.11249510E+03</pdfrwt>
<totfact> 0.56325555E+05</totfact>
</mgrwt>
</event>
<event>
 4    1  0.6024238E+003  0.1282490E+03  0.7546771E-02  0.1230077E+00
         21   -1    0    0  504  501  0.00000000000E+00  0.00000000000E+00  0.17414634555E+04  0.17414634555E+04  0.00000000000E+00 0. -1.
         21   -1    0    0  503  502 -0.00000000000E+00 -0.00000000000E+00 -0.13696913205E+02  0.13696913205E+02  0.00000000000E+00 0.  1.
         21    1    1    2  503  501 -0.12659224511E+03  0.20547599447E+02  0.13528475059E+04  0.13589128650E+04  0.00000000000E+00 0. -1.
         21    1    1    2  504  502  0.12659224511E+03 -0.20547599447E+02  0.37491903639E+03  0.39624750373E+03  0.00000000000E+00 0.  1.
<mgrwt>
<rscale>  2 0.12824898E+03</rscale>
<asrwt>0</asrwt>
<pdfrwt beam="1">  1       21 0.26791728E+00 0.12824898E+03</pdfrwt>
<pdfrwt beam="2">  1       21 0.21072188E-02 0.12824898E+03</pdfrwt>
<totfact> 0.62593409E+04</totfact>
</mgrwt>
</event>
<event>
 4    1  0.6024238E+003  0.1091490E+03  0.7546771E-02  0.1262154E+00
         21   -1    0    0  504  501  0.00000000000E+00  0.00000000000E+00  0.48678830837E+02  0.48678830837E+02  0.00000000000E+00 0. -1.
         21   -1    0    0  501  502 -0.00000000000E+00 -0.00000000000E+00 -0.56582168679E+03  0.56582168679E+03  0.00000000000E+00 0.  1.
         21    1    1    2  503  502 -0.89856023277E+02  0.61962959463E+02 -0.49002411579E+03  0.50203301417E+03  0.00000000000E+00 0.  1.
         21    1    1    2  504  503  0.89856023277E+02 -0.61962959463E+02 -0.27118740161E+02  0.11246750345E+03  0.00000000000E+00 0. -1.
<mgrwt>
<rscale>  2 0.10914904E+03</rscale>
<asrwt>0</asrwt>
<pdfrwt beam="1">  1       21 0.74890510E-02 0.10914904E+03</pdfrwt>
<pdfrwt beam="2">  1       21 0.87049490E-01 0.10914904E+03</pdfrwt>
<totfact> 0.15722328E+05</totfact>
</mgrwt>
</event>
<event>
 4    1  0.6024238E+003  0.1168471E+03  0.7546771E-02  0.1248391E+00
         21   -1    0    0  504  501  0.00000000000E+00  0.00000000000E+00  0.40043833293E+03  0.40043833293E+03  0.00000000000E+00 0.  1.
         21   -1    0    0  501  502 -0.00000000000E+00 -0.00000000000E+00 -0.14883514415E+03  0.14883514415E+03  0.00000000000E+00 0. -1.
         21    1    1    2  503  502 -0.92000444153E+02  0.72035849787E+02 -0.11533446671E+03  0.16418064621E+03  0.00000000000E+00 0. -1.
         21    1    1    2  504  503  0.92000444153E+02 -0.72035849787E+02  0.36693765549E+03  0.38509283088E+03  0.00000000000E+00 0.  1.
<mgrwt>
<rscale>  2 0.11684710E+03</rscale>
<asrwt>0</asrwt>
<pdfrwt beam="1">  1       21 0.61605897E-01 0.11684710E+03</pdfrwt>
<pdfrwt beam="2">  1       21 0.22897715E-01 0.11684710E+03</pdfrwt>
<totfact> 0.45626575E+04</totfact>
</mgrwt>
</event>
<event>
 4    1  0.6024238E+003  0.1083486E+03  0.7546771E-02  0.1263659E+00
         21   -1    0    0  503  501  0.00000000000E+00  0.00000000000E+00  0.34199538824E+02  0.34199538824E+02  0.00000000000E+00 0. -1.
         21   -1    0    0  504  502 -0.00000000000E+00 -0.00000000000E+00 -0.35949456660E+03  0.35949456660E+03  0.00000000000E+00 0. -1.
         21    1    1    2  503  502 -0.74682755944E+00 -0.10834601293E+03 -0.20447587073E+03  0.23140829281E+03  0.00000000000E+00 0. -1.
         21    1    1    2  504  501  0.74682755944E+00  0.10834601293E+03 -0.12081915704E+03  0.16228581262E+03  0.00000000000E+00 0. -1.
<mgrwt>
<rscale>  2 0.10834859E+03</rscale>
<asrwt>0</asrwt>
<pdfrwt beam="1">  1       21 0.52614674E-02 0.10834859E+03</pdfrwt>
<pdfrwt beam="2">  1       21 0.55306857E-01 0.10834859E+03</pdfrwt>
<totfact> 0.76420425E+05</totfact>
</mgrwt>
</event>
<event>
 4    1  0.6024238E+003  0.1919834E+03  0.7546771E-02  0.1156684E+00
         21   -1    0    0  503  501  0.00000000000E+00  0.00000000000E+00  0.15008714626E+04  0.15008714626E+04  0.00000000000E+00 0.  1.
         21   -1    0    0  504  502 -0.00000000000E+00 -0.00000000000E+00 -0.72247420953E+02  0.72247420953E+02  0.00000000000E+00 0. -1.
         21    1    1    2  503  502 -0.34350872808E+02 -0.18888530329E+03  0.75263685182E+02  0.20620926887E+03  0.00000000000E+00 0. -1.
         21    1    1    2  504  501  0.34350872808E+02  0.18888530329E+03  0.13533603565E+04  0.13669096147E+04  0.00000000000E+00 0.  1.
<mgrwt>
<rscale>  2 0.19198344E+03</rscale>
<asrwt>0</asrwt>
<pdfrwt beam="1">  1       21 0.23090328E+00 0.19198344E+03</pdfrwt>
<pdfrwt beam="2">  1       21 0.11114989E-01 0.19198344E+03</pdfrwt>
<totfact> 0.58142247E+03</totfact>
</mgrwt>
</event>
<event>
 4    1  0.6024238E+003  0.1161874E+03  0.7546771E-02  0.1249523E+00
         21   -1    0    0  503  501  0.00000000000E+00  0.00000000000E+00  0.96640395864E+02  0.96640395864E+02  0.00000000000E+00 0.  1.
         21   -1    0    0  504  502 -0.00000000000E+00 -0.00000000000E+00 -0.86456078919E+03  0.86456078919E+03  0.00000000000E+00 0.  1.
         21    1    1    2  503  502 -0.11612083016E+03 -0.39318589934E+01 -0.82402579914E+03  0.83217667857E+03  0.00000000000E+00 0.  1.
         21    1    1    2  504  501  0.11612083016E+03  0.39318589934E+01  0.56105405811E+02  0.12902450648E+03  0.00000000000E+00 0.  1.
<mgrwt>
<rscale>  2 0.11618738E+03</rscale>
<asrwt>0</asrwt>
<pdfrwt beam="1">  1       21 0.14867753E-01 0.11618738E+03</pdfrwt>
<pdfrwt beam="2">  1       21 0.13300935E+00 0.11618738E+03</pdfrwt>
<totfact> 0.17247827E+04</totfact>
</mgrwt>
</event>
<event>
 4    1  0.6024238E+003  0.1713196E+03  0.7546771E-02  0.1176479E+00
         21   -1    0    0  503  501  0.00000000000E+00  0.00000000000E+00  0.54403854172E+02  0.54403854172E+02  0.00000000000E+00 0. -1.
         21   -1    0    0  501  502 -0.00000000000E+00 -0.00000000000E+00 -0.74909413117E+03  0.74909413117E+03  0.00000000000E+00 0. -1.
         21    1    1    2  503  504  0.96949890052E+02 -0.14124842077E+03 -0.13483222148E+03  0.21801404886E+03  0.00000000000E+00 0. -1.
         21    1    1    2  504  502 -0.96949890052E+02  0.14124842077E+03 -0.55985805552E+03  0.58548393649E+03  0.00000000000E+00 0. -1.
<mgrwt>
<rscale>  2 0.17131958E+03</rscale>
<asrwt>0</asrwt>
<pdfrwt beam="1">  1       21 0.83698239E-02 0.17131958E+03</pdfrwt>
<pdfrwt beam="2">  1       21 0.11524525E+00 0.17131958E+03</pdfrwt>
<totfact> 0.65365307E+04</totfact>
</mgrwt>
</event>
<event>
 4    1  0.6024238E+003  0.1119119E+03  0.7546771E-02  0.1257070E+00
         21   -1    0    0  503  501  0.00000000000E+00  0.00000000000E+00  0.12197177479E+03  0.12197177479E+03  0.00000000000E+00 0. -1.
         21   -1    0    0  501  502 -0.00000000000E+00 -0.00000000000E+00 -0.29024651103E+03  0.29024651103E+03  0.00000000000E+00 0. -1.
         21    1    1    2  503  504  0.74252813974E+02 -0.83730527422E+02  0.81549968724E+02  0.13847266519E+03  0.00000000000E+00 0. -1.
         21    1    1    2  504  502 -0.74252813974E+02  0.83730527422E+02 -0.24982470497E+03  0.27374562064E+03  0.00000000000E+00 0. -1.
<mgrwt>
<rscale>  2 0.11191194E+03</rscale>
<asrwt>0</asrwt>
<pdfrwt beam="1">  1       21 0.18764889E-01 0.11191194E+03</pdfrwt>
<pdfrwt beam="2">  1       21 0.44653309E-01 0.11191194E+03</pdfrwt>
<totfact> 0.12876872E+05</totfact>
</mgrwt>
</event>
<event>
 4    1  0.6024238E+003  0.1057100E+03  0.7546771E-02  0.1268727E+00
         21   -1    0    0  502  501  0.00000000000E+00  0.00000000000E+00  0.43795962878E+02  0.43795962878E+02  0.00000000000E+00 0.  1.
         21   -1    0    0  503  502 -0.00000000000E+00 -0.00000000000E+00 -0.33740856622E+03  0.33740856622E+03  0.00000000000E+00 0.  1.
         21    1    1    2  503  504 -0.10104313164E+03 -0.31062796833E+02 -0.24091640271E+03  0.26308805540E+03  0.00000000000E+00 0.  1.
         21    1    1    2  504  501  0.10104313164E+03  0.31062796833E+02 -0.52696200635E+02  0.11811647370E+03  0.00000000000E+00 0.  1.
<mgrwt>
<rscale>  2 0.10571004E+03</rscale>
<asrwt>0</asrwt>
<pdfrwt beam="1">  1       21 0.67378404E-02 0.10571004E+03</pdfrwt>
<pdfrwt beam="2">  1       21 0.51909010E-01 0.10571004E+03</pdfrwt>
<totfact> 0.57421624E+05</totfact>
</mgrwt>
</event>
<event>
 4    1  0.6024238E+003  0.1176043E+03  0.7546771E-02  0.1247102E+00
         21   -1    0    0  504  501  0.00000000000E+00  0.00000000000E+00  0.24281907578E+03  0.24281907578E+03  0.00000000000E+00 0. -1.
         21   -1    0    0  503  502 -0.00000000000E+00 -0.00000000000E+00 -0.57487415310E+02  0.57487415310E+02  0.00000000000E+00 0.  1.
         21    1    1    2  503  501  0.13188101686E+00 -0.11760424967E+03  0.78272558461E+02  0.14127055724E+03  0.00000000000E+00 0.  1.
         21    1    1    2  504  502 -0.13188101686E+00  0.11760424967E+03  0.10705910201E+03  0.15903593385E+03  0.00000000000E+00 0. -1.
<mgrwt>
<rscale>  2 0.11760432E+03</rscale>
<asrwt>0</asrwt>
<pdfrwt beam="1">  1       21 0.37356780E-01 0.11760432E+03</pdfrwt>
<pdfrwt beam="2">  1       21 0.88442179E-02 0.11760432E+03</pdfrwt>
<totfact> 0.69956312E+05</totfact>
</mgrwt>
</event>
<event>
 4    1  0.6024238E+003  0.1245537E+03  0.7546771E-02  0.1235768E+00
         21   -1    0    0  502  501  0.00000000000E+00  0.00000000000E+00  0.10140446656E+02  0.10140446656E+02  0.00000000000E+00 0.  1.
         21   -1    0    0  503  502 -0.00000000000E+00 -0.00000000000E+00 -0.15706221666E+04  0.15706221666E+04  0.00000000000E+00 0.  1.
         21    1    1    2  503  504  0.11567650512E+03  0.46179776909E+02 -0.90754553528E+03  0.91605268639E+03  0.00000000000E+00 0.  1.
         21    1    1    2  504  501 -0.11567650512E+03 -0.46179776909E+02 -0.65293618471E+03  0.66470992691E+03  0.00000000000E+00 0.  1.
<mgrwt>
<rscale>  2 0.12455371E+03</rscale>
<asrwt>0</asrwt>
<pdfrwt beam="1">  1       21 0.15600696E-02 0.12455371E+03</pdfrwt>
<pdfrwt beam="2">  1       21 0.24163404E+00 0.12455371E+03</pdfrwt>
<totfact> 0.14385901E+05</totfact>
</mgrwt>
</event>
<event>
 4    1  0.6024238E+003  0.1278842E+03  0.7546771E-02  0.1230629E+00
         21   -1    0    0  502  501  0.00000000000E+00  0.00000000000E+00  0.60911719014E+02  0.60911719014E+02  0.00000000000E+00 0. -1.
         21   -1    0    0  503  502 -0.00000000000E+00 -0.00000000000E+00 -0.12043103237E+04  0.12043103237E+04  0.00000000000E+00 0. -1.
         21    1    1    2  503  504  0.11848234467E+03  0.48127926540E+02 -0.11293511118E+04  0.11365686503E+04  0.00000000000E+00 0. -1.
         21    1    1    2  504  501 -0.11848234467E+03 -0.48127926540E+02 -0.14047492933E+02  0.12865339238E+03  0.00000000000E+00 0. -1.
<mgrwt>
<rscale>  2 0.12788418E+03</rscale>
<asrwt>0</asrwt>
<pdfrwt beam="1">  1       21 0.93710347E-02 0.12788418E+03</pdfrwt>
<pdfrwt beam="2">  1       21 0.18527849E+00 0.12788418E+03</pdfrwt>
<totfact> 0.16122147E+04</totfact>
</mgrwt>
</event>
<event>
 4    1  0.6024238E+003  0.1063594E+03  0.7546771E-02  0.1267464E+00
         21   -1    0    0  502  501  0.00000000000E+00  0.00000000000E+00  0.50211975257E+02  0.50211975257E+02  0.00000000000E+00 0. -1.
         21   -1    0    0  504  502 -0.00000000000E+00 -0.00000000000E+00 -0.17510723653E+04  0.17510723653E+04  0.00000000000E+00 0. -1.
         21    1    1    2  503  501  0.96957374464E+02 -0.43721620914E+02 -0.97199001401E+01  0.10680257046E+03  0.00000000000E+00 0. -1.
         21    1    1    2  504  503 -0.96957374464E+02  0.43721620914E+02 -0.16911404899E+04  0.16944817701E+04  0.00000000000E+00 0. -1.
<mgrwt>
<rscale>  2 0.10635936E+03</rscale>
<asrwt>0</asrwt>
<pdfrwt beam="1">  1       21 0.77249204E-02 0.10635936E+03</pdfrwt>
<pdfrwt beam="2">  1       21 0.26939571E+00 0.10635936E+03</pdfrwt>
<totfact> 0.73252215E+03</totfact>
</mgrwt>
</event>
<event>
 4    1  0.6024238E+003  0.1050590E+03  0.7546771E-02  0.1270003E+00
         21   -1    0    0  504  501  0.00000000000E+00  0.00000000000E+00  0.47975951073E+02  0.47975951073E+02  0.00000000000E+00 0.  1.
         21   -1    0    0  503  502 -0.00000000000E+00 -0.00000000000E+00 -0.23615567404E+03  0.23615567404E+03  0.00000000000E+00 0. -1.
         21    1    1    2  503  501 -0.17030271583E+02 -0.10366949210E+03 -0.71267174658E+02  0.12695039947E+03  0.00000000000E+00 0.  1.
         21    1    1    2  504  502  0.17030271583E+02  0.10366949210E+03 -0.11691254830E+03  0.15718122564E+03  0.00000000000E+00 0. -1.
<mgrwt>
<rscale>  2 0.10505900E+03</rscale>
<asrwt>0</asrwt>
<pdfrwt beam="1">  1       21 0.73809155E-02 0.10505900E+03</pdfrwt>
<pdfrwt beam="2">  1       21 0.36331642E-01 0.10505900E+03</pdfrwt>
<totfact> 0.10075866E+06</totfact>
</mgrwt>
</event>
<event>
 4    1  0.6024238E+003  0.3622312E+03  0.7546771E-02  0.1057704E+00
         21   -1    0    0  503  501  0.00000000000E+00  0.00000000000E+00  0.48838864333E+03  0.48838864333E+03  0.00000000000E+00 0.  1.
         21   -1    0    0  504  502 -0.00000000000E+00 -0.00000000000E+00 -0.26973911502E+03  0.26973911502E+03  0.00000000000E+00 0.  1.
         21    1    1    2  503  502  0.35530164182E+03  0.70513886956E+02  0.85371017813E+02  0.37215544550E+03  0.00000000000E+00 0.  1.
         21    1    1    2  504  501 -0.35530164182E+03 -0.70513886956E+02  0.13327851049E+03  0.38597231285E+03  0.00000000000E+00 0.  1.
<mgrwt>
<rscale>  2 0.36223123E+03</rscale>
<asrwt>0</asrwt>
<pdfrwt beam="1">  1       21 0.75136715E-01 0.36223123E+03</pdfrwt>
<pdfrwt beam="2">  1       21 0.41498325E-01 0.36223123E+03</pdfrwt>
<totfact> 0.80996653E+03</totfact>
</mgrwt>
</event>
<event>
 4    1  0.6024238E+003  0.1375681E+03  0.7546771E-02  0.1216639E+00
         21   -1    0    0  503  501  0.00000000000E+00  0.00000000000E+00  0.16242567572E+04  0.16242567572E+04  0.00000000000E+00 0. -1.
         21   -1    0    0  504  502 -0.00000000000E+00 -0.00000000000E+00 -0.17536318190E+02  0.17536318190E+02  0.00000000000E+00 0.  1.
         21    1    1    2  503  502 -0.99498076749E+02  0.95000643908E+02  0.12788997267E+04  0.12862773809E+04  0.00000000000E+00 0. -1.
         21    1    1    2  504  501  0.99498076749E+02 -0.95000643908E+02  0.32782071230E+03  0.35551569449E+03  0.00000000000E+00 0.  1.
<mgrwt>
<rscale>  2 0.13756813E+03</rscale>
<asrwt>0</asrwt>
<pdfrwt beam="1">  1       21 0.24988554E+00 0.13756813E+03</pdfrwt>
<pdfrwt beam="2">  1       21 0.26978964E-02 0.13756813E+03</pdfrwt>
<totfact> 0.52590475E+04</totfact>
</mgrwt>
</event>
<event>
 4    1  0.6024238E+003  0.1106769E+03  0.7546771E-02  0.1259321E+00
         21   -1    0    0  503  501  0.00000000000E+00  0.00000000000E+00  0.35496247929E+03  0.35496247929E+03  0.00000000000E+00 0. -1.
         21   -1    0    0  504  502 -0.00000000000E+00 -0.00000000000E+00 -0.48341288436E+02  0.48341288436E+02  0.00000000000E+00 0. -1.
         21    1    1    2  503  502 -0.10490612978E+03 -0.35271514792E+02  0.45442932548E+02  0.11964295190E+03  0.00000000000E+00 0. -1.
         21    1    1    2  504  501  0.10490612978E+03  0.35271514792E+02  0.26117825831E+03  0.28366081583E+03  0.00000000000E+00 0. -1.
<mgrwt>
<rscale>  2 0.11067690E+03</rscale>
<asrwt>0</asrwt>
<pdfrwt beam="1">  1       21 0.54609610E-01 0.11067690E+03</pdfrwt>
<pdfrwt beam="2">  1       21 0.74371215E-02 0.11067690E+03</pdfrwt>
<totfact> 0.43673677E+05</totfact>
</mgrwt>
</event>
<event>
 4    1  0.6024238E+003  0.1495346E+03  0.7546771E-02  0.1201046E+00
         21   -1    0    0  503  501  0.00000000000E+00  0.00000000000E+00  0.51455470700E+02  0.51455470700E+02  0.00000000000E+00 0.  1.
         21   -1    0    0  504  502 -0.00000000000E+00 -0.00000000000E+00 -0.49872039958E+03  0.49872039958E+03  0.00000000000E+00 0.  1.
         21    1    1    2  503  502 -0.53747994768E+02 -0.13954119353E+03 -0.32229897724E+03  0.35529877901E+03  0.00000000000E+00 0.  1.
         21    1    1    2  504  501  0.53747994768E+02  0.13954119353E+03 -0.12496595164E+03  0.19487709127E+03  0.00000000000E+00 0.  1.
<mgrwt>
<rscale>  2 0.14953458E+03</rscale>
<asrwt>0</asrwt>
<pdfrwt beam="1">  1       21 0.79162264E-02 0.14953458E+03</pdfrwt>
<pdfrwt beam="2">  1       21 0.76726214E-01 0.14953458E+03</pdfrwt>
<totfact> 0.18718381E+05</totfact>
</mgrwt>
</event>
<event>
 4    1  0.6024238E+003  0.1056373E+03  0.7546771E-02  0.1268869E+00
         21   -1    0    0  503  501  0.00000000000E+00  0.00000000000E+00  0.26238157167E+02  0.26238157167E+02  0.00000000000E+00 0. -1.
         21   -1    0    0  504  502 -0.00000000000E+00 -0.00000000000E+00 -0.52614229591E+03  0.52614229591E+03  0.00000000000E+00 0.  1.
         21    1    1    2  503  502  0.75121517069E+02  0.74269716431E+02 -0.37086316928E+03  0.38561473446E+03  0.00000000000E+00 0.  1.
         21    1    1    2  504  501 -0.75121517069E+02 -0.74269716431E+02 -0.12904096946E+03  0.16676571862E+03  0.00000000000E+00 0. -1.
<mgrwt>
<rscale>  2 0.10563727E+03</rscale>
<asrwt>0</asrwt>
<pdfrwt beam="1">  1       21 0.40366396E-02 0.10563727E+03</pdfrwt>
<pdfrwt beam="2">  1       21 0.80944968E-01 0.10563727E+03</pdfrwt>
<totfact> 0.52333775E+05</totfact>
</mgrwt>
</event>
<event>
 4    1  0.6024238E+003  0.1019577E+03  0.7546771E-02  0.1276232E+00
         21   -1    0    0  502  501  0.00000000000E+00  0.00000000000E+00  0.10891745284E+02  0.10891745284E+02  0.00000000000E+00 0.  1.
         21   -1    0    0  504  502 -0.00000000000E+00 -0.00000000000E+00 -0.13046302032E+04  0.13046302032E+04  0.00000000000E+00 0. -1.
         21    1    1    2  503  501 -0.10106240622E+03  0.13482169509E+02 -0.30608124708E+03  0.32261603906E+03  0.00000000000E+00 0.  1.
         21    1    1    2  504  503  0.10106240622E+03 -0.13482169509E+02 -0.98765721082E+03  0.99290590941E+03  0.00000000000E+00 0. -1.
<mgrwt>
<rscale>  2 0.10195773E+03</rscale>
<asrwt>0</asrwt>
<pdfrwt beam="1">  1       21 0.16756535E-02 0.10195773E+03</pdfrwt>
<pdfrwt beam="2">  1       21 0.20071229E+00 0.10195773E+03</pdfrwt>
<totfact> 0.22877834E+05</totfact>
</mgrwt>
</event>
<event>
 4    1  0.6024238E+003  0.1970630E+03  0.7546771E-02  0.1152241E+00
         21   -1    0    0  503  501  0.00000000000E+00  0.00000000000E+00  0.25986199294E+03  0.25986199294E+03  0.00000000000E+00 0. -1.
         21   -1    0    0  504  502 -0.00000000000E+00 -0.00000000000E+00 -0.15178295028E+03  0.15178295028E+03  0.00000000000E+00 0. -1.
         21    1    1    2  503  502  0.14673250151E+03 -0.13154236808E+03  0.28468584052E+02  0.19910871874E+03  0.00000000000E+00 0. -1.
         21    1    1    2  504  501 -0.14673250151E+03  0.13154236808E+03  0.79610458606E+02  0.21253622449E+03  0.00000000000E+00 0. -1.
<mgrwt>
<rscale>  2 0.19706299E+03</rscale>
<asrwt>0</asrwt>
<pdfrwt beam="1">  1       21 0.39978768E-01 0.19706299E+03</pdfrwt>
<pdfrwt beam="2">  1       21 0.23351223E-01 0.19706299E+03</pdfrwt>
<totfact> 0.10381381E+05</totfact>
</mgrwt>
</event>
<event>
 4    1  0.6024238E+003  0.1374835E+03  0.7546771E-02  0.1216756E+00
         21   -1    0    0  504  501  0.00000000000E+00  0.00000000000E+00  0.58178917562E+03  0.58178917562E+03  0.00000000000E+00 0. -1.
         21   -1    0    0  503  502 -0.00000000000E+00 -0.00000000000E+00 -0.35258930117E+02  0.35258930117E+02  0.00000000000E+00 0. -1.
         21    1    1    2  503  501 -0.12221469417E+03 -0.62970470839E+02  0.18678947272E+03  0.23193106473E+03  0.00000000000E+00 0. -1.
         21    1    1    2  504  502  0.12221469417E+03  0.62970470839E+02  0.35974077279E+03  0.38511704101E+03  0.00000000000E+00 0. -1.
<mgrwt>
<rscale>  2 0.13748350E+03</rscale>
<asrwt>0</asrwt>
<pdfrwt beam="1">  1       21 0.89506020E-01 0.13748350E+03</pdfrwt>
<pdfrwt beam="2">  1       21 0.54244512E-02 0.13748350E+03</pdfrwt>
<totfact> 0.25303958E+05</totfact>
</mgrwt>
</event>
<event>
 4    1  0.6024238E+003  0.2060187E+03  0.7546771E-02  0.1144758E+00
         21   -1    0    0  503  501  0.00000000000E+00  0.00000000000E+00  0.68829921653E+03  0.68829921653E+03  0.00000000000E+00 0. -1.
         21   -1    0    0  504  502 -0.00000000000E+00 -0.00000000000E+00 -0.61666614415E+02  0.61666614415E+02  0.00000000000E+00 0. -1.
         21    1    1    2  503  502  0.53595665332E+02  0.19892514377E+03  0.31118263696E+03  0.37320013627E+03  0.00000000000E+00 0. -1.
         21    1    1    2  504  501 -0.53595665332E+02 -0.19892514377E+03  0.31544996516E+03  0.37676569468E+03  0.00000000000E+00 0. -1.
<mgrwt>
<rscale>  2 0.20601871E+03</rscale>
<asrwt>0</asrwt>
<pdfrwt beam="1">  1       21 0.10589218E+00 0.20601871E+03</pdfrwt>
<pdfrwt beam="2">  1       21 0.94871719E-02 0.20601871E+03</pdfrwt>
<totfact> 0.63328447E+04</totfact>
</mgrwt>
</event>
<event>
 4    1  0.6024238E+003  0.1258184E+03  0.7546771E-02  0.1233796E+00
         21   -1    0    0  502  501  0.00000000000E+00  0.00000000000E+00  0.12000671349E+03  0.12000671349E+03  0.00000000000E+00 0.  1.
         21   -1    0    0  504  502 -0.00000000000E+00 -0.00000000000E+00 -0.53754365330E+03  0.53754365330E+03  0.00000000000E+00 0.  1.
         21    1    1    2  503  501 -0.10557035009E+03  0.68448350188E+02  0.76831595019E+02  0.14742241843E+03  0.00000000000E+00 0.  1.
         21    1    1    2  504  503  0.10557035009E+03 -0.68448350188E+02 -0.49436853483E+03  0.51012794835E+03  0.00000000000E+00 0.  1.
<mgrwt>
<rscale>  2 0.12581842E+03</rscale>
<asrwt>0</asrwt>
<pdfrwt beam="1">  1       21 0.18462571E-01 0.12581842E+03</pdfrwt>
<pdfrwt beam="2">  1       21 0.82699024E-01 0.12581842E+03</pdfrwt>
<totfact> 0.35511213E+04</totfact>
</mgrwt>
</event>
<event>
 4    1  0.6024238E+003  0.1015910E+03  0.7546771E-02  0.1276985E+00
         21   -1    0    0  503  501  0.00000000000E+00  0.00000000000E+00  0.21613631825E+02  0.21613631825E+02  0.00000000000E+00 0.  1.
         21   -1    0    0  504  502 -0.00000000000E+00 -0.00000000000E+00 -0.94482864525E+03  0.94482864525E+03  0.00000000000E+00 0. -1.
         21    1    1    2  503  502  0.87756613489E+02 -0.51181108514E+02 -0.12176642896E+03  0.15858055462E+03  0.00000000000E+00 0.  1.
         21    1    1    2  504  501 -0.87756613489E+02  0.51181108514E+02 -0.80144858446E+03  0.80786172246E+03  0.00000000000E+00 0. -1.
<mgrwt>
<rscale>  2 0.10159099E+03</rscale>
<asrwt>0</asrwt>
<pdfrwt beam="1">  1       21 0.33251746E-02 0.10159099E+03</pdfrwt>
<pdfrwt beam="2">  1       21 0.14535823E+00 0.10159099E+03</pdfrwt>
<totfact> 0.17998067E+05</totfact>
</mgrwt>
</event>
<event>
 4    1  0.6024238E+003  0.1080658E+03  0.7546771E-02  0.1264194E+00
         21   -1    0    0  504  501  0.00000000000E+00  0.00000000000E+00  0.11149941773E+03  0.11149941773E+03  0.00000000000E+00 0.  1.
         21   -1    0    0  503  502 -0.00000000000E+00 -0.00000000000E+00 -0.13178947517E+03  0.13178947517E+03  0.00000000000E+00 0.  1.
         21    1    1    2  503  501  0.55659275823E+02 -0.92629661173E+02 -0.65257338825E+02  0.12624075960E+03  0.00000000000E+00 0.  1.
         21    1    1    2  504  502 -0.55659275823E+02  0.92629661173E+02  0.44967281390E+02  0.11704813330E+03  0.00000000000E+00 0.  1.
<mgrwt>
<rscale>  2 0.10806576E+03</rscale>
<asrwt>0</asrwt>
<pdfrwt beam="1">  1       21 0.17153757E-01 0.10806576E+03</pdfrwt>
<pdfrwt beam="2">  1       21 0.20275304E-01 0.10806576E+03</pdfrwt>
<totfact> 0.69346353E+05</totfact>
</mgrwt>
</event>
<event>
 4    1  0.6024238E+003  0.1596292E+03  0.7546771E-02  0.1189116E+00
         21   -1    0    0  503  501  0.00000000000E+00  0.00000000000E+00  0.10778687005E+02  0.10778687005E+02  0.00000000000E+00 0.  1.
         21   -1    0    0  501  502 -0.00000000000E+00 -0.00000000000E+00 -0.23734627004E+04  0.23734627004E+04  0.00000000000E+00 0. -1.
         21    1    1    2  503  504 -0.32430899946E+02 -0.15630009048E+03 -0.12563685841E+04  0.12664689103E+04  0.00000000000E+00 0.  1.
         21    1    1    2  504  502  0.32430899946E+02  0.15630009048E+03 -0.11063154292E+04  0.11177724771E+04  0.00000000000E+00 0. -1.
<mgrwt>
<rscale>  2 0.15962920E+03</rscale>
<asrwt>0</asrwt>
<pdfrwt beam="1">  1       21 0.16582590E-02 0.15962920E+03</pdfrwt>
<pdfrwt beam="2">  1       21 0.36514822E+00 0.15962920E+03</pdfrwt>
<totfact> 0.24679941E+04</totfact>
</mgrwt>
</event>
<event>
 4    1  0.6024238E+003  0.1023777E+03  0.7546771E-02  0.1275374E+00
         21   -1    0    0  504  501  0.00000000000E+00  0.00000000000E+00  0.10194601092E+03  0.10194601092E+03  0.00000000000E+00 0.  1.
         21   -1    0    0  503  502 -0.00000000000E+00 -0.00000000000E+00 -0.19649475463E+03  0.19649475463E+03  0.00000000000E+00 0. -1.
         21    1    1    2  503  501 -0.47503913925E+02  0.90689395233E+02 -0.15030928949E+03  0.18186278001E+03  0.00000000000E+00 0. -1.
         21    1    1    2  504  502  0.47503913925E+02 -0.90689395233E+02  0.55760545777E+02  0.11657798554E+03  0.00000000000E+00 0.  1.
<mgrwt>
<rscale>  2 0.10237767E+03</rscale>
<asrwt>0</asrwt>
<pdfrwt beam="1">  1       21 0.15684002E-01 0.10237767E+03</pdfrwt>
<pdfrwt beam="2">  1       21 0.30229962E-01 0.10237767E+03</pdfrwt>
<totfact> 0.38501500E+05</totfact>
</mgrwt>
</event>
<event>
 4    1  0.6024238E+003  0.1094943E+03  0.7546771E-02  0.1261509E+00
         21   -1    0    0  503  501  0.00000000000E+00  0.00000000000E+00  0.28820190257E+03  0.28820190257E+03  0.00000000000E+00 0.  1.
         21   -1    0    0  504  502 -0.00000000000E+00 -0.00000000000E+00 -0.15020044035E+03  0.15020044035E+03  0.00000000000E+00 0.  1.
         21    1    1    2  503  502  0.10739160300E+03  0.21355184033E+02 -0.11739005528E+03  0.16052858113E+03  0.00000000000E+00 0.  1.
         21    1    1    2  504  501 -0.10739160300E+03 -0.21355184033E+02  0.25539151750E+03  0.27787376179E+03  0.00000000000E+00 0.  1.
<mgrwt>
<rscale>  2 0.10949429E+03</rscale>
<asrwt>0</asrwt>
<pdfrwt beam="1">  1       21 0.44338754E-01 0.10949429E+03</pdfrwt>
<pdfrwt beam="2">  1       21 0.23107760E-01 0.10949429E+03</pdfrwt>
<totfact> 0.88992638E+04</totfact>
</mgrwt>
</event>
<event>
 4    1  0.6024238E+003  0.1080168E+03  0.7546771E-02  0.1264287E+00
         21   -1    0    0  503  501  0.00000000000E+00  0.00000000000E+00  0.56821743472E+02  0.56821743472E+02  0.00000000000E+00 0. -1.
         21   -1    0    0  504  502 -0.00000000000E+00 -0.00000000000E+00 -0.20557975541E+03  0.20557975541E+03  0.00000000000E+00 0. -1.
         21    1    1    2  503  502  0.10552433741E+03 -0.23070430132E+02 -0.69874476917E+02  0.12864708725E+03  0.00000000000E+00 0. -1.
         21    1    1    2  504  501 -0.10552433741E+03  0.23070430132E+02 -0.78883535018E+02  0.13375441163E+03  0.00000000000E+00 0. -1.
<mgrwt>
<rscale>  2 0.10801681E+03</rscale>
<asrwt>0</asrwt>
<pdfrwt beam="1">  1       21 0.87418069E-02 0.10801681E+03</pdfrwt>
<pdfrwt beam="2">  1       21 0.31627654E-01 0.10801681E+03</pdfrwt>
<totfact> 0.98755208E+05</totfact>
</mgrwt>
</event>
<event>
 4    1  0.6024238E+003  0.1033613E+03  0.7546771E-02  0.1273382E+00
         21   -1    0    0  502  501  0.00000000000E+00  0.00000000000E+00  0.67615104268E+02  0.67615104268E+02  0.00000000000E+00 0.  1.
         21   -1    0    0  504  502 -0.00000000000E+00 -0.00000000000E+00 -0.46432609905E+03  0.46432609905E+03  0.00000000000E+00 0.  1.
         21    1    1    2  503  501  0.34800265391E+02 -0.97326799637E+02  0.17672542944E+02  0.10486125678E+03  0.00000000000E+00 0.  1.
         21    1    1    2  504  503 -0.34800265391E+02  0.97326799637E+02 -0.41438353773E+03  0.42707994654E+03  0.00000000000E+00 0.  1.
<mgrwt>
<rscale>  2 0.10336133E+03</rscale>
<asrwt>0</asrwt>
<pdfrwt beam="1">  1       21 0.10402324E-01 0.10336133E+03</pdfrwt>
<pdfrwt beam="2">  1       21 0.71434785E-01 0.10336133E+03</pdfrwt>
<totfact> 0.13846949E+05</totfact>
</mgrwt>
</event>
<event>
 4    1  0.6024238E+003  0.1064208E+03  0.7546771E-02  0.1267345E+00
         21   -1    0    0  503  501  0.00000000000E+00  0.00000000000E+00  0.11443734228E+03  0.11443734228E+03  0.00000000000E+00 0.  1.
         21   -1    0    0  504  502 -0.00000000000E+00 -0.00000000000E+00 -0.99670184282E+02  0.99670184282E+02  0.00000000000E+00 0.  1.
         21    1    1    2  503  502  0.36205670689E+02 -0.10007269601E+03 -0.16153732918E+01  0.10643309874E+03  0.00000000000E+00 0.  1.
         21    1    1    2  504  501 -0.36205670689E+02  0.10007269601E+03  0.16382531287E+02  0.10767442782E+03  0.00000000000E+00 0.  1.
<mgrwt>
<rscale>  2 0.10642084E+03</rscale>
<asrwt>0</asrwt>
<pdfrwt beam="1">  1       21 0.17605745E-01 0.10642084E+03</pdfrwt>
<pdfrwt beam="2">  1       21 0.15333875E-01 0.10642084E+03</pdfrwt>
<totfact> 0.10991803E+06</totfact>
</mgrwt>
</event>
<event>
 4    1  0.6024238E+003  0.1098337E+03  0.7546771E-02  0.1260878E+00
         21   -1    0    0  504  501  0.00000000000E+00  0.00000000000E+00  0.36352378205E+02  0.36352378205E+02  0.00000000000E+00 0.  1.
         21   -1    0    0  503  502 -0.00000000000E+00 -0.00000000000E+00 -0.49455512984E+03  0.49455512984E+03  0.00000000000E+00 0.  1.
         21    1    1    2  503  501 -0.10950933291E+03 -0.84354933380E+01 -0.76841572134E+02  0.13404506239E+03  0.00000000000E+00 0.  1.
         21    1    1    2  504  502  0.10950933291E+03  0.84354933380E+01 -0.38136117950E+03  0.39686244566E+03  0.00000000000E+00 0.  1.
<mgrwt>
<rscale>  2 0.10983375E+03</rscale>
<asrwt>0</asrwt>
<pdfrwt beam="1">  1       21 0.55926737E-02 0.10983375E+03</pdfrwt>
<pdfrwt beam="2">  1       21 0.76085403E-01 0.10983375E+03</pdfrwt>
<totfact> 0.34826436E+05</totfact>
</mgrwt>
</event>
<event>
 4    1  0.6024238E+003  0.1366696E+03  0.7546771E-02  0.1217882E+00
         21   -1    0    0  504  501  0.00000000000E+00  0.00000000000E+00  0.26351054502E+03  0.26351054502E+03  0.00000000000E+00 0.  1.
         21   -1    0    0  503  502 -0.00000000000E+00 -0.00000000000E+00 -0.73631820313E+02  0.73631820313E+02  0.00000000000E+00 0.  1.
         21    1    1    2  503  501  0.10751426688E+03 -0.84375782875E+02  0.12750593575E+03  0.18691269077E+03  0.00000000000E+00 0.  1.
         21    1    1    2  504  502 -0.10751426688E+03  0.84375782875E+02  0.62372788961E+02  0.15022967457E+03  0.00000000000E+00 0.  1.
<mgrwt>
<rscale>  2 0.13666964E+03</rscale>
<asrwt>0</asrwt>
<pdfrwt beam="1">  1       21 0.40540083E-01 0.13666964E+03</pdfrwt>
<pdfrwt beam="2">  1       21 0.11327972E-01 0.13666964E+03</pdfrwt>
<totfact> 0.38510064E+05</totfact>
</mgrwt>
</event>
<event>
 4    1  0.6024238E+003  0.1133017E+03  0.7546771E-02  0.1254575E+00
         21   -1    0    0  504  501  0.00000000000E+00  0.00000000000E+00  0.40543012130E+03  0.40543012130E+03  0.00000000000E+00 0.  1.
         21   -1    0    0  503  502 -0.00000000000E+00 -0.00000000000E+00 -0.33137075192E+02  0.33137075192E+02  0.00000000000E+00 0. -1.
         21    1    1    2  503  501  0.11128213027E+03 -0.21297173270E+02  0.23239048505E+03  0.25853939670E+03  0.00000000000E+00 0.  1.
         21    1    1    2  504  502 -0.11128213027E+03  0.21297173270E+02  0.13990256106E+03  0.18002779979E+03  0.00000000000E+00 0. -1.
<mgrwt>
<rscale>  2 0.11330173E+03</rscale>
<asrwt>0</asrwt>
<pdfrwt beam="1">  1       21 0.62373861E-01 0.11330173E+03</pdfrwt>
<pdfrwt beam="2">  1       21 0.50980118E-02 0.11330173E+03</pdfrwt>
<totfact> 0.62534834E+05</totfact>
</mgrwt>
</event>
<event>
 4    1  0.6024238E+003  0.1006176E+03  0.7546771E-02  0.1279002E+00
         21   -1    0    0  502  501  0.00000000000E+00  0.00000000000E+00  0.32822285107E+03  0.32822285107E+03  0.00000000000E+00 0.  1.
         21   -1    0    0  503  502 -0.00000000000E+00 -0.00000000000E+00 -0.37295107396E+02  0.37295107396E+02  0.00000000000E+00 0.  1.
         21    1    1    2  503  504 -0.87939668907E+02 -0.48892992402E+02  0.69457682355E+02  0.12226315762E+03  0.00000000000E+00 0.  1.
         21    1    1    2  504  501  0.87939668907E+02  0.48892992402E+02  0.22147006132E+03  0.24325480085E+03  0.00000000000E+00 0.  1.
<mgrwt>
<rscale>  2 0.10061764E+03</rscale>
<asrwt>0</asrwt>
<pdfrwt beam="1">  1       21 0.50495821E-01 0.10061764E+03</pdfrwt>
<pdfrwt beam="2">  1       21 0.57377091E-02 0.10061764E+03</pdfrwt>
<totfact> 0.79722346E+05</totfact>
</mgrwt>
</event>
<event>
 4    1  0.6024238E+003  0.1012442E+03  0.7546771E-02  0.1277701E+00
         21   -1    0    0  503  501  0.00000000000E+00  0.00000000000E+00  0.37998557221E+02  0.37998557221E+02  0.00000000000E+00 0. -1.
         21   -1    0    0  501  502 -0.00000000000E+00 -0.00000000000E+00 -0.48456178595E+03  0.48456178595E+03  0.00000000000E+00 0. -1.
         21    1    1    2  503  504 -0.99152919087E+02 -0.20471792287E+02 -0.49320032811E+02  0.11261821025E+03  0.00000000000E+00 0. -1.
         21    1    1    2  504  502  0.99152919087E+02  0.20471792287E+02 -0.39724319592E+03  0.40994213292E+03  0.00000000000E+00 0. -1.
<mgrwt>
<rscale>  2 0.10124424E+03</rscale>
<asrwt>0</asrwt>
<pdfrwt beam="1">  1       21 0.58459321E-02 0.10124424E+03</pdfrwt>
<pdfrwt beam="2">  1       21 0.74547965E-01 0.10124424E+03</pdfrwt>
<totfact> 0.33859651E+05</totfact>
</mgrwt>
</event>
<event>
 4    1  0.6024238E+003  0.1495996E+03  0.7546771E-02  0.1200966E+00
         21   -1    0    0  502  501  0.00000000000E+00  0.00000000000E+00  0.19902521114E+04  0.19902521114E+04  0.00000000000E+00 0.  1.
         21   -1    0    0  504  502 -0.00000000000E+00 -0.00000000000E+00 -0.24306796373E+02  0.24306796373E+02  0.00000000000E+00 0.  1.
         21    1    1    2  503  501 -0.14941039390E+03  0.75211122393E+01  0.17213706535E+04  0.17278590682E+04  0.00000000000E+00 0.  1.
         21    1    1    2  504  503  0.14941039390E+03 -0.75211122393E+01  0.24457466155E+03  0.28669983957E+03  0.00000000000E+00 0.  1.
<mgrwt>
<rscale>  2 0.14959958E+03</rscale>
<asrwt>0</asrwt>
<pdfrwt beam="1">  1       21 0.30619250E+00 0.14959958E+03</pdfrwt>
<pdfrwt beam="2">  1       21 0.37395087E-02 0.14959958E+03</pdfrwt>
<totfact> 0.14497906E+04</totfact>
</mgrwt>
</event>
<event>
 4    1  0.6024238E+003  0.1078134E+03  0.7546771E-02  0.1264674E+00
         21   -1    0    0  503  501  0.00000000000E+00  0.00000000000E+00  0.12460433506E+04  0.12460433506E+04  0.00000000000E+00 0. -1.
         21   -1    0    0  501  502 -0.00000000000E+00 -0.00000000000E+00 -0.93329778828E+01  0.93329778828E+01  0.00000000000E+00 0. -1.
         21    1    1    2  503  504 -0.98727265247E+02  0.43320416120E+02  0.60462589376E+03  0.61416300992E+03  0.00000000000E+00 0. -1.
         21    1    1    2  504  502  0.98727265247E+02 -0.43320416120E+02  0.63208447893E+03  0.64121331853E+03  0.00000000000E+00 0. -1.
<mgrwt>
<rscale>  2 0.10781341E+03</rscale>
<asrwt>0</asrwt>
<pdfrwt beam="1">  1       21 0.19169884E+00 0.10781341E+03</pdfrwt>
<pdfrwt beam="2">  1       21 0.14358437E-02 0.10781341E+03</pdfrwt>
<totfact> 0.33210275E+05</totfact>
</mgrwt>
</event>
<event>
 4    1  0.6024238E+003  0.1223390E+03  0.7546771E-02  0.1239288E+00
         21   -1    0    0  504  501  0.00000000000E+00  0.00000000000E+00  0.58125109344E+02  0.58125109344E+02  0.00000000000E+00 0.  1.
         21   -1    0    0  503  502 -0.00000000000E+00 -0.00000000000E+00 -0.27369055711E+03  0.27369055711E+03  0.00000000000E+00 0.  1.
         21    1    1    2  503  501 -0.11125591567E+03 -0.50881830059E+02 -0.67422396381E+02  0.13968757617E+03  0.00000000000E+00 0.  1.
         21    1    1    2  504  502  0.11125591567E+03  0.50881830059E+02 -0.14814305138E+03  0.19212809028E+03  0.00000000000E+00 0.  1.
<mgrwt>
<rscale>  2 0.12233903E+03</rscale>
<asrwt>0</asrwt>
<pdfrwt beam="1">  1       21 0.89423243E-02 0.12233903E+03</pdfrwt>
<pdfrwt beam="2">  1       21 0.42106240E-01 0.12233903E+03</pdfrwt>
<totfact> 0.54061613E+05</totfact>
</mgrwt>
</event>
<event>
 4    1  0.6024238E+003  0.1296127E+03  0.7546771E-02  0.1228032E+00
         21   -1    0    0  503  501  0.00000000000E+00  0.00000000000E+00  0.11867802736E+03  0.11867802736E+03  0.00000000000E+00 0. -1.
         21   -1    0    0  504  502 -0.00000000000E+00 -0.00000000000E+00 -0.15854581154E+03  0.15854581154E+03  0.00000000000E+00 0. -1.
         21    1    1    2  503  502 -0.20546602025E+02  0.12797373521E+03 -0.65310634124E+02  0.14513758537E+03  0.00000000000E+00 0. -1.
         21    1    1    2  504  501  0.20546602025E+02 -0.12797373521E+03  0.25442849950E+02  0.13208625353E+03  0.00000000000E+00 0. -1.
<mgrwt>
<rscale>  2 0.12961265E+03</rscale>
<asrwt>0</asrwt>
<pdfrwt beam="1">  1       21 0.18258158E-01 0.12961265E+03</pdfrwt>
<pdfrwt beam="2">  1       21 0.24391663E-01 0.12961265E+03</pdfrwt>
<totfact> 0.43815502E+05</totfact>
</mgrwt>
</event>
<event>
 4    1  0.6024238E+003  0.1085692E+03  0.7546771E-02  0.1263243E+00
         21   -1    0    0  503  501  0.00000000000E+00  0.00000000000E+00  0.12606273122E+04  0.12606273122E+04  0.00000000000E+00 0. -1.
         21   -1    0    0  504  502 -0.00000000000E+00 -0.00000000000E+00 -0.51551247985E+03  0.51551247985E+03  0.00000000000E+00 0. -1.
         21    1    1    2  503  502 -0.25168364757E+01 -0.10854000916E+03  0.12525365908E+04  0.12572331444E+04  0.00000000000E+00 0. -1.
         21    1    1    2  504  501  0.25168364757E+01  0.10854000916E+03 -0.50742175845E+03  0.51890664767E+03  0.00000000000E+00 0. -1.
<mgrwt>
<rscale>  2 0.10856919E+03</rscale>
<asrwt>0</asrwt>
<pdfrwt beam="1">  1       21 0.19394266E+00 0.10856919E+03</pdfrwt>
<pdfrwt beam="2">  1       21 0.79309613E-01 0.10856919E+03</pdfrwt>
<totfact> 0.23774873E+02</totfact>
</mgrwt>
</event>
<event>
 4    1  0.6024238E+003  0.1403850E+03  0.7546771E-02  0.1212812E+00
         21   -1    0    0  502  501  0.00000000000E+00  0.00000000000E+00  0.76751122276E+03  0.76751122276E+03  0.00000000000E+00 0. -1.
         21   -1    0    0  503  502 -0.00000000000E+00 -0.00000000000E+00 -0.46861128443E+03  0.46861128443E+03  0.00000000000E+00 0. -1.
         21    1    1    2  503  504  0.97047067924E+02  0.10143875095E+03 -0.45143927888E+03  0.47276355200E+03  0.00000000000E+00 0. -1.
         21    1    1    2  504  501 -0.97047067924E+02 -0.10143875095E+03  0.75033921720E+03  0.76335895518E+03  0.00000000000E+00 0. -1.
<mgrwt>
<rscale>  2 0.14038502E+03</rscale>
<asrwt>0</asrwt>
<pdfrwt beam="1">  1       21 0.11807865E+00 0.14038502E+03</pdfrwt>
<pdfrwt beam="2">  1       21 0.72094043E-01 0.14038502E+03</pdfrwt>
<totfact> 0.10132010E+03</totfact>
</mgrwt>
</event>
<event>
 4    1  0.6024238E+003  0.1012076E+03  0.7546771E-02  0.1277777E+00
         21   -1    0    0  504  501  0.00000000000E+00  0.00000000000E+00  0.87158486335E+02  0.87158486335E+02  0.00000000000E+00 0. -1.
         21   -1    0    0  503  502 -0.00000000000E+00 -0.00000000000E+00 -0.23432305718E+03  0.23432305718E+03  0.00000000000E+00 0. -1.
         21    1    1    2  503  501 -0.10055651874E+03  0.11461285243E+02  0.39903982031E+02  0.10879017558E+03  0.00000000000E+00 0. -1.
         21    1    1    2  504  502  0.10055651874E+03 -0.11461285243E+02 -0.18706855287E+03  0.21269136793E+03  0.00000000000E+00 0. -1.
<mgrwt>
<rscale>  2 0.10120758E+03</rscale>
<asrwt>0</asrwt>
<pdfrwt beam="1">  1       21 0.13408998E-01 0.10120758E+03</pdfrwt>
<pdfrwt beam="2">  1       21 0.36049701E-01 0.10120758E+03</pdfrwt>
<totfact> 0.36220488E+05</totfact>
</mgrwt>
</event>
<event>
 4    1  0.6024238E+003  0.1049529E+03  0.7546771E-02  0.1270212E+00
         21   -1    0    0  504  501  0.00000000000E+00  0.00000000000E+00  0.17592993139E+03  0.17592993139E+03  0.00000000000E+00 0. -1.
         21   -1    0    0  503  502 -0.00000000000E+00 -0.00000000000E+00 -0.13710185970E+03  0.13710185970E+03  0.00000000000E+00 0. -1.
         21    1    1    2  503  501  0.95232000171E+02  0.44113279665E+02 -0.95954884440E+02  0.14220567903E+03  0.00000000000E+00 0. -1.
         21    1    1    2  504  502 -0.95232000171E+02 -0.44113279665E+02  0.13478295613E+03  0.17082611206E+03  0.00000000000E+00 0. -1.
<mgrwt>
<rscale>  2 0.10495292E+03</rscale>
<asrwt>0</asrwt>
<pdfrwt beam="1">  1       21 0.27066143E-01 0.10495292E+03</pdfrwt>
<pdfrwt beam="2">  1       21 0.21092594E-01 0.10495292E+03</pdfrwt>
<totfact> 0.27696025E+05</totfact>
</mgrwt>
</event>
<event>
 4    1  0.6024238E+003  0.1195311E+03  0.7546771E-02  0.1243873E+00
         21   -1    0    0  503  501  0.00000000000E+00  0.00000000000E+00  0.37077463761E+04  0.37077463761E+04  0.00000000000E+00 0. -1.
         21   -1    0    0  504  502 -0.00000000000E+00 -0.00000000000E+00 -0.40547652650E+01  0.40547652650E+01  0.00000000000E+00 0. -1.
         21    1    1    2  503  502 -0.11578013656E+03  0.29709177301E+02  0.22653622211E+04  0.22685135371E+04  0.00000000000E+00 0. -1.
         21    1    1    2  504  501  0.11578013656E+03 -0.29709177301E+02  0.14383293897E+04  0.14432876043E+04  0.00000000000E+00 0. -1.
<mgrwt>
<rscale>  2 0.11953106E+03</rscale>
<asrwt>0</asrwt>
<pdfrwt beam="1">  1       21 0.57041981E+00 0.11953106E+03</pdfrwt>
<pdfrwt beam="2">  1       21 0.62381301E-03 0.11953106E+03</pdfrwt>
<totfact> 0.51683826E+03</totfact>
</mgrwt>
</event>
<event>
 4    1  0.6024238E+003  0.1261204E+03  0.7546771E-02  0.1233329E+00
         21   -1    0    0  503  501  0.00000000000E+00  0.00000000000E+00  0.15989085012E+04  0.15989085012E+04  0.00000000000E+00 0. -1.
         21   -1    0    0  501  502 -0.00000000000E+00 -0.00000000000E+00 -0.12519119798E+02  0.12519119798E+02  0.00000000000E+00 0. -1.
         21    1    1    2  503  504 -0.54891624969E+02  0.11354854268E+03  0.11583123732E+04  0.11651583223E+04  0.00000000000E+00 0. -1.
         21    1    1    2  504  502  0.54891624969E+02 -0.11354854268E+03  0.42807700817E+03  0.44626929869E+03  0.00000000000E+00 0. -1.
<mgrwt>
<rscale>  2 0.12612043E+03</rscale>
<asrwt>0</asrwt>
<pdfrwt beam="1">  1       21 0.24598576E+00 0.12612043E+03</pdfrwt>
<pdfrwt beam="2">  1       21 0.19260197E-02 0.12612043E+03</pdfrwt>
<totfact> 0.96708146E+04</totfact>
</mgrwt>
</event>
<event>
 4    1  0.6024238E+003  0.1141727E+03  0.7546771E-02  0.1253032E+00
         21   -1    0    0  504  501  0.00000000000E+00  0.00000000000E+00  0.17958585617E+04  0.17958585617E+04  0.00000000000E+00 0.  1.
         21   -1    0    0  503  502 -0.00000000000E+00 -0.00000000000E+00 -0.86180189193E+01  0.86180189193E+01  0.00000000000E+00 0.  1.
         21    1    1    2  503  501  0.11119125143E+03  0.25921079363E+02  0.53527955085E+03  0.54732037629E+03  0.00000000000E+00 0.  1.
         21    1    1    2  504  502 -0.11119125143E+03 -0.25921079363E+02  0.12519609919E+04  0.12571562043E+04  0.00000000000E+00 0.  1.
<mgrwt>
<rscale>  2 0.11417266E+03</rscale>
<asrwt>0</asrwt>
<pdfrwt beam="1">  1       21 0.27628563E+00 0.11417266E+03</pdfrwt>
<pdfrwt beam="2">  1       21 0.13258505E-02 0.11417266E+03</pdfrwt>
<totfact> 0.11971770E+05</totfact>
</mgrwt>
</event>
<event>
 4    1  0.6024238E+003  0.1147378E+03  0.7546771E-02  0.1252039E+00
         21   -1    0    0  502  501  0.00000000000E+00  0.00000000000E+00  0.13371629226E+03  0.13371629226E+03  0.00000000000E+00 0. -1.
         21   -1    0    0  504  502 -0.00000000000E+00 -0.00000000000E+00 -0.12197848051E+03  0.12197848051E+03  0.00000000000E+00 0. -1.
         21    1    1    2  503  501  0.63555168223E+02  0.95527505313E+02  0.62015050574E+02  0.13042480660E+03  0.00000000000E+00 0. -1.
         21    1    1    2  504  503 -0.63555168223E+02 -0.95527505313E+02 -0.50277238833E+02  0.12526996617E+03  0.00000000000E+00 0. -1.
<mgrwt>
<rscale>  2 0.11473780E+03</rscale>
<asrwt>0</asrwt>
<pdfrwt beam="1">  1       21 0.20571737E-01 0.11473780E+03</pdfrwt>
<pdfrwt beam="2">  1       21 0.18765920E-01 0.11473780E+03</pdfrwt>
<totfact> 0.57315919E+05</totfact>
</mgrwt>
</event>
<event>
 4    1  0.6024238E+003  0.1519766E+03  0.7546771E-02  0.1198065E+00
         21   -1    0    0  503  501  0.00000000000E+00  0.00000000000E+00  0.83366724401E+03  0.83366724401E+03  0.00000000000E+00 0.  1.
         21   -1    0    0  504  502 -0.00000000000E+00 -0.00000000000E+00 -0.40172749084E+02  0.40172749084E+02  0.00000000000E+00 0.  1.
         21    1    1    2  503  502 -0.13391331139E+03  0.71861690947E+02  0.15334335040E+03  0.21589594880E+03  0.00000000000E+00 0.  1.
         21    1    1    2  504  501  0.13391331139E+03 -0.71861690947E+02  0.64015114452E+03  0.65794404429E+03  0.00000000000E+00 0.  1.
<mgrwt>
<rscale>  2 0.15197657E+03</rscale>
<asrwt>0</asrwt>
<pdfrwt beam="1">  1       21 0.12825649E+00 0.15197657E+03</pdfrwt>
<pdfrwt beam="2">  1       21 0.61804236E-02 0.15197657E+03</pdfrwt>
<totfact> 0.85464997E+04</totfact>
</mgrwt>
</event>
<event>
 4    1  0.6024238E+003  0.1208262E+03  0.7546771E-02  0.1241740E+00
         21   -1    0    0  502  501  0.00000000000E+00  0.00000000000E+00  0.60345276671E+02  0.60345276671E+02  0.00000000000E+00 0. -1.
         21   -1    0    0  503  502 -0.00000000000E+00 -0.00000000000E+00 -0.23300476711E+04  0.23300476711E+04  0.00000000000E+00 0.  1.
         21    1    1    2  503  504  0.10611592483E+03 -0.57778646780E+02 -0.22663003045E+04  0.22695188987E+04  0.00000000000E+00 0.  1.
         21    1    1    2  504  501 -0.10611592483E+03  0.57778646780E+02 -0.34020899789E+01  0.12087404909E+03  0.00000000000E+00 0. -1.
<mgrwt>
<rscale>  2 0.12082616E+03</rscale>
<asrwt>0</asrwt>
<pdfrwt beam="1">  1       21 0.92838907E-02 0.12082616E+03</pdfrwt>
<pdfrwt beam="2">  1       21 0.35846880E+00 0.12082616E+03</pdfrwt>
<totfact> 0.16356510E+03</totfact>
</mgrwt>
</event>
<event>
 4    1  0.6024238E+003  0.1044074E+03  0.7546771E-02  0.1271292E+00
         21   -1    0    0  503  501  0.00000000000E+00  0.00000000000E+00  0.31622097817E+03  0.31622097817E+03  0.00000000000E+00 0. -1.
         21   -1    0    0  501  502 -0.00000000000E+00 -0.00000000000E+00 -0.38165840513E+02  0.38165840513E+02  0.00000000000E+00 0. -1.
         21    1    1    2  503  504 -0.75570676036E+02 -0.72041473700E+02  0.19414954521E+03  0.22044261592E+03  0.00000000000E+00 0. -1.
         21    1    1    2  504  502  0.75570676036E+02  0.72041473700E+02  0.83905592446E+02  0.13394420276E+03  0.00000000000E+00 0. -1.
<mgrwt>
<rscale>  2 0.10440738E+03</rscale>
<asrwt>0</asrwt>
<pdfrwt beam="1">  1       21 0.48649380E-01 0.10440738E+03</pdfrwt>
<pdfrwt beam="2">  1       21 0.58716680E-02 0.10440738E+03</pdfrwt>
<totfact> 0.82784588E+05</totfact>
</mgrwt>
</event>
<event>
 4    1  0.6024238E+003  0.1788685E+03  0.7546771E-02  0.1168903E+00
         21   -1    0    0  504  501  0.00000000000E+00  0.00000000000E+00  0.22301550534E+03  0.22301550534E+03  0.00000000000E+00 0.  1.
         21   -1    0    0  503  502 -0.00000000000E+00 -0.00000000000E+00 -0.20175124407E+03  0.20175124407E+03  0.00000000000E+00 0.  1.
         21    1    1    2  503  501 -0.10060079053E+03 -0.14789663687E+03  0.12479158901E+03  0.21809831485E+03  0.00000000000E+00 0.  1.
         21    1    1    2  504  502  0.10060079053E+03  0.14789663687E+03 -0.10352732774E+03  0.20666843456E+03  0.00000000000E+00 0.  1.
<mgrwt>
<rscale>  2 0.17886848E+03</rscale>
<asrwt>0</asrwt>
<pdfrwt beam="1">  1       21 0.34310078E-01 0.17886848E+03</pdfrwt>
<pdfrwt beam="2">  1       21 0.31038653E-01 0.17886848E+03</pdfrwt>
<totfact> 0.82078801E+04</totfact>
</mgrwt>
</event>
<event>
 4    1  0.6024238E+003  0.1267852E+03  0.7546771E-02  0.1232305E+00
         21   -1    0    0  504  501  0.00000000000E+00  0.00000000000E+00  0.43508647705E+02  0.43508647705E+02  0.00000000000E+00 0.  1.
         21   -1    0    0  503  502 -0.00000000000E+00 -0.00000000000E+00 -0.36971541985E+03  0.36971541985E+03  0.00000000000E+00 0.  1.
         21    1    1    2  503  501  0.11596486148E+03 -0.51250696237E+02 -0.16858798190E+03  0.21094167583E+03  0.00000000000E+00 0.  1.
         21    1    1    2  504  502 -0.11596486148E+03  0.51250696237E+02 -0.15761879024E+03  0.20228239172E+03  0.00000000000E+00 0.  1.
<mgrwt>
<rscale>  2 0.12678518E+03</rscale>
<asrwt>0</asrwt>
<pdfrwt beam="1">  1       21 0.66936381E-02 0.12678518E+03</pdfrwt>
<pdfrwt beam="2">  1       21 0.56879296E-01 0.12678518E+03</pdfrwt>
<totfact> 0.47926324E+05</totfact>
</mgrwt>
</event>
<event>
 4    1  0.6024238E+003  0.1233445E+03  0.7546771E-02  0.1237679E+00
         21   -1    0    0  504  501  0.00000000000E+00  0.00000000000E+00  0.33745363072E+03  0.33745363072E+03  0.00000000000E+00 0. -1.
         21   -1    0    0  503  502 -0.00000000000E+00 -0.00000000000E+00 -0.66537903463E+02  0.66537903463E+02  0.00000000000E+00 0.  1.
         21    1    1    2  503  501 -0.91974778801E+02 -0.82185807765E+02  0.25015634048E+03  0.27891228302E+03  0.00000000000E+00 0. -1.
         21    1    1    2  504  502  0.91974778801E+02  0.82185807765E+02  0.20759386776E+02  0.12507925117E+03  0.00000000000E+00 0.  1.
<mgrwt>
<rscale>  2 0.12334451E+03</rscale>
<asrwt>0</asrwt>
<pdfrwt beam="1">  1       21 0.51915942E-01 0.12334451E+03</pdfrwt>
<pdfrwt beam="2">  1       21 0.10236601E-01 0.12334451E+03</pdfrwt>
<totfact> 0.27858828E+05</totfact>
</mgrwt>
</event>
<event>
 4    1  0.6024238E+003  0.1086519E+03  0.7546771E-02  0.1263087E+00
         21   -1    0    0  502  501  0.00000000000E+00  0.00000000000E+00  0.56565745676E+03  0.56565745676E+03  0.00000000000E+00 0. -1.
         21   -1    0    0  504  502 -0.00000000000E+00 -0.00000000000E+00 -0.23347564142E+03  0.23347564142E+03  0.00000000000E+00 0. -1.
         21    1    1    2  503  501 -0.31017429090E+02  0.10413045417E+03  0.54738124213E+03  0.55806044174E+03  0.00000000000E+00 0. -1.
         21    1    1    2  504  503  0.31017429090E+02 -0.10413045417E+03 -0.21519942679E+03  0.24107265645E+03  0.00000000000E+00 0. -1.
<mgrwt>
<rscale>  2 0.10865189E+03</rscale>
<asrwt>0</asrwt>
<pdfrwt beam="1">  1       21 0.87024224E-01 0.10865189E+03</pdfrwt>
<pdfrwt beam="2">  1       21 0.35919329E-01 0.10865189E+03</pdfrwt>
<totfact> 0.91132420E+03</totfact>
</mgrwt>
</event>
<event>
 4    1  0.6024238E+003  0.1322512E+03  0.7546771E-02  0.1224153E+00
         21   -1    0    0  504  501  0.00000000000E+00  0.00000000000E+00  0.40927730239E+02  0.40927730239E+02  0.00000000000E+00 0.  1.
         21   -1    0    0  501  502 -0.00000000000E+00 -0.00000000000E+00 -0.96087662739E+03  0.96087662739E+03  0.00000000000E+00 0.  1.
         21    1    1    2  503  502  0.12318060012E+03  0.48134419834E+02 -0.83322287025E+03  0.84365320726E+03  0.00000000000E+00 0.  1.
         21    1    1    2  504  503 -0.12318060012E+03 -0.48134419834E+02 -0.86726026902E+02  0.15815115037E+03  0.00000000000E+00 0.  1.
<mgrwt>
<rscale>  2 0.13225121E+03</rscale>
<asrwt>0</asrwt>
<pdfrwt beam="1">  1       21 0.62965746E-02 0.13225121E+03</pdfrwt>
<pdfrwt beam="2">  1       21 0.14782716E+00 0.13225121E+03</pdfrwt>
<totfact> 0.58365064E+04</totfact>
</mgrwt>
</event>
<event>
 4    1  0.6024238E+003  0.1153346E+03  0.7546771E-02  0.1250998E+00
         21   -1    0    0  502  501  0.00000000000E+00  0.00000000000E+00  0.14572726167E+03  0.14572726167E+03  0.00000000000E+00 0.  1.
         21   -1    0    0  504  502 -0.00000000000E+00 -0.00000000000E+00 -0.26021944854E+03  0.26021944854E+03  0.00000000000E+00 0.  1.
         21    1    1    2  503  501 -0.99350107955E+02  0.58580132271E+02  0.10629763120E+03  0.15684789526E+03  0.00000000000E+00 0.  1.
         21    1    1    2  504  503  0.99350107955E+02 -0.58580132271E+02 -0.22078981807E+03  0.24909881496E+03  0.00000000000E+00 0.  1.
<mgrwt>
<rscale>  2 0.11533463E+03</rscale>
<asrwt>0</asrwt>
<pdfrwt beam="1">  1       21 0.22419579E-01 0.11533463E+03</pdfrwt>
<pdfrwt beam="2">  1       21 0.40033761E-01 0.11533463E+03</pdfrwt>
<totfact> 0.11525518E+05</totfact>
</mgrwt>
</event>
<event>
 4    1  0.6024238E+003  0.1102385E+03  0.7546771E-02  0.1260129E+00
         21   -1    0    0  502  501  0.00000000000E+00  0.00000000000E+00  0.65942530144E+02  0.65942530144E+02  0.00000000000E+00 0. -1.
         21   -1    0    0  504  502 -0.00000000000E+00 -0.00000000000E+00 -0.13156906574E+04  0.13156906574E+04  0.00000000000E+00 0.  1.
         21    1    1    2  503  501  0.10713671004E+03 -0.25966346120E+02  0.15736574282E+02  0.11135603055E+03  0.00000000000E+00 0. -1.
         21    1    1    2  504  503 -0.10713671004E+03  0.25966346120E+02 -0.12654847016E+04  0.12702771570E+04  0.00000000000E+00 0.  1.
<mgrwt>
<rscale>  2 0.11023849E+03</rscale>
<asrwt>0</asrwt>
<pdfrwt beam="1">  1       21 0.10145004E-01 0.11023849E+03</pdfrwt>
<pdfrwt beam="2">  1       21 0.20241396E+00 0.11023849E+03</pdfrwt>
<totfact> 0.11144011E+04</totfact>
</mgrwt>
</event>
<event>
 4    1  0.6024238E+003  0.1388687E+03  0.7546771E-02  0.1214859E+00
         21   -1    0    0  503  501  0.00000000000E+00  0.00000000000E+00  0.15645907165E+03  0.15645907165E+03  0.00000000000E+00 0.  1.
         21   -1    0    0  504  502 -0.00000000000E+00 -0.00000000000E+00 -0.12563766588E+03  0.12563766588E+03  0.00000000000E+00 0.  1.
         21    1    1    2  503  502 -0.13841830385E+03 -0.11175292430E+02  0.34830811954E+02  0.14317017658E+03  0.00000000000E+00 0.  1.
         21    1    1    2  504  501  0.13841830385E+03  0.11175292430E+02 -0.40094061856E+01  0.13892656096E+03  0.00000000000E+00 0.  1.
<mgrwt>
<rscale>  2 0.13886869E+03</rscale>
<asrwt>0</asrwt>
<pdfrwt beam="1">  1       21 0.24070627E-01 0.13886869E+03</pdfrwt>
<pdfrwt beam="2">  1       21 0.19328872E-01 0.13886869E+03</pdfrwt>
<totfact> 0.40409450E+05</totfact>
</mgrwt>
</event>
<event>
 4    1  0.6024238E+003  0.1057724E+03  0.7546771E-02  0.1268605E+00
         21   -1    0    0  504  501  0.00000000000E+00  0.00000000000E+00  0.58189793869E+03  0.58189793869E+03  0.00000000000E+00 0. -1.
         21   -1    0    0  503  502 -0.00000000000E+00 -0.00000000000E+00 -0.25349426793E+02  0.25349426793E+02  0.00000000000E+00 0. -1.
         21    1    1    2  503  501  0.67137101557E+02 -0.81733786537E+02  0.12905163360E+03  0.16685960087E+03  0.00000000000E+00 0. -1.
         21    1    1    2  504  502 -0.67137101557E+02  0.81733786537E+02  0.42749687830E+03  0.44038776462E+03  0.00000000000E+00 0. -1.
<mgrwt>
<rscale>  2 0.10577241E+03</rscale>
<asrwt>0</asrwt>
<pdfrwt beam="1">  1       21 0.89522750E-01 0.10577241E+03</pdfrwt>
<pdfrwt beam="2">  1       21 0.38999123E-02 0.10577241E+03</pdfrwt>
<totfact> 0.44177315E+05</totfact>
</mgrwt>
</event>
<event>
 4    1  0.6024238E+003  0.1855011E+03  0.7546771E-02  0.1162583E+00
         21   -1    0    0  503  501  0.00000000000E+00  0.00000000000E+00  0.23572544148E+03  0.23572544148E+03  0.00000000000E+00 0. -1.
         21   -1    0    0  504  502 -0.00000000000E+00 -0.00000000000E+00 -0.15948705859E+03  0.15948705859E+03  0.00000000000E+00 0. -1.
         21    1    1    2  503  502 -0.65204110803E+02 -0.17366373575E+03  0.95630670893E+02  0.20870048969E+03  0.00000000000E+00 0. -1.
         21    1    1    2  504  501  0.65204110803E+02  0.17366373575E+03 -0.19392288003E+02  0.18651201038E+03  0.00000000000E+00 0. -1.
<mgrwt>
<rscale>  2 0.18550113E+03</rscale>
<asrwt>0</asrwt>
<pdfrwt beam="1">  1       21 0.36265453E-01 0.18550113E+03</pdfrwt>
<pdfrwt beam="2">  1       21 0.24536470E-01 0.18550113E+03</pdfrwt>
<totfact> 0.11539355E+05</totfact>
</mgrwt>
</event>
<event>
 4    1  0.6024238E+003  0.1089997E+03  0.7546771E-02  0.1262434E+00
         21   -1    0    0  502  501  0.00000000000E+00  0.00000000000E+00  0.22267119718E+03  0.22267119718E+03  0.00000000000E+00 0.  1.
         21   -1    0    0  503  502 -0.00000000000E+00 -0.00000000000E+00 -0.13952042604E+03  0.13952042604E+03  0.00000000000E+00 0.  1.
         21    1    1    2  503  504 -0.27341586051E+02 -0.10551480983E+03 -0.10074019736E+03  0.14842346441E+03  0.00000000000E+00 0.  1.
         21    1    1    2  504  501  0.27341586051E+02  0.10551480983E+03  0.18389096850E+03  0.21376815881E+03  0.00000000000E+00 0.  1.
<mgrwt>
<rscale>  2 0.10899971E+03</rscale>
<asrwt>0</asrwt>
<pdfrwt beam="1">  1       21 0.34257107E-01 0.10899971E+03</pdfrwt>
<pdfrwt beam="2">  1       21 0.21464681E-01 0.10899971E+03</pdfrwt>
<totfact> 0.17029504E+05</totfact>
</mgrwt>
</event>
<event>
 4    1  0.6024238E+003  0.1168537E+03  0.7546771E-02  0.1248380E+00
         21   -1    0    0  504  501  0.00000000000E+00  0.00000000000E+00  0.21880959683E+02  0.21880959683E+02  0.00000000000E+00 0. -1.
         21   -1    0    0  503  502 -0.00000000000E+00 -0.00000000000E+00 -0.63187717923E+03  0.63187717923E+03  0.00000000000E+00 0. -1.
         21    1    1    2  503  501 -0.96216862965E+02 -0.66310660869E+02 -0.34138160224E+03  0.36082708714E+03  0.00000000000E+00 0. -1.
         21    1    1    2  504  502  0.96216862965E+02  0.66310660869E+02 -0.26861461731E+03  0.29293105178E+03  0.00000000000E+00 0. -1.
<mgrwt>
<rscale>  2 0.11685371E+03</rscale>
<asrwt>0</asrwt>
<pdfrwt beam="1">  1       21 0.33663006E-02 0.11685371E+03</pdfrwt>
<pdfrwt beam="2">  1       21 0.97211898E-01 0.11685371E+03</pdfrwt>
<totfact> 0.46527275E+05</totfact>
</mgrwt>
</event>
<event>
 4    1  0.6024238E+003  0.1173409E+03  0.7546771E-02  0.1247549E+00
         21   -1    0    0  504  501  0.00000000000E+00  0.00000000000E+00  0.12010711598E+03  0.12010711598E+03  0.00000000000E+00 0. -1.
         21   -1    0    0  503  502 -0.00000000000E+00 -0.00000000000E+00 -0.15336932708E+04  0.15336932708E+04  0.00000000000E+00 0.  1.
         21    1    1    2  503  501  0.11385672548E+03 -0.28381906705E+02  0.88602978498E+02  0.14703528272E+03  0.00000000000E+00 0. -1.
         21    1    1    2  504  502 -0.11385672548E+03  0.28381906705E+02 -0.15021891333E+04  0.15067651040E+04  0.00000000000E+00 0.  1.
<mgrwt>
<rscale>  2 0.11734090E+03</rscale>
<asrwt>0</asrwt>
<pdfrwt beam="1">  1       21 0.18478018E-01 0.11734090E+03</pdfrwt>
<pdfrwt beam="2">  1       21 0.23595281E+00 0.11734090E+03</pdfrwt>
<totfact> 0.23834917E+03</totfact>
</mgrwt>
</event>
<event>
 4    1  0.6024238E+003  0.1093894E+03  0.7546771E-02  0.1261705E+00
         21   -1    0    0  503  501  0.00000000000E+00  0.00000000000E+00  0.43886670929E+02  0.43886670929E+02  0.00000000000E+00 0. -1.
         21   -1    0    0  501  502 -0.00000000000E+00 -0.00000000000E+00 -0.65352295376E+03  0.65352295376E+03  0.00000000000E+00 0. -1.
         21    1    1    2  503  504 -0.10106702327E+03 -0.41850951712E+02 -0.38615041045E+02  0.11600502897E+03  0.00000000000E+00 0. -1.
         21    1    1    2  504  502  0.10106702327E+03  0.41850951712E+02 -0.57102124178E+03  0.58140459571E+03  0.00000000000E+00 0. -1.
<mgrwt>
<rscale>  2 0.10938942E+03</rscale>
<asrwt>0</asrwt>
<pdfrwt beam="1">  1       21 0.67517964E-02 0.10938942E+03</pdfrwt>
<pdfrwt beam="2">  1       21 0.10054198E+00 0.10938942E+03</pdfrwt>
<totfact> 0.13480105E+05</totfact>
</mgrwt>
</event>
<event>
 4    1  0.6024238E+003  0.1088436E+03  0.7546771E-02  0.1262726E+00
         21   -1    0    0  504  501  0.00000000000E+00  0.00000000000E+00  0.14199270733E+03  0.14199270733E+03  0.00000000000E+00 0. -1.
         21   -1    0    0  503  502 -0.00000000000E+00 -0.00000000000E+00 -0.18314492837E+03  0.18314492837E+03  0.00000000000E+00 0. -1.
         21    1    1    2  503  501 -0.69630189372E+02  0.83657439479E+02  0.99377284891E+02  0.14738648243E+03  0.00000000000E+00 0. -1.
         21    1    1    2  504  502  0.69630189372E+02 -0.83657439479E+02 -0.14052950593E+03  0.17775115327E+03  0.00000000000E+00 0. -1.
<mgrwt>
<rscale>  2 0.10884361E+03</rscale>
<asrwt>0</asrwt>
<pdfrwt beam="1">  1       21 0.21845032E-01 0.10884361E+03</pdfrwt>
<pdfrwt beam="2">  1       21 0.28176143E-01 0.10884361E+03</pdfrwt>
<totfact> 0.24026762E+05</totfact>
</mgrwt>
</event>
<event>
 4    1  0.6024238E+003  0.1015835E+03  0.7546771E-02  0.1277001E+00
         21   -1    0    0  503  501  0.00000000000E+00  0.00000000000E+00  0.10439199599E+04  0.10439199599E+04  0.00000000000E+00 0. -1.
         21   -1    0    0  504  502 -0.00000000000E+00 -0.00000000000E+00 -0.21310191345E+02  0.21310191345E+02  0.00000000000E+00 0. -1.
         21    1    1    2  503  502  0.84003758767E+02  0.57119005564E+02  0.90129209558E+03  0.90699870663E+03  0.00000000000E+00 0. -1.
         21    1    1    2  504  501 -0.84003758767E+02 -0.57119005564E+02  0.12131767293E+03  0.15823144456E+03  0.00000000000E+00 0. -1.
<mgrwt>
<rscale>  2 0.10158352E+03</rscale>
<asrwt>0</asrwt>
<pdfrwt beam="1">  1       21 0.16060303E+00 0.10158352E+03</pdfrwt>
<pdfrwt beam="2">  1       21 0.32784918E-02 0.10158352E+03</pdfrwt>
<totfact> 0.14240991E+05</totfact>
</mgrwt>
</event>
<event>
 4    1  0.6024238E+003  0.1401351E+03  0.7546771E-02  0.1213147E+00
         21   -1    0    0  503  501  0.00000000000E+00  0.00000000000E+00  0.19129222357E+03  0.19129222357E+03  0.00000000000E+00 0.  1.
         21   -1    0    0  501  502 -0.00000000000E+00 -0.00000000000E+00 -0.15173693290E+04  0.15173693290E+04  0.00000000000E+00 0. -1.
         21    1    1    2  503  504 -0.12762793204E+03 -0.57870165762E+02  0.16188590854E+03  0.21411420435E+03  0.00000000000E+00 0.  1.
         21    1    1    2  504  502  0.12762793204E+03  0.57870165762E+02 -0.14879630140E+04  0.14945473482E+04  0.00000000000E+00 0. -1.
<mgrwt>
<rscale>  2 0.14013510E+03</rscale>
<asrwt>0</asrwt>
<pdfrwt beam="1">  1       21 0.29429573E-01 0.14013510E+03</pdfrwt>
<pdfrwt beam="2">  1       21 0.23344143E+00 0.14013510E+03</pdfrwt>
<totfact> 0.99118647E+02</totfact>
</mgrwt>
</event>
<event>
 4    1  0.6024238E+003  0.1060976E+03  0.7546771E-02  0.1267972E+00
         21   -1    0    0  503  501  0.00000000000E+00  0.00000000000E+00  0.19021130828E+03  0.19021130828E+03  0.00000000000E+00 0. -1.
         21   -1    0    0  504  502 -0.00000000000E+00 -0.00000000000E+00 -0.14851103116E+03  0.14851103116E+03  0.00000000000E+00 0. -1.
         21    1    1    2  503  502 -0.68117576228E+02  0.81343119915E+02  0.15220181927E+03  0.18553194102E+03  0.00000000000E+00 0. -1.
         21    1    1    2  504  501  0.68117576228E+02 -0.81343119915E+02 -0.11050154215E+03  0.15319039842E+03  0.00000000000E+00 0. -1.
<mgrwt>
<rscale>  2 0.10609763E+03</rscale>
<asrwt>0</asrwt>
<pdfrwt beam="1">  1       21 0.29263278E-01 0.10609763E+03</pdfrwt>
<pdfrwt beam="2">  1       21 0.22847851E-01 0.10609763E+03</pdfrwt>
<totfact> 0.20575102E+05</totfact>
</mgrwt>
</event>
<event>
 4    1  0.6024238E+003  0.1059382E+03  0.7546771E-02  0.1268282E+00
         21   -1    0    0  504  501  0.00000000000E+00  0.00000000000E+00  0.11775431345E+03  0.11775431345E+03  0.00000000000E+00 0. -1.
         21   -1    0    0  503  502 -0.00000000000E+00 -0.00000000000E+00 -0.19407440768E+03  0.19407440768E+03  0.00000000000E+00 0. -1.
         21    1    1    2  503  501 -0.10590449140E+03 -0.26703207095E+01 -0.14938629527E+03  0.18313699006E+03  0.00000000000E+00 0. -1.
         21    1    1    2  504  502  0.10590449140E+03  0.26703207095E+01  0.73066201038E+02  0.12869173107E+03  0.00000000000E+00 0. -1.
<mgrwt>
<rscale>  2 0.10593815E+03</rscale>
<asrwt>0</asrwt>
<pdfrwt beam="1">  1       21 0.18116048E-01 0.10593815E+03</pdfrwt>
<pdfrwt beam="2">  1       21 0.29857601E-01 0.10593815E+03</pdfrwt>
<totfact> 0.30359225E+05</totfact>
</mgrwt>
</event>
<event>
 4    1  0.6024238E+003  0.1216489E+03  0.7546771E-02  0.1240401E+00
         21   -1    0    0  502  501  0.00000000000E+00  0.00000000000E+00  0.15989735278E+04  0.15989735278E+04  0.00000000000E+00 0.  1.
         21   -1    0    0  504  502 -0.00000000000E+00 -0.00000000000E+00 -0.12119613642E+02  0.12119613642E+02  0.00000000000E+00 0.  1.
         21    1    1    2  503  501  0.10867893279E+03 -0.54656706847E+02  0.11850614216E+04  0.11912888143E+04  0.00000000000E+00 0.  1.
         21    1    1    2  504  503 -0.10867893279E+03  0.54656706847E+02  0.40179249249E+03  0.41980432711E+03  0.00000000000E+00 0.  1.
<mgrwt>
<rscale>  2 0.12164895E+03</rscale>
<asrwt>0</asrwt>
<pdfrwt beam="1">  1       21 0.24599576E+00 0.12164895E+03</pdfrwt>
<pdfrwt beam="2">  1       21 0.18645572E-02 0.12164895E+03</pdfrwt>
<totfact> 0.10229300E+05</totfact>
</mgrwt>
</event>
<event>
 4    1  0.6024238E+003  0.1167128E+03  0.7546771E-02  0.1248621E+00
         21   -1    0    0  503  501  0.00000000000E+00  0.00000000000E+00  0.99378360422E+03  0.99378360422E+03  0.00000000000E+00 0. -1.
         21   -1    0    0  504  502 -0.00000000000E+00 -0.00000000000E+00 -0.16014135798E+02  0.16014135798E+02  0.00000000000E+00 0. -1.
         21    1    1    2  503  502 -0.49591235685E+02 -0.10565309718E+03  0.68052292009E+03  0.69045876949E+03  0.00000000000E+00 0. -1.
         21    1    1    2  504  501  0.49591235685E+02  0.10565309718E+03  0.29724654834E+03  0.31933897053E+03  0.00000000000E+00 0. -1.
<mgrwt>
<rscale>  2 0.11671276E+03</rscale>
<asrwt>0</asrwt>
<pdfrwt beam="1">  1       21 0.15288974E+00 0.11671276E+03</pdfrwt>
<pdfrwt beam="2">  1       21 0.24637140E-02 0.11671276E+03</pdfrwt>
<totfact> 0.25599626E+05</totfact>
</mgrwt>
</event>
<event>
 4    1  0.6024238E+003  0.1190528E+03  0.7546771E-02  0.1244668E+00
         21   -1    0    0  503  501  0.00000000000E+00  0.00000000000E+00  0.68355991648E+02  0.68355991648E+02  0.00000000000E+00 0. -1.
         21   -1    0    0  504  502 -0.00000000000E+00 -0.00000000000E+00 -0.42498746490E+03  0.42498746490E+03  0.00000000000E+00 0. -1.
         21    1    1    2  503  502 -0.78287170033E+02  0.89692224406E+02 -0.17937886824E+01  0.11906634196E+03  0.00000000000E+00 0. -1.
         21    1    1    2  504  501  0.78287170033E+02 -0.89692224406E+02 -0.35483768457E+03  0.37427711458E+03  0.00000000000E+00 0. -1.
<mgrwt>
<rscale>  2 0.11905283E+03</rscale>
<asrwt>0</asrwt>
<pdfrwt beam="1">  1       21 0.10516306E-01 0.11905283E+03</pdfrwt>
<pdfrwt beam="2">  1       21 0.65382687E-01 0.11905283E+03</pdfrwt>
<totfact> 0.16354641E+05</totfact>
</mgrwt>
</event>
<event>
 4    1  0.6024238E+003  0.1228102E+03  0.7546771E-02  0.1238532E+00
         21   -1    0    0  503  501  0.00000000000E+00  0.00000000000E+00  0.23943608896E+03  0.23943608896E+03  0.00000000000E+00 0.  1.
         21   -1    0    0  501  502 -0.00000000000E+00 -0.00000000000E+00 -0.11741329271E+03  0.11741329271E+03  0.00000000000E+00 0. -1.
         21    1    1    2  503  504  0.11541856991E+03  0.41963131270E+02  0.18248564161E+03  0.21996217870E+03  0.00000000000E+00 0.  1.
         21    1    1    2  504  502 -0.11541856991E+03 -0.41963131270E+02 -0.60462845356E+02  0.13688720296E+03  0.00000000000E+00 0. -1.
<mgrwt>
<rscale>  2 0.12281022E+03</rscale>
<asrwt>0</asrwt>
<pdfrwt beam="1">  1       21 0.36836321E-01 0.12281022E+03</pdfrwt>
<pdfrwt beam="2">  1       21 0.18063584E-01 0.12281022E+03</pdfrwt>
<totfact> 0.20205126E+05</totfact>
</mgrwt>
</event>
<event>
 4    1  0.6024238E+003  0.1036448E+03  0.7546771E-02  0.1272813E+00
         21   -1    0    0  504  501  0.00000000000E+00  0.00000000000E+00  0.49979734624E+03  0.49979734624E+03  0.00000000000E+00 0.  1.
         21   -1    0    0  503  502 -0.00000000000E+00 -0.00000000000E+00 -0.30454596141E+02  0.30454596141E+02  0.00000000000E+00 0.  1.
         21    1    1    2  503  501  0.37168205157E+02 -0.96751067227E+02  0.37848951916E+03  0.39242395517E+03  0.00000000000E+00 0.  1.
         21    1    1    2  504  502 -0.37168205157E+02  0.96751067227E+02  0.90853230941E+02  0.13782798720E+03  0.00000000000E+00 0.  1.
<mgrwt>
<rscale>  2 0.10364480E+03</rscale>
<asrwt>0</asrwt>
<pdfrwt beam="1">  1       21 0.76891893E-01 0.10364480E+03</pdfrwt>
<pdfrwt beam="2">  1       21 0.46853228E-02 0.10364480E+03</pdfrwt>
<totfact> 0.45800697E+05</totfact>
</mgrwt>
</event>
<event>
 4    1  0.6024238E+003  0.1029378E+03  0.7546771E-02  0.1274237E+00
         21   -1    0    0  504  501  0.00000000000E+00  0.00000000000E+00  0.53444076590E+02  0.53444076590E+02  0.00000000000E+00 0.  1.
         21   -1    0    0  503  502 -0.00000000000E+00 -0.00000000000E+00 -0.19829378405E+03  0.19829378405E+03  0.00000000000E+00 0.  1.
         21    1    1    2  503  501 -0.58693764409E+02 -0.84564934596E+02 -0.70956595034E+02  0.12502409577E+03  0.00000000000E+00 0.  1.
         21    1    1    2  504  502  0.58693764409E+02  0.84564934596E+02 -0.73893112425E+02  0.12671376487E+03  0.00000000000E+00 0.  1.
<mgrwt>
<rscale>  2 0.10293778E+03</rscale>
<asrwt>0</asrwt>
<pdfrwt beam="1">  1       21 0.82221655E-02 0.10293778E+03</pdfrwt>
<pdfrwt beam="2">  1       21 0.30506736E-01 0.10293778E+03</pdfrwt>
<totfact> 0.11754188E+06</totfact>
</mgrwt>
</event>
<event>
 4    1  0.6024238E+003  0.1066678E+03  0.7546771E-02  0.1266868E+00
         21   -1    0    0  503  501  0.00000000000E+00  0.00000000000E+00  0.37551986462E+02  0.37551986462E+02  0.00000000000E+00 0. -1.
         21   -1    0    0  504  502 -0.00000000000E+00 -0.00000000000E+00 -0.59352822008E+03  0.59352822008E+03  0.00000000000E+00 0. -1.
         21    1    1    2  503  502 -0.10599048155E+03  0.12001116494E+02 -0.57221768739E+02  0.12104684958E+03  0.00000000000E+00 0. -1.
         21    1    1    2  504  501  0.10599048155E+03 -0.12001116494E+02 -0.49875446488E+03  0.51003335696E+03  0.00000000000E+00 0. -1.
<mgrwt>
<rscale>  2 0.10666775E+03</rscale>
<asrwt>0</asrwt>
<pdfrwt beam="1">  1       21 0.57772290E-02 0.10666775E+03</pdfrwt>
<pdfrwt beam="2">  1       21 0.91312028E-01 0.10666775E+03</pdfrwt>
<totfact> 0.21929602E+05</totfact>
</mgrwt>
</event>
<event>
 4    1  0.6024238E+003  0.1375957E+03  0.7546771E-02  0.1216601E+00
         21   -1    0    0  503  501  0.00000000000E+00  0.00000000000E+00  0.18378997776E+02  0.18378997776E+02  0.00000000000E+00 0. -1.
         21   -1    0    0  504  502 -0.00000000000E+00 -0.00000000000E+00 -0.12046045107E+04  0.12046045107E+04  0.00000000000E+00 0. -1.
         21    1    1    2  503  502 -0.13741933705E+03  0.69649843574E+01 -0.82583933722E+03  0.83722350427E+03  0.00000000000E+00 0. -1.
         21    1    1    2  504  501  0.13741933705E+03 -0.69649843574E+01 -0.36038617566E+03  0.38576000416E+03  0.00000000000E+00 0. -1.
<mgrwt>
<rscale>  2 0.13759573E+03</rscale>
<asrwt>0</asrwt>
<pdfrwt beam="1">  1       21 0.28275376E-02 0.13759573E+03</pdfrwt>
<pdfrwt beam="2">  1       21 0.18532380E+00 0.13759573E+03</pdfrwt>
<totfact> 0.12046253E+05</totfact>
</mgrwt>
</event>
<event>
 4    1  0.6024238E+003  0.1103775E+03  0.7546771E-02  0.1259872E+00
         21   -1    0    0  504  501  0.00000000000E+00  0.00000000000E+00  0.14366114596E+03  0.14366114596E+03  0.00000000000E+00 0.  1.
         21   -1    0    0  503  502 -0.00000000000E+00 -0.00000000000E+00 -0.12210064392E+03  0.12210064392E+03  0.00000000000E+00 0.  1.
         21    1    1    2  503  501 -0.98663489025E+02 -0.49484388722E+02 -0.62659704792E+02  0.12692291912E+03  0.00000000000E+00 0.  1.
         21    1    1    2  504  502  0.98663489025E+02  0.49484388722E+02  0.84220206831E+02  0.13883887075E+03  0.00000000000E+00 0.  1.
<mgrwt>
<rscale>  2 0.11037748E+03</rscale>
<asrwt>0</asrwt>
<pdfrwt beam="1">  1       21 0.22101715E-01 0.11037748E+03</pdfrwt>
<pdfrwt beam="2">  1       21 0.18784714E-01 0.11037748E+03</pdfrwt>
<totfact> 0.50100319E+05</totfact>
</mgrwt>
</event>
<event>
 4    1  0.6024238E+003  0.1120713E+03  0.7546771E-02  0.1256782E+00
         21   -1    0    0  504  501  0.00000000000E+00  0.00000000000E+00  0.61989084640E+02  0.61989084640E+02  0.00000000000E+00 0. -1.
         21   -1    0    0  503  502 -0.00000000000E+00 -0.00000000000E+00 -0.23353039631E+03  0.23353039631E+03  0.00000000000E+00 0. -1.
         21    1    1    2  503  501  0.85355953927E+02  0.72624561047E+02 -0.32009765199E+02  0.11655295280E+03  0.00000000000E+00 0. -1.
         21    1    1    2  504  502 -0.85355953927E+02 -0.72624561047E+02 -0.13953154647E+03  0.17896652815E+03  0.00000000000E+00 0. -1.
<mgrwt>
<rscale>  2 0.11207125E+03</rscale>
<asrwt>0</asrwt>
<pdfrwt beam="1">  1       21 0.95367822E-02 0.11207125E+03</pdfrwt>
<pdfrwt beam="2">  1       21 0.35927753E-01 0.11207125E+03</pdfrwt>
<totfact> 0.66284252E+05</totfact>
</mgrwt>
</event>
<event>
 4    1  0.6024238E+003  0.1165008E+03  0.7546771E-02  0.1248984E+00
         21   -1    0    0  502  501  0.00000000000E+00  0.00000000000E+00  0.25144421135E+03  0.25144421135E+03  0.00000000000E+00 0.  1.
         21   -1    0    0  503  502 -0.00000000000E+00 -0.00000000000E+00 -0.51635088964E+03  0.51635088964E+03  0.00000000000E+00 0.  1.
         21    1    1    2  503  504  0.76019658618E+02  0.88280554577E+02 -0.49573132208E+03  0.50923667239E+03  0.00000000000E+00 0.  1.
         21    1    1    2  504  501 -0.76019658618E+02 -0.88280554577E+02  0.23082464380E+03  0.25855842860E+03  0.00000000000E+00 0.  1.
<mgrwt>
<rscale>  2 0.11650084E+03</rscale>
<asrwt>0</asrwt>
<pdfrwt beam="1">  1       21 0.38683725E-01 0.11650084E+03</pdfrwt>
<pdfrwt beam="2">  1       21 0.79438598E-01 0.11650084E+03</pdfrwt>
<totfact> 0.95795601E+03</totfact>
</mgrwt>
</event>
<event>
 4    1  0.6024238E+003  0.1082541E+03  0.7546771E-02  0.1263838E+00
         21   -1    0    0  502  501  0.00000000000E+00  0.00000000000E+00  0.84835539025E+02  0.84835539025E+02  0.00000000000E+00 0. -1.
         21   -1    0    0  503  502 -0.00000000000E+00 -0.00000000000E+00 -0.92758356151E+03  0.92758356151E+03  0.00000000000E+00 0. -1.
         21    1    1    2  503  504 -0.37598449763E+02  0.10151501589E+03 -0.88837213172E+03  0.89494356598E+03  0.00000000000E+00 0. -1.
         21    1    1    2  504  501  0.37598449763E+02 -0.10151501589E+03  0.45624109233E+02  0.11747553456E+03  0.00000000000E+00 0. -1.
<mgrwt>
<rscale>  2 0.10825406E+03</rscale>
<asrwt>0</asrwt>
<pdfrwt beam="1">  1       21 0.13051622E-01 0.10825406E+03</pdfrwt>
<pdfrwt beam="2">  1       21 0.14270516E+00 0.10825406E+03</pdfrwt>
<totfact> 0.18379311E+04</totfact>
</mgrwt>
</event>
<event>
 4    1  0.6024238E+003  0.1034142E+03  0.7546771E-02  0.1273276E+00
         21   -1    0    0  503  501  0.00000000000E+00  0.00000000000E+00  0.23036588748E+04  0.23036588748E+04  0.00000000000E+00 0.  1.
         21   -1    0    0  504  502 -0.00000000000E+00 -0.00000000000E+00 -0.79069914257E+01  0.79069914257E+01  0.00000000000E+00 0.  1.
         21    1    1    2  503  502  0.10325413149E+03 -0.57515344108E+01  0.40522394345E+03  0.41821159736E+03  0.00000000000E+00 0.  1.
         21    1    1    2  504  501 -0.10325413149E+03  0.57515344108E+01  0.18905279399E+04  0.18933542689E+04  0.00000000000E+00 0.  1.
<mgrwt>
<rscale>  2 0.10341420E+03</rscale>
<asrwt>0</asrwt>
<pdfrwt beam="1">  1       21 0.35440852E+00 0.10341420E+03</pdfrwt>
<pdfrwt beam="2">  1       21 0.12164621E-02 0.10341420E+03</pdfrwt>
<totfact> 0.50881987E+04</totfact>
</mgrwt>
</event>
<event>
 4    1  0.6024238E+003  0.1158807E+03  0.7546771E-02  0.1250052E+00
         21   -1    0    0  504  501  0.00000000000E+00  0.00000000000E+00  0.96088840693E+02  0.96088840693E+02  0.00000000000E+00 0. -1.
         21   -1    0    0  503  502 -0.00000000000E+00 -0.00000000000E+00 -0.59787089286E+03  0.59787089286E+03  0.00000000000E+00 0.  1.
         21    1    1    2  503  501 -0.10809639474E+03  0.41755352624E+02 -0.55462333542E+03  0.56659984488E+03  0.00000000000E+00 0.  1.
         21    1    1    2  504  502  0.10809639474E+03 -0.41755352624E+02  0.52841283250E+02  0.12735988868E+03  0.00000000000E+00 0. -1.
<mgrwt>
<rscale>  2 0.11588071E+03</rscale>
<asrwt>0</asrwt>
<pdfrwt beam="1">  1       21 0.14782899E-01 0.11588071E+03</pdfrwt>
<pdfrwt beam="2">  1       21 0.91980136E-01 0.11588071E+03</pdfrwt>
<totfact> 0.42035681E+04</totfact>
</mgrwt>
</event>
<event>
 4    1  0.6024238E+003  0.1059545E+03  0.7546771E-02  0.1268250E+00
         21   -1    0    0  503  501  0.00000000000E+00  0.00000000000E+00  0.24247526240E+04  0.24247526240E+04  0.00000000000E+00 0. -1.
         21   -1    0    0  501  502 -0.00000000000E+00 -0.00000000000E+00 -0.64724595063E+02  0.64724595063E+02  0.00000000000E+00 0.  1.
         21    1    1    2  503  504 -0.90972534093E+02 -0.54317137710E+02  0.23794071826E+04  0.23817650795E+04  0.00000000000E+00 0. -1.
         21    1    1    2  504  502  0.90972534093E+02  0.54317137710E+02 -0.19379153662E+02  0.10771213954E+03  0.00000000000E+00 0.  1.
<mgrwt>
<rscale>  2 0.10595449E+03</rscale>
<asrwt>0</asrwt>
<pdfrwt beam="1">  1       21 0.37303879E+00 0.10595449E+03</pdfrwt>
<pdfrwt beam="2">  1       21 0.99576319E-02 0.10595449E+03</pdfrwt>
<totfact> 0.12357995E+03</totfact>
</mgrwt>
</event>
<event>
 4    1  0.6024238E+003  0.1035046E+03  0.7546771E-02  0.1273094E+00
         21   -1    0    0  504  501  0.00000000000E+00  0.00000000000E+00  0.28907854248E+03  0.28907854248E+03  0.00000000000E+00 0. -1.
         21   -1    0    0  503  502 -0.00000000000E+00 -0.00000000000E+00 -0.35418183619E+03  0.35418183619E+03  0.00000000000E+00 0. -1.
         21    1    1    2  503  501  0.60381645022E+02 -0.84067042142E+02 -0.33689010263E+03  0.35243176911E+03  0.00000000000E+00 0. -1.
         21    1    1    2  504  502 -0.60381645022E+02  0.84067042142E+02  0.27178680892E+03  0.29082860955E+03  0.00000000000E+00 0. -1.
<mgrwt>
<rscale>  2 0.10350464E+03</rscale>
<asrwt>0</asrwt>
<pdfrwt beam="1">  1       21 0.44473622E-01 0.10350464E+03</pdfrwt>
<pdfrwt beam="2">  1       21 0.54489513E-01 0.10350464E+03</pdfrwt>
<totfact> 0.16499856E+04</totfact>
</mgrwt>
</event>
<event>
 4    1  0.6024238E+003  0.1714641E+03  0.7546771E-02  0.1176330E+00
         21   -1    0    0  503  501  0.00000000000E+00  0.00000000000E+00  0.28248306717E+03  0.28248306717E+03  0.00000000000E+00 0.  1.
         21   -1    0    0  501  502 -0.00000000000E+00 -0.00000000000E+00 -0.16230857093E+03  0.16230857093E+03  0.00000000000E+00 0. -1.
         21    1    1    2  503  504 -0.11340765358E+03  0.12860269564E+03  0.19329689756E+03  0.25838660922E+03  0.00000000000E+00 0.  1.
         21    1    1    2  504  502  0.11340765358E+03 -0.12860269564E+03 -0.73122401327E+02  0.18640502888E+03  0.00000000000E+00 0. -1.
<mgrwt>
<rscale>  2 0.17146413E+03</rscale>
<asrwt>0</asrwt>
<pdfrwt beam="1">  1       21 0.43458933E-01 0.17146413E+03</pdfrwt>
<pdfrwt beam="2">  1       21 0.24970549E-01 0.17146413E+03</pdfrwt>
<totfact> 0.77947324E+04</totfact>
</mgrwt>
</event>
<event>
 4    1  0.6024238E+003  0.1550241E+03  0.7546771E-02  0.1194432E+00
         21   -1    0    0  503  501  0.00000000000E+00  0.00000000000E+00  0.12064502855E+03  0.12064502855E+03  0.00000000000E+00 0. -1.
         21   -1    0    0  504  502 -0.00000000000E+00 -0.00000000000E+00 -0.27148096485E+03  0.27148096485E+03  0.00000000000E+00 0. -1.
         21    1    1    2  503  502 -0.85363676626E+01  0.15478886890E+03  0.25748960819E+02  0.15714793187E+03  0.00000000000E+00 0. -1.
         21    1    1    2  504  501  0.85363676626E+01 -0.15478886890E+03 -0.17658489712E+03  0.23497806153E+03  0.00000000000E+00 0. -1.
<mgrwt>
<rscale>  2 0.15502407E+03</rscale>
<asrwt>0</asrwt>
<pdfrwt beam="1">  1       21 0.18560774E-01 0.15502407E+03</pdfrwt>
<pdfrwt beam="2">  1       21 0.41766302E-01 0.15502407E+03</pdfrwt>
<totfact> 0.14822336E+05</totfact>
</mgrwt>
</event>
<event>
 4    1  0.6024238E+003  0.1101398E+03  0.7546771E-02  0.1260311E+00
         21   -1    0    0  503  501  0.00000000000E+00  0.00000000000E+00  0.17914645262E+03  0.17914645262E+03  0.00000000000E+00 0.  1.
         21   -1    0    0  504  502 -0.00000000000E+00 -0.00000000000E+00 -0.11084909502E+04  0.11084909502E+04  0.00000000000E+00 0. -1.
         21    1    1    2  503  502 -0.43850533767E+01  0.11005250136E+03  0.15917214413E+03  0.19356278882E+03  0.00000000000E+00 0.  1.
         21    1    1    2  504  501  0.43850533767E+01 -0.11005250136E+03 -0.10885166417E+04  0.10940746140E+04  0.00000000000E+00 0. -1.
<mgrwt>
<rscale>  2 0.11013983E+03</rscale>
<asrwt>0</asrwt>
<pdfrwt beam="1">  1       21 0.27560993E-01 0.11013983E+03</pdfrwt>
<pdfrwt beam="2">  1       21 0.17053707E+00 0.11013983E+03</pdfrwt>
<totfact> 0.29259345E+03</totfact>
</mgrwt>
</event>
<event>
 4    1  0.6024238E+003  0.1157356E+03  0.7546771E-02  0.1250303E+00
         21   -1    0    0  503  501  0.00000000000E+00  0.00000000000E+00  0.22332648771E+02  0.22332648771E+02  0.00000000000E+00 0.  1.
         21   -1    0    0  504  502 -0.00000000000E+00 -0.00000000000E+00 -0.60334439538E+03  0.60334439538E+03  0.00000000000E+00 0.  1.
         21    1    1    2  503  502 -0.52833323865E+02 -0.10297264562E+03 -0.26646807456E+03  0.29051671314E+03  0.00000000000E+00 0.  1.
         21    1    1    2  504  501  0.52833323865E+02  0.10297264562E+03 -0.31454367205E+03  0.33516033101E+03  0.00000000000E+00 0.  1.
<mgrwt>
<rscale>  2 0.11573559E+03</rscale>
<asrwt>0</asrwt>
<pdfrwt beam="1">  1       21 0.34357926E-02 0.11573559E+03</pdfrwt>
<pdfrwt beam="2">  1       21 0.92822200E-01 0.11573559E+03</pdfrwt>
<totfact> 0.50052864E+05</totfact>
</mgrwt>
</event>
<event>
 4    1  0.6024238E+003  0.1000770E+03  0.7546771E-02  0.1280134E+00
         21   -1    0    0  504  501  0.00000000000E+00  0.00000000000E+00  0.95446966991E+02  0.95446966991E+02  0.00000000000E+00 0. -1.
         21   -1    0    0  501  502 -0.00000000000E+00 -0.00000000000E+00 -0.36190923932E+03  0.36190923932E+03  0.00000000000E+00 0.  1.
         21    1    1    2  503  502  0.60212958956E+02 -0.79936242438E+02 -0.32592700796E+03  0.34094547628E+03  0.00000000000E+00 0.  1.
         21    1    1    2  504  503 -0.60212958956E+02  0.79936242438E+02  0.59464735631E+02  0.11641073003E+03  0.00000000000E+00 0. -1.
<mgrwt>
<rscale>  2 0.10007699E+03</rscale>
<asrwt>0</asrwt>
<pdfrwt beam="1">  1       21 0.14684148E-01 0.10007699E+03</pdfrwt>
<pdfrwt beam="2">  1       21 0.55678346E-01 0.10007699E+03</pdfrwt>
<totfact> 0.12821157E+05</totfact>
</mgrwt>
</event>
<event>
 4    1  0.6024238E+003  0.1078587E+03  0.7546771E-02  0.1264587E+00
         21   -1    0    0  504  501  0.00000000000E+00  0.00000000000E+00  0.21301867587E+03  0.21301867587E+03  0.00000000000E+00 0.  1.
         21   -1    0    0  501  502 -0.00000000000E+00 -0.00000000000E+00 -0.66825902414E+02  0.66825902414E+02  0.00000000000E+00 0.  1.
         21    1    1    2  503  502  0.11245997505E+02 -0.10727079197E+03  0.13278406102E+02  0.10867295587E+03  0.00000000000E+00 0.  1.
         21    1    1    2  504  503 -0.11245997505E+02  0.10727079197E+03  0.13291436735E+03  0.17117162241E+03  0.00000000000E+00 0.  1.
<mgrwt>
<rscale>  2 0.10785868E+03</rscale>
<asrwt>0</asrwt>
<pdfrwt beam="1">  1       21 0.32772104E-01 0.10785868E+03</pdfrwt>
<pdfrwt beam="2">  1       21 0.10280908E-01 0.10785868E+03</pdfrwt>
<totfact> 0.69577825E+05</totfact>
</mgrwt>
</event>
<event>
 4    1  0.6024238E+003  0.1645085E+03  0.7546771E-02  0.1183699E+00
         21   -1    0    0  503  501  0.00000000000E+00  0.00000000000E+00  0.53342804220E+03  0.53342804220E+03  0.00000000000E+00 0. -1.
         21   -1    0    0  501  502 -0.00000000000E+00 -0.00000000000E+00 -0.55406806676E+02  0.55406806676E+02  0.00000000000E+00 0. -1.
         21    1    1    2  503  504  0.14114514682E+03 -0.84505081693E+02  0.32450944137E+03  0.36382611072E+03  0.00000000000E+00 0. -1.
         21    1    1    2  504  502 -0.14114514682E+03  0.84505081693E+02  0.15351179416E+03  0.22500873816E+03  0.00000000000E+00 0. -1.
<mgrwt>
<rscale>  2 0.16450854E+03</rscale>
<asrwt>0</asrwt>
<pdfrwt beam="1">  1       21 0.82065849E-01 0.16450854E+03</pdfrwt>
<pdfrwt beam="2">  1       21 0.85241245E-02 0.16450854E+03</pdfrwt>
<totfact> 0.14089550E+05</totfact>
</mgrwt>
</event>
<event>
 4    1  0.6024238E+003  0.1680954E+03  0.7546771E-02  0.1179849E+00
         21   -1    0    0  502  501  0.00000000000E+00  0.00000000000E+00  0.12427460240E+04  0.12427460240E+04  0.00000000000E+00 0.  1.
         21   -1    0    0  503  502 -0.00000000000E+00 -0.00000000000E+00 -0.37596800608E+02  0.37596800608E+02  0.00000000000E+00 0. -1.
         21    1    1    2  503  504 -0.12129254358E+03  0.11637944735E+03  0.20010752178E+03  0.26134092134E+03  0.00000000000E+00 0. -1.
         21    1    1    2  504  501  0.12129254358E+03 -0.11637944735E+03  0.10050417017E+04  0.10190019033E+04  0.00000000000E+00 0.  1.
<mgrwt>
<rscale>  2 0.16809538E+03</rscale>
<asrwt>0</asrwt>
<pdfrwt beam="1">  1       21 0.19119167E+00 0.16809538E+03</pdfrwt>
<pdfrwt beam="2">  1       21 0.57841241E-02 0.16809538E+03</pdfrwt>
<totfact> 0.32722747E+04</totfact>
</mgrwt>
</event>
<event>
 4    1  0.6024238E+003  0.1494378E+03  0.7546771E-02  0.1201166E+00
         21   -1    0    0  504  501  0.00000000000E+00  0.00000000000E+00  0.15160355317E+03  0.15160355317E+03  0.00000000000E+00 0. -1.
         21   -1    0    0  503  502 -0.00000000000E+00 -0.00000000000E+00 -0.14734095399E+03  0.14734095399E+03  0.00000000000E+00 0.  1.
         21    1    1    2  503  501 -0.84706431080E+02 -0.12311162912E+03  0.45314311566E+01  0.14950647665E+03  0.00000000000E+00 0. -1.
         21    1    1    2  504  502  0.84706431080E+02  0.12311162912E+03 -0.26883198146E+00  0.14943803051E+03  0.00000000000E+00 0.  1.
<mgrwt>
<rscale>  2 0.14943779E+03</rscale>
<asrwt>0</asrwt>
<pdfrwt beam="1">  1       21 0.23323624E-01 0.14943779E+03</pdfrwt>
<pdfrwt beam="2">  1       21 0.22667839E-01 0.14943779E+03</pdfrwt>
<totfact> 0.31823316E+05</totfact>
</mgrwt>
</event>
<event>
 4    1  0.6024238E+003  0.1729948E+03  0.7546771E-02  0.1174760E+00
         21   -1    0    0  504  501  0.00000000000E+00  0.00000000000E+00  0.14565284272E+03  0.14565284272E+03  0.00000000000E+00 0.  1.
         21   -1    0    0  501  502 -0.00000000000E+00 -0.00000000000E+00 -0.62152230121E+03  0.62152230121E+03  0.00000000000E+00 0.  1.
         21    1    1    2  503  502 -0.13597598048E+03 -0.10694734188E+03 -0.55177628686E+03  0.57825969248E+03  0.00000000000E+00 0.  1.
         21    1    1    2  504  503  0.13597598048E+03  0.10694734188E+03  0.75906828365E+02  0.18891545145E+03  0.00000000000E+00 0.  1.
<mgrwt>
<rscale>  2 0.17299480E+03</rscale>
<asrwt>0</asrwt>
<pdfrwt beam="1">  1       21 0.22408130E-01 0.17299480E+03</pdfrwt>
<pdfrwt beam="2">  1       21 0.95618814E-01 0.17299480E+03</pdfrwt>
<totfact> 0.17228601E+04</totfact>
</mgrwt>
</event>
<event>
 4    1  0.6024238E+003  0.1057241E+03  0.7546771E-02  0.1268699E+00
         21   -1    0    0  504  501  0.00000000000E+00  0.00000000000E+00  0.84203706594E+03  0.84203706594E+03  0.00000000000E+00 0.  1.
         21   -1    0    0  503  502 -0.00000000000E+00 -0.00000000000E+00 -0.13800146587E+02  0.13800146587E+02  0.00000000000E+00 0.  1.
         21    1    1    2  503  501 -0.10572387001E+03 -0.22304765272E+00  0.49763706155E+03  0.50874377782E+03  0.00000000000E+00 0.  1.
         21    1    1    2  504  502  0.10572387001E+03  0.22304765272E+00  0.33059985781E+03  0.34709343471E+03  0.00000000000E+00 0.  1.
<mgrwt>
<rscale>  2 0.10572411E+03</rscale>
<asrwt>0</asrwt>
<pdfrwt beam="1">  1       21 0.12954412E+00 0.10572411E+03</pdfrwt>
<pdfrwt beam="2">  1       21 0.21231001E-02 0.10572411E+03</pdfrwt>
<totfact> 0.49668371E+05</totfact>
</mgrwt>
</event>
<event>
 4    1  0.6024238E+003  0.1026434E+03  0.7546771E-02  0.1274833E+00
         21   -1    0    0  504  501  0.00000000000E+00  0.00000000000E+00  0.19691569518E+03  0.19691569518E+03  0.00000000000E+00 0. -1.
         21   -1    0    0  503  502 -0.00000000000E+00 -0.00000000000E+00 -0.16095540163E+03  0.16095540163E+03  0.00000000000E+00 0.  1.
         21    1    1    2  503  501  0.10256672985E+03  0.39670438134E+01  0.16418136094E+03  0.19362642069E+03  0.00000000000E+00 0. -1.
         21    1    1    2  504  502 -0.10256672985E+03 -0.39670438134E+01 -0.12822106739E+03  0.16424467611E+03  0.00000000000E+00 0.  1.
<mgrwt>
<rscale>  2 0.10264342E+03</rscale>
<asrwt>0</asrwt>
<pdfrwt beam="1">  1       21 0.30294722E-01 0.10264342E+03</pdfrwt>
<pdfrwt beam="2">  1       21 0.24762369E-01 0.10264342E+03</pdfrwt>
<totfact> 0.16582174E+05</totfact>
</mgrwt>
</event>
<event>
 4    1  0.6024238E+003  0.1768023E+03  0.7546771E-02  0.1170934E+00
         21   -1    0    0  504  501  0.00000000000E+00  0.00000000000E+00  0.59291488480E+03  0.59291488480E+03  0.00000000000E+00 0.  1.
         21   -1    0    0  503  502 -0.00000000000E+00 -0.00000000000E+00 -0.32434809930E+03  0.32434809930E+03  0.00000000000E+00 0. -1.
         21    1    1    2  503  501  0.22085583398E+01  0.17678849484E+03 -0.28542220658E+03  0.33574526899E+03  0.00000000000E+00 0. -1.
         21    1    1    2  504  502 -0.22085583398E+01 -0.17678849484E+03  0.55398899208E+03  0.58151771511E+03  0.00000000000E+00 0.  1.
<mgrwt>
<rscale>  2 0.17680229E+03</rscale>
<asrwt>0</asrwt>
<pdfrwt beam="1">  1       21 0.91217674E-01 0.17680229E+03</pdfrwt>
<pdfrwt beam="2">  1       21 0.49899708E-01 0.17680229E+03</pdfrwt>
<totfact> 0.39488933E+03</totfact>
</mgrwt>
</event>
<event>
 4    1  0.6024238E+003  0.1266864E+03  0.7546771E-02  0.1232457E+00
         21   -1    0    0  504  501  0.00000000000E+00  0.00000000000E+00  0.12407429523E+02  0.12407429523E+02  0.00000000000E+00 0. -1.
         21   -1    0    0  503  502 -0.00000000000E+00 -0.00000000000E+00 -0.18084896666E+04  0.18084896666E+04  0.00000000000E+00 0. -1.
         21    1    1    2  503  501 -0.88154205647E+02  0.90985001091E+02 -0.13838687695E+04  0.13896554269E+04  0.00000000000E+00 0. -1.
         21    1    1    2  504  502  0.88154205647E+02 -0.90985001091E+02 -0.41221346758E+03  0.43124166920E+03  0.00000000000E+00 0. -1.
<mgrwt>
<rscale>  2 0.12668636E+03</rscale>
<asrwt>0</asrwt>
<pdfrwt beam="1">  1       21 0.19088365E-02 0.12668636E+03</pdfrwt>
<pdfrwt beam="2">  1       21 0.27822900E+00 0.12668636E+03</pdfrwt>
<totfact> 0.64330133E+04</totfact>
</mgrwt>
</event>
<event>
 4    1  0.6024238E+003  0.1463312E+03  0.7546771E-02  0.1205055E+00
         21   -1    0    0  502  501  0.00000000000E+00  0.00000000000E+00  0.88203548201E+03  0.88203548201E+03  0.00000000000E+00 0.  1.
         21   -1    0    0  503  502 -0.00000000000E+00 -0.00000000000E+00 -0.24385357814E+02  0.24385357814E+02  0.00000000000E+00 0.  1.
         21    1    1    2  503  504 -0.12392247851E+03  0.77820598842E+02  0.45909121173E+03  0.48184807458E+03  0.00000000000E+00 0.  1.
         21    1    1    2  504  501  0.12392247851E+03 -0.77820598842E+02  0.39855891247E+03  0.42457276525E+03  0.00000000000E+00 0.  1.
<mgrwt>
<rscale>  2 0.14633122E+03</rscale>
<asrwt>0</asrwt>
<pdfrwt beam="1">  1       21 0.13569774E+00 0.14633122E+03</pdfrwt>
<pdfrwt beam="2">  1       21 0.37515942E-02 0.14633122E+03</pdfrwt>
<totfact> 0.17225060E+05</totfact>
</mgrwt>
</event>
<event>
 4    1  0.6024238E+003  0.1042724E+03  0.7546771E-02  0.1271560E+00
         21   -1    0    0  503  501  0.00000000000E+00  0.00000000000E+00  0.85729589623E+03  0.85729589623E+03  0.00000000000E+00 0. -1.
         21   -1    0    0  504  502 -0.00000000000E+00 -0.00000000000E+00 -0.12781837324E+02  0.12781837324E+02  0.00000000000E+00 0. -1.
         21    1    1    2  503  502  0.10427236849E+03 -0.12606610070E+00  0.46058928438E+03  0.47224488521E+03  0.00000000000E+00 0. -1.
         21    1    1    2  504  501 -0.10427236849E+03  0.12606610070E+00  0.38392477452E+03  0.39783284834E+03  0.00000000000E+00 0. -1.
<mgrwt>
<rscale>  2 0.10427244E+03</rscale>
<asrwt>0</asrwt>
<pdfrwt beam="1">  1       21 0.13189163E+00 0.10427244E+03</pdfrwt>
<pdfrwt beam="2">  1       21 0.19664372E-02 0.10427244E+03</pdfrwt>
<totfact> 0.53758478E+05</totfact>
</mgrwt>
</event>
<event>
 4    1  0.6024238E+003  0.1022682E+03  0.7546771E-02  0.1275597E+00
         21   -1    0    0  503  501  0.00000000000E+00  0.00000000000E+00  0.60538519313E+03  0.60538519313E+03  0.00000000000E+00 0. -1.
         21   -1    0    0  501  502 -0.00000000000E+00 -0.00000000000E+00 -0.54450554929E+02  0.54450554929E+02  0.00000000000E+00 0. -1.
         21    1    1    2  503  504  0.43657530343E+02 -0.92481428777E+02  0.54806743408E+03  0.55752731496E+03  0.00000000000E+00 0. -1.
         21    1    1    2  504  502 -0.43657530343E+02  0.92481428777E+02  0.28672041209E+01  0.10230843310E+03  0.00000000000E+00 0. -1.
<mgrwt>
<rscale>  2 0.10226825E+03</rscale>
<asrwt>0</asrwt>
<pdfrwt beam="1">  1       21 0.93136179E-01 0.10226825E+03</pdfrwt>
<pdfrwt beam="2">  1       21 0.83770089E-02 0.10226825E+03</pdfrwt>
<totfact> 0.11161312E+05</totfact>
</mgrwt>
</event>
<event>
 4    1  0.6024238E+003  0.1010196E+03  0.7546771E-02  0.1278166E+00
         21   -1    0    0  504  501  0.00000000000E+00  0.00000000000E+00  0.46932456325E+02  0.46932456325E+02  0.00000000000E+00 0.  1.
         21   -1    0    0  501  502 -0.00000000000E+00 -0.00000000000E+00 -0.25926152723E+03  0.25926152723E+03  0.00000000000E+00 0. -1.
         21    1    1    2  503  502 -0.86784624691E+01 -0.10064611649E+03 -0.16765413123E+03  0.19573672163E+03  0.00000000000E+00 0. -1.
         21    1    1    2  504  503  0.86784624691E+01  0.10064611649E+03 -0.44674939670E+02  0.11045726192E+03  0.00000000000E+00 0.  1.
<mgrwt>
<rscale>  2 0.10101958E+03</rscale>
<asrwt>0</asrwt>
<pdfrwt beam="1">  1       21 0.72203779E-02 0.10101958E+03</pdfrwt>
<pdfrwt beam="2">  1       21 0.39886389E-01 0.10101958E+03</pdfrwt>
<totfact> 0.86969320E+05</totfact>
</mgrwt>
</event>
<event>
 4    1  0.6024238E+003  0.1162179E+03  0.7546771E-02  0.1249470E+00
         21   -1    0    0  504  501  0.00000000000E+00  0.00000000000E+00  0.24563990096E+02  0.24563990096E+02  0.00000000000E+00 0.  1.
         21   -1    0    0  503  502 -0.00000000000E+00 -0.00000000000E+00 -0.55400406826E+03  0.55400406826E+03  0.00000000000E+00 0.  1.
         21    1    1    2  503  501 -0.44080210202E+02 -0.10753388757E+03 -0.28975858056E+03  0.31219647166E+03  0.00000000000E+00 0.  1.
         21    1    1    2  504  502  0.44080210202E+02  0.10753388757E+03 -0.23968149761E+03  0.26637158670E+03  0.00000000000E+00 0.  1.
<mgrwt>
<rscale>  2 0.11621791E+03</rscale>
<asrwt>0</asrwt>
<pdfrwt beam="1">  1       21 0.37790757E-02 0.11621791E+03</pdfrwt>
<pdfrwt beam="2">  1       21 0.85231389E-01 0.11621791E+03</pdfrwt>
<totfact> 0.51932978E+05</totfact>
</mgrwt>
</event>
<event>
 4    1  0.6024238E+003  0.1162107E+03  0.7546771E-02  0.1249482E+00
         21   -1    0    0  503  501  0.00000000000E+00  0.00000000000E+00  0.14493628427E+04  0.14493628427E+04  0.00000000000E+00 0. -1.
         21   -1    0    0  504  502 -0.00000000000E+00 -0.00000000000E+00 -0.30065252654E+02  0.30065252654E+02  0.00000000000E+00 0. -1.
         21    1    1    2  503  502 -0.10342163875E+03 -0.52998930037E+02  0.95160696599E+02  0.15020146512E+03  0.00000000000E+00 0. -1.
         21    1    1    2  504  501  0.10342163875E+03  0.52998930037E+02  0.13241368934E+04  0.13292266302E+04  0.00000000000E+00 0. -1.
<mgrwt>
<rscale>  2 0.11621068E+03</rscale>
<asrwt>0</asrwt>
<pdfrwt beam="1">  1       21 0.22297884E+00 0.11621068E+03</pdfrwt>
<pdfrwt beam="2">  1       21 0.46254246E-02 0.11621068E+03</pdfrwt>
<totfact> 0.31675102E+04</totfact>
</mgrwt>
</event>
<event>
 4    1  0.6024238E+003  0.1001096E+03  0.7546771E-02  0.1280066E+00
         21   -1    0    0  502  501  0.00000000000E+00  0.00000000000E+00  0.20410343974E+03  0.20410343974E+03  0.00000000000E+00 0.  1.
         21   -1    0    0  504  502 -0.00000000000E+00 -0.00000000000E+00 -0.70677810743E+02  0.70677810743E+02  0.00000000000E+00 0. -1.
         21    1    1    2  503  501 -0.99306686132E+02 -0.12653779868E+02  0.14262241458E+03  0.17425007660E+03  0.00000000000E+00 0.  1.
         21    1    1    2  504  503  0.99306686132E+02  0.12653779868E+02 -0.91967855885E+01  0.10053117387E+03  0.00000000000E+00 0. -1.
<mgrwt>
<rscale>  2 0.10010962E+03</rscale>
<asrwt>0</asrwt>
<pdfrwt beam="1">  1       21 0.31400529E-01 0.10010962E+03</pdfrwt>
<pdfrwt beam="2">  1       21 0.10873509E-01 0.10010962E+03</pdfrwt>
<totfact> 0.68500322E+05</totfact>
</mgrwt>
</event>
<event>
 4    1  0.6024238E+003  0.1185128E+03  0.7546771E-02  0.1245571E+00
         21   -1    0    0  504  501  0.00000000000E+00  0.00000000000E+00  0.45005687808E+03  0.45005687808E+03  0.00000000000E+00 0.  1.
         21   -1    0    0  503  502 -0.00000000000E+00 -0.00000000000E+00 -0.31466375784E+02  0.31466375784E+02  0.00000000000E+00 0.  1.
         21    1    1    2  503  501 -0.35826316069E+02  0.11296796114E+03  0.23112041916E+03  0.25973435144E+03  0.00000000000E+00 0.  1.
         21    1    1    2  504  502  0.35826316069E+02 -0.11296796114E+03  0.18747008314E+03  0.22178890242E+03  0.00000000000E+00 0.  1.
<mgrwt>
<rscale>  2 0.11851281E+03</rscale>
<asrwt>0</asrwt>
<pdfrwt beam="1">  1       21 0.69239515E-01 0.11851281E+03</pdfrwt>
<pdfrwt beam="2">  1       21 0.48409812E-02 0.11851281E+03</pdfrwt>
<totfact> 0.54461662E+05</totfact>
</mgrwt>
</event>
<event>
 4    1  0.6024238E+003  0.1300686E+03  0.7546771E-02  0.1227354E+00
         21   -1    0    0  503  501  0.00000000000E+00  0.00000000000E+00  0.56609609265E+03  0.56609609265E+03  0.00000000000E+00 0.  1.
         21   -1    0    0  504  502 -0.00000000000E+00 -0.00000000000E+00 -0.70503620600E+02  0.70503620600E+02  0.00000000000E+00 0.  1.
         21    1    1    2  503  502  0.90615654234E+02 -0.93309426382E+02  0.61985819934E+01  0.13021623656E+03  0.00000000000E+00 0.  1.
         21    1    1    2  504  501 -0.90615654234E+02  0.93309426382E+02  0.48939389006E+03  0.50638347670E+03  0.00000000000E+00 0.  1.
<mgrwt>
<rscale>  2 0.13006862E+03</rscale>
<asrwt>0</asrwt>
<pdfrwt beam="1">  1       21 0.87091704E-01 0.13006862E+03</pdfrwt>
<pdfrwt beam="2">  1       21 0.10846711E-01 0.13006862E+03</pdfrwt>
<totfact> 0.81865292E+04</totfact>
</mgrwt>
</event>
<event>
 4    1  0.6024238E+003  0.1427215E+03  0.7546771E-02  0.1209713E+00
         21   -1    0    0  503  501  0.00000000000E+00  0.00000000000E+00  0.12564189499E+02  0.12564189499E+02  0.00000000000E+00 0.  1.
         21   -1    0    0  504  502 -0.00000000000E+00 -0.00000000000E+00 -0.16388563470E+04  0.16388563470E+04  0.00000000000E+00 0.  1.
         21    1    1    2  503  502 -0.17608197855E+02  0.14163111671E+03 -0.89878222513E+03  0.91004335615E+03  0.00000000000E+00 0.  1.
         21    1    1    2  504  501  0.17608197855E+02 -0.14163111671E+03 -0.72750993235E+03  0.74137718034E+03  0.00000000000E+00 0.  1.
<mgrwt>
<rscale>  2 0.14272148E+03</rscale>
<asrwt>0</asrwt>
<pdfrwt beam="1">  1       21 0.19329547E-02 0.14272148E+03</pdfrwt>
<pdfrwt beam="2">  1       21 0.25213142E+00 0.14272148E+03</pdfrwt>
<totfact> 0.87358575E+04</totfact>
</mgrwt>
</event>
<event>
 4    1  0.6024238E+003  0.1434313E+03  0.7546771E-02  0.1208785E+00
         21   -1    0    0  504  501  0.00000000000E+00  0.00000000000E+00  0.24886783578E+04  0.24886783578E+04  0.00000000000E+00 0. -1.
         21   -1    0    0  503  502 -0.00000000000E+00 -0.00000000000E+00 -0.83155042546E+01  0.83155042546E+01  0.00000000000E+00 0.  1.
         21    1    1    2  503  501  0.13616710995E+03 -0.45067168700E+02  0.11442881678E+04  0.11532423607E+04  0.00000000000E+00 0. -1.
         21    1    1    2  504  502 -0.13616710995E+03  0.45067168700E+02  0.13360746857E+04  0.13437515014E+04  0.00000000000E+00 0.  1.
<mgrwt>
<rscale>  2 0.14343128E+03</rscale>
<asrwt>0</asrwt>
<pdfrwt beam="1">  1       21 0.38287300E+00 0.14343128E+03</pdfrwt>
<pdfrwt beam="2">  1       21 0.12793103E-02 0.14343128E+03</pdfrwt>
<totfact> 0.29970780E+04</totfact>
</mgrwt>
</event>
<event>
 4    1  0.6024238E+003  0.1975761E+03  0.7546771E-02  0.1151800E+00
         21   -1    0    0  503  501  0.00000000000E+00  0.00000000000E+00  0.25552109330E+03  0.25552109330E+03  0.00000000000E+00 0. -1.
         21   -1    0    0  504  502 -0.00000000000E+00 -0.00000000000E+00 -0.24737955941E+03  0.24737955941E+03  0.00000000000E+00 0. -1.
         21    1    1    2  503  502  0.49856664464E+02 -0.19118216472E+03 -0.15143076318E+03  0.24893288882E+03  0.00000000000E+00 0. -1.
         21    1    1    2  504  501 -0.49856664464E+02  0.19118216472E+03  0.15957229708E+03  0.25396776388E+03  0.00000000000E+00 0. -1.
<mgrwt>
<rscale>  2 0.19757608E+03</rscale>
<asrwt>0</asrwt>
<pdfrwt beam="1">  1       21 0.39310938E-01 0.19757608E+03</pdfrwt>
<pdfrwt beam="2">  1       21 0.38058394E-01 0.19757608E+03</pdfrwt>
<totfact> 0.41432547E+04</totfact>
</mgrwt>
</event>
<event>
 4    1  0.6024238E+003  0.2418289E+03  0.7546771E-02  0.1118580E+00
         21   -1    0    0  504  501  0.00000000000E+00  0.00000000000E+00  0.93739190340E+02  0.93739190340E+02  0.00000000000E+00 0.  1.
         21   -1    0    0  503  502 -0.00000000000E+00 -0.00000000000E+00 -0.78222787088E+03  0.78222787088E+03  0.00000000000E+00 0.  1.
         21    1    1    2  503  501  0.14753144394E+03 -0.19161341759E+03 -0.14717973735E+03  0.28309557368E+03  0.00000000000E+00 0.  1.
         21    1    1    2  504  502 -0.14753144394E+03  0.19161341759E+03 -0.54130894319E+03  0.59287148754E+03  0.00000000000E+00 0.  1.
<mgrwt>
<rscale>  2 0.24182892E+03</rscale>
<asrwt>0</asrwt>
<pdfrwt beam="1">  1       21 0.14421414E-01 0.24182892E+03</pdfrwt>
<pdfrwt beam="2">  1       21 0.12034275E+00 0.24182892E+03</pdfrwt>
<totfact> 0.21471289E+04</totfact>
</mgrwt>
</event>
<event>
 4    1  0.6024238E+003  0.1241864E+03  0.7546771E-02  0.1236346E+00
         21   -1    0    0  503  501  0.00000000000E+00  0.00000000000E+00  0.23082319905E+03  0.23082319905E+03  0.00000000000E+00 0.  1.
         21   -1    0    0  501  502 -0.00000000000E+00 -0.00000000000E+00 -0.22730707836E+03  0.22730707836E+03  0.00000000000E+00 0. -1.
         21    1    1    2  503  504 -0.52573506821E+02 -0.11250908778E+03  0.19423574949E+03  0.23054239270E+03  0.00000000000E+00 0.  1.
         21    1    1    2  504  502  0.52573506821E+02  0.11250908778E+03 -0.19071962880E+03  0.22758788470E+03  0.00000000000E+00 0. -1.
<mgrwt>
<rscale>  2 0.12418643E+03</rscale>
<asrwt>0</asrwt>
<pdfrwt beam="1">  1       21 0.35511262E-01 0.12418643E+03</pdfrwt>
<pdfrwt beam="2">  1       21 0.34970320E-01 0.12418643E+03</pdfrwt>
<totfact> 0.62227211E+04</totfact>
</mgrwt>
</event>
<event>
 4    1  0.6024238E+003  0.1330651E+03  0.7546771E-02  0.1222977E+00
         21   -1    0    0  502  501  0.00000000000E+00  0.00000000000E+00  0.22394819001E+04  0.22394819001E+04  0.00000000000E+00 0.  1.
         21   -1    0    0  504  502 -0.00000000000E+00 -0.00000000000E+00 -0.86867864374E+01  0.86867864374E+01  0.00000000000E+00 0.  1.
         21    1    1    2  503  501 -0.86600363135E+02 -0.10102825983E+03  0.14523066180E+04  0.14583898124E+04  0.00000000000E+00 0.  1.
         21    1    1    2  504  503  0.86600363135E+02  0.10102825983E+03  0.77848849565E+03  0.78977887414E+03  0.00000000000E+00 0.  1.
<mgrwt>
<rscale>  2 0.13306514E+03</rscale>
<asrwt>0</asrwt>
<pdfrwt beam="1">  1       21 0.34453522E+00 0.13306514E+03</pdfrwt>
<pdfrwt beam="2">  1       21 0.13364305E-02 0.13306514E+03</pdfrwt>
<totfact> 0.47640590E+04</totfact>
</mgrwt>
</event>
<event>
 4    1  0.6024238E+003  0.1281319E+03  0.7546771E-02  0.1230254E+00
         21   -1    0    0  503  501  0.00000000000E+00  0.00000000000E+00  0.49020851423E+03  0.49020851423E+03  0.00000000000E+00 0. -1.
         21   -1    0    0  504  502 -0.00000000000E+00 -0.00000000000E+00 -0.33511462712E+02  0.33511462712E+02  0.00000000000E+00 0.  1.
         21    1    1    2  503  502 -0.12479825719E+03 -0.29037401380E+02  0.23475367717E+03  0.26744544233E+03  0.00000000000E+00 0. -1.
         21    1    1    2  504  501  0.12479825719E+03  0.29037401380E+02  0.22194337434E+03  0.25627453461E+03  0.00000000000E+00 0.  1.
<mgrwt>
<rscale>  2 0.12813187E+03</rscale>
<asrwt>0</asrwt>
<pdfrwt beam="1">  1       21 0.75416689E-01 0.12813187E+03</pdfrwt>
<pdfrwt beam="2">  1       21 0.51556100E-02 0.12813187E+03</pdfrwt>
<totfact> 0.40592797E+05</totfact>
</mgrwt>
</event>
<event>
 4    1  0.6024238E+003  0.1288487E+03  0.7546771E-02  0.1229174E+00
         21   -1    0    0  502  501  0.00000000000E+00  0.00000000000E+00  0.14540921146E+04  0.14540921146E+04  0.00000000000E+00 0. -1.
         21   -1    0    0  504  502 -0.00000000000E+00 -0.00000000000E+00 -0.14742495862E+02  0.14742495862E+02  0.00000000000E+00 0.  1.
         21    1    1    2  503  501  0.61429931819E+02 -0.11326234220E+03  0.10684595945E+04  0.10762006782E+04  0.00000000000E+00 0. -1.
         21    1    1    2  504  503 -0.61429931819E+02  0.11326234220E+03  0.37089002431E+03  0.39263393233E+03  0.00000000000E+00 0.  1.
<mgrwt>
<rscale>  2 0.12884873E+03</rscale>
<asrwt>0</asrwt>
<pdfrwt beam="1">  1       21 0.22370637E+00 0.12884873E+03</pdfrwt>
<pdfrwt beam="2">  1       21 0.22680774E-02 0.12884873E+03</pdfrwt>
<totfact> 0.10000376E+05</totfact>
</mgrwt>
</event>
<event>
 4    1  0.6024238E+003  0.1634236E+03  0.7546771E-02  0.1184885E+00
         21   -1    0    0  502  501  0.00000000000E+00  0.00000000000E+00  0.26411007982E+03  0.26411007982E+03  0.00000000000E+00 0.  1.
         21   -1    0    0  503  502 -0.00000000000E+00 -0.00000000000E+00 -0.14503156529E+03  0.14503156529E+03  0.00000000000E+00 0. -1.
         21    1    1    2  503  504  0.22972265491E+02 -0.16180099141E+03 -0.53023053054E+02  0.17181015674E+03  0.00000000000E+00 0. -1.
         21    1    1    2  504  501 -0.22972265491E+02  0.16180099141E+03  0.17210156758E+03  0.23733148836E+03  0.00000000000E+00 0.  1.
<mgrwt>
<rscale>  2 0.16342364E+03</rscale>
<asrwt>0</asrwt>
<pdfrwt beam="1">  1       21 0.40632320E-01 0.16342364E+03</pdfrwt>
<pdfrwt beam="2">  1       21 0.22312549E-01 0.16342364E+03</pdfrwt>
<totfact> 0.11089985E+05</totfact>
</mgrwt>
</event>
<event>
 4    1  0.6024238E+003  0.1060572E+03  0.7546771E-02  0.1268050E+00
         21   -1    0    0  502  501  0.00000000000E+00  0.00000000000E+00  0.14401051691E+03  0.14401051691E+03  0.00000000000E+00 0.  1.
         21   -1    0    0  504  502 -0.00000000000E+00 -0.00000000000E+00 -0.25714771115E+03  0.25714771115E+03  0.00000000000E+00 0. -1.
         21    1    1    2  503  501  0.10086923566E+03  0.32764830091E+02  0.11079887417E+03  0.15337707557E+03  0.00000000000E+00 0.  1.
         21    1    1    2  504  503 -0.10086923566E+03 -0.32764830091E+02 -0.22393606841E+03  0.24778115249E+03  0.00000000000E+00 0. -1.
<mgrwt>
<rscale>  2 0.10605723E+03</rscale>
<asrwt>0</asrwt>
<pdfrwt beam="1">  1       21 0.22155464E-01 0.10605723E+03</pdfrwt>
<pdfrwt beam="2">  1       21 0.39561186E-01 0.10605723E+03</pdfrwt>
<totfact> 0.12110745E+05</totfact>
</mgrwt>
</event>
<event>
 4    1  0.6024238E+003  0.1372718E+03  0.7546771E-02  0.1217048E+00
         21   -1    0    0  504  501  0.00000000000E+00  0.00000000000E+00  0.88462375039E+03  0.88462375039E+03  0.00000000000E+00 0. -1.
         21   -1    0    0  503  502 -0.00000000000E+00 -0.00000000000E+00 -0.21510470338E+02  0.21510470338E+02  0.00000000000E+00 0. -1.
         21    1    1    2  503  501  0.13119509115E+03  0.40390582503E+02  0.47624424958E+03  0.49563306624E+03  0.00000000000E+00 0. -1.
         21    1    1    2  504  502 -0.13119509115E+03 -0.40390582503E+02  0.38686903048E+03  0.41050115449E+03  0.00000000000E+00 0. -1.
<mgrwt>
<rscale>  2 0.13727181E+03</rscale>
<asrwt>0</asrwt>
<pdfrwt beam="1">  1       21 0.13609593E+00 0.13727181E+03</pdfrwt>
<pdfrwt beam="2">  1       21 0.33093038E-02 0.13727181E+03</pdfrwt>
<totfact> 0.21114844E+05</totfact>
</mgrwt>
</event>
<event>
 4    1  0.6024238E+003  0.1264529E+03  0.7546771E-02  0.1232816E+00
         21   -1    0    0  503  501  0.00000000000E+00  0.00000000000E+00  0.95683610330E+01  0.95683610330E+01  0.00000000000E+00 0. -1.
         21   -1    0    0  504  502 -0.00000000000E+00 -0.00000000000E+00 -0.19865645618E+04  0.19865645618E+04  0.00000000000E+00 0. -1.
         21    1    1    2  503  502 -0.94632058219E+02  0.83875617423E+02 -0.59081594579E+03  0.60419684495E+03  0.00000000000E+00 0. -1.
         21    1    1    2  504  501  0.94632058219E+02 -0.83875617423E+02 -0.13861802550E+04  0.13919360779E+04  0.00000000000E+00 0. -1.
<mgrwt>
<rscale>  2 0.12645294E+03</rscale>
<asrwt>0</asrwt>
<pdfrwt beam="1">  1       21 0.14720545E-02 0.12645294E+03</pdfrwt>
<pdfrwt beam="2">  1       21 0.30562553E+00 0.12645294E+03</pdfrwt>
<totfact> 0.68491541E+04</totfact>
</mgrwt>
</event>
<event>
 4    1  0.6024238E+003  0.1149794E+03  0.7546771E-02  0.1251617E+00
         21   -1    0    0  502  501  0.00000000000E+00  0.00000000000E+00  0.41614980722E+02  0.41614980722E+02  0.00000000000E+00 0. -1.
         21   -1    0    0  503  502 -0.00000000000E+00 -0.00000000000E+00 -0.33366729270E+03  0.33366729270E+03  0.00000000000E+00 0. -1.
         21    1    1    2  503  504 -0.17858200121E+02  0.11358413808E+03 -0.18709860994E+03  0.21960455727E+03  0.00000000000E+00 0. -1.
         21    1    1    2  504  501  0.17858200121E+02 -0.11358413808E+03 -0.10495370204E+03  0.15567771615E+03  0.00000000000E+00 0. -1.
<mgrwt>
<rscale>  2 0.11497944E+03</rscale>
<asrwt>0</asrwt>
<pdfrwt beam="1">  1       21 0.64023042E-02 0.11497944E+03</pdfrwt>
<pdfrwt beam="2">  1       21 0.51333434E-01 0.11497944E+03</pdfrwt>
<totfact> 0.64064727E+05</totfact>
</mgrwt>
</event>
<event>
 4    1  0.6024238E+003  0.1823626E+03  0.7546771E-02  0.1165536E+00
         21   -1    0    0  503  501  0.00000000000E+00  0.00000000000E+00  0.10536034891E+03  0.10536034891E+03  0.00000000000E+00 0.  1.
         21   -1    0    0  501  502 -0.00000000000E+00 -0.00000000000E+00 -0.10634010101E+04  0.10634010101E+04  0.00000000000E+00 0. -1.
         21    1    1    2  503  504  0.15176860264E+03  0.10110592655E+03  0.11015951529E+02  0.18269501449E+03  0.00000000000E+00 0.  1.
         21    1    1    2  504  502 -0.15176860264E+03 -0.10110592655E+03 -0.96905661269E+03  0.98606634449E+03  0.00000000000E+00 0. -1.
<mgrwt>
<rscale>  2 0.18236260E+03</rscale>
<asrwt>0</asrwt>
<pdfrwt beam="1">  1       21 0.16209286E-01 0.18236260E+03</pdfrwt>
<pdfrwt beam="2">  1       21 0.16360014E+00 0.18236260E+03</pdfrwt>
<totfact> 0.81365664E+03</totfact>
</mgrwt>
</event>
<event>
 4    1  0.6024238E+003  0.1020315E+03  0.7546771E-02  0.1276081E+00
         21   -1    0    0  504  501  0.00000000000E+00  0.00000000000E+00  0.23842047171E+02  0.23842047171E+02  0.00000000000E+00 0.  1.
         21   -1    0    0  501  502 -0.00000000000E+00 -0.00000000000E+00 -0.21653932101E+04  0.21653932101E+04  0.00000000000E+00 0.  1.
         21    1    1    2  503  502  0.47849614980E+02 -0.90115720217E+02 -0.20488240031E+04  0.20513630162E+04  0.00000000000E+00 0.  1.
         21    1    1    2  504  503 -0.47849614980E+02  0.90115720217E+02 -0.92727159883E+02  0.13787224109E+03  0.00000000000E+00 0.  1.
<mgrwt>
<rscale>  2 0.10203151E+03</rscale>
<asrwt>0</asrwt>
<pdfrwt beam="1">  1       21 0.36680071E-02 0.10203151E+03</pdfrwt>
<pdfrwt beam="2">  1       21 0.33313743E+00 0.10203151E+03</pdfrwt>
<totfact> 0.11396791E+04</totfact>
</mgrwt>
</event>
<event>
 4    1  0.6024238E+003  0.1218895E+03  0.7546771E-02  0.1240012E+00
         21   -1    0    0  504  501  0.00000000000E+00  0.00000000000E+00  0.61534246527E+02  0.61534246527E+02  0.00000000000E+00 0.  1.
         21   -1    0    0  503  502 -0.00000000000E+00 -0.00000000000E+00 -0.24919974323E+03  0.24919974323E+03  0.00000000000E+00 0.  1.
         21    1    1    2  503  501 -0.10401009756E+03 -0.63552721830E+02 -0.12124270871E+03  0.17192103787E+03  0.00000000000E+00 0.  1.
         21    1    1    2  504  502  0.10401009756E+03  0.63552721830E+02 -0.66422787997E+02  0.13881295189E+03  0.00000000000E+00 0.  1.
<mgrwt>
<rscale>  2 0.12188949E+03</rscale>
<asrwt>0</asrwt>
<pdfrwt beam="1">  1       21 0.94668073E-02 0.12188949E+03</pdfrwt>
<pdfrwt beam="2">  1       21 0.38338421E-01 0.12188949E+03</pdfrwt>
<totfact> 0.59048079E+05</totfact>
</mgrwt>
</event>
<event>
 4    1  0.6024238E+003  0.1513360E+03  0.7546771E-02  0.1198841E+00
         21   -1    0    0  504  501  0.00000000000E+00  0.00000000000E+00  0.79171012544E+03  0.79171012544E+03  0.00000000000E+00 0.  1.
         21   -1    0    0  503  502 -0.00000000000E+00 -0.00000000000E+00 -0.14887920726E+03  0.14887920726E+03  0.00000000000E+00 0.  1.
         21    1    1    2  503  501 -0.33620096504E+02 -0.14755433842E+03  0.74355432010E+03  0.75879880114E+03  0.00000000000E+00 0.  1.
         21    1    1    2  504  502  0.33620096504E+02  0.14755433842E+03 -0.10072340191E+03  0.18179053157E+03  0.00000000000E+00 0.  1.
<mgrwt>
<rscale>  2 0.15133603E+03</rscale>
<asrwt>0</asrwt>
<pdfrwt beam="1">  1       21 0.12180156E+00 0.15133603E+03</pdfrwt>
<pdfrwt beam="2">  1       21 0.22904494E-01 0.15133603E+03</pdfrwt>
<totfact> 0.94032576E+03</totfact>
</mgrwt>
</event>
<event>
 4    1  0.6024238E+003  0.1414722E+03  0.7546771E-02  0.1211362E+00
         21   -1    0    0  502  501  0.00000000000E+00  0.00000000000E+00  0.45740389171E+03  0.45740389171E+03  0.00000000000E+00 0.  1.
         21   -1    0    0  504  502 -0.00000000000E+00 -0.00000000000E+00 -0.97085877384E+02  0.97085877384E+02  0.00000000000E+00 0.  1.
         21    1    1    2  503  501 -0.47560992072E+02 -0.13323793709E+03  0.38563862371E+03  0.41076945352E+03  0.00000000000E+00 0.  1.
         21    1    1    2  504  503  0.47560992072E+02  0.13323793709E+03 -0.25320609390E+02  0.14372031557E+03  0.00000000000E+00 0.  1.
<mgrwt>
<rscale>  2 0.14147224E+03</rscale>
<asrwt>0</asrwt>
<pdfrwt beam="1">  1       21 0.70369829E-01 0.14147224E+03</pdfrwt>
<pdfrwt beam="2">  1       21 0.14936289E-01 0.14147224E+03</pdfrwt>
<totfact> 0.74057212E+04</totfact>
</mgrwt>
</event>
<event>
 4    1  0.6024238E+003  0.1075549E+03  0.7546771E-02  0.1265166E+00
         21   -1    0    0  504  501  0.00000000000E+00  0.00000000000E+00  0.58054626958E+03  0.58054626958E+03  0.00000000000E+00 0.  1.
         21   -1    0    0  503  502 -0.00000000000E+00 -0.00000000000E+00 -0.20676101934E+02  0.20676101934E+02  0.00000000000E+00 0.  1.
         21    1    1    2  503  501  0.84241443694E+01 -0.10722451712E+03  0.22268423664E+03  0.24729806414E+03  0.00000000000E+00 0.  1.
         21    1    1    2  504  502 -0.84241443694E+01  0.10722451712E+03  0.33718593101E+03  0.35392430737E+03  0.00000000000E+00 0.  1.
<mgrwt>
<rscale>  2 0.10755493E+03</rscale>
<asrwt>0</asrwt>
<pdfrwt beam="1">  1       21 0.89314798E-01 0.10755493E+03</pdfrwt>
<pdfrwt beam="2">  1       21 0.31809392E-02 0.10755493E+03</pdfrwt>
<totfact> 0.62072437E+05</totfact>
</mgrwt>
</event>
<event>
 4    1  0.6024238E+003  0.1230959E+03  0.7546771E-02  0.1238075E+00
         21   -1    0    0  503  501  0.00000000000E+00  0.00000000000E+00  0.64474521728E+03  0.64474521728E+03  0.00000000000E+00 0.  1.
         21   -1    0    0  504  502 -0.00000000000E+00 -0.00000000000E+00 -0.76344471356E+02  0.76344471356E+02  0.00000000000E+00 0. -1.
         21    1    1    2  503  502  0.10638368325E+03  0.61928204276E+02 -0.15759666605E+02  0.12410059484E+03  0.00000000000E+00 0. -1.
         21    1    1    2  504  501 -0.10638368325E+03 -0.61928204276E+02  0.58416041252E+03  0.59698909379E+03  0.00000000000E+00 0.  1.
<mgrwt>
<rscale>  2 0.12309586E+03</rscale>
<asrwt>0</asrwt>
<pdfrwt beam="1">  1       21 0.99191568E-01 0.12309586E+03</pdfrwt>
<pdfrwt beam="2">  1       21 0.11745304E-01 0.12309586E+03</pdfrwt>
<totfact> 0.52942804E+04</totfact>
</mgrwt>
</event>
<event>
 4    1  0.6024238E+003  0.1337464E+03  0.7546771E-02  0.1222000E+00
         21   -1    0    0  503  501  0.00000000000E+00  0.00000000000E+00  0.24984898566E+03  0.24984898566E+03  0.00000000000E+00 0. -1.
         21   -1    0    0  501  502 -0.00000000000E+00 -0.00000000000E+00 -0.17815812954E+03  0.17815812954E+03  0.00000000000E+00 0.  1.
         21    1    1    2  503  504  0.41923368224E+02  0.12700601555E+03  0.20135394992E+03  0.24172610520E+03  0.00000000000E+00 0. -1.
         21    1    1    2  504  502 -0.41923368224E+02 -0.12700601555E+03 -0.12966309380E+03  0.18628100999E+03  0.00000000000E+00 0.  1.
<mgrwt>
<rscale>  2 0.13374639E+03</rscale>
<asrwt>0</asrwt>
<pdfrwt beam="1">  1       21 0.38438305E-01 0.13374639E+03</pdfrwt>
<pdfrwt beam="2">  1       21 0.27408943E-01 0.13374639E+03</pdfrwt>
<totfact> 0.84890884E+04</totfact>
</mgrwt>
</event>
<event>
 4    1  0.6024238E+003  0.1253054E+03  0.7546771E-02  0.1234593E+00
         21   -1    0    0  504  501  0.00000000000E+00  0.00000000000E+00  0.65306410564E+02  0.65306410564E+02  0.00000000000E+00 0. -1.
         21   -1    0    0  501  502 -0.00000000000E+00 -0.00000000000E+00 -0.84341761999E+03  0.84341761999E+03  0.00000000000E+00 0. -1.
         21    1    1    2  503  502 -0.11827120229E+03 -0.41392945201E+02 -0.77323653293E+03  0.78332380856E+03  0.00000000000E+00 0. -1.
         21    1    1    2  504  503  0.11827120229E+03  0.41392945201E+02 -0.48746764920E+01  0.12540022199E+03  0.00000000000E+00 0. -1.
<mgrwt>
<rscale>  2 0.12530544E+03</rscale>
<asrwt>0</asrwt>
<pdfrwt beam="1">  1       21 0.10047141E-01 0.12530544E+03</pdfrwt>
<pdfrwt beam="2">  1       21 0.12975655E+00 0.12530544E+03</pdfrwt>
<totfact> 0.36449884E+04</totfact>
</mgrwt>
</event>
<event>
 4    1  0.6024238E+003  0.1261702E+03  0.7546771E-02  0.1233252E+00
         21   -1    0    0  503  501  0.00000000000E+00  0.00000000000E+00  0.81475488229E+02  0.81475488229E+02  0.00000000000E+00 0.  1.
         21   -1    0    0  504  502 -0.00000000000E+00 -0.00000000000E+00 -0.19974764110E+03  0.19974764110E+03  0.00000000000E+00 0.  1.
         21    1    1    2  503  502 -0.87285029420E+02  0.91105701080E+02 -0.38350857950E+02  0.13187006270E+03  0.00000000000E+00 0.  1.
         21    1    1    2  504  501  0.87285029420E+02 -0.91105701080E+02 -0.79921294917E+02  0.14935306663E+03  0.00000000000E+00 0.  1.
<mgrwt>
<rscale>  2 0.12617022E+03</rscale>
<asrwt>0</asrwt>
<pdfrwt beam="1">  1       21 0.12534691E-01 0.12617022E+03</pdfrwt>
<pdfrwt beam="2">  1       21 0.30730406E-01 0.12617022E+03</pdfrwt>
<totfact> 0.55578656E+05</totfact>
</mgrwt>
</event>
<event>
 4    1  0.6024238E+003  0.1147049E+03  0.7546771E-02  0.1252097E+00
         21   -1    0    0  502  501  0.00000000000E+00  0.00000000000E+00  0.12341135516E+04  0.12341135516E+04  0.00000000000E+00 0.  1.
         21   -1    0    0  504  502 -0.00000000000E+00 -0.00000000000E+00 -0.29969540796E+02  0.29969540796E+02  0.00000000000E+00 0. -1.
         21    1    1    2  503  501  0.10525902996E+03 -0.45582442627E+02  0.11093864529E+04  0.11153006430E+04  0.00000000000E+00 0.  1.
         21    1    1    2  504  503 -0.10525902996E+03  0.45582442627E+02  0.94757557947E+02  0.14878244941E+03  0.00000000000E+00 0. -1.
<mgrwt>
<rscale>  2 0.11470494E+03</rscale>
<asrwt>0</asrwt>
<pdfrwt beam="1">  1       21 0.18986358E+00 0.11470494E+03</pdfrwt>
<pdfrwt beam="2">  1       21 0.46106995E-02 0.11470494E+03</pdfrwt>
<totfact> 0.50996715E+04</totfact>
</mgrwt>
</event>
<event>
 4    1  0.6024238E+003  0.2133671E+03  0.7546771E-02  0.1138927E+00
         21   -1    0    0  504  501  0.00000000000E+00  0.00000000000E+00  0.12702095330E+03  0.12702095330E+03  0.00000000000E+00 0. -1.
         21   -1    0    0  501  502 -0.00000000000E+00 -0.00000000000E+00 -0.51690634615E+03  0.51690634615E+03  0.00000000000E+00 0. -1.
         21    1    1    2  503  502  0.17555908912E+03 -0.12126227157E+03 -0.37322615500E+03  0.42991079895E+03  0.00000000000E+00 0. -1.
         21    1    1    2  504  503 -0.17555908912E+03  0.12126227157E+03 -0.16659237850E+02  0.21401650050E+03  0.00000000000E+00 0. -1.
<mgrwt>
<rscale>  2 0.21336713E+03</rscale>
<asrwt>0</asrwt>
<pdfrwt beam="1">  1       21 0.19541685E-01 0.21336713E+03</pdfrwt>
<pdfrwt beam="2">  1       21 0.79524053E-01 0.21336713E+03</pdfrwt>
<totfact> 0.33227740E+04</totfact>
</mgrwt>
</event>
<event>
 4    1  0.6024238E+003  0.1066524E+03  0.7546771E-02  0.1266898E+00
         21   -1    0    0  503  501  0.00000000000E+00  0.00000000000E+00  0.81427962977E+02  0.81427962977E+02  0.00000000000E+00 0. -1.
         21   -1    0    0  504  502 -0.00000000000E+00 -0.00000000000E+00 -0.19133034991E+03  0.19133034991E+03  0.00000000000E+00 0. -1.
         21    1    1    2  503  502 -0.10648253504E+03 -0.60161040771E+01 -0.12580252052E+03  0.16492725046E+03  0.00000000000E+00 0. -1.
         21    1    1    2  504  501  0.10648253504E+03  0.60161040771E+01  0.15900133581E+02  0.10783106243E+03  0.00000000000E+00 0. -1.
<mgrwt>
<rscale>  2 0.10665235E+03</rscale>
<asrwt>0</asrwt>
<pdfrwt beam="1">  1       21 0.12527379E-01 0.10665235E+03</pdfrwt>
<pdfrwt beam="2">  1       21 0.29435438E-01 0.10665235E+03</pdfrwt>
<totfact> 0.60476912E+05</totfact>
</mgrwt>
</event>
<event>
 4    1  0.6024238E+003  0.1179915E+03  0.7546771E-02  0.1246448E+00
         21   -1    0    0  502  501  0.00000000000E+00  0.00000000000E+00  0.25298018481E+03  0.25298018481E+03  0.00000000000E+00 0.  1.
         21   -1    0    0  503  502 -0.00000000000E+00 -0.00000000000E+00 -0.66818806576E+02  0.66818806576E+02  0.00000000000E+00 0.  1.
         21    1    1    2  503  504  0.11497226347E+03  0.26521214172E+02  0.25922883530E+02  0.12080559614E+03  0.00000000000E+00 0.  1.
         21    1    1    2  504  501 -0.11497226347E+03 -0.26521214172E+02  0.16023849470E+03  0.19899339525E+03  0.00000000000E+00 0.  1.
<mgrwt>
<rscale>  2 0.11799151E+03</rscale>
<asrwt>0</asrwt>
<pdfrwt beam="1">  1       21 0.38920028E-01 0.11799151E+03</pdfrwt>
<pdfrwt beam="2">  1       21 0.10279816E-01 0.11799151E+03</pdfrwt>
<totfact> 0.49647960E+05</totfact>
</mgrwt>
</event>
<event>
 4    1  0.6024238E+003  0.1043936E+03  0.7546771E-02  0.1271319E+00
         21   -1    0    0  502  501  0.00000000000E+00  0.00000000000E+00  0.11708156448E+02  0.11708156448E+02  0.00000000000E+00 0. -1.
         21   -1    0    0  503  502 -0.00000000000E+00 -0.00000000000E+00 -0.13742094996E+04  0.13742094996E+04  0.00000000000E+00 0. -1.
         21    1    1    2  503  504 -0.81449647045E+02 -0.65299115652E+02 -0.10748738216E+04  0.10799313644E+04  0.00000000000E+00 0. -1.
         21    1    1    2  504  501  0.81449647045E+02  0.65299115652E+02 -0.28762752160E+03  0.30598629167E+03  0.00000000000E+00 0. -1.
<mgrwt>
<rscale>  2 0.10439358E+03</rscale>
<asrwt>0</asrwt>
<pdfrwt beam="1">  1       21 0.18012555E-02 0.10439358E+03</pdfrwt>
<pdfrwt beam="2">  1       21 0.21141677E+00 0.10439358E+03</pdfrwt>
<totfact> 0.17503888E+05</totfact>
</mgrwt>
</event>
<event>
 4    1  0.6024238E+003  0.1199563E+03  0.7546771E-02  0.1243169E+00
         21   -1    0    0  502  501  0.00000000000E+00  0.00000000000E+00  0.15427706592E+04  0.15427706592E+04  0.00000000000E+00 0.  1.
         21   -1    0    0  503  502 -0.00000000000E+00 -0.00000000000E+00 -0.12709126642E+02  0.12709126642E+02  0.00000000000E+00 0.  1.
         21    1    1    2  503  504  0.26182868104E+02  0.11706391321E+03  0.36382412976E+03  0.38308941482E+03  0.00000000000E+00 0.  1.
         21    1    1    2  504  501 -0.26182868104E+02 -0.11706391321E+03  0.11662374028E+04  0.11723903710E+04  0.00000000000E+00 0.  1.
<mgrwt>
<rscale>  2 0.11995625E+03</rscale>
<asrwt>0</asrwt>
<pdfrwt beam="1">  1       21 0.23734918E+00 0.11995625E+03</pdfrwt>
<pdfrwt beam="2">  1       21 0.19552515E-02 0.11995625E+03</pdfrwt>
<totfact> 0.10646716E+05</totfact>
</mgrwt>
</event>
<event>
 4    1  0.6024238E+003  0.1070433E+03  0.7546771E-02  0.1266145E+00
         21   -1    0    0  503  501  0.00000000000E+00  0.00000000000E+00  0.22957634985E+04  0.22957634985E+04  0.00000000000E+00 0.  1.
         21   -1    0    0  501  502 -0.00000000000E+00 -0.00000000000E+00 -0.54294645745E+01  0.54294645745E+01  0.00000000000E+00 0.  1.
         21    1    1    2  503  504 -0.96620130243E+02  0.46074159117E+02  0.14721201151E+04  0.14760067449E+04  0.00000000000E+00 0.  1.
         21    1    1    2  504  502  0.96620130243E+02 -0.46074159117E+02  0.81821391883E+03  0.82518621818E+03  0.00000000000E+00 0.  1.
<mgrwt>
<rscale>  2 0.10704334E+03</rscale>
<asrwt>0</asrwt>
<pdfrwt beam="1">  1       21 0.35319361E+00 0.10704334E+03</pdfrwt>
<pdfrwt beam="2">  1       21 0.83530407E-03 0.10704334E+03</pdfrwt>
<totfact> 0.92649894E+04</totfact>
</mgrwt>
</event>
<event>
 4    1  0.6024238E+003  0.1012186E+03  0.7546771E-02  0.1277754E+00
         21   -1    0    0  504  501  0.00000000000E+00  0.00000000000E+00  0.16141277732E+04  0.16141277732E+04  0.00000000000E+00 0.  1.
         21   -1    0    0  503  502 -0.00000000000E+00 -0.00000000000E+00 -0.14932527941E+02  0.14932527941E+02  0.00000000000E+00 0.  1.
         21    1    1    2  503  501  0.88177863122E+02  0.49697681354E+02  0.18198112271E+03  0.20823622188E+03  0.00000000000E+00 0.  1.
         21    1    1    2  504  502 -0.88177863122E+02 -0.49697681354E+02  0.14172141225E+04  0.14208240792E+04  0.00000000000E+00 0.  1.
<mgrwt>
<rscale>  2 0.10121855E+03</rscale>
<asrwt>0</asrwt>
<pdfrwt beam="1">  1       21 0.24832721E+00 0.10121855E+03</pdfrwt>
<pdfrwt beam="2">  1       21 0.22973133E-02 0.10121855E+03</pdfrwt>
<totfact> 0.72424923E+04</totfact>
</mgrwt>
</event>
<event>
 4    1  0.6024238E+003  0.1541982E+03  0.7546771E-02  0.1195407E+00
         21   -1    0    0  504  501  0.00000000000E+00  0.00000000000E+00  0.11838350975E+03  0.11838350975E+03  0.00000000000E+00 0.  1.
         21   -1    0    0  503  502 -0.00000000000E+00 -0.00000000000E+00 -0.22596479651E+03  0.22596479651E+03  0.00000000000E+00 0.  1.
         21    1    1    2  503  501 -0.23527994921E+02  0.15239261737E+03 -0.11119313805E+03  0.19010783867E+03  0.00000000000E+00 0.  1.
         21    1    1    2  504  502  0.23527994921E+02 -0.15239261737E+03  0.36118512872E+01  0.15424046759E+03  0.00000000000E+00 0.  1.
<mgrwt>
<rscale>  2 0.15419817E+03</rscale>
<asrwt>0</asrwt>
<pdfrwt beam="1">  1       21 0.18212848E-01 0.15419817E+03</pdfrwt>
<pdfrwt beam="2">  1       21 0.34763815E-01 0.15419817E+03</pdfrwt>
<totfact> 0.22141410E+05</totfact>
</mgrwt>
</event>
<event>
 4    1  0.6024238E+003  0.1001590E+03  0.7546771E-02  0.1279962E+00
         21   -1    0    0  502  501  0.00000000000E+00  0.00000000000E+00  0.21135857748E+03  0.21135857748E+03  0.00000000000E+00 0. -1.
         21   -1    0    0  504  502 -0.00000000000E+00 -0.00000000000E+00 -0.92837104697E+02  0.92837104697E+02  0.00000000000E+00 0. -1.
         21    1    1    2  503  501 -0.93589907307E+02 -0.35675748767E+02  0.16559264922E+03  0.19352714351E+03  0.00000000000E+00 0. -1.
         21    1    1    2  504  503  0.93589907307E+02  0.35675748767E+02 -0.47071176435E+02  0.11066853867E+03  0.00000000000E+00 0. -1.
<mgrwt>
<rscale>  2 0.10015902E+03</rscale>
<asrwt>0</asrwt>
<pdfrwt beam="1">  1       21 0.32516704E-01 0.10015902E+03</pdfrwt>
<pdfrwt beam="2">  1       21 0.14282631E-01 0.10015902E+03</pdfrwt>
<totfact> 0.39571556E+05</totfact>
</mgrwt>
</event>
<event>
 4    1  0.6024238E+003  0.1073286E+03  0.7546771E-02  0.1265598E+00
         21   -1    0    0  504  501  0.00000000000E+00  0.00000000000E+00  0.41189191702E+02  0.41189191702E+02  0.00000000000E+00 0. -1.
         21   -1    0    0  503  502 -0.00000000000E+00 -0.00000000000E+00 -0.36268654497E+03  0.36268654497E+03  0.00000000000E+00 0. -1.
         21    1    1    2  503  501  0.45383252564E+02 -0.97261416695E+02 -0.64136529466E+02  0.12503166480E+03  0.00000000000E+00 0. -1.
         21    1    1    2  504  502 -0.45383252564E+02  0.97261416695E+02 -0.25736082381E+03  0.27884407188E+03  0.00000000000E+00 0. -1.
<mgrwt>
<rscale>  2 0.10732857E+03</rscale>
<asrwt>0</asrwt>
<pdfrwt beam="1">  1       21 0.63367987E-02 0.10732857E+03</pdfrwt>
<pdfrwt beam="2">  1       21 0.55797930E-01 0.10732857E+03</pdfrwt>
<totfact> 0.54847085E+05</totfact>
</mgrwt>
</event>
<event>
 4    1  0.6024238E+003  0.1955737E+03  0.7546771E-02  0.1153528E+00
         21   -1    0    0  504  501  0.00000000000E+00  0.00000000000E+00  0.78253898094E+03  0.78253898094E+03  0.00000000000E+00 0.  1.
         21   -1    0    0  501  502 -0.00000000000E+00 -0.00000000000E+00 -0.49083040949E+03  0.49083040949E+03  0.00000000000E+00 0.  1.
         21    1    1    2  503  502  0.14920424497E+03 -0.12644036268E+03 -0.45829789822E+03  0.49828308776E+03  0.00000000000E+00 0.  1.
         21    1    1    2  504  503 -0.14920424497E+03  0.12644036268E+03  0.75000646968E+03  0.77508630267E+03  0.00000000000E+00 0.  1.
<mgrwt>
<rscale>  2 0.19557370E+03</rscale>
<asrwt>0</asrwt>
<pdfrwt beam="1">  1       21 0.12039061E+00 0.19557370E+03</pdfrwt>
<pdfrwt beam="2">  1       21 0.75512371E-01 0.19557370E+03</pdfrwt>
<totfact> 0.81784088E+02</totfact>
</mgrwt>
</event>
<event>
 4    1  0.6024238E+003  0.1082700E+03  0.7546771E-02  0.1263807E+00
         21   -1    0    0  502  501  0.00000000000E+00  0.00000000000E+00  0.13786965313E+03  0.13786965313E+03  0.00000000000E+00 0. -1.
         21   -1    0    0  503  502 -0.00000000000E+00 -0.00000000000E+00 -0.14910181086E+03  0.14910181086E+03  0.00000000000E+00 0. -1.
         21    1    1    2  503  504  0.10781342669E+02 -0.10773189334E+03 -0.99678670950E+02  0.14716737286E+03  0.00000000000E+00 0. -1.
         21    1    1    2  504  501 -0.10781342669E+02  0.10773189334E+03  0.88446513219E+02  0.13980409112E+03  0.00000000000E+00 0. -1.
<mgrwt>
<rscale>  2 0.10827002E+03</rscale>
<asrwt>0</asrwt>
<pdfrwt beam="1">  1       21 0.21210716E-01 0.10827002E+03</pdfrwt>
<pdfrwt beam="2">  1       21 0.22938740E-01 0.10827002E+03</pdfrwt>
<totfact> 0.37391252E+05</totfact>
</mgrwt>
</event>
<event>
 4    1  0.6024238E+003  0.1810047E+03  0.7546771E-02  0.1166834E+00
         21   -1    0    0  504  501  0.00000000000E+00  0.00000000000E+00  0.14114793910E+03  0.14114793910E+03  0.00000000000E+00 0.  1.
         21   -1    0    0  503  502 -0.00000000000E+00 -0.00000000000E+00 -0.46132410174E+03  0.46132410174E+03  0.00000000000E+00 0.  1.
         21    1    1    2  503  501  0.15721605951E+03  0.89698531830E+02 -0.37242165578E+03  0.41407801882E+03  0.00000000000E+00 0.  1.
         21    1    1    2  504  502 -0.15721605951E+03 -0.89698531830E+02  0.52245493135E+02  0.18839402202E+03  0.00000000000E+00 0.  1.
<mgrwt>
<rscale>  2 0.18100474E+03</rscale>
<asrwt>0</asrwt>
<pdfrwt beam="1">  1       21 0.21715067E-01 0.18100474E+03</pdfrwt>
<pdfrwt beam="2">  1       21 0.70972939E-01 0.18100474E+03</pdfrwt>
<totfact> 0.35773036E+04</totfact>
</mgrwt>
</event>
<event>
 4    1  0.6024238E+003  0.1146310E+03  0.7546771E-02  0.1252227E+00
         21   -1    0    0  504  501  0.00000000000E+00  0.00000000000E+00  0.10933255886E+03  0.10933255886E+03  0.00000000000E+00 0. -1.
         21   -1    0    0  503  502 -0.00000000000E+00 -0.00000000000E+00 -0.16751746069E+03  0.16751746069E+03  0.00000000000E+00 0. -1.
         21    1    1    2  503  501 -0.85298687442E+02 -0.76579298557E+02 -0.10267231260E+03  0.15388911210E+03  0.00000000000E+00 0. -1.
         21    1    1    2  504  502  0.85298687442E+02  0.76579298557E+02  0.44487410769E+02  0.12296090746E+03  0.00000000000E+00 0. -1.
<mgrwt>
<rscale>  2 0.11463095E+03</rscale>
<asrwt>0</asrwt>
<pdfrwt beam="1">  1       21 0.16820394E-01 0.11463095E+03</pdfrwt>
<pdfrwt beam="2">  1       21 0.25771917E-01 0.11463095E+03</pdfrwt>
<totfact> 0.45924628E+05</totfact>
</mgrwt>
</event>
<event>
 4    1  0.6024238E+003  0.1010239E+03  0.7546771E-02  0.1278157E+00
         21   -1    0    0  503  501  0.00000000000E+00  0.00000000000E+00  0.55506981905E+03  0.55506981905E+03  0.00000000000E+00 0.  1.
         21   -1    0    0  504  502 -0.00000000000E+00 -0.00000000000E+00 -0.23018104697E+02  0.23018104697E+02  0.00000000000E+00 0.  1.
         21    1    1    2  503  502 -0.62429865040E+02  0.79425035824E+02  0.13637002266E+03  0.16971330957E+03  0.00000000000E+00 0.  1.
         21    1    1    2  504  501  0.62429865040E+02 -0.79425035824E+02  0.39568169170E+03  0.40837461418E+03  0.00000000000E+00 0.  1.
<mgrwt>
<rscale>  2 0.10102388E+03</rscale>
<asrwt>0</asrwt>
<pdfrwt beam="1">  1       21 0.85395347E-01 0.10102388E+03</pdfrwt>
<pdfrwt beam="2">  1       21 0.35412473E-02 0.10102388E+03</pdfrwt>
<totfact> 0.57633289E+05</totfact>
</mgrwt>
</event>
<event>
 4    1  0.6024238E+003  0.1046275E+03  0.7546771E-02  0.1270855E+00
         21   -1    0    0  504  501  0.00000000000E+00  0.00000000000E+00  0.58658415249E+02  0.58658415249E+02  0.00000000000E+00 0. -1.
         21   -1    0    0  501  502 -0.00000000000E+00 -0.00000000000E+00 -0.89889512288E+03  0.89889512288E+03  0.00000000000E+00 0. -1.
         21    1    1    2  503  502 -0.97352814112E+02  0.38332033933E+02 -0.84630714222E+03  0.85275007723E+03  0.00000000000E+00 0. -1.
         21    1    1    2  504  503  0.97352814112E+02 -0.38332033933E+02  0.60704345866E+01  0.10480346090E+03  0.00000000000E+00 0. -1.
<mgrwt>
<rscale>  2 0.10462751E+03</rscale>
<asrwt>0</asrwt>
<pdfrwt beam="1">  1       21 0.90243720E-02 0.10462751E+03</pdfrwt>
<pdfrwt beam="2">  1       21 0.13829155E+00 0.10462751E+03</pdfrwt>
<totfact> 0.38090176E+04</totfact>
</mgrwt>
</event>
<event>
 4    1  0.6024238E+003  0.1496271E+03  0.7546771E-02  0.1200932E+00
         21   -1    0    0  503  501  0.00000000000E+00  0.00000000000E+00  0.81780874796E+03  0.81780874796E+03  0.00000000000E+00 0. -1.
         21   -1    0    0  504  502 -0.00000000000E+00 -0.00000000000E+00 -0.13315423744E+03  0.13315423744E+03  0.00000000000E+00 0. -1.
         21    1    1    2  503  502  0.76268069369E+02  0.12873008941E+03 -0.81466429133E+02  0.17036734840E+03  0.00000000000E+00 0. -1.
         21    1    1    2  504  501 -0.76268069369E+02 -0.12873008941E+03  0.76612093965E+03  0.78059563700E+03  0.00000000000E+00 0. -1.
<mgrwt>
<rscale>  2 0.14962705E+03</rscale>
<asrwt>0</asrwt>
<pdfrwt beam="1">  1       21 0.12581673E+00 0.14962705E+03</pdfrwt>
<pdfrwt beam="2">  1       21 0.20485268E-01 0.14962705E+03</pdfrwt>
<totfact> 0.10707572E+04</totfact>
</mgrwt>
</event>
<event>
 4    1  0.6024238E+003  0.1425277E+03  0.7546771E-02  0.1209968E+00
         21   -1    0    0  503  501  0.00000000000E+00  0.00000000000E+00  0.48359147071E+03  0.48359147071E+03  0.00000000000E+00 0.  1.
         21   -1    0    0  504  502 -0.00000000000E+00 -0.00000000000E+00 -0.10539586504E+04  0.10539586504E+04  0.00000000000E+00 0. -1.
         21    1    1    2  503  502  0.11730325848E+03  0.80957334387E+02 -0.10384826368E+04  0.10482176927E+04  0.00000000000E+00 0. -1.
         21    1    1    2  504  501 -0.11730325848E+03 -0.80957334387E+02  0.46811545702E+03  0.48933242846E+03  0.00000000000E+00 0.  1.
<mgrwt>
<rscale>  2 0.14252770E+03</rscale>
<asrwt>0</asrwt>
<pdfrwt beam="1">  1       21 0.74398689E-01 0.14252770E+03</pdfrwt>
<pdfrwt beam="2">  1       21 0.16214748E+00 0.14252770E+03</pdfrwt>
<totfact> 0.42037866E+02</totfact>
</mgrwt>
</event>
<event>
 4    1  0.6024238E+003  0.1159826E+03  0.7546771E-02  0.1249876E+00
         21   -1    0    0  502  501  0.00000000000E+00  0.00000000000E+00  0.11294563022E+03  0.11294563022E+03  0.00000000000E+00 0.  1.
         21   -1    0    0  503  502 -0.00000000000E+00 -0.00000000000E+00 -0.13312724429E+03  0.13312724429E+03  0.00000000000E+00 0.  1.
         21    1    1    2  503  504 -0.10319235984E+03  0.52946115454E+02 -0.50027185271E+02  0.12631181076E+03  0.00000000000E+00 0.  1.
         21    1    1    2  504  501  0.10319235984E+03 -0.52946115454E+02  0.29845571200E+02  0.11976106375E+03  0.00000000000E+00 0.  1.
<mgrwt>
<rscale>  2 0.11598256E+03</rscale>
<asrwt>0</asrwt>
<pdfrwt beam="1">  1       21 0.17376251E-01 0.11598256E+03</pdfrwt>
<pdfrwt beam="2">  1       21 0.20481115E-01 0.11598256E+03</pdfrwt>
<totfact> 0.66497315E+05</totfact>
</mgrwt>
</event>
<event>
 4    1  0.6024238E+003  0.1126064E+03  0.7546771E-02  0.1255818E+00
         21   -1    0    0  504  501  0.00000000000E+00  0.00000000000E+00  0.67400150458E+02  0.67400150458E+02  0.00000000000E+00 0. -1.
         21   -1    0    0  503  502 -0.00000000000E+00 -0.00000000000E+00 -0.42355429123E+03  0.42355429123E+03  0.00000000000E+00 0. -1.
         21    1    1    2  503  501  0.11244641559E+03 -0.59998573930E+01 -0.36108903950E+03  0.37823998878E+03  0.00000000000E+00 0. -1.
         21    1    1    2  504  502 -0.11244641559E+03  0.59998573930E+01  0.49348987314E+01  0.11271445290E+03  0.00000000000E+00 0. -1.
<mgrwt>
<rscale>  2 0.11260637E+03</rscale>
<asrwt>0</asrwt>
<pdfrwt beam="1">  1       21 0.10369254E-01 0.11260637E+03</pdfrwt>
<pdfrwt beam="2">  1       21 0.65162197E-01 0.11260637E+03</pdfrwt>
<totfact> 0.16922062E+05</totfact>
</mgrwt>
</event>
<event>
 4    1  0.6024238E+003  0.1018576E+03  0.7546771E-02  0.1276438E+00
         21   -1    0    0  503  501  0.00000000000E+00  0.00000000000E+00  0.10968808801E+03  0.10968808801E+03  0.00000000000E+00 0.  1.
         21   -1    0    0  504  502 -0.00000000000E+00 -0.00000000000E+00 -0.24965856740E+03  0.24965856740E+03  0.00000000000E+00 0. -1.
         21    1    1    2  503  502 -0.18555346750E+02 -0.10015320263E+03 -0.21158997238E+03  0.23483032449E+03  0.00000000000E+00 0. -1.
         21    1    1    2  504  501  0.18555346750E+02  0.10015320263E+03  0.71619492990E+02  0.12451633092E+03  0.00000000000E+00 0.  1.
<mgrwt>
<rscale>  2 0.10185757E+03</rscale>
<asrwt>0</asrwt>
<pdfrwt beam="1">  1       21 0.16875091E-01 0.10185757E+03</pdfrwt>
<pdfrwt beam="2">  1       21 0.38409010E-01 0.10185757E+03</pdfrwt>
<totfact> 0.21176704E+05</totfact>
</mgrwt>
</event>
<event>
 4    1  0.6024238E+003  0.1445321E+03  0.7546771E-02  0.1207358E+00
         21   -1    0    0  502  501  0.00000000000E+00  0.00000000000E+00  0.52869856690E+02  0.52869856690E+02  0.00000000000E+00 0.  1.
         21   -1    0    0  504  502 -0.00000000000E+00 -0.00000000000E+00 -0.54841260676E+03  0.54841260676E+03  0.00000000000E+00 0.  1.
         21    1    1    2  503  501  0.13035892621E+03 -0.62418562836E+02 -0.88819210002E+02  0.16964191314E+03  0.00000000000E+00 0.  1.
         21    1    1    2  504  503 -0.13035892621E+03  0.62418562836E+02 -0.40672354006E+03  0.43164055031E+03  0.00000000000E+00 0.  1.
<mgrwt>
<rscale>  2 0.14453210E+03</rscale>
<asrwt>0</asrwt>
<pdfrwt beam="1">  1       21 0.81338235E-02 0.14453210E+03</pdfrwt>
<pdfrwt beam="2">  1       21 0.84371177E-01 0.14453210E+03</pdfrwt>
<totfact> 0.14452387E+05</totfact>
</mgrwt>
</event>
<event>
 4    1  0.6024238E+003  0.1091934E+03  0.7546771E-02  0.1262071E+00
         21   -1    0    0  502  501  0.00000000000E+00  0.00000000000E+00  0.10404969805E+03  0.10404969805E+03  0.00000000000E+00 0. -1.
         21   -1    0    0  504  502 -0.00000000000E+00 -0.00000000000E+00 -0.19256507957E+03  0.19256507957E+03  0.00000000000E+00 0.  1.
         21    1    1    2  503  501 -0.24979411240E+02 -0.10629783940E+03  0.50115362811E+02  0.12014470957E+03  0.00000000000E+00 0. -1.
         21    1    1    2  504  503  0.24979411240E+02  0.10629783940E+03 -0.13863074433E+03  0.17647006806E+03  0.00000000000E+00 0.  1.
<mgrwt>
<rscale>  2 0.10919341E+03</rscale>
<asrwt>0</asrwt>
<pdfrwt beam="1">  1       21 0.16007646E-01 0.10919341E+03</pdfrwt>
<pdfrwt beam="2">  1       21 0.29625397E-01 0.10919341E+03</pdfrwt>
<totfact> 0.38549913E+05</totfact>
</mgrwt>
</event>
<event>
 4    1  0.6024238E+003  0.1070604E+03  0.7546771E-02  0.1266113E+00
         21   -1    0    0  503  501  0.00000000000E+00  0.00000000000E+00  0.16415485974E+04  0.16415485974E+04  0.00000000000E+00 0.  1.
         21   -1    0    0  504  502 -0.00000000000E+00 -0.00000000000E+00 -0.76101204268E+01  0.76101204268E+01  0.00000000000E+00 0.  1.
         21    1    1    2  503  502  0.98993203600E+02  0.40770915123E+02  0.10537931364E+04  0.10592175868E+04  0.00000000000E+00 0.  1.
         21    1    1    2  504  501 -0.98993203600E+02 -0.40770915123E+02  0.58014534055E+03  0.58994113100E+03  0.00000000000E+00 0.  1.
<mgrwt>
<rscale>  2 0.10706037E+03</rscale>
<asrwt>0</asrwt>
<pdfrwt beam="1">  1       21 0.25254566E+00 0.10706037E+03</pdfrwt>
<pdfrwt beam="2">  1       21 0.11707891E-02 0.10706037E+03</pdfrwt>
<totfact> 0.19952165E+05</totfact>
</mgrwt>
</event>
<event>
 4    1  0.6024238E+003  0.1003954E+03  0.7546771E-02  0.1279467E+00
         21   -1    0    0  503  501  0.00000000000E+00  0.00000000000E+00  0.41208859576E+02  0.41208859576E+02  0.00000000000E+00 0.  1.
         21   -1    0    0  504  502 -0.00000000000E+00 -0.00000000000E+00 -0.38069144942E+03  0.38069144942E+03  0.00000000000E+00 0.  1.
         21    1    1    2  503  502  0.86917672870E+02  0.50244920017E+02 -0.43609012742E+02  0.10945766230E+03  0.00000000000E+00 0.  1.
         21    1    1    2  504  501 -0.86917672870E+02 -0.50244920017E+02 -0.29587357710E+03  0.31244264669E+03  0.00000000000E+00 0.  1.
<mgrwt>
<rscale>  2 0.10039539E+03</rscale>
<asrwt>0</asrwt>
<pdfrwt beam="1">  1       21 0.63398247E-02 0.10039539E+03</pdfrwt>
<pdfrwt beam="2">  1       21 0.58567914E-01 0.10039539E+03</pdfrwt>
<totfact> 0.49534540E+05</totfact>
</mgrwt>
</event>
<event>
 4    1  0.6024238E+003  0.1180146E+03  0.7546771E-02  0.1246409E+00
         21   -1    0    0  503  501  0.00000000000E+00  0.00000000000E+00  0.32705149623E+03  0.32705149623E+03  0.00000000000E+00 0.  1.
         21   -1    0    0  504  502 -0.00000000000E+00 -0.00000000000E+00 -0.45205967983E+02  0.45205967983E+02  0.00000000000E+00 0.  1.
         21    1    1    2  503  502 -0.80547499027E+02  0.86252867079E+02  0.18574095440E+03  0.22006171594E+03  0.00000000000E+00 0.  1.
         21    1    1    2  504  501  0.80547499027E+02 -0.86252867079E+02  0.96104573843E+02  0.15219574827E+03  0.00000000000E+00 0.  1.
<mgrwt>
<rscale>  2 0.11801465E+03</rscale>
<asrwt>0</asrwt>
<pdfrwt beam="1">  1       21 0.50315613E-01 0.11801465E+03</pdfrwt>
<pdfrwt beam="2">  1       21 0.69547645E-02 0.11801465E+03</pdfrwt>
<totfact> 0.57986836E+05</totfact>
</mgrwt>
</event>
<event>
 4    1  0.6024238E+003  0.1272712E+03  0.7546771E-02  0.1231562E+00
         21   -1    0    0  502  501  0.00000000000E+00  0.00000000000E+00  0.16643647134E+03  0.16643647134E+03  0.00000000000E+00 0.  1.
         21   -1    0    0  504  502 -0.00000000000E+00 -0.00000000000E+00 -0.16349796672E+03  0.16349796672E+03  0.00000000000E+00 0.  1.
         21    1    1    2  503  501  0.12620623457E+03 -0.16429922420E+02  0.10642134801E+03  0.16590195691E+03  0.00000000000E+00 0.  1.
         21    1    1    2  504  503 -0.12620623457E+03  0.16429922420E+02 -0.10348284339E+03  0.16403248115E+03  0.00000000000E+00 0.  1.
<mgrwt>
<rscale>  2 0.12727119E+03</rscale>
<asrwt>0</asrwt>
<pdfrwt beam="1">  1       21 0.25605611E-01 0.12727119E+03</pdfrwt>
<pdfrwt beam="2">  1       21 0.25153533E-01 0.12727119E+03</pdfrwt>
<totfact> 0.22027720E+05</totfact>
</mgrwt>
</event>
<event>
 4    1  0.6024238E+003  0.1008841E+03  0.7546771E-02  0.1278448E+00
         21   -1    0    0  504  501  0.00000000000E+00  0.00000000000E+00  0.11416770107E+03  0.11416770107E+03  0.00000000000E+00 0.  1.
         21   -1    0    0  501  502 -0.00000000000E+00 -0.00000000000E+00 -0.93400433970E+02  0.93400433970E+02  0.00000000000E+00 0.  1.
         21    1    1    2  503  502 -0.87231286893E+02  0.50678363946E+02 -0.11766537638E+02  0.10156793487E+03  0.00000000000E+00 0.  1.
         21    1    1    2  504  503  0.87231286893E+02 -0.50678363946E+02  0.32533804733E+02  0.10600020017E+03  0.00000000000E+00 0.  1.
<mgrwt>
<rscale>  2 0.10088406E+03</rscale>
<asrwt>0</asrwt>
<pdfrwt beam="1">  1       21 0.17564262E-01 0.10088406E+03</pdfrwt>
<pdfrwt beam="2">  1       21 0.14369298E-01 0.10088406E+03</pdfrwt>
<totfact> 0.12387485E+06</totfact>
</mgrwt>
</event>
<event>
 4    1  0.6024238E+003  0.1283234E+03  0.7546771E-02  0.1229965E+00
         21   -1    0    0  503  501  0.00000000000E+00  0.00000000000E+00  0.12659793644E+03  0.12659793644E+03  0.00000000000E+00 0.  1.
         21   -1    0    0  504  502 -0.00000000000E+00 -0.00000000000E+00 -0.33770736659E+03  0.33770736659E+03  0.00000000000E+00 0.  1.
         21    1    1    2  503  502  0.95892264059E+02  0.85273422516E+02  0.76479802598E+02  0.14938555184E+03  0.00000000000E+00 0.  1.
         21    1    1    2  504  501 -0.95892264059E+02 -0.85273422516E+02 -0.28758923275E+03  0.31491975119E+03  0.00000000000E+00 0.  1.
<mgrwt>
<rscale>  2 0.12832335E+03</rscale>
<asrwt>0</asrwt>
<pdfrwt beam="1">  1       21 0.19476606E-01 0.12832335E+03</pdfrwt>
<pdfrwt beam="2">  1       21 0.51954978E-01 0.12832335E+03</pdfrwt>
<totfact> 0.87581607E+04</totfact>
</mgrwt>
</event>
<event>
 4    1  0.6024238E+003  0.1183775E+03  0.7546771E-02  0.1245798E+00
         21   -1    0    0  504  501  0.00000000000E+00  0.00000000000E+00  0.37737193991E+03  0.37737193991E+03  0.00000000000E+00 0. -1.
         21   -1    0    0  503  502 -0.00000000000E+00 -0.00000000000E+00 -0.37266051695E+02  0.37266051695E+02  0.00000000000E+00 0. -1.
         21    1    1    2  503  501  0.10967636227E+03  0.44545838839E+02  0.15770026717E+03  0.19718674008E+03  0.00000000000E+00 0. -1.
         21    1    1    2  504  502 -0.10967636227E+03 -0.44545838839E+02  0.18240562105E+03  0.21745125152E+03  0.00000000000E+00 0. -1.
<mgrwt>
<rscale>  2 0.11837752E+03</rscale>
<asrwt>0</asrwt>
<pdfrwt beam="1">  1       21 0.58057219E-01 0.11837752E+03</pdfrwt>
<pdfrwt beam="2">  1       21 0.57332390E-02 0.11837752E+03</pdfrwt>
<totfact> 0.59734420E+05</totfact>
</mgrwt>
</event>
<event>
 4    1  0.6024238E+003  0.1003592E+03  0.7546771E-02  0.1279542E+00
         21   -1    0    0  504  501  0.00000000000E+00  0.00000000000E+00  0.27298114375E+03  0.27298114375E+03  0.00000000000E+00 0. -1.
         21   -1    0    0  503  502 -0.00000000000E+00 -0.00000000000E+00 -0.47599302740E+03  0.47599302740E+03  0.00000000000E+00 0.  1.
         21    1    1    2  503  501  0.80213833309E+02 -0.60313508238E+02  0.25817438050E+03  0.27699456506E+03  0.00000000000E+00 0. -1.
         21    1    1    2  504  502 -0.80213833309E+02  0.60313508238E+02 -0.46118626415E+03  0.47197960609E+03  0.00000000000E+00 0.  1.
<mgrwt>
<rscale>  2 0.10035925E+03</rscale>
<asrwt>0</asrwt>
<pdfrwt beam="1">  1       21 0.41997099E-01 0.10035925E+03</pdfrwt>
<pdfrwt beam="2">  1       21 0.73229696E-01 0.10035925E+03</pdfrwt>
<totfact> 0.99017399E+03</totfact>
</mgrwt>
</event>
<event>
 4    1  0.6024238E+003  0.1005799E+03  0.7546771E-02  0.1279081E+00
         21   -1    0    0  504  501  0.00000000000E+00  0.00000000000E+00  0.10029688388E+03  0.10029688388E+03  0.00000000000E+00 0.  1.
         21   -1    0    0  503  502 -0.00000000000E+00 -0.00000000000E+00 -0.62806129766E+03  0.62806129766E+03  0.00000000000E+00 0.  1.
         21    1    1    2  503  501  0.75637217888E+02 -0.66297246902E+02 -0.59753956531E+03  0.60594541486E+03  0.00000000000E+00 0.  1.
         21    1    1    2  504  502 -0.75637217888E+02  0.66297246902E+02  0.69775151533E+02  0.12241276669E+03  0.00000000000E+00 0.  1.
<mgrwt>
<rscale>  2 0.10057989E+03</rscale>
<asrwt>0</asrwt>
<pdfrwt beam="1">  1       21 0.15430290E-01 0.10057989E+03</pdfrwt>
<pdfrwt beam="2">  1       21 0.96624814E-01 0.10057989E+03</pdfrwt>
<totfact> 0.35161774E+04</totfact>
</mgrwt>
</event>
<event>
 4    1  0.6024238E+003  0.1228418E+03  0.7546771E-02  0.1238481E+00
         21   -1    0    0  504  501  0.00000000000E+00  0.00000000000E+00  0.12806516886E+02  0.12806516886E+02  0.00000000000E+00 0. -1.
         21   -1    0    0  503  502 -0.00000000000E+00 -0.00000000000E+00 -0.16016605947E+04  0.16016605947E+04  0.00000000000E+00 0. -1.
         21    1    1    2  503  501 -0.74166212787E+02 -0.97925913430E+02 -0.37941427304E+03  0.39880484228E+03  0.00000000000E+00 0. -1.
         21    1    1    2  504  502  0.74166212787E+02  0.97925913430E+02 -0.12094398048E+04  0.12156622693E+04  0.00000000000E+00 0. -1.
<mgrwt>
<rscale>  2 0.12284182E+03</rscale>
<asrwt>0</asrwt>
<pdfrwt beam="1">  1       21 0.19702349E-02 0.12284182E+03</pdfrwt>
<pdfrwt beam="2">  1       21 0.24640913E+00 0.12284182E+03</pdfrwt>
<totfact> 0.92998103E+04</totfact>
</mgrwt>
</event>
<event>
 4    1  0.6024238E+003  0.1939175E+03  0.7546771E-02  0.1154975E+00
         21   -1    0    0  503  501  0.00000000000E+00  0.00000000000E+00  0.55220583517E+02  0.55220583517E+02  0.00000000000E+00 0. -1.
         21   -1    0    0  504  502 -0.00000000000E+00 -0.00000000000E+00 -0.81315738136E+03  0.81315738136E+03  0.00000000000E+00 0. -1.
         21    1    1    2  503  502 -0.79324249675E+02  0.17695100944E+03 -0.55402300256E+03  0.58697996873E+03  0.00000000000E+00 0. -1.
         21    1    1    2  504  501  0.79324249675E+02 -0.17695100944E+03 -0.20391379528E+03  0.28139799614E+03  0.00000000000E+00 0. -1.
<mgrwt>
<rscale>  2 0.19391750E+03</rscale>
<asrwt>0</asrwt>
<pdfrwt beam="1">  1       21 0.84954744E-02 0.19391750E+03</pdfrwt>
<pdfrwt beam="2">  1       21 0.12510114E+00 0.19391750E+03</pdfrwt>
<totfact> 0.51412109E+04</totfact>
</mgrwt>
</event>
<event>
 4    1  0.6024238E+003  0.1011195E+03  0.7546771E-02  0.1277959E+00
         21   -1    0    0  502  501  0.00000000000E+00  0.00000000000E+00  0.17045805169E+03  0.17045805169E+03  0.00000000000E+00 0. -1.
         21   -1    0    0  503  502 -0.00000000000E+00 -0.00000000000E+00 -0.63696211286E+02  0.63696211286E+02  0.00000000000E+00 0. -1.
         21    1    1    2  503  504 -0.80441497084E+02 -0.61272492286E+02  0.25125918395E+02  0.10419435944E+03  0.00000000000E+00 0. -1.
         21    1    1    2  504  501  0.80441497084E+02  0.61272492286E+02  0.81635922005E+02  0.12995990353E+03  0.00000000000E+00 0. -1.
<mgrwt>
<rscale>  2 0.10111950E+03</rscale>
<asrwt>0</asrwt>
<pdfrwt beam="1">  1       21 0.26224315E-01 0.10111950E+03</pdfrwt>
<pdfrwt beam="2">  1       21 0.97994172E-02 0.10111950E+03</pdfrwt>
<totfact> 0.11575165E+06</totfact>
</mgrwt>
</event>
<event>
 4    1  0.6024238E+003  0.1157155E+03  0.7546771E-02  0.1250337E+00
         21   -1    0    0  504  501  0.00000000000E+00  0.00000000000E+00  0.11512776929E+03  0.11512776929E+03  0.00000000000E+00 0.  1.
         21   -1    0    0  501  502 -0.00000000000E+00 -0.00000000000E+00 -0.34257443629E+03  0.34257443629E+03  0.00000000000E+00 0.  1.
         21    1    1    2  503  502 -0.51835701007E+02 -0.10345601767E+03 -0.29971231308E+03  0.32127489492E+03  0.00000000000E+00 0.  1.
         21    1    1    2  504  503  0.51835701007E+02  0.10345601767E+03  0.72265646080E+02  0.13642731066E+03  0.00000000000E+00 0.  1.
<mgrwt>
<rscale>  2 0.11571555E+03</rscale>
<asrwt>0</asrwt>
<pdfrwt beam="1">  1       21 0.17711965E-01 0.11571555E+03</pdfrwt>
<pdfrwt beam="2">  1       21 0.52703759E-01 0.11571555E+03</pdfrwt>
<totfact> 0.10175554E+05</totfact>
</mgrwt>
</event>
<event>
 4    1  0.6024238E+003  0.1009128E+03  0.7546771E-02  0.1278388E+00
         21   -1    0    0  503  501  0.00000000000E+00  0.00000000000E+00  0.27963015353E+03  0.27963015353E+03  0.00000000000E+00 0.  1.
         21   -1    0    0  504  502 -0.00000000000E+00 -0.00000000000E+00 -0.36735670488E+02  0.36735670488E+02  0.00000000000E+00 0.  1.
         21    1    1    2  503  502 -0.62907909266E+02 -0.78904928958E+02  0.10672279859E+03  0.14687800584E+03  0.00000000000E+00 0.  1.
         21    1    1    2  504  501  0.62907909266E+02  0.78904928958E+02  0.13617168445E+03  0.16948781817E+03  0.00000000000E+00 0.  1.
<mgrwt>
<rscale>  2 0.10091280E+03</rscale>
<asrwt>0</asrwt>
<pdfrwt beam="1">  1       21 0.43020022E-01 0.10091280E+03</pdfrwt>
<pdfrwt beam="2">  1       21 0.56516418E-02 0.10091280E+03</pdfrwt>
<totfact> 0.11317254E+06</totfact>
</mgrwt>
</event>
<event>
 4    1  0.6024238E+003  0.1131654E+03  0.7546771E-02  0.1254818E+00
         21   -1    0    0  503  501  0.00000000000E+00  0.00000000000E+00  0.17996803970E+03  0.17996803970E+03  0.00000000000E+00 0.  1.
         21   -1    0    0  504  502 -0.00000000000E+00 -0.00000000000E+00 -0.71272492037E+02  0.71272492037E+02  0.00000000000E+00 0.  1.
         21    1    1    2  503  502  0.11066124003E+03  0.23674711281E+02  0.49341870614E+02  0.12345453493E+03  0.00000000000E+00 0.  1.
         21    1    1    2  504  501 -0.11066124003E+03 -0.23674711281E+02  0.59353677050E+02  0.12778599681E+03  0.00000000000E+00 0.  1.
<mgrwt>
<rscale>  2 0.11316537E+03</rscale>
<asrwt>0</asrwt>
<pdfrwt beam="1">  1       21 0.27687391E-01 0.11316537E+03</pdfrwt>
<pdfrwt beam="2">  1       21 0.10964999E-01 0.11316537E+03</pdfrwt>
<totfact> 0.85971120E+05</totfact>
</mgrwt>
</event>
<event>
 4    1  0.6024238E+003  0.1119544E+03  0.7546771E-02  0.1256993E+00
         21   -1    0    0  503  501  0.00000000000E+00  0.00000000000E+00  0.74605792703E+02  0.74605792703E+02  0.00000000000E+00 0. -1.
         21   -1    0    0  501  502 -0.00000000000E+00 -0.00000000000E+00 -0.26404335427E+03  0.26404335427E+03  0.00000000000E+00 0.  1.
         21    1    1    2  503  504  0.11192099306E+03 -0.27335860920E+01  0.74023903531E+01  0.11219882604E+03  0.00000000000E+00 0. -1.
         21    1    1    2  504  502 -0.11192099306E+03  0.27335860920E+01 -0.19683995192E+03  0.22645032094E+03  0.00000000000E+00 0.  1.
<mgrwt>
<rscale>  2 0.11195437E+03</rscale>
<asrwt>0</asrwt>
<pdfrwt beam="1">  1       21 0.11477814E-01 0.11195437E+03</pdfrwt>
<pdfrwt beam="2">  1       21 0.40622055E-01 0.11195437E+03</pdfrwt>
<totfact> 0.37602274E+05</totfact>
</mgrwt>
</event>
<event>
 4    1  0.6024238E+003  0.1254894E+03  0.7546771E-02  0.1234306E+00
         21   -1    0    0  503  501  0.00000000000E+00  0.00000000000E+00  0.31442728698E+02  0.31442728698E+02  0.00000000000E+00 0. -1.
         21   -1    0    0  504  502 -0.00000000000E+00 -0.00000000000E+00 -0.60260213452E+03  0.60260213452E+03  0.00000000000E+00 0. -1.
         21    1    1    2  503  502 -0.38766869245E+02 -0.11935127266E+03 -0.15529903811E+03  0.19966318557E+03  0.00000000000E+00 0. -1.
         21    1    1    2  504  501  0.38766869245E+02  0.11935127266E+03 -0.41586036772E+03  0.43438167765E+03  0.00000000000E+00 0. -1.
<mgrwt>
<rscale>  2 0.12548943E+03</rscale>
<asrwt>0</asrwt>
<pdfrwt beam="1">  1       21 0.48373435E-02 0.12548943E+03</pdfrwt>
<pdfrwt beam="2">  1       21 0.92708009E-01 0.12548943E+03</pdfrwt>
<totfact> 0.28390829E+05</totfact>
</mgrwt>
</event>
<event>
 4    1  0.6024238E+003  0.1084330E+03  0.7546771E-02  0.1263500E+00
         21   -1    0    0  503  501  0.00000000000E+00  0.00000000000E+00  0.36031870315E+03  0.36031870315E+03  0.00000000000E+00 0.  1.
         21   -1    0    0  501  502 -0.00000000000E+00 -0.00000000000E+00 -0.33140280307E+03  0.33140280307E+03  0.00000000000E+00 0.  1.
         21    1    1    2  503  504 -0.62790933580E+02  0.88402533657E+02  0.34285004645E+03  0.35958846428E+03  0.00000000000E+00 0.  1.
         21    1    1    2  504  502  0.62790933580E+02 -0.88402533657E+02 -0.31393414637E+03  0.33213304194E+03  0.00000000000E+00 0.  1.
<mgrwt>
<rscale>  2 0.10843297E+03</rscale>
<asrwt>0</asrwt>
<pdfrwt beam="1">  1       21 0.55433647E-01 0.10843297E+03</pdfrwt>
<pdfrwt beam="2">  1       21 0.50985046E-01 0.10843297E+03</pdfrwt>
<totfact> 0.11993069E+04</totfact>
</mgrwt>
</event>
<event>
 4    1  0.6024238E+003  0.1017052E+03  0.7546771E-02  0.1276750E+00
         21   -1    0    0  503  501  0.00000000000E+00  0.00000000000E+00  0.25574664608E+04  0.25574664608E+04  0.00000000000E+00 0. -1.
         21   -1    0    0  504  502 -0.00000000000E+00 -0.00000000000E+00 -0.26712453078E+02  0.26712453078E+02  0.00000000000E+00 0. -1.
         21    1    1    2  503  502 -0.54686777833E+02 -0.85751410063E+02  0.24556342098E+04  0.24577394737E+04  0.00000000000E+00 0. -1.
         21    1    1    2  504  501  0.54686777833E+02  0.85751410063E+02  0.75119797847E+02  0.12643944015E+03  0.00000000000E+00 0. -1.
<mgrwt>
<rscale>  2 0.10170520E+03</rscale>
<asrwt>0</asrwt>
<pdfrwt beam="1">  1       21 0.39345619E+00 0.10170520E+03</pdfrwt>
<pdfrwt beam="2">  1       21 0.41096102E-02 0.10170520E+03</pdfrwt>
<totfact> 0.42393425E+03</totfact>
</mgrwt>
</event>
<event>
 4    1  0.6024238E+003  0.1424503E+03  0.7546771E-02  0.1210069E+00
         21   -1    0    0  503  501  0.00000000000E+00  0.00000000000E+00  0.19077071505E+03  0.19077071505E+03  0.00000000000E+00 0.  1.
         21   -1    0    0  504  502 -0.00000000000E+00 -0.00000000000E+00 -0.12561414717E+03  0.12561414717E+03  0.00000000000E+00 0.  1.
         21    1    1    2  503  502 -0.22842010663E+02  0.14060700715E+03  0.94497746252E+02  0.17094417789E+03  0.00000000000E+00 0.  1.
         21    1    1    2  504  501  0.22842010663E+02 -0.14060700715E+03 -0.29341178366E+02  0.14544068433E+03  0.00000000000E+00 0.  1.
<mgrwt>
<rscale>  2 0.14245030E+03</rscale>
<asrwt>0</asrwt>
<pdfrwt beam="1">  1       21 0.29349341E-01 0.14245030E+03</pdfrwt>
<pdfrwt beam="2">  1       21 0.19325253E-01 0.14245030E+03</pdfrwt>
<totfact> 0.27680254E+05</totfact>
</mgrwt>
</event>
<event>
 4    1  0.6024238E+003  0.1108225E+03  0.7546771E-02  0.1259054E+00
         21   -1    0    0  504  501  0.00000000000E+00  0.00000000000E+00  0.27307182024E+03  0.27307182024E+03  0.00000000000E+00 0. -1.
         21   -1    0    0  503  502 -0.00000000000E+00 -0.00000000000E+00 -0.13796404843E+03  0.13796404843E+03  0.00000000000E+00 0. -1.
         21    1    1    2  503  501 -0.98445370772E+02  0.50893272809E+02 -0.10117166606E+03  0.15005772974E+03  0.00000000000E+00 0. -1.
         21    1    1    2  504  502  0.98445370772E+02 -0.50893272809E+02  0.23627943786E+03  0.26097813893E+03  0.00000000000E+00 0. -1.
<mgrwt>
<rscale>  2 0.11082245E+03</rscale>
<asrwt>0</asrwt>
<pdfrwt beam="1">  1       21 0.42011049E-01 0.11082245E+03</pdfrwt>
<pdfrwt beam="2">  1       21 0.21225238E-01 0.11082245E+03</pdfrwt>
<totfact> 0.11609246E+05</totfact>
</mgrwt>
</event>
<event>
 4    1  0.6024238E+003  0.1157769E+03  0.7546771E-02  0.1250231E+00
         21   -1    0    0  504  501  0.00000000000E+00  0.00000000000E+00  0.33429497423E+02  0.33429497423E+02  0.00000000000E+00 0.  1.
         21   -1    0    0  501  502 -0.00000000000E+00 -0.00000000000E+00 -0.71312508899E+03  0.71312508899E+03  0.00000000000E+00 0.  1.
         21    1    1    2  503  502  0.19208044554E+02  0.11417246991E+03 -0.58681104858E+03  0.59812332223E+03  0.00000000000E+00 0.  1.
         21    1    1    2  504  503 -0.19208044554E+02 -0.11417246991E+03 -0.92884542984E+02  0.14843126418E+03  0.00000000000E+00 0.  1.
<mgrwt>
<rscale>  2 0.11577695E+03</rscale>
<asrwt>0</asrwt>
<pdfrwt beam="1">  1       21 0.51430003E-02 0.11577695E+03</pdfrwt>
<pdfrwt beam="2">  1       21 0.10971154E+00 0.11577695E+03</pdfrwt>
<totfact> 0.17325620E+05</totfact>
</mgrwt>
</event>
<event>
 4    1  0.6024238E+003  0.1003751E+03  0.7546771E-02  0.1279509E+00
         21   -1    0    0  503  501  0.00000000000E+00  0.00000000000E+00  0.12042871199E+02  0.12042871199E+02  0.00000000000E+00 0.  1.
         21   -1    0    0  504  502 -0.00000000000E+00 -0.00000000000E+00 -0.15207250970E+04  0.15207250970E+04  0.00000000000E+00 0.  1.
         21    1    1    2  503  502 -0.64009274352E+02  0.77317339098E+02 -0.12683686650E+04  0.12723341654E+04  0.00000000000E+00 0.  1.
         21    1    1    2  504  501  0.64009274352E+02 -0.77317339098E+02 -0.24031356081E+03  0.26043380280E+03  0.00000000000E+00 0.  1.
<mgrwt>
<rscale>  2 0.10037509E+03</rscale>
<asrwt>0</asrwt>
<pdfrwt beam="1">  1       21 0.18527499E-02 0.10037509E+03</pdfrwt>
<pdfrwt beam="2">  1       21 0.23395764E+00 0.10037509E+03</pdfrwt>
<totfact> 0.12368106E+05</totfact>
</mgrwt>
</event>
<event>
 4    1  0.6024238E+003  0.1425402E+03  0.7546771E-02  0.1209951E+00
         21   -1    0    0  504  501  0.00000000000E+00  0.00000000000E+00  0.63282074136E+03  0.63282074136E+03  0.00000000000E+00 0.  1.
         21   -1    0    0  503  502 -0.00000000000E+00 -0.00000000000E+00 -0.33494889700E+02  0.33494889700E+02  0.00000000000E+00 0.  1.
         21    1    1    2  503  501 -0.98893439245E+02 -0.10265380717E+03  0.36748987049E+03  0.39416560145E+03  0.00000000000E+00 0.  1.
         21    1    1    2  504  502  0.98893439245E+02  0.10265380717E+03  0.23183598116E+03  0.27215002961E+03  0.00000000000E+00 0.  1.
<mgrwt>
<rscale>  2 0.14254023E+03</rscale>
<asrwt>0</asrwt>
<pdfrwt beam="1">  1       21 0.97357028E-01 0.14254023E+03</pdfrwt>
<pdfrwt beam="2">  1       21 0.51530604E-02 0.14254023E+03</pdfrwt>
<totfact> 0.22691954E+05</totfact>
</mgrwt>
</event>
<event>
 4    1  0.6024238E+003  0.1074269E+03  0.7546771E-02  0.1265410E+00
         21   -1    0    0  502  501  0.00000000000E+00  0.00000000000E+00  0.11386580362E+03  0.11386580362E+03  0.00000000000E+00 0.  1.
         21   -1    0    0  504  502 -0.00000000000E+00 -0.00000000000E+00 -0.13126252034E+03  0.13126252034E+03  0.00000000000E+00 0. -1.
         21    1    1    2  503  501  0.76044169453E+02  0.75880341720E+02  0.49808146721E+02  0.11841196497E+03  0.00000000000E+00 0.  1.
         21    1    1    2  504  503 -0.76044169453E+02 -0.75880341720E+02 -0.67204863434E+02  0.12671635899E+03  0.00000000000E+00 0. -1.
<mgrwt>
<rscale>  2 0.10742691E+03</rscale>
<asrwt>0</asrwt>
<pdfrwt beam="1">  1       21 0.17517816E-01 0.10742691E+03</pdfrwt>
<pdfrwt beam="2">  1       21 0.20194234E-01 0.10742691E+03</pdfrwt>
<totfact> 0.67244159E+05</totfact>
</mgrwt>
</event>
<event>
 4    1  0.6024238E+003  0.1101040E+03  0.7546771E-02  0.1260377E+00
         21   -1    0    0  503  501  0.00000000000E+00  0.00000000000E+00  0.12139290859E+03  0.12139290859E+03  0.00000000000E+00 0.  1.
         21   -1    0    0  504  502 -0.00000000000E+00 -0.00000000000E+00 -0.25064740021E+03  0.25064740021E+03  0.00000000000E+00 0.  1.
         21    1    1    2  503  502  0.68071428132E+02  0.86539976454E+02 -0.20890650837E+03  0.23614575179E+03  0.00000000000E+00 0.  1.
         21    1    1    2  504  501 -0.68071428132E+02 -0.86539976454E+02  0.79652016743E+02  0.13589455701E+03  0.00000000000E+00 0.  1.
<mgrwt>
<rscale>  2 0.11010398E+03</rscale>
<asrwt>0</asrwt>
<pdfrwt beam="1">  1       21 0.18675832E-01 0.11010398E+03</pdfrwt>
<pdfrwt beam="2">  1       21 0.38561139E-01 0.11010398E+03</pdfrwt>
<totfact> 0.17432032E+05</totfact>
</mgrwt>
</event>
<event>
 4    1  0.6024238E+003  0.1018816E+03  0.7546771E-02  0.1276388E+00
         21   -1    0    0  503  501  0.00000000000E+00  0.00000000000E+00  0.26763334443E+02  0.26763334443E+02  0.00000000000E+00 0. -1.
         21   -1    0    0  504  502 -0.00000000000E+00 -0.00000000000E+00 -0.61375400958E+03  0.61375400958E+03  0.00000000000E+00 0. -1.
         21    1    1    2  503  502 -0.97310791827E+02 -0.30173844947E+02 -0.48779711070E+03  0.49832306020E+03  0.00000000000E+00 0. -1.
         21    1    1    2  504  501  0.97310791827E+02  0.30173844947E+02 -0.99193564439E+02  0.14219428382E+03  0.00000000000E+00 0. -1.
<mgrwt>
<rscale>  2 0.10188155E+03</rscale>
<asrwt>0</asrwt>
<pdfrwt beam="1">  1       21 0.41174362E-02 0.10188155E+03</pdfrwt>
<pdfrwt beam="2">  1       21 0.94423691E-01 0.10188155E+03</pdfrwt>
<totfact> 0.35789460E+05</totfact>
</mgrwt>
</event>
<event>
 4    1  0.6024238E+003  0.1242561E+03  0.7546771E-02  0.1236237E+00
         21   -1    0    0  503  501  0.00000000000E+00  0.00000000000E+00  0.26656788590E+02  0.26656788590E+02  0.00000000000E+00 0.  1.
         21   -1    0    0  504  502 -0.00000000000E+00 -0.00000000000E+00 -0.86708526830E+03  0.86708526830E+03  0.00000000000E+00 0. -1.
         21    1    1    2  503  502  0.79277703156E+01  0.12400290419E+03 -0.67770533205E+03  0.68900224011E+03  0.00000000000E+00 0. -1.
         21    1    1    2  504  501 -0.79277703156E+01 -0.12400290419E+03 -0.16272314766E+03  0.20473981678E+03  0.00000000000E+00 0.  1.
<mgrwt>
<rscale>  2 0.12425607E+03</rscale>
<asrwt>0</asrwt>
<pdfrwt beam="1">  1       21 0.41010444E-02 0.12425607E+03</pdfrwt>
<pdfrwt beam="2">  1       21 0.13339773E+00 0.12425607E+03</pdfrwt>
<totfact> 0.15646947E+05</totfact>
</mgrwt>
</event>
<event>
 4    1  0.6024238E+003  0.1459792E+03  0.7546771E-02  0.1205503E+00
         21   -1    0    0  504  501  0.00000000000E+00  0.00000000000E+00  0.22303835567E+03  0.22303835567E+03  0.00000000000E+00 0. -1.
         21   -1    0    0  503  502 -0.00000000000E+00 -0.00000000000E+00 -0.13217240662E+03  0.13217240662E+03  0.00000000000E+00 0. -1.
         21    1    1    2  503  501 -0.11937936750E+03 -0.84014778559E+02 -0.48063736997E+02  0.15368812321E+03  0.00000000000E+00 0. -1.
         21    1    1    2  504  502  0.11937936750E+03  0.84014778559E+02  0.13892968605E+03  0.20152263909E+03  0.00000000000E+00 0. -1.
<mgrwt>
<rscale>  2 0.14597916E+03</rscale>
<asrwt>0</asrwt>
<pdfrwt beam="1">  1       21 0.34313593E-01 0.14597916E+03</pdfrwt>
<pdfrwt beam="2">  1       21 0.20334216E-01 0.14597916E+03</pdfrwt>
<totfact> 0.18565518E+05</totfact>
</mgrwt>
</event>
<event>
 4    1  0.6024238E+003  0.1302780E+03  0.7546771E-02  0.1227044E+00
         21   -1    0    0  502  501  0.00000000000E+00  0.00000000000E+00  0.49894424626E+03  0.49894424626E+03  0.00000000000E+00 0.  1.
         21   -1    0    0  504  502 -0.00000000000E+00 -0.00000000000E+00 -0.35156375986E+02  0.35156375986E+02  0.00000000000E+00 0. -1.
         21    1    1    2  503  501 -0.12896491215E+03 -0.18450347232E+02  0.27997892840E+03  0.30880505862E+03  0.00000000000E+00 0.  1.
         21    1    1    2  504  503  0.12896491215E+03  0.18450347232E+02  0.18380894187E+03  0.22529556363E+03  0.00000000000E+00 0. -1.
<mgrwt>
<rscale>  2 0.13027803E+03</rscale>
<asrwt>0</asrwt>
<pdfrwt beam="1">  1       21 0.76760648E-01 0.13027803E+03</pdfrwt>
<pdfrwt beam="2">  1       21 0.54086736E-02 0.13027803E+03</pdfrwt>
<totfact> 0.35997273E+05</totfact>
</mgrwt>
</event>
<event>
 4    1  0.6024238E+003  0.1181543E+03  0.7546771E-02  0.1246173E+00
         21   -1    0    0  503  501  0.00000000000E+00  0.00000000000E+00  0.77433123656E+02  0.77433123656E+02  0.00000000000E+00 0.  1.
         21   -1    0    0  504  502 -0.00000000000E+00 -0.00000000000E+00 -0.18068080155E+03  0.18068080155E+03  0.00000000000E+00 0. -1.
         21    1    1    2  503  502  0.79302407757E+02 -0.87587438528E+02 -0.45623063195E+02  0.12665660330E+03  0.00000000000E+00 0.  1.
         21    1    1    2  504  501 -0.79302407757E+02  0.87587438528E+02 -0.57624614701E+02  0.13145732191E+03  0.00000000000E+00 0. -1.
<mgrwt>
<rscale>  2 0.11815427E+03</rscale>
<asrwt>0</asrwt>
<pdfrwt beam="1">  1       21 0.11912788E-01 0.11815427E+03</pdfrwt>
<pdfrwt beam="2">  1       21 0.27797046E-01 0.11815427E+03</pdfrwt>
<totfact> 0.73752200E+05</totfact>
</mgrwt>
</event>
<event>
 4    1  0.6024238E+003  0.1042855E+03  0.7546771E-02  0.1271534E+00
         21   -1    0    0  504  501  0.00000000000E+00  0.00000000000E+00  0.24055058212E+02  0.24055058212E+02  0.00000000000E+00 0. -1.
         21   -1    0    0  503  502 -0.00000000000E+00 -0.00000000000E+00 -0.50857564329E+03  0.50857564329E+03  0.00000000000E+00 0. -1.
         21    1    1    2  503  501  0.16254068815E+02  0.10301104061E+03 -0.33100054376E+03  0.34704009741E+03  0.00000000000E+00 0. -1.
         21    1    1    2  504  502 -0.16254068815E+02 -0.10301104061E+03 -0.15352004132E+03  0.18559060409E+03  0.00000000000E+00 0. -1.
<mgrwt>
<rscale>  2 0.10428552E+03</rscale>
<asrwt>0</asrwt>
<pdfrwt beam="1">  1       21 0.37007786E-02 0.10428552E+03</pdfrwt>
<pdfrwt beam="2">  1       21 0.78242399E-01 0.10428552E+03</pdfrwt>
<totfact> 0.65128878E+05</totfact>
</mgrwt>
</event>
<event>
 4    1  0.6024238E+003  0.1143828E+03  0.7546771E-02  0.1252662E+00
         21   -1    0    0  503  501  0.00000000000E+00  0.00000000000E+00  0.37798231079E+03  0.37798231079E+03  0.00000000000E+00 0. -1.
         21   -1    0    0  501  502 -0.00000000000E+00 -0.00000000000E+00 -0.36506689956E+02  0.36506689956E+02  0.00000000000E+00 0. -1.
         21    1    1    2  503  504  0.69604591006E+02 -0.90766931680E+02  0.12354779698E+03  0.16836713787E+03  0.00000000000E+00 0. -1.
         21    1    1    2  504  502 -0.69604591006E+02  0.90766931680E+02  0.21792782385E+03  0.24612186287E+03  0.00000000000E+00 0. -1.
<mgrwt>
<rscale>  2 0.11438284E+03</rscale>
<asrwt>0</asrwt>
<pdfrwt beam="1">  1       21 0.58151122E-01 0.11438284E+03</pdfrwt>
<pdfrwt beam="2">  1       21 0.56164141E-02 0.11438284E+03</pdfrwt>
<totfact> 0.61646586E+05</totfact>
</mgrwt>
</event>
<event>
 4    1  0.6024238E+003  0.1257928E+03  0.7546771E-02  0.1233835E+00
         21   -1    0    0  503  501  0.00000000000E+00  0.00000000000E+00  0.22228527213E+02  0.22228527213E+02  0.00000000000E+00 0.  1.
         21   -1    0    0  504  502 -0.00000000000E+00 -0.00000000000E+00 -0.86903134166E+03  0.86903134166E+03  0.00000000000E+00 0. -1.
         21    1    1    2  503  502  0.12170506484E+03 -0.31807255340E+02 -0.23389262686E+03  0.26557406725E+03  0.00000000000E+00 0.  1.
         21    1    1    2  504  501 -0.12170506484E+03  0.31807255340E+02 -0.61291018759E+03  0.62568580162E+03  0.00000000000E+00 0. -1.
<mgrwt>
<rscale>  2 0.12579278E+03</rscale>
<asrwt>0</asrwt>
<pdfrwt beam="1">  1       21 0.34197731E-02 0.12579278E+03</pdfrwt>
<pdfrwt beam="2">  1       21 0.13369714E+00 0.12579278E+03</pdfrwt>
<totfact> 0.21003259E+05</totfact>
</mgrwt>
</event>
<event>
 4    1  0.6024238E+003  0.1055681E+03  0.7546771E-02  0.1269004E+00
         21   -1    0    0  503  501  0.00000000000E+00  0.00000000000E+00  0.93436398244E+01  0.93436398244E+01  0.00000000000E+00 0. -1.
         21   -1    0    0  504  502 -0.00000000000E+00 -0.00000000000E+00 -0.12759311016E+04  0.12759311016E+04  0.00000000000E+00 0. -1.
         21    1    1    2  503  502 -0.21893812045E+02  0.10327286333E+03 -0.46920998445E+03  0.48093932342E+03  0.00000000000E+00 0. -1.
         21    1    1    2  504  501  0.21893812045E+02 -0.10327286333E+03 -0.79737747735E+03  0.80433541803E+03  0.00000000000E+00 0. -1.
<mgrwt>
<rscale>  2 0.10556810E+03</rscale>
<asrwt>0</asrwt>
<pdfrwt beam="1">  1       21 0.14374829E-02 0.10556810E+03</pdfrwt>
<pdfrwt beam="2">  1       21 0.19629711E+00 0.10556810E+03</pdfrwt>
<totfact> 0.31039133E+05</totfact>
</mgrwt>
</event>
<event>
 4    1  0.6024238E+003  0.1020285E+03  0.7546771E-02  0.1276087E+00
         21   -1    0    0  503  501  0.00000000000E+00  0.00000000000E+00  0.71303745017E+02  0.71303745017E+02  0.00000000000E+00 0.  1.
         21   -1    0    0  504  502 -0.00000000000E+00 -0.00000000000E+00 -0.19224422837E+03  0.19224422837E+03  0.00000000000E+00 0. -1.
         21    1    1    2  503  502  0.39775121888E+02 -0.93956112270E+02  0.41646545118E+01  0.10211344525E+03  0.00000000000E+00 0.  1.
         21    1    1    2  504  501 -0.39775121888E+02  0.93956112270E+02 -0.12510513786E+03  0.16143452813E+03  0.00000000000E+00 0. -1.
<mgrwt>
<rscale>  2 0.10202848E+03</rscale>
<asrwt>0</asrwt>
<pdfrwt beam="1">  1       21 0.10969807E-01 0.10202848E+03</pdfrwt>
<pdfrwt beam="2">  1       21 0.29576035E-01 0.10202848E+03</pdfrwt>
<totfact> 0.75674027E+05</totfact>
</mgrwt>
</event>
<event>
 4    1  0.6024238E+003  0.1590600E+03  0.7546771E-02  0.1189762E+00
         21   -1    0    0  504  501  0.00000000000E+00  0.00000000000E+00  0.30438022317E+03  0.30438022317E+03  0.00000000000E+00 0. -1.
         21   -1    0    0  501  502 -0.00000000000E+00 -0.00000000000E+00 -0.80796930069E+03  0.80796930069E+03  0.00000000000E+00 0. -1.
         21    1    1    2  503  502  0.12150942438E+03 -0.10264273453E+03 -0.77858478183E+03  0.79466617750E+03  0.00000000000E+00 0. -1.
         21    1    1    2  504  503 -0.12150942438E+03  0.10264273453E+03  0.27499570431E+03  0.31768334636E+03  0.00000000000E+00 0. -1.
<mgrwt>
<rscale>  2 0.15905996E+03</rscale>
<asrwt>0</asrwt>
<pdfrwt beam="1">  1       21 0.46827727E-01 0.15905996E+03</pdfrwt>
<pdfrwt beam="2">  1       21 0.12430297E+00 0.15905996E+03</pdfrwt>
<totfact> 0.21834193E+03</totfact>
</mgrwt>
</event>
<event>
 4    1  0.6024238E+003  0.1064976E+03  0.7546771E-02  0.1267197E+00
         21   -1    0    0  503  501  0.00000000000E+00  0.00000000000E+00  0.34198764912E+03  0.34198764912E+03  0.00000000000E+00 0. -1.
         21   -1    0    0  504  502 -0.00000000000E+00 -0.00000000000E+00 -0.43444046258E+02  0.43444046258E+02  0.00000000000E+00 0. -1.
         21    1    1    2  503  502 -0.84586879532E+02 -0.64705519675E+02  0.55527311700E+02  0.12010423311E+03  0.00000000000E+00 0. -1.
         21    1    1    2  504  501  0.84586879532E+02  0.64705519675E+02  0.24301629116E+03  0.26532746227E+03  0.00000000000E+00 0. -1.
<mgrwt>
<rscale>  2 0.10649763E+03</rscale>
<asrwt>0</asrwt>
<pdfrwt beam="1">  1       21 0.52613483E-01 0.10649763E+03</pdfrwt>
<pdfrwt beam="2">  1       21 0.66836997E-02 0.10649763E+03</pdfrwt>
<totfact> 0.56614429E+05</totfact>
</mgrwt>
</event>
<event>
 4    1  0.6024238E+003  0.1000354E+03  0.7546771E-02  0.1280222E+00
         21   -1    0    0  503  501  0.00000000000E+00  0.00000000000E+00  0.23251749608E+03  0.23251749608E+03  0.00000000000E+00 0.  1.
         21   -1    0    0  504  502 -0.00000000000E+00 -0.00000000000E+00 -0.43168448233E+02  0.43168448233E+02  0.00000000000E+00 0. -1.
         21    1    1    2  503  502 -0.56347800070E+02 -0.82655920494E+02  0.10225345669E+03  0.14304840149E+03  0.00000000000E+00 0.  1.
         21    1    1    2  504  501  0.56347800070E+02  0.82655920494E+02  0.87095591157E+02  0.13263754282E+03  0.00000000000E+00 0. -1.
<mgrwt>
<rscale>  2 0.10003537E+03</rscale>
<asrwt>0</asrwt>
<pdfrwt beam="1">  1       21 0.35771922E-01 0.10003537E+03</pdfrwt>
<pdfrwt beam="2">  1       21 0.66412999E-02 0.10003537E+03</pdfrwt>
<totfact> 0.12419478E+06</totfact>
</mgrwt>
</event>
<event>
 4    1  0.6024238E+003  0.1207245E+03  0.7546771E-02  0.1241907E+00
         21   -1    0    0  504  501  0.00000000000E+00  0.00000000000E+00  0.19464144311E+03  0.19464144311E+03  0.00000000000E+00 0.  1.
         21   -1    0    0  503  502 -0.00000000000E+00 -0.00000000000E+00 -0.14844558737E+03  0.14844558737E+03  0.00000000000E+00 0. -1.
         21    1    1    2  503  501  0.12029265114E+03 -0.10202233122E+02  0.14386074230E+03  0.18780394206E+03  0.00000000000E+00 0.  1.
         21    1    1    2  504  502 -0.12029265114E+03  0.10202233122E+02 -0.97664886566E+02  0.15528308841E+03  0.00000000000E+00 0. -1.
<mgrwt>
<rscale>  2 0.12072451E+03</rscale>
<asrwt>0</asrwt>
<pdfrwt beam="1">  1       21 0.29944838E-01 0.12072451E+03</pdfrwt>
<pdfrwt beam="2">  1       21 0.22837783E-01 0.12072451E+03</pdfrwt>
<totfact> 0.19621560E+05</totfact>
</mgrwt>
</event>
<event>
 4    1  0.6024238E+003  0.1072466E+03  0.7546771E-02  0.1265755E+00
         21   -1    0    0  503  501  0.00000000000E+00  0.00000000000E+00  0.64168773419E+03  0.64168773419E+03  0.00000000000E+00 0. -1.
         21   -1    0    0  501  502 -0.00000000000E+00 -0.00000000000E+00 -0.20423364664E+02  0.20423364664E+02  0.00000000000E+00 0. -1.
         21    1    1    2  503  504 -0.10590428009E+03  0.16914835158E+02  0.42643593492E+03  0.43971517461E+03  0.00000000000E+00 0. -1.
         21    1    1    2  504  502  0.10590428009E+03 -0.16914835158E+02  0.19482843461E+03  0.22239592425E+03  0.00000000000E+00 0. -1.
<mgrwt>
<rscale>  2 0.10724658E+03</rscale>
<asrwt>0</asrwt>
<pdfrwt beam="1">  1       21 0.98721175E-01 0.10724658E+03</pdfrwt>
<pdfrwt beam="2">  1       21 0.31420566E-02 0.10724658E+03</pdfrwt>
<totfact> 0.50341915E+05</totfact>
</mgrwt>
</event>
<event>
 4    1  0.6024238E+003  0.1325271E+03  0.7546771E-02  0.1223753E+00
         21   -1    0    0  504  501  0.00000000000E+00  0.00000000000E+00  0.21630517330E+03  0.21630517330E+03  0.00000000000E+00 0.  1.
         21   -1    0    0  503  502 -0.00000000000E+00 -0.00000000000E+00 -0.10671408973E+03  0.10671408973E+03  0.00000000000E+00 0. -1.
         21    1    1    2  503  501  0.52688172643E+02  0.12160342509E+03  0.13377223922E+03  0.18830413834E+03  0.00000000000E+00 0.  1.
         21    1    1    2  504  502 -0.52688172643E+02 -0.12160342509E+03 -0.24181155645E+02  0.13471512469E+03  0.00000000000E+00 0. -1.
<mgrwt>
<rscale>  2 0.13252712E+03</rscale>
<asrwt>0</asrwt>
<pdfrwt beam="1">  1       21 0.33277719E-01 0.13252712E+03</pdfrwt>
<pdfrwt beam="2">  1       21 0.16417552E-01 0.13252712E+03</pdfrwt>
<totfact> 0.29298104E+05</totfact>
</mgrwt>
</event>
<event>
 4    1  0.6024238E+003  0.1246856E+03  0.7546771E-02  0.1235561E+00
         21   -1    0    0  503  501  0.00000000000E+00  0.00000000000E+00  0.54848262208E+02  0.54848262208E+02  0.00000000000E+00 0. -1.
         21   -1    0    0  504  502 -0.00000000000E+00 -0.00000000000E+00 -0.28990466044E+03  0.28990466044E+03  0.00000000000E+00 0. -1.
         21    1    1    2  503  502  0.94270471919E+02 -0.81606239561E+02 -0.14325785888E+03  0.18991923110E+03  0.00000000000E+00 0. -1.
         21    1    1    2  504  501 -0.94270471919E+02  0.81606239561E+02 -0.91798539353E+02  0.15483369155E+03  0.00000000000E+00 0. -1.
<mgrwt>
<rscale>  2 0.12468561E+03</rscale>
<asrwt>0</asrwt>
<pdfrwt beam="1">  1       21 0.84381944E-02 0.12468561E+03</pdfrwt>
<pdfrwt beam="2">  1       21 0.44600716E-01 0.12468561E+03</pdfrwt>
<totfact> 0.53208668E+05</totfact>
</mgrwt>
</event>
<event>
 4    1  0.6024238E+003  0.1134265E+03  0.7546771E-02  0.1254353E+00
         21   -1    0    0  503  501  0.00000000000E+00  0.00000000000E+00  0.19193809795E+03  0.19193809795E+03  0.00000000000E+00 0. -1.
         21   -1    0    0  504  502 -0.00000000000E+00 -0.00000000000E+00 -0.91707859652E+02  0.91707859652E+02  0.00000000000E+00 0. -1.
         21    1    1    2  503  502 -0.10255616014E+03 -0.48454142338E+02 -0.23454573229E+02  0.11582610629E+03  0.00000000000E+00 0. -1.
         21    1    1    2  504  501  0.10255616014E+03  0.48454142338E+02  0.12368481153E+03  0.16781985132E+03  0.00000000000E+00 0. -1.
<mgrwt>
<rscale>  2 0.11342650E+03</rscale>
<asrwt>0</asrwt>
<pdfrwt beam="1">  1       21 0.29528938E-01 0.11342650E+03</pdfrwt>
<pdfrwt beam="2">  1       21 0.14108902E-01 0.11342650E+03</pdfrwt>
<totfact> 0.48644705E+05</totfact>
</mgrwt>
</event>
<event>
 4    1  0.6024238E+003  0.1322495E+03  0.7546771E-02  0.1224156E+00
         21   -1    0    0  503  501  0.00000000000E+00  0.00000000000E+00  0.13092459704E+03  0.13092459704E+03  0.00000000000E+00 0.  1.
         21   -1    0    0  504  502 -0.00000000000E+00 -0.00000000000E+00 -0.19618042383E+03  0.19618042383E+03  0.00000000000E+00 0.  1.
         21    1    1    2  503  502  0.67148178337E+02  0.11393440180E+03  0.59754869730E+02  0.14512260411E+03  0.00000000000E+00 0.  1.
         21    1    1    2  504  501 -0.67148178337E+02 -0.11393440180E+03 -0.12501069652E+03  0.18198241676E+03  0.00000000000E+00 0.  1.
<mgrwt>
<rscale>  2 0.13224948E+03</rscale>
<asrwt>0</asrwt>
<pdfrwt beam="1">  1       21 0.20142246E-01 0.13224948E+03</pdfrwt>
<pdfrwt beam="2">  1       21 0.30181603E-01 0.13224948E+03</pdfrwt>
<totfact> 0.24344666E+05</totfact>
</mgrwt>
</event>
<event>
 4    1  0.6024238E+003  0.1332596E+03  0.7546771E-02  0.1222698E+00
         21   -1    0    0  503  501  0.00000000000E+00  0.00000000000E+00  0.24240340927E+03  0.24240340927E+03  0.00000000000E+00 0.  1.
         21   -1    0    0  504  502 -0.00000000000E+00 -0.00000000000E+00 -0.24032722016E+03  0.24032722016E+03  0.00000000000E+00 0.  1.
         21    1    1    2  503  502  0.13238975040E+03  0.15200914125E+02  0.20228116363E+03  0.24223084643E+03  0.00000000000E+00 0.  1.
         21    1    1    2  504  501 -0.13238975040E+03 -0.15200914125E+02 -0.20020497452E+03  0.24049978300E+03  0.00000000000E+00 0.  1.
<mgrwt>
<rscale>  2 0.13325957E+03</rscale>
<asrwt>0</asrwt>
<pdfrwt beam="1">  1       21 0.37292832E-01 0.13325957E+03</pdfrwt>
<pdfrwt beam="2">  1       21 0.36973419E-01 0.13325957E+03</pdfrwt>
<totfact> 0.50381909E+04</totfact>
</mgrwt>
</event>
<event>
 4    1  0.6024238E+003  0.1036464E+03  0.7546771E-02  0.1272810E+00
         21   -1    0    0  503  501  0.00000000000E+00  0.00000000000E+00  0.14025577560E+03  0.14025577560E+03  0.00000000000E+00 0. -1.
         21   -1    0    0  501  502 -0.00000000000E+00 -0.00000000000E+00 -0.81806366687E+02  0.81806366687E+02  0.00000000000E+00 0. -1.
         21    1    1    2  503  504  0.14222871774E+02  0.10266588597E+03  0.57254564043E+02  0.11840886507E+03  0.00000000000E+00 0. -1.
         21    1    1    2  504  502 -0.14222871774E+02 -0.10266588597E+03  0.11948448679E+01  0.10365327722E+03  0.00000000000E+00 0. -1.
<mgrwt>
<rscale>  2 0.10364639E+03</rscale>
<asrwt>0</asrwt>
<pdfrwt beam="1">  1       21 0.21577812E-01 0.10364639E+03</pdfrwt>
<pdfrwt beam="2">  1       21 0.12585595E-01 0.10364639E+03</pdfrwt>
<totfact> 0.10756385E+06</totfact>
</mgrwt>
</event>
<event>
 4    1  0.6024238E+003  0.1143328E+03  0.7546771E-02  0.1252750E+00
         21   -1    0    0  503  501  0.00000000000E+00  0.00000000000E+00  0.12187691588E+03  0.12187691588E+03  0.00000000000E+00 0. -1.
         21   -1    0    0  504  502 -0.00000000000E+00 -0.00000000000E+00 -0.24329642350E+03  0.24329642350E+03  0.00000000000E+00 0. -1.
         21    1    1    2  503  502 -0.11338265705E+03 -0.14709416446E+02 -0.19724213746E+03  0.22798345256E+03  0.00000000000E+00 0. -1.
         21    1    1    2  504  501  0.11338265705E+03  0.14709416446E+02  0.75822629838E+02  0.13718988683E+03  0.00000000000E+00 0. -1.
<mgrwt>
<rscale>  2 0.11433282E+03</rscale>
<asrwt>0</asrwt>
<pdfrwt beam="1">  1       21 0.18750295E-01 0.11433282E+03</pdfrwt>
<pdfrwt beam="2">  1       21 0.37430219E-01 0.11433282E+03</pdfrwt>
<totfact> 0.18329658E+05</totfact>
</mgrwt>
</event>
<event>
 4    1  0.6024238E+003  0.1357376E+03  0.7546771E-02  0.1219182E+00
         21   -1    0    0  504  501  0.00000000000E+00  0.00000000000E+00  0.16688221805E+04  0.16688221805E+04  0.00000000000E+00 0.  1.
         21   -1    0    0  503  502 -0.00000000000E+00 -0.00000000000E+00 -0.21963956572E+03  0.21963956572E+03  0.00000000000E+00 0.  1.
         21    1    1    2  503  501  0.13065414852E+03 -0.36799364573E+02 -0.19560194612E+03  0.23808574314E+03  0.00000000000E+00 0.  1.
         21    1    1    2  504  502 -0.13065414852E+03  0.36799364573E+02  0.16447845609E+04  0.16503760031E+04  0.00000000000E+00 0.  1.
<mgrwt>
<rscale>  2 0.13573761E+03</rscale>
<asrwt>0</asrwt>
<pdfrwt beam="1">  1       21 0.25674187E+00 0.13573761E+03</pdfrwt>
<pdfrwt beam="2">  1       21 0.33790704E-01 0.13573761E+03</pdfrwt>
<totfact> 0.55923368E+02</totfact>
</mgrwt>
</event>
<event>
 4    1  0.6024238E+003  0.1015018E+03  0.7546771E-02  0.1277169E+00
         21   -1    0    0  504  501  0.00000000000E+00  0.00000000000E+00  0.43453721111E+03  0.43453721111E+03  0.00000000000E+00 0. -1.
         21   -1    0    0  503  502 -0.00000000000E+00 -0.00000000000E+00 -0.30869820255E+02  0.30869820255E+02  0.00000000000E+00 0. -1.
         21    1    1    2  503  501 -0.10091735083E+03  0.10876353097E+02  0.31390794361E+03  0.32991029662E+03  0.00000000000E+00 0. -1.
         21    1    1    2  504  502  0.10091735083E+03 -0.10876353097E+02  0.89759447239E+02  0.13549673474E+03  0.00000000000E+00 0. -1.
<mgrwt>
<rscale>  2 0.10150176E+03</rscale>
<asrwt>0</asrwt>
<pdfrwt beam="1">  1       21 0.66851874E-01 0.10150176E+03</pdfrwt>
<pdfrwt beam="2">  1       21 0.47492034E-02 0.10150176E+03</pdfrwt>
<totfact> 0.60715519E+05</totfact>
</mgrwt>
</event>
<event>
 4    1  0.6024238E+003  0.1414411E+03  0.7546771E-02  0.1211403E+00
         21   -1    0    0  504  501  0.00000000000E+00  0.00000000000E+00  0.72696229811E+02  0.72696229811E+02  0.00000000000E+00 0.  1.
         21   -1    0    0  503  502 -0.00000000000E+00 -0.00000000000E+00 -0.14543717794E+04  0.14543717794E+04  0.00000000000E+00 0.  1.
         21    1    1    2  503  501  0.46483531174E+02  0.13358469883E+03 -0.13783497167E+04  0.13855877930E+04  0.00000000000E+00 0.  1.
         21    1    1    2  504  502 -0.46483531174E+02 -0.13358469883E+03 -0.33258328964E+01  0.14148021627E+03  0.00000000000E+00 0.  1.
<mgrwt>
<rscale>  2 0.14144112E+03</rscale>
<asrwt>0</asrwt>
<pdfrwt beam="1">  1       21 0.11184035E-01 0.14144112E+03</pdfrwt>
<pdfrwt beam="2">  1       21 0.22374951E+00 0.14144112E+03</pdfrwt>
<totfact> 0.67005808E+03</totfact>
</mgrwt>
</event>
<event>
 4    1  0.6024238E+003  0.1849912E+03  0.7546771E-02  0.1163058E+00
         21   -1    0    0  504  501  0.00000000000E+00  0.00000000000E+00  0.20652196708E+03  0.20652196708E+03  0.00000000000E+00 0. -1.
         21   -1    0    0  501  502 -0.00000000000E+00 -0.00000000000E+00 -0.22317009237E+03  0.22317009237E+03  0.00000000000E+00 0. -1.
         21    1    1    2  503  502 -0.12103126773E+03 -0.13990412847E+03 -0.11734532354E+03  0.21906998400E+03  0.00000000000E+00 0. -1.
         21    1    1    2  504  503  0.12103126773E+03  0.13990412847E+03  0.10069719825E+03  0.21062207545E+03  0.00000000000E+00 0. -1.
<mgrwt>
<rscale>  2 0.18499117E+03</rscale>
<asrwt>0</asrwt>
<pdfrwt beam="1">  1       21 0.31772610E-01 0.18499117E+03</pdfrwt>
<pdfrwt beam="2">  1       21 0.34333860E-01 0.18499117E+03</pdfrwt>
<totfact> 0.78106873E+04</totfact>
</mgrwt>
</event>
<event>
 4    1  0.6024238E+003  0.1199399E+03  0.7546771E-02  0.1243196E+00
         21   -1    0    0  503  501  0.00000000000E+00  0.00000000000E+00  0.77843067088E+02  0.77843067088E+02  0.00000000000E+00 0.  1.
         21   -1    0    0  501  502 -0.00000000000E+00 -0.00000000000E+00 -0.47378038413E+03  0.47378038413E+03  0.00000000000E+00 0. -1.
         21    1    1    2  503  504  0.73808563624E+02 -0.94540285162E+02  0.17436808214E+02  0.12120070901E+03  0.00000000000E+00 0.  1.
         21    1    1    2  504  502 -0.73808563624E+02  0.94540285162E+02 -0.41337412525E+03  0.43042274221E+03  0.00000000000E+00 0. -1.
<mgrwt>
<rscale>  2 0.11993986E+03</rscale>
<asrwt>0</asrwt>
<pdfrwt beam="1">  1       21 0.11975857E-01 0.11993986E+03</pdfrwt>
<pdfrwt beam="2">  1       21 0.72889289E-01 0.11993986E+03</pdfrwt>
<totfact> 0.10273836E+05</totfact>
</mgrwt>
</event>
<event>
 4    1  0.6024238E+003  0.1089524E+03  0.7546771E-02  0.1262522E+00
         21   -1    0    0  504  501  0.00000000000E+00  0.00000000000E+00  0.79225957863E+01  0.79225957863E+01  0.00000000000E+00 0. -1.
         21   -1    0    0  503  502 -0.00000000000E+00 -0.00000000000E+00 -0.16160351071E+04  0.16160351071E+04  0.00000000000E+00 0. -1.
         21    1    1    2  503  501 -0.78664122648E+02 -0.75382846863E+02 -0.10231991984E+04  0.10289835846E+04  0.00000000000E+00 0. -1.
         21    1    1    2  504  502  0.78664122648E+02  0.75382846863E+02 -0.58491331289E+03  0.59497411825E+03  0.00000000000E+00 0. -1.
<mgrwt>
<rscale>  2 0.10895236E+03</rscale>
<asrwt>0</asrwt>
<pdfrwt beam="1">  1       21 0.12188607E-02 0.10895236E+03</pdfrwt>
<pdfrwt beam="2">  1       21 0.24862083E+00 0.10895236E+03</pdfrwt>
<totfact> 0.19674321E+05</totfact>
</mgrwt>
</event>
<event>
 4    1  0.6024238E+003  0.1183428E+03  0.7546771E-02  0.1245856E+00
         21   -1    0    0  504  501  0.00000000000E+00  0.00000000000E+00  0.69254993654E+02  0.69254993654E+02  0.00000000000E+00 0. -1.
         21   -1    0    0  503  502 -0.00000000000E+00 -0.00000000000E+00 -0.21226303211E+03  0.21226303211E+03  0.00000000000E+00 0.  1.
         21    1    1    2  503  501  0.11810265705E+03  0.75353334371E+01 -0.10211560901E+03  0.15630936138E+03  0.00000000000E+00 0.  1.
         21    1    1    2  504  502 -0.11810265705E+03 -0.75353334371E+01 -0.40892429446E+02  0.12520866439E+03  0.00000000000E+00 0. -1.
<mgrwt>
<rscale>  2 0.11834280E+03</rscale>
<asrwt>0</asrwt>
<pdfrwt beam="1">  1       21 0.10654615E-01 0.11834280E+03</pdfrwt>
<pdfrwt beam="2">  1       21 0.32655850E-01 0.11834280E+03</pdfrwt>
<totfact> 0.65821694E+05</totfact>
</mgrwt>
</event>
<event>
 4    1  0.6024238E+003  0.1256976E+03  0.7546771E-02  0.1233983E+00
         21   -1    0    0  503  501  0.00000000000E+00  0.00000000000E+00  0.10005649172E+03  0.10005649172E+03  0.00000000000E+00 0.  1.
         21   -1    0    0  504  502 -0.00000000000E+00 -0.00000000000E+00 -0.19427399616E+03  0.19427399616E+03  0.00000000000E+00 0.  1.
         21    1    1    2  503  502 -0.43787344908E+02  0.11782426172E+03 -0.11077886984E+03  0.16754654943E+03  0.00000000000E+00 0.  1.
         21    1    1    2  504  501  0.43787344908E+02 -0.11782426172E+03  0.16561365397E+02  0.12678393845E+03  0.00000000000E+00 0.  1.
<mgrwt>
<rscale>  2 0.12569761E+03</rscale>
<asrwt>0</asrwt>
<pdfrwt beam="1">  1       21 0.15393307E-01 0.12569761E+03</pdfrwt>
<pdfrwt beam="2">  1       21 0.29888307E-01 0.12569761E+03</pdfrwt>
<totfact> 0.40592451E+05</totfact>
</mgrwt>
</event>
<event>
 4    1  0.6024238E+003  0.1006928E+03  0.7546771E-02  0.1278846E+00
         21   -1    0    0  504  501  0.00000000000E+00  0.00000000000E+00  0.55312723946E+01  0.55312723946E+01  0.00000000000E+00 0. -1.
         21   -1    0    0  503  502 -0.00000000000E+00 -0.00000000000E+00 -0.18472518727E+04  0.18472518727E+04  0.00000000000E+00 0.  1.
         21    1    1    2  503  501 -0.77380411069E+02 -0.64430733447E+02 -0.10021146229E+04  0.10071607443E+04  0.00000000000E+00 0.  1.
         21    1    1    2  504  502  0.77380411069E+02  0.64430733447E+02 -0.83960597734E+03  0.84562240073E+03  0.00000000000E+00 0. -1.
<mgrwt>
<rscale>  2 0.10069284E+03</rscale>
<asrwt>0</asrwt>
<pdfrwt beam="1">  1       21 0.85096332E-03 0.10069284E+03</pdfrwt>
<pdfrwt beam="2">  1       21 0.28419315E+00 0.10069284E+03</pdfrwt>
<totfact> 0.22059754E+05</totfact>
</mgrwt>
</event>
<event>
 4    1  0.6024238E+003  0.1146978E+03  0.7546771E-02  0.1252110E+00
         21   -1    0    0  504  501  0.00000000000E+00  0.00000000000E+00  0.15661649708E+02  0.15661649708E+02  0.00000000000E+00 0. -1.
         21   -1    0    0  503  502 -0.00000000000E+00 -0.00000000000E+00 -0.25062885101E+04  0.25062885101E+04  0.00000000000E+00 0.  1.
         21    1    1    2  503  501 -0.10063734453E+03 -0.55024606026E+02 -0.22734901455E+04  0.22763815638E+04  0.00000000000E+00 0.  1.
         21    1    1    2  504  502  0.10063734453E+03  0.55024606026E+02 -0.21713671484E+03  0.24556859594E+03  0.00000000000E+00 0. -1.
<mgrwt>
<rscale>  2 0.11469779E+03</rscale>
<asrwt>0</asrwt>
<pdfrwt beam="1">  1       21 0.24094866E-02 0.11469779E+03</pdfrwt>
<pdfrwt beam="2">  1       21 0.38558252E+00 0.11469779E+03</pdfrwt>
<totfact> 0.10977299E+04</totfact>
</mgrwt>
</event>
<event>
 4    1  0.6024238E+003  0.1460393E+03  0.7546771E-02  0.1205426E+00
         21   -1    0    0  503  501  0.00000000000E+00  0.00000000000E+00  0.16255531223E+04  0.16255531223E+04  0.00000000000E+00 0. -1.
         21   -1    0    0  504  502 -0.00000000000E+00 -0.00000000000E+00 -0.32598269243E+03  0.32598269243E+03  0.00000000000E+00 0.  1.
         21    1    1    2  503  502  0.36870296403E+02  0.14130837713E+03 -0.30614470428E+03  0.33919324310E+03  0.00000000000E+00 0.  1.
         21    1    1    2  504  501 -0.36870296403E+02 -0.14130837713E+03  0.16057151342E+04  0.16123425716E+04  0.00000000000E+00 0. -1.
<mgrwt>
<rscale>  2 0.14603930E+03</rscale>
<asrwt>0</asrwt>
<pdfrwt beam="1">  1       21 0.25008509E+00 0.14603930E+03</pdfrwt>
<pdfrwt beam="2">  1       21 0.50151184E-01 0.14603930E+03</pdfrwt>
<totfact> 0.27087080E+02</totfact>
</mgrwt>
</event>
<event>
 4    1  0.6024238E+003  0.1251240E+03  0.7546771E-02  0.1234876E+00
         21   -1    0    0  502  501  0.00000000000E+00  0.00000000000E+00  0.65604153146E+02  0.65604153146E+02  0.00000000000E+00 0.  1.
         21   -1    0    0  503  502 -0.00000000000E+00 -0.00000000000E+00 -0.24366061011E+03  0.24366061011E+03  0.00000000000E+00 0.  1.
         21    1    1    2  503  504 -0.10837186855E+03 -0.62542332524E+02 -0.11121705055E+03  0.16740740003E+03  0.00000000000E+00 0.  1.
         21    1    1    2  504  501  0.10837186855E+03  0.62542332524E+02 -0.66839406406E+02  0.14185736322E+03  0.00000000000E+00 0.  1.
<mgrwt>
<rscale>  2 0.12512396E+03</rscale>
<asrwt>0</asrwt>
<pdfrwt beam="1">  1       21 0.10092947E-01 0.12512396E+03</pdfrwt>
<pdfrwt beam="2">  1       21 0.37486248E-01 0.12512396E+03</pdfrwt>
<totfact> 0.55202502E+05</totfact>
</mgrwt>
</event>
<event>
 4    1  0.6024238E+003  0.1397560E+03  0.7546771E-02  0.1213658E+00
         21   -1    0    0  503  501  0.00000000000E+00  0.00000000000E+00  0.28470855566E+02  0.28470855566E+02  0.00000000000E+00 0. -1.
         21   -1    0    0  504  502 -0.00000000000E+00 -0.00000000000E+00 -0.68641421298E+03  0.68641421298E+03  0.00000000000E+00 0. -1.
         21    1    1    2  503  502 -0.10561550111E+03  0.91526577715E+02 -0.33747173399E+03  0.36526554689E+03  0.00000000000E+00 0. -1.
         21    1    1    2  504  501  0.10561550111E+03 -0.91526577715E+02 -0.32047162342E+03  0.34961952165E+03  0.00000000000E+00 0. -1.
<mgrwt>
<rscale>  2 0.13975603E+03</rscale>
<asrwt>0</asrwt>
<pdfrwt beam="1">  1       21 0.43801319E-02 0.13975603E+03</pdfrwt>
<pdfrwt beam="2">  1       21 0.10560218E+00 0.13975603E+03</pdfrwt>
<totfact> 0.24630079E+05</totfact>
</mgrwt>
</event>
<event>
 4    1  0.6024238E+003  0.1098216E+03  0.7546771E-02  0.1260901E+00
         21   -1    0    0  504  501  0.00000000000E+00  0.00000000000E+00  0.71034129272E+02  0.71034129272E+02  0.00000000000E+00 0. -1.
         21   -1    0    0  503  502 -0.00000000000E+00 -0.00000000000E+00 -0.21224355848E+03  0.21224355848E+03  0.00000000000E+00 0.  1.
         21    1    1    2  503  501  0.72674758845E+02  0.82335669091E+02 -0.72572123197E+01  0.11006111988E+03  0.00000000000E+00 0. -1.
         21    1    1    2  504  502 -0.72674758845E+02 -0.82335669091E+02 -0.13395221689E+03  0.17321656788E+03  0.00000000000E+00 0.  1.
<mgrwt>
<rscale>  2 0.10982160E+03</rscale>
<asrwt>0</asrwt>
<pdfrwt beam="1">  1       21 0.10928328E-01 0.10982160E+03</pdfrwt>
<pdfrwt beam="2">  1       21 0.32652855E-01 0.10982160E+03</pdfrwt>
<totfact> 0.62979220E+05</totfact>
</mgrwt>
</event>
<event>
 4    1  0.6024238E+003  0.1015232E+03  0.7546771E-02  0.1277125E+00
         21   -1    0    0  504  501  0.00000000000E+00  0.00000000000E+00  0.69467737790E+02  0.69467737790E+02  0.00000000000E+00 0.  1.
         21   -1    0    0  503  502 -0.00000000000E+00 -0.00000000000E+00 -0.14910880620E+03  0.14910880620E+03  0.00000000000E+00 0. -1.
         21    1    1    2  503  501 -0.88182335980E+02  0.50307498579E+02 -0.47510344093E+02  0.11209014938E+03  0.00000000000E+00 0. -1.
         21    1    1    2  504  502  0.88182335980E+02 -0.50307498579E+02 -0.32130724318E+02  0.10648639461E+03  0.00000000000E+00 0.  1.
<mgrwt>
<rscale>  2 0.10152324E+03</rscale>
<asrwt>0</asrwt>
<pdfrwt beam="1">  1       21 0.10687344E-01 0.10152324E+03</pdfrwt>
<pdfrwt beam="2">  1       21 0.22939816E-01 0.10152324E+03</pdfrwt>
<totfact> 0.12789904E+06</totfact>
</mgrwt>
</event>
<event>
 4    1  0.6024238E+003  0.1226043E+03  0.7546771E-02  0.1238862E+00
         21   -1    0    0  504  501  0.00000000000E+00  0.00000000000E+00  0.24772498098E+02  0.24772498098E+02  0.00000000000E+00 0.  1.
         21   -1    0    0  503  502 -0.00000000000E+00 -0.00000000000E+00 -0.83798002021E+03  0.83798002021E+03  0.00000000000E+00 0.  1.
         21    1    1    2  503  501 -0.91340291803E+02 -0.81784843369E+02 -0.18002460570E+03  0.21780878809E+03  0.00000000000E+00 0.  1.
         21    1    1    2  504  502  0.91340291803E+02  0.81784843369E+02 -0.63318291641E+03  0.64494373022E+03  0.00000000000E+00 0.  1.
<mgrwt>
<rscale>  2 0.12260428E+03</rscale>
<asrwt>0</asrwt>
<pdfrwt beam="1">  1       21 0.38111541E-02 0.12260428E+03</pdfrwt>
<pdfrwt beam="2">  1       21 0.12891999E+00 0.12260428E+03</pdfrwt>
<totfact> 0.19248580E+05</totfact>
</mgrwt>
</event>
<event>
 4    1  0.6024238E+003  0.1187532E+03  0.7546771E-02  0.1245168E+00
         21   -1    0    0  503  501  0.00000000000E+00  0.00000000000E+00  0.14009188324E+02  0.14009188324E+02  0.00000000000E+00 0. -1.
         21   -1    0    0  504  502 -0.00000000000E+00 -0.00000000000E+00 -0.10563886848E+04  0.10563886848E+04  0.00000000000E+00 0. -1.
         21    1    1    2  503  502  0.10217141308E+03 -0.60525401436E+02 -0.40505582231E+03  0.42210489343E+03  0.00000000000E+00 0. -1.
         21    1    1    2  504  501 -0.10217141308E+03  0.60525401436E+02 -0.63732367420E+03  0.64829297972E+03  0.00000000000E+00 0. -1.
<mgrwt>
<rscale>  2 0.11875320E+03</rscale>
<asrwt>0</asrwt>
<pdfrwt beam="1">  1       21 0.21552592E-02 0.11875320E+03</pdfrwt>
<pdfrwt beam="2">  1       21 0.16252138E+00 0.11875320E+03</pdfrwt>
<totfact> 0.27056325E+05</totfact>
</mgrwt>
</event>
<event>
 4    1  0.6024238E+003  0.1105111E+03  0.7546771E-02  0.1259626E+00
         21   -1    0    0  503  501  0.00000000000E+00  0.00000000000E+00  0.76186360772E+02  0.76186360772E+02  0.00000000000E+00 0.  1.
         21   -1    0    0  504  502 -0.00000000000E+00 -0.00000000000E+00 -0.40702193661E+03  0.40702193661E+03  0.00000000000E+00 0. -1.
         21    1    1    2  503  502 -0.31027680859E+02 -0.10606599847E+03 -0.35352216743E+03  0.37039254295E+03  0.00000000000E+00 0. -1.
         21    1    1    2  504  501  0.31027680859E+02  0.10606599847E+03  0.22686591584E+02  0.11281575444E+03  0.00000000000E+00 0.  1.
<mgrwt>
<rscale>  2 0.11051114E+03</rscale>
<asrwt>0</asrwt>
<pdfrwt beam="1">  1       21 0.11720979E-01 0.11051114E+03</pdfrwt>
<pdfrwt beam="2">  1       21 0.62618760E-01 0.11051114E+03</pdfrwt>
<totfact> 0.14872395E+05</totfact>
</mgrwt>
</event>
<event>
 4    1  0.6024238E+003  0.1085464E+03  0.7546771E-02  0.1263286E+00
         21   -1    0    0  504  501  0.00000000000E+00  0.00000000000E+00  0.73559974429E+03  0.73559974429E+03  0.00000000000E+00 0.  1.
         21   -1    0    0  503  502 -0.00000000000E+00 -0.00000000000E+00 -0.25820079711E+02  0.25820079711E+02  0.00000000000E+00 0.  1.
         21    1    1    2  503  501  0.86627898582E+02  0.65405860933E+02  0.58946934859E+03  0.59938004003E+03  0.00000000000E+00 0.  1.
         21    1    1    2  504  502 -0.86627898582E+02 -0.65405860933E+02  0.12031031599E+03  0.16203978398E+03  0.00000000000E+00 0.  1.
<mgrwt>
<rscale>  2 0.10854639E+03</rscale>
<asrwt>0</asrwt>
<pdfrwt beam="1">  1       21 0.11316918E+00 0.10854639E+03</pdfrwt>
<pdfrwt beam="2">  1       21 0.39723205E-02 0.10854639E+03</pdfrwt>
<totfact> 0.24804986E+05</totfact>
</mgrwt>
</event>
<event>
 4    1  0.6024238E+003  0.1017073E+03  0.7546771E-02  0.1276746E+00
         21   -1    0    0  504  501  0.00000000000E+00  0.00000000000E+00  0.98930087814E+02  0.98930087814E+02  0.00000000000E+00 0. -1.
         21   -1    0    0  501  502 -0.00000000000E+00 -0.00000000000E+00 -0.15526342840E+03  0.15526342840E+03  0.00000000000E+00 0.  1.
         21    1    1    2  503  502  0.92498807189E+02 -0.42288730622E+02 -0.10079538016E+03  0.14319243950E+03  0.00000000000E+00 0.  1.
         21    1    1    2  504  503 -0.92498807189E+02  0.42288730622E+02  0.44462039571E+02  0.11100107671E+03  0.00000000000E+00 0. -1.
<mgrwt>
<rscale>  2 0.10170726E+03</rscale>
<asrwt>0</asrwt>
<pdfrwt beam="1">  1       21 0.15220014E-01 0.10170726E+03</pdfrwt>
<pdfrwt beam="2">  1       21 0.23886681E-01 0.10170726E+03</pdfrwt>
<totfact> 0.63460941E+05</totfact>
</mgrwt>
</event>
<event>
 4    1  0.6024238E+003  0.1101177E+03  0.7546771E-02  0.1260352E+00
         21   -1    0    0  503  501  0.00000000000E+00  0.00000000000E+00  0.36336881518E+03  0.36336881518E+03  0.00000000000E+00 0.  1.
         21   -1    0    0  501  502 -0.00000000000E+00 -0.00000000000E+00 -0.54040348163E+03  0.54040348163E+03  0.00000000000E+00 0. -1.
         21    1    1    2  503  504  0.14100348779E+02  0.10921125231E+03  0.34919413515E+03  0.36614541030E+03  0.00000000000E+00 0.  1.
         21    1    1    2  504  502 -0.14100348779E+02 -0.10921125231E+03 -0.52622880159E+03  0.53762688651E+03  0.00000000000E+00 0. -1.
<mgrwt>
<rscale>  2 0.11011774E+03</rscale>
<asrwt>0</asrwt>
<pdfrwt beam="1">  1       21 0.55902895E-01 0.11011774E+03</pdfrwt>
<pdfrwt beam="2">  1       21 0.83138997E-01 0.11011774E+03</pdfrwt>
<totfact> 0.41207426E+03</totfact>
</mgrwt>
</event>
<event>
 4    1  0.6024238E+003  0.1043211E+03  0.7546771E-02  0.1271463E+00
         21   -1    0    0  503  501  0.00000000000E+00  0.00000000000E+00  0.49666337626E+02  0.49666337626E+02  0.00000000000E+00 0. -1.
         21   -1    0    0  504  502 -0.00000000000E+00 -0.00000000000E+00 -0.50999660726E+03  0.50999660726E+03  0.00000000000E+00 0. -1.
         21    1    1    2  503  502  0.10368396968E+03 -0.11511937406E+02 -0.44149811459E+03  0.45365567941E+03  0.00000000000E+00 0. -1.
         21    1    1    2  504  501 -0.10368396968E+03  0.11511937406E+02 -0.18832155048E+02  0.10600726548E+03  0.00000000000E+00 0. -1.
<mgrwt>
<rscale>  2 0.10432109E+03</rscale>
<asrwt>0</asrwt>
<pdfrwt beam="1">  1       21 0.76409749E-02 0.10432109E+03</pdfrwt>
<pdfrwt beam="2">  1       21 0.78461018E-01 0.10432109E+03</pdfrwt>
<totfact> 0.19194735E+05</totfact>
</mgrwt>
</event>
<event>
 4    1  0.6024238E+003  0.1049243E+03  0.7546771E-02  0.1270269E+00
         21   -1    0    0  504  501  0.00000000000E+00  0.00000000000E+00  0.54272377644E+03  0.54272377644E+03  0.00000000000E+00 0. -1.
         21   -1    0    0  503  502 -0.00000000000E+00 -0.00000000000E+00 -0.13724932676E+03  0.13724932676E+03  0.00000000000E+00 0.  1.
         21    1    1    2  503  501 -0.96919758061E+02 -0.40195474661E+02  0.51659541306E+03  0.52714318404E+03  0.00000000000E+00 0. -1.
         21    1    1    2  504  502  0.96919758061E+02  0.40195474661E+02 -0.11112096339E+03  0.15282991916E+03  0.00000000000E+00 0.  1.
<mgrwt>
<rscale>  2 0.10492433E+03</rscale>
<asrwt>0</asrwt>
<pdfrwt beam="1">  1       21 0.83495964E-01 0.10492433E+03</pdfrwt>
<pdfrwt beam="2">  1       21 0.21115281E-01 0.10492433E+03</pdfrwt>
<totfact> 0.27569997E+04</totfact>
</mgrwt>
</event>
<event>
 4    1  0.6024238E+003  0.1164172E+03  0.7546771E-02  0.1249127E+00
         21   -1    0    0  504  501  0.00000000000E+00  0.00000000000E+00  0.29326861885E+02  0.29326861885E+02  0.00000000000E+00 0. -1.
         21   -1    0    0  503  502 -0.00000000000E+00 -0.00000000000E+00 -0.11380262716E+04  0.11380262716E+04  0.00000000000E+00 0.  1.
         21    1    1    2  503  501  0.15630585231E+02 -0.11536313242E+03 -0.10041653457E+04  0.10108911954E+04  0.00000000000E+00 0.  1.
         21    1    1    2  504  502 -0.15630585231E+02  0.11536313242E+03 -0.10453406402E+03  0.15646193805E+03  0.00000000000E+00 0. -1.
<mgrwt>
<rscale>  2 0.11641721E+03</rscale>
<asrwt>0</asrwt>
<pdfrwt beam="1">  1       21 0.45118253E-02 0.11641721E+03</pdfrwt>
<pdfrwt beam="2">  1       21 0.17508095E+00 0.11641721E+03</pdfrwt>
<totfact> 0.66067028E+04</totfact>
</mgrwt>
</event>
<event>
 4    1  0.6024238E+003  0.1252276E+03  0.7546771E-02  0.1234714E+00
         21   -1    0    0  504  501  0.00000000000E+00  0.00000000000E+00  0.47993942568E+03  0.47993942568E+03  0.00000000000E+00 0.  1.
         21   -1    0    0  503  502 -0.00000000000E+00 -0.00000000000E+00 -0.10202940441E+03  0.10202940441E+03  0.00000000000E+00 0.  1.
         21    1    1    2  503  501 -0.57846410072E+02 -0.11106637296E+03 -0.50952896293E+02  0.13519668635E+03  0.00000000000E+00 0.  1.
         21    1    1    2  504  502  0.57846410072E+02  0.11106637296E+03  0.42886291756E+03  0.44677214374E+03  0.00000000000E+00 0.  1.
<mgrwt>
<rscale>  2 0.12522758E+03</rscale>
<asrwt>0</asrwt>
<pdfrwt beam="1">  1       21 0.73836834E-01 0.12522758E+03</pdfrwt>
<pdfrwt beam="2">  1       21 0.15696832E-01 0.12522758E+03</pdfrwt>
<totfact> 0.61409212E+04</totfact>
</mgrwt>
</event>
<event>
 4    1  0.6024238E+003  0.1446810E+03  0.7546771E-02  0.1207166E+00
         21   -1    0    0  503  501  0.00000000000E+00  0.00000000000E+00  0.24488937355E+03  0.24488937355E+03  0.00000000000E+00 0.  1.
         21   -1    0    0  504  502 -0.00000000000E+00 -0.00000000000E+00 -0.10936439085E+03  0.10936439085E+03  0.00000000000E+00 0.  1.
         21    1    1    2  503  502 -0.70735984011E+02  0.12621020318E+03 -0.15017231563E+02  0.14545828290E+03  0.00000000000E+00 0.  1.
         21    1    1    2  504  501  0.70735984011E+02 -0.12621020318E+03  0.15054221427E+03  0.20879548150E+03  0.00000000000E+00 0.  1.
<mgrwt>
<rscale>  2 0.14468101E+03</rscale>
<asrwt>0</asrwt>
<pdfrwt beam="1">  1       21 0.37675288E-01 0.14468101E+03</pdfrwt>
<pdfrwt beam="2">  1       21 0.16825291E-01 0.14468101E+03</pdfrwt>
<totfact> 0.21880039E+05</totfact>
</mgrwt>
</event>
<event>
 4    1  0.6024238E+003  0.1080134E+03  0.7546771E-02  0.1264294E+00
         21   -1    0    0  502  501  0.00000000000E+00  0.00000000000E+00  0.43651124120E+03  0.43651124120E+03  0.00000000000E+00 0.  1.
         21   -1    0    0  503  502 -0.00000000000E+00 -0.00000000000E+00 -0.61859231528E+03  0.61859231528E+03  0.00000000000E+00 0. -1.
         21    1    1    2  503  504  0.10173727105E+03 -0.36282536443E+02 -0.60706947707E+03  0.61660379885E+03  0.00000000000E+00 0. -1.
         21    1    1    2  504  501 -0.10173727105E+03  0.36282536443E+02  0.42498840298E+03  0.43849975763E+03  0.00000000000E+00 0.  1.
<mgrwt>
<rscale>  2 0.10801340E+03</rscale>
<asrwt>0</asrwt>
<pdfrwt beam="1">  1       21 0.67155576E-01 0.10801340E+03</pdfrwt>
<pdfrwt beam="2">  1       21 0.95168049E-01 0.10801340E+03</pdfrwt>
<totfact> 0.20613401E+03</totfact>
</mgrwt>
</event>
<event>
 4    1  0.6024238E+003  0.1291128E+03  0.7546771E-02  0.1228778E+00
         21   -1    0    0  503  501  0.00000000000E+00  0.00000000000E+00  0.17547424737E+03  0.17547424737E+03  0.00000000000E+00 0. -1.
         21   -1    0    0  504  502 -0.00000000000E+00 -0.00000000000E+00 -0.57903162882E+03  0.57903162882E+03  0.00000000000E+00 0. -1.
         21    1    1    2  503  502 -0.21110731691E+02 -0.12737527988E+03  0.14314114876E+03  0.19276802999E+03  0.00000000000E+00 0. -1.
         21    1    1    2  504  501  0.21110731691E+02  0.12737527988E+03 -0.54669853021E+03  0.56173784620E+03  0.00000000000E+00 0. -1.
<mgrwt>
<rscale>  2 0.12911284E+03</rscale>
<asrwt>0</asrwt>
<pdfrwt beam="1">  1       21 0.26996038E-01 0.12911284E+03</pdfrwt>
<pdfrwt beam="2">  1       21 0.89081788E-01 0.12911284E+03</pdfrwt>
<totfact> 0.14719498E+04</totfact>
</mgrwt>
</event>
<event>
 4    1  0.6024238E+003  0.1215905E+03  0.7546771E-02  0.1240496E+00
         21   -1    0    0  503  501  0.00000000000E+00  0.00000000000E+00  0.48147438771E+02  0.48147438771E+02  0.00000000000E+00 0.  1.
         21   -1    0    0  504  502 -0.00000000000E+00 -0.00000000000E+00 -0.66476571942E+03  0.66476571942E+03  0.00000000000E+00 0.  1.
         21    1    1    2  503  502 -0.49271841359E+02  0.11115992985E+03 -0.56978651244E+03  0.58261558005E+03  0.00000000000E+00 0.  1.
         21    1    1    2  504  501  0.49271841359E+02 -0.11115992985E+03 -0.46831768204E+02  0.13029757814E+03  0.00000000000E+00 0.  1.
<mgrwt>
<rscale>  2 0.12159048E+03</rscale>
<asrwt>0</asrwt>
<pdfrwt beam="1">  1       21 0.74072986E-02 0.12159048E+03</pdfrwt>
<pdfrwt beam="2">  1       21 0.10227165E+00 0.12159048E+03</pdfrwt>
<totfact> 0.10995555E+05</totfact>
</mgrwt>
</event>
<event>
 4    1  0.6024238E+003  0.1174964E+03  0.7546771E-02  0.1247285E+00
         21   -1    0    0  503  501  0.00000000000E+00  0.00000000000E+00  0.16816537330E+03  0.16816537330E+03  0.00000000000E+00 0. -1.
         21   -1    0    0  504  502 -0.00000000000E+00 -0.00000000000E+00 -0.57543750145E+03  0.57543750145E+03  0.00000000000E+00 0.  1.
         21    1    1    2  503  502 -0.39907264601E+02 -0.11051159078E+03 -0.54789609415E+03  0.56035304180E+03  0.00000000000E+00 0.  1.
         21    1    1    2  504  501  0.39907264601E+02  0.11051159078E+03  0.14062396600E+03  0.18324983295E+03  0.00000000000E+00 0. -1.
<mgrwt>
<rscale>  2 0.11749639E+03</rscale>
<asrwt>0</asrwt>
<pdfrwt beam="1">  1       21 0.25871596E-01 0.11749639E+03</pdfrwt>
<pdfrwt beam="2">  1       21 0.88528847E-01 0.11749639E+03</pdfrwt>
<totfact> 0.16347447E+04</totfact>
</mgrwt>
</event>
<event>
 4    1  0.6024238E+003  0.1177399E+03  0.7546771E-02  0.1246873E+00
         21   -1    0    0  504  501  0.00000000000E+00  0.00000000000E+00  0.19090037516E+03  0.19090037516E+03  0.00000000000E+00 0.  1.
         21   -1    0    0  501  502 -0.00000000000E+00 -0.00000000000E+00 -0.93699116272E+02  0.93699116272E+02  0.00000000000E+00 0.  1.
         21    1    1    2  503  502 -0.36054466834E+02 -0.11208376627E+03 -0.18897077139E+02  0.11924678094E+03  0.00000000000E+00 0.  1.
         21    1    1    2  504  503  0.36054466834E+02  0.11208376627E+03  0.11609833603E+03  0.16535271049E+03  0.00000000000E+00 0.  1.
<mgrwt>
<rscale>  2 0.11773995E+03</rscale>
<asrwt>0</asrwt>
<pdfrwt beam="1">  1       21 0.29369288E-01 0.11773995E+03</pdfrwt>
<pdfrwt beam="2">  1       21 0.14415249E-01 0.11773995E+03</pdfrwt>
<totfact> 0.47282424E+05</totfact>
</mgrwt>
</event>
<event>
 4    1  0.6024238E+003  0.1001654E+03  0.7546771E-02  0.1279948E+00
         21   -1    0    0  504  501  0.00000000000E+00  0.00000000000E+00  0.44981700523E+03  0.44981700523E+03  0.00000000000E+00 0. -1.
         21   -1    0    0  503  502 -0.00000000000E+00 -0.00000000000E+00 -0.87211289536E+02  0.87211289536E+02  0.00000000000E+00 0.  1.
         21    1    1    2  503  501 -0.92743223242E+02 -0.37839280595E+02  0.41294874531E+03  0.42492326703E+03  0.00000000000E+00 0. -1.
         21    1    1    2  504  502  0.92743223242E+02  0.37839280595E+02 -0.50343029613E+02  0.11210502774E+03  0.00000000000E+00 0.  1.
<mgrwt>
<rscale>  2 0.10016545E+03</rscale>
<asrwt>0</asrwt>
<pdfrwt beam="1">  1       21 0.69202615E-01 0.10016545E+03</pdfrwt>
<pdfrwt beam="2">  1       21 0.13417122E-01 0.10016545E+03</pdfrwt>
<totfact> 0.94946720E+04</totfact>
</mgrwt>
</event>
<event>
 4    1  0.6024238E+003  0.1069365E+03  0.7546771E-02  0.1266351E+00
         21   -1    0    0  502  501  0.00000000000E+00  0.00000000000E+00  0.62960063400E+03  0.62960063400E+03  0.00000000000E+00 0.  1.
         21   -1    0    0  503  502 -0.00000000000E+00 -0.00000000000E+00 -0.31876200705E+02  0.31876200705E+02  0.00000000000E+00 0. -1.
         21    1    1    2  503  504 -0.78317625011E+02  0.72813149671E+02  0.81931241996E+02  0.13471500869E+03  0.00000000000E+00 0. -1.
         21    1    1    2  504  501  0.78317625011E+02 -0.72813149671E+02  0.51579319130E+03  0.52676182601E+03  0.00000000000E+00 0.  1.
<mgrwt>
<rscale>  2 0.10693645E+03</rscale>
<asrwt>0</asrwt>
<pdfrwt beam="1">  1       21 0.96861627E-01 0.10693645E+03</pdfrwt>
<pdfrwt beam="2">  1       21 0.49040313E-02 0.10693645E+03</pdfrwt>
<totfact> 0.25209913E+05</totfact>
</mgrwt>
</event>
<event>
 4    1  0.6024238E+003  0.1559042E+03  0.7546771E-02  0.1193400E+00
         21   -1    0    0  504  501  0.00000000000E+00  0.00000000000E+00  0.65415140594E+03  0.65415140594E+03  0.00000000000E+00 0.  1.
         21   -1    0    0  501  502 -0.00000000000E+00 -0.00000000000E+00 -0.37976526184E+03  0.37976526184E+03  0.00000000000E+00 0.  1.
         21    1    1    2  503  502  0.15496720193E+03  0.17066872769E+02 -0.35382448892E+03  0.38664955810E+03  0.00000000000E+00 0.  1.
         21    1    1    2  504  503 -0.15496720193E+03 -0.17066872769E+02  0.62821063303E+03  0.64726710967E+03  0.00000000000E+00 0.  1.
<mgrwt>
<rscale>  2 0.15590418E+03</rscale>
<asrwt>0</asrwt>
<pdfrwt beam="1">  1       21 0.10063868E+00 0.15590418E+03</pdfrwt>
<pdfrwt beam="2">  1       21 0.58425425E-01 0.15590418E+03</pdfrwt>
<totfact> 0.22986147E+03</totfact>
</mgrwt>
</event>
<event>
 4    1  0.6024238E+003  0.1070847E+03  0.7546771E-02  0.1266066E+00
         21   -1    0    0  503  501  0.00000000000E+00  0.00000000000E+00  0.29800545143E+03  0.29800545143E+03  0.00000000000E+00 0. -1.
         21   -1    0    0  504  502 -0.00000000000E+00 -0.00000000000E+00 -0.17078928206E+03  0.17078928206E+03  0.00000000000E+00 0.  1.
         21    1    1    2  503  502  0.59384695433E+02  0.89110002452E+02 -0.14270093374E+03  0.17841157776E+03  0.00000000000E+00 0.  1.
         21    1    1    2  504  501 -0.59384695433E+02 -0.89110002452E+02  0.26991710310E+03  0.29038315574E+03  0.00000000000E+00 0. -1.
<mgrwt>
<rscale>  2 0.10708471E+03</rscale>
<asrwt>0</asrwt>
<pdfrwt beam="1">  1       21 0.45846992E-01 0.10708471E+03</pdfrwt>
<pdfrwt beam="2">  1       21 0.26275274E-01 0.10708471E+03</pdfrwt>
<totfact> 0.65425373E+04</totfact>
</mgrwt>
</event>
<event>
 4    1  0.6024238E+003  0.1125230E+03  0.7546771E-02  0.1255968E+00
         21   -1    0    0  503  501  0.00000000000E+00  0.00000000000E+00  0.12550312641E+04  0.12550312641E+04  0.00000000000E+00 0. -1.
         21   -1    0    0  504  502 -0.00000000000E+00 -0.00000000000E+00 -0.17121298617E+03  0.17121298617E+03  0.00000000000E+00 0. -1.
         21    1    1    2  503  502 -0.10411377201E+03 -0.42682058725E+02 -0.14988404069E+03  0.18742108022E+03  0.00000000000E+00 0. -1.
         21    1    1    2  504  501  0.10411377201E+03  0.42682058725E+02  0.12337023186E+04  0.12388231700E+04  0.00000000000E+00 0. -1.
<mgrwt>
<rscale>  2 0.11252305E+03</rscale>
<asrwt>0</asrwt>
<pdfrwt beam="1">  1       21 0.19308173E+00 0.11252305E+03</pdfrwt>
<pdfrwt beam="2">  1       21 0.26340460E-01 0.11252305E+03</pdfrwt>
<totfact> 0.22563446E+03</totfact>
</mgrwt>
</event>
<event>
 4    1  0.6024238E+003  0.1028976E+03  0.7546771E-02  0.1274318E+00
         21   -1    0    0  503  501  0.00000000000E+00  0.00000000000E+00  0.26368592164E+04  0.26368592164E+04  0.00000000000E+00 0.  1.
         21   -1    0    0  504  502 -0.00000000000E+00 -0.00000000000E+00 -0.45904509347E+01  0.45904509347E+01  0.00000000000E+00 0.  1.
         21    1    1    2  503  502  0.86598829223E+02 -0.55574799906E+02  0.84866165100E+03  0.85487689961E+03  0.00000000000E+00 0.  1.
         21    1    1    2  504  501 -0.86598829223E+02  0.55574799906E+02  0.17836071145E+04  0.17865727677E+04  0.00000000000E+00 0.  1.
<mgrwt>
<rscale>  2 0.10289760E+03</rscale>
<asrwt>0</asrwt>
<pdfrwt beam="1">  1       21 0.40566944E+00 0.10289760E+03</pdfrwt>
<pdfrwt beam="2">  1       21 0.70622533E-03 0.10289760E+03</pdfrwt>
<totfact> 0.59485291E+04</totfact>
</mgrwt>
</event>
<event>
 4    1  0.6024238E+003  0.1024633E+03  0.7546771E-02  0.1275200E+00
         21   -1    0    0  504  501  0.00000000000E+00  0.00000000000E+00  0.62761522015E+02  0.62761522015E+02  0.00000000000E+00 0. -1.
         21   -1    0    0  503  502 -0.00000000000E+00 -0.00000000000E+00 -0.23046507023E+03  0.23046507023E+03  0.00000000000E+00 0. -1.
         21    1    1    2  503  501 -0.85689775343E+02  0.56178222426E+02 -0.16061955305E+03  0.19051868962E+03  0.00000000000E+00 0. -1.
         21    1    1    2  504  502  0.85689775343E+02 -0.56178222426E+02 -0.70839951637E+01  0.10270790262E+03  0.00000000000E+00 0. -1.
<mgrwt>
<rscale>  2 0.10246331E+03</rscale>
<asrwt>0</asrwt>
<pdfrwt beam="1">  1       21 0.96556186E-02 0.10246331E+03</pdfrwt>
<pdfrwt beam="2">  1       21 0.35456165E-01 0.10246331E+03</pdfrwt>
<totfact> 0.66560383E+05</totfact>
</mgrwt>
</event>
<event>
 4    1  0.6024238E+003  0.1231312E+03  0.7546771E-02  0.1238019E+00
         21   -1    0    0  502  501  0.00000000000E+00  0.00000000000E+00  0.25325643720E+03  0.25325643720E+03  0.00000000000E+00 0.  1.
         21   -1    0    0  504  502 -0.00000000000E+00 -0.00000000000E+00 -0.28609355479E+03  0.28609355479E+03  0.00000000000E+00 0. -1.
         21    1    1    2  503  501  0.72407514487E+02 -0.99591388638E+02  0.22338741070E+03  0.25507494605E+03  0.00000000000E+00 0.  1.
         21    1    1    2  504  503 -0.72407514487E+02  0.99591388638E+02 -0.25622452829E+03  0.28427504594E+03  0.00000000000E+00 0. -1.
<mgrwt>
<rscale>  2 0.12313120E+03</rscale>
<asrwt>0</asrwt>
<pdfrwt beam="1">  1       21 0.38962529E-01 0.12313120E+03</pdfrwt>
<pdfrwt beam="2">  1       21 0.44014393E-01 0.12313120E+03</pdfrwt>
<totfact> 0.32782975E+04</totfact>
</mgrwt>
</event>
<event>
 4    1  0.6024238E+003  0.1271883E+03  0.7546771E-02  0.1231689E+00
         21   -1    0    0  503  501  0.00000000000E+00  0.00000000000E+00  0.26846326519E+03  0.26846326519E+03  0.00000000000E+00 0.  1.
         21   -1    0    0  504  502 -0.00000000000E+00 -0.00000000000E+00 -0.84927330682E+02  0.84927330682E+02  0.00000000000E+00 0. -1.
         21    1    1    2  503  502  0.12332647554E+03  0.31103568751E+02  0.18700081133E+03  0.22615515691E+03  0.00000000000E+00 0.  1.
         21    1    1    2  504  501 -0.12332647554E+03 -0.31103568751E+02 -0.34648768210E+01  0.12723543897E+03  0.00000000000E+00 0. -1.
<mgrwt>
<rscale>  2 0.12718825E+03</rscale>
<asrwt>0</asrwt>
<pdfrwt beam="1">  1       21 0.41302040E-01 0.12718825E+03</pdfrwt>
<pdfrwt beam="2">  1       21 0.13065743E-01 0.12718825E+03</pdfrwt>
<totfact> 0.28842549E+05</totfact>
</mgrwt>
</event>
<event>
 4    1  0.6024238E+003  0.1406815E+03  0.7546771E-02  0.1212415E+00
         21   -1    0    0  503  501  0.00000000000E+00  0.00000000000E+00  0.14836980220E+03  0.14836980220E+03  0.00000000000E+00 0.  1.
         21   -1    0    0  504  502 -0.00000000000E+00 -0.00000000000E+00 -0.13624745120E+03  0.13624745120E+03  0.00000000000E+00 0.  1.
         21    1    1    2  503  502  0.13907903690E+03  0.21173316021E+02  0.26664321285E+02  0.14318615103E+03  0.00000000000E+00 0.  1.
         21    1    1    2  504  501 -0.13907903690E+03 -0.21173316021E+02 -0.14541970293E+02  0.14143110237E+03  0.00000000000E+00 0.  1.
<mgrwt>
<rscale>  2 0.14068151E+03</rscale>
<asrwt>0</asrwt>
<pdfrwt beam="1">  1       21 0.22826123E-01 0.14068151E+03</pdfrwt>
<pdfrwt beam="2">  1       21 0.20961146E-01 0.14068151E+03</pdfrwt>
<totfact> 0.38412987E+05</totfact>
</mgrwt>
</event>
<event>
 4    1  0.6024238E+003  0.1356272E+03  0.7546771E-02  0.1219337E+00
         21   -1    0    0  504  501  0.00000000000E+00  0.00000000000E+00  0.26100011674E+02  0.26100011674E+02  0.00000000000E+00 0. -1.
         21   -1    0    0  503  502 -0.00000000000E+00 -0.00000000000E+00 -0.70931154578E+03  0.70931154578E+03  0.00000000000E+00 0. -1.
         21    1    1    2  503  501  0.13422528518E+03  0.19450361114E+02 -0.37099893742E+03  0.39501260144E+03  0.00000000000E+00 0. -1.
         21    1    1    2  504  502 -0.13422528518E+03 -0.19450361114E+02 -0.31221259668E+03  0.34039895601E+03  0.00000000000E+00 0. -1.
<mgrwt>
<rscale>  2 0.13562722E+03</rscale>
<asrwt>0</asrwt>
<pdfrwt beam="1">  1       21 0.40153860E-02 0.13562722E+03</pdfrwt>
<pdfrwt beam="2">  1       21 0.10912486E+00 0.13562722E+03</pdfrwt>
<totfact> 0.26360694E+05</totfact>
</mgrwt>
</event>
<event>
 4    1  0.6024238E+003  0.1882444E+03  0.7546771E-02  0.1160054E+00
         21   -1    0    0  502  501  0.00000000000E+00  0.00000000000E+00  0.77265348391E+03  0.77265348391E+03  0.00000000000E+00 0. -1.
         21   -1    0    0  503  502 -0.00000000000E+00 -0.00000000000E+00 -0.53973395521E+03  0.53973395521E+03  0.00000000000E+00 0. -1.
         21    1    1    2  503  504  0.18001606241E+03  0.55047140248E+02 -0.51123582420E+03  0.54479173848E+03  0.00000000000E+00 0. -1.
         21    1    1    2  504  501 -0.18001606241E+03 -0.55047140248E+02  0.74415535290E+03  0.76759570063E+03  0.00000000000E+00 0. -1.
<mgrwt>
<rscale>  2 0.18824444E+03</rscale>
<asrwt>0</asrwt>
<pdfrwt beam="1">  1       21 0.11886977E+00 0.18824444E+03</pdfrwt>
<pdfrwt beam="2">  1       21 0.83035993E-01 0.18824444E+03</pdfrwt>
<totfact> 0.68660320E+02</totfact>
</mgrwt>
</event>
<event>
 4    1  0.6024238E+003  0.1031777E+03  0.7546771E-02  0.1273752E+00
         21   -1    0    0  504  501  0.00000000000E+00  0.00000000000E+00  0.13394590972E+04  0.13394590972E+04  0.00000000000E+00 0. -1.
         21   -1    0    0  503  502 -0.00000000000E+00 -0.00000000000E+00 -0.81090164735E+01  0.81090164735E+01  0.00000000000E+00 0. -1.
         21    1    1    2  503  501  0.21437819006E+01  0.10315546044E+03  0.76070271824E+03  0.76766807304E+03  0.00000000000E+00 0. -1.
         21    1    1    2  504  502 -0.21437819006E+01 -0.10315546044E+03  0.57064736248E+03  0.57990004064E+03  0.00000000000E+00 0. -1.
<mgrwt>
<rscale>  2 0.10317773E+03</rscale>
<asrwt>0</asrwt>
<pdfrwt beam="1">  1       21 0.20607045E+00 0.10317773E+03</pdfrwt>
<pdfrwt beam="2">  1       21 0.12475421E-02 0.10317773E+03</pdfrwt>
<totfact> 0.33838297E+05</totfact>
</mgrwt>
</event>
<event>
 4    1  0.6024238E+003  0.1313756E+03  0.7546771E-02  0.1225429E+00
         21   -1    0    0  503  501  0.00000000000E+00  0.00000000000E+00  0.75272843006E+03  0.75272843006E+03  0.00000000000E+00 0. -1.
         21   -1    0    0  504  502 -0.00000000000E+00 -0.00000000000E+00 -0.23164976856E+02  0.23164976856E+02  0.00000000000E+00 0. -1.
         21    1    1    2  503  502 -0.67086666794E+01  0.13120415995E+03  0.40391195565E+03  0.42474039802E+03  0.00000000000E+00 0. -1.
         21    1    1    2  504  501  0.67086666794E+01 -0.13120415995E+03  0.32565149755E+03  0.35115300889E+03  0.00000000000E+00 0. -1.
<mgrwt>
<rscale>  2 0.13137556E+03</rscale>
<asrwt>0</asrwt>
<pdfrwt beam="1">  1       21 0.11580435E+00 0.13137556E+03</pdfrwt>
<pdfrwt beam="2">  1       21 0.35638432E-02 0.13137556E+03</pdfrwt>
<totfact> 0.27891275E+05</totfact>
</mgrwt>
</event>
<event>
 4    1  0.6024238E+003  0.1217288E+03  0.7546771E-02  0.1240272E+00
         21   -1    0    0  503  501  0.00000000000E+00  0.00000000000E+00  0.14368791501E+03  0.14368791501E+03  0.00000000000E+00 0. -1.
         21   -1    0    0  501  502 -0.00000000000E+00 -0.00000000000E+00 -0.16444521608E+03  0.16444521608E+03  0.00000000000E+00 0.  1.
         21    1    1    2  503  504 -0.37840547003E+02  0.11569784201E+03  0.83701415040E+02  0.14772888859E+03  0.00000000000E+00 0. -1.
         21    1    1    2  504  502  0.37840547003E+02 -0.11569784201E+03 -0.10445871611E+03  0.16040424251E+03  0.00000000000E+00 0.  1.
<mgrwt>
<rscale>  2 0.12172879E+03</rscale>
<asrwt>0</asrwt>
<pdfrwt beam="1">  1       21 0.22105833E-01 0.12172879E+03</pdfrwt>
<pdfrwt beam="2">  1       21 0.25299264E-01 0.12172879E+03</pdfrwt>
<totfact> 0.28750312E+05</totfact>
</mgrwt>
</event>
<event>
 4    1  0.6024238E+003  0.1055545E+03  0.7546771E-02  0.1269031E+00
         21   -1    0    0  502  501  0.00000000000E+00  0.00000000000E+00  0.18011975871E+03  0.18011975871E+03  0.00000000000E+00 0. -1.
         21   -1    0    0  504  502 -0.00000000000E+00 -0.00000000000E+00 -0.10446287501E+04  0.10446287501E+04  0.00000000000E+00 0. -1.
         21    1    1    2  503  501 -0.73893224477E+02  0.75376040997E+02  0.16171229029E+03  0.19311297474E+03  0.00000000000E+00 0. -1.
         21    1    1    2  504  503  0.73893224477E+02 -0.75376040997E+02 -0.10262212817E+04  0.10316355341E+04  0.00000000000E+00 0. -1.
<mgrwt>
<rscale>  2 0.10555452E+03</rscale>
<asrwt>0</asrwt>
<pdfrwt beam="1">  1       21 0.27710733E-01 0.10555452E+03</pdfrwt>
<pdfrwt beam="2">  1       21 0.16071211E+00 0.10555452E+03</pdfrwt>
<totfact> 0.34146796E+03</totfact>
</mgrwt>
</event>
<event>
 4    1  0.6024238E+003  0.1265109E+03  0.7546771E-02  0.1232727E+00
         21   -1    0    0  503  501  0.00000000000E+00  0.00000000000E+00  0.73718787406E+03  0.73718787406E+03  0.00000000000E+00 0. -1.
         21   -1    0    0  504  502 -0.00000000000E+00 -0.00000000000E+00 -0.23458057048E+02  0.23458057048E+02  0.00000000000E+00 0. -1.
         21    1    1    2  503  502 -0.73524132994E+01  0.12629704076E+03  0.25307037497E+03  0.28293040694E+03  0.00000000000E+00 0. -1.
         21    1    1    2  504  501  0.73524132994E+01 -0.12629704076E+03  0.46065944204E+03  0.47771552416E+03  0.00000000000E+00 0. -1.
<mgrwt>
<rscale>  2 0.12651087E+03</rscale>
<asrwt>0</asrwt>
<pdfrwt beam="1">  1       21 0.11341350E+00 0.12651087E+03</pdfrwt>
<pdfrwt beam="2">  1       21 0.36089324E-02 0.12651087E+03</pdfrwt>
<totfact> 0.28761745E+05</totfact>
</mgrwt>
</event>
<event>
 4    1  0.6024238E+003  0.1425753E+03  0.7546771E-02  0.1209905E+00
         21   -1    0    0  504  501  0.00000000000E+00  0.00000000000E+00  0.57083792752E+02  0.57083792752E+02  0.00000000000E+00 0. -1.
         21   -1    0    0  503  502 -0.00000000000E+00 -0.00000000000E+00 -0.36123192087E+03  0.36123192087E+03  0.00000000000E+00 0. -1.
         21    1    1    2  503  501  0.90423663344E+02 -0.11023282553E+03 -0.17699650136E+03  0.22727841123E+03  0.00000000000E+00 0. -1.
         21    1    1    2  504  502 -0.90423663344E+02  0.11023282553E+03 -0.12715162676E+03  0.19103730239E+03  0.00000000000E+00 0. -1.
<mgrwt>
<rscale>  2 0.14257529E+03</rscale>
<asrwt>0</asrwt>
<pdfrwt beam="1">  1       21 0.87821218E-02 0.14257529E+03</pdfrwt>
<pdfrwt beam="2">  1       21 0.55574143E-01 0.14257529E+03</pdfrwt>
<totfact> 0.31457950E+05</totfact>
</mgrwt>
</event>
<event>
 4    1  0.6024238E+003  0.1007690E+03  0.7546771E-02  0.1278687E+00
         21   -1    0    0  503  501  0.00000000000E+00  0.00000000000E+00  0.10113964704E+04  0.10113964704E+04  0.00000000000E+00 0.  1.
         21   -1    0    0  501  502 -0.00000000000E+00 -0.00000000000E+00 -0.13622700493E+02  0.13622700493E+02  0.00000000000E+00 0.  1.
         21    1    1    2  503  504  0.16683859067E+02  0.99378224553E+02  0.76171868582E+03  0.76835521668E+03  0.00000000000E+00 0.  1.
         21    1    1    2  504  502 -0.16683859067E+02 -0.99378224553E+02  0.23605508405E+03  0.25666395418E+03  0.00000000000E+00 0.  1.
<mgrwt>
<rscale>  2 0.10076896E+03</rscale>
<asrwt>0</asrwt>
<pdfrwt beam="1">  1       21 0.15559940E+00 0.10076896E+03</pdfrwt>
<pdfrwt beam="2">  1       21 0.20958009E-02 0.10076896E+03</pdfrwt>
<totfact> 0.31966530E+05</totfact>
</mgrwt>
</event>
<event>
 4    1  0.6024238E+003  0.1147773E+03  0.7546771E-02  0.1251970E+00
         21   -1    0    0  504  501  0.00000000000E+00  0.00000000000E+00  0.20581124698E+03  0.20581124698E+03  0.00000000000E+00 0.  1.
         21   -1    0    0  503  502 -0.00000000000E+00 -0.00000000000E+00 -0.64145801572E+02  0.64145801572E+02  0.00000000000E+00 0.  1.
         21    1    1    2  503  501 -0.87137649495E+02  0.74705169540E+02  0.77059470231E+02  0.13824613654E+03  0.00000000000E+00 0.  1.
         21    1    1    2  504  502  0.87137649495E+02 -0.74705169540E+02  0.64605975182E+02  0.13171091202E+03  0.00000000000E+00 0.  1.
<mgrwt>
<rscale>  2 0.11477732E+03</rscale>
<asrwt>0</asrwt>
<pdfrwt beam="1">  1       21 0.31663268E-01 0.11477732E+03</pdfrwt>
<pdfrwt beam="2">  1       21 0.98685850E-02 0.11477732E+03</pdfrwt>
<totfact> 0.79894113E+05</totfact>
</mgrwt>
</event>
<event>
 4    1  0.6024238E+003  0.1062426E+03  0.7546771E-02  0.1267690E+00
         21   -1    0    0  503  501  0.00000000000E+00  0.00000000000E+00  0.51910102655E+02  0.51910102655E+02  0.00000000000E+00 0.  1.
         21   -1    0    0  504  502 -0.00000000000E+00 -0.00000000000E+00 -0.77183639463E+03  0.77183639463E+03  0.00000000000E+00 0. -1.
         21    1    1    2  503  502 -0.89426206159E+02 -0.57362448038E+02 -0.10895241122E+02  0.10679982712E+03  0.00000000000E+00 0.  1.
         21    1    1    2  504  501  0.89426206159E+02  0.57362448038E+02 -0.70903105085E+03  0.71694667017E+03  0.00000000000E+00 0. -1.
<mgrwt>
<rscale>  2 0.10624263E+03</rscale>
<asrwt>0</asrwt>
<pdfrwt beam="1">  1       21 0.79861697E-02 0.10624263E+03</pdfrwt>
<pdfrwt beam="2">  1       21 0.11874406E+00 0.10624263E+03</pdfrwt>
<totfact> 0.68323337E+04</totfact>
</mgrwt>
</event>
<event>
 4    1  0.6024238E+003  0.1048650E+03  0.7546771E-02  0.1270386E+00
         21   -1    0    0  503  501  0.00000000000E+00  0.00000000000E+00  0.22645450957E+03  0.22645450957E+03  0.00000000000E+00 0. -1.
         21   -1    0    0  504  502 -0.00000000000E+00 -0.00000000000E+00 -0.92901244266E+02  0.92901244266E+02  0.00000000000E+00 0.  1.
         21    1    1    2  503  502  0.46336132264E+02  0.94072435152E+02 -0.43539058459E+02  0.11354430774E+03  0.00000000000E+00 0.  1.
         21    1    1    2  504  501 -0.46336132264E+02 -0.94072435152E+02  0.17709232376E+03  0.20581144610E+03  0.00000000000E+00 0. -1.
<mgrwt>
<rscale>  2 0.10486496E+03</rscale>
<asrwt>0</asrwt>
<pdfrwt beam="1">  1       21 0.34839155E-01 0.10486496E+03</pdfrwt>
<pdfrwt beam="2">  1       21 0.14292499E-01 0.10486496E+03</pdfrwt>
<totfact> 0.34546347E+05</totfact>
</mgrwt>
</event>
<event>
 4    1  0.6024238E+003  0.1111669E+03  0.7546771E-02  0.1258424E+00
         21   -1    0    0  503  501  0.00000000000E+00  0.00000000000E+00  0.67560569902E+03  0.67560569902E+03  0.00000000000E+00 0. -1.
         21   -1    0    0  504  502 -0.00000000000E+00 -0.00000000000E+00 -0.22855639155E+02  0.22855639155E+02  0.00000000000E+00 0. -1.
         21    1    1    2  503  502  0.10276049305E+02  0.11069091605E+03  0.17031969543E+03  0.20338848231E+03  0.00000000000E+00 0. -1.
         21    1    1    2  504  501 -0.10276049305E+02 -0.11069091605E+03  0.48243036444E+03  0.49507285587E+03  0.00000000000E+00 0. -1.
<mgrwt>
<rscale>  2 0.11116688E+03</rscale>
<asrwt>0</asrwt>
<pdfrwt beam="1">  1       21 0.10393932E+00 0.11116688E+03</pdfrwt>
<pdfrwt beam="2">  1       21 0.35162527E-02 0.11116688E+03</pdfrwt>
<totfact> 0.37080690E+05</totfact>
</mgrwt>
</event>
<event>
 4    1  0.6024238E+003  0.1141812E+03  0.7546771E-02  0.1253017E+00
         21   -1    0    0  504  501  0.00000000000E+00  0.00000000000E+00  0.16132344308E+03  0.16132344308E+03  0.00000000000E+00 0. -1.
         21   -1    0    0  501  502 -0.00000000000E+00 -0.00000000000E+00 -0.27853918375E+03  0.27853918375E+03  0.00000000000E+00 0.  1.
         21    1    1    2  503  502  0.10204673414E+03 -0.51223036070E+02 -0.24390723974E+03  0.26931037293E+03  0.00000000000E+00 0.  1.
         21    1    1    2  504  503 -0.10204673414E+03  0.51223036070E+02  0.12669149907E+03  0.17055225390E+03  0.00000000000E+00 0. -1.
<mgrwt>
<rscale>  2 0.11418115E+03</rscale>
<asrwt>0</asrwt>
<pdfrwt beam="1">  1       21 0.24818992E-01 0.11418115E+03</pdfrwt>
<pdfrwt beam="2">  1       21 0.42852182E-01 0.11418115E+03</pdfrwt>
<totfact> 0.83182493E+04</totfact>
</mgrwt>
</event>
<event>
 4    1  0.6024238E+003  0.1303384E+03  0.7546771E-02  0.1226954E+00
         21   -1    0    0  503  501  0.00000000000E+00  0.00000000000E+00  0.75191538783E+01  0.75191538783E+01  0.00000000000E+00 0. -1.
         21   -1    0    0  504  502 -0.00000000000E+00 -0.00000000000E+00 -0.28579418140E+04  0.28579418140E+04  0.00000000000E+00 0. -1.
         21    1    1    2  503  502 -0.76309931042E+02  0.10566409561E+03 -0.76949294139E+03  0.78045338972E+03  0.00000000000E+00 0. -1.
         21    1    1    2  504  501  0.76309931042E+02 -0.10566409561E+03 -0.20809297188E+04  0.20850075782E+04  0.00000000000E+00 0. -1.
<mgrwt>
<rscale>  2 0.13033843E+03</rscale>
<asrwt>0</asrwt>
<pdfrwt beam="1">  1       21 0.11567937E-02 0.13033843E+03</pdfrwt>
<pdfrwt beam="2">  1       21 0.43968306E+00 0.13033843E+03</pdfrwt>
<totfact> 0.15916534E+04</totfact>
</mgrwt>
</event>
<event>
 4    1  0.6024238E+003  0.1472369E+03  0.7546771E-02  0.1203910E+00
         21   -1    0    0  503  501  0.00000000000E+00  0.00000000000E+00  0.66398712586E+03  0.66398712586E+03  0.00000000000E+00 0. -1.
         21   -1    0    0  504  502 -0.00000000000E+00 -0.00000000000E+00 -0.56069301692E+02  0.56069301692E+02  0.00000000000E+00 0. -1.
         21    1    1    2  503  502 -0.14530623512E+03 -0.23765764086E+02  0.71274418526E+02  0.16358103877E+03  0.00000000000E+00 0. -1.
         21    1    1    2  504  501  0.14530623512E+03  0.23765764086E+02  0.53664340565E+03  0.55647538879E+03  0.00000000000E+00 0. -1.
<mgrwt>
<rscale>  2 0.14723693E+03</rscale>
<asrwt>0</asrwt>
<pdfrwt beam="1">  1       21 0.10215186E+00 0.14723693E+03</pdfrwt>
<pdfrwt beam="2">  1       21 0.86260469E-02 0.14723693E+03</pdfrwt>
<totfact> 0.83797732E+04</totfact>
</mgrwt>
</event>
<event>
 4    1  0.6024238E+003  0.1396594E+03  0.7546771E-02  0.1213788E+00
         21   -1    0    0  503  501  0.00000000000E+00  0.00000000000E+00  0.35243457083E+03  0.35243457083E+03  0.00000000000E+00 0. -1.
         21   -1    0    0  504  502 -0.00000000000E+00 -0.00000000000E+00 -0.75469375521E+02  0.75469375521E+02  0.00000000000E+00 0. -1.
         21    1    1    2  503  502 -0.46859549358E+02 -0.13156341410E+03  0.27994666612E+02  0.14243753247E+03  0.00000000000E+00 0. -1.
         21    1    1    2  504  501  0.46859549358E+02  0.13156341410E+03  0.24897052870E+03  0.28546641388E+03  0.00000000000E+00 0. -1.
<mgrwt>
<rscale>  2 0.13965940E+03</rscale>
<asrwt>0</asrwt>
<pdfrwt beam="1">  1       21 0.54220702E-01 0.13965940E+03</pdfrwt>
<pdfrwt beam="2">  1       21 0.11610673E-01 0.13965940E+03</pdfrwt>
<totfact> 0.20310140E+05</totfact>
</mgrwt>
</event>
