<event>
 4    1  0.6052129E+003  0.1138154E+03  0.7546771E-02  0.1253663E+00
         21   -1    0    0  503  501  0.00000000000E+00  0.00000000000E+00  0.12723578086E+03  0.12723578086E+03  0.00000000000E+00 0. -1.
         21   -1    0    0  504  502 -0.00000000000E+00 -0.00000000000E+00 -0.13023278594E+03  0.13023278594E+03  0.00000000000E+00 0. -1.
         21    1    1    2  503  502 -0.10881309934E+03  0.33371610514E+02  0.58641378549E+02  0.12803423861E+03  0.00000000000E+00 0. -1.
         21    1    1    2  504  501  0.10881309934E+03 -0.33371610514E+02 -0.61638383632E+02  0.12943432819E+03  0.00000000000E+00 0. -1.
<mgrwt>
<rscale>  2 0.11381544E+03</rscale>
<asrwt>0</asrwt>
<pdfrwt beam="1">  1       21 0.19574736E-01 0.11381544E+03</pdfrwt>
<pdfrwt beam="2">  1       21 0.20035813E-01 0.11381544E+03</pdfrwt>
<totfact> 0.55693753E+05</totfact>
</mgrwt>
</event>
<event>
 4    1  0.6052129E+003  0.2501855E+03  0.7546771E-02  0.1113188E+00
         21   -1    0    0  504  501  0.00000000000E+00  0.00000000000E+00  0.13885284099E+03  0.13885284099E+03  0.00000000000E+00 0. -1.
         21   -1    0    0  503  502 -0.00000000000E+00 -0.00000000000E+00 -0.60251229843E+03  0.60251229843E+03  0.00000000000E+00 0. -1.
         21    1    1    2  503  501 -0.21512410321E+03  0.12772781389E+03 -0.41784607414E+03  0.48701962578E+03  0.00000000000E+00 0. -1.
         21    1    1    2  504  502  0.21512410321E+03 -0.12772781389E+03 -0.45813383298E+02  0.25434551365E+03  0.00000000000E+00 0. -1.
<mgrwt>
<rscale>  2 0.25018548E+03</rscale>
<asrwt>0</asrwt>
<pdfrwt beam="1">  1       21 0.21361975E-01 0.25018548E+03</pdfrwt>
<pdfrwt beam="2">  1       21 0.92694202E-01 0.25018548E+03</pdfrwt>
<totfact> 0.19378703E+04</totfact>
</mgrwt>
</event>
<event>
 4    1  0.6052129E+003  0.1200146E+03  0.7546771E-02  0.1243073E+00
         21   -1    0    0  502  501  0.00000000000E+00  0.00000000000E+00  0.90631833305E+03  0.90631833305E+03  0.00000000000E+00 0.  1.
         21   -1    0    0  504  502 -0.00000000000E+00 -0.00000000000E+00 -0.78636961228E+02  0.78636961228E+02  0.00000000000E+00 0. -1.
         21    1    1    2  503  501  0.16072608592E+02 -0.11893347505E+03  0.85374830602E+03  0.86214248838E+03  0.00000000000E+00 0.  1.
         21    1    1    2  504  503 -0.16072608592E+02  0.11893347505E+03 -0.26066934198E+02  0.12281280590E+03  0.00000000000E+00 0. -1.
<mgrwt>
<rscale>  2 0.12001458E+03</rscale>
<asrwt>0</asrwt>
<pdfrwt beam="1">  1       21 0.13943358E+00 0.12001458E+03</pdfrwt>
<pdfrwt beam="2">  1       21 0.12097995E-01 0.12001458E+03</pdfrwt>
<totfact> 0.22051179E+04</totfact>
</mgrwt>
</event>
<event>
 4    1  0.6052129E+003  0.1002518E+03  0.7546771E-02  0.1279767E+00
         21   -1    0    0  502  501  0.00000000000E+00  0.00000000000E+00  0.18665598695E+03  0.18665598695E+03  0.00000000000E+00 0. -1.
         21   -1    0    0  504  502 -0.00000000000E+00 -0.00000000000E+00 -0.22236051864E+03  0.22236051864E+03  0.00000000000E+00 0. -1.
         21    1    1    2  503  501 -0.70606741554E+02  0.71169651560E+02  0.16018149519E+03  0.18896704119E+03  0.00000000000E+00 0. -1.
         21    1    1    2  504  503  0.70606741554E+02 -0.71169651560E+02 -0.19588602688E+03  0.22004946440E+03  0.00000000000E+00 0. -1.
<mgrwt>
<rscale>  2 0.10025184E+03</rscale>
<asrwt>0</asrwt>
<pdfrwt beam="1">  1       21 0.28716306E-01 0.10025184E+03</pdfrwt>
<pdfrwt beam="2">  1       21 0.34209310E-01 0.10025184E+03</pdfrwt>
<totfact> 0.99191626E+04</totfact>
</mgrwt>
</event>
<event>
 4    1  0.6052129E+003  0.1114666E+03  0.7546771E-02  0.1257878E+00
         21   -1    0    0  503  501  0.00000000000E+00  0.00000000000E+00  0.48037130972E+03  0.48037130972E+03  0.00000000000E+00 0.  1.
         21   -1    0    0  504  502 -0.00000000000E+00 -0.00000000000E+00 -0.26252892389E+02  0.26252892389E+02  0.00000000000E+00 0.  1.
         21    1    1    2  503  502 -0.95251756596E+02 -0.57895725214E+02  0.19626894397E+03  0.22571289396E+03  0.00000000000E+00 0.  1.
         21    1    1    2  504  501  0.95251756596E+02  0.57895725214E+02  0.25784947336E+03  0.28091130815E+03  0.00000000000E+00 0.  1.
<mgrwt>
<rscale>  2 0.11146664E+03</rscale>
<asrwt>0</asrwt>
<pdfrwt beam="1">  1       21 0.73903272E-01 0.11146664E+03</pdfrwt>
<pdfrwt beam="2">  1       21 0.40389069E-02 0.11146664E+03</pdfrwt>
<totfact> 0.63901902E+05</totfact>
</mgrwt>
</event>
<event>
 4    1  0.6052129E+003  0.1576597E+03  0.7546771E-02  0.1191365E+00
         21   -1    0    0  503  501  0.00000000000E+00  0.00000000000E+00  0.88761075662E+02  0.88761075662E+02  0.00000000000E+00 0. -1.
         21   -1    0    0  504  502 -0.00000000000E+00 -0.00000000000E+00 -0.39592862653E+03  0.39592862653E+03  0.00000000000E+00 0. -1.
         21    1    1    2  503  502 -0.15387138257E+03 -0.34353782929E+02 -0.22470349780E+02  0.15925294784E+03  0.00000000000E+00 0. -1.
         21    1    1    2  504  501  0.15387138257E+03  0.34353782929E+02 -0.28469720108E+03  0.32543675435E+03  0.00000000000E+00 0. -1.
<mgrwt>
<rscale>  2 0.15765971E+03</rscale>
<asrwt>0</asrwt>
<pdfrwt beam="1">  1       21 0.13655550E-01 0.15765971E+03</pdfrwt>
<pdfrwt beam="2">  1       21 0.60912096E-01 0.15765971E+03</pdfrwt>
<totfact> 0.11822326E+05</totfact>
</mgrwt>
</event>
<event>
 4    1  0.6052129E+003  0.1363318E+03  0.7546771E-02  0.1218352E+00
         21   -1    0    0  504  501  0.00000000000E+00  0.00000000000E+00  0.14005346645E+03  0.14005346645E+03  0.00000000000E+00 0. -1.
         21   -1    0    0  503  502 -0.00000000000E+00 -0.00000000000E+00 -0.13802914937E+03  0.13802914937E+03  0.00000000000E+00 0.  1.
         21    1    1    2  503  501 -0.13338323262E+03 -0.28200410710E+02  0.28309601990E+02  0.13924002109E+03  0.00000000000E+00 0. -1.
         21    1    1    2  504  502  0.13338323262E+03  0.28200410710E+02 -0.26285284909E+02  0.13884259473E+03  0.00000000000E+00 0.  1.
<mgrwt>
<rscale>  2 0.13633176E+03</rscale>
<asrwt>0</asrwt>
<pdfrwt beam="1">  1       21 0.21546687E-01 0.13633176E+03</pdfrwt>
<pdfrwt beam="2">  1       21 0.21235254E-01 0.13633176E+03</pdfrwt>
<totfact> 0.41790943E+05</totfact>
</mgrwt>
</event>
<event>
 4    1  0.6052129E+003  0.1252840E+03  0.7546771E-02  0.1234626E+00
         21   -1    0    0  503  501  0.00000000000E+00  0.00000000000E+00  0.70273034135E+02  0.70273034135E+02  0.00000000000E+00 0.  1.
         21   -1    0    0  504  502 -0.00000000000E+00 -0.00000000000E+00 -0.36679090467E+03  0.36679090467E+03  0.00000000000E+00 0. -1.
         21    1    1    2  503  502  0.92309592594E+02  0.84705494515E+02 -0.28491512050E+03  0.31124380729E+03  0.00000000000E+00 0. -1.
         21    1    1    2  504  501 -0.92309592594E+02 -0.84705494515E+02 -0.11602750032E+02  0.12582013151E+03  0.00000000000E+00 0.  1.
<mgrwt>
<rscale>  2 0.12528400E+03</rscale>
<asrwt>0</asrwt>
<pdfrwt beam="1">  1       21 0.10811236E-01 0.12528400E+03</pdfrwt>
<pdfrwt beam="2">  1       21 0.56429372E-01 0.12528400E+03</pdfrwt>
<totfact> 0.21264635E+05</totfact>
</mgrwt>
</event>
<event>
 4    1  0.6052129E+003  0.1121323E+03  0.7546771E-02  0.1256671E+00
         21   -1    0    0  504  501  0.00000000000E+00  0.00000000000E+00  0.16038321135E+03  0.16038321135E+03  0.00000000000E+00 0.  1.
         21   -1    0    0  503  502 -0.00000000000E+00 -0.00000000000E+00 -0.96939069830E+02  0.96939069830E+02  0.00000000000E+00 0.  1.
         21    1    1    2  503  501 -0.89453524106E+02  0.67614495103E+02 -0.24547096147E+02  0.11478768598E+03  0.00000000000E+00 0.  1.
         21    1    1    2  504  502  0.89453524106E+02 -0.67614495103E+02  0.87991237665E+02  0.14253459520E+03  0.00000000000E+00 0.  1.
<mgrwt>
<rscale>  2 0.11213230E+03</rscale>
<asrwt>0</asrwt>
<pdfrwt beam="1">  1       21 0.24674340E-01 0.11213230E+03</pdfrwt>
<pdfrwt beam="2">  1       21 0.14913703E-01 0.11213230E+03</pdfrwt>
<totfact> 0.61947044E+05</totfact>
</mgrwt>
</event>
<event>
 4    1  0.6052129E+003  0.1159645E+03  0.7546771E-02  0.1249907E+00
         21   -1    0    0  504  501  0.00000000000E+00  0.00000000000E+00  0.63857524223E+02  0.63857524223E+02  0.00000000000E+00 0.  1.
         21   -1    0    0  503  502 -0.00000000000E+00 -0.00000000000E+00 -0.31273963547E+03  0.31273963547E+03  0.00000000000E+00 0.  1.
         21    1    1    2  503  501  0.10994495562E+03  0.36876387612E+02 -0.23205630568E+03  0.25941836912E+03  0.00000000000E+00 0.  1.
         21    1    1    2  504  502 -0.10994495562E+03 -0.36876387612E+02 -0.16825805572E+02  0.11717879058E+03  0.00000000000E+00 0.  1.
<mgrwt>
<rscale>  2 0.11596448E+03</rscale>
<asrwt>0</asrwt>
<pdfrwt beam="1">  1       21 0.98242347E-02 0.11596448E+03</pdfrwt>
<pdfrwt beam="2">  1       21 0.48113789E-01 0.11596448E+03</pdfrwt>
<totfact> 0.35053877E+05</totfact>
</mgrwt>
</event>
<event>
 4    1  0.6052129E+003  0.1157677E+03  0.7546771E-02  0.1250247E+00
         21   -1    0    0  504  501  0.00000000000E+00  0.00000000000E+00  0.21070477303E+03  0.21070477303E+03  0.00000000000E+00 0.  1.
         21   -1    0    0  503  502 -0.00000000000E+00 -0.00000000000E+00 -0.69153507684E+02  0.69153507684E+02  0.00000000000E+00 0.  1.
         21    1    1    2  503  501  0.11298389054E+03 -0.25235113204E+02  0.11040659862E+03  0.15997433381E+03  0.00000000000E+00 0.  1.
         21    1    1    2  504  502 -0.11298389054E+03  0.25235113204E+02  0.31144666720E+02  0.11988394690E+03  0.00000000000E+00 0.  1.
<mgrwt>
<rscale>  2 0.11576774E+03</rscale>
<asrwt>0</asrwt>
<pdfrwt beam="1">  1       21 0.32416119E-01 0.11576774E+03</pdfrwt>
<pdfrwt beam="2">  1       21 0.10639001E-01 0.11576774E+03</pdfrwt>
<totfact> 0.66943675E+05</totfact>
</mgrwt>
</event>
<event>
 4    1  0.6052129E+003  0.1108724E+03  0.7546771E-02  0.1258963E+00
         21   -1    0    0  503  501  0.00000000000E+00  0.00000000000E+00  0.66061342186E+02  0.66061342186E+02  0.00000000000E+00 0.  1.
         21   -1    0    0  504  502 -0.00000000000E+00 -0.00000000000E+00 -0.19810712006E+03  0.19810712006E+03  0.00000000000E+00 0.  1.
         21    1    1    2  503  502  0.10903242573E+03 -0.20115401851E+02 -0.98567603678E+02  0.14835185117E+03  0.00000000000E+00 0.  1.
         21    1    1    2  504  501 -0.10903242573E+03  0.20115401851E+02 -0.33478174193E+02  0.11581661107E+03  0.00000000000E+00 0.  1.
<mgrwt>
<rscale>  2 0.11087245E+03</rscale>
<asrwt>0</asrwt>
<pdfrwt beam="1">  1       21 0.10163284E-01 0.11087245E+03</pdfrwt>
<pdfrwt beam="2">  1       21 0.30478018E-01 0.11087245E+03</pdfrwt>
<totfact> 0.81684979E+05</totfact>
</mgrwt>
</event>
<event>
 4    1  0.6052129E+003  0.1058091E+03  0.7546771E-02  0.1268534E+00
         21   -1    0    0  503  501  0.00000000000E+00  0.00000000000E+00  0.40540580166E+02  0.40540580166E+02  0.00000000000E+00 0. -1.
         21   -1    0    0  504  502 -0.00000000000E+00 -0.00000000000E+00 -0.58109550590E+03  0.58109550590E+03  0.00000000000E+00 0. -1.
         21    1    1    2  503  502 -0.10025737322E+03  0.33823460809E+02 -0.45118854662E+02  0.11502729429E+03  0.00000000000E+00 0. -1.
         21    1    1    2  504  501  0.10025737322E+03 -0.33823460809E+02 -0.49543607108E+03  0.50660879178E+03  0.00000000000E+00 0. -1.
<mgrwt>
<rscale>  2 0.10580911E+03</rscale>
<asrwt>0</asrwt>
<pdfrwt beam="1">  1       21 0.62370127E-02 0.10580911E+03</pdfrwt>
<pdfrwt beam="2">  1       21 0.89399304E-01 0.10580911E+03</pdfrwt>
<totfact> 0.20227595E+05</totfact>
</mgrwt>
</event>
<event>
 4    1  0.6052129E+003  0.1017417E+03  0.7546771E-02  0.1276675E+00
         21   -1    0    0  503  501  0.00000000000E+00  0.00000000000E+00  0.46741650935E+03  0.46741650935E+03  0.00000000000E+00 0.  1.
         21   -1    0    0  504  502 -0.00000000000E+00 -0.00000000000E+00 -0.30720252586E+03  0.30720252586E+03  0.00000000000E+00 0.  1.
         21    1    1    2  503  502  0.10105212714E+03 -0.11825594008E+02 -0.29298104149E+03  0.31014394682E+03  0.00000000000E+00 0.  1.
         21    1    1    2  504  501 -0.10105212714E+03  0.11825594008E+02  0.45319502498E+03  0.46447508839E+03  0.00000000000E+00 0.  1.
<mgrwt>
<rscale>  2 0.10174172E+03</rscale>
<asrwt>0</asrwt>
<pdfrwt beam="1">  1       21 0.71910232E-01 0.10174172E+03</pdfrwt>
<pdfrwt beam="2">  1       21 0.47261927E-01 0.10174172E+03</pdfrwt>
<totfact> 0.81065725E+03</totfact>
</mgrwt>
</event>
<event>
 4    1  0.6052129E+003  0.1234705E+03  0.7546771E-02  0.1237479E+00
         21   -1    0    0  503  501  0.00000000000E+00  0.00000000000E+00  0.67952833305E+02  0.67952833305E+02  0.00000000000E+00 0.  1.
         21   -1    0    0  501  502 -0.00000000000E+00 -0.00000000000E+00 -0.74016018772E+03  0.74016018772E+03  0.00000000000E+00 0. -1.
         21    1    1    2  503  504 -0.65911245587E+02  0.10440623478E+03  0.12037014620E+01  0.12347632588E+03  0.00000000000E+00 0.  1.
         21    1    1    2  504  502  0.65911245587E+02 -0.10440623478E+03 -0.67341105588E+03  0.68463669514E+03  0.00000000000E+00 0. -1.
<mgrwt>
<rscale>  2 0.12347046E+03</rscale>
<asrwt>0</asrwt>
<pdfrwt beam="1">  1       21 0.10454282E-01 0.12347046E+03</pdfrwt>
<pdfrwt beam="2">  1       21 0.11387080E+00 0.12347046E+03</pdfrwt>
<totfact> 0.46841757E+04</totfact>
</mgrwt>
</event>
<event>
 4    1  0.6052129E+003  0.1041273E+03  0.7546771E-02  0.1271849E+00
         21   -1    0    0  504  501  0.00000000000E+00  0.00000000000E+00  0.17881617422E+03  0.17881617422E+03  0.00000000000E+00 0.  1.
         21   -1    0    0  501  502 -0.00000000000E+00 -0.00000000000E+00 -0.95692789041E+02  0.95692789041E+02  0.00000000000E+00 0. -1.
         21    1    1    2  503  502 -0.90392360050E+02 -0.51688605993E+02 -0.41515183672E+02  0.11209817670E+03  0.00000000000E+00 0. -1.
         21    1    1    2  504  503  0.90392360050E+02  0.51688605993E+02  0.12463856885E+03  0.16241078656E+03  0.00000000000E+00 0.  1.
<mgrwt>
<rscale>  2 0.10412728E+03</rscale>
<asrwt>0</asrwt>
<pdfrwt beam="1">  1       21 0.27510181E-01 0.10412728E+03</pdfrwt>
<pdfrwt beam="2">  1       21 0.14721968E-01 0.10412728E+03</pdfrwt>
<totfact> 0.51628444E+05</totfact>
</mgrwt>
</event>
<event>
 4    1  0.6052129E+003  0.1499192E+03  0.7546771E-02  0.1200572E+00
         21   -1    0    0  503  501  0.00000000000E+00  0.00000000000E+00  0.35100147031E+03  0.35100147031E+03  0.00000000000E+00 0. -1.
         21   -1    0    0  501  502 -0.00000000000E+00 -0.00000000000E+00 -0.12521659283E+04  0.12521659283E+04  0.00000000000E+00 0.  1.
         21    1    1    2  503  504  0.13401654583E+03  0.67196276812E+02  0.33023682264E+03  0.36267359044E+03  0.00000000000E+00 0. -1.
         21    1    1    2  504  502 -0.13401654583E+03 -0.67196276812E+02 -0.12314012806E+04  0.12404938082E+04  0.00000000000E+00 0.  1.
<mgrwt>
<rscale>  2 0.14991923E+03</rscale>
<asrwt>0</asrwt>
<pdfrwt beam="1">  1       21 0.54000227E-01 0.14991923E+03</pdfrwt>
<pdfrwt beam="2">  1       21 0.19264091E+00 0.14991923E+03</pdfrwt>
<totfact> 0.51454564E+02</totfact>
</mgrwt>
</event>
<event>
 4    1  0.6052129E+003  0.1055470E+03  0.7546771E-02  0.1269046E+00
         21   -1    0    0  503  501  0.00000000000E+00  0.00000000000E+00  0.75042719241E+02  0.75042719241E+02  0.00000000000E+00 0. -1.
         21   -1    0    0  504  502 -0.00000000000E+00 -0.00000000000E+00 -0.16054257648E+03  0.16054257648E+03  0.00000000000E+00 0. -1.
         21    1    1    2  503  502  0.72061780648E+01 -0.10530072469E+03 -0.10423080789E+02  0.10606041786E+03  0.00000000000E+00 0. -1.
         21    1    1    2  504  501 -0.72061780648E+01  0.10530072469E+03 -0.75076776452E+02  0.12952487786E+03  0.00000000000E+00 0. -1.
<mgrwt>
<rscale>  2 0.10554701E+03</rscale>
<asrwt>0</asrwt>
<pdfrwt beam="1">  1       21 0.11545034E-01 0.10554701E+03</pdfrwt>
<pdfrwt beam="2">  1       21 0.24698858E-01 0.10554701E+03</pdfrwt>
<totfact> 0.97383818E+05</totfact>
</mgrwt>
</event>
<event>
 4    1  0.6052129E+003  0.1122437E+03  0.7546771E-02  0.1256470E+00
         21   -1    0    0  502  501  0.00000000000E+00  0.00000000000E+00  0.16135331576E+03  0.16135331576E+03  0.00000000000E+00 0.  1.
         21   -1    0    0  504  502 -0.00000000000E+00 -0.00000000000E+00 -0.25459441717E+03  0.25459441717E+03  0.00000000000E+00 0. -1.
         21    1    1    2  503  501 -0.11128797642E+03  0.14616056679E+02  0.12654961726E+03  0.16915510172E+03  0.00000000000E+00 0.  1.
         21    1    1    2  504  503  0.11128797642E+03 -0.14616056679E+02 -0.21979071867E+03  0.24679263121E+03  0.00000000000E+00 0. -1.
<mgrwt>
<rscale>  2 0.11224368E+03</rscale>
<asrwt>0</asrwt>
<pdfrwt beam="1">  1       21 0.24823587E-01 0.11224368E+03</pdfrwt>
<pdfrwt beam="2">  1       21 0.39168372E-01 0.11224368E+03</pdfrwt>
<totfact> 0.99610455E+04</totfact>
</mgrwt>
</event>
<event>
 4    1  0.6052129E+003  0.1381868E+03  0.7546771E-02  0.1215790E+00
         21   -1    0    0  503  501  0.00000000000E+00  0.00000000000E+00  0.45543159415E+02  0.45543159415E+02  0.00000000000E+00 0.  1.
         21   -1    0    0  504  502 -0.00000000000E+00 -0.00000000000E+00 -0.42141190065E+03  0.42141190065E+03  0.00000000000E+00 0.  1.
         21    1    1    2  503  502 -0.97644876781E+02  0.97780779836E+02 -0.17135083072E+03  0.22012884876E+03  0.00000000000E+00 0.  1.
         21    1    1    2  504  501  0.97644876781E+02 -0.97780779836E+02 -0.20451791051E+03  0.24682621130E+03  0.00000000000E+00 0.  1.
<mgrwt>
<rscale>  2 0.13818684E+03</rscale>
<asrwt>0</asrwt>
<pdfrwt beam="1">  1       21 0.70066399E-02 0.13818684E+03</pdfrwt>
<pdfrwt beam="2">  1       21 0.64832600E-01 0.13818684E+03</pdfrwt>
<totfact> 0.33487643E+05</totfact>
</mgrwt>
</event>
<event>
 4    1  0.6052129E+003  0.1165418E+03  0.7546771E-02  0.1248914E+00
         21   -1    0    0  503  501  0.00000000000E+00  0.00000000000E+00  0.24719287740E+03  0.24719287740E+03  0.00000000000E+00 0. -1.
         21   -1    0    0  501  502 -0.00000000000E+00 -0.00000000000E+00 -0.13348937936E+03  0.13348937936E+03  0.00000000000E+00 0. -1.
         21    1    1    2  503  504 -0.84648774076E+02 -0.80103493380E+02  0.20285655532E+03  0.23395035080E+03  0.00000000000E+00 0. -1.
         21    1    1    2  504  502  0.84648774076E+02  0.80103493380E+02 -0.89153057274E+02  0.14673190596E+03  0.00000000000E+00 0. -1.
<mgrwt>
<rscale>  2 0.11654177E+03</rscale>
<asrwt>0</asrwt>
<pdfrwt beam="1">  1       21 0.38029674E-01 0.11654177E+03</pdfrwt>
<pdfrwt beam="2">  1       21 0.20536828E-01 0.11654177E+03</pdfrwt>
<totfact> 0.15012734E+05</totfact>
</mgrwt>
</event>
<event>
 4    1  0.6052129E+003  0.1738089E+03  0.7546771E-02  0.1173933E+00
         21   -1    0    0  503  501  0.00000000000E+00  0.00000000000E+00  0.38950181567E+02  0.38950181567E+02  0.00000000000E+00 0. -1.
         21   -1    0    0  501  502 -0.00000000000E+00 -0.00000000000E+00 -0.80341427073E+03  0.80341427073E+03  0.00000000000E+00 0. -1.
         21    1    1    2  503  504  0.11861114333E+03 -0.12704690234E+03 -0.46060795981E+03  0.49231007643E+03  0.00000000000E+00 0. -1.
         21    1    1    2  504  502 -0.11861114333E+03  0.12704690234E+03 -0.30385612935E+03  0.35005437586E+03  0.00000000000E+00 0. -1.
<mgrwt>
<rscale>  2 0.17380886E+03</rscale>
<asrwt>0</asrwt>
<pdfrwt beam="1">  1       21 0.59923364E-02 0.17380886E+03</pdfrwt>
<pdfrwt beam="2">  1       21 0.12360218E+00 0.17380886E+03</pdfrwt>
<totfact> 0.97770177E+04</totfact>
</mgrwt>
</event>
<event>
 4    1  0.6052129E+003  0.1100636E+03  0.7546771E-02  0.1260452E+00
         21   -1    0    0  503  501  0.00000000000E+00  0.00000000000E+00  0.36919934648E+02  0.36919934648E+02  0.00000000000E+00 0. -1.
         21   -1    0    0  504  502 -0.00000000000E+00 -0.00000000000E+00 -0.16686123737E+04  0.16686123737E+04  0.00000000000E+00 0.  1.
         21    1    1    2  503  502  0.54813471967E+02 -0.95443606847E+02 -0.51508758109E+02  0.12152016688E+03  0.00000000000E+00 0. -1.
         21    1    1    2  504  501 -0.54813471967E+02  0.95443606847E+02 -0.15801836809E+04  0.15840121414E+04  0.00000000000E+00 0.  1.
<mgrwt>
<rscale>  2 0.11006361E+03</rscale>
<asrwt>0</asrwt>
<pdfrwt beam="1">  1       21 0.56799895E-02 0.11006361E+03</pdfrwt>
<pdfrwt beam="2">  1       21 0.25670962E+00 0.11006361E+03</pdfrwt>
<totfact> 0.14454610E+04</totfact>
</mgrwt>
</event>
<event>
 4    1  0.6052129E+003  0.1367940E+03  0.7546771E-02  0.1217709E+00
         21   -1    0    0  503  501  0.00000000000E+00  0.00000000000E+00  0.88619194960E+02  0.88619194960E+02  0.00000000000E+00 0.  1.
         21   -1    0    0  504  502 -0.00000000000E+00 -0.00000000000E+00 -0.16496391924E+04  0.16496391924E+04  0.00000000000E+00 0.  1.
         21    1    1    2  503  502  0.55903462325E+02 -0.12484950331E+03 -0.15921100111E+04  0.15979758706E+04  0.00000000000E+00 0.  1.
         21    1    1    2  504  501 -0.55903462325E+02  0.12484950331E+03  0.31090013605E+02  0.14028251681E+03  0.00000000000E+00 0.  1.
<mgrwt>
<rscale>  2 0.13679399E+03</rscale>
<asrwt>0</asrwt>
<pdfrwt beam="1">  1       21 0.13633723E-01 0.13679399E+03</pdfrwt>
<pdfrwt beam="2">  1       21 0.25379063E+00 0.13679399E+03</pdfrwt>
<totfact> 0.31620118E+03</totfact>
</mgrwt>
</event>
<event>
 4    1  0.6052129E+003  0.1538508E+03  0.7546771E-02  0.1195819E+00
         21   -1    0    0  503  501  0.00000000000E+00  0.00000000000E+00  0.57058143816E+02  0.57058143816E+02  0.00000000000E+00 0.  1.
         21   -1    0    0  504  502 -0.00000000000E+00 -0.00000000000E+00 -0.46016674397E+03  0.46016674397E+03  0.00000000000E+00 0.  1.
         21    1    1    2  503  502  0.34984885035E+02  0.14982027940E+03 -0.12039015807E+03  0.19535569728E+03  0.00000000000E+00 0.  1.
         21    1    1    2  504  501 -0.34984885035E+02 -0.14982027940E+03 -0.28271844208E+03  0.32186919050E+03  0.00000000000E+00 0.  1.
<mgrwt>
<rscale>  2 0.15385077E+03</rscale>
<asrwt>0</asrwt>
<pdfrwt beam="1">  1       21 0.87781757E-02 0.15385077E+03</pdfrwt>
<pdfrwt beam="2">  1       21 0.70794886E-01 0.15385077E+03</pdfrwt>
<totfact> 0.18668861E+05</totfact>
</mgrwt>
</event>
<event>
 4    1  0.6052129E+003  0.1211577E+03  0.7546771E-02  0.1241199E+00
         21   -1    0    0  503  501  0.00000000000E+00  0.00000000000E+00  0.17509864331E+02  0.17509864331E+02  0.00000000000E+00 0.  1.
         21   -1    0    0  504  502 -0.00000000000E+00 -0.00000000000E+00 -0.85463336750E+03  0.85463336750E+03  0.00000000000E+00 0.  1.
         21    1    1    2  503  502 -0.16520407173E+02  0.12002610900E+03 -0.47877545949E+03  0.49386752404E+03  0.00000000000E+00 0.  1.
         21    1    1    2  504  501  0.16520407173E+02 -0.12002610900E+03 -0.35834804368E+03  0.37827570779E+03  0.00000000000E+00 0.  1.
<mgrwt>
<rscale>  2 0.12115771E+03</rscale>
<asrwt>0</asrwt>
<pdfrwt beam="1">  1       21 0.26938250E-02 0.12115771E+03</pdfrwt>
<pdfrwt beam="2">  1       21 0.13148207E+00 0.12115771E+03</pdfrwt>
<totfact> 0.32427544E+05</totfact>
</mgrwt>
</event>
<event>
 4    1  0.6052129E+003  0.1156580E+03  0.7546771E-02  0.1250437E+00
         21   -1    0    0  503  501  0.00000000000E+00  0.00000000000E+00  0.62905837438E+03  0.62905837438E+03  0.00000000000E+00 0. -1.
         21   -1    0    0  504  502 -0.00000000000E+00 -0.00000000000E+00 -0.43185583694E+02  0.43185583694E+02  0.00000000000E+00 0.  1.
         21    1    1    2  503  502  0.89301667076E+02  0.73498241668E+02  0.53463763092E+02  0.12741724073E+03  0.00000000000E+00 0.  1.
         21    1    1    2  504  501 -0.89301667076E+02 -0.73498241668E+02  0.53240902760E+03  0.54482671735E+03  0.00000000000E+00 0. -1.
<mgrwt>
<rscale>  2 0.11565803E+03</rscale>
<asrwt>0</asrwt>
<pdfrwt beam="1">  1       21 0.96778205E-01 0.11565803E+03</pdfrwt>
<pdfrwt beam="2">  1       21 0.66439364E-02 0.11565803E+03</pdfrwt>
<totfact> 0.15097496E+05</totfact>
</mgrwt>
</event>
<event>
 4    1  0.6052129E+003  0.1112245E+03  0.7546771E-02  0.1258319E+00
         21   -1    0    0  504  501  0.00000000000E+00  0.00000000000E+00  0.18386180753E+02  0.18386180753E+02  0.00000000000E+00 0. -1.
         21   -1    0    0  503  502 -0.00000000000E+00 -0.00000000000E+00 -0.82489238925E+03  0.82489238925E+03  0.00000000000E+00 0. -1.
         21    1    1    2  503  501 -0.69837526738E+02  0.86565596587E+02 -0.58428074252E+03  0.59477295561E+03  0.00000000000E+00 0. -1.
         21    1    1    2  504  502  0.69837526738E+02 -0.86565596587E+02 -0.22222546598E+03  0.24850561439E+03  0.00000000000E+00 0. -1.
<mgrwt>
<rscale>  2 0.11122447E+03</rscale>
<asrwt>0</asrwt>
<pdfrwt beam="1">  1       21 0.28286440E-02 0.11122447E+03</pdfrwt>
<pdfrwt beam="2">  1       21 0.12690649E+00 0.11122447E+03</pdfrwt>
<totfact> 0.32784269E+05</totfact>
</mgrwt>
</event>
<event>
 4    1  0.6052129E+003  0.1131908E+03  0.7546771E-02  0.1254772E+00
         21   -1    0    0  503  501  0.00000000000E+00  0.00000000000E+00  0.31886003395E+03  0.31886003395E+03  0.00000000000E+00 0. -1.
         21   -1    0    0  504  502 -0.00000000000E+00 -0.00000000000E+00 -0.48940552678E+02  0.48940552678E+02  0.00000000000E+00 0. -1.
         21    1    1    2  503  502  0.46007519335E+01 -0.11309730727E+03  0.21276068099E+03  0.24099642156E+03  0.00000000000E+00 0. -1.
         21    1    1    2  504  501 -0.46007519335E+01  0.11309730727E+03  0.57158800283E+02  0.12680416507E+03  0.00000000000E+00 0. -1.
<mgrwt>
<rscale>  2 0.11319085E+03</rscale>
<asrwt>0</asrwt>
<pdfrwt beam="1">  1       21 0.49055389E-01 0.11319085E+03</pdfrwt>
<pdfrwt beam="2">  1       21 0.75293160E-02 0.11319085E+03</pdfrwt>
<totfact> 0.53354865E+05</totfact>
</mgrwt>
</event>
<event>
 4    1  0.6052129E+003  0.1021709E+03  0.7546771E-02  0.1275796E+00
         21   -1    0    0  502  501  0.00000000000E+00  0.00000000000E+00  0.22720539469E+03  0.22720539469E+03  0.00000000000E+00 0.  1.
         21   -1    0    0  503  502 -0.00000000000E+00 -0.00000000000E+00 -0.16630961649E+03  0.16630961649E+03  0.00000000000E+00 0.  1.
         21    1    1    2  503  504  0.67032115675E+01 -0.10195078768E+03 -0.13693940453E+03  0.17085460680E+03  0.00000000000E+00 0.  1.
         21    1    1    2  504  501 -0.67032115675E+01  0.10195078768E+03  0.19783518273E+03  0.22266040438E+03  0.00000000000E+00 0.  1.
<mgrwt>
<rscale>  2 0.10217092E+03</rscale>
<asrwt>0</asrwt>
<pdfrwt beam="1">  1       21 0.34954676E-01 0.10217092E+03</pdfrwt>
<pdfrwt beam="2">  1       21 0.25586095E-01 0.10217092E+03</pdfrwt>
<totfact> 0.11824553E+05</totfact>
</mgrwt>
</event>
<event>
 4    1  0.6052129E+003  0.1786283E+03  0.7546771E-02  0.1169137E+00
         21   -1    0    0  503  501  0.00000000000E+00  0.00000000000E+00  0.15573454681E+03  0.15573454681E+03  0.00000000000E+00 0. -1.
         21   -1    0    0  501  502 -0.00000000000E+00 -0.00000000000E+00 -0.46230994640E+03  0.46230994640E+03  0.00000000000E+00 0. -1.
         21    1    1    2  503  504 -0.11379082517E+03  0.13769423304E+03  0.77305437613E+02  0.19463859943E+03  0.00000000000E+00 0. -1.
         21    1    1    2  504  502  0.11379082517E+03 -0.13769423304E+03 -0.38388083721E+03  0.42340589377E+03  0.00000000000E+00 0. -1.
<mgrwt>
<rscale>  2 0.17862826E+03</rscale>
<asrwt>0</asrwt>
<pdfrwt beam="1">  1       21 0.23959161E-01 0.17862826E+03</pdfrwt>
<pdfrwt beam="2">  1       21 0.71124607E-01 0.17862826E+03</pdfrwt>
<totfact> 0.29609020E+04</totfact>
</mgrwt>
</event>
<event>
 4    1  0.6052129E+003  0.1744845E+03  0.7546771E-02  0.1173250E+00
         21   -1    0    0  504  501  0.00000000000E+00  0.00000000000E+00  0.12822425054E+03  0.12822425054E+03  0.00000000000E+00 0.  1.
         21   -1    0    0  503  502 -0.00000000000E+00 -0.00000000000E+00 -0.34575602035E+03  0.34575602035E+03  0.00000000000E+00 0.  1.
         21    1    1    2  503  501 -0.14089925634E+03  0.10291854301E+03  0.23882906364E+02  0.17611138563E+03  0.00000000000E+00 0.  1.
         21    1    1    2  504  502  0.14089925634E+03 -0.10291854301E+03 -0.24141467618E+03  0.29786888526E+03  0.00000000000E+00 0.  1.
<mgrwt>
<rscale>  2 0.17448446E+03</rscale>
<asrwt>0</asrwt>
<pdfrwt beam="1">  1       21 0.19726808E-01 0.17448446E+03</pdfrwt>
<pdfrwt beam="2">  1       21 0.53193233E-01 0.17448446E+03</pdfrwt>
<totfact> 0.79866383E+04</totfact>
</mgrwt>
</event>
<event>
 4    1  0.6052129E+003  0.1106267E+03  0.7546771E-02  0.1259414E+00
         21   -1    0    0  504  501  0.00000000000E+00  0.00000000000E+00  0.43696402195E+03  0.43696402195E+03  0.00000000000E+00 0. -1.
         21   -1    0    0  501  502 -0.00000000000E+00 -0.00000000000E+00 -0.28076775182E+02  0.28076775182E+02  0.00000000000E+00 0. -1.
         21    1    1    2  503  502 -0.10670837183E+03 -0.29182204108E+02  0.19289526513E+03  0.22236650145E+03  0.00000000000E+00 0. -1.
         21    1    1    2  504  503  0.10670837183E+03  0.29182204108E+02  0.21599198163E+03  0.24267429568E+03  0.00000000000E+00 0. -1.
<mgrwt>
<rscale>  2 0.11062675E+03</rscale>
<asrwt>0</asrwt>
<pdfrwt beam="1">  1       21 0.67225229E-01 0.11062675E+03</pdfrwt>
<pdfrwt beam="2">  1       21 0.43195042E-02 0.11062675E+03</pdfrwt>
<totfact> 0.70234414E+05</totfact>
</mgrwt>
</event>
<event>
 4    1  0.6052129E+003  0.1047350E+03  0.7546771E-02  0.1270643E+00
         21   -1    0    0  503  501  0.00000000000E+00  0.00000000000E+00  0.22001270923E+02  0.22001270923E+02  0.00000000000E+00 0.  1.
         21   -1    0    0  504  502 -0.00000000000E+00 -0.00000000000E+00 -0.49920157915E+03  0.49920157915E+03  0.00000000000E+00 0. -1.
         21    1    1    2  503  502  0.99457450485E+01  0.10426169368E+03 -0.24778750696E+03  0.26901313578E+03  0.00000000000E+00 0. -1.
         21    1    1    2  504  501 -0.99457450485E+01 -0.10426169368E+03 -0.22941280126E+03  0.25218971429E+03  0.00000000000E+00 0.  1.
<mgrwt>
<rscale>  2 0.10473499E+03</rscale>
<asrwt>0</asrwt>
<pdfrwt beam="1">  1       21 0.33848109E-02 0.10473499E+03</pdfrwt>
<pdfrwt beam="2">  1       21 0.76800244E-01 0.10473499E+03</pdfrwt>
<totfact> 0.78577503E+05</totfact>
</mgrwt>
</event>
<event>
 4    1  0.6052129E+003  0.1091094E+03  0.7546771E-02  0.1262228E+00
         21   -1    0    0  504  501  0.00000000000E+00  0.00000000000E+00  0.34086440894E+03  0.34086440894E+03  0.00000000000E+00 0. -1.
         21   -1    0    0  503  502 -0.00000000000E+00 -0.00000000000E+00 -0.88925395300E+02  0.88925395300E+02  0.00000000000E+00 0. -1.
         21    1    1    2  503  501 -0.48809312845E+02 -0.97583315463E+02 -0.41489980549E+02  0.11673161938E+03  0.00000000000E+00 0. -1.
         21    1    1    2  504  502  0.48809312845E+02  0.97583315463E+02  0.29342899419E+03  0.31305818486E+03  0.00000000000E+00 0. -1.
<mgrwt>
<rscale>  2 0.10910936E+03</rscale>
<asrwt>0</asrwt>
<pdfrwt beam="1">  1       21 0.52440678E-01 0.10910936E+03</pdfrwt>
<pdfrwt beam="2">  1       21 0.13680830E-01 0.10910936E+03</pdfrwt>
<totfact> 0.16416545E+05</totfact>
</mgrwt>
</event>
<event>
 4    1  0.6052129E+003  0.1170571E+03  0.7546771E-02  0.1248032E+00
         21   -1    0    0  503  501  0.00000000000E+00  0.00000000000E+00  0.32930555525E+02  0.32930555525E+02  0.00000000000E+00 0. -1.
         21   -1    0    0  504  502 -0.00000000000E+00 -0.00000000000E+00 -0.46518297545E+03  0.46518297545E+03  0.00000000000E+00 0. -1.
         21    1    1    2  503  502  0.68116875250E+02  0.95196949455E+02 -0.29702774310E+03  0.31926141021E+03  0.00000000000E+00 0. -1.
         21    1    1    2  504  501 -0.68116875250E+02 -0.95196949455E+02 -0.13522467682E+03  0.17885212076E+03  0.00000000000E+00 0. -1.
<mgrwt>
<rscale>  2 0.11705711E+03</rscale>
<asrwt>0</asrwt>
<pdfrwt beam="1">  1       21 0.50662392E-02 0.11705711E+03</pdfrwt>
<pdfrwt beam="2">  1       21 0.71566613E-01 0.11705711E+03</pdfrwt>
<totfact> 0.46970249E+05</totfact>
</mgrwt>
</event>
<event>
 4    1  0.6052129E+003  0.2025381E+03  0.7546771E-02  0.1147615E+00
         21   -1    0    0  503  501  0.00000000000E+00  0.00000000000E+00  0.22321944803E+03  0.22321944803E+03  0.00000000000E+00 0. -1.
         21   -1    0    0  504  502 -0.00000000000E+00 -0.00000000000E+00 -0.24067990369E+03  0.24067990369E+03  0.00000000000E+00 0. -1.
         21    1    1    2  503  502  0.16527470485E+02  0.20186258945E+03  0.10405626918E+03  0.22770456618E+03  0.00000000000E+00 0. -1.
         21    1    1    2  504  501 -0.16527470485E+02 -0.20186258945E+03 -0.12151672484E+03  0.23619478554E+03  0.00000000000E+00 0. -1.
<mgrwt>
<rscale>  2 0.20253805E+03</rscale>
<asrwt>0</asrwt>
<pdfrwt beam="1">  1       21 0.34341453E-01 0.20253805E+03</pdfrwt>
<pdfrwt beam="2">  1       21 0.37027678E-01 0.20253805E+03</pdfrwt>
<totfact> 0.57213445E+04</totfact>
</mgrwt>
</event>
<event>
 4    1  0.6052129E+003  0.1138026E+03  0.7546771E-02  0.1253686E+00
         21   -1    0    0  503  501  0.00000000000E+00  0.00000000000E+00  0.73388312233E+02  0.73388312233E+02  0.00000000000E+00 0. -1.
         21   -1    0    0  504  502 -0.00000000000E+00 -0.00000000000E+00 -0.22691429144E+03  0.22691429144E+03  0.00000000000E+00 0. -1.
         21    1    1    2  503  502 -0.37310939151E+02  0.10751248934E+03 -0.59696986434E+01  0.11395911042E+03  0.00000000000E+00 0. -1.
         21    1    1    2  504  501  0.37310939151E+02 -0.10751248934E+03 -0.14755628057E+03  0.18634349326E+03  0.00000000000E+00 0. -1.
<mgrwt>
<rscale>  2 0.11380264E+03</rscale>
<asrwt>0</asrwt>
<pdfrwt beam="1">  1       21 0.11290510E-01 0.11380264E+03</pdfrwt>
<pdfrwt beam="2">  1       21 0.34909891E-01 0.11380264E+03</pdfrwt>
<totfact> 0.52205640E+05</totfact>
</mgrwt>
</event>
<event>
 4    1  0.6052129E+003  0.1274811E+03  0.7546771E-02  0.1231242E+00
         21   -1    0    0  503  501  0.00000000000E+00  0.00000000000E+00  0.94405264829E+03  0.94405264829E+03  0.00000000000E+00 0. -1.
         21   -1    0    0  504  502 -0.00000000000E+00 -0.00000000000E+00 -0.20122824582E+02  0.20122824582E+02  0.00000000000E+00 0. -1.
         21    1    1    2  503  502 -0.12737329489E+03  0.52414167271E+01  0.64523868910E+03  0.65771148281E+03  0.00000000000E+00 0. -1.
         21    1    1    2  504  501  0.12737329489E+03 -0.52414167271E+01  0.27869113461E+03  0.30646399007E+03  0.00000000000E+00 0. -1.
<mgrwt>
<rscale>  2 0.12748109E+03</rscale>
<asrwt>0</asrwt>
<pdfrwt beam="1">  1       21 0.14523883E+00 0.12748109E+03</pdfrwt>
<pdfrwt beam="2">  1       21 0.30958199E-02 0.12748109E+03</pdfrwt>
<totfact> 0.20041350E+05</totfact>
</mgrwt>
</event>
<event>
 4    1  0.6052129E+003  0.1514017E+03  0.7546771E-02  0.1198761E+00
         21   -1    0    0  504  501  0.00000000000E+00  0.00000000000E+00  0.52953664664E+02  0.52953664664E+02  0.00000000000E+00 0.  1.
         21   -1    0    0  501  502 -0.00000000000E+00 -0.00000000000E+00 -0.95830334344E+03  0.95830334344E+03  0.00000000000E+00 0.  1.
         21    1    1    2  503  502 -0.11710509725E+03  0.95962797698E+02 -0.82707468887E+03  0.84081805601E+03  0.00000000000E+00 0.  1.
         21    1    1    2  504  503  0.11710509725E+03 -0.95962797698E+02 -0.78274989900E+02  0.17043895209E+03  0.00000000000E+00 0.  1.
<mgrwt>
<rscale>  2 0.15140166E+03</rscale>
<asrwt>0</asrwt>
<pdfrwt beam="1">  1       21 0.81467187E-02 0.15140166E+03</pdfrwt>
<pdfrwt beam="2">  1       21 0.14743126E+00 0.15140166E+03</pdfrwt>
<totfact> 0.37310185E+04</totfact>
</mgrwt>
</event>
<event>
 4    1  0.6052129E+003  0.2112354E+03  0.7546771E-02  0.1140591E+00
         21   -1    0    0  503  501  0.00000000000E+00  0.00000000000E+00  0.15236307325E+04  0.15236307325E+04  0.00000000000E+00 0. -1.
         21   -1    0    0  504  502 -0.00000000000E+00 -0.00000000000E+00 -0.11337492036E+03  0.11337492036E+03  0.00000000000E+00 0.  1.
         21    1    1    2  503  502  0.10126990182E+03 -0.18537745834E+03  0.22032130048E+00  0.21123551694E+03  0.00000000000E+00 0.  1.
         21    1    1    2  504  501 -0.10126990182E+03  0.18537745834E+03  0.14100354909E+04  0.14257701359E+04  0.00000000000E+00 0. -1.
<mgrwt>
<rscale>  2 0.21123540E+03</rscale>
<asrwt>0</asrwt>
<pdfrwt beam="1">  1       21 0.23440471E+00 0.21123540E+03</pdfrwt>
<pdfrwt beam="2">  1       21 0.17442297E-01 0.21123540E+03</pdfrwt>
<totfact> 0.24006908E+03</totfact>
</mgrwt>
</event>
<event>
 4    1  0.6052129E+003  0.1463393E+03  0.7546771E-02  0.1205045E+00
         21   -1    0    0  503  501  0.00000000000E+00  0.00000000000E+00  0.52867406937E+02  0.52867406937E+02  0.00000000000E+00 0. -1.
         21   -1    0    0  504  502 -0.00000000000E+00 -0.00000000000E+00 -0.46304654885E+03  0.46304654885E+03  0.00000000000E+00 0.  1.
         21    1    1    2  503  502 -0.14471944698E+03  0.21713336673E+02 -0.11381539932E+03  0.18538913789E+03  0.00000000000E+00 0. -1.
         21    1    1    2  504  501  0.14471944698E+03 -0.21713336673E+02 -0.29636374259E+03  0.33052481790E+03  0.00000000000E+00 0.  1.
<mgrwt>
<rscale>  2 0.14633929E+03</rscale>
<asrwt>0</asrwt>
<pdfrwt beam="1">  1       21 0.81334466E-02 0.14633929E+03</pdfrwt>
<pdfrwt beam="2">  1       21 0.71237936E-01 0.14633929E+03</pdfrwt>
<totfact> 0.21064377E+05</totfact>
</mgrwt>
</event>
<event>
 4    1  0.6052129E+003  0.1125988E+03  0.7546771E-02  0.1255832E+00
         21   -1    0    0  502  501  0.00000000000E+00  0.00000000000E+00  0.80582179629E+02  0.80582179629E+02  0.00000000000E+00 0.  1.
         21   -1    0    0  504  502 -0.00000000000E+00 -0.00000000000E+00 -0.45464252483E+03  0.45464252483E+03  0.00000000000E+00 0.  1.
         21    1    1    2  503  501  0.83993929247E+02  0.74990022417E+02  0.29377819555E+02  0.11636812233E+03  0.00000000000E+00 0.  1.
         21    1    1    2  504  503 -0.83993929247E+02 -0.74990022417E+02 -0.40343816476E+03  0.41885658213E+03  0.00000000000E+00 0.  1.
<mgrwt>
<rscale>  2 0.11259877E+03</rscale>
<asrwt>0</asrwt>
<pdfrwt beam="1">  1       21 0.12397258E-01 0.11259877E+03</pdfrwt>
<pdfrwt beam="2">  1       21 0.69945004E-01 0.11259877E+03</pdfrwt>
<totfact> 0.10608949E+05</totfact>
</mgrwt>
</event>
<event>
 4    1  0.6052129E+003  0.1476715E+03  0.7546771E-02  0.1203364E+00
         21   -1    0    0  502  501  0.00000000000E+00  0.00000000000E+00  0.83093911520E+03  0.83093911520E+03  0.00000000000E+00 0.  1.
         21   -1    0    0  503  502 -0.00000000000E+00 -0.00000000000E+00 -0.65240894448E+02  0.65240894448E+02  0.00000000000E+00 0.  1.
         21    1    1    2  503  504  0.14749860122E+03  0.71434308684E+01  0.36413660163E+02  0.15209477510E+03  0.00000000000E+00 0.  1.
         21    1    1    2  504  501 -0.14749860122E+03 -0.71434308684E+01  0.72928456059E+03  0.74408523455E+03  0.00000000000E+00 0.  1.
<mgrwt>
<rscale>  2 0.14767148E+03</rscale>
<asrwt>0</asrwt>
<pdfrwt beam="1">  1       21 0.12783678E+00 0.14767148E+03</pdfrwt>
<pdfrwt beam="2">  1       21 0.10037061E-01 0.14767148E+03</pdfrwt>
<totfact> 0.37335717E+04</totfact>
</mgrwt>
</event>
<event>
 4    1  0.6052129E+003  0.1001525E+03  0.7546771E-02  0.1279976E+00
         21   -1    0    0  503  501  0.00000000000E+00  0.00000000000E+00  0.12502492557E+04  0.12502492557E+04  0.00000000000E+00 0. -1.
         21   -1    0    0  504  502 -0.00000000000E+00 -0.00000000000E+00 -0.29874661240E+02  0.29874661240E+02  0.00000000000E+00 0. -1.
         21    1    1    2  503  502  0.95481949735E+02 -0.30227712970E+02  0.62774938254E+02  0.11819987407E+03  0.00000000000E+00 0. -1.
         21    1    1    2  504  501 -0.95481949735E+02  0.30227712970E+02  0.11575996562E+04  0.11619240428E+04  0.00000000000E+00 0. -1.
<mgrwt>
<rscale>  2 0.10015247E+03</rscale>
<asrwt>0</asrwt>
<pdfrwt beam="1">  1       21 0.19234600E+00 0.10015247E+03</pdfrwt>
<pdfrwt beam="2">  1       21 0.45961027E-02 0.10015247E+03</pdfrwt>
<totfact> 0.50116435E+04</totfact>
</mgrwt>
</event>
<event>
 4    1  0.6052129E+003  0.1199570E+03  0.7546771E-02  0.1243168E+00
         21   -1    0    0  503  501  0.00000000000E+00  0.00000000000E+00  0.22242525502E+03  0.22242525502E+03  0.00000000000E+00 0.  1.
         21   -1    0    0  504  502 -0.00000000000E+00 -0.00000000000E+00 -0.10648364197E+03  0.10648364197E+03  0.00000000000E+00 0. -1.
         21    1    1    2  503  502 -0.20362959425E+02 -0.11821600592E+03  0.16099430406E+03  0.20077061566E+03  0.00000000000E+00 0.  1.
         21    1    1    2  504  501  0.20362959425E+02  0.11821600592E+03 -0.45052691007E+02  0.12813828132E+03  0.00000000000E+00 0. -1.
<mgrwt>
<rscale>  2 0.11995697E+03</rscale>
<asrwt>0</asrwt>
<pdfrwt beam="1">  1       21 0.34219270E-01 0.11995697E+03</pdfrwt>
<pdfrwt beam="2">  1       21 0.16382099E-01 0.11995697E+03</pdfrwt>
<totfact> 0.27917182E+05</totfact>
</mgrwt>
</event>
<event>
 4    1  0.6052129E+003  0.1658581E+03  0.7546771E-02  0.1182237E+00
         21   -1    0    0  504  501  0.00000000000E+00  0.00000000000E+00  0.43004785413E+02  0.43004785413E+02  0.00000000000E+00 0.  1.
         21   -1    0    0  503  502 -0.00000000000E+00 -0.00000000000E+00 -0.69490936628E+03  0.69490936628E+03  0.00000000000E+00 0.  1.
         21    1    1    2  503  501 -0.21472830514E+02 -0.16446228325E+03 -0.22192886023E+03  0.27705837664E+03  0.00000000000E+00 0.  1.
         21    1    1    2  504  502  0.21472830514E+02  0.16446228325E+03 -0.42997572063E+03  0.46085577505E+03  0.00000000000E+00 0.  1.
<mgrwt>
<rscale>  2 0.16585815E+03</rscale>
<asrwt>0</asrwt>
<pdfrwt beam="1">  1       21 0.66161209E-02 0.16585815E+03</pdfrwt>
<pdfrwt beam="2">  1       21 0.10690913E+00 0.16585815E+03</pdfrwt>
<totfact> 0.11792762E+05</totfact>
</mgrwt>
</event>
<event>
 4    1  0.6052129E+003  0.1072883E+03  0.7546771E-02  0.1265675E+00
         21   -1    0    0  502  501  0.00000000000E+00  0.00000000000E+00  0.46240988977E+03  0.46240988977E+03  0.00000000000E+00 0.  1.
         21   -1    0    0  504  502 -0.00000000000E+00 -0.00000000000E+00 -0.49404104418E+02  0.49404104418E+02  0.00000000000E+00 0. -1.
         21    1    1    2  503  501 -0.70164037286E+02  0.81165235184E+02  0.38675557561E+03  0.40136101305E+03  0.00000000000E+00 0.  1.
         21    1    1    2  504  503  0.70164037286E+02 -0.81165235184E+02  0.26250209741E+02  0.11045298114E+03  0.00000000000E+00 0. -1.
<mgrwt>
<rscale>  2 0.10728834E+03</rscale>
<asrwt>0</asrwt>
<pdfrwt beam="1">  1       21 0.71139980E-01 0.10728834E+03</pdfrwt>
<pdfrwt beam="2">  1       21 0.76006318E-02 0.10728834E+03</pdfrwt>
<totfact> 0.23989517E+05</totfact>
</mgrwt>
</event>
<event>
 4    1  0.6052129E+003  0.1992921E+03  0.7546771E-02  0.1150338E+00
         21   -1    0    0  502  501  0.00000000000E+00  0.00000000000E+00  0.84908075317E+02  0.84908075317E+02  0.00000000000E+00 0. -1.
         21   -1    0    0  503  502 -0.00000000000E+00 -0.00000000000E+00 -0.78698731278E+03  0.78698731278E+03  0.00000000000E+00 0. -1.
         21    1    1    2  503  504 -0.16953964221E+03  0.10475522123E+03 -0.62868763125E+03  0.65951913115E+03  0.00000000000E+00 0. -1.
         21    1    1    2  504  501  0.16953964221E+03 -0.10475522123E+03 -0.73391606213E+02  0.21237625696E+03  0.00000000000E+00 0. -1.
<mgrwt>
<rscale>  2 0.19929211E+03</rscale>
<asrwt>0</asrwt>
<pdfrwt beam="1">  1       21 0.13062781E-01 0.19929211E+03</pdfrwt>
<pdfrwt beam="2">  1       21 0.12107497E+00 0.19929211E+03</pdfrwt>
<totfact> 0.25923848E+04</totfact>
</mgrwt>
</event>
<event>
 4    1  0.6052129E+003  0.1200936E+03  0.7546771E-02  0.1242943E+00
         21   -1    0    0  502  501  0.00000000000E+00  0.00000000000E+00  0.32703716136E+03  0.32703716136E+03  0.00000000000E+00 0. -1.
         21   -1    0    0  503  502 -0.00000000000E+00 -0.00000000000E+00 -0.95030599616E+02  0.95030599616E+02  0.00000000000E+00 0. -1.
         21    1    1    2  503  504  0.28121397118E+02 -0.11675465045E+03 -0.38489520009E+02  0.12611068364E+03  0.00000000000E+00 0. -1.
         21    1    1    2  504  501 -0.28121397118E+02  0.11675465045E+03  0.27049608175E+03  0.29595707733E+03  0.00000000000E+00 0. -1.
<mgrwt>
<rscale>  2 0.12009355E+03</rscale>
<asrwt>0</asrwt>
<pdfrwt beam="1">  1       21 0.50313409E-01 0.12009355E+03</pdfrwt>
<pdfrwt beam="2">  1       21 0.14620092E-01 0.12009355E+03</pdfrwt>
<totfact> 0.15819319E+05</totfact>
</mgrwt>
</event>
<event>
 4    1  0.6052129E+003  0.1250907E+03  0.7546771E-02  0.1234928E+00
         21   -1    0    0  503  501  0.00000000000E+00  0.00000000000E+00  0.15385145157E+03  0.15385145157E+03  0.00000000000E+00 0.  1.
         21   -1    0    0  504  502 -0.00000000000E+00 -0.00000000000E+00 -0.15039479055E+03  0.15039479055E+03  0.00000000000E+00 0.  1.
         21    1    1    2  503  502 -0.12432409126E+03  0.13827856695E+02 -0.84826476340E+02  0.15113973791E+03  0.00000000000E+00 0.  1.
         21    1    1    2  504  501  0.12432409126E+03 -0.13827856695E+02  0.88283137363E+02  0.15310650421E+03  0.00000000000E+00 0.  1.
<mgrwt>
<rscale>  2 0.12509072E+03</rscale>
<asrwt>0</asrwt>
<pdfrwt beam="1">  1       21 0.23669454E-01 0.12509072E+03</pdfrwt>
<pdfrwt beam="2">  1       21 0.23137660E-01 0.12509072E+03</pdfrwt>
<totfact> 0.29910400E+05</totfact>
</mgrwt>
</event>
<event>
 4    1  0.6052129E+003  0.1364589E+03  0.7546771E-02  0.1218175E+00
         21   -1    0    0  503  501  0.00000000000E+00  0.00000000000E+00  0.25918981203E+03  0.25918981203E+03  0.00000000000E+00 0.  1.
         21   -1    0    0  504  502 -0.00000000000E+00 -0.00000000000E+00 -0.72268947285E+02  0.72268947285E+02  0.00000000000E+00 0.  1.
         21    1    1    2  503  502 -0.13085477198E+03 -0.38704676845E+02  0.10618092129E+03  0.17290289588E+03  0.00000000000E+00 0.  1.
         21    1    1    2  504  501  0.13085477198E+03  0.38704676845E+02  0.80739943453E+02  0.15855586343E+03  0.00000000000E+00 0.  1.
<mgrwt>
<rscale>  2 0.13645887E+03</rscale>
<asrwt>0</asrwt>
<pdfrwt beam="1">  1       21 0.39875355E-01 0.13645887E+03</pdfrwt>
<pdfrwt beam="2">  1       21 0.11118300E-01 0.13645887E+03</pdfrwt>
<totfact> 0.41143584E+05</totfact>
</mgrwt>
</event>
<event>
 4    1  0.6052129E+003  0.1115058E+03  0.7546771E-02  0.1257806E+00
         21   -1    0    0  503  501  0.00000000000E+00  0.00000000000E+00  0.61999756841E+02  0.61999756841E+02  0.00000000000E+00 0. -1.
         21   -1    0    0  504  502 -0.00000000000E+00 -0.00000000000E+00 -0.20964699423E+03  0.20964699423E+03  0.00000000000E+00 0.  1.
         21    1    1    2  503  502 -0.33570422859E+02 -0.10633238899E+03 -0.45518045166E+02  0.12043854315E+03  0.00000000000E+00 0.  1.
         21    1    1    2  504  501  0.33570422859E+02  0.10633238899E+03 -0.10212919222E+03  0.15120820793E+03  0.00000000000E+00 0. -1.
<mgrwt>
<rscale>  2 0.11150583E+03</rscale>
<asrwt>0</asrwt>
<pdfrwt beam="1">  1       21 0.95384240E-02 0.11150583E+03</pdfrwt>
<pdfrwt beam="2">  1       21 0.32253384E-01 0.11150583E+03</pdfrwt>
<totfact> 0.81780447E+05</totfact>
</mgrwt>
</event>
<event>
 4    1  0.6052129E+003  0.1303312E+03  0.7546771E-02  0.1226965E+00
         21   -1    0    0  504  501  0.00000000000E+00  0.00000000000E+00  0.17896687779E+04  0.17896687779E+04  0.00000000000E+00 0. -1.
         21   -1    0    0  503  502 -0.00000000000E+00 -0.00000000000E+00 -0.24087989531E+03  0.24087989531E+03  0.00000000000E+00 0. -1.
         21    1    1    2  503  501 -0.12404763927E+03 -0.39979913776E+02  0.17694656136E+04  0.17742589349E+04  0.00000000000E+00 0. -1.
         21    1    1    2  504  502  0.12404763927E+03  0.39979913776E+02 -0.22067673106E+03  0.25628973827E+03  0.00000000000E+00 0. -1.
<mgrwt>
<rscale>  2 0.13033116E+03</rscale>
<asrwt>0</asrwt>
<pdfrwt beam="1">  1       21 0.27533365E+00 0.13033116E+03</pdfrwt>
<pdfrwt beam="2">  1       21 0.37058446E-01 0.13033116E+03</pdfrwt>
<totfact> 0.36954488E+02</totfact>
</mgrwt>
</event>
<event>
 4    1  0.6052129E+003  0.1427679E+03  0.7546771E-02  0.1209652E+00
         21   -1    0    0  504  501  0.00000000000E+00  0.00000000000E+00  0.81195472966E+02  0.81195472966E+02  0.00000000000E+00 0. -1.
         21   -1    0    0  503  502 -0.00000000000E+00 -0.00000000000E+00 -0.29392754563E+03  0.29392754563E+03  0.00000000000E+00 0. -1.
         21    1    1    2  503  501  0.13947247104E+03 -0.30497811053E+02 -0.34714066590E+02  0.14692771377E+03  0.00000000000E+00 0. -1.
         21    1    1    2  504  502 -0.13947247104E+03  0.30497811053E+02 -0.17801800607E+03  0.22819530482E+03  0.00000000000E+00 0. -1.
<mgrwt>
<rscale>  2 0.14276795E+03</rscale>
<asrwt>0</asrwt>
<pdfrwt beam="1">  1       21 0.12491611E-01 0.14276795E+03</pdfrwt>
<pdfrwt beam="2">  1       21 0.45219623E-01 0.14276795E+03</pdfrwt>
<totfact> 0.25930979E+05</totfact>
</mgrwt>
</event>
<event>
 4    1  0.6052129E+003  0.1046850E+03  0.7546771E-02  0.1270742E+00
         21   -1    0    0  503  501  0.00000000000E+00  0.00000000000E+00  0.13971860614E+03  0.13971860614E+03  0.00000000000E+00 0.  1.
         21   -1    0    0  504  502 -0.00000000000E+00 -0.00000000000E+00 -0.50363330345E+03  0.50363330345E+03  0.00000000000E+00 0. -1.
         21    1    1    2  503  502  0.81954715826E+02 -0.65133461233E+02  0.11361018108E+03  0.15448694593E+03  0.00000000000E+00 0.  1.
         21    1    1    2  504  501 -0.81954715826E+02  0.65133461233E+02 -0.47752487839E+03  0.48886496366E+03  0.00000000000E+00 0. -1.
<mgrwt>
<rscale>  2 0.10468497E+03</rscale>
<asrwt>0</asrwt>
<pdfrwt beam="1">  1       21 0.21495170E-01 0.10468497E+03</pdfrwt>
<pdfrwt beam="2">  1       21 0.77482048E-01 0.10468497E+03</pdfrwt>
<totfact> 0.31502505E+04</totfact>
</mgrwt>
</event>
<event>
 4    1  0.6052129E+003  0.1225989E+03  0.7546771E-02  0.1238870E+00
         21   -1    0    0  504  501  0.00000000000E+00  0.00000000000E+00  0.56548665615E+02  0.56548665615E+02  0.00000000000E+00 0. -1.
         21   -1    0    0  503  502 -0.00000000000E+00 -0.00000000000E+00 -0.31840265728E+03  0.31840265728E+03  0.00000000000E+00 0. -1.
         21    1    1    2  503  501 -0.69697716451E+02 -0.10085985274E+03 -0.54724075035E+02  0.13425798286E+03  0.00000000000E+00 0. -1.
         21    1    1    2  504  502  0.69697716451E+02  0.10085985274E+03 -0.20712991663E+03  0.24069334004E+03  0.00000000000E+00 0. -1.
<mgrwt>
<rscale>  2 0.12259886E+03</rscale>
<asrwt>0</asrwt>
<pdfrwt beam="1">  1       21 0.86997950E-02 0.12259886E+03</pdfrwt>
<pdfrwt beam="2">  1       21 0.48985023E-01 0.12259886E+03</pdfrwt>
<totfact> 0.41690773E+05</totfact>
</mgrwt>
</event>
<event>
 4    1  0.6052129E+003  0.1066190E+03  0.7546771E-02  0.1266962E+00
         21   -1    0    0  503  501  0.00000000000E+00  0.00000000000E+00  0.39987487460E+03  0.39987487460E+03  0.00000000000E+00 0. -1.
         21   -1    0    0  504  502 -0.00000000000E+00 -0.00000000000E+00 -0.31800838431E+02  0.31800838431E+02  0.00000000000E+00 0. -1.
         21    1    1    2  503  502  0.10286687651E+03 -0.28035836294E+02  0.11374392898E+03  0.15590151949E+03  0.00000000000E+00 0. -1.
         21    1    1    2  504  501 -0.10286687651E+03  0.28035836294E+02  0.25433010719E+03  0.27577419354E+03  0.00000000000E+00 0. -1.
<mgrwt>
<rscale>  2 0.10661896E+03</rscale>
<asrwt>0</asrwt>
<pdfrwt beam="1">  1       21 0.61519208E-01 0.10661896E+03</pdfrwt>
<pdfrwt beam="2">  1       21 0.48924370E-02 0.10661896E+03</pdfrwt>
<totfact> 0.68994763E+05</totfact>
</mgrwt>
</event>
<event>
 4    1  0.6052129E+003  0.1226765E+03  0.7546771E-02  0.1238746E+00
         21   -1    0    0  503  501  0.00000000000E+00  0.00000000000E+00  0.19229460132E+02  0.19229460132E+02  0.00000000000E+00 0. -1.
         21   -1    0    0  504  502 -0.00000000000E+00 -0.00000000000E+00 -0.18642000466E+04  0.18642000466E+04  0.00000000000E+00 0. -1.
         21    1    1    2  503  502 -0.61923143970E+01  0.12252009994E+03 -0.16397852167E+04  0.16443676829E+04  0.00000000000E+00 0. -1.
         21    1    1    2  504  501  0.61923143970E+01 -0.12252009994E+03 -0.20518536975E+03  0.23906182382E+03  0.00000000000E+00 0. -1.
<mgrwt>
<rscale>  2 0.12267648E+03</rscale>
<asrwt>0</asrwt>
<pdfrwt beam="1">  1       21 0.29583772E-02 0.12267648E+03</pdfrwt>
<pdfrwt beam="2">  1       21 0.28680013E+00 0.12267648E+03</pdfrwt>
<totfact> 0.28419980E+04</totfact>
</mgrwt>
</event>
<event>
 4    1  0.6052129E+003  0.1259599E+03  0.7546771E-02  0.1233577E+00
         21   -1    0    0  502  501  0.00000000000E+00  0.00000000000E+00  0.63486710472E+03  0.63486710472E+03  0.00000000000E+00 0.  1.
         21   -1    0    0  504  502 -0.00000000000E+00 -0.00000000000E+00 -0.41927049466E+02  0.41927049466E+02  0.00000000000E+00 0.  1.
         21    1    1    2  503  501  0.38913284660E+02  0.11979840327E+03  0.51154346443E+03  0.52682313649E+03  0.00000000000E+00 0.  1.
         21    1    1    2  504  503 -0.38913284660E+02 -0.11979840327E+03  0.81396590826E+02  0.14997101769E+03  0.00000000000E+00 0.  1.
<mgrwt>
<rscale>  2 0.12595992E+03</rscale>
<asrwt>0</asrwt>
<pdfrwt beam="1">  1       21 0.97671855E-01 0.12595992E+03</pdfrwt>
<pdfrwt beam="2">  1       21 0.64503158E-02 0.12595992E+03</pdfrwt>
<totfact> 0.15480201E+05</totfact>
</mgrwt>
</event>
<event>
 4    1  0.6052129E+003  0.2069926E+03  0.7546771E-02  0.1143970E+00
         21   -1    0    0  503  501  0.00000000000E+00  0.00000000000E+00  0.72019664176E+02  0.72019664176E+02  0.00000000000E+00 0.  1.
         21   -1    0    0  504  502 -0.00000000000E+00 -0.00000000000E+00 -0.88355610163E+03  0.88355610163E+03  0.00000000000E+00 0.  1.
         21    1    1    2  503  502 -0.13874792709E+03 -0.15360644439E+03 -0.67885049384E+03  0.70970692544E+03  0.00000000000E+00 0.  1.
         21    1    1    2  504  501  0.13874792709E+03  0.15360644439E+03 -0.13268594361E+03  0.24586884037E+03  0.00000000000E+00 0.  1.
<mgrwt>
<rscale>  2 0.20699258E+03</rscale>
<asrwt>0</asrwt>
<pdfrwt beam="1">  1       21 0.11079948E-01 0.20699258E+03</pdfrwt>
<pdfrwt beam="2">  1       21 0.13593171E+00 0.20699258E+03</pdfrwt>
<totfact> 0.25884651E+04</totfact>
</mgrwt>
</event>
<event>
 4    1  0.6052129E+003  0.1049969E+03  0.7546771E-02  0.1270126E+00
         21   -1    0    0  502  501  0.00000000000E+00  0.00000000000E+00  0.34631866229E+03  0.34631866229E+03  0.00000000000E+00 0.  1.
         21   -1    0    0  503  502 -0.00000000000E+00 -0.00000000000E+00 -0.49536712085E+02  0.49536712085E+02  0.00000000000E+00 0.  1.
         21    1    1    2  503  504  0.88778569247E+00  0.10499317717E+03  0.30066288613E+02  0.10921692693E+03  0.00000000000E+00 0.  1.
         21    1    1    2  504  501 -0.88778569247E+00 -0.10499317717E+03  0.26671566159E+03  0.28663844745E+03  0.00000000000E+00 0.  1.
<mgrwt>
<rscale>  2 0.10499693E+03</rscale>
<asrwt>0</asrwt>
<pdfrwt beam="1">  1       21 0.53279793E-01 0.10499693E+03</pdfrwt>
<pdfrwt beam="2">  1       21 0.76210328E-02 0.10499693E+03</pdfrwt>
<totfact> 0.44110230E+05</totfact>
</mgrwt>
</event>
<event>
 4    1  0.6052129E+003  0.1006454E+03  0.7546771E-02  0.1278945E+00
         21   -1    0    0  504  501  0.00000000000E+00  0.00000000000E+00  0.33914035005E+03  0.33914035005E+03  0.00000000000E+00 0. -1.
         21   -1    0    0  503  502 -0.00000000000E+00 -0.00000000000E+00 -0.73172199191E+03  0.73172199191E+03  0.00000000000E+00 0.  1.
         21    1    1    2  503  501  0.36778205276E+02  0.93684927913E+02  0.32809861123E+03  0.34318828767E+03  0.00000000000E+00 0. -1.
         21    1    1    2  504  502 -0.36778205276E+02 -0.93684927913E+02 -0.72068025308E+03  0.72767405429E+03  0.00000000000E+00 0.  1.
<mgrwt>
<rscale>  2 0.10064543E+03</rscale>
<asrwt>0</asrwt>
<pdfrwt beam="1">  1       21 0.52175439E-01 0.10064543E+03</pdfrwt>
<pdfrwt beam="2">  1       21 0.11257261E+00 0.10064543E+03</pdfrwt>
<totfact> 0.23943358E+03</totfact>
</mgrwt>
</event>
<event>
 4    1  0.6052129E+003  0.1384184E+03  0.7546771E-02  0.1215473E+00
         21   -1    0    0  503  501  0.00000000000E+00  0.00000000000E+00  0.45238115210E+02  0.45238115210E+02  0.00000000000E+00 0.  1.
         21   -1    0    0  501  502 -0.00000000000E+00 -0.00000000000E+00 -0.53444462554E+03  0.53444462554E+03  0.00000000000E+00 0.  1.
         21    1    1    2  503  504  0.98269658228E+02  0.97481934835E+02 -0.11256329067E+03  0.17841005508E+03  0.00000000000E+00 0.  1.
         21    1    1    2  504  502 -0.98269658228E+02 -0.97481934835E+02 -0.37664321967E+03  0.40127268567E+03  0.00000000000E+00 0.  1.
<mgrwt>
<rscale>  2 0.13841840E+03</rscale>
<asrwt>0</asrwt>
<pdfrwt beam="1">  1       21 0.69597102E-02 0.13841840E+03</pdfrwt>
<pdfrwt beam="2">  1       21 0.82222248E-01 0.13841840E+03</pdfrwt>
<totfact> 0.20074302E+05</totfact>
</mgrwt>
</event>
<event>
 4    1  0.6052129E+003  0.1374419E+03  0.7546771E-02  0.1216813E+00
         21   -1    0    0  504  501  0.00000000000E+00  0.00000000000E+00  0.71583712464E+03  0.71583712464E+03  0.00000000000E+00 0. -1.
         21   -1    0    0  503  502 -0.00000000000E+00 -0.00000000000E+00 -0.46837304753E+02  0.46837304753E+02  0.00000000000E+00 0. -1.
         21    1    1    2  503  501  0.13135820501E+03  0.40438815161E+02  0.82534365481E+02  0.16031904840E+03  0.00000000000E+00 0. -1.
         21    1    1    2  504  502 -0.13135820501E+03 -0.40438815161E+02  0.58646545441E+03  0.60235538099E+03  0.00000000000E+00 0. -1.
<mgrwt>
<rscale>  2 0.13744190E+03</rscale>
<asrwt>0</asrwt>
<pdfrwt beam="1">  1       21 0.11012878E+00 0.13744190E+03</pdfrwt>
<pdfrwt beam="2">  1       21 0.72057397E-02 0.13744190E+03</pdfrwt>
<totfact> 0.96003972E+04</totfact>
</mgrwt>
</event>
<event>
 4    1  0.6052129E+003  0.1016818E+03  0.7546771E-02  0.1276799E+00
         21   -1    0    0  504  501  0.00000000000E+00  0.00000000000E+00  0.18203994691E+02  0.18203994691E+02  0.00000000000E+00 0. -1.
         21   -1    0    0  501  502 -0.00000000000E+00 -0.00000000000E+00 -0.74732783720E+03  0.74732783720E+03  0.00000000000E+00 0.  1.
         21    1    1    2  503  502 -0.20161559338E+02 -0.99662926420E+02 -0.55208160779E+03  0.56136733877E+03  0.00000000000E+00 0.  1.
         21    1    1    2  504  503  0.20161559338E+02  0.99662926420E+02 -0.17704223472E+03  0.20416449312E+03  0.00000000000E+00 0. -1.
<mgrwt>
<rscale>  2 0.10168179E+03</rscale>
<asrwt>0</asrwt>
<pdfrwt beam="1">  1       21 0.28006151E-02 0.10168179E+03</pdfrwt>
<pdfrwt beam="2">  1       21 0.11497349E+00 0.10168179E+03</pdfrwt>
<totfact> 0.42442482E+05</totfact>
</mgrwt>
</event>
<event>
 4    1  0.6052129E+003  0.1229934E+03  0.7546771E-02  0.1238239E+00
         21   -1    0    0  503  501  0.00000000000E+00  0.00000000000E+00  0.12503772266E+03  0.12503772266E+03  0.00000000000E+00 0. -1.
         21   -1    0    0  504  502 -0.00000000000E+00 -0.00000000000E+00 -0.12538370869E+03  0.12538370869E+03  0.00000000000E+00 0. -1.
         21    1    1    2  503  502  0.12193289721E+03 -0.16116719691E+02 -0.23631773228E+02  0.12524312668E+03  0.00000000000E+00 0. -1.
         21    1    1    2  504  501 -0.12193289721E+03  0.16116719691E+02  0.23285787196E+02  0.12517830467E+03  0.00000000000E+00 0. -1.
<mgrwt>
<rscale>  2 0.12299341E+03</rscale>
<asrwt>0</asrwt>
<pdfrwt beam="1">  1       21 0.19236573E-01 0.12299341E+03</pdfrwt>
<pdfrwt beam="2">  1       21 0.19289801E-01 0.12299341E+03</pdfrwt>
<totfact> 0.61653075E+05</totfact>
</mgrwt>
</event>
<event>
 4    1  0.6052129E+003  0.1410873E+03  0.7546771E-02  0.1211873E+00
         21   -1    0    0  504  501  0.00000000000E+00  0.00000000000E+00  0.46896926741E+03  0.46896926741E+03  0.00000000000E+00 0.  1.
         21   -1    0    0  503  502 -0.00000000000E+00 -0.00000000000E+00 -0.50266315767E+02  0.50266315767E+02  0.00000000000E+00 0.  1.
         21    1    1    2  503  501  0.25784859764E+02  0.13871111982E+03  0.10694627171E+03  0.17703993558E+03  0.00000000000E+00 0.  1.
         21    1    1    2  504  502 -0.25784859764E+02 -0.13871111982E+03  0.31175667993E+03  0.34219564760E+03  0.00000000000E+00 0.  1.
<mgrwt>
<rscale>  2 0.14108733E+03</rscale>
<asrwt>0</asrwt>
<pdfrwt beam="1">  1       21 0.72149115E-01 0.14108733E+03</pdfrwt>
<pdfrwt beam="2">  1       21 0.77332797E-02 0.14108733E+03</pdfrwt>
<totfact> 0.22380519E+05</totfact>
</mgrwt>
</event>
<event>
 4    1  0.6052129E+003  0.1100017E+03  0.7546771E-02  0.1260567E+00
         21   -1    0    0  504  501  0.00000000000E+00  0.00000000000E+00  0.54026813165E+03  0.54026813165E+03  0.00000000000E+00 0.  1.
         21   -1    0    0  503  502 -0.00000000000E+00 -0.00000000000E+00 -0.41316484089E+02  0.41316484089E+02  0.00000000000E+00 0.  1.
         21    1    1    2  503  501 -0.75110517228E+02 -0.80366554344E+02  0.52698003427E+02  0.12197316271E+03  0.00000000000E+00 0.  1.
         21    1    1    2  504  502  0.75110517228E+02  0.80366554344E+02  0.44625364414E+03  0.45961145303E+03  0.00000000000E+00 0.  1.
<mgrwt>
<rscale>  2 0.11000169E+03</rscale>
<asrwt>0</asrwt>
<pdfrwt beam="1">  1       21 0.83118169E-01 0.11000169E+03</pdfrwt>
<pdfrwt beam="2">  1       21 0.63563826E-02 0.11000169E+03</pdfrwt>
<totfact> 0.23055099E+05</totfact>
</mgrwt>
</event>
<event>
 4    1  0.6052129E+003  0.1132368E+03  0.7546771E-02  0.1254691E+00
         21   -1    0    0  504  501  0.00000000000E+00  0.00000000000E+00  0.15065772793E+02  0.15065772793E+02  0.00000000000E+00 0. -1.
         21   -1    0    0  501  502 -0.00000000000E+00 -0.00000000000E+00 -0.12448788383E+04  0.12448788383E+04  0.00000000000E+00 0.  1.
         21    1    1    2  503  502 -0.81223080096E+02  0.78901073500E+02 -0.96921444235E+03  0.97580694987E+03  0.00000000000E+00 0.  1.
         21    1    1    2  504  503  0.81223080096E+02 -0.78901073500E+02 -0.26059862320E+03  0.28413766127E+03  0.00000000000E+00 0. -1.
<mgrwt>
<rscale>  2 0.11323678E+03</rscale>
<asrwt>0</asrwt>
<pdfrwt beam="1">  1       21 0.23178115E-02 0.11323678E+03</pdfrwt>
<pdfrwt beam="2">  1       21 0.19151979E+00 0.11323678E+03</pdfrwt>
<totfact> 0.15408925E+05</totfact>
</mgrwt>
</event>
<event>
 4    1  0.6052129E+003  0.1101097E+03  0.7546771E-02  0.1260367E+00
         21   -1    0    0  503  501  0.00000000000E+00  0.00000000000E+00  0.15909348305E+03  0.15909348305E+03  0.00000000000E+00 0. -1.
         21   -1    0    0  504  502 -0.00000000000E+00 -0.00000000000E+00 -0.80060615352E+02  0.80060615352E+02  0.00000000000E+00 0. -1.
         21    1    1    2  503  502 -0.78017313701E+02  0.77700970655E+02  0.13284195260E+02  0.11090812379E+03  0.00000000000E+00 0. -1.
         21    1    1    2  504  501  0.78017313701E+02 -0.77700970655E+02  0.65748672437E+02  0.12824597462E+03  0.00000000000E+00 0. -1.
<mgrwt>
<rscale>  2 0.11010968E+03</rscale>
<asrwt>0</asrwt>
<pdfrwt beam="1">  1       21 0.24475920E-01 0.11010968E+03</pdfrwt>
<pdfrwt beam="2">  1       21 0.12317018E-01 0.11010968E+03</pdfrwt>
<totfact> 0.88426926E+05</totfact>
</mgrwt>
</event>
<event>
 4    1  0.6052129E+003  0.1072383E+03  0.7546771E-02  0.1265771E+00
         21   -1    0    0  504  501  0.00000000000E+00  0.00000000000E+00  0.24544897071E+03  0.24544897071E+03  0.00000000000E+00 0.  1.
         21   -1    0    0  501  502 -0.00000000000E+00 -0.00000000000E+00 -0.11432820304E+03  0.11432820304E+03  0.00000000000E+00 0.  1.
         21    1    1    2  503  502 -0.12331222267E+02 -0.10652697992E+03 -0.72636595725E+02  0.12952270663E+03  0.00000000000E+00 0.  1.
         21    1    1    2  504  503  0.12331222267E+02  0.10652697992E+03  0.20375736339E+03  0.23025446712E+03  0.00000000000E+00 0.  1.
<mgrwt>
<rscale>  2 0.10723832E+03</rscale>
<asrwt>0</asrwt>
<pdfrwt beam="1">  1       21 0.37761380E-01 0.10723832E+03</pdfrwt>
<pdfrwt beam="2">  1       21 0.17588954E-01 0.10723832E+03</pdfrwt>
<totfact> 0.20284851E+05</totfact>
</mgrwt>
</event>
<event>
 4    1  0.6052129E+003  0.1589876E+03  0.7546771E-02  0.1189845E+00
         21   -1    0    0  504  501  0.00000000000E+00  0.00000000000E+00  0.10943503688E+04  0.10943503688E+04  0.00000000000E+00 0.  1.
         21   -1    0    0  503  502 -0.00000000000E+00 -0.00000000000E+00 -0.34746129267E+02  0.34746129267E+02  0.00000000000E+00 0.  1.
         21    1    1    2  503  501  0.12173027567E+03 -0.10226820796E+03  0.20292814607E+03  0.25779231727E+03  0.00000000000E+00 0.  1.
         21    1    1    2  504  502 -0.12173027567E+03  0.10226820796E+03  0.85667609348E+03  0.87130418082E+03  0.00000000000E+00 0.  1.
<mgrwt>
<rscale>  2 0.15898757E+03</rscale>
<asrwt>0</asrwt>
<pdfrwt beam="1">  1       21 0.16836157E+00 0.15898757E+03</pdfrwt>
<pdfrwt beam="2">  1       21 0.53455592E-02 0.15898757E+03</pdfrwt>
<totfact> 0.53715163E+04</totfact>
</mgrwt>
</event>
<event>
 4    1  0.6052129E+003  0.1414753E+03  0.7546771E-02  0.1211357E+00
         21   -1    0    0  504  501  0.00000000000E+00  0.00000000000E+00  0.54801331531E+03  0.54801331531E+03  0.00000000000E+00 0.  1.
         21   -1    0    0  503  502 -0.00000000000E+00 -0.00000000000E+00 -0.17270583475E+03  0.17270583475E+03  0.00000000000E+00 0. -1.
         21    1    1    2  503  501  0.91995693869E+02 -0.10748053590E+03  0.50764875594E+03  0.52699386401E+03  0.00000000000E+00 0.  1.
         21    1    1    2  504  502 -0.91995693869E+02  0.10748053590E+03 -0.13234127538E+03  0.19372528605E+03  0.00000000000E+00 0. -1.
<mgrwt>
<rscale>  2 0.14147535E+03</rscale>
<asrwt>0</asrwt>
<pdfrwt beam="1">  1       21 0.84309740E-01 0.14147535E+03</pdfrwt>
<pdfrwt beam="2">  1       21 0.26570129E-01 0.14147535E+03</pdfrwt>
<totfact> 0.17030666E+04</totfact>
</mgrwt>
</event>
<event>
 4    1  0.6052129E+003  0.1155731E+03  0.7546771E-02  0.1250584E+00
         21   -1    0    0  504  501  0.00000000000E+00  0.00000000000E+00  0.92712643670E+02  0.92712643670E+02  0.00000000000E+00 0.  1.
         21   -1    0    0  503  502 -0.00000000000E+00 -0.00000000000E+00 -0.15713641941E+03  0.15713641941E+03  0.00000000000E+00 0.  1.
         21    1    1    2  503  501 -0.32888836438E+02 -0.11079469129E+03  0.38113273268E+01  0.11563591741E+03  0.00000000000E+00 0.  1.
         21    1    1    2  504  502  0.32888836438E+02  0.11079469129E+03 -0.68235103069E+02  0.13421314567E+03  0.00000000000E+00 0.  1.
<mgrwt>
<rscale>  2 0.11557309E+03</rscale>
<asrwt>0</asrwt>
<pdfrwt beam="1">  1       21 0.14263484E-01 0.11557309E+03</pdfrwt>
<pdfrwt beam="2">  1       21 0.24174834E-01 0.11557309E+03</pdfrwt>
<totfact> 0.69727894E+05</totfact>
</mgrwt>
</event>
<event>
 4    1  0.6052129E+003  0.1018658E+03  0.7546771E-02  0.1276421E+00
         21   -1    0    0  503  501  0.00000000000E+00  0.00000000000E+00  0.97463455043E+03  0.97463455043E+03  0.00000000000E+00 0. -1.
         21   -1    0    0  504  502 -0.00000000000E+00 -0.00000000000E+00 -0.30744956395E+02  0.30744956395E+02  0.00000000000E+00 0.  1.
         21    1    1    2  503  502 -0.41818366700E+02 -0.92886358060E+02  0.65508789637E+02  0.12111173695E+03  0.00000000000E+00 0.  1.
         21    1    1    2  504  501  0.41818366700E+02  0.92886358060E+02  0.87838080440E+03  0.88426776988E+03  0.00000000000E+00 0. -1.
<mgrwt>
<rscale>  2 0.10186585E+03</rscale>
<asrwt>0</asrwt>
<pdfrwt beam="1">  1       21 0.14994375E+00 0.10186585E+03</pdfrwt>
<pdfrwt beam="2">  1       21 0.47299940E-02 0.10186585E+03</pdfrwt>
<totfact> 0.92908814E+04</totfact>
</mgrwt>
</event>
<event>
 4    1  0.6052129E+003  0.1213069E+03  0.7546771E-02  0.1240956E+00
         21   -1    0    0  504  501  0.00000000000E+00  0.00000000000E+00  0.38099200175E+02  0.38099200175E+02  0.00000000000E+00 0. -1.
         21   -1    0    0  503  502 -0.00000000000E+00 -0.00000000000E+00 -0.42308481744E+03  0.42308481744E+03  0.00000000000E+00 0. -1.
         21    1    1    2  503  501  0.11000991182E+03 -0.51119387166E+02 -0.26054285496E+03  0.28739859379E+03  0.00000000000E+00 0. -1.
         21    1    1    2  504  502 -0.11000991182E+03  0.51119387166E+02 -0.12444276230E+03  0.17378542382E+03  0.00000000000E+00 0. -1.
<mgrwt>
<rscale>  2 0.12130693E+03</rscale>
<asrwt>0</asrwt>
<pdfrwt beam="1">  1       21 0.58614151E-02 0.12130693E+03</pdfrwt>
<pdfrwt beam="2">  1       21 0.65089975E-01 0.12130693E+03</pdfrwt>
<totfact> 0.45104605E+05</totfact>
</mgrwt>
</event>
<event>
 4    1  0.6052129E+003  0.1048829E+03  0.7546771E-02  0.1270350E+00
         21   -1    0    0  503  501  0.00000000000E+00  0.00000000000E+00  0.36931739432E+02  0.36931739432E+02  0.00000000000E+00 0. -1.
         21   -1    0    0  504  502 -0.00000000000E+00 -0.00000000000E+00 -0.32018537598E+03  0.32018537598E+03  0.00000000000E+00 0. -1.
         21    1    1    2  503  502 -0.10453598589E+03 -0.85238659763E+01 -0.94475382361E+02  0.14115957817E+03  0.00000000000E+00 0. -1.
         21    1    1    2  504  501  0.10453598589E+03  0.85238659763E+01 -0.18877825419E+03  0.21595753724E+03  0.00000000000E+00 0. -1.
<mgrwt>
<rscale>  2 0.10488293E+03</rscale>
<asrwt>0</asrwt>
<pdfrwt beam="1">  1       21 0.56818063E-02 0.10488293E+03</pdfrwt>
<pdfrwt beam="2">  1       21 0.49259286E-01 0.10488293E+03</pdfrwt>
<totfact> 0.85296171E+05</totfact>
</mgrwt>
</event>
<event>
 4    1  0.6052129E+003  0.1097321E+03  0.7546771E-02  0.1261067E+00
         21   -1    0    0  504  501  0.00000000000E+00  0.00000000000E+00  0.42605090367E+02  0.42605090367E+02  0.00000000000E+00 0.  1.
         21   -1    0    0  503  502 -0.00000000000E+00 -0.00000000000E+00 -0.55596502433E+03  0.55596502433E+03  0.00000000000E+00 0.  1.
         21    1    1    2  503  501 -0.47499319067E+02  0.98918949090E+02 -0.46653295041E+03  0.47926416267E+03  0.00000000000E+00 0.  1.
         21    1    1    2  504  502  0.47499319067E+02 -0.98918949090E+02 -0.46826983554E+02  0.11930595203E+03  0.00000000000E+00 0.  1.
<mgrwt>
<rscale>  2 0.10973215E+03</rscale>
<asrwt>0</asrwt>
<pdfrwt beam="1">  1       21 0.65546294E-02 0.10973215E+03</pdfrwt>
<pdfrwt beam="2">  1       21 0.85533080E-01 0.10973215E+03</pdfrwt>
<totfact> 0.20523367E+05</totfact>
</mgrwt>
</event>
<event>
 4    1  0.6052129E+003  0.1526208E+03  0.7546771E-02  0.1197289E+00
         21   -1    0    0  503  501  0.00000000000E+00  0.00000000000E+00  0.11081729101E+03  0.11081729101E+03  0.00000000000E+00 0. -1.
         21   -1    0    0  501  502 -0.00000000000E+00 -0.00000000000E+00 -0.21020527112E+03  0.21020527112E+03  0.00000000000E+00 0. -1.
         21    1    1    2  503  504  0.10840247983E+03  0.10743380774E+03 -0.50873561352E+02  0.16087647411E+03  0.00000000000E+00 0. -1.
         21    1    1    2  504  502 -0.10840247983E+03 -0.10743380774E+03 -0.48514418765E+02  0.16014608802E+03  0.00000000000E+00 0. -1.
<mgrwt>
<rscale>  2 0.15262084E+03</rscale>
<asrwt>0</asrwt>
<pdfrwt beam="1">  1       21 0.17048814E-01 0.15262084E+03</pdfrwt>
<pdfrwt beam="2">  1       21 0.32339272E-01 0.15262084E+03</pdfrwt>
<totfact> 0.28814859E+05</totfact>
</mgrwt>
</event>
<event>
 4    1  0.6052129E+003  0.1096390E+03  0.7546771E-02  0.1261240E+00
         21   -1    0    0  504  501  0.00000000000E+00  0.00000000000E+00  0.83608934391E+02  0.83608934391E+02  0.00000000000E+00 0. -1.
         21   -1    0    0  501  502 -0.00000000000E+00 -0.00000000000E+00 -0.61619241273E+03  0.61619241273E+03  0.00000000000E+00 0. -1.
         21    1    1    2  503  502 -0.76990480426E+02 -0.78058864966E+02 -0.57266467671E+03  0.58306565019E+03  0.00000000000E+00 0. -1.
         21    1    1    2  504  503  0.76990480426E+02  0.78058864966E+02  0.40081198370E+02  0.11673569693E+03  0.00000000000E+00 0. -1.
<mgrwt>
<rscale>  2 0.10963905E+03</rscale>
<asrwt>0</asrwt>
<pdfrwt beam="1">  1       21 0.12862913E-01 0.10963905E+03</pdfrwt>
<pdfrwt beam="2">  1       21 0.94798831E-01 0.10963905E+03</pdfrwt>
<totfact> 0.50490156E+04</totfact>
</mgrwt>
</event>
<event>
 4    1  0.6052129E+003  0.1050493E+03  0.7546771E-02  0.1270023E+00
         21   -1    0    0  503  501  0.00000000000E+00  0.00000000000E+00  0.58567222595E+03  0.58567222595E+03  0.00000000000E+00 0.  1.
         21   -1    0    0  504  502 -0.00000000000E+00 -0.00000000000E+00 -0.22981790561E+02  0.22981790561E+02  0.00000000000E+00 0.  1.
         21    1    1    2  503  502  0.85566903224E+02 -0.60939809305E+02  0.41050493149E+03  0.42373299856E+03  0.00000000000E+00 0.  1.
         21    1    1    2  504  501 -0.85566903224E+02  0.60939809305E+02  0.15218550390E+03  0.18492101796E+03  0.00000000000E+00 0.  1.
<mgrwt>
<rscale>  2 0.10504930E+03</rscale>
<asrwt>0</asrwt>
<pdfrwt beam="1">  1       21 0.90103408E-01 0.10504930E+03</pdfrwt>
<pdfrwt beam="2">  1       21 0.35356605E-02 0.10504930E+03</pdfrwt>
<totfact> 0.51169131E+05</totfact>
</mgrwt>
</event>
<event>
 4    1  0.6052129E+003  0.1346414E+03  0.7546771E-02  0.1220727E+00
         21   -1    0    0  502  501  0.00000000000E+00  0.00000000000E+00  0.36113586506E+03  0.36113586506E+03  0.00000000000E+00 0. -1.
         21   -1    0    0  504  502 -0.00000000000E+00 -0.00000000000E+00 -0.60445231423E+02  0.60445231423E+02  0.00000000000E+00 0. -1.
         21    1    1    2  503  501 -0.23718601892E+02 -0.13253579521E+03  0.23713592699E+03  0.27269352203E+03  0.00000000000E+00 0. -1.
         21    1    1    2  504  503  0.23718601892E+02  0.13253579521E+03  0.63554706647E+02  0.14888757445E+03  0.00000000000E+00 0. -1.
<mgrwt>
<rscale>  2 0.13464141E+03</rscale>
<asrwt>0</asrwt>
<pdfrwt beam="1">  1       21 0.55559363E-01 0.13464141E+03</pdfrwt>
<pdfrwt beam="2">  1       21 0.92992666E-02 0.13464141E+03</pdfrwt>
<totfact> 0.28535915E+05</totfact>
</mgrwt>
</event>
<event>
 4    1  0.6052129E+003  0.1105908E+03  0.7546771E-02  0.1259480E+00
         21   -1    0    0  502  501  0.00000000000E+00  0.00000000000E+00  0.25556265232E+04  0.25556265232E+04  0.00000000000E+00 0. -1.
         21   -1    0    0  503  502 -0.00000000000E+00 -0.00000000000E+00 -0.10855398143E+02  0.10855398143E+02  0.00000000000E+00 0.  1.
         21    1    1    2  503  504 -0.72431246259E+02  0.83570513569E+02  0.31282824568E+03  0.33180088528E+03  0.00000000000E+00 0.  1.
         21    1    1    2  504  501  0.72431246259E+02 -0.83570513569E+02  0.22319428794E+04  0.22346810361E+04  0.00000000000E+00 0. -1.
<mgrwt>
<rscale>  2 0.11059076E+03</rscale>
<asrwt>0</asrwt>
<pdfrwt beam="1">  1       21 0.39317283E+00 0.11059076E+03</pdfrwt>
<pdfrwt beam="2">  1       21 0.16700633E-02 0.11059076E+03</pdfrwt>
<totfact> 0.17976765E+04</totfact>
</mgrwt>
</event>
<event>
 4    1  0.6052129E+003  0.1265786E+03  0.7546771E-02  0.1232623E+00
         21   -1    0    0  503  501  0.00000000000E+00  0.00000000000E+00  0.31140303319E+02  0.31140303319E+02  0.00000000000E+00 0. -1.
         21   -1    0    0  501  502 -0.00000000000E+00 -0.00000000000E+00 -0.77010237814E+03  0.77010237814E+03  0.00000000000E+00 0. -1.
         21    1    1    2  503  504 -0.12511767799E+03 -0.19175859980E+02 -0.13868427159E+03  0.18776441126E+03  0.00000000000E+00 0. -1.
         21    1    1    2  504  502  0.12511767799E+03  0.19175859980E+02 -0.60027780323E+03  0.61347827020E+03  0.00000000000E+00 0. -1.
<mgrwt>
<rscale>  2 0.12657862E+03</rscale>
<asrwt>0</asrwt>
<pdfrwt beam="1">  1       21 0.47908159E-02 0.12657862E+03</pdfrwt>
<pdfrwt beam="2">  1       21 0.11847729E+00 0.12657862E+03</pdfrwt>
<totfact> 0.16160267E+05</totfact>
</mgrwt>
</event>
<event>
 4    1  0.6052129E+003  0.1335745E+03  0.7546771E-02  0.1222246E+00
         21   -1    0    0  502  501  0.00000000000E+00  0.00000000000E+00  0.64724933438E+03  0.64724933438E+03  0.00000000000E+00 0.  1.
         21   -1    0    0  504  502 -0.00000000000E+00 -0.00000000000E+00 -0.99119470775E+02  0.99119470775E+02  0.00000000000E+00 0.  1.
         21    1    1    2  503  501  0.95055743854E+02  0.93843279479E+02  0.59113772023E+03  0.60604121957E+03  0.00000000000E+00 0.  1.
         21    1    1    2  504  503 -0.95055743854E+02 -0.93843279479E+02 -0.43007856627E+02  0.14032758558E+03  0.00000000000E+00 0.  1.
<mgrwt>
<rscale>  2 0.13357453E+03</rscale>
<asrwt>0</asrwt>
<pdfrwt beam="1">  1       21 0.99576818E-01 0.13357453E+03</pdfrwt>
<pdfrwt beam="2">  1       21 0.15249150E-01 0.13357453E+03</pdfrwt>
<totfact> 0.32693641E+04</totfact>
</mgrwt>
</event>
<event>
 4    1  0.6052129E+003  0.1204910E+03  0.7546771E-02  0.1242289E+00
         21   -1    0    0  504  501  0.00000000000E+00  0.00000000000E+00  0.18422484908E+03  0.18422484908E+03  0.00000000000E+00 0.  1.
         21   -1    0    0  503  502 -0.00000000000E+00 -0.00000000000E+00 -0.78809773445E+02  0.78809773445E+02  0.00000000000E+00 0.  1.
         21    1    1    2  503  501 -0.12152745343E+02 -0.11987652066E+03  0.51828098640E+02  0.13116486280E+03  0.00000000000E+00 0.  1.
         21    1    1    2  504  502  0.12152745343E+02  0.11987652066E+03  0.53586976996E+02  0.13186975972E+03  0.00000000000E+00 0.  1.
<mgrwt>
<rscale>  2 0.12049095E+03</rscale>
<asrwt>0</asrwt>
<pdfrwt beam="1">  1       21 0.28342284E-01 0.12049095E+03</pdfrwt>
<pdfrwt beam="2">  1       21 0.12124581E-01 0.12049095E+03</pdfrwt>
<totfact> 0.68886766E+05</totfact>
</mgrwt>
</event>
<event>
 4    1  0.6052129E+003  0.1018147E+03  0.7546771E-02  0.1276526E+00
         21   -1    0    0  504  501  0.00000000000E+00  0.00000000000E+00  0.10022566310E+03  0.10022566310E+03  0.00000000000E+00 0.  1.
         21   -1    0    0  503  502 -0.00000000000E+00 -0.00000000000E+00 -0.14207031825E+04  0.14207031825E+04  0.00000000000E+00 0.  1.
         21    1    1    2  503  501  0.77392149027E+02  0.66156496399E+02  0.72021282671E+02  0.12471283777E+03  0.00000000000E+00 0.  1.
         21    1    1    2  504  502 -0.77392149027E+02 -0.66156496399E+02 -0.13924988021E+04  0.13962160078E+04  0.00000000000E+00 0.  1.
<mgrwt>
<rscale>  2 0.10181467E+03</rscale>
<asrwt>0</asrwt>
<pdfrwt beam="1">  1       21 0.15419334E-01 0.10181467E+03</pdfrwt>
<pdfrwt beam="2">  1       21 0.21856970E+00 0.10181467E+03</pdfrwt>
<totfact> 0.42983347E+03</totfact>
</mgrwt>
</event>
<event>
 4    1  0.6052129E+003  0.1240976E+03  0.7546771E-02  0.1236486E+00
         21   -1    0    0  502  501  0.00000000000E+00  0.00000000000E+00  0.40192315227E+03  0.40192315227E+03  0.00000000000E+00 0. -1.
         21   -1    0    0  504  502 -0.00000000000E+00 -0.00000000000E+00 -0.70882789179E+02  0.70882789179E+02  0.00000000000E+00 0. -1.
         21    1    1    2  503  501 -0.40060909159E+02 -0.11745360512E+03  0.32575899030E+03  0.34859596320E+03  0.00000000000E+00 0. -1.
         21    1    1    2  504  503  0.40060909159E+02  0.11745360512E+03  0.52813727937E+01  0.12420997825E+03  0.00000000000E+00 0. -1.
<mgrwt>
<rscale>  2 0.12409765E+03</rscale>
<asrwt>0</asrwt>
<pdfrwt beam="1">  1       21 0.61834330E-01 0.12409765E+03</pdfrwt>
<pdfrwt beam="2">  1       21 0.10905045E-01 0.12409765E+03</pdfrwt>
<totfact> 0.17264097E+05</totfact>
</mgrwt>
</event>
<event>
 4    1  0.6052129E+003  0.1168572E+03  0.7546771E-02  0.1248374E+00
         21   -1    0    0  504  501  0.00000000000E+00  0.00000000000E+00  0.15038639434E+03  0.15038639434E+03  0.00000000000E+00 0. -1.
         21   -1    0    0  501  502 -0.00000000000E+00 -0.00000000000E+00 -0.91803811232E+02  0.91803811232E+02  0.00000000000E+00 0. -1.
         21    1    1    2  503  502 -0.47518581571E+02  0.10675953142E+03  0.16650896644E+02  0.11803755971E+03  0.00000000000E+00 0. -1.
         21    1    1    2  504  503  0.47518581571E+02 -0.10675953142E+03  0.41931686460E+02  0.12415264586E+03  0.00000000000E+00 0. -1.
<mgrwt>
<rscale>  2 0.11685723E+03</rscale>
<asrwt>0</asrwt>
<pdfrwt beam="1">  1       21 0.23136368E-01 0.11685723E+03</pdfrwt>
<pdfrwt beam="2">  1       21 0.14123663E-01 0.11685723E+03</pdfrwt>
<totfact> 0.77055726E+05</totfact>
</mgrwt>
</event>
<event>
 4    1  0.6052129E+003  0.1283683E+03  0.7546771E-02  0.1229897E+00
         21   -1    0    0  503  501  0.00000000000E+00  0.00000000000E+00  0.75029774741E+02  0.75029774741E+02  0.00000000000E+00 0.  1.
         21   -1    0    0  504  502 -0.00000000000E+00 -0.00000000000E+00 -0.21975740634E+03  0.21975740634E+03  0.00000000000E+00 0.  1.
         21    1    1    2  503  502 -0.10631522454E+03 -0.71940842071E+02 -0.75982219199E+02  0.14917006858E+03  0.00000000000E+00 0.  1.
         21    1    1    2  504  501  0.10631522454E+03  0.71940842071E+02 -0.68745412402E+02  0.14561711250E+03  0.00000000000E+00 0.  1.
<mgrwt>
<rscale>  2 0.12836827E+03</rscale>
<asrwt>0</asrwt>
<pdfrwt beam="1">  1       21 0.11543042E-01 0.12836827E+03</pdfrwt>
<pdfrwt beam="2">  1       21 0.33808831E-01 0.12836827E+03</pdfrwt>
<totfact> 0.53412237E+05</totfact>
</mgrwt>
</event>
<event>
 4    1  0.6052129E+003  0.1286559E+03  0.7546771E-02  0.1229464E+00
         21   -1    0    0  504  501  0.00000000000E+00  0.00000000000E+00  0.20405207457E+02  0.20405207457E+02  0.00000000000E+00 0.  1.
         21   -1    0    0  503  502 -0.00000000000E+00 -0.00000000000E+00 -0.81144878365E+03  0.81144878365E+03  0.00000000000E+00 0. -1.
         21    1    1    2  503  501 -0.12619784949E+03 -0.25028850141E+02 -0.38798260833E+03  0.40875768485E+03  0.00000000000E+00 0. -1.
         21    1    1    2  504  502  0.12619784949E+03  0.25028850141E+02 -0.40306096787E+03  0.42309630626E+03  0.00000000000E+00 0.  1.
<mgrwt>
<rscale>  2 0.12865590E+03</rscale>
<asrwt>0</asrwt>
<pdfrwt beam="1">  1       21 0.31392634E-02 0.12865590E+03</pdfrwt>
<pdfrwt beam="2">  1       21 0.12483824E+00 0.12865590E+03</pdfrwt>
<totfact> 0.28638121E+05</totfact>
</mgrwt>
</event>
<event>
 4    1  0.6052129E+003  0.1821983E+03  0.7546771E-02  0.1165692E+00
         21   -1    0    0  503  501  0.00000000000E+00  0.00000000000E+00  0.10992498756E+03  0.10992498756E+03  0.00000000000E+00 0. -1.
         21   -1    0    0  504  502 -0.00000000000E+00 -0.00000000000E+00 -0.30456754924E+03  0.30456754924E+03  0.00000000000E+00 0. -1.
         21    1    1    2  503  502 -0.15809023036E+03 -0.90574326644E+02 -0.78255186589E+02  0.19829297468E+03  0.00000000000E+00 0. -1.
         21    1    1    2  504  501  0.15809023036E+03  0.90574326644E+02 -0.11638737509E+03  0.21619956212E+03  0.00000000000E+00 0. -1.
<mgrwt>
<rscale>  2 0.18219832E+03</rscale>
<asrwt>0</asrwt>
<pdfrwt beam="1">  1       21 0.16911537E-01 0.18219832E+03</pdfrwt>
<pdfrwt beam="2">  1       21 0.46856545E-01 0.18219832E+03</pdfrwt>
<totfact> 0.13781424E+05</totfact>
</mgrwt>
</event>
<event>
 4    1  0.6052129E+003  0.1208513E+03  0.7546771E-02  0.1241699E+00
         21   -1    0    0  504  501  0.00000000000E+00  0.00000000000E+00  0.92077181862E+03  0.92077181862E+03  0.00000000000E+00 0.  1.
         21   -1    0    0  503  502 -0.00000000000E+00 -0.00000000000E+00 -0.15689284773E+03  0.15689284773E+03  0.00000000000E+00 0.  1.
         21    1    1    2  503  501 -0.78386054023E+02  0.91981894641E+02 -0.12892949683E+03  0.17671405592E+03  0.00000000000E+00 0.  1.
         21    1    1    2  504  502  0.78386054023E+02 -0.91981894641E+02  0.89280846772E+03  0.90095061044E+03  0.00000000000E+00 0.  1.
<mgrwt>
<rscale>  2 0.12085132E+03</rscale>
<asrwt>0</asrwt>
<pdfrwt beam="1">  1       21 0.14165720E+00 0.12085132E+03</pdfrwt>
<pdfrwt beam="2">  1       21 0.24137362E-01 0.12085132E+03</pdfrwt>
<totfact> 0.60165124E+03</totfact>
</mgrwt>
</event>
<event>
 4    1  0.6052129E+003  0.1189328E+03  0.7546771E-02  0.1244868E+00
         21   -1    0    0  504  501  0.00000000000E+00  0.00000000000E+00  0.24079512330E+02  0.24079512330E+02  0.00000000000E+00 0. -1.
         21   -1    0    0  503  502 -0.00000000000E+00 -0.00000000000E+00 -0.78485397799E+03  0.78485397799E+03  0.00000000000E+00 0. -1.
         21    1    1    2  503  501 -0.84577829682E+02  0.83615835727E+02 -0.58324368462E+03  0.59524634641E+03  0.00000000000E+00 0. -1.
         21    1    1    2  504  502  0.84577829682E+02 -0.83615835727E+02 -0.17753078104E+03  0.21368714391E+03  0.00000000000E+00 0. -1.
<mgrwt>
<rscale>  2 0.11893283E+03</rscale>
<asrwt>0</asrwt>
<pdfrwt beam="1">  1       21 0.37045406E-02 0.11893283E+03</pdfrwt>
<pdfrwt beam="2">  1       21 0.12074676E+00 0.11893283E+03</pdfrwt>
<totfact> 0.23731637E+05</totfact>
</mgrwt>
</event>
<event>
 4    1  0.6052129E+003  0.2122636E+03  0.7546771E-02  0.1139786E+00
         21   -1    0    0  503  501  0.00000000000E+00  0.00000000000E+00  0.20927973390E+03  0.20927973390E+03  0.00000000000E+00 0. -1.
         21   -1    0    0  504  502 -0.00000000000E+00 -0.00000000000E+00 -0.97360426803E+03  0.97360426803E+03  0.00000000000E+00 0.  1.
         21    1    1    2  503  502  0.21086014728E+03 -0.24368593941E+02 -0.90413227203E+03  0.92871470076E+03  0.00000000000E+00 0.  1.
         21    1    1    2  504  501 -0.21086014728E+03  0.24368593941E+02  0.13980773789E+03  0.25416930117E+03  0.00000000000E+00 0. -1.
<mgrwt>
<rscale>  2 0.21226359E+03</rscale>
<asrwt>0</asrwt>
<pdfrwt beam="1">  1       21 0.32196882E-01 0.21226359E+03</pdfrwt>
<pdfrwt beam="2">  1       21 0.14978527E+00 0.21226359E+03</pdfrwt>
<totfact> 0.27357955E+03</totfact>
</mgrwt>
</event>
<event>
 4    1  0.6052129E+003  0.1019523E+03  0.7546771E-02  0.1276243E+00
         21   -1    0    0  504  501  0.00000000000E+00  0.00000000000E+00  0.13375250223E+02  0.13375250223E+02  0.00000000000E+00 0.  1.
         21   -1    0    0  503  502 -0.00000000000E+00 -0.00000000000E+00 -0.86520341683E+03  0.86520341683E+03  0.00000000000E+00 0.  1.
         21    1    1    2  503  501  0.72322127490E+02 -0.71859442755E+02 -0.56607311134E+03  0.57518087331E+03  0.00000000000E+00 0.  1.
         21    1    1    2  504  502 -0.72322127490E+02  0.71859442755E+02 -0.28575505526E+03  0.30339779374E+03  0.00000000000E+00 0.  1.
<mgrwt>
<rscale>  2 0.10195229E+03</rscale>
<asrwt>0</asrwt>
<pdfrwt beam="1">  1       21 0.20577306E-02 0.10195229E+03</pdfrwt>
<pdfrwt beam="2">  1       21 0.13310823E+00 0.10195229E+03</pdfrwt>
<totfact> 0.48882180E+05</totfact>
</mgrwt>
</event>
<event>
 4    1  0.6052129E+003  0.1147210E+03  0.7546771E-02  0.1252069E+00
         21   -1    0    0  502  501  0.00000000000E+00  0.00000000000E+00  0.82132221421E+02  0.82132221421E+02  0.00000000000E+00 0. -1.
         21   -1    0    0  504  502 -0.00000000000E+00 -0.00000000000E+00 -0.18326018488E+03  0.18326018488E+03  0.00000000000E+00 0. -1.
         21    1    1    2  503  501 -0.51876925404E+02 -0.10232154833E+03 -0.35341541379E+01  0.11477545420E+03  0.00000000000E+00 0. -1.
         21    1    1    2  504  503  0.51876925404E+02  0.10232154833E+03 -0.97593809320E+02  0.15061695210E+03  0.00000000000E+00 0. -1.
<mgrwt>
<rscale>  2 0.11472103E+03</rscale>
<asrwt>0</asrwt>
<pdfrwt beam="1">  1       21 0.12635727E-01 0.11472103E+03</pdfrwt>
<pdfrwt beam="2">  1       21 0.28193874E-01 0.11472103E+03</pdfrwt>
<totfact> 0.64675988E+05</totfact>
</mgrwt>
</event>
<event>
 4    1  0.6052129E+003  0.1022603E+03  0.7546771E-02  0.1275613E+00
         21   -1    0    0  502  501  0.00000000000E+00  0.00000000000E+00  0.13969102940E+03  0.13969102940E+03  0.00000000000E+00 0. -1.
         21   -1    0    0  504  502 -0.00000000000E+00 -0.00000000000E+00 -0.56226546383E+03  0.56226546383E+03  0.00000000000E+00 0. -1.
         21    1    1    2  503  501  0.10001270446E+03 -0.21321969726E+02  0.11549244609E+03  0.15425846023E+03  0.00000000000E+00 0. -1.
         21    1    1    2  504  503 -0.10001270446E+03  0.21321969726E+02 -0.53806688052E+03  0.54769803300E+03  0.00000000000E+00 0. -1.
<mgrwt>
<rscale>  2 0.10226029E+03</rscale>
<asrwt>0</asrwt>
<pdfrwt beam="1">  1       21 0.21490928E-01 0.10226029E+03</pdfrwt>
<pdfrwt beam="2">  1       21 0.86502378E-01 0.10226029E+03</pdfrwt>
<totfact> 0.24705593E+04</totfact>
</mgrwt>
</event>
<event>
 4    1  0.6052129E+003  0.1365546E+03  0.7546771E-02  0.1218042E+00
         21   -1    0    0  504  501  0.00000000000E+00  0.00000000000E+00  0.56395468140E+03  0.56395468140E+03  0.00000000000E+00 0.  1.
         21   -1    0    0  503  502 -0.00000000000E+00 -0.00000000000E+00 -0.64736414842E+02  0.64736414842E+02  0.00000000000E+00 0.  1.
         21    1    1    2  503  501  0.11392530294E+03 -0.75287342051E+02  0.46947953056E+03  0.48893577097E+03  0.00000000000E+00 0.  1.
         21    1    1    2  504  502 -0.11392530294E+03  0.75287342051E+02  0.29738736006E+02  0.13975532527E+03  0.00000000000E+00 0.  1.
<mgrwt>
<rscale>  2 0.13655460E+03</rscale>
<asrwt>0</asrwt>
<pdfrwt beam="1">  1       21 0.86762256E-01 0.13655460E+03</pdfrwt>
<pdfrwt beam="2">  1       21 0.99594488E-02 0.13655460E+03</pdfrwt>
<totfact> 0.95637168E+04</totfact>
</mgrwt>
</event>
<event>
 4    1  0.6052129E+003  0.1242273E+03  0.7546771E-02  0.1236282E+00
         21   -1    0    0  504  501  0.00000000000E+00  0.00000000000E+00  0.33110978339E+02  0.33110978339E+02  0.00000000000E+00 0.  1.
         21   -1    0    0  501  502 -0.00000000000E+00 -0.00000000000E+00 -0.10805668244E+04  0.10805668244E+04  0.00000000000E+00 0.  1.
         21    1    1    2  503  502  0.16418226425E+02  0.12313753839E+03 -0.94364113756E+03  0.95178306772E+03  0.00000000000E+00 0.  1.
         21    1    1    2  504  503 -0.16418226425E+02 -0.12313753839E+03 -0.10381470847E+03  0.16189473498E+03  0.00000000000E+00 0.  1.
<mgrwt>
<rscale>  2 0.12422726E+03</rscale>
<asrwt>0</asrwt>
<pdfrwt beam="1">  1       21 0.50939974E-02 0.12422726E+03</pdfrwt>
<pdfrwt beam="2">  1       21 0.16624103E+00 0.12422726E+03</pdfrwt>
<totfact> 0.61662089E+04</totfact>
</mgrwt>
</event>
<event>
 4    1  0.6052129E+003  0.1057253E+03  0.7546771E-02  0.1268697E+00
         21   -1    0    0  502  501  0.00000000000E+00  0.00000000000E+00  0.71821748717E+03  0.71821748717E+03  0.00000000000E+00 0. -1.
         21   -1    0    0  503  502 -0.00000000000E+00 -0.00000000000E+00 -0.22118017945E+02  0.22118017945E+02  0.00000000000E+00 0. -1.
         21    1    1    2  503  504 -0.82528405411E+02  0.66082565920E+02  0.14653719879E+03  0.18069586007E+03  0.00000000000E+00 0. -1.
         21    1    1    2  504  501  0.82528405411E+02 -0.66082565920E+02  0.54956227043E+03  0.55963964504E+03  0.00000000000E+00 0. -1.
<mgrwt>
<rscale>  2 0.10572532E+03</rscale>
<asrwt>0</asrwt>
<pdfrwt beam="1">  1       21 0.11049498E+00 0.10572532E+03</pdfrwt>
<pdfrwt beam="2">  1       21 0.34027726E-02 0.10572532E+03</pdfrwt>
<totfact> 0.33908621E+05</totfact>
</mgrwt>
</event>
<event>
 4    1  0.6052129E+003  0.1216315E+03  0.7546771E-02  0.1240430E+00
         21   -1    0    0  503  501  0.00000000000E+00  0.00000000000E+00  0.29649304442E+03  0.29649304442E+03  0.00000000000E+00 0.  1.
         21   -1    0    0  504  502 -0.00000000000E+00 -0.00000000000E+00 -0.75283375311E+02  0.75283375311E+02  0.00000000000E+00 0.  1.
         21    1    1    2  503  502  0.99893682548E+02  0.69393660641E+02  0.26606254997E+01  0.12166062172E+03  0.00000000000E+00 0.  1.
         21    1    1    2  504  501 -0.99893682548E+02 -0.69393660641E+02  0.21854904361E+03  0.25011579801E+03  0.00000000000E+00 0.  1.
<mgrwt>
<rscale>  2 0.12163153E+03</rscale>
<asrwt>0</asrwt>
<pdfrwt beam="1">  1       21 0.45614314E-01 0.12163153E+03</pdfrwt>
<pdfrwt beam="2">  1       21 0.11582058E-01 0.12163153E+03</pdfrwt>
<totfact> 0.29254798E+05</totfact>
</mgrwt>
</event>
<event>
 4    1  0.6052129E+003  0.1132058E+03  0.7546771E-02  0.1254746E+00
         21   -1    0    0  502  501  0.00000000000E+00  0.00000000000E+00  0.90585554758E+03  0.90585554758E+03  0.00000000000E+00 0.  1.
         21   -1    0    0  503  502 -0.00000000000E+00 -0.00000000000E+00 -0.23788176959E+02  0.23788176959E+02  0.00000000000E+00 0.  1.
         21    1    1    2  503  504 -0.14095980798E+02 -0.11232475369E+03  0.14512287228E+03  0.18405486961E+03  0.00000000000E+00 0.  1.
         21    1    1    2  504  501  0.14095980798E+02  0.11232475369E+03  0.73694449834E+03  0.74558885493E+03  0.00000000000E+00 0.  1.
<mgrwt>
<rscale>  2 0.11320577E+03</rscale>
<asrwt>0</asrwt>
<pdfrwt beam="1">  1       21 0.13936237E+00 0.11320577E+03</pdfrwt>
<pdfrwt beam="2">  1       21 0.36597202E-02 0.11320577E+03</pdfrwt>
<totfact> 0.17011585E+05</totfact>
</mgrwt>
</event>
<event>
 4    1  0.6052129E+003  0.1147426E+03  0.7546771E-02  0.1252031E+00
         21   -1    0    0  502  501  0.00000000000E+00  0.00000000000E+00  0.18009368341E+03  0.18009368341E+03  0.00000000000E+00 0. -1.
         21   -1    0    0  504  502 -0.00000000000E+00 -0.00000000000E+00 -0.14609061933E+03  0.14609061933E+03  0.00000000000E+00 0.  1.
         21    1    1    2  503  501 -0.10999986251E+03 -0.32648027467E+02  0.13227746612E+03  0.17510908456E+03  0.00000000000E+00 0. -1.
         21    1    1    2  504  503  0.10999986251E+03  0.32648027467E+02 -0.98274402044E+02  0.15107521818E+03  0.00000000000E+00 0.  1.
<mgrwt>
<rscale>  2 0.11474260E+03</rscale>
<asrwt>0</asrwt>
<pdfrwt beam="1">  1       21 0.27706720E-01 0.11474260E+03</pdfrwt>
<pdfrwt beam="2">  1       21 0.22475480E-01 0.11474260E+03</pdfrwt>
<totfact> 0.23495965E+05</totfact>
</mgrwt>
</event>
<event>
 4    1  0.6052129E+003  0.1329828E+03  0.7546771E-02  0.1223096E+00
         21   -1    0    0  504  501  0.00000000000E+00  0.00000000000E+00  0.26605923219E+03  0.26605923219E+03  0.00000000000E+00 0.  1.
         21   -1    0    0  503  502 -0.00000000000E+00 -0.00000000000E+00 -0.14413527977E+03  0.14413527977E+03  0.00000000000E+00 0. -1.
         21    1    1    2  503  501 -0.89244508308E+02  0.98589307055E+02 -0.89592495148E+02  0.16034727598E+03  0.00000000000E+00 0. -1.
         21    1    1    2  504  502  0.89244508308E+02 -0.98589307055E+02  0.21151644757E+03  0.24984723597E+03  0.00000000000E+00 0.  1.
<mgrwt>
<rscale>  2 0.13298283E+03</rscale>
<asrwt>0</asrwt>
<pdfrwt beam="1">  1       21 0.40932189E-01 0.13298283E+03</pdfrwt>
<pdfrwt beam="2">  1       21 0.22174659E-01 0.13298283E+03</pdfrwt>
<totfact> 0.11176025E+05</totfact>
</mgrwt>
</event>
<event>
 4    1  0.6052129E+003  0.1161563E+03  0.7546771E-02  0.1249576E+00
         21   -1    0    0  504  501  0.00000000000E+00  0.00000000000E+00  0.11905060176E+02  0.11905060176E+02  0.00000000000E+00 0.  1.
         21   -1    0    0  503  502 -0.00000000000E+00 -0.00000000000E+00 -0.11953392193E+04  0.11953392193E+04  0.00000000000E+00 0.  1.
         21    1    1    2  503  501 -0.73867722687E+02  0.89642883976E+02 -0.45422752868E+03  0.46884425443E+03  0.00000000000E+00 0.  1.
         21    1    1    2  504  502  0.73867722687E+02 -0.89642883976E+02 -0.72920663043E+03  0.73840002503E+03  0.00000000000E+00 0.  1.
<mgrwt>
<rscale>  2 0.11615630E+03</rscale>
<asrwt>0</asrwt>
<pdfrwt beam="1">  1       21 0.18315477E-02 0.11615630E+03</pdfrwt>
<pdfrwt beam="2">  1       21 0.18389834E+00 0.11615630E+03</pdfrwt>
<totfact> 0.25180395E+05</totfact>
</mgrwt>
</event>
<event>
 4    1  0.6052129E+003  0.1488077E+03  0.7546771E-02  0.1201946E+00
         21   -1    0    0  502  501  0.00000000000E+00  0.00000000000E+00  0.12615965400E+03  0.12615965400E+03  0.00000000000E+00 0.  1.
         21   -1    0    0  504  502 -0.00000000000E+00 -0.00000000000E+00 -0.18699201221E+03  0.18699201221E+03  0.00000000000E+00 0.  1.
         21    1    1    2  503  501 -0.13739064735E+03 -0.57162501960E+02  0.83634029007E+01  0.14904257150E+03  0.00000000000E+00 0.  1.
         21    1    1    2  504  503  0.13739064735E+03  0.57162501960E+02 -0.69195761112E+02  0.16410909471E+03  0.00000000000E+00 0.  1.
<mgrwt>
<rscale>  2 0.14880773E+03</rscale>
<asrwt>0</asrwt>
<pdfrwt beam="1">  1       21 0.19409178E-01 0.14880773E+03</pdfrwt>
<pdfrwt beam="2">  1       21 0.28768002E-01 0.14880773E+03</pdfrwt>
<totfact> 0.28505448E+05</totfact>
</mgrwt>
</event>
<event>
 4    1  0.6052129E+003  0.1364547E+03  0.7546771E-02  0.1218181E+00
         21   -1    0    0  502  501  0.00000000000E+00  0.00000000000E+00  0.96614858243E+03  0.96614858243E+03  0.00000000000E+00 0.  1.
         21   -1    0    0  504  502 -0.00000000000E+00 -0.00000000000E+00 -0.13619177259E+03  0.13619177259E+03  0.00000000000E+00 0.  1.
         21    1    1    2  503  501  0.83646614442E+02 -0.10781064228E+03  0.92566413965E+03  0.93566767077E+03  0.00000000000E+00 0.  1.
         21    1    1    2  504  503 -0.83646614442E+02  0.10781064228E+03 -0.95707329807E+02  0.16667268425E+03  0.00000000000E+00 0.  1.
<mgrwt>
<rscale>  2 0.13645472E+03</rscale>
<asrwt>0</asrwt>
<pdfrwt beam="1">  1       21 0.14863824E+00 0.13645472E+03</pdfrwt>
<pdfrwt beam="2">  1       21 0.20952581E-01 0.13645472E+03</pdfrwt>
<totfact> 0.68112981E+03</totfact>
</mgrwt>
</event>
<event>
 4    1  0.6052129E+003  0.1448601E+03  0.7546771E-02  0.1206935E+00
         21   -1    0    0  503  501  0.00000000000E+00  0.00000000000E+00  0.14341828782E+03  0.14341828782E+03  0.00000000000E+00 0. -1.
         21   -1    0    0  504  502 -0.00000000000E+00 -0.00000000000E+00 -0.16526124643E+03  0.16526124643E+03  0.00000000000E+00 0. -1.
         21    1    1    2  503  502  0.14485569104E+03 -0.11337492738E+01  0.41334639482E+02  0.15064198962E+03  0.00000000000E+00 0. -1.
         21    1    1    2  504  501 -0.14485569104E+03  0.11337492738E+01 -0.63177598095E+02  0.15803754464E+03  0.00000000000E+00 0. -1.
<mgrwt>
<rscale>  2 0.14486013E+03</rscale>
<asrwt>0</asrwt>
<pdfrwt beam="1">  1       21 0.22064352E-01 0.14486013E+03</pdfrwt>
<pdfrwt beam="2">  1       21 0.25424807E-01 0.14486013E+03</pdfrwt>
<totfact> 0.28458781E+05</totfact>
</mgrwt>
</event>
<event>
 4    1  0.6052129E+003  0.1282956E+03  0.7546771E-02  0.1230007E+00
         21   -1    0    0  503  501  0.00000000000E+00  0.00000000000E+00  0.29176686127E+02  0.29176686127E+02  0.00000000000E+00 0. -1.
         21   -1    0    0  504  502 -0.00000000000E+00 -0.00000000000E+00 -0.10194726102E+04  0.10194726102E+04  0.00000000000E+00 0. -1.
         21    1    1    2  503  502  0.58302279209E+02 -0.11428297309E+03 -0.14473789356E+03  0.19341357638E+03  0.00000000000E+00 0. -1.
         21    1    1    2  504  501 -0.58302279209E+02  0.11428297309E+03 -0.84555803054E+03  0.85523571996E+03  0.00000000000E+00 0. -1.
<mgrwt>
<rscale>  2 0.12829557E+03</rscale>
<asrwt>0</asrwt>
<pdfrwt beam="1">  1       21 0.44887211E-02 0.12829557E+03</pdfrwt>
<pdfrwt beam="2">  1       21 0.15684193E+00 0.12829557E+03</pdfrwt>
<totfact> 0.88717151E+04</totfact>
</mgrwt>
</event>
<event>
 4    1  0.6052129E+003  0.1595520E+03  0.7546771E-02  0.1189203E+00
         21   -1    0    0  503  501  0.00000000000E+00  0.00000000000E+00  0.75378636667E+02  0.75378636667E+02  0.00000000000E+00 0.  1.
         21   -1    0    0  504  502 -0.00000000000E+00 -0.00000000000E+00 -0.33930523178E+03  0.33930523178E+03  0.00000000000E+00 0.  1.
         21    1    1    2  503  502  0.56835223798E+02  0.14908590196E+03 -0.11778962182E+03  0.19832106251E+03  0.00000000000E+00 0.  1.
         21    1    1    2  504  501 -0.56835223798E+02 -0.14908590196E+03 -0.14613697330E+03  0.21636280594E+03  0.00000000000E+00 0.  1.
<mgrwt>
<rscale>  2 0.15955203E+03</rscale>
<asrwt>0</asrwt>
<pdfrwt beam="1">  1       21 0.11596713E-01 0.15955203E+03</pdfrwt>
<pdfrwt beam="2">  1       21 0.52200804E-01 0.15955203E+03</pdfrwt>
<totfact> 0.21929607E+05</totfact>
</mgrwt>
</event>
<event>
 4    1  0.6052129E+003  0.1164316E+03  0.7546771E-02  0.1249103E+00
         21   -1    0    0  502  501  0.00000000000E+00  0.00000000000E+00  0.10026439327E+03  0.10026439327E+03  0.00000000000E+00 0.  1.
         21   -1    0    0  503  502 -0.00000000000E+00 -0.00000000000E+00 -0.17132389208E+03  0.17132389208E+03  0.00000000000E+00 0.  1.
         21    1    1    2  503  504  0.11173750318E+03 -0.32726716469E+02 -0.97879635761E+02  0.15210762862E+03  0.00000000000E+00 0.  1.
         21    1    1    2  504  501 -0.11173750318E+03  0.32726716469E+02  0.26820136947E+02  0.11948065673E+03  0.00000000000E+00 0.  1.
<mgrwt>
<rscale>  2 0.11643156E+03</rscale>
<asrwt>0</asrwt>
<pdfrwt beam="1">  1       21 0.15425291E-01 0.11643156E+03</pdfrwt>
<pdfrwt beam="2">  1       21 0.26357521E-01 0.11643156E+03</pdfrwt>
<totfact> 0.51464061E+05</totfact>
</mgrwt>
</event>
<event>
 4    1  0.6052129E+003  0.1057854E+03  0.7546771E-02  0.1268580E+00
         21   -1    0    0  503  501  0.00000000000E+00  0.00000000000E+00  0.29212103468E+02  0.29212103468E+02  0.00000000000E+00 0. -1.
         21   -1    0    0  504  502 -0.00000000000E+00 -0.00000000000E+00 -0.46600519737E+03  0.46600519737E+03  0.00000000000E+00 0.  1.
         21    1    1    2  503  502 -0.29544645478E+02  0.10157592693E+03 -0.32284818773E+03  0.33973740937E+03  0.00000000000E+00 0.  1.
         21    1    1    2  504  501  0.29544645478E+02 -0.10157592693E+03 -0.11394490617E+03  0.15547989146E+03  0.00000000000E+00 0. -1.
<mgrwt>
<rscale>  2 0.10578542E+03</rscale>
<asrwt>0</asrwt>
<pdfrwt beam="1">  1       21 0.44941701E-02 0.10578542E+03</pdfrwt>
<pdfrwt beam="2">  1       21 0.71693101E-01 0.10578542E+03</pdfrwt>
<totfact> 0.57209674E+05</totfact>
</mgrwt>
</event>
<event>
 4    1  0.6052129E+003  0.1148654E+03  0.7546771E-02  0.1251816E+00
         21   -1    0    0  503  501  0.00000000000E+00  0.00000000000E+00  0.38536895495E+02  0.38536895495E+02  0.00000000000E+00 0.  1.
         21   -1    0    0  504  502 -0.00000000000E+00 -0.00000000000E+00 -0.23295366902E+04  0.23295366902E+04  0.00000000000E+00 0.  1.
         21    1    1    2  503  502 -0.97652599681E+02 -0.60481675685E+02 -0.51928755412E+02  0.12605815704E+03  0.00000000000E+00 0.  1.
         21    1    1    2  504  501  0.97652599681E+02  0.60481675685E+02 -0.22390710393E+04  0.22420154287E+04  0.00000000000E+00 0.  1.
<mgrwt>
<rscale>  2 0.11486541E+03</rscale>
<asrwt>0</asrwt>
<pdfrwt beam="1">  1       21 0.59287536E-02 0.11486541E+03</pdfrwt>
<pdfrwt beam="2">  1       21 0.35839023E+00 0.11486541E+03</pdfrwt>
<totfact> 0.35765281E+03</totfact>
</mgrwt>
</event>
<event>
 4    1  0.6052129E+003  0.1025791E+03  0.7546771E-02  0.1274964E+00
         21   -1    0    0  503  501  0.00000000000E+00  0.00000000000E+00  0.28141957542E+03  0.28141957542E+03  0.00000000000E+00 0. -1.
         21   -1    0    0  501  502 -0.00000000000E+00 -0.00000000000E+00 -0.42512169414E+02  0.42512169414E+02  0.00000000000E+00 0. -1.
         21    1    1    2  503  504  0.61090015111E+02  0.82404416249E+02  0.17567019532E+03  0.20342687946E+03  0.00000000000E+00 0. -1.
         21    1    1    2  504  502 -0.61090015111E+02 -0.82404416249E+02  0.63237210693E+02  0.12050486538E+03  0.00000000000E+00 0. -1.
<mgrwt>
<rscale>  2 0.10257913E+03</rscale>
<asrwt>0</asrwt>
<pdfrwt beam="1">  1       21 0.43295318E-01 0.10257913E+03</pdfrwt>
<pdfrwt beam="2">  1       21 0.65403339E-02 0.10257913E+03</pdfrwt>
<totfact> 0.87356877E+05</totfact>
</mgrwt>
</event>
<event>
 4    1  0.6052129E+003  0.1126808E+03  0.7546771E-02  0.1255685E+00
         21   -1    0    0  502  501  0.00000000000E+00  0.00000000000E+00  0.13995751284E+04  0.13995751284E+04  0.00000000000E+00 0.  1.
         21   -1    0    0  503  502 -0.00000000000E+00 -0.00000000000E+00 -0.47713593253E+02  0.47713593253E+02  0.00000000000E+00 0. -1.
         21    1    1    2  503  504  0.53657397883E+02 -0.99085017284E+02  0.24704984569E+02  0.11535724191E+03  0.00000000000E+00 0. -1.
         21    1    1    2  504  501 -0.53657397883E+02  0.99085017284E+02  0.13271565506E+04  0.13319314797E+04  0.00000000000E+00 0.  1.
<mgrwt>
<rscale>  2 0.11268077E+03</rscale>
<asrwt>0</asrwt>
<pdfrwt beam="1">  1       21 0.21531922E+00 0.11268077E+03</pdfrwt>
<pdfrwt beam="2">  1       21 0.73405539E-02 0.11268077E+03</pdfrwt>
<totfact> 0.16202179E+04</totfact>
</mgrwt>
</event>
<event>
 4    1  0.6052129E+003  0.1050080E+03  0.7546771E-02  0.1270104E+00
         21   -1    0    0  504  501  0.00000000000E+00  0.00000000000E+00  0.12723858530E+03  0.12723858530E+03  0.00000000000E+00 0. -1.
         21   -1    0    0  503  502 -0.00000000000E+00 -0.00000000000E+00 -0.10884909955E+03  0.10884909955E+03  0.00000000000E+00 0. -1.
         21    1    1    2  503  501  0.90498967312E+02  0.53259855964E+02  0.62489801892E+02  0.12219513363E+03  0.00000000000E+00 0. -1.
         21    1    1    2  504  502 -0.90498967312E+02 -0.53259855964E+02 -0.44100316141E+02  0.11389255123E+03  0.00000000000E+00 0. -1.
<mgrwt>
<rscale>  2 0.10500798E+03</rscale>
<asrwt>0</asrwt>
<pdfrwt beam="1">  1       21 0.19575167E-01 0.10500798E+03</pdfrwt>
<pdfrwt beam="2">  1       21 0.16746015E-01 0.10500798E+03</pdfrwt>
<totfact> 0.77254165E+05</totfact>
</mgrwt>
</event>
<event>
 4    1  0.6052129E+003  0.1167590E+03  0.7546771E-02  0.1248541E+00
         21   -1    0    0  503  501  0.00000000000E+00  0.00000000000E+00  0.66800257614E+02  0.66800257614E+02  0.00000000000E+00 0. -1.
         21   -1    0    0  504  502 -0.00000000000E+00 -0.00000000000E+00 -0.59227249510E+03  0.59227249510E+03  0.00000000000E+00 0. -1.
         21    1    1    2  503  502  0.11640024872E+03  0.91458517654E+01 -0.52952368060E+03  0.54224348113E+03  0.00000000000E+00 0. -1.
         21    1    1    2  504  501 -0.11640024872E+03 -0.91458517654E+01  0.40514431176E+01  0.11682927158E+03  0.00000000000E+00 0. -1.
<mgrwt>
<rscale>  2 0.11675900E+03</rscale>
<asrwt>0</asrwt>
<pdfrwt beam="1">  1       21 0.10276962E-01 0.11675900E+03</pdfrwt>
<pdfrwt beam="2">  1       21 0.91118848E-01 0.11675900E+03</pdfrwt>
<totfact> 0.81723060E+04</totfact>
</mgrwt>
</event>
<event>
 4    1  0.6052129E+003  0.1290239E+03  0.7546771E-02  0.1228911E+00
         21   -1    0    0  503  501  0.00000000000E+00  0.00000000000E+00  0.23719181812E+02  0.23719181812E+02  0.00000000000E+00 0.  1.
         21   -1    0    0  501  502 -0.00000000000E+00 -0.00000000000E+00 -0.86175144709E+03  0.86175144709E+03  0.00000000000E+00 0.  1.
         21    1    1    2  503  504  0.12331197861E+03  0.37964690436E+02 -0.22829987867E+03  0.26223652757E+03  0.00000000000E+00 0.  1.
         21    1    1    2  504  502 -0.12331197861E+03 -0.37964690436E+02 -0.60973238660E+03  0.62323410133E+03  0.00000000000E+00 0.  1.
<mgrwt>
<rscale>  2 0.12902388E+03</rscale>
<asrwt>0</asrwt>
<pdfrwt beam="1">  1       21 0.36491054E-02 0.12902388E+03</pdfrwt>
<pdfrwt beam="2">  1       21 0.13257713E+00 0.12902388E+03</pdfrwt>
<totfact> 0.19245324E+05</totfact>
</mgrwt>
</event>
<event>
 4    1  0.6052129E+003  0.3196320E+03  0.7546771E-02  0.1075819E+00
         21   -1    0    0  502  501  0.00000000000E+00  0.00000000000E+00  0.14096247773E+04  0.14096247773E+04  0.00000000000E+00 0.  1.
         21   -1    0    0  503  502 -0.00000000000E+00 -0.00000000000E+00 -0.26372808323E+03  0.26372808323E+03  0.00000000000E+00 0. -1.
         21    1    1    2  503  504 -0.17784553610E+03  0.26558539571E+03 -0.13954676908E+03  0.34876630841E+03  0.00000000000E+00 0. -1.
         21    1    1    2  504  501  0.17784553610E+03 -0.26558539571E+03  0.12854434632E+04  0.13245865522E+04  0.00000000000E+00 0.  1.
<mgrwt>
<rscale>  2 0.31963203E+03</rscale>
<asrwt>0</asrwt>
<pdfrwt beam="1">  1       21 0.21686535E+00 0.31963203E+03</pdfrwt>
<pdfrwt beam="2">  1       21 0.40573552E-01 0.31963203E+03</pdfrwt>
<totfact> 0.54568981E+02</totfact>
</mgrwt>
</event>
<event>
 4    1  0.6052129E+003  0.1091177E+03  0.7546771E-02  0.1262213E+00
         21   -1    0    0  504  501  0.00000000000E+00  0.00000000000E+00  0.71006505325E+03  0.71006505325E+03  0.00000000000E+00 0. -1.
         21   -1    0    0  503  502 -0.00000000000E+00 -0.00000000000E+00 -0.81609572279E+02  0.81609572279E+02  0.00000000000E+00 0. -1.
         21    1    1    2  503  501  0.14368592316E+02  0.10816753760E+03 -0.38607149631E+02  0.11574620788E+03  0.00000000000E+00 0. -1.
         21    1    1    2  504  502 -0.14368592316E+02 -0.10816753760E+03  0.66706263060E+03  0.67592841765E+03  0.00000000000E+00 0. -1.
<mgrwt>
<rscale>  2 0.10911770E+03</rscale>
<asrwt>0</asrwt>
<pdfrwt beam="1">  1       21 0.10924077E+00 0.10911770E+03</pdfrwt>
<pdfrwt beam="2">  1       21 0.12555319E-01 0.10911770E+03</pdfrwt>
<totfact> 0.37842352E+04</totfact>
</mgrwt>
</event>
<event>
 4    1  0.6052129E+003  0.1211735E+03  0.7546771E-02  0.1241174E+00
         21   -1    0    0  503  501  0.00000000000E+00  0.00000000000E+00  0.37603765769E+03  0.37603765769E+03  0.00000000000E+00 0.  1.
         21   -1    0    0  501  502 -0.00000000000E+00 -0.00000000000E+00 -0.13127097471E+03  0.13127097471E+03  0.00000000000E+00 0. -1.
         21    1    1    2  503  504  0.86213333287E+02 -0.85148605466E+02  0.33499181141E+03  0.35623382428E+03  0.00000000000E+00 0.  1.
         21    1    1    2  504  502 -0.86213333287E+02  0.85148605466E+02 -0.90225128432E+02  0.15107480812E+03  0.00000000000E+00 0. -1.
<mgrwt>
<rscale>  2 0.12117353E+03</rscale>
<asrwt>0</asrwt>
<pdfrwt beam="1">  1       21 0.57851947E-01 0.12117353E+03</pdfrwt>
<pdfrwt beam="2">  1       21 0.20195535E-01 0.12117353E+03</pdfrwt>
<totfact> 0.65652811E+04</totfact>
</mgrwt>
</event>
<event>
 4    1  0.6052129E+003  0.1000168E+03  0.7546771E-02  0.1280261E+00
         21   -1    0    0  504  501  0.00000000000E+00  0.00000000000E+00  0.21029327891E+03  0.21029327891E+03  0.00000000000E+00 0.  1.
         21   -1    0    0  503  502 -0.00000000000E+00 -0.00000000000E+00 -0.46741725604E+03  0.46741725604E+03  0.00000000000E+00 0.  1.
         21    1    1    2  503  501 -0.19163004236E+01  0.99998452598E+02  0.19258824305E+03  0.21701058520E+03  0.00000000000E+00 0.  1.
         21    1    1    2  504  502  0.19163004236E+01 -0.99998452598E+02 -0.44971222018E+03  0.46069994976E+03  0.00000000000E+00 0.  1.
<mgrwt>
<rscale>  2 0.10001681E+03</rscale>
<asrwt>0</asrwt>
<pdfrwt beam="1">  1       21 0.32352813E-01 0.10001681E+03</pdfrwt>
<pdfrwt beam="2">  1       21 0.71910346E-01 0.10001681E+03</pdfrwt>
<totfact> 0.17202702E+04</totfact>
</mgrwt>
</event>
<event>
 4    1  0.6052129E+003  0.1216051E+03  0.7546771E-02  0.1240472E+00
         21   -1    0    0  503  501  0.00000000000E+00  0.00000000000E+00  0.81867700330E+02  0.81867700330E+02  0.00000000000E+00 0.  1.
         21   -1    0    0  504  502 -0.00000000000E+00 -0.00000000000E+00 -0.36774455744E+03  0.36774455744E+03  0.00000000000E+00 0.  1.
         21    1    1    2  503  502 -0.99193928177E+02 -0.70344637666E+02  0.17418685380E+02  0.12284630249E+03  0.00000000000E+00 0.  1.
         21    1    1    2  504  501  0.99193928177E+02  0.70344637666E+02 -0.30329554249E+03  0.32676595528E+03  0.00000000000E+00 0.  1.
<mgrwt>
<rscale>  2 0.12160511E+03</rscale>
<asrwt>0</asrwt>
<pdfrwt beam="1">  1       21 0.12595031E-01 0.12160511E+03</pdfrwt>
<pdfrwt beam="2">  1       21 0.56576086E-01 0.12160511E+03</pdfrwt>
<totfact> 0.16167182E+05</totfact>
</mgrwt>
</event>
<event>
 4    1  0.6052129E+003  0.1307908E+03  0.7546771E-02  0.1226287E+00
         21   -1    0    0  504  501  0.00000000000E+00  0.00000000000E+00  0.81815477119E+03  0.81815477119E+03  0.00000000000E+00 0.  1.
         21   -1    0    0  503  502 -0.00000000000E+00 -0.00000000000E+00 -0.28807805288E+02  0.28807805288E+02  0.00000000000E+00 0.  1.
         21    1    1    2  503  501  0.37963932308E+02 -0.12515974389E+03  0.61643144017E+03  0.63015390348E+03  0.00000000000E+00 0.  1.
         21    1    1    2  504  502 -0.37963932308E+02  0.12515974389E+03  0.17291552573E+03  0.21680867299E+03  0.00000000000E+00 0.  1.
<mgrwt>
<rscale>  2 0.13079076E+03</rscale>
<asrwt>0</asrwt>
<pdfrwt beam="1">  1       21 0.12586995E+00 0.13079076E+03</pdfrwt>
<pdfrwt beam="2">  1       21 0.44319707E-02 0.13079076E+03</pdfrwt>
<totfact> 0.15839617E+05</totfact>
</mgrwt>
</event>
<event>
 4    1  0.6052129E+003  0.1122380E+03  0.7546771E-02  0.1256481E+00
         21   -1    0    0  504  501  0.00000000000E+00  0.00000000000E+00  0.80743516064E+02  0.80743516064E+02  0.00000000000E+00 0. -1.
         21   -1    0    0  501  502 -0.00000000000E+00 -0.00000000000E+00 -0.16145369973E+03  0.16145369973E+03  0.00000000000E+00 0. -1.
         21    1    1    2  503  502  0.57001157408E+02  0.96686323833E+02 -0.62576670088E+02  0.12850376182E+03  0.00000000000E+00 0. -1.
         21    1    1    2  504  503 -0.57001157408E+02 -0.96686323833E+02 -0.18133513579E+02  0.11369345398E+03  0.00000000000E+00 0. -1.
<mgrwt>
<rscale>  2 0.11223804E+03</rscale>
<asrwt>0</asrwt>
<pdfrwt beam="1">  1       21 0.12422080E-01 0.11223804E+03</pdfrwt>
<pdfrwt beam="2">  1       21 0.24839030E-01 0.11223804E+03</pdfrwt>
<totfact> 0.84741244E+05</totfact>
</mgrwt>
</event>
<event>
 4    1  0.6052129E+003  0.1100538E+03  0.7546771E-02  0.1260470E+00
         21   -1    0    0  504  501  0.00000000000E+00  0.00000000000E+00  0.21419552398E+02  0.21419552398E+02  0.00000000000E+00 0.  1.
         21   -1    0    0  503  502 -0.00000000000E+00 -0.00000000000E+00 -0.79284542210E+03  0.79284542210E+03  0.00000000000E+00 0.  1.
         21    1    1    2  503  501  0.94056416694E+02 -0.57142193826E+02 -0.60374757269E+03  0.61369615557E+03  0.00000000000E+00 0.  1.
         21    1    1    2  504  502 -0.94056416694E+02  0.57142193826E+02 -0.16767829702E+03  0.20056881893E+03  0.00000000000E+00 0.  1.
<mgrwt>
<rscale>  2 0.11005380E+03</rscale>
<asrwt>0</asrwt>
<pdfrwt beam="1">  1       21 0.32953156E-02 0.11005380E+03</pdfrwt>
<pdfrwt beam="2">  1       21 0.12197623E+00 0.11005380E+03</pdfrwt>
<totfact> 0.28154276E+05</totfact>
</mgrwt>
</event>
<event>
 4    1  0.6052129E+003  0.1154767E+03  0.7546771E-02  0.1250751E+00
         21   -1    0    0  502  501  0.00000000000E+00  0.00000000000E+00  0.33440074602E+02  0.33440074602E+02  0.00000000000E+00 0. -1.
         21   -1    0    0  504  502 -0.00000000000E+00 -0.00000000000E+00 -0.56896056799E+03  0.56896056799E+03  0.00000000000E+00 0. -1.
         21    1    1    2  503  501  0.74059399928E+02 -0.88600680199E+02 -0.10302634703E+03  0.15475562488E+03  0.00000000000E+00 0. -1.
         21    1    1    2  504  503 -0.74059399928E+02  0.88600680199E+02 -0.43249414636E+03  0.44764501772E+03  0.00000000000E+00 0. -1.
<mgrwt>
<rscale>  2 0.11547673E+03</rscale>
<asrwt>0</asrwt>
<pdfrwt beam="1">  1       21 0.51446266E-02 0.11547673E+03</pdfrwt>
<pdfrwt beam="2">  1       21 0.87532400E-01 0.11547673E+03</pdfrwt>
<totfact> 0.29263801E+05</totfact>
</mgrwt>
</event>
<event>
 4    1  0.6052129E+003  0.1547768E+03  0.7546771E-02  0.1194723E+00
         21   -1    0    0  504  501  0.00000000000E+00  0.00000000000E+00  0.10748854049E+04  0.10748854049E+04  0.00000000000E+00 0. -1.
         21   -1    0    0  501  502 -0.00000000000E+00 -0.00000000000E+00 -0.51759916355E+02  0.51759916355E+02  0.00000000000E+00 0. -1.
         21    1    1    2  503  502 -0.13380075931E+03  0.77802458579E+02  0.86480743314E+02  0.17729857505E+03  0.00000000000E+00 0. -1.
         21    1    1    2  504  503  0.13380075931E+03 -0.77802458579E+02  0.93664474522E+03  0.94934674619E+03  0.00000000000E+00 0. -1.
<mgrwt>
<rscale>  2 0.15477683E+03</rscale>
<asrwt>0</asrwt>
<pdfrwt beam="1">  1       21 0.16536697E+00 0.15477683E+03</pdfrwt>
<pdfrwt beam="2">  1       21 0.79630648E-02 0.15477683E+03</pdfrwt>
<totfact> 0.28580344E+04</totfact>
</mgrwt>
</event>
<event>
 4    1  0.6052129E+003  0.1291395E+03  0.7546771E-02  0.1228738E+00
         21   -1    0    0  502  501  0.00000000000E+00  0.00000000000E+00  0.52462812328E+03  0.52462812328E+03  0.00000000000E+00 0. -1.
         21   -1    0    0  504  502 -0.00000000000E+00 -0.00000000000E+00 -0.12751241745E+03  0.12751241745E+03  0.00000000000E+00 0. -1.
         21    1    1    2  503  501 -0.11311491491E+03  0.62305953741E+02  0.48107560188E+03  0.49810716776E+03  0.00000000000E+00 0. -1.
         21    1    1    2  504  503  0.11311491491E+03 -0.62305953741E+02 -0.83959896053E+02  0.15403337298E+03  0.00000000000E+00 0. -1.
<mgrwt>
<rscale>  2 0.12913952E+03</rscale>
<asrwt>0</asrwt>
<pdfrwt beam="1">  1       21 0.80712018E-01 0.12913952E+03</pdfrwt>
<pdfrwt beam="2">  1       21 0.19617295E-01 0.12913952E+03</pdfrwt>
<totfact> 0.33468306E+04</totfact>
</mgrwt>
</event>
<event>
 4    1  0.6052129E+003  0.1167956E+03  0.7546771E-02  0.1248479E+00
         21   -1    0    0  503  501  0.00000000000E+00  0.00000000000E+00  0.15580119755E+03  0.15580119755E+03  0.00000000000E+00 0. -1.
         21   -1    0    0  504  502 -0.00000000000E+00 -0.00000000000E+00 -0.22449119805E+03  0.22449119805E+03  0.00000000000E+00 0. -1.
         21    1    1    2  503  502  0.11431924845E+03  0.23923280619E+02 -0.18285192737E+03  0.21697013910E+03  0.00000000000E+00 0. -1.
         21    1    1    2  504  501 -0.11431924845E+03 -0.23923280619E+02  0.11416192687E+03  0.16332225650E+03  0.00000000000E+00 0. -1.
<mgrwt>
<rscale>  2 0.11679561E+03</rscale>
<asrwt>0</asrwt>
<pdfrwt beam="1">  1       21 0.23969415E-01 0.11679561E+03</pdfrwt>
<pdfrwt beam="2">  1       21 0.34537107E-01 0.11679561E+03</pdfrwt>
<totfact> 0.13605792E+05</totfact>
</mgrwt>
</event>
<event>
 4    1  0.6052129E+003  0.1162327E+03  0.7546771E-02  0.1249445E+00
         21   -1    0    0  504  501  0.00000000000E+00  0.00000000000E+00  0.10085434476E+03  0.10085434476E+03  0.00000000000E+00 0. -1.
         21   -1    0    0  503  502 -0.00000000000E+00 -0.00000000000E+00 -0.31909111674E+03  0.31909111674E+03  0.00000000000E+00 0. -1.
         21    1    1    2  503  501  0.93623077785E+02 -0.68882226109E+02 -0.26905576496E+03  0.29308880297E+03  0.00000000000E+00 0. -1.
         21    1    1    2  504  502 -0.93623077785E+02  0.68882226109E+02  0.50818992982E+02  0.12685665854E+03  0.00000000000E+00 0. -1.
<mgrwt>
<rscale>  2 0.11623271E+03</rscale>
<asrwt>0</asrwt>
<pdfrwt beam="1">  1       21 0.15516053E-01 0.11623271E+03</pdfrwt>
<pdfrwt beam="2">  1       21 0.49090940E-01 0.11623271E+03</pdfrwt>
<totfact> 0.14971139E+05</totfact>
</mgrwt>
</event>
<event>
 4    1  0.6052129E+003  0.1266384E+03  0.7546771E-02  0.1232531E+00
         21   -1    0    0  502  501  0.00000000000E+00  0.00000000000E+00  0.71556194783E+02  0.71556194783E+02  0.00000000000E+00 0.  1.
         21   -1    0    0  504  502 -0.00000000000E+00 -0.00000000000E+00 -0.29602189396E+03  0.29602189396E+03  0.00000000000E+00 0.  1.
         21    1    1    2  503  501 -0.12162232059E+03  0.35288770958E+02 -0.21654761850E+02  0.12847651510E+03  0.00000000000E+00 0.  1.
         21    1    1    2  504  503  0.12162232059E+03 -0.35288770958E+02 -0.20281093733E+03  0.23910157365E+03  0.00000000000E+00 0.  1.
<mgrwt>
<rscale>  2 0.12663841E+03</rscale>
<asrwt>0</asrwt>
<pdfrwt beam="1">  1       21 0.11008645E-01 0.12663841E+03</pdfrwt>
<pdfrwt beam="2">  1       21 0.45541830E-01 0.12663841E+03</pdfrwt>
<totfact> 0.32067659E+05</totfact>
</mgrwt>
</event>
<event>
 4    1  0.6052129E+003  0.1151261E+03  0.7546771E-02  0.1251361E+00
         21   -1    0    0  503  501  0.00000000000E+00  0.00000000000E+00  0.36166916215E+03  0.36166916215E+03  0.00000000000E+00 0. -1.
         21   -1    0    0  501  502 -0.00000000000E+00 -0.00000000000E+00 -0.42488000351E+02  0.42488000351E+02  0.00000000000E+00 0.  1.
         21    1    1    2  503  504  0.79528466404E+02 -0.83242008436E+02  0.23451770519E+03  0.26125191480E+03  0.00000000000E+00 0. -1.
         21    1    1    2  504  502 -0.79528466404E+02  0.83242008436E+02  0.84663456612E+02  0.14290524771E+03  0.00000000000E+00 0.  1.
<mgrwt>
<rscale>  2 0.11512606E+03</rscale>
<asrwt>0</asrwt>
<pdfrwt beam="1">  1       21 0.55641407E-01 0.11512606E+03</pdfrwt>
<pdfrwt beam="2">  1       21 0.65366157E-02 0.11512606E+03</pdfrwt>
<totfact> 0.52312989E+05</totfact>
</mgrwt>
</event>
<event>
 4    1  0.6052129E+003  0.1540583E+03  0.7546771E-02  0.1195573E+00
         21   -1    0    0  503  501  0.00000000000E+00  0.00000000000E+00  0.85934143584E+03  0.85934143584E+03  0.00000000000E+00 0.  1.
         21   -1    0    0  504  502 -0.00000000000E+00 -0.00000000000E+00 -0.38699606374E+02  0.38699606374E+02  0.00000000000E+00 0.  1.
         21    1    1    2  503  502  0.15352884741E+03  0.12761508232E+02  0.65059059336E+03  0.66858214398E+03  0.00000000000E+00 0.  1.
         21    1    1    2  504  501 -0.15352884741E+03 -0.12761508232E+02  0.17005123611E+03  0.22945889824E+03  0.00000000000E+00 0.  1.
<mgrwt>
<rscale>  2 0.15405831E+03</rscale>
<asrwt>0</asrwt>
<pdfrwt beam="1">  1       21 0.13220636E+00 0.15405831E+03</pdfrwt>
<pdfrwt beam="2">  1       21 0.59537862E-02 0.15405831E+03</pdfrwt>
<totfact> 0.84339857E+04</totfact>
</mgrwt>
</event>
<event>
 4    1  0.6052129E+003  0.1531323E+03  0.7546771E-02  0.1196676E+00
         21   -1    0    0  503  501  0.00000000000E+00  0.00000000000E+00  0.51982356846E+03  0.51982356846E+03  0.00000000000E+00 0.  1.
         21   -1    0    0  504  502 -0.00000000000E+00 -0.00000000000E+00 -0.12704841552E+03  0.12704841552E+03  0.00000000000E+00 0.  1.
         21    1    1    2  503  502 -0.12903193667E+03 -0.82463634551E+02 -0.63356841764E+02  0.16572139603E+03  0.00000000000E+00 0.  1.
         21    1    1    2  504  501  0.12903193667E+03  0.82463634551E+02  0.45613199470E+03  0.48115058795E+03  0.00000000000E+00 0.  1.
<mgrwt>
<rscale>  2 0.15313227E+03</rscale>
<asrwt>0</asrwt>
<pdfrwt beam="1">  1       21 0.79972855E-01 0.15313227E+03</pdfrwt>
<pdfrwt beam="2">  1       21 0.19545910E-01 0.15313227E+03</pdfrwt>
<totfact> 0.33904574E+04</totfact>
</mgrwt>
</event>
<event>
 4    1  0.6052129E+003  0.1033955E+03  0.7546771E-02  0.1273313E+00
         21   -1    0    0  502  501  0.00000000000E+00  0.00000000000E+00  0.24631410639E+03  0.24631410639E+03  0.00000000000E+00 0.  1.
         21   -1    0    0  504  502 -0.00000000000E+00 -0.00000000000E+00 -0.16564102316E+03  0.16564102316E+03  0.00000000000E+00 0.  1.
         21    1    1    2  503  501  0.54182746150E+02  0.88061726658E+02  0.21728227234E+03  0.24062880865E+03  0.00000000000E+00 0.  1.
         21    1    1    2  504  503 -0.54182746150E+02 -0.88061726658E+02 -0.13660918910E+03  0.17132632089E+03  0.00000000000E+00 0.  1.
<mgrwt>
<rscale>  2 0.10339554E+03</rscale>
<asrwt>0</asrwt>
<pdfrwt beam="1">  1       21 0.37894478E-01 0.10339554E+03</pdfrwt>
<pdfrwt beam="2">  1       21 0.25483234E-01 0.10339554E+03</pdfrwt>
<totfact> 0.10163591E+05</totfact>
</mgrwt>
</event>
<event>
 4    1  0.6052129E+003  0.1009664E+03  0.7546771E-02  0.1278277E+00
         21   -1    0    0  502  501  0.00000000000E+00  0.00000000000E+00  0.10994305858E+04  0.10994305858E+04  0.00000000000E+00 0.  1.
         21   -1    0    0  504  502 -0.00000000000E+00 -0.00000000000E+00 -0.15562684434E+03  0.15562684434E+03  0.00000000000E+00 0. -1.
         21    1    1    2  503  501  0.49563406310E+02 -0.87964146585E+02  0.10804493831E+04  0.10851567130E+04  0.00000000000E+00 0.  1.
         21    1    1    2  504  503 -0.49563406310E+02  0.87964146585E+02 -0.13664564160E+03  0.16990071718E+03  0.00000000000E+00 0. -1.
<mgrwt>
<rscale>  2 0.10096644E+03</rscale>
<asrwt>0</asrwt>
<pdfrwt beam="1">  1       21 0.16914316E+00 0.10096644E+03</pdfrwt>
<pdfrwt beam="2">  1       21 0.23942592E-01 0.10096644E+03</pdfrwt>
<totfact> 0.39564792E+03</totfact>
</mgrwt>
</event>
<event>
 4    1  0.6052129E+003  0.1250863E+03  0.7546771E-02  0.1234935E+00
         21   -1    0    0  504  501  0.00000000000E+00  0.00000000000E+00  0.20338167265E+03  0.20338167265E+03  0.00000000000E+00 0. -1.
         21   -1    0    0  503  502 -0.00000000000E+00 -0.00000000000E+00 -0.14889665263E+03  0.14889665263E+03  0.00000000000E+00 0. -1.
         21    1    1    2  503  501  0.12496183119E+03 -0.55778737086E+01 -0.95211463661E+02  0.15719985605E+03  0.00000000000E+00 0. -1.
         21    1    1    2  504  502 -0.12496183119E+03  0.55778737086E+01  0.14969648368E+03  0.19507846923E+03  0.00000000000E+00 0. -1.
<mgrwt>
<rscale>  2 0.12508626E+03</rscale>
<asrwt>0</asrwt>
<pdfrwt beam="1">  1       21 0.31289488E-01 0.12508626E+03</pdfrwt>
<pdfrwt beam="2">  1       21 0.22907177E-01 0.12508626E+03</pdfrwt>
<totfact> 0.17902073E+05</totfact>
</mgrwt>
</event>
<event>
 4    1  0.6052129E+003  0.1132032E+03  0.7546771E-02  0.1254750E+00
         21   -1    0    0  503  501  0.00000000000E+00  0.00000000000E+00  0.27013753050E+02  0.27013753050E+02  0.00000000000E+00 0.  1.
         21   -1    0    0  504  502 -0.00000000000E+00 -0.00000000000E+00 -0.60015182167E+03  0.60015182167E+03  0.00000000000E+00 0. -1.
         21    1    1    2  503  502  0.17401046550E+02 -0.11185784420E+03 -0.14301969041E+03  0.18239957669E+03  0.00000000000E+00 0.  1.
         21    1    1    2  504  501 -0.17401046550E+02  0.11185784420E+03 -0.43011837821E+03  0.44476599803E+03  0.00000000000E+00 0. -1.
<mgrwt>
<rscale>  2 0.11320324E+03</rscale>
<asrwt>0</asrwt>
<pdfrwt beam="1">  1       21 0.41559624E-02 0.11320324E+03</pdfrwt>
<pdfrwt beam="2">  1       21 0.92331041E-01 0.11320324E+03</pdfrwt>
<totfact> 0.37014297E+05</totfact>
</mgrwt>
</event>
<event>
 4    1  0.6052129E+003  0.1335334E+03  0.7546771E-02  0.1222305E+00
         21   -1    0    0  502  501  0.00000000000E+00  0.00000000000E+00  0.14288113644E+04  0.14288113644E+04  0.00000000000E+00 0. -1.
         21   -1    0    0  503  502 -0.00000000000E+00 -0.00000000000E+00 -0.22801887019E+02  0.22801887019E+02  0.00000000000E+00 0.  1.
         21    1    1    2  503  504  0.58209294965E+02  0.12017835359E+03  0.21466611064E+03  0.25280960771E+03  0.00000000000E+00 0.  1.
         21    1    1    2  504  501 -0.58209294965E+02 -0.12017835359E+03  0.11913433667E+04  0.11988036437E+04  0.00000000000E+00 0. -1.
<mgrwt>
<rscale>  2 0.13353336E+03</rscale>
<asrwt>0</asrwt>
<pdfrwt beam="1">  1       21 0.21981706E+00 0.13353336E+03</pdfrwt>
<pdfrwt beam="2">  1       21 0.35079837E-02 0.13353336E+03</pdfrwt>
<totfact> 0.51478949E+04</totfact>
</mgrwt>
</event>
<event>
 4    1  0.6052129E+003  0.1546151E+03  0.7546771E-02  0.1194914E+00
         21   -1    0    0  503  501  0.00000000000E+00  0.00000000000E+00  0.86933200951E+02  0.86933200951E+02  0.00000000000E+00 0. -1.
         21   -1    0    0  501  502 -0.00000000000E+00 -0.00000000000E+00 -0.75150624554E+03  0.75150624554E+03  0.00000000000E+00 0. -1.
         21    1    1    2  503  504  0.64324342654E+02 -0.14059944196E+03  0.15346932127E+01  0.15462270021E+03  0.00000000000E+00 0. -1.
         21    1    1    2  504  502 -0.64324342654E+02  0.14059944196E+03 -0.66610773780E+03  0.68381674628E+03  0.00000000000E+00 0. -1.
<mgrwt>
<rscale>  2 0.15461508E+03</rscale>
<asrwt>0</asrwt>
<pdfrwt beam="1">  1       21 0.13374338E-01 0.15461508E+03</pdfrwt>
<pdfrwt beam="2">  1       21 0.11561635E+00 0.15461508E+03</pdfrwt>
<totfact> 0.28608163E+04</totfact>
</mgrwt>
</event>
<event>
 4    1  0.6052129E+003  0.1168938E+03  0.7546771E-02  0.1248311E+00
         21   -1    0    0  502  501  0.00000000000E+00  0.00000000000E+00  0.49747482280E+03  0.49747482280E+03  0.00000000000E+00 0.  1.
         21   -1    0    0  503  502 -0.00000000000E+00 -0.00000000000E+00 -0.29121110896E+02  0.29121110896E+02  0.00000000000E+00 0.  1.
         21    1    1    2  503  504 -0.62891665260E+02  0.98533233211E+02  0.17142581614E+03  0.20748727683E+03  0.00000000000E+00 0.  1.
         21    1    1    2  504  501  0.62891665260E+02 -0.98533233211E+02  0.29692789577E+03  0.31910865687E+03  0.00000000000E+00 0.  1.
<mgrwt>
<rscale>  2 0.11689380E+03</rscale>
<asrwt>0</asrwt>
<pdfrwt beam="1">  1       21 0.76534582E-01 0.11689380E+03</pdfrwt>
<pdfrwt beam="2">  1       21 0.44801713E-02 0.11689380E+03</pdfrwt>
<totfact> 0.49782204E+05</totfact>
</mgrwt>
</event>
<event>
 4    1  0.6052129E+003  0.1120388E+03  0.7546771E-02  0.1256840E+00
         21   -1    0    0  504  501  0.00000000000E+00  0.00000000000E+00  0.24408705393E+03  0.24408705393E+03  0.00000000000E+00 0. -1.
         21   -1    0    0  503  502 -0.00000000000E+00 -0.00000000000E+00 -0.51438102933E+02  0.51438102933E+02  0.00000000000E+00 0. -1.
         21    1    1    2  503  501 -0.10872557762E+03 -0.27045083863E+02  0.98486201994E+02  0.14917177942E+03  0.00000000000E+00 0. -1.
         21    1    1    2  504  502  0.10872557762E+03  0.27045083863E+02  0.94162749003E+02  0.14635337745E+03  0.00000000000E+00 0. -1.
<mgrwt>
<rscale>  2 0.11203878E+03</rscale>
<asrwt>0</asrwt>
<pdfrwt beam="1">  1       21 0.37551854E-01 0.11203878E+03</pdfrwt>
<pdfrwt beam="2">  1       21 0.79135544E-02 0.11203878E+03</pdfrwt>
<totfact> 0.83857402E+05</totfact>
</mgrwt>
</event>
<event>
 4    1  0.6052129E+003  0.1121741E+03  0.7546771E-02  0.1256596E+00
         21   -1    0    0  504  501  0.00000000000E+00  0.00000000000E+00  0.70912154741E+02  0.70912154741E+02  0.00000000000E+00 0. -1.
         21   -1    0    0  501  502 -0.00000000000E+00 -0.00000000000E+00 -0.18569210562E+03  0.18569210562E+03  0.00000000000E+00 0.  1.
         21    1    1    2  503  502 -0.85805607214E+02 -0.72252497215E+02 -0.84428384573E+02  0.14039650175E+03  0.00000000000E+00 0.  1.
         21    1    1    2  504  503  0.85805607214E+02  0.72252497215E+02 -0.30351566307E+02  0.11620775861E+03  0.00000000000E+00 0. -1.
<mgrwt>
<rscale>  2 0.11217409E+03</rscale>
<asrwt>0</asrwt>
<pdfrwt beam="1">  1       21 0.10909562E-01 0.11217409E+03</pdfrwt>
<pdfrwt beam="2">  1       21 0.28568016E-01 0.11217409E+03</pdfrwt>
<totfact> 0.81704978E+05</totfact>
</mgrwt>
</event>
<event>
 4    1  0.6052129E+003  0.1288441E+03  0.7546771E-02  0.1229181E+00
         21   -1    0    0  504  501  0.00000000000E+00  0.00000000000E+00  0.10067293463E+02  0.10067293463E+02  0.00000000000E+00 0.  1.
         21   -1    0    0  503  502 -0.00000000000E+00 -0.00000000000E+00 -0.18197024918E+04  0.18197024918E+04  0.00000000000E+00 0.  1.
         21    1    1    2  503  501  0.38288063151E+02 -0.12302373287E+03 -0.11850416676E+04  0.11920254060E+04  0.00000000000E+00 0.  1.
         21    1    1    2  504  502 -0.38288063151E+02  0.12302373287E+03 -0.62459353078E+03  0.63774437930E+03  0.00000000000E+00 0.  1.
<mgrwt>
<rscale>  2 0.12884415E+03</rscale>
<asrwt>0</asrwt>
<pdfrwt beam="1">  1       21 0.15488143E-02 0.12884415E+03</pdfrwt>
<pdfrwt beam="2">  1       21 0.27995425E+00 0.12884415E+03</pdfrwt>
<totfact> 0.87760227E+04</totfact>
</mgrwt>
</event>
<event>
 4    1  0.6052129E+003  0.1302224E+03  0.7546771E-02  0.1227126E+00
         21   -1    0    0  504  501  0.00000000000E+00  0.00000000000E+00  0.94335930963E+03  0.94335930963E+03  0.00000000000E+00 0. -1.
         21   -1    0    0  503  502 -0.00000000000E+00 -0.00000000000E+00 -0.59410107708E+02  0.59410107708E+02  0.00000000000E+00 0.  1.
         21    1    1    2  503  501  0.12541604136E+03  0.35052540631E+02  0.86069074324E+03  0.87048631209E+03  0.00000000000E+00 0. -1.
         21    1    1    2  504  502 -0.12541604136E+03 -0.35052540631E+02  0.23258458689E+02  0.13228310526E+03  0.00000000000E+00 0.  1.
<mgrwt>
<rscale>  2 0.13022236E+03</rscale>
<asrwt>0</asrwt>
<pdfrwt beam="1">  1       21 0.14513219E+00 0.13022236E+03</pdfrwt>
<pdfrwt beam="2">  1       21 0.91400173E-02 0.13022236E+03</pdfrwt>
<totfact> 0.32286616E+04</totfact>
</mgrwt>
</event>
<event>
 4    1  0.6052129E+003  0.1019528E+03  0.7546771E-02  0.1276242E+00
         21   -1    0    0  504  501  0.00000000000E+00  0.00000000000E+00  0.26444903348E+02  0.26444903348E+02  0.00000000000E+00 0. -1.
         21   -1    0    0  501  502 -0.00000000000E+00 -0.00000000000E+00 -0.56964392307E+03  0.56964392307E+03  0.00000000000E+00 0. -1.
         21    1    1    2  503  502  0.97492508230E+02  0.29825985307E+02 -0.43754192102E+03  0.44926307573E+03  0.00000000000E+00 0. -1.
         21    1    1    2  504  503 -0.97492508230E+02 -0.29825985307E+02 -0.10565709871E+03  0.14682575070E+03  0.00000000000E+00 0. -1.
<mgrwt>
<rscale>  2 0.10195283E+03</rscale>
<asrwt>0</asrwt>
<pdfrwt beam="1">  1       21 0.40684465E-02 0.10195283E+03</pdfrwt>
<pdfrwt beam="2">  1       21 0.87637531E-01 0.10195283E+03</pdfrwt>
<totfact> 0.43252107E+05</totfact>
</mgrwt>
</event>
<event>
 4    1  0.6052129E+003  0.1195812E+03  0.7546771E-02  0.1243790E+00
         21   -1    0    0  503  501  0.00000000000E+00  0.00000000000E+00  0.41863265180E+03  0.41863265180E+03  0.00000000000E+00 0. -1.
         21   -1    0    0  504  502 -0.00000000000E+00 -0.00000000000E+00 -0.34166864358E+02  0.34166864358E+02  0.00000000000E+00 0. -1.
         21    1    1    2  503  502  0.73399124093E+02 -0.94404583779E+02  0.18858756328E+03  0.22330455857E+03  0.00000000000E+00 0. -1.
         21    1    1    2  504  501 -0.73399124093E+02  0.94404583779E+02  0.19587822417E+03  0.22949495759E+03  0.00000000000E+00 0. -1.
<mgrwt>
<rscale>  2 0.11958117E+03</rscale>
<asrwt>0</asrwt>
<pdfrwt beam="1">  1       21 0.64405020E-01 0.11958117E+03</pdfrwt>
<pdfrwt beam="2">  1       21 0.52564410E-02 0.11958117E+03</pdfrwt>
<totfact> 0.55450520E+05</totfact>
</mgrwt>
</event>
<event>
 4    1  0.6052129E+003  0.1179520E+03  0.7546771E-02  0.1246514E+00
         21   -1    0    0  504  501  0.00000000000E+00  0.00000000000E+00  0.83415392902E+02  0.83415392902E+02  0.00000000000E+00 0.  1.
         21   -1    0    0  503  502 -0.00000000000E+00 -0.00000000000E+00 -0.40341348666E+03  0.40341348666E+03  0.00000000000E+00 0.  1.
         21    1    1    2  503  501 -0.85273270239E+02 -0.81493165917E+02 -0.34642317025E+03  0.36595311120E+03  0.00000000000E+00 0.  1.
         21    1    1    2  504  502  0.85273270239E+02  0.81493165917E+02  0.26425076498E+02  0.12087576836E+03  0.00000000000E+00 0.  1.
<mgrwt>
<rscale>  2 0.11795197E+03</rscale>
<asrwt>0</asrwt>
<pdfrwt beam="1">  1       21 0.12833138E-01 0.11795197E+03</pdfrwt>
<pdfrwt beam="2">  1       21 0.62063613E-01 0.11795197E+03</pdfrwt>
<totfact> 0.12874618E+05</totfact>
</mgrwt>
</event>
<event>
 4    1  0.6052129E+003  0.1466506E+03  0.7546771E-02  0.1204650E+00
         21   -1    0    0  503  501  0.00000000000E+00  0.00000000000E+00  0.12422599881E+04  0.12422599881E+04  0.00000000000E+00 0.  1.
         21   -1    0    0  504  502 -0.00000000000E+00 -0.00000000000E+00 -0.22222901121E+02  0.22222901121E+02  0.00000000000E+00 0. -1.
         21    1    1    2  503  502  0.70254122492E+02 -0.12872742828E+03  0.31281814849E+03  0.34548746221E+03  0.00000000000E+00 0. -1.
         21    1    1    2  504  501 -0.70254122492E+02  0.12872742828E+03  0.90721893850E+03  0.91899542702E+03  0.00000000000E+00 0.  1.
<mgrwt>
<rscale>  2 0.14665058E+03</rscale>
<asrwt>0</asrwt>
<pdfrwt beam="1">  1       21 0.19111687E+00 0.14665058E+03</pdfrwt>
<pdfrwt beam="2">  1       21 0.34189088E-02 0.14665058E+03</pdfrwt>
<totfact> 0.80330769E+04</totfact>
</mgrwt>
</event>
<event>
 4    1  0.6052129E+003  0.1309202E+03  0.7546771E-02  0.1226097E+00
         21   -1    0    0  504  501  0.00000000000E+00  0.00000000000E+00  0.79302854207E+02  0.79302854207E+02  0.00000000000E+00 0. -1.
         21   -1    0    0  503  502 -0.00000000000E+00 -0.00000000000E+00 -0.22232942611E+03  0.22232942611E+03  0.00000000000E+00 0. -1.
         21    1    1    2  503  501  0.49680392186E+00  0.13091926112E+03 -0.96687730537E+02  0.16275323955E+03  0.00000000000E+00 0. -1.
         21    1    1    2  504  502 -0.49680392186E+00 -0.13091926112E+03 -0.46338841364E+02  0.13887904077E+03  0.00000000000E+00 0. -1.
<mgrwt>
<rscale>  2 0.13092020E+03</rscale>
<asrwt>0</asrwt>
<pdfrwt beam="1">  1       21 0.12200439E-01 0.13092020E+03</pdfrwt>
<pdfrwt beam="2">  1       21 0.34204527E-01 0.13092020E+03</pdfrwt>
<totfact> 0.47324855E+05</totfact>
</mgrwt>
</event>
<event>
 4    1  0.6052129E+003  0.1036396E+03  0.7546771E-02  0.1272823E+00
         21   -1    0    0  502  501  0.00000000000E+00  0.00000000000E+00  0.16934699693E+04  0.16934699693E+04  0.00000000000E+00 0.  1.
         21   -1    0    0  503  502 -0.00000000000E+00 -0.00000000000E+00 -0.36160009415E+03  0.36160009415E+03  0.00000000000E+00 0.  1.
         21    1    1    2  503  504 -0.27447402621E+02 -0.99938997952E+02 -0.35254841766E+03  0.36746639304E+03  0.00000000000E+00 0.  1.
         21    1    1    2  504  501  0.27447402621E+02  0.99938997952E+02  0.16844182928E+04  0.16876036704E+04  0.00000000000E+00 0.  1.
<mgrwt>
<rscale>  2 0.10363958E+03</rscale>
<asrwt>0</asrwt>
<pdfrwt beam="1">  1       21 0.26053384E+00 0.10363958E+03</pdfrwt>
<pdfrwt beam="2">  1       21 0.55630785E-01 0.10363958E+03</pdfrwt>
<totfact> 0.20912288E+02</totfact>
</mgrwt>
</event>
<event>
 4    1  0.6052129E+003  0.1118239E+03  0.7546771E-02  0.1257229E+00
         21   -1    0    0  504  501  0.00000000000E+00  0.00000000000E+00  0.41199813956E+02  0.41199813956E+02  0.00000000000E+00 0.  1.
         21   -1    0    0  503  502 -0.00000000000E+00 -0.00000000000E+00 -0.31970228015E+03  0.31970228015E+03  0.00000000000E+00 0. -1.
         21    1    1    2  503  501 -0.11113392451E+03  0.12403333539E+02 -0.98641632391E+02  0.14911325730E+03  0.00000000000E+00 0.  1.
         21    1    1    2  504  502  0.11113392451E+03 -0.12403333539E+02 -0.17986083380E+03  0.21178883681E+03  0.00000000000E+00 0. -1.
<mgrwt>
<rscale>  2 0.11182393E+03</rscale>
<asrwt>0</asrwt>
<pdfrwt beam="1">  1       21 0.63384330E-02 0.11182393E+03</pdfrwt>
<pdfrwt beam="2">  1       21 0.49184966E-01 0.11182393E+03</pdfrwt>
<totfact> 0.71158414E+05</totfact>
</mgrwt>
</event>
<event>
 4    1  0.6052129E+003  0.1100476E+03  0.7546771E-02  0.1260482E+00
         21   -1    0    0  504  501  0.00000000000E+00  0.00000000000E+00  0.63380668389E+02  0.63380668389E+02  0.00000000000E+00 0.  1.
         21   -1    0    0  501  502 -0.00000000000E+00 -0.00000000000E+00 -0.63536540699E+03  0.63536540699E+03  0.00000000000E+00 0. -1.
         21    1    1    2  503  502 -0.10938467735E+03  0.12060855834E+02 -0.57814579895E+03  0.58852615637E+03  0.00000000000E+00 0. -1.
         21    1    1    2  504  503  0.10938467735E+03 -0.12060855834E+02  0.61610603525E+01  0.11021991901E+03  0.00000000000E+00 0.  1.
<mgrwt>
<rscale>  2 0.11004759E+03</rscale>
<asrwt>0</asrwt>
<pdfrwt beam="1">  1       21 0.97508720E-02 0.11004759E+03</pdfrwt>
<pdfrwt beam="2">  1       21 0.97748525E-01 0.11004759E+03</pdfrwt>
<totfact> 0.76489655E+04</totfact>
</mgrwt>
</event>
<event>
 4    1  0.6052129E+003  0.1086000E+03  0.7546771E-02  0.1263185E+00
         21   -1    0    0  504  501  0.00000000000E+00  0.00000000000E+00  0.59007734692E+02  0.59007734692E+02  0.00000000000E+00 0. -1.
         21   -1    0    0  501  502 -0.00000000000E+00 -0.00000000000E+00 -0.46877772744E+03  0.46877772744E+03  0.00000000000E+00 0.  1.
         21    1    1    2  503  502 -0.92586211030E+02 -0.56760493363E+02 -0.40475353302E+03  0.41906966315E+03  0.00000000000E+00 0.  1.
         21    1    1    2  504  503  0.92586211030E+02  0.56760493363E+02 -0.50164597248E+01  0.10871579898E+03  0.00000000000E+00 0. -1.
<mgrwt>
<rscale>  2 0.10860000E+03</rscale>
<asrwt>0</asrwt>
<pdfrwt beam="1">  1       21 0.90781130E-02 0.10860000E+03</pdfrwt>
<pdfrwt beam="2">  1       21 0.72119651E-01 0.10860000E+03</pdfrwt>
<totfact> 0.17147719E+05</totfact>
</mgrwt>
</event>
<event>
 4    1  0.6052129E+003  0.1221719E+03  0.7546771E-02  0.1239556E+00
         21   -1    0    0  503  501  0.00000000000E+00  0.00000000000E+00  0.24329119881E+03  0.24329119881E+03  0.00000000000E+00 0.  1.
         21   -1    0    0  504  502 -0.00000000000E+00 -0.00000000000E+00 -0.88916915596E+02  0.88916915596E+02  0.00000000000E+00 0.  1.
         21    1    1    2  503  502  0.73922970740E+02  0.97269581738E+02  0.16967402053E+03  0.20908192265E+03  0.00000000000E+00 0.  1.
         21    1    1    2  504  501 -0.73922970740E+02 -0.97269581738E+02 -0.15299737320E+02  0.12312619176E+03  0.00000000000E+00 0.  1.
<mgrwt>
<rscale>  2 0.12217192E+03</rscale>
<asrwt>0</asrwt>
<pdfrwt beam="1">  1       21 0.37429415E-01 0.12217192E+03</pdfrwt>
<pdfrwt beam="2">  1       21 0.13679526E-01 0.12217192E+03</pdfrwt>
<totfact> 0.32360946E+05</totfact>
</mgrwt>
</event>
<event>
 4    1  0.6052129E+003  0.1679075E+03  0.7546771E-02  0.1180048E+00
         21   -1    0    0  502  501  0.00000000000E+00  0.00000000000E+00  0.18085333972E+03  0.18085333972E+03  0.00000000000E+00 0. -1.
         21   -1    0    0  504  502 -0.00000000000E+00 -0.00000000000E+00 -0.17012643046E+03  0.17012643046E+03  0.00000000000E+00 0. -1.
         21    1    1    2  503  501  0.39729610930E+02 -0.16313950516E+03  0.56131559774E+02  0.17704149833E+03  0.00000000000E+00 0. -1.
         21    1    1    2  504  503 -0.39729610930E+02  0.16313950516E+03 -0.45404650515E+02  0.17393827186E+03  0.00000000000E+00 0. -1.
<mgrwt>
<rscale>  2 0.16790753E+03</rscale>
<asrwt>0</asrwt>
<pdfrwt beam="1">  1       21 0.27823591E-01 0.16790753E+03</pdfrwt>
<pdfrwt beam="2">  1       21 0.26173297E-01 0.16790753E+03</pdfrwt>
<totfact> 0.17242850E+05</totfact>
</mgrwt>
</event>
<event>
 4    1  0.6052129E+003  0.1177059E+03  0.7546771E-02  0.1246930E+00
         21   -1    0    0  502  501  0.00000000000E+00  0.00000000000E+00  0.90292730697E+02  0.90292730697E+02  0.00000000000E+00 0.  1.
         21   -1    0    0  503  502 -0.00000000000E+00 -0.00000000000E+00 -0.21998593839E+03  0.21998593839E+03  0.00000000000E+00 0.  1.
         21    1    1    2  503  504 -0.78254343340E+02  0.87925740872E+02 -0.15017221381E+03  0.19080453862E+03  0.00000000000E+00 0.  1.
         21    1    1    2  504  501  0.78254343340E+02 -0.87925740872E+02  0.20479006111E+02  0.11947413047E+03  0.00000000000E+00 0.  1.
<mgrwt>
<rscale>  2 0.11770590E+03</rscale>
<asrwt>0</asrwt>
<pdfrwt beam="1">  1       21 0.13891189E-01 0.11770590E+03</pdfrwt>
<pdfrwt beam="2">  1       21 0.33843990E-01 0.11770590E+03</pdfrwt>
<totfact> 0.38397562E+05</totfact>
</mgrwt>
</event>
<event>
 4    1  0.6052129E+003  0.1112224E+03  0.7546771E-02  0.1258323E+00
         21   -1    0    0  504  501  0.00000000000E+00  0.00000000000E+00  0.97115338590E+02  0.97115338590E+02  0.00000000000E+00 0. -1.
         21   -1    0    0  503  502 -0.00000000000E+00 -0.00000000000E+00 -0.18109259815E+03  0.18109259815E+03  0.00000000000E+00 0. -1.
         21    1    1    2  503  501 -0.93231984614E+02  0.60648312539E+02 -0.11774736331E+03  0.16197179487E+03  0.00000000000E+00 0. -1.
         21    1    1    2  504  502  0.93231984614E+02 -0.60648312539E+02  0.33770103746E+02  0.11623614187E+03  0.00000000000E+00 0. -1.
<mgrwt>
<rscale>  2 0.11122239E+03</rscale>
<asrwt>0</asrwt>
<pdfrwt beam="1">  1       21 0.14940822E-01 0.11122239E+03</pdfrwt>
<pdfrwt beam="2">  1       21 0.27860399E-01 0.11122239E+03</pdfrwt>
<totfact> 0.49071811E+05</totfact>
</mgrwt>
</event>
<event>
 4    1  0.6052129E+003  0.1004477E+03  0.7546771E-02  0.1279357E+00
         21   -1    0    0  504  501  0.00000000000E+00  0.00000000000E+00  0.33432590816E+02  0.33432590816E+02  0.00000000000E+00 0.  1.
         21   -1    0    0  503  502 -0.00000000000E+00 -0.00000000000E+00 -0.55294278723E+03  0.55294278723E+03  0.00000000000E+00 0. -1.
         21    1    1    2  503  501 -0.10014731969E+03  0.77626547578E+01 -0.62162143634E+02  0.11812652772E+03  0.00000000000E+00 0.  1.
         21    1    1    2  504  502  0.10014731969E+03 -0.77626547578E+01 -0.45734805278E+03  0.46824885033E+03  0.00000000000E+00 0. -1.
<mgrwt>
<rscale>  2 0.10044772E+03</rscale>
<asrwt>0</asrwt>
<pdfrwt beam="1">  1       21 0.51434755E-02 0.10044772E+03</pdfrwt>
<pdfrwt beam="2">  1       21 0.85068121E-01 0.10044772E+03</pdfrwt>
<totfact> 0.31330297E+05</totfact>
</mgrwt>
</event>
<event>
 4    1  0.6052129E+003  0.1038952E+03  0.7546771E-02  0.1272312E+00
         21   -1    0    0  502  501  0.00000000000E+00  0.00000000000E+00  0.83744543065E+02  0.83744543065E+02  0.00000000000E+00 0.  1.
         21   -1    0    0  503  502 -0.00000000000E+00 -0.00000000000E+00 -0.16398926124E+03  0.16398926124E+03  0.00000000000E+00 0.  1.
         21    1    1    2  503  504  0.32132782796E+02  0.98801300503E+02 -0.97424202245E+02  0.14242783399E+03  0.00000000000E+00 0.  1.
         21    1    1    2  504  501 -0.32132782796E+02 -0.98801300503E+02  0.17179484071E+02  0.10530597032E+03  0.00000000000E+00 0.  1.
<mgrwt>
<rscale>  2 0.10389520E+03</rscale>
<asrwt>0</asrwt>
<pdfrwt beam="1">  1       21 0.12883776E-01 0.10389520E+03</pdfrwt>
<pdfrwt beam="2">  1       21 0.25229117E-01 0.10389520E+03</pdfrwt>
<totfact> 0.77095833E+05</totfact>
</mgrwt>
</event>
<event>
 4    1  0.6052129E+003  0.1496946E+03  0.7546771E-02  0.1200849E+00
         21   -1    0    0  503  501  0.00000000000E+00  0.00000000000E+00  0.11167212851E+04  0.11167212851E+04  0.00000000000E+00 0. -1.
         21   -1    0    0  504  502 -0.00000000000E+00 -0.00000000000E+00 -0.46644519303E+02  0.46644519303E+02  0.00000000000E+00 0. -1.
         21    1    1    2  503  502  0.11201062306E+03 -0.99308090262E+02  0.97412362350E+03  0.98555837490E+03  0.00000000000E+00 0. -1.
         21    1    1    2  504  501 -0.11201062306E+03  0.99308090262E+02  0.95953142295E+02  0.17780742950E+03  0.00000000000E+00 0. -1.
<mgrwt>
<rscale>  2 0.14969461E+03</rscale>
<asrwt>0</asrwt>
<pdfrwt beam="1">  1       21 0.17180325E+00 0.14969461E+03</pdfrwt>
<pdfrwt beam="2">  1       21 0.71760807E-02 0.14969461E+03</pdfrwt>
<totfact> 0.30944766E+04</totfact>
</mgrwt>
</event>
<event>
 4    1  0.6052129E+003  0.1102072E+03  0.7546771E-02  0.1260187E+00
         21   -1    0    0  504  501  0.00000000000E+00  0.00000000000E+00  0.26203148347E+02  0.26203148347E+02  0.00000000000E+00 0.  1.
         21   -1    0    0  503  502 -0.00000000000E+00 -0.00000000000E+00 -0.47492402430E+03  0.47492402430E+03  0.00000000000E+00 0.  1.
         21    1    1    2  503  501  0.19536268177E+02 -0.10846180063E+03 -0.26319113390E+03  0.28533349073E+03  0.00000000000E+00 0.  1.
         21    1    1    2  504  502 -0.19536268177E+02  0.10846180063E+03 -0.18552974206E+03  0.21579368192E+03  0.00000000000E+00 0.  1.
<mgrwt>
<rscale>  2 0.11020720E+03</rscale>
<asrwt>0</asrwt>
<pdfrwt beam="1">  1       21 0.40312537E-02 0.11020720E+03</pdfrwt>
<pdfrwt beam="2">  1       21 0.73065232E-01 0.11020720E+03</pdfrwt>
<totfact> 0.65727936E+05</totfact>
</mgrwt>
</event>
<event>
 4    1  0.6052129E+003  0.1025673E+03  0.7546771E-02  0.1274988E+00
         21   -1    0    0  504  501  0.00000000000E+00  0.00000000000E+00  0.41945797553E+03  0.41945797553E+03  0.00000000000E+00 0. -1.
         21   -1    0    0  503  502 -0.00000000000E+00 -0.00000000000E+00 -0.13362051318E+03  0.13362051318E+03  0.00000000000E+00 0.  1.
         21    1    1    2  503  501 -0.80867663306E+02 -0.63090965524E+02 -0.10632023142E+03  0.14772961961E+03  0.00000000000E+00 0.  1.
         21    1    1    2  504  502  0.80867663306E+02  0.63090965524E+02  0.39215769377E+03  0.40534886910E+03  0.00000000000E+00 0. -1.
<mgrwt>
<rscale>  2 0.10256729E+03</rscale>
<asrwt>0</asrwt>
<pdfrwt beam="1">  1       21 0.64531996E-01 0.10256729E+03</pdfrwt>
<pdfrwt beam="2">  1       21 0.20557002E-01 0.10256729E+03</pdfrwt>
<totfact> 0.50956075E+04</totfact>
</mgrwt>
</event>
<event>
 4    1  0.6052129E+003  0.1267440E+03  0.7546771E-02  0.1232369E+00
         21   -1    0    0  504  501  0.00000000000E+00  0.00000000000E+00  0.63483148890E+02  0.63483148890E+02  0.00000000000E+00 0.  1.
         21   -1    0    0  501  502 -0.00000000000E+00 -0.00000000000E+00 -0.48368068302E+03  0.48368068302E+03  0.00000000000E+00 0.  1.
         21    1    1    2  503  502 -0.12671405504E+03 -0.27566689997E+01 -0.39901613875E+03  0.41866207131E+03  0.00000000000E+00 0.  1.
         21    1    1    2  504  503  0.12671405504E+03  0.27566689997E+01 -0.21181395382E+02  0.12850176060E+03  0.00000000000E+00 0.  1.
<mgrwt>
<rscale>  2 0.12674404E+03</rscale>
<asrwt>0</asrwt>
<pdfrwt beam="1">  1       21 0.97666381E-02 0.12674404E+03</pdfrwt>
<pdfrwt beam="2">  1       21 0.74412414E-01 0.12674404E+03</pdfrwt>
<totfact> 0.14008292E+05</totfact>
</mgrwt>
</event>
<event>
 4    1  0.6052129E+003  0.1084019E+03  0.7546771E-02  0.1263558E+00
         21   -1    0    0  504  501  0.00000000000E+00  0.00000000000E+00  0.26893506274E+03  0.26893506274E+03  0.00000000000E+00 0.  1.
         21   -1    0    0  503  502 -0.00000000000E+00 -0.00000000000E+00 -0.51751369987E+02  0.51751369987E+02  0.00000000000E+00 0.  1.
         21    1    1    2  503  501  0.85162989860E+02 -0.67068910005E+02  0.17185834532E+03  0.20319021725E+03  0.00000000000E+00 0.  1.
         21    1    1    2  504  502 -0.85162989860E+02  0.67068910005E+02  0.45325347434E+02  0.11749621548E+03  0.00000000000E+00 0.  1.
<mgrwt>
<rscale>  2 0.10840191E+03</rscale>
<asrwt>0</asrwt>
<pdfrwt beam="1">  1       21 0.41374624E-01 0.10840191E+03</pdfrwt>
<pdfrwt beam="2">  1       21 0.79617494E-02 0.10840191E+03</pdfrwt>
<totfact> 0.68443574E+05</totfact>
</mgrwt>
</event>
<event>
 4    1  0.6052129E+003  0.1005020E+03  0.7546771E-02  0.1279244E+00
         21   -1    0    0  503  501  0.00000000000E+00  0.00000000000E+00  0.13295925021E+03  0.13295925021E+03  0.00000000000E+00 0.  1.
         21   -1    0    0  504  502 -0.00000000000E+00 -0.00000000000E+00 -0.16558014964E+03  0.16558014964E+03  0.00000000000E+00 0. -1.
         21    1    1    2  503  502 -0.43726537203E+02 -0.90491137651E+02  0.93501810688E+02  0.13727069844E+03  0.00000000000E+00 0.  1.
         21    1    1    2  504  501  0.43726537203E+02  0.90491137651E+02 -0.12612271012E+03  0.16126870141E+03  0.00000000000E+00 0. -1.
<mgrwt>
<rscale>  2 0.10050202E+03</rscale>
<asrwt>0</asrwt>
<pdfrwt beam="1">  1       21 0.20455269E-01 0.10050202E+03</pdfrwt>
<pdfrwt beam="2">  1       21 0.25473869E-01 0.10050202E+03</pdfrwt>
<totfact> 0.32886832E+05</totfact>
</mgrwt>
</event>
<event>
 4    1  0.6052129E+003  0.1214005E+03  0.7546771E-02  0.1240804E+00
         21   -1    0    0  503  501  0.00000000000E+00  0.00000000000E+00  0.50679707776E+03  0.50679707776E+03  0.00000000000E+00 0.  1.
         21   -1    0    0  504  502 -0.00000000000E+00 -0.00000000000E+00 -0.73840600436E+02  0.73840600436E+02  0.00000000000E+00 0. -1.
         21    1    1    2  503  502 -0.20415183291E+02 -0.11967168952E+03 -0.95545309618E+01  0.12177595018E+03  0.00000000000E+00 0. -1.
         21    1    1    2  504  501  0.20415183291E+02  0.11967168952E+03  0.44251100829E+03  0.45886172802E+03  0.00000000000E+00 0.  1.
<mgrwt>
<rscale>  2 0.12140055E+03</rscale>
<asrwt>0</asrwt>
<pdfrwt beam="1">  1       21 0.77968779E-01 0.12140055E+03</pdfrwt>
<pdfrwt beam="2">  1       21 0.11360093E-01 0.12140055E+03</pdfrwt>
<totfact> 0.97137731E+04</totfact>
</mgrwt>
</event>
<event>
 4    1  0.6052129E+003  0.1081066E+03  0.7546771E-02  0.1264117E+00
         21   -1    0    0  504  501  0.00000000000E+00  0.00000000000E+00  0.42400577590E+03  0.42400577590E+03  0.00000000000E+00 0. -1.
         21   -1    0    0  503  502 -0.00000000000E+00 -0.00000000000E+00 -0.48390720119E+02  0.48390720119E+02  0.00000000000E+00 0. -1.
         21    1    1    2  503  501  0.87561034759E+02  0.63404295955E+02  0.32850115248E+02  0.11298747552E+03  0.00000000000E+00 0. -1.
         21    1    1    2  504  502 -0.87561034759E+02 -0.63404295955E+02  0.34276494053E+03  0.35940902049E+03  0.00000000000E+00 0. -1.
<mgrwt>
<rscale>  2 0.10810661E+03</rscale>
<asrwt>0</asrwt>
<pdfrwt beam="1">  1       21 0.65231655E-01 0.10810661E+03</pdfrwt>
<pdfrwt beam="2">  1       21 0.74447265E-02 0.10810661E+03</pdfrwt>
<totfact> 0.29964790E+05</totfact>
</mgrwt>
</event>
<event>
 4    1  0.6052129E+003  0.1190010E+03  0.7546771E-02  0.1244754E+00
         21   -1    0    0  503  501  0.00000000000E+00  0.00000000000E+00  0.25041820602E+03  0.25041820602E+03  0.00000000000E+00 0.  1.
         21   -1    0    0  504  502 -0.00000000000E+00 -0.00000000000E+00 -0.71954811346E+02  0.71954811346E+02  0.00000000000E+00 0. -1.
         21    1    1    2  503  502 -0.46869577570E+02 -0.10938231643E+03  0.14651866484E+02  0.11989964821E+03  0.00000000000E+00 0. -1.
         21    1    1    2  504  501  0.46869577570E+02  0.10938231643E+03  0.16381152819E+03  0.20247336916E+03  0.00000000000E+00 0.  1.
<mgrwt>
<rscale>  2 0.11900104E+03</rscale>
<asrwt>0</asrwt>
<pdfrwt beam="1">  1       21 0.38525877E-01 0.11900104E+03</pdfrwt>
<pdfrwt beam="2">  1       21 0.11069971E-01 0.11900104E+03</pdfrwt>
<totfact> 0.44489158E+05</totfact>
</mgrwt>
</event>
<event>
 4    1  0.6052129E+003  0.2011196E+03  0.7546771E-02  0.1148798E+00
         21   -1    0    0  504  501  0.00000000000E+00  0.00000000000E+00  0.10653957764E+04  0.10653957764E+04  0.00000000000E+00 0.  1.
         21   -1    0    0  503  502 -0.00000000000E+00 -0.00000000000E+00 -0.15003719956E+03  0.15003719956E+03  0.00000000000E+00 0. -1.
         21    1    1    2  503  501  0.17923539596E+03  0.91234623825E+02  0.98290752746E+03  0.10032727901E+04  0.00000000000E+00 0.  1.
         21    1    1    2  504  502 -0.17923539596E+03 -0.91234623825E+02 -0.67548950624E+02  0.21216018590E+03  0.00000000000E+00 0. -1.
<mgrwt>
<rscale>  2 0.20111958E+03</rscale>
<asrwt>0</asrwt>
<pdfrwt beam="1">  1       21 0.16390704E+00 0.20111958E+03</pdfrwt>
<pdfrwt beam="2">  1       21 0.23082647E-01 0.20111958E+03</pdfrwt>
<totfact> 0.41254146E+03</totfact>
</mgrwt>
</event>
<event>
 4    1  0.6052129E+003  0.1828695E+03  0.7546771E-02  0.1165055E+00
         21   -1    0    0  503  501  0.00000000000E+00  0.00000000000E+00  0.49664445838E+02  0.49664445838E+02  0.00000000000E+00 0. -1.
         21   -1    0    0  504  502 -0.00000000000E+00 -0.00000000000E+00 -0.80368179567E+03  0.80368179567E+03  0.00000000000E+00 0.  1.
         21    1    1    2  503  502 -0.17669591365E+03  0.47114702169E+02 -0.54883469326E+03  0.57849871356E+03  0.00000000000E+00 0. -1.
         21    1    1    2  504  501  0.17669591365E+03 -0.47114702169E+02 -0.20518265657E+03  0.27484752795E+03  0.00000000000E+00 0.  1.
<mgrwt>
<rscale>  2 0.18286946E+03</rscale>
<asrwt>0</asrwt>
<pdfrwt beam="1">  1       21 0.76406842E-02 0.18286946E+03</pdfrwt>
<pdfrwt beam="2">  1       21 0.12364335E+00 0.18286946E+03</pdfrwt>
<totfact> 0.64026173E+04</totfact>
</mgrwt>
</event>
<event>
 4    1  0.6052129E+003  0.1367729E+03  0.7546771E-02  0.1217738E+00
         21   -1    0    0  502  501  0.00000000000E+00  0.00000000000E+00  0.72219992793E+03  0.72219992793E+03  0.00000000000E+00 0. -1.
         21   -1    0    0  503  502 -0.00000000000E+00 -0.00000000000E+00 -0.32279021942E+02  0.32279021942E+02  0.00000000000E+00 0.  1.
         21    1    1    2  503  504  0.12267449028E+03 -0.60479809623E+02  0.17729394600E+03  0.22391958651E+03  0.00000000000E+00 0.  1.
         21    1    1    2  504  501 -0.12267449028E+03  0.60479809623E+02  0.51262695999E+03  0.53055936336E+03  0.00000000000E+00 0. -1.
<mgrwt>
<rscale>  2 0.13677294E+03</rscale>
<asrwt>0</asrwt>
<pdfrwt beam="1">  1       21 0.11110767E+00 0.13677294E+03</pdfrwt>
<pdfrwt beam="2">  1       21 0.49660039E-02 0.13677294E+03</pdfrwt>
<totfact> 0.17691241E+05</totfact>
</mgrwt>
</event>
<event>
 4    1  0.6052129E+003  0.1288890E+03  0.7546771E-02  0.1229114E+00
         21   -1    0    0  504  501  0.00000000000E+00  0.00000000000E+00  0.30206866884E+03  0.30206866884E+03  0.00000000000E+00 0.  1.
         21   -1    0    0  503  502 -0.00000000000E+00 -0.00000000000E+00 -0.58012925657E+02  0.58012925657E+02  0.00000000000E+00 0.  1.
         21    1    1    2  503  501 -0.57050189299E+02 -0.11557531880E+03  0.80966245995E+02  0.15221008970E+03  0.00000000000E+00 0.  1.
         21    1    1    2  504  502  0.57050189299E+02  0.11557531880E+03  0.16308949719E+03  0.20787150480E+03  0.00000000000E+00 0.  1.
<mgrwt>
<rscale>  2 0.12888902E+03</rscale>
<asrwt>0</asrwt>
<pdfrwt beam="1">  1       21 0.46472102E-01 0.12888902E+03</pdfrwt>
<pdfrwt beam="2">  1       21 0.89250657E-02 0.12888902E+03</pdfrwt>
<totfact> 0.44394007E+05</totfact>
</mgrwt>
</event>
<event>
 4    1  0.6052129E+003  0.1061659E+03  0.7546771E-02  0.1267839E+00
         21   -1    0    0  503  501  0.00000000000E+00  0.00000000000E+00  0.10403347754E+03  0.10403347754E+03  0.00000000000E+00 0. -1.
         21   -1    0    0  504  502 -0.00000000000E+00 -0.00000000000E+00 -0.81643224409E+03  0.81643224409E+03  0.00000000000E+00 0.  1.
         21    1    1    2  503  502 -0.17168338441E+02  0.10476851646E+03 -0.78480894841E+03  0.79195724594E+03  0.00000000000E+00 0.  1.
         21    1    1    2  504  501  0.17168338441E+02 -0.10476851646E+03  0.72410181862E+02  0.12850847568E+03  0.00000000000E+00 0. -1.
<mgrwt>
<rscale>  2 0.10616588E+03</rscale>
<asrwt>0</asrwt>
<pdfrwt beam="1">  1       21 0.16005150E-01 0.10616588E+03</pdfrwt>
<pdfrwt beam="2">  1       21 0.12560496E+00 0.10616588E+03</pdfrwt>
<totfact> 0.17571575E+04</totfact>
</mgrwt>
</event>
<event>
 4    1  0.6052129E+003  0.1152094E+03  0.7546771E-02  0.1251216E+00
         21   -1    0    0  502  501  0.00000000000E+00  0.00000000000E+00  0.24224821033E+03  0.24224821033E+03  0.00000000000E+00 0. -1.
         21   -1    0    0  503  502 -0.00000000000E+00 -0.00000000000E+00 -0.14200619057E+03  0.14200619057E+03  0.00000000000E+00 0. -1.
         21    1    1    2  503  504 -0.18254891055E+02 -0.11375395815E+03 -0.10044585542E+03  0.15284820547E+03  0.00000000000E+00 0. -1.
         21    1    1    2  504  501  0.18254891055E+02  0.11375395815E+03  0.20068787518E+03  0.23140619544E+03  0.00000000000E+00 0. -1.
<mgrwt>
<rscale>  2 0.11520939E+03</rscale>
<asrwt>0</asrwt>
<pdfrwt beam="1">  1       21 0.37268955E-01 0.11520939E+03</pdfrwt>
<pdfrwt beam="2">  1       21 0.21847106E-01 0.11520939E+03</pdfrwt>
<totfact> 0.13938705E+05</totfact>
</mgrwt>
</event>
<event>
 4    1  0.6052129E+003  0.1067866E+03  0.7546771E-02  0.1266639E+00
         21   -1    0    0  503  501  0.00000000000E+00  0.00000000000E+00  0.55729971415E+02  0.55729971415E+02  0.00000000000E+00 0.  1.
         21   -1    0    0  504  502 -0.00000000000E+00 -0.00000000000E+00 -0.21794520466E+03  0.21794520466E+03  0.00000000000E+00 0. -1.
         21    1    1    2  503  502  0.65485791518E+01 -0.10658563330E+03 -0.11494476337E+03  0.15689384864E+03  0.00000000000E+00 0. -1.
         21    1    1    2  504  501 -0.65485791518E+01  0.10658563330E+03 -0.47270469875E+02  0.11678132743E+03  0.00000000000E+00 0.  1.
<mgrwt>
<rscale>  2 0.10678661E+03</rscale>
<asrwt>0</asrwt>
<pdfrwt beam="1">  1       21 0.85738416E-02 0.10678661E+03</pdfrwt>
<pdfrwt beam="2">  1       21 0.33530032E-01 0.10678661E+03</pdfrwt>
<totfact> 0.91173817E+05</totfact>
</mgrwt>
</event>
<event>
 4    1  0.6052129E+003  0.1125870E+03  0.7546771E-02  0.1255853E+00
         21   -1    0    0  503  501  0.00000000000E+00  0.00000000000E+00  0.32803479911E+03  0.32803479911E+03  0.00000000000E+00 0. -1.
         21   -1    0    0  504  502 -0.00000000000E+00 -0.00000000000E+00 -0.50455782799E+02  0.50455782799E+02  0.00000000000E+00 0. -1.
         21    1    1    2  503  502 -0.91508167201E+02 -0.65590263845E+02  0.47216110541E+02  0.12208680711E+03  0.00000000000E+00 0. -1.
         21    1    1    2  504  501  0.91508167201E+02  0.65590263845E+02  0.23036290577E+03  0.25640377479E+03  0.00000000000E+00 0. -1.
<mgrwt>
<rscale>  2 0.11258698E+03</rscale>
<asrwt>0</asrwt>
<pdfrwt beam="1">  1       21 0.50466891E-01 0.11258698E+03</pdfrwt>
<pdfrwt beam="2">  1       21 0.77624284E-02 0.11258698E+03</pdfrwt>
<totfact> 0.47775163E+05</totfact>
</mgrwt>
</event>
<event>
 4    1  0.6052129E+003  0.1000318E+03  0.7546771E-02  0.1280229E+00
         21   -1    0    0  503  501  0.00000000000E+00  0.00000000000E+00  0.27379232439E+03  0.27379232439E+03  0.00000000000E+00 0. -1.
         21   -1    0    0  501  502 -0.00000000000E+00 -0.00000000000E+00 -0.36552939616E+02  0.36552939616E+02  0.00000000000E+00 0. -1.
         21    1    1    2  503  504 -0.61709361807E+02 -0.78729367372E+02  0.11668503806E+03  0.15369371076E+03  0.00000000000E+00 0. -1.
         21    1    1    2  504  502  0.61709361807E+02  0.78729367372E+02  0.12055434672E+03  0.15665155325E+03  0.00000000000E+00 0. -1.
<mgrwt>
<rscale>  2 0.10003179E+03</rscale>
<asrwt>0</asrwt>
<pdfrwt beam="1">  1       21 0.42121895E-01 0.10003179E+03</pdfrwt>
<pdfrwt beam="2">  1       21 0.56235294E-02 0.10003179E+03</pdfrwt>
<totfact> 0.11902967E+06</totfact>
</mgrwt>
</event>
<event>
 4    1  0.6052129E+003  0.1500455E+03  0.7546771E-02  0.1200417E+00
         21   -1    0    0  502  501  0.00000000000E+00  0.00000000000E+00  0.18020886353E+03  0.18020886353E+03  0.00000000000E+00 0.  1.
         21   -1    0    0  503  502 -0.00000000000E+00 -0.00000000000E+00 -0.14606305819E+03  0.14606305819E+03  0.00000000000E+00 0.  1.
         21    1    1    2  503  504 -0.60492957644E+02 -0.13731081551E+03 -0.44978456142E+02  0.15664201064E+03  0.00000000000E+00 0.  1.
         21    1    1    2  504  501  0.60492957644E+02  0.13731081551E+03  0.79124261479E+02  0.16962991108E+03  0.00000000000E+00 0.  1.
<mgrwt>
<rscale>  2 0.15004552E+03</rscale>
<asrwt>0</asrwt>
<pdfrwt beam="1">  1       21 0.27724441E-01 0.15004552E+03</pdfrwt>
<pdfrwt beam="2">  1       21 0.22471240E-01 0.15004552E+03</pdfrwt>
<totfact> 0.23287162E+05</totfact>
</mgrwt>
</event>
<event>
 4    1  0.6052129E+003  0.1340640E+03  0.7546771E-02  0.1221547E+00
         21   -1    0    0  504  501  0.00000000000E+00  0.00000000000E+00  0.25144640610E+03  0.25144640610E+03  0.00000000000E+00 0.  1.
         21   -1    0    0  501  502 -0.00000000000E+00 -0.00000000000E+00 -0.78888036065E+02  0.78888036065E+02  0.00000000000E+00 0. -1.
         21    1    1    2  503  502 -0.13256924165E+03 -0.19963718322E+02  0.35662085698E+02  0.13872612673E+03  0.00000000000E+00 0. -1.
         21    1    1    2  504  503  0.13256924165E+03  0.19963718322E+02  0.13689628434E+03  0.19160831544E+03  0.00000000000E+00 0.  1.
<mgrwt>
<rscale>  2 0.13406399E+03</rscale>
<asrwt>0</asrwt>
<pdfrwt beam="1">  1       21 0.38684062E-01 0.13406399E+03</pdfrwt>
<pdfrwt beam="2">  1       21 0.12136621E-01 0.13406399E+03</pdfrwt>
<totfact> 0.37445336E+05</totfact>
</mgrwt>
</event>
<event>
 4    1  0.6052129E+003  0.1604012E+03  0.7546771E-02  0.1188244E+00
         21   -1    0    0  504  501  0.00000000000E+00  0.00000000000E+00  0.16748937801E+02  0.16748937801E+02  0.00000000000E+00 0. -1.
         21   -1    0    0  503  502 -0.00000000000E+00 -0.00000000000E+00 -0.15443418645E+04  0.15443418645E+04  0.00000000000E+00 0. -1.
         21    1    1    2  503  501  0.82048517101E+02  0.13782815193E+03 -0.82071151399E+03  0.83623916903E+03  0.00000000000E+00 0. -1.
         21    1    1    2  504  502 -0.82048517101E+02 -0.13782815193E+03 -0.70688141267E+03  0.72485163323E+03  0.00000000000E+00 0. -1.
<mgrwt>
<rscale>  2 0.16040124E+03</rscale>
<asrwt>0</asrwt>
<pdfrwt beam="1">  1       21 0.25767606E-02 0.16040124E+03</pdfrwt>
<pdfrwt beam="2">  1       21 0.23759097E+00 0.16040124E+03</pdfrwt>
<totfact> 0.65598997E+04</totfact>
</mgrwt>
</event>
<event>
 4    1  0.6052129E+003  0.1316727E+03  0.7546771E-02  0.1224995E+00
         21   -1    0    0  504  501  0.00000000000E+00  0.00000000000E+00  0.41612776876E+03  0.41612776876E+03  0.00000000000E+00 0.  1.
         21   -1    0    0  503  502 -0.00000000000E+00 -0.00000000000E+00 -0.88275258192E+02  0.88275258192E+02  0.00000000000E+00 0. -1.
         21    1    1    2  503  501 -0.12955191122E+03 -0.23537257412E+02  0.34718803183E+03  0.37131823230E+03  0.00000000000E+00 0.  1.
         21    1    1    2  504  502  0.12955191122E+03  0.23537257412E+02 -0.19335521267E+02  0.13308479466E+03  0.00000000000E+00 0. -1.
<mgrwt>
<rscale>  2 0.13167270E+03</rscale>
<asrwt>0</asrwt>
<pdfrwt beam="1">  1       21 0.64019656E-01 0.13167270E+03</pdfrwt>
<pdfrwt beam="2">  1       21 0.13580809E-01 0.13167270E+03</pdfrwt>
<totfact> 0.10832233E+05</totfact>
</mgrwt>
</event>
<event>
 4    1  0.6052129E+003  0.1107139E+03  0.7546771E-02  0.1259254E+00
         21   -1    0    0  504  501  0.00000000000E+00  0.00000000000E+00  0.10467188956E+03  0.10467188956E+03  0.00000000000E+00 0.  1.
         21   -1    0    0  501  502 -0.00000000000E+00 -0.00000000000E+00 -0.13941830773E+03  0.13941830773E+03  0.00000000000E+00 0. -1.
         21    1    1    2  503  502 -0.94997043126E+02 -0.56860591841E+02 -0.66198609328E+02  0.12899543009E+03  0.00000000000E+00 0. -1.
         21    1    1    2  504  503  0.94997043126E+02  0.56860591841E+02  0.31452191159E+02  0.11509476720E+03  0.00000000000E+00 0.  1.
<mgrwt>
<rscale>  2 0.11071389E+03</rscale>
<asrwt>0</asrwt>
<pdfrwt beam="1">  1       21 0.16103368E-01 0.11071389E+03</pdfrwt>
<pdfrwt beam="2">  1       21 0.21448970E-01 0.11071389E+03</pdfrwt>
<totfact> 0.70077009E+05</totfact>
</mgrwt>
</event>
<event>
 4    1  0.6052129E+003  0.1194977E+03  0.7546771E-02  0.1243928E+00
         21   -1    0    0  502  501  0.00000000000E+00  0.00000000000E+00  0.12265729214E+03  0.12265729214E+03  0.00000000000E+00 0.  1.
         21   -1    0    0  504  502 -0.00000000000E+00 -0.00000000000E+00 -0.11716691989E+03  0.11716691989E+03  0.00000000000E+00 0.  1.
         21    1    1    2  503  501  0.99409997649E+02  0.66312500557E+02  0.12322755507E+02  0.12013136837E+03  0.00000000000E+00 0.  1.
         21    1    1    2  504  503 -0.99409997649E+02 -0.66312500557E+02 -0.68323832632E+01  0.11969284366E+03  0.00000000000E+00 0.  1.
<mgrwt>
<rscale>  2 0.11949768E+03</rscale>
<asrwt>0</asrwt>
<pdfrwt beam="1">  1       21 0.18870353E-01 0.11949768E+03</pdfrwt>
<pdfrwt beam="2">  1       21 0.18025680E-01 0.11949768E+03</pdfrwt>
<totfact> 0.72322073E+05</totfact>
</mgrwt>
</event>
<event>
 4    1  0.6052129E+003  0.1243325E+03  0.7546771E-02  0.1236116E+00
         21   -1    0    0  503  501  0.00000000000E+00  0.00000000000E+00  0.79626638004E+02  0.79626638004E+02  0.00000000000E+00 0. -1.
         21   -1    0    0  501  502 -0.00000000000E+00 -0.00000000000E+00 -0.20038962070E+03  0.20038962070E+03  0.00000000000E+00 0. -1.
         21    1    1    2  503  504  0.90312457179E+02  0.85453124312E+02 -0.35652683974E+02  0.12934330385E+03  0.00000000000E+00 0. -1.
         21    1    1    2  504  502 -0.90312457179E+02 -0.85453124312E+02 -0.85110298725E+02  0.15067295486E+03  0.00000000000E+00 0. -1.
<mgrwt>
<rscale>  2 0.12433252E+03</rscale>
<asrwt>0</asrwt>
<pdfrwt beam="1">  1       21 0.12250252E-01 0.12433252E+03</pdfrwt>
<pdfrwt beam="2">  1       21 0.30829172E-01 0.12433252E+03</pdfrwt>
<totfact> 0.57535240E+05</totfact>
</mgrwt>
</event>
<event>
 4    1  0.6052129E+003  0.1185090E+03  0.7546771E-02  0.1245577E+00
         21   -1    0    0  504  501  0.00000000000E+00  0.00000000000E+00  0.30540539088E+03  0.30540539088E+03  0.00000000000E+00 0.  1.
         21   -1    0    0  503  502 -0.00000000000E+00 -0.00000000000E+00 -0.14569290654E+03  0.14569290654E+03  0.00000000000E+00 0. -1.
         21    1    1    2  503  501  0.11359177844E+03  0.33782835642E+02  0.26644462946E+03  0.29161123552E+03  0.00000000000E+00 0.  1.
         21    1    1    2  504  502 -0.11359177844E+03 -0.33782835642E+02 -0.10673214512E+03  0.15948706190E+03  0.00000000000E+00 0. -1.
<mgrwt>
<rscale>  2 0.11850895E+03</rscale>
<asrwt>0</asrwt>
<pdfrwt beam="1">  1       21 0.46985445E-01 0.11850895E+03</pdfrwt>
<pdfrwt beam="2">  1       21 0.22414293E-01 0.11850895E+03</pdfrwt>
<totfact> 0.83374359E+04</totfact>
</mgrwt>
</event>
<event>
 4    1  0.6052129E+003  0.1171744E+03  0.7546771E-02  0.1247833E+00
         21   -1    0    0  504  501  0.00000000000E+00  0.00000000000E+00  0.72831807260E+03  0.72831807260E+03  0.00000000000E+00 0. -1.
         21   -1    0    0  503  502 -0.00000000000E+00 -0.00000000000E+00 -0.40606999349E+02  0.40606999349E+02  0.00000000000E+00 0. -1.
         21    1    1    2  503  501  0.82575651621E+02  0.83132970150E+02  0.62526514128E+03  0.63614960966E+03  0.00000000000E+00 0. -1.
         21    1    1    2  504  502 -0.82575651621E+02 -0.83132970150E+02  0.62445931964E+02  0.13277546229E+03  0.00000000000E+00 0. -1.
<mgrwt>
<rscale>  2 0.11717435E+03</rscale>
<asrwt>0</asrwt>
<pdfrwt beam="1">  1       21 0.11204892E+00 0.11717435E+03</pdfrwt>
<pdfrwt beam="2">  1       21 0.62472312E-02 0.11717435E+03</pdfrwt>
<totfact> 0.11862546E+05</totfact>
</mgrwt>
</event>
<event>
 4    1  0.6052129E+003  0.1375134E+03  0.7546771E-02  0.1216715E+00
         21   -1    0    0  504  501  0.00000000000E+00  0.00000000000E+00  0.32574194339E+02  0.32574194339E+02  0.00000000000E+00 0. -1.
         21   -1    0    0  503  502 -0.00000000000E+00 -0.00000000000E+00 -0.67156653072E+03  0.67156653072E+03  0.00000000000E+00 0. -1.
         21    1    1    2  503  501 -0.47093723372E+02  0.12919792758E+03 -0.44913053862E+03  0.46971072373E+03  0.00000000000E+00 0. -1.
         21    1    1    2  504  502  0.47093723372E+02 -0.12919792758E+03 -0.18986179777E+03  0.23443000133E+03  0.00000000000E+00 0. -1.
<mgrwt>
<rscale>  2 0.13751336E+03</rscale>
<asrwt>0</asrwt>
<pdfrwt beam="1">  1       21 0.50114144E-02 0.13751336E+03</pdfrwt>
<pdfrwt beam="2">  1       21 0.10331793E+00 0.13751336E+03</pdfrwt>
<totfact> 0.20712323E+05</totfact>
</mgrwt>
</event>
<event>
 4    1  0.6052129E+003  0.1095826E+03  0.7546771E-02  0.1261345E+00
         21   -1    0    0  503  501  0.00000000000E+00  0.00000000000E+00  0.48765670257E+03  0.48765670257E+03  0.00000000000E+00 0. -1.
         21   -1    0    0  504  502 -0.00000000000E+00 -0.00000000000E+00 -0.34481501445E+02  0.34481501445E+02  0.00000000000E+00 0. -1.
         21    1    1    2  503  502  0.10810173809E+03  0.17954343768E+02  0.36617072475E+03  0.38221635745E+03  0.00000000000E+00 0. -1.
         21    1    1    2  504  501 -0.10810173809E+03 -0.17954343768E+02  0.87004476381E+02  0.13992184657E+03  0.00000000000E+00 0. -1.
<mgrwt>
<rscale>  2 0.10958259E+03</rscale>
<asrwt>0</asrwt>
<pdfrwt beam="1">  1       21 0.75024103E-01 0.10958259E+03</pdfrwt>
<pdfrwt beam="2">  1       21 0.53048467E-02 0.10958259E+03</pdfrwt>
<totfact> 0.39255182E+05</totfact>
</mgrwt>
</event>
<event>
 4    1  0.6052129E+003  0.1174142E+03  0.7546771E-02  0.1247425E+00
         21   -1    0    0  504  501  0.00000000000E+00  0.00000000000E+00  0.11171183031E+03  0.11171183031E+03  0.00000000000E+00 0.  1.
         21   -1    0    0  503  502 -0.00000000000E+00 -0.00000000000E+00 -0.21635225432E+03  0.21635225432E+03  0.00000000000E+00 0. -1.
         21    1    1    2  503  501  0.70350240408E+02  0.94004966358E+02  0.55192585867E+02  0.12973939864E+03  0.00000000000E+00 0.  1.
         21    1    1    2  504  502 -0.70350240408E+02 -0.94004966358E+02 -0.15983300988E+03  0.19832468599E+03  0.00000000000E+00 0. -1.
<mgrwt>
<rscale>  2 0.11741418E+03</rscale>
<asrwt>0</asrwt>
<pdfrwt beam="1">  1       21 0.17186436E-01 0.11741418E+03</pdfrwt>
<pdfrwt beam="2">  1       21 0.33284962E-01 0.11741418E+03</pdfrwt>
<totfact> 0.27025173E+05</totfact>
</mgrwt>
</event>
<event>
 4    1  0.6052129E+003  0.1177930E+03  0.7546771E-02  0.1246783E+00
         21   -1    0    0  502  501  0.00000000000E+00  0.00000000000E+00  0.64249681281E+03  0.64249681281E+03  0.00000000000E+00 0.  1.
         21   -1    0    0  503  502 -0.00000000000E+00 -0.00000000000E+00 -0.24136858221E+02  0.24136858221E+02  0.00000000000E+00 0.  1.
         21    1    1    2  503  504 -0.27365903712E+02  0.11457003751E+03  0.20102901917E+03  0.23299753804E+03  0.00000000000E+00 0.  1.
         21    1    1    2  504  501  0.27365903712E+02 -0.11457003751E+03  0.41733093542E+03  0.43363613299E+03  0.00000000000E+00 0.  1.
<mgrwt>
<rscale>  2 0.11779298E+03</rscale>
<asrwt>0</asrwt>
<pdfrwt beam="1">  1       21 0.98845651E-01 0.11779298E+03</pdfrwt>
<pdfrwt beam="2">  1       21 0.37133633E-02 0.11779298E+03</pdfrwt>
<totfact> 0.38072107E+05</totfact>
</mgrwt>
</event>
<event>
 4    1  0.6052129E+003  0.1670362E+03  0.7546771E-02  0.1180974E+00
         21   -1    0    0  502  501  0.00000000000E+00  0.00000000000E+00  0.34680100041E+03  0.34680100041E+03  0.00000000000E+00 0. -1.
         21   -1    0    0  503  502 -0.00000000000E+00 -0.00000000000E+00 -0.10699780730E+04  0.10699780730E+04  0.00000000000E+00 0.  1.
         21    1    1    2  503  504  0.13551711403E+03 -0.97653539946E+02 -0.10428254147E+04  0.10561183398E+04  0.00000000000E+00 0.  1.
         21    1    1    2  504  501 -0.13551711403E+03  0.97653539946E+02  0.31964834219E+03  0.36066073355E+03  0.00000000000E+00 0. -1.
<mgrwt>
<rscale>  2 0.16703623E+03</rscale>
<asrwt>0</asrwt>
<pdfrwt beam="1">  1       21 0.53354000E-01 0.16703623E+03</pdfrwt>
<pdfrwt beam="2">  1       21 0.16461201E+00 0.16703623E+03</pdfrwt>
<totfact> 0.79863044E+02</totfact>
</mgrwt>
</event>
<event>
 4    1  0.6052129E+003  0.1295412E+03  0.7546771E-02  0.1228138E+00
         21   -1    0    0  503  501  0.00000000000E+00  0.00000000000E+00  0.63780247449E+01  0.63780247449E+01  0.00000000000E+00 0.  1.
         21   -1    0    0  504  502 -0.00000000000E+00 -0.00000000000E+00 -0.27609591704E+04  0.27609591704E+04  0.00000000000E+00 0.  1.
         21    1    1    2  503  502  0.28173888582E+02 -0.12644032011E+03 -0.16774255524E+04  0.16824201041E+04  0.00000000000E+00 0.  1.
         21    1    1    2  504  501 -0.28173888582E+02  0.12644032011E+03 -0.10771555932E+04  0.10849170911E+04  0.00000000000E+00 0.  1.
<mgrwt>
<rscale>  2 0.12954120E+03</rscale>
<asrwt>0</asrwt>
<pdfrwt beam="1">  1       21 0.98123401E-03 0.12954120E+03</pdfrwt>
<pdfrwt beam="2">  1       21 0.42476319E+00 0.12954120E+03</pdfrwt>
<totfact> 0.25742393E+04</totfact>
</mgrwt>
</event>
<event>
 4    1  0.6052129E+003  0.1235506E+03  0.7546771E-02  0.1237352E+00
         21   -1    0    0  503  501  0.00000000000E+00  0.00000000000E+00  0.32434409940E+03  0.32434409940E+03  0.00000000000E+00 0.  1.
         21   -1    0    0  504  502 -0.00000000000E+00 -0.00000000000E+00 -0.94386905743E+03  0.94386905743E+03  0.00000000000E+00 0.  1.
         21    1    1    2  503  502  0.67451980404E+02 -0.10351314369E+03  0.30833297654E+03  0.33216556866E+03  0.00000000000E+00 0.  1.
         21    1    1    2  504  501 -0.67451980404E+02  0.10351314369E+03 -0.92785793457E+03  0.93604758817E+03  0.00000000000E+00 0.  1.
<mgrwt>
<rscale>  2 0.12355056E+03</rscale>
<asrwt>0</asrwt>
<pdfrwt beam="1">  1       21 0.49899092E-01 0.12355056E+03</pdfrwt>
<pdfrwt beam="2">  1       21 0.14521063E+00 0.12355056E+03</pdfrwt>
<totfact> 0.13525515E+03</totfact>
</mgrwt>
</event>
<event>
 4    1  0.6052129E+003  0.1079685E+03  0.7546771E-02  0.1264379E+00
         21   -1    0    0  504  501  0.00000000000E+00  0.00000000000E+00  0.57067917162E+02  0.57067917162E+02  0.00000000000E+00 0.  1.
         21   -1    0    0  503  502 -0.00000000000E+00 -0.00000000000E+00 -0.38645437209E+03  0.38645437209E+03  0.00000000000E+00 0.  1.
         21    1    1    2  503  501 -0.60592231396E+02 -0.89363147634E+02 -0.31695589083E+03  0.33484059997E+03  0.00000000000E+00 0.  1.
         21    1    1    2  504  502  0.60592231396E+02  0.89363147634E+02 -0.12430564102E+02  0.10868168928E+03  0.00000000000E+00 0.  1.
<mgrwt>
<rscale>  2 0.10796847E+03</rscale>
<asrwt>0</asrwt>
<pdfrwt beam="1">  1       21 0.87796796E-02 0.10796847E+03</pdfrwt>
<pdfrwt beam="2">  1       21 0.59454519E-01 0.10796847E+03</pdfrwt>
<totfact> 0.27493915E+05</totfact>
</mgrwt>
</event>
<event>
 4    1  0.6052129E+003  0.1260623E+03  0.7546771E-02  0.1233418E+00
         21   -1    0    0  504  501  0.00000000000E+00  0.00000000000E+00  0.10437778135E+03  0.10437778135E+03  0.00000000000E+00 0. -1.
         21   -1    0    0  503  502 -0.00000000000E+00 -0.00000000000E+00 -0.27936067274E+03  0.27936067274E+03  0.00000000000E+00 0.  1.
         21    1    1    2  503  501  0.78680641883E+02  0.98494019412E+02  0.41931255292E+02  0.13285309721E+03  0.00000000000E+00 0. -1.
         21    1    1    2  504  502 -0.78680641883E+02 -0.98494019412E+02 -0.21691414668E+03  0.25088535688E+03  0.00000000000E+00 0.  1.
<mgrwt>
<rscale>  2 0.12606235E+03</rscale>
<asrwt>0</asrwt>
<pdfrwt beam="1">  1       21 0.16058121E-01 0.12606235E+03</pdfrwt>
<pdfrwt beam="2">  1       21 0.42978564E-01 0.12606235E+03</pdfrwt>
<totfact> 0.18383592E+05</totfact>
</mgrwt>
</event>
<event>
 4    1  0.6052129E+003  0.1351318E+03  0.7546771E-02  0.1220034E+00
         21   -1    0    0  504  501  0.00000000000E+00  0.00000000000E+00  0.80258593507E+01  0.80258593507E+01  0.00000000000E+00 0.  1.
         21   -1    0    0  503  502 -0.00000000000E+00 -0.00000000000E+00 -0.30588503431E+04  0.30588503431E+04  0.00000000000E+00 0. -1.
         21    1    1    2  503  501 -0.66926183865E+02 -0.11739464540E+03 -0.74926873729E+03  0.76135685296E+03  0.00000000000E+00 0.  1.
         21    1    1    2  504  502  0.66926183865E+02  0.11739464540E+03 -0.23015557465E+04  0.23055193495E+04  0.00000000000E+00 0. -1.
<mgrwt>
<rscale>  2 0.13513185E+03</rscale>
<asrwt>0</asrwt>
<pdfrwt beam="1">  1       21 0.12347454E-02 0.13513185E+03</pdfrwt>
<pdfrwt beam="2">  1       21 0.47059321E+00 0.13513185E+03</pdfrwt>
<totfact> 0.88945580E+03</totfact>
</mgrwt>
</event>
<event>
 4    1  0.6052129E+003  0.1169201E+03  0.7546771E-02  0.1248266E+00
         21   -1    0    0  502  501  0.00000000000E+00  0.00000000000E+00  0.22664723478E+03  0.22664723478E+03  0.00000000000E+00 0.  1.
         21   -1    0    0  503  502 -0.00000000000E+00 -0.00000000000E+00 -0.20352435489E+03  0.20352435489E+03  0.00000000000E+00 0.  1.
         21    1    1    2  503  504  0.32365600608E+02  0.11235115803E+03 -0.16886020932E+03  0.20538764594E+03  0.00000000000E+00 0.  1.
         21    1    1    2  504  501 -0.32365600608E+02 -0.11235115803E+03  0.19198308921E+03  0.22478394373E+03  0.00000000000E+00 0.  1.
<mgrwt>
<rscale>  2 0.11692012E+03</rscale>
<asrwt>0</asrwt>
<pdfrwt beam="1">  1       21 0.34868805E-01 0.11692012E+03</pdfrwt>
<pdfrwt beam="2">  1       21 0.31311439E-01 0.11692012E+03</pdfrwt>
<totfact> 0.80280769E+04</totfact>
</mgrwt>
</event>
<event>
 4    1  0.6052129E+003  0.1148087E+03  0.7546771E-02  0.1251915E+00
         21   -1    0    0  502  501  0.00000000000E+00  0.00000000000E+00  0.66647654268E+02  0.66647654268E+02  0.00000000000E+00 0. -1.
         21   -1    0    0  504  502 -0.00000000000E+00 -0.00000000000E+00 -0.46004766920E+03  0.46004766920E+03  0.00000000000E+00 0. -1.
         21    1    1    2  503  501  0.91516328468E+02  0.69323826662E+02  0.21415506025E+01  0.11482864433E+03  0.00000000000E+00 0. -1.
         21    1    1    2  504  503 -0.91516328468E+02 -0.69323826662E+02 -0.39554156554E+03  0.41186667914E+03  0.00000000000E+00 0. -1.
<mgrwt>
<rscale>  2 0.11480867E+03</rscale>
<asrwt>0</asrwt>
<pdfrwt beam="1">  1       21 0.10253485E-01 0.11480867E+03</pdfrwt>
<pdfrwt beam="2">  1       21 0.70776565E-01 0.11480867E+03</pdfrwt>
<totfact> 0.14423202E+05</totfact>
</mgrwt>
</event>
<event>
 4    1  0.6052129E+003  0.1259886E+03  0.7546771E-02  0.1233532E+00
         21   -1    0    0  503  501  0.00000000000E+00  0.00000000000E+00  0.20246760497E+02  0.20246760497E+02  0.00000000000E+00 0.  1.
         21   -1    0    0  504  502 -0.00000000000E+00 -0.00000000000E+00 -0.78734129630E+03  0.78734129630E+03  0.00000000000E+00 0.  1.
         21    1    1    2  503  502  0.10930639150E+03  0.62651834936E+02 -0.40991437448E+03  0.42883905378E+03  0.00000000000E+00 0.  1.
         21    1    1    2  504  501 -0.10930639150E+03 -0.62651834936E+02 -0.35718016132E+03  0.37874900302E+03  0.00000000000E+00 0.  1.
<mgrwt>
<rscale>  2 0.12598865E+03</rscale>
<asrwt>0</asrwt>
<pdfrwt beam="1">  1       21 0.31148869E-02 0.12598865E+03</pdfrwt>
<pdfrwt beam="2">  1       21 0.12112941E+00 0.12598865E+03</pdfrwt>
<totfact> 0.31262651E+05</totfact>
</mgrwt>
</event>
<event>
 4    1  0.6052129E+003  0.1152261E+03  0.7546771E-02  0.1251187E+00
         21   -1    0    0  502  501  0.00000000000E+00  0.00000000000E+00  0.11636783027E+03  0.11636783027E+03  0.00000000000E+00 0.  1.
         21   -1    0    0  504  502 -0.00000000000E+00 -0.00000000000E+00 -0.12202758622E+03  0.12202758622E+03  0.00000000000E+00 0.  1.
         21    1    1    2  503  501  0.11205204874E+03  0.26858757862E+02  0.27560111968E+02  0.11847621818E+03  0.00000000000E+00 0.  1.
         21    1    1    2  504  503 -0.11205204874E+03 -0.26858757862E+02 -0.33219867918E+02  0.11991919832E+03  0.00000000000E+00 0.  1.
<mgrwt>
<rscale>  2 0.11522610E+03</rscale>
<asrwt>0</asrwt>
<pdfrwt beam="1">  1       21 0.17902743E-01 0.11522610E+03</pdfrwt>
<pdfrwt beam="2">  1       21 0.18773475E-01 0.11522610E+03</pdfrwt>
<totfact> 0.73919859E+05</totfact>
</mgrwt>
</event>
<event>
 4    1  0.6052129E+003  0.1131111E+03  0.7546771E-02  0.1254915E+00
         21   -1    0    0  502  501  0.00000000000E+00  0.00000000000E+00  0.93135499864E+02  0.93135499864E+02  0.00000000000E+00 0.  1.
         21   -1    0    0  504  502 -0.00000000000E+00 -0.00000000000E+00 -0.20448471892E+03  0.20448471892E+03  0.00000000000E+00 0.  1.
         21    1    1    2  503  501 -0.10254532170E+03 -0.47734459385E+02  0.29577962422E+02  0.11691440235E+03  0.00000000000E+00 0.  1.
         21    1    1    2  504  503  0.10254532170E+03  0.47734459385E+02 -0.14092718148E+03  0.18070581644E+03  0.00000000000E+00 0.  1.
<mgrwt>
<rscale>  2 0.11311110E+03</rscale>
<asrwt>0</asrwt>
<pdfrwt beam="1">  1       21 0.14328538E-01 0.11311110E+03</pdfrwt>
<pdfrwt beam="2">  1       21 0.31459188E-01 0.11311110E+03</pdfrwt>
<totfact> 0.41888462E+05</totfact>
</mgrwt>
</event>
<event>
 4    1  0.6052129E+003  0.1352402E+03  0.7546771E-02  0.1219881E+00
         21   -1    0    0  504  501  0.00000000000E+00  0.00000000000E+00  0.27923744186E+03  0.27923744186E+03  0.00000000000E+00 0.  1.
         21   -1    0    0  503  502 -0.00000000000E+00 -0.00000000000E+00 -0.46890661193E+03  0.46890661193E+03  0.00000000000E+00 0.  1.
         21    1    1    2  503  501  0.13382844123E+03  0.19489687865E+02 -0.44179813704E+03  0.46203408262E+03  0.00000000000E+00 0.  1.
         21    1    1    2  504  502 -0.13382844123E+03 -0.19489687865E+02  0.25212896697E+03  0.28610997117E+03  0.00000000000E+00 0.  1.
<mgrwt>
<rscale>  2 0.13524016E+03</rscale>
<asrwt>0</asrwt>
<pdfrwt beam="1">  1       21 0.42959607E-01 0.13524016E+03</pdfrwt>
<pdfrwt beam="2">  1       21 0.72139478E-01 0.13524016E+03</pdfrwt>
<totfact> 0.94408288E+03</totfact>
</mgrwt>
</event>
<event>
 4    1  0.6052129E+003  0.1115301E+03  0.7546771E-02  0.1257762E+00
         21   -1    0    0  502  501  0.00000000000E+00  0.00000000000E+00  0.22991039142E+03  0.22991039142E+03  0.00000000000E+00 0.  1.
         21   -1    0    0  503  502 -0.00000000000E+00 -0.00000000000E+00 -0.11519739369E+03  0.11519739369E+03  0.00000000000E+00 0.  1.
         21    1    1    2  503  504 -0.83453886802E+02  0.73989304305E+02 -0.68304977699E+02  0.13078431998E+03  0.00000000000E+00 0.  1.
         21    1    1    2  504  501  0.83453886802E+02 -0.73989304305E+02  0.18301797543E+03  0.21432346513E+03  0.00000000000E+00 0.  1.
<mgrwt>
<rscale>  2 0.11153012E+03</rscale>
<asrwt>0</asrwt>
<pdfrwt beam="1">  1       21 0.35370829E-01 0.11153012E+03</pdfrwt>
<pdfrwt beam="2">  1       21 0.17722676E-01 0.11153012E+03</pdfrwt>
<totfact> 0.22726644E+05</totfact>
</mgrwt>
</event>
<event>
 4    1  0.6052129E+003  0.1015185E+03  0.7546771E-02  0.1277135E+00
         21   -1    0    0  503  501  0.00000000000E+00  0.00000000000E+00  0.21743850153E+04  0.21743850153E+04  0.00000000000E+00 0. -1.
         21   -1    0    0  504  502 -0.00000000000E+00 -0.00000000000E+00 -0.64000049704E+01  0.64000049704E+01  0.00000000000E+00 0.  1.
         21    1    1    2  503  502  0.91202196347E+02  0.44588887467E+02  0.16393619928E+04  0.16425022840E+04  0.00000000000E+00 0. -1.
         21    1    1    2  504  501 -0.91202196347E+02 -0.44588887467E+02  0.52862301744E+03  0.53828273618E+03  0.00000000000E+00 0.  1.
<mgrwt>
<rscale>  2 0.10151852E+03</rscale>
<asrwt>0</asrwt>
<pdfrwt beam="1">  1       21 0.33452018E+00 0.10151852E+03</pdfrwt>
<pdfrwt beam="2">  1       21 0.98461788E-03 0.10151852E+03</pdfrwt>
<totfact> 0.92248805E+04</totfact>
</mgrwt>
</event>
<event>
 4    1  0.6052129E+003  0.1063382E+03  0.7546771E-02  0.1267505E+00
         21   -1    0    0  504  501  0.00000000000E+00  0.00000000000E+00  0.17376372662E+03  0.17376372662E+03  0.00000000000E+00 0.  1.
         21   -1    0    0  501  502 -0.00000000000E+00 -0.00000000000E+00 -0.67442799278E+02  0.67442799278E+02  0.00000000000E+00 0.  1.
         21    1    1    2  503  502  0.37655623612E+02  0.99447799314E+02  0.30566533893E+02  0.11064413121E+03  0.00000000000E+00 0.  1.
         21    1    1    2  504  503 -0.37655623612E+02 -0.99447799314E+02  0.75754393444E+02  0.13056239468E+03  0.00000000000E+00 0.  1.
<mgrwt>
<rscale>  2 0.10633819E+03</rscale>
<asrwt>0</asrwt>
<pdfrwt beam="1">  1       21 0.26732881E-01 0.10633819E+03</pdfrwt>
<pdfrwt beam="2">  1       21 0.10375815E-01 0.10633819E+03</pdfrwt>
<totfact> 0.10114680E+06</totfact>
</mgrwt>
</event>
<event>
 4    1  0.6052129E+003  0.1310763E+03  0.7546771E-02  0.1225867E+00
         21   -1    0    0  504  501  0.00000000000E+00  0.00000000000E+00  0.57685049424E+02  0.57685049424E+02  0.00000000000E+00 0.  1.
         21   -1    0    0  503  502 -0.00000000000E+00 -0.00000000000E+00 -0.50597470918E+03  0.50597470918E+03  0.00000000000E+00 0. -1.
         21    1    1    2  503  501 -0.24118942188E+02 -0.12883815095E+03 -0.43388512181E+02  0.13807083509E+03  0.00000000000E+00 0.  1.
         21    1    1    2  504  502  0.24118942188E+02  0.12883815095E+03 -0.40490114758E+03  0.42558892352E+03  0.00000000000E+00 0. -1.
<mgrwt>
<rscale>  2 0.13107629E+03</rscale>
<asrwt>0</asrwt>
<pdfrwt beam="1">  1       21 0.88746231E-02 0.13107629E+03</pdfrwt>
<pdfrwt beam="2">  1       21 0.77842262E-01 0.13107629E+03</pdfrwt>
<totfact> 0.14956604E+05</totfact>
</mgrwt>
</event>
<event>
 4    1  0.6052129E+003  0.1165016E+03  0.7546771E-02  0.1248983E+00
         21   -1    0    0  503  501  0.00000000000E+00  0.00000000000E+00  0.75717228989E+02  0.75717228989E+02  0.00000000000E+00 0.  1.
         21   -1    0    0  504  502 -0.00000000000E+00 -0.00000000000E+00 -0.18117740672E+03  0.18117740672E+03  0.00000000000E+00 0.  1.
         21    1    1    2  503  502 -0.22193680280E+02  0.11436809149E+03 -0.39495721886E+02  0.12301435624E+03  0.00000000000E+00 0.  1.
         21    1    1    2  504  501  0.22193680280E+02 -0.11436809149E+03 -0.65964455848E+02  0.13388027947E+03  0.00000000000E+00 0.  1.
<mgrwt>
<rscale>  2 0.11650159E+03</rscale>
<asrwt>0</asrwt>
<pdfrwt beam="1">  1       21 0.11648805E-01 0.11650159E+03</pdfrwt>
<pdfrwt beam="2">  1       21 0.27873447E-01 0.11650159E+03</pdfrwt>
<totfact> 0.76323867E+05</totfact>
</mgrwt>
</event>
<event>
 4    1  0.6052129E+003  0.1431509E+03  0.7546771E-02  0.1209151E+00
         21   -1    0    0  503  501  0.00000000000E+00  0.00000000000E+00  0.77423197053E+02  0.77423197053E+02  0.00000000000E+00 0.  1.
         21   -1    0    0  504  502 -0.00000000000E+00 -0.00000000000E+00 -0.10270643374E+04  0.10270643374E+04  0.00000000000E+00 0.  1.
         21    1    1    2  503  502  0.13392316667E+03  0.50564463974E+02  0.97422630810E+00  0.14315421301E+03  0.00000000000E+00 0.  1.
         21    1    1    2  504  501 -0.13392316667E+03 -0.50564463974E+02 -0.95061536663E+03  0.96133332141E+03  0.00000000000E+00 0.  1.
<mgrwt>
<rscale>  2 0.14315090E+03</rscale>
<asrwt>0</asrwt>
<pdfrwt beam="1">  1       21 0.11911263E-01 0.14315090E+03</pdfrwt>
<pdfrwt beam="2">  1       21 0.15800988E+00 0.14315090E+03</pdfrwt>
<totfact> 0.16080790E+04</totfact>
</mgrwt>
</event>
<event>
 4    1  0.6052129E+003  0.1235273E+03  0.7546771E-02  0.1237389E+00
         21   -1    0    0  504  501  0.00000000000E+00  0.00000000000E+00  0.23823099160E+02  0.23823099160E+02  0.00000000000E+00 0.  1.
         21   -1    0    0  503  502 -0.00000000000E+00 -0.00000000000E+00 -0.79314434078E+03  0.79314434078E+03  0.00000000000E+00 0.  1.
         21    1    1    2  503  501  0.12352525777E+03  0.70412844489E+00 -0.56385387989E+03  0.57722628402E+03  0.00000000000E+00 0.  1.
         21    1    1    2  504  502 -0.12352525777E+03 -0.70412844489E+00 -0.20546736173E+03  0.23974115591E+03  0.00000000000E+00 0.  1.
<mgrwt>
<rscale>  2 0.12352726E+03</rscale>
<asrwt>0</asrwt>
<pdfrwt beam="1">  1       21 0.36650922E-02 0.12352726E+03</pdfrwt>
<pdfrwt beam="2">  1       21 0.12202220E+00 0.12352726E+03</pdfrwt>
<totfact> 0.23505702E+05</totfact>
</mgrwt>
</event>
<event>
 4    1  0.6052129E+003  0.1092167E+03  0.7546771E-02  0.1262027E+00
         21   -1    0    0  503  501  0.00000000000E+00  0.00000000000E+00  0.69723757000E+03  0.69723757000E+03  0.00000000000E+00 0.  1.
         21   -1    0    0  504  502 -0.00000000000E+00 -0.00000000000E+00 -0.46178306039E+02  0.46178306039E+02  0.00000000000E+00 0. -1.
         21    1    1    2  503  502  0.98970875128E+02 -0.46184893982E+02  0.62045239969E+03  0.62999163394E+03  0.00000000000E+00 0.  1.
         21    1    1    2  504  501 -0.98970875128E+02  0.46184893982E+02  0.30606864277E+02  0.11342424210E+03  0.00000000000E+00 0. -1.
<mgrwt>
<rscale>  2 0.10921666E+03</rscale>
<asrwt>0</asrwt>
<pdfrwt beam="1">  1       21 0.10726731E+00 0.10921666E+03</pdfrwt>
<pdfrwt beam="2">  1       21 0.71043553E-02 0.10921666E+03</pdfrwt>
<totfact> 0.10615956E+05</totfact>
</mgrwt>
</event>
<event>
 4    1  0.6052129E+003  0.1334913E+03  0.7546771E-02  0.1222365E+00
         21   -1    0    0  503  501  0.00000000000E+00  0.00000000000E+00  0.23276888256E+04  0.23276888256E+04  0.00000000000E+00 0. -1.
         21   -1    0    0  504  502 -0.00000000000E+00 -0.00000000000E+00 -0.88646901357E+01  0.88646901357E+01  0.00000000000E+00 0. -1.
         21    1    1    2  503  502 -0.13342501773E+03  0.42060013542E+01  0.15908693466E+04  0.15964602105E+04  0.00000000000E+00 0. -1.
         21    1    1    2  504  501  0.13342501773E+03 -0.42060013542E+01  0.72795478892E+03  0.74009330527E+03  0.00000000000E+00 0. -1.
<mgrwt>
<rscale>  2 0.13349129E+03</rscale>
<asrwt>0</asrwt>
<pdfrwt beam="1">  1       21 0.35810548E+00 0.13349129E+03</pdfrwt>
<pdfrwt beam="2">  1       21 0.13638003E-02 0.13349129E+03</pdfrwt>
<totfact> 0.38471038E+04</totfact>
</mgrwt>
</event>
<event>
 4    1  0.6052129E+003  0.1286725E+03  0.7546771E-02  0.1229439E+00
         21   -1    0    0  503  501  0.00000000000E+00  0.00000000000E+00  0.10416930346E+03  0.10416930346E+03  0.00000000000E+00 0.  1.
         21   -1    0    0  504  502 -0.00000000000E+00 -0.00000000000E+00 -0.15923238703E+03  0.15923238703E+03  0.00000000000E+00 0.  1.
         21    1    1    2  503  502 -0.42268623181E+02  0.12153182518E+03 -0.21883547624E+02  0.13052015436E+03  0.00000000000E+00 0.  1.
         21    1    1    2  504  501  0.42268623181E+02 -0.12153182518E+03 -0.33179535951E+02  0.13288153613E+03  0.00000000000E+00 0.  1.
<mgrwt>
<rscale>  2 0.12867253E+03</rscale>
<asrwt>0</asrwt>
<pdfrwt beam="1">  1       21 0.16026047E-01 0.12867253E+03</pdfrwt>
<pdfrwt beam="2">  1       21 0.24497290E-01 0.12867253E+03</pdfrwt>
<totfact> 0.55121882E+05</totfact>
</mgrwt>
</event>
<event>
 4    1  0.6052129E+003  0.2084086E+03  0.7546771E-02  0.1142832E+00
         21   -1    0    0  503  501  0.00000000000E+00  0.00000000000E+00  0.17593123896E+03  0.17593123896E+03  0.00000000000E+00 0. -1.
         21   -1    0    0  504  502 -0.00000000000E+00 -0.00000000000E+00 -0.28028731517E+03  0.28028731517E+03  0.00000000000E+00 0. -1.
         21    1    1    2  503  502  0.20837267332E+03  0.38679668601E+01  0.26572511600E+02  0.21009576513E+03  0.00000000000E+00 0. -1.
         21    1    1    2  504  501 -0.20837267332E+03 -0.38679668601E+01 -0.13092858781E+03  0.24612278899E+03  0.00000000000E+00 0. -1.
<mgrwt>
<rscale>  2 0.20840857E+03</rscale>
<asrwt>0</asrwt>
<pdfrwt beam="1">  1       21 0.27066345E-01 0.20840857E+03</pdfrwt>
<pdfrwt beam="2">  1       21 0.43121125E-01 0.20840857E+03</pdfrwt>
<totfact> 0.66788870E+04</totfact>
</mgrwt>
</event>
<event>
 4    1  0.6052129E+003  0.1005153E+03  0.7546771E-02  0.1279216E+00
         21   -1    0    0  503  501  0.00000000000E+00  0.00000000000E+00  0.27184322349E+02  0.27184322349E+02  0.00000000000E+00 0. -1.
         21   -1    0    0  504  502 -0.00000000000E+00 -0.00000000000E+00 -0.41244681974E+03  0.41244681974E+03  0.00000000000E+00 0. -1.
         21    1    1    2  503  502 -0.98957668724E+02 -0.17626586599E+02 -0.12350610326E+03  0.15923904765E+03  0.00000000000E+00 0. -1.
         21    1    1    2  504  501  0.98957668724E+02  0.17626586599E+02 -0.26175639413E+03  0.28039209444E+03  0.00000000000E+00 0. -1.
<mgrwt>
<rscale>  2 0.10051526E+03</rscale>
<asrwt>0</asrwt>
<pdfrwt beam="1">  1       21 0.41822038E-02 0.10051526E+03</pdfrwt>
<pdfrwt beam="2">  1       21 0.63453352E-01 0.10051526E+03</pdfrwt>
<totfact> 0.83826565E+05</totfact>
</mgrwt>
</event>
<event>
 4    1  0.6052129E+003  0.1009707E+03  0.7546771E-02  0.1278268E+00
         21   -1    0    0  504  501  0.00000000000E+00  0.00000000000E+00  0.42459306120E+02  0.42459306120E+02  0.00000000000E+00 0. -1.
         21   -1    0    0  503  502 -0.00000000000E+00 -0.00000000000E+00 -0.36710066085E+03  0.36710066085E+03  0.00000000000E+00 0. -1.
         21    1    1    2  503  501 -0.28680973503E+02  0.96811581078E+02 -0.28276149765E+03  0.30024847214E+03  0.00000000000E+00 0. -1.
         21    1    1    2  504  502  0.28680973503E+02 -0.96811581078E+02 -0.41879857080E+02  0.10931149483E+03  0.00000000000E+00 0. -1.
<mgrwt>
<rscale>  2 0.10097069E+03</rscale>
<asrwt>0</asrwt>
<pdfrwt beam="1">  1       21 0.65322006E-02 0.10097069E+03</pdfrwt>
<pdfrwt beam="2">  1       21 0.56477028E-01 0.10097069E+03</pdfrwt>
<totfact> 0.50814173E+05</totfact>
</mgrwt>
</event>
<event>
 4    1  0.6052129E+003  0.1221353E+03  0.7546771E-02  0.1239615E+00
         21   -1    0    0  504  501  0.00000000000E+00  0.00000000000E+00  0.26325511281E+03  0.26325511281E+03  0.00000000000E+00 0.  1.
         21   -1    0    0  501  502 -0.00000000000E+00 -0.00000000000E+00 -0.64778102797E+02  0.64778102797E+02  0.00000000000E+00 0.  1.
         21    1    1    2  503  502  0.10125162231E+03 -0.68301842129E+02  0.41188860754E+02  0.12889357978E+03  0.00000000000E+00 0.  1.
         21    1    1    2  504  503 -0.10125162231E+03  0.68301842129E+02  0.15728814926E+03  0.19913963582E+03  0.00000000000E+00 0.  1.
<mgrwt>
<rscale>  2 0.12213530E+03</rscale>
<asrwt>0</asrwt>
<pdfrwt beam="1">  1       21 0.40500786E-01 0.12213530E+03</pdfrwt>
<pdfrwt beam="2">  1       21 0.99658621E-02 0.12213530E+03</pdfrwt>
<totfact> 0.48399090E+05</totfact>
</mgrwt>
</event>
<event>
 4    1  0.6052129E+003  0.1475884E+03  0.7546771E-02  0.1203468E+00
         21   -1    0    0  504  501  0.00000000000E+00  0.00000000000E+00  0.43451244334E+02  0.43451244334E+02  0.00000000000E+00 0.  1.
         21   -1    0    0  503  502 -0.00000000000E+00 -0.00000000000E+00 -0.51277218130E+03  0.51277218130E+03  0.00000000000E+00 0. -1.
         21    1    1    2  503  501 -0.54132963726E+02  0.13730244472E+03 -0.27624958601E+03  0.31320308565E+03  0.00000000000E+00 0.  1.
         21    1    1    2  504  502  0.54132963726E+02 -0.13730244472E+03 -0.19307135096E+03  0.24302033999E+03  0.00000000000E+00 0. -1.
<mgrwt>
<rscale>  2 0.14758841E+03</rscale>
<asrwt>0</asrwt>
<pdfrwt beam="1">  1       21 0.66848070E-02 0.14758841E+03</pdfrwt>
<pdfrwt beam="2">  1       21 0.78888025E-01 0.14758841E+03</pdfrwt>
<totfact> 0.23544611E+05</totfact>
</mgrwt>
</event>
<event>
 4    1  0.6052129E+003  0.1292614E+03  0.7546771E-02  0.1228556E+00
         21   -1    0    0  504  501  0.00000000000E+00  0.00000000000E+00  0.57067722738E+03  0.57067722738E+03  0.00000000000E+00 0. -1.
         21   -1    0    0  503  502 -0.00000000000E+00 -0.00000000000E+00 -0.12924154540E+03  0.12924154540E+03  0.00000000000E+00 0.  1.
         21    1    1    2  503  501 -0.94775221320E+02  0.87898615051E+02  0.52849512184E+03  0.54407315952E+03  0.00000000000E+00 0. -1.
         21    1    1    2  504  502  0.94775221320E+02 -0.87898615051E+02 -0.87059439857E+02  0.15584561326E+03  0.00000000000E+00 0.  1.
<mgrwt>
<rscale>  2 0.12926140E+03</rscale>
<asrwt>0</asrwt>
<pdfrwt beam="1">  1       21 0.87796495E-01 0.12926140E+03</pdfrwt>
<pdfrwt beam="2">  1       21 0.19883315E-01 0.12926140E+03</pdfrwt>
<totfact> 0.26998867E+04</totfact>
</mgrwt>
</event>
<event>
 4    1  0.6052129E+003  0.1042682E+03  0.7546771E-02  0.1271568E+00
         21   -1    0    0  504  501  0.00000000000E+00  0.00000000000E+00  0.41781225572E+03  0.41781225572E+03  0.00000000000E+00 0. -1.
         21   -1    0    0  503  502 -0.00000000000E+00 -0.00000000000E+00 -0.13809831584E+03  0.13809831584E+03  0.00000000000E+00 0. -1.
         21    1    1    2  503  501  0.66268807264E+02  0.80500332535E+02 -0.11054616754E+03  0.15196155275E+03  0.00000000000E+00 0. -1.
         21    1    1    2  504  502 -0.66268807264E+02 -0.80500332535E+02  0.39026010743E+03  0.40394901882E+03  0.00000000000E+00 0. -1.
<mgrwt>
<rscale>  2 0.10426820E+03</rscale>
<asrwt>0</asrwt>
<pdfrwt beam="1">  1       21 0.64278808E-01 0.10426820E+03</pdfrwt>
<pdfrwt beam="2">  1       21 0.21245895E-01 0.10426820E+03</pdfrwt>
<totfact> 0.48297219E+04</totfact>
</mgrwt>
</event>
<event>
 4    1  0.6052129E+003  0.1000968E+03  0.7546771E-02  0.1280093E+00
         21   -1    0    0  502  501  0.00000000000E+00  0.00000000000E+00  0.99856065876E+02  0.99856065876E+02  0.00000000000E+00 0.  1.
         21   -1    0    0  503  502 -0.00000000000E+00 -0.00000000000E+00 -0.15773988401E+03  0.15773988401E+03  0.00000000000E+00 0.  1.
         21    1    1    2  503  504 -0.66702688813E+02 -0.74633252591E+02 -0.10663830099E+03  0.14625695992E+03  0.00000000000E+00 0.  1.
         21    1    1    2  504  501  0.66702688813E+02  0.74633252591E+02  0.48754482859E+02  0.11133898996E+03  0.00000000000E+00 0.  1.
<mgrwt>
<rscale>  2 0.10009681E+03</rscale>
<asrwt>0</asrwt>
<pdfrwt beam="1">  1       21 0.15362472E-01 0.10009681E+03</pdfrwt>
<pdfrwt beam="2">  1       21 0.24267674E-01 0.10009681E+03</pdfrwt>
<totfact> 0.60587202E+05</totfact>
</mgrwt>
</event>
<event>
 4    1  0.6052129E+003  0.1730997E+03  0.7546771E-02  0.1174653E+00
         21   -1    0    0  503  501  0.00000000000E+00  0.00000000000E+00  0.89769773192E+02  0.89769773192E+02  0.00000000000E+00 0.  1.
         21   -1    0    0  504  502 -0.00000000000E+00 -0.00000000000E+00 -0.12808038740E+04  0.12808038740E+04  0.00000000000E+00 0.  1.
         21    1    1    2  503  502  0.17252985939E+03 -0.14033493940E+02 -0.11847827749E+04  0.11973611465E+04  0.00000000000E+00 0.  1.
         21    1    1    2  504  501 -0.17252985939E+03  0.14033493940E+02 -0.62513259005E+01  0.17321250073E+03  0.00000000000E+00 0.  1.
<mgrwt>
<rscale>  2 0.17309966E+03</rscale>
<asrwt>0</asrwt>
<pdfrwt beam="1">  1       21 0.13810734E-01 0.17309966E+03</pdfrwt>
<pdfrwt beam="2">  1       21 0.19704675E+00 0.17309966E+03</pdfrwt>
<totfact> 0.65097106E+03</totfact>
</mgrwt>
</event>
<event>
 4    1  0.6052129E+003  0.1278206E+03  0.7546771E-02  0.1230726E+00
         21   -1    0    0  502  501  0.00000000000E+00  0.00000000000E+00  0.14344015941E+04  0.14344015941E+04  0.00000000000E+00 0. -1.
         21   -1    0    0  504  502 -0.00000000000E+00 -0.00000000000E+00 -0.37663030396E+02  0.37663030396E+02  0.00000000000E+00 0. -1.
         21    1    1    2  503  501 -0.38237243385E+02  0.12196725880E+03  0.13131111723E+04  0.13193176455E+04  0.00000000000E+00 0. -1.
         21    1    1    2  504  503  0.38237243385E+02 -0.12196725880E+03  0.83627391485E+02  0.15274697904E+03  0.00000000000E+00 0. -1.
<mgrwt>
<rscale>  2 0.12782057E+03</rscale>
<asrwt>0</asrwt>
<pdfrwt beam="1">  1       21 0.22067713E+00 0.12782057E+03</pdfrwt>
<pdfrwt beam="2">  1       21 0.57943135E-02 0.12782057E+03</pdfrwt>
<totfact> 0.22108091E+04</totfact>
</mgrwt>
</event>
<event>
 4    1  0.6052129E+003  0.1185880E+03  0.7546771E-02  0.1245445E+00
         21   -1    0    0  503  501  0.00000000000E+00  0.00000000000E+00  0.19693875253E+03  0.19693875253E+03  0.00000000000E+00 0. -1.
         21   -1    0    0  504  502 -0.00000000000E+00 -0.00000000000E+00 -0.71570929489E+02  0.71570929489E+02  0.00000000000E+00 0.  1.
         21    1    1    2  503  502  0.39991855451E+02  0.11164125357E+03  0.69077990774E+02  0.13724025215E+03  0.00000000000E+00 0. -1.
         21    1    1    2  504  501 -0.39991855451E+02 -0.11164125357E+03  0.56289832272E+02  0.13126942987E+03  0.00000000000E+00 0.  1.
<mgrwt>
<rscale>  2 0.11858802E+03</rscale>
<asrwt>0</asrwt>
<pdfrwt beam="1">  1       21 0.30298269E-01 0.11858802E+03</pdfrwt>
<pdfrwt beam="2">  1       21 0.11010912E-01 0.11858802E+03</pdfrwt>
<totfact> 0.71823958E+05</totfact>
</mgrwt>
</event>
<event>
 4    1  0.6052129E+003  0.1065808E+03  0.7546771E-02  0.1267036E+00
         21   -1    0    0  502  501  0.00000000000E+00  0.00000000000E+00  0.47860394900E+03  0.47860394900E+03  0.00000000000E+00 0.  1.
         21   -1    0    0  504  502 -0.00000000000E+00 -0.00000000000E+00 -0.34879752075E+03  0.34879752075E+03  0.00000000000E+00 0. -1.
         21    1    1    2  503  501  0.98429830637E+02 -0.40878339463E+02  0.46428046083E+03  0.47635681637E+03  0.00000000000E+00 0.  1.
         21    1    1    2  504  503 -0.98429830637E+02  0.40878339463E+02 -0.33447403258E+03  0.35104465338E+03  0.00000000000E+00 0. -1.
<mgrwt>
<rscale>  2 0.10658082E+03</rscale>
<asrwt>0</asrwt>
<pdfrwt beam="1">  1       21 0.73631377E-01 0.10658082E+03</pdfrwt>
<pdfrwt beam="2">  1       21 0.53661157E-01 0.10658082E+03</pdfrwt>
<totfact> 0.58972999E+03</totfact>
</mgrwt>
</event>
<event>
 4    1  0.6052129E+003  0.1076373E+03  0.7546771E-02  0.1265009E+00
         21   -1    0    0  503  501  0.00000000000E+00  0.00000000000E+00  0.11242650121E+03  0.11242650121E+03  0.00000000000E+00 0.  1.
         21   -1    0    0  504  502 -0.00000000000E+00 -0.00000000000E+00 -0.56395230393E+03  0.56395230393E+03  0.00000000000E+00 0. -1.
         21    1    1    2  503  502  0.10598239803E+03  0.18802241759E+02 -0.53149584103E+03  0.54228555395E+03  0.00000000000E+00 0. -1.
         21    1    1    2  504  501 -0.10598239803E+03 -0.18802241759E+02  0.79970038312E+02  0.13409325119E+03  0.00000000000E+00 0.  1.
<mgrwt>
<rscale>  2 0.10763732E+03</rscale>
<asrwt>0</asrwt>
<pdfrwt beam="1">  1       21 0.17296385E-01 0.10763732E+03</pdfrwt>
<pdfrwt beam="2">  1       21 0.86761891E-01 0.10763732E+03</pdfrwt>
<totfact> 0.36368328E+04</totfact>
</mgrwt>
</event>
<event>
 4    1  0.6052129E+003  0.1437823E+03  0.7546771E-02  0.1208328E+00
         21   -1    0    0  504  501  0.00000000000E+00  0.00000000000E+00  0.11870468658E+03  0.11870468658E+03  0.00000000000E+00 0. -1.
         21   -1    0    0  503  502 -0.00000000000E+00 -0.00000000000E+00 -0.47144019616E+03  0.47144019616E+03  0.00000000000E+00 0.  1.
         21    1    1    2  503  501  0.14114080208E+03  0.27434064543E+02  0.57947141844E+02  0.15502007985E+03  0.00000000000E+00 0. -1.
         21    1    1    2  504  502 -0.14114080208E+03 -0.27434064543E+02 -0.41068265143E+03  0.43512480289E+03  0.00000000000E+00 0.  1.
<mgrwt>
<rscale>  2 0.14378231E+03</rscale>
<asrwt>0</asrwt>
<pdfrwt beam="1">  1       21 0.18262259E-01 0.14378231E+03</pdfrwt>
<pdfrwt beam="2">  1       21 0.72529263E-01 0.14378231E+03</pdfrwt>
<totfact> 0.47996152E+04</totfact>
</mgrwt>
</event>
<event>
 4    1  0.6052129E+003  0.1272728E+03  0.7546771E-02  0.1231559E+00
         21   -1    0    0  502  501  0.00000000000E+00  0.00000000000E+00  0.45355791132E+03  0.45355791132E+03  0.00000000000E+00 0. -1.
         21   -1    0    0  503  502 -0.00000000000E+00 -0.00000000000E+00 -0.48130200707E+02  0.48130200707E+02  0.00000000000E+00 0. -1.
         21    1    1    2  503  504 -0.11802446724E+03  0.47629803632E+02  0.75308079726E+02  0.14788400838E+03  0.00000000000E+00 0. -1.
         21    1    1    2  504  501  0.11802446724E+03 -0.47629803632E+02  0.33011963088E+03  0.35380410365E+03  0.00000000000E+00 0. -1.
<mgrwt>
<rscale>  2 0.12727283E+03</rscale>
<asrwt>0</asrwt>
<pdfrwt beam="1">  1       21 0.69778137E-01 0.12727283E+03</pdfrwt>
<pdfrwt beam="2">  1       21 0.74046466E-02 0.12727283E+03</pdfrwt>
<totfact> 0.26033789E+05</totfact>
</mgrwt>
</event>
<event>
 4    1  0.6052129E+003  0.1146539E+03  0.7546771E-02  0.1252186E+00
         21   -1    0    0  504  501  0.00000000000E+00  0.00000000000E+00  0.99675978519E+03  0.99675978519E+03  0.00000000000E+00 0. -1.
         21   -1    0    0  503  502 -0.00000000000E+00 -0.00000000000E+00 -0.21357466443E+02  0.21357466443E+02  0.00000000000E+00 0. -1.
         21    1    1    2  503  501  0.10129020894E+03 -0.53719709937E+02  0.80253632220E+03  0.81068493394E+03  0.00000000000E+00 0. -1.
         21    1    1    2  504  502 -0.10129020894E+03  0.53719709937E+02  0.17286599654E+03  0.20743231769E+03  0.00000000000E+00 0. -1.
<mgrwt>
<rscale>  2 0.11465389E+03</rscale>
<asrwt>0</asrwt>
<pdfrwt beam="1">  1       21 0.15334762E+00 0.11465389E+03</pdfrwt>
<pdfrwt beam="2">  1       21 0.32857648E-02 0.11465389E+03</pdfrwt>
<totfact> 0.15892424E+05</totfact>
</mgrwt>
</event>
<event>
 4    1  0.6052129E+003  0.1012294E+03  0.7546771E-02  0.1277732E+00
         21   -1    0    0  504  501  0.00000000000E+00  0.00000000000E+00  0.22074072245E+03  0.22074072245E+03  0.00000000000E+00 0. -1.
         21   -1    0    0  503  502 -0.00000000000E+00 -0.00000000000E+00 -0.57712461520E+02  0.57712461520E+02  0.00000000000E+00 0.  1.
         21    1    1    2  503  501  0.45399951959E+02 -0.90477810799E+02  0.19935653161E+02  0.10317373770E+03  0.00000000000E+00 0.  1.
         21    1    1    2  504  502 -0.45399951959E+02  0.90477810799E+02  0.14309260777E+03  0.17527944626E+03  0.00000000000E+00 0. -1.
<mgrwt>
<rscale>  2 0.10122939E+03</rscale>
<asrwt>0</asrwt>
<pdfrwt beam="1">  1       21 0.33960111E-01 0.10122939E+03</pdfrwt>
<pdfrwt beam="2">  1       21 0.88788403E-02 0.10122939E+03</pdfrwt>
<totfact> 0.83692167E+05</totfact>
</mgrwt>
</event>
<event>
 4    1  0.6052129E+003  0.1231363E+03  0.7546771E-02  0.1238011E+00
         21   -1    0    0  503  501  0.00000000000E+00  0.00000000000E+00  0.67136587666E+03  0.67136587666E+03  0.00000000000E+00 0. -1.
         21   -1    0    0  504  502 -0.00000000000E+00 -0.00000000000E+00 -0.81113397191E+03  0.81113397191E+03  0.00000000000E+00 0. -1.
         21    1    1    2  503  502 -0.66486465437E+02 -0.10364408052E+03 -0.80074171115E+03  0.81015420352E+03  0.00000000000E+00 0. -1.
         21    1    1    2  504  501  0.66486465437E+02  0.10364408052E+03  0.66097361589E+03  0.67234564505E+03  0.00000000000E+00 0. -1.
<mgrwt>
<rscale>  2 0.12313629E+03</rscale>
<asrwt>0</asrwt>
<pdfrwt beam="1">  1       21 0.10328706E+00 0.12313629E+03</pdfrwt>
<pdfrwt beam="2">  1       21 0.12478984E+00 0.12313629E+03</pdfrwt>
<totfact> 0.40131876E+02</totfact>
</mgrwt>
</event>
<event>
 4    1  0.6052129E+003  0.1042957E+03  0.7546771E-02  0.1271513E+00
         21   -1    0    0  503  501  0.00000000000E+00  0.00000000000E+00  0.67153532533E+03  0.67153532533E+03  0.00000000000E+00 0. -1.
         21   -1    0    0  504  502 -0.00000000000E+00 -0.00000000000E+00 -0.10134507786E+03  0.10134507786E+03  0.00000000000E+00 0.  1.
         21    1    1    2  503  502 -0.81085854232E+02  0.65594863420E+02  0.63930899769E+03  0.64776044676E+03  0.00000000000E+00 0. -1.
         21    1    1    2  504  501  0.81085854232E+02 -0.65594863420E+02 -0.69118750225E+02  0.12511995643E+03  0.00000000000E+00 0.  1.
<mgrwt>
<rscale>  2 0.10429574E+03</rscale>
<asrwt>0</asrwt>
<pdfrwt beam="1">  1       21 0.10331312E+00 0.10429574E+03</pdfrwt>
<pdfrwt beam="2">  1       21 0.15591551E-01 0.10429574E+03</pdfrwt>
<totfact> 0.29447496E+04</totfact>
</mgrwt>
</event>
<event>
 4    1  0.6052129E+003  0.1070782E+03  0.7546771E-02  0.1266078E+00
         21   -1    0    0  503  501  0.00000000000E+00  0.00000000000E+00  0.26802578282E+03  0.26802578282E+03  0.00000000000E+00 0.  1.
         21   -1    0    0  504  502 -0.00000000000E+00 -0.00000000000E+00 -0.42976158741E+02  0.42976158741E+02  0.00000000000E+00 0. -1.
         21    1    1    2  503  502 -0.63685929373E+02  0.86080396158E+02  0.12307142895E+03  0.16313279507E+03  0.00000000000E+00 0.  1.
         21    1    1    2  504  501  0.63685929373E+02 -0.86080396158E+02  0.10197819513E+03  0.14786914649E+03  0.00000000000E+00 0. -1.
<mgrwt>
<rscale>  2 0.10707816E+03</rscale>
<asrwt>0</asrwt>
<pdfrwt beam="1">  1       21 0.41234735E-01 0.10707816E+03</pdfrwt>
<pdfrwt beam="2">  1       21 0.66117169E-02 0.10707816E+03</pdfrwt>
<totfact> 0.94606953E+05</totfact>
</mgrwt>
</event>
<event>
 4    1  0.6052129E+003  0.1692054E+03  0.7546771E-02  0.1178679E+00
         21   -1    0    0  503  501  0.00000000000E+00  0.00000000000E+00  0.10952823493E+04  0.10952823493E+04  0.00000000000E+00 0. -1.
         21   -1    0    0  501  502 -0.00000000000E+00 -0.00000000000E+00 -0.11333299636E+03  0.11333299636E+03  0.00000000000E+00 0.  1.
         21    1    1    2  503  504 -0.76690590031E+02  0.15082779241E+03  0.10210300041E+04  0.10349554284E+04  0.00000000000E+00 0. -1.
         21    1    1    2  504  502  0.76690590031E+02 -0.15082779241E+03 -0.39080651142E+02  0.17365991724E+03  0.00000000000E+00 0.  1.
<mgrwt>
<rscale>  2 0.16920541E+03</rscale>
<asrwt>0</asrwt>
<pdfrwt beam="1">  1       21 0.16850497E+00 0.16920541E+03</pdfrwt>
<pdfrwt beam="2">  1       21 0.17435846E-01 0.16920541E+03</pdfrwt>
<totfact> 0.66444355E+03</totfact>
</mgrwt>
</event>
<event>
 4    1  0.6052129E+003  0.1165777E+03  0.7546771E-02  0.1248852E+00
         21   -1    0    0  503  501  0.00000000000E+00  0.00000000000E+00  0.36204197812E+02  0.36204197812E+02  0.00000000000E+00 0.  1.
         21   -1    0    0  501  502 -0.00000000000E+00 -0.00000000000E+00 -0.42564641060E+03  0.42564641060E+03  0.00000000000E+00 0. -1.
         21    1    1    2  503  504 -0.42599411091E+01  0.11649985222E+03 -0.11536464608E+03  0.16401025648E+03  0.00000000000E+00 0.  1.
         21    1    1    2  504  502  0.42599411091E+01 -0.11649985222E+03 -0.27407756671E+03  0.29784035193E+03  0.00000000000E+00 0. -1.
<mgrwt>
<rscale>  2 0.11657771E+03</rscale>
<asrwt>0</asrwt>
<pdfrwt beam="1">  1       21 0.55698770E-02 0.11657771E+03</pdfrwt>
<pdfrwt beam="2">  1       21 0.65484058E-01 0.11657771E+03</pdfrwt>
<totfact> 0.48552564E+05</totfact>
</mgrwt>
</event>
<event>
 4    1  0.6052129E+003  0.2041009E+03  0.7546771E-02  0.1146325E+00
         21   -1    0    0  502  501  0.00000000000E+00  0.00000000000E+00  0.28424323083E+03  0.28424323083E+03  0.00000000000E+00 0.  1.
         21   -1    0    0  504  502 -0.00000000000E+00 -0.00000000000E+00 -0.15060838143E+03  0.15060838143E+03  0.00000000000E+00 0.  1.
         21    1    1    2  503  501  0.15288284442E+03  0.13521833431E+03  0.10248839944E+03  0.22838790263E+03  0.00000000000E+00 0.  1.
         21    1    1    2  504  503 -0.15288284442E+03 -0.13521833431E+03  0.31146449958E+02  0.20646370963E+03  0.00000000000E+00 0.  1.
<mgrwt>
<rscale>  2 0.20410086E+03</rscale>
<asrwt>0</asrwt>
<pdfrwt beam="1">  1       21 0.43729728E-01 0.20410086E+03</pdfrwt>
<pdfrwt beam="2">  1       21 0.23170520E-01 0.20410086E+03</pdfrwt>
<totfact> 0.87526715E+04</totfact>
</mgrwt>
</event>
<event>
 4    1  0.6052129E+003  0.1181013E+03  0.7546771E-02  0.1246262E+00
         21   -1    0    0  504  501  0.00000000000E+00  0.00000000000E+00  0.62699471498E+02  0.62699471498E+02  0.00000000000E+00 0.  1.
         21   -1    0    0  503  502 -0.00000000000E+00 -0.00000000000E+00 -0.34743343251E+03  0.34743343251E+03  0.00000000000E+00 0.  1.
         21    1    1    2  503  501  0.11789820844E+03 -0.69239043337E+01 -0.26535791644E+03  0.29045266710E+03  0.00000000000E+00 0.  1.
         21    1    1    2  504  502 -0.11789820844E+03  0.69239043337E+01 -0.19376044569E+02  0.11968023691E+03  0.00000000000E+00 0.  1.
<mgrwt>
<rscale>  2 0.11810135E+03</rscale>
<asrwt>0</asrwt>
<pdfrwt beam="1">  1       21 0.96460724E-02 0.11810135E+03</pdfrwt>
<pdfrwt beam="2">  1       21 0.53451298E-01 0.11810135E+03</pdfrwt>
<totfact> 0.29121254E+05</totfact>
</mgrwt>
</event>
<event>
 4    1  0.6052129E+003  0.1118631E+03  0.7546771E-02  0.1257158E+00
         21   -1    0    0  502  501  0.00000000000E+00  0.00000000000E+00  0.33388581326E+03  0.33388581326E+03  0.00000000000E+00 0. -1.
         21   -1    0    0  503  502 -0.00000000000E+00 -0.00000000000E+00 -0.24724592755E+03  0.24724592755E+03  0.00000000000E+00 0. -1.
         21    1    1    2  503  504  0.91349153571E+02 -0.64565301349E+02 -0.22431921434E+03  0.25066402997E+03  0.00000000000E+00 0. -1.
         21    1    1    2  504  501 -0.91349153571E+02  0.64565301349E+02  0.31095910005E+03  0.33046771083E+03  0.00000000000E+00 0. -1.
<mgrwt>
<rscale>  2 0.11186307E+03</rscale>
<asrwt>0</asrwt>
<pdfrwt beam="1">  1       21 0.51367049E-01 0.11186307E+03</pdfrwt>
<pdfrwt beam="2">  1       21 0.38037835E-01 0.11186307E+03</pdfrwt>
<totfact> 0.25285379E+04</totfact>
</mgrwt>
</event>
<event>
 4    1  0.6052129E+003  0.1809772E+03  0.7546771E-02  0.1166861E+00
         21   -1    0    0  503  501  0.00000000000E+00  0.00000000000E+00  0.51481048949E+02  0.51481048949E+02  0.00000000000E+00 0.  1.
         21   -1    0    0  504  502 -0.00000000000E+00 -0.00000000000E+00 -0.63703850013E+03  0.63703850013E+03  0.00000000000E+00 0. -1.
         21    1    1    2  503  502  0.16958209838E+03  0.63203288871E+02 -0.30519589773E+03  0.35482006680E+03  0.00000000000E+00 0.  1.
         21    1    1    2  504  501 -0.16958209838E+03 -0.63203288871E+02 -0.28036155346E+03  0.33369948228E+03  0.00000000000E+00 0. -1.
<mgrwt>
<rscale>  2 0.18097719E+03</rscale>
<asrwt>0</asrwt>
<pdfrwt beam="1">  1       21 0.79201615E-02 0.18097719E+03</pdfrwt>
<pdfrwt beam="2">  1       21 0.98005922E-01 0.18097719E+03</pdfrwt>
<totfact> 0.10563334E+05</totfact>
</mgrwt>
</event>
<event>
 4    1  0.6052129E+003  0.1024530E+03  0.7546771E-02  0.1275221E+00
         21   -1    0    0  502  501  0.00000000000E+00  0.00000000000E+00  0.98174488411E+02  0.98174488411E+02  0.00000000000E+00 0. -1.
         21   -1    0    0  504  502 -0.00000000000E+00 -0.00000000000E+00 -0.10097682587E+04  0.10097682587E+04  0.00000000000E+00 0.  1.
         21    1    1    2  503  501  0.88358904936E+02  0.51858670545E+02  0.68025838578E+02  0.12298021185E+03  0.00000000000E+00 0. -1.
         21    1    1    2  504  503 -0.88358904936E+02 -0.51858670545E+02 -0.97961960882E+03  0.98496253522E+03  0.00000000000E+00 0.  1.
<mgrwt>
<rscale>  2 0.10245300E+03</rscale>
<asrwt>0</asrwt>
<pdfrwt beam="1">  1       21 0.15103766E-01 0.10245300E+03</pdfrwt>
<pdfrwt beam="2">  1       21 0.15534898E+00 0.10245300E+03</pdfrwt>
<totfact> 0.11470887E+04</totfact>
</mgrwt>
</event>
<event>
 4    1  0.6052129E+003  0.1175498E+03  0.7546771E-02  0.1247195E+00
         21   -1    0    0  504  501  0.00000000000E+00  0.00000000000E+00  0.49313901333E+03  0.49313901333E+03  0.00000000000E+00 0.  1.
         21   -1    0    0  503  502 -0.00000000000E+00 -0.00000000000E+00 -0.11928147932E+03  0.11928147932E+03  0.00000000000E+00 0. -1.
         21    1    1    2  503  501  0.14345260645E+02 -0.11667124404E+03  0.45476908188E+03  0.46971574758E+03  0.00000000000E+00 0.  1.
         21    1    1    2  504  502 -0.14345260645E+02  0.11667124404E+03 -0.80911547863E+02  0.14270474507E+03  0.00000000000E+00 0. -1.
<mgrwt>
<rscale>  2 0.11754984E+03</rscale>
<asrwt>0</asrwt>
<pdfrwt beam="1">  1       21 0.75867539E-01 0.11754984E+03</pdfrwt>
<pdfrwt beam="2">  1       21 0.18350997E-01 0.11754984E+03</pdfrwt>
<totfact> 0.43740464E+04</totfact>
</mgrwt>
</event>
<event>
 4    1  0.6052129E+003  0.1033486E+03  0.7546771E-02  0.1273408E+00
         21   -1    0    0  503  501  0.00000000000E+00  0.00000000000E+00  0.31243175623E+02  0.31243175623E+02  0.00000000000E+00 0. -1.
         21   -1    0    0  504  502 -0.00000000000E+00 -0.00000000000E+00 -0.71191978353E+03  0.71191978353E+03  0.00000000000E+00 0. -1.
         21    1    1    2  503  502  0.27061185104E+02  0.99742806356E+02 -0.60823773154E+03  0.61695548724E+03  0.00000000000E+00 0. -1.
         21    1    1    2  504  501 -0.27061185104E+02 -0.99742806356E+02 -0.72438876367E+02  0.12620747192E+03  0.00000000000E+00 0. -1.
<mgrwt>
<rscale>  2 0.10334861E+03</rscale>
<asrwt>0</asrwt>
<pdfrwt beam="1">  1       21 0.48066429E-02 0.10334861E+03</pdfrwt>
<pdfrwt beam="2">  1       21 0.10952611E+00 0.10334861E+03</pdfrwt>
<totfact> 0.19572573E+05</totfact>
</mgrwt>
</event>
<event>
 4    1  0.6052129E+003  0.1702397E+03  0.7546771E-02  0.1177598E+00
         21   -1    0    0  504  501  0.00000000000E+00  0.00000000000E+00  0.74301408281E+02  0.74301408281E+02  0.00000000000E+00 0. -1.
         21   -1    0    0  503  502 -0.00000000000E+00 -0.00000000000E+00 -0.55466960082E+03  0.55466960082E+03  0.00000000000E+00 0.  1.
         21    1    1    2  503  501 -0.16983321867E+03  0.11757569407E+02 -0.41150838065E+03  0.44533213442E+03  0.00000000000E+00 0.  1.
         21    1    1    2  504  502  0.16983321867E+03 -0.11757569407E+02 -0.68859811888E+02  0.18363887468E+03  0.00000000000E+00 0. -1.
<mgrwt>
<rscale>  2 0.17023972E+03</rscale>
<asrwt>0</asrwt>
<pdfrwt beam="1">  1       21 0.11430985E-01 0.17023972E+03</pdfrwt>
<pdfrwt beam="2">  1       21 0.85333789E-01 0.17023972E+03</pdfrwt>
<totfact> 0.76759601E+04</totfact>
</mgrwt>
</event>
<event>
 4    1  0.6052129E+003  0.1074133E+03  0.7546771E-02  0.1265436E+00
         21   -1    0    0  504  501  0.00000000000E+00  0.00000000000E+00  0.13134430909E+03  0.13134430909E+03  0.00000000000E+00 0. -1.
         21   -1    0    0  503  502 -0.00000000000E+00 -0.00000000000E+00 -0.13908280596E+03  0.13908280596E+03  0.00000000000E+00 0. -1.
         21    1    1    2  503  501 -0.83975404921E+02  0.66975682754E+02 -0.85940192920E+02  0.13756208588E+03  0.00000000000E+00 0. -1.
         21    1    1    2  504  502  0.83975404921E+02 -0.66975682754E+02  0.78201696043E+02  0.13286502917E+03  0.00000000000E+00 0. -1.
<mgrwt>
<rscale>  2 0.10741327E+03</rscale>
<asrwt>0</asrwt>
<pdfrwt beam="1">  1       21 0.20206817E-01 0.10741327E+03</pdfrwt>
<pdfrwt beam="2">  1       21 0.21397355E-01 0.10741327E+03</pdfrwt>
<totfact> 0.46537294E+05</totfact>
</mgrwt>
</event>
<event>
 4    1  0.6052129E+003  0.1101927E+03  0.7546771E-02  0.1260214E+00
         21   -1    0    0  504  501  0.00000000000E+00  0.00000000000E+00  0.37320486382E+02  0.37320486382E+02  0.00000000000E+00 0.  1.
         21   -1    0    0  503  502 -0.00000000000E+00 -0.00000000000E+00 -0.13982510591E+04  0.13982510591E+04  0.00000000000E+00 0. -1.
         21    1    1    2  503  501 -0.52901070425E+02  0.96663858328E+02 -0.51710947048E+02  0.12172282778E+03  0.00000000000E+00 0.  1.
         21    1    1    2  504  502  0.52901070425E+02 -0.96663858328E+02 -0.13092196257E+04  0.13138487177E+04  0.00000000000E+00 0. -1.
<mgrwt>
<rscale>  2 0.11019267E+03</rscale>
<asrwt>0</asrwt>
<pdfrwt beam="1">  1       21 0.57416136E-02 0.11019267E+03</pdfrwt>
<pdfrwt beam="2">  1       21 0.21511554E+00 0.11019267E+03</pdfrwt>
<totfact> 0.24726170E+04</totfact>
</mgrwt>
</event>
<event>
 4    1  0.6052129E+003  0.1137901E+03  0.7546771E-02  0.1253708E+00
         21   -1    0    0  502  501  0.00000000000E+00  0.00000000000E+00  0.18012025822E+04  0.18012025822E+04  0.00000000000E+00 0.  1.
         21   -1    0    0  504  502 -0.00000000000E+00 -0.00000000000E+00 -0.22884089583E+02  0.22884089583E+02  0.00000000000E+00 0.  1.
         21    1    1    2  503  501  0.10471874011E+03  0.44521517218E+02  0.16444873862E+04  0.16484195290E+04  0.00000000000E+00 0.  1.
         21    1    1    2  504  503 -0.10471874011E+03 -0.44521517218E+02  0.13383110639E+03  0.17566714281E+03  0.00000000000E+00 0.  1.
<mgrwt>
<rscale>  2 0.11379007E+03</rscale>
<asrwt>0</asrwt>
<pdfrwt beam="1">  1       21 0.27710798E+00 0.11379007E+03</pdfrwt>
<pdfrwt beam="2">  1       21 0.35206306E-02 0.11379007E+03</pdfrwt>
<totfact> 0.24492912E+04</totfact>
</mgrwt>
</event>
<event>
 4    1  0.6052129E+003  0.1096165E+03  0.7546771E-02  0.1261282E+00
         21   -1    0    0  504  501  0.00000000000E+00  0.00000000000E+00  0.59840362866E+03  0.59840362866E+03  0.00000000000E+00 0. -1.
         21   -1    0    0  503  502 -0.00000000000E+00 -0.00000000000E+00 -0.21795398340E+02  0.21795398340E+02  0.00000000000E+00 0. -1.
         21    1    1    2  503  501  0.11614309967E+02  0.10899951345E+03  0.37530721943E+03  0.39098758943E+03  0.00000000000E+00 0. -1.
         21    1    1    2  504  502 -0.11614309967E+02 -0.10899951345E+03  0.20130101089E+03  0.22921143757E+03  0.00000000000E+00 0. -1.
<mgrwt>
<rscale>  2 0.10961654E+03</rscale>
<asrwt>0</asrwt>
<pdfrwt beam="1">  1       21 0.92062084E-01 0.10961654E+03</pdfrwt>
<pdfrwt beam="2">  1       21 0.33531387E-02 0.10961654E+03</pdfrwt>
<totfact> 0.53128374E+05</totfact>
</mgrwt>
</event>
<event>
 4    1  0.6052129E+003  0.1064648E+03  0.7546771E-02  0.1267260E+00
         21   -1    0    0  504  501  0.00000000000E+00  0.00000000000E+00  0.15741614180E+03  0.15741614180E+03  0.00000000000E+00 0.  1.
         21   -1    0    0  503  502 -0.00000000000E+00 -0.00000000000E+00 -0.11416752765E+03  0.11416752765E+03  0.00000000000E+00 0.  1.
         21    1    1    2  503  501  0.90314333821E+02 -0.56374448277E+02 -0.60896870202E+02  0.12265066699E+03  0.00000000000E+00 0.  1.
         21    1    1    2  504  502 -0.90314333821E+02  0.56374448277E+02  0.10414548436E+03  0.14893300247E+03  0.00000000000E+00 0.  1.
<mgrwt>
<rscale>  2 0.10646482E+03</rscale>
<asrwt>0</asrwt>
<pdfrwt beam="1">  1       21 0.24217868E-01 0.10646482E+03</pdfrwt>
<pdfrwt beam="2">  1       21 0.17564235E-01 0.10646482E+03</pdfrwt>
<totfact> 0.47753225E+05</totfact>
</mgrwt>
</event>
<event>
 4    1  0.6052129E+003  0.1821649E+03  0.7546771E-02  0.1165724E+00
         21   -1    0    0  504  501  0.00000000000E+00  0.00000000000E+00  0.54297640940E+03  0.54297640940E+03  0.00000000000E+00 0. -1.
         21   -1    0    0  503  502 -0.00000000000E+00 -0.00000000000E+00 -0.15287910821E+03  0.15287910821E+03  0.00000000000E+00 0. -1.
         21    1    1    2  503  501 -0.91918666685E+02  0.15727366976E+03  0.46460603665E+03  0.49904189982E+03  0.00000000000E+00 0. -1.
         21    1    1    2  504  502  0.91918666685E+02 -0.15727366976E+03 -0.74508735469E+02  0.19681361779E+03  0.00000000000E+00 0. -1.
<mgrwt>
<rscale>  2 0.18216489E+03</rscale>
<asrwt>0</asrwt>
<pdfrwt beam="1">  1       21 0.83534832E-01 0.18216489E+03</pdfrwt>
<pdfrwt beam="2">  1       21 0.23519863E-01 0.18216489E+03</pdfrwt>
<totfact> 0.21343937E+04</totfact>
</mgrwt>
</event>
<event>
 4    1  0.6052129E+003  0.1004524E+03  0.7546771E-02  0.1279347E+00
         21   -1    0    0  504  501  0.00000000000E+00  0.00000000000E+00  0.43761995530E+03  0.43761995530E+03  0.00000000000E+00 0.  1.
         21   -1    0    0  501  502 -0.00000000000E+00 -0.00000000000E+00 -0.76781404729E+02  0.76781404729E+02  0.00000000000E+00 0. -1.
         21    1    1    2  503  502  0.98597498863E+02 -0.19215301701E+02 -0.34722800345E+02  0.10628437075E+03  0.00000000000E+00 0. -1.
         21    1    1    2  504  503 -0.98597498863E+02  0.19215301701E+02  0.39556135091E+03  0.40811698928E+03  0.00000000000E+00 0.  1.
<mgrwt>
<rscale>  2 0.10045245E+03</rscale>
<asrwt>0</asrwt>
<pdfrwt beam="1">  1       21 0.67326145E-01 0.10045245E+03</pdfrwt>
<pdfrwt beam="2">  1       21 0.11812524E-01 0.10045245E+03</pdfrwt>
<totfact> 0.12613573E+05</totfact>
</mgrwt>
</event>
<event>
 4    1  0.6052129E+003  0.1390858E+03  0.7546771E-02  0.1214564E+00
         21   -1    0    0  503  501  0.00000000000E+00  0.00000000000E+00  0.11652297955E+03  0.11652297955E+03  0.00000000000E+00 0. -1.
         21   -1    0    0  501  502 -0.00000000000E+00 -0.00000000000E+00 -0.26106996516E+03  0.26106996516E+03  0.00000000000E+00 0. -1.
         21    1    1    2  503  504 -0.63230575790E+02  0.12388205664E+03  0.41645674013E+02  0.14518688590E+03  0.00000000000E+00 0. -1.
         21    1    1    2  504  502  0.63230575790E+02 -0.12388205664E+03 -0.18619265963E+03  0.23240605881E+03  0.00000000000E+00 0. -1.
<mgrwt>
<rscale>  2 0.13908584E+03</rscale>
<asrwt>0</asrwt>
<pdfrwt beam="1">  1       21 0.17926613E-01 0.13908584E+03</pdfrwt>
<pdfrwt beam="2">  1       21 0.40164609E-01 0.13908584E+03</pdfrwt>
<totfact> 0.17172922E+05</totfact>
</mgrwt>
</event>
<event>
 4    1  0.6052129E+003  0.1132944E+03  0.7546771E-02  0.1254588E+00
         21   -1    0    0  504  501  0.00000000000E+00  0.00000000000E+00  0.10179271114E+03  0.10179271114E+03  0.00000000000E+00 0.  1.
         21   -1    0    0  503  502 -0.00000000000E+00 -0.00000000000E+00 -0.12610862804E+03  0.12610862804E+03  0.00000000000E+00 0.  1.
         21    1    1    2  503  501  0.96303478370E+02 -0.59676255198E+02 -0.11000803098E+02  0.11382720698E+03  0.00000000000E+00 0.  1.
         21    1    1    2  504  502 -0.96303478370E+02  0.59676255198E+02 -0.13315113801E+02  0.11407413220E+03  0.00000000000E+00 0.  1.
<mgrwt>
<rscale>  2 0.11329437E+03</rscale>
<asrwt>0</asrwt>
<pdfrwt beam="1">  1       21 0.15660417E-01 0.11329437E+03</pdfrwt>
<pdfrwt beam="2">  1       21 0.19401327E-01 0.11329437E+03</pdfrwt>
<totfact> 0.88692737E+05</totfact>
</mgrwt>
</event>
<event>
 4    1  0.6052129E+003  0.1046776E+03  0.7546771E-02  0.1270756E+00
         21   -1    0    0  503  501  0.00000000000E+00  0.00000000000E+00  0.59208779842E+03  0.59208779842E+03  0.00000000000E+00 0. -1.
         21   -1    0    0  504  502 -0.00000000000E+00 -0.00000000000E+00 -0.75161825358E+02  0.75161825358E+02  0.00000000000E+00 0. -1.
         21    1    1    2  503  502  0.54286520451E+02  0.89500735138E+02 -0.31191641521E+02  0.10922603350E+03  0.00000000000E+00 0. -1.
         21    1    1    2  504  501 -0.54286520451E+02 -0.89500735138E+02  0.54811761459E+03  0.55802359028E+03  0.00000000000E+00 0. -1.
<mgrwt>
<rscale>  2 0.10467764E+03</rscale>
<asrwt>0</asrwt>
<pdfrwt beam="1">  1       21 0.91090428E-01 0.10467764E+03</pdfrwt>
<pdfrwt beam="2">  1       21 0.11563358E-01 0.10467764E+03</pdfrwt>
<totfact> 0.66970614E+04</totfact>
</mgrwt>
</event>
<event>
 4    1  0.6052129E+003  0.1059676E+03  0.7546771E-02  0.1268225E+00
         21   -1    0    0  504  501  0.00000000000E+00  0.00000000000E+00  0.75419814281E+02  0.75419814281E+02  0.00000000000E+00 0.  1.
         21   -1    0    0  501  502 -0.00000000000E+00 -0.00000000000E+00 -0.23133830577E+03  0.23133830577E+03  0.00000000000E+00 0.  1.
         21    1    1    2  503  502  0.41321199781E+02 -0.97579122062E+02 -0.16952597211E+03  0.19992043876E+03  0.00000000000E+00 0.  1.
         21    1    1    2  504  503 -0.41321199781E+02  0.97579122062E+02  0.13607480626E+02  0.10683768129E+03  0.00000000000E+00 0.  1.
<mgrwt>
<rscale>  2 0.10596757E+03</rscale>
<asrwt>0</asrwt>
<pdfrwt beam="1">  1       21 0.11603049E-01 0.10596757E+03</pdfrwt>
<pdfrwt beam="2">  1       21 0.35590508E-01 0.10596757E+03</pdfrwt>
<totfact> 0.47934741E+05</totfact>
</mgrwt>
</event>
<event>
 4    1  0.6052129E+003  0.1319683E+03  0.7546771E-02  0.1224564E+00
         21   -1    0    0  504  501  0.00000000000E+00  0.00000000000E+00  0.38749018445E+03  0.38749018445E+03  0.00000000000E+00 0.  1.
         21   -1    0    0  503  502 -0.00000000000E+00 -0.00000000000E+00 -0.10727847977E+03  0.10727847977E+03  0.00000000000E+00 0.  1.
         21    1    1    2  503  501 -0.20999971648E+02  0.13028668699E+03  0.32867807087E+03  0.35418200672E+03  0.00000000000E+00 0.  1.
         21    1    1    2  504  502  0.20999971648E+02 -0.13028668699E+03 -0.48466366185E+02  0.14058665750E+03  0.00000000000E+00 0.  1.
<mgrwt>
<rscale>  2 0.13196825E+03</rscale>
<asrwt>0</asrwt>
<pdfrwt beam="1">  1       21 0.59613874E-01 0.13196825E+03</pdfrwt>
<pdfrwt beam="2">  1       21 0.16504382E-01 0.13196825E+03</pdfrwt>
<totfact> 0.88731258E+04</totfact>
</mgrwt>
</event>
<event>
 4    1  0.6052129E+003  0.1819905E+03  0.7546771E-02  0.1165890E+00
         21   -1    0    0  502  501  0.00000000000E+00  0.00000000000E+00  0.16736991162E+04  0.16736991162E+04  0.00000000000E+00 0.  1.
         21   -1    0    0  504  502 -0.00000000000E+00 -0.00000000000E+00 -0.54983286870E+02  0.54983286870E+02  0.00000000000E+00 0.  1.
         21    1    1    2  503  501 -0.11726991698E+03 -0.13917012227E+03  0.15008814519E+04  0.15118748920E+04  0.00000000000E+00 0.  1.
         21    1    1    2  504  503  0.11726991698E+03  0.13917012227E+03  0.11783437745E+03  0.21680751111E+03  0.00000000000E+00 0.  1.
<mgrwt>
<rscale>  2 0.18199054E+03</rscale>
<asrwt>0</asrwt>
<pdfrwt beam="1">  1       21 0.25749213E+00 0.18199054E+03</pdfrwt>
<pdfrwt beam="2">  1       21 0.84589685E-02 0.18199054E+03</pdfrwt>
<totfact> 0.66170282E+03</totfact>
</mgrwt>
</event>
<event>
 4    1  0.6052129E+003  0.1270460E+03  0.7546771E-02  0.1231906E+00
         21   -1    0    0  503  501  0.00000000000E+00  0.00000000000E+00  0.71249495762E+03  0.71249495762E+03  0.00000000000E+00 0.  1.
         21   -1    0    0  504  502 -0.00000000000E+00 -0.00000000000E+00 -0.23659056919E+02  0.23659056919E+02  0.00000000000E+00 0.  1.
         21    1    1    2  503  502 -0.12276461371E+03  0.32703588241E+02  0.42029171081E+03  0.43907379476E+03  0.00000000000E+00 0.  1.
         21    1    1    2  504  501  0.12276461371E+03 -0.32703588241E+02  0.26854418989E+03  0.29708021979E+03  0.00000000000E+00 0.  1.
<mgrwt>
<rscale>  2 0.12704596E+03</rscale>
<asrwt>0</asrwt>
<pdfrwt beam="1">  1       21 0.10961459E+00 0.12704596E+03</pdfrwt>
<pdfrwt beam="2">  1       21 0.36398555E-02 0.12704596E+03</pdfrwt>
<totfact> 0.30762668E+05</totfact>
</mgrwt>
</event>
<event>
 4    1  0.6052129E+003  0.1000173E+03  0.7546771E-02  0.1280259E+00
         21   -1    0    0  504  501  0.00000000000E+00  0.00000000000E+00  0.25783131726E+03  0.25783131726E+03  0.00000000000E+00 0. -1.
         21   -1    0    0  501  502 -0.00000000000E+00 -0.00000000000E+00 -0.61918037961E+02  0.61918037961E+02  0.00000000000E+00 0.  1.
         21    1    1    2  503  502  0.56215962542E+02  0.82723844175E+02  0.26426943859E+00  0.10001769182E+03  0.00000000000E+00 0.  1.
         21    1    1    2  504  503 -0.56215962542E+02 -0.82723844175E+02  0.19564900986E+03  0.21973166339E+03  0.00000000000E+00 0. -1.
<mgrwt>
<rscale>  2 0.10001734E+03</rscale>
<asrwt>0</asrwt>
<pdfrwt beam="1">  1       21 0.39666356E-01 0.10001734E+03</pdfrwt>
<pdfrwt beam="2">  1       21 0.95258522E-02 0.10001734E+03</pdfrwt>
<totfact> 0.54636509E+05</totfact>
</mgrwt>
</event>
<event>
 4    1  0.6052129E+003  0.1195793E+03  0.7546771E-02  0.1243793E+00
         21   -1    0    0  502  501  0.00000000000E+00  0.00000000000E+00  0.17837523215E+02  0.17837523215E+02  0.00000000000E+00 0.  1.
         21   -1    0    0  503  502 -0.00000000000E+00 -0.00000000000E+00 -0.82287758995E+03  0.82287758995E+03  0.00000000000E+00 0.  1.
         21    1    1    2  503  504 -0.11134074468E+03  0.43617069769E+02 -0.33498341035E+03  0.35568679397E+03  0.00000000000E+00 0.  1.
         21    1    1    2  504  501  0.11134074468E+03 -0.43617069769E+02 -0.47005665639E+03  0.48502831919E+03  0.00000000000E+00 0.  1.
<mgrwt>
<rscale>  2 0.11957931E+03</rscale>
<asrwt>0</asrwt>
<pdfrwt beam="1">  1       21 0.27442341E-02 0.11957931E+03</pdfrwt>
<pdfrwt beam="2">  1       21 0.12659656E+00 0.11957931E+03</pdfrwt>
<totfact> 0.34570123E+05</totfact>
</mgrwt>
</event>
<event>
 4    1  0.6052129E+003  0.1092140E+03  0.7546771E-02  0.1262032E+00
         21   -1    0    0  504  501  0.00000000000E+00  0.00000000000E+00  0.43937367179E+03  0.43937367179E+03  0.00000000000E+00 0. -1.
         21   -1    0    0  503  502 -0.00000000000E+00 -0.00000000000E+00 -0.43187096092E+02  0.43187096092E+02  0.00000000000E+00 0. -1.
         21    1    1    2  503  501 -0.75680972478E+02  0.78740663441E+02  0.34513743353E+03  0.36200490286E+03  0.00000000000E+00 0. -1.
         21    1    1    2  504  502  0.75680972478E+02 -0.78740663441E+02  0.51049142173E+02  0.12055586502E+03  0.00000000000E+00 0. -1.
<mgrwt>
<rscale>  2 0.10921402E+03</rscale>
<asrwt>0</asrwt>
<pdfrwt beam="1">  1       21 0.67595947E-01 0.10921402E+03</pdfrwt>
<pdfrwt beam="2">  1       21 0.66441689E-02 0.10921402E+03</pdfrwt>
<totfact> 0.33686925E+05</totfact>
</mgrwt>
</event>
<event>
 4    1  0.6052129E+003  0.1031554E+03  0.7546771E-02  0.1273797E+00
         21   -1    0    0  504  501  0.00000000000E+00  0.00000000000E+00  0.52046506626E+03  0.52046506626E+03  0.00000000000E+00 0.  1.
         21   -1    0    0  503  502 -0.00000000000E+00 -0.00000000000E+00 -0.21060942803E+02  0.21060942803E+02  0.00000000000E+00 0. -1.
         21    1    1    2  503  501 -0.50876243032E+02  0.89736528885E+02  0.20340711450E+03  0.22806904864E+03  0.00000000000E+00 0. -1.
         21    1    1    2  504  502  0.50876243032E+02 -0.89736528885E+02  0.29599700896E+03  0.31345696042E+03  0.00000000000E+00 0.  1.
<mgrwt>
<rscale>  2 0.10315540E+03</rscale>
<asrwt>0</asrwt>
<pdfrwt beam="1">  1       21 0.80071539E-01 0.10315540E+03</pdfrwt>
<pdfrwt beam="2">  1       21 0.32401454E-02 0.10315540E+03</pdfrwt>
<totfact> 0.76968216E+05</totfact>
</mgrwt>
</event>
<event>
 4    1  0.6052129E+003  0.1069262E+03  0.7546771E-02  0.1266370E+00
         21   -1    0    0  504  501  0.00000000000E+00  0.00000000000E+00  0.41075216472E+02  0.41075216472E+02  0.00000000000E+00 0. -1.
         21   -1    0    0  501  502 -0.00000000000E+00 -0.00000000000E+00 -0.55713874748E+03  0.55713874748E+03  0.00000000000E+00 0.  1.
         21    1    1    2  503  502 -0.89873437152E+02  0.57930843386E+02 -0.46961624200E+03  0.48163537253E+03  0.00000000000E+00 0.  1.
         21    1    1    2  504  503  0.89873437152E+02 -0.57930843386E+02 -0.46447289000E+02  0.11657859142E+03  0.00000000000E+00 0. -1.
<mgrwt>
<rscale>  2 0.10692622E+03</rscale>
<asrwt>0</asrwt>
<pdfrwt beam="1">  1       21 0.63192647E-02 0.10692622E+03</pdfrwt>
<pdfrwt beam="2">  1       21 0.85713645E-01 0.10692622E+03</pdfrwt>
<totfact> 0.21751232E+05</totfact>
</mgrwt>
</event>
<event>
 4    1  0.6052129E+003  0.1017904E+03  0.7546771E-02  0.1276575E+00
         21   -1    0    0  502  501  0.00000000000E+00  0.00000000000E+00  0.91608004348E+02  0.91608004348E+02  0.00000000000E+00 0.  1.
         21   -1    0    0  503  502 -0.00000000000E+00 -0.00000000000E+00 -0.11726136152E+03  0.11726136152E+03  0.00000000000E+00 0. -1.
         21    1    1    2  503  504 -0.10743349851E+02 -0.10122188713E+03 -0.32489369480E+02  0.10684965667E+03  0.00000000000E+00 0.  1.
         21    1    1    2  504  501  0.10743349851E+02  0.10122188713E+03  0.68360123073E+01  0.10201970920E+03  0.00000000000E+00 0. -1.
<mgrwt>
<rscale>  2 0.10179042E+03</rscale>
<asrwt>0</asrwt>
<pdfrwt beam="1">  1       21 0.14093539E-01 0.10179042E+03</pdfrwt>
<pdfrwt beam="2">  1       21 0.18040209E-01 0.10179042E+03</pdfrwt>
<totfact> 0.12217535E+06</totfact>
</mgrwt>
</event>
<event>
 4    1  0.6052129E+003  0.1139528E+03  0.7546771E-02  0.1253420E+00
         21   -1    0    0  503  501  0.00000000000E+00  0.00000000000E+00  0.92362608835E+01  0.92362608835E+01  0.00000000000E+00 0.  1.
         21   -1    0    0  504  502 -0.00000000000E+00 -0.00000000000E+00 -0.14280753927E+04  0.14280753927E+04  0.00000000000E+00 0.  1.
         21    1    1    2  503  502 -0.47870895152E+02 -0.10340999697E+03 -0.79897474164E+03  0.80706002741E+03  0.00000000000E+00 0.  1.
         21    1    1    2  504  501  0.47870895152E+02  0.10340999697E+03 -0.61986439017E+03  0.63025162616E+03  0.00000000000E+00 0.  1.
<mgrwt>
<rscale>  2 0.11395284E+03</rscale>
<asrwt>0</asrwt>
<pdfrwt beam="1">  1       21 0.14209626E-02 0.11395284E+03</pdfrwt>
<pdfrwt beam="2">  1       21 0.21970399E+00 0.11395284E+03</pdfrwt>
<totfact> 0.22625849E+05</totfact>
</mgrwt>
</event>
<event>
 4    1  0.6052129E+003  0.1027743E+03  0.7546771E-02  0.1274568E+00
         21   -1    0    0  504  501  0.00000000000E+00  0.00000000000E+00  0.12775298376E+03  0.12775298376E+03  0.00000000000E+00 0.  1.
         21   -1    0    0  501  502 -0.00000000000E+00 -0.00000000000E+00 -0.45213663593E+03  0.45213663593E+03  0.00000000000E+00 0.  1.
         21    1    1    2  503  502 -0.93443815424E+02 -0.42787858487E+02 -0.42428912419E+03  0.43655905486E+03  0.00000000000E+00 0.  1.
         21    1    1    2  504  503  0.93443815424E+02  0.42787858487E+02  0.99905472021E+02  0.14333056483E+03  0.00000000000E+00 0.  1.
<mgrwt>
<rscale>  2 0.10277425E+03</rscale>
<asrwt>0</asrwt>
<pdfrwt beam="1">  1       21 0.19654305E-01 0.10277425E+03</pdfrwt>
<pdfrwt beam="2">  1       21 0.69559482E-01 0.10277425E+03</pdfrwt>
<totfact> 0.47093768E+04</totfact>
</mgrwt>
</event>
<event>
 4    1  0.6052129E+003  0.1147230E+03  0.7546771E-02  0.1252065E+00
         21   -1    0    0  503  501  0.00000000000E+00  0.00000000000E+00  0.17193866850E+03  0.17193866850E+03  0.00000000000E+00 0. -1.
         21   -1    0    0  501  502 -0.00000000000E+00 -0.00000000000E+00 -0.12810414292E+03  0.12810414292E+03  0.00000000000E+00 0.  1.
         21    1    1    2  503  504  0.10339140177E+03  0.49715076230E+02  0.11709086720E+03  0.16392572082E+03  0.00000000000E+00 0. -1.
         21    1    1    2  504  502 -0.10339140177E+03 -0.49715076230E+02 -0.73256341622E+02  0.13611709060E+03  0.00000000000E+00 0.  1.
<mgrwt>
<rscale>  2 0.11472302E+03</rscale>
<asrwt>0</asrwt>
<pdfrwt beam="1">  1       21 0.26452103E-01 0.11472302E+03</pdfrwt>
<pdfrwt beam="2">  1       21 0.19708330E-01 0.11472302E+03</pdfrwt>
<totfact> 0.32727591E+05</totfact>
</mgrwt>
</event>
<event>
 4    1  0.6052129E+003  0.1882002E+03  0.7546771E-02  0.1160095E+00
         21   -1    0    0  504  501  0.00000000000E+00  0.00000000000E+00  0.35565148531E+03  0.35565148531E+03  0.00000000000E+00 0. -1.
         21   -1    0    0  503  502 -0.00000000000E+00 -0.00000000000E+00 -0.10372329647E+03  0.10372329647E+03  0.00000000000E+00 0. -1.
         21    1    1    2  503  501 -0.15817110445E+03  0.10198636069E+03  0.17181517213E+03  0.25483282643E+03  0.00000000000E+00 0. -1.
         21    1    1    2  504  502  0.15817110445E+03 -0.10198636069E+03  0.80113016712E+02  0.20454195535E+03  0.00000000000E+00 0. -1.
<mgrwt>
<rscale>  2 0.18820020E+03</rscale>
<asrwt>0</asrwt>
<pdfrwt beam="1">  1       21 0.54715613E-01 0.18820020E+03</pdfrwt>
<pdfrwt beam="2">  1       21 0.15957430E-01 0.18820020E+03</pdfrwt>
<totfact> 0.11067789E+05</totfact>
</mgrwt>
</event>
<event>
 4    1  0.6052129E+003  0.1585962E+03  0.7546771E-02  0.1190291E+00
         21   -1    0    0  504  501  0.00000000000E+00  0.00000000000E+00  0.11459884544E+03  0.11459884544E+03  0.00000000000E+00 0. -1.
         21   -1    0    0  503  502 -0.00000000000E+00 -0.00000000000E+00 -0.59018786084E+03  0.59018786084E+03  0.00000000000E+00 0. -1.
         21    1    1    2  503  501  0.18164915472E+02 -0.15755246247E+03  0.41489111639E+02  0.16393318447E+03  0.00000000000E+00 0. -1.
         21    1    1    2  504  502 -0.18164915472E+02  0.15755246247E+03 -0.51707812704E+03  0.54085352180E+03  0.00000000000E+00 0. -1.
<mgrwt>
<rscale>  2 0.15859616E+03</rscale>
<asrwt>0</asrwt>
<pdfrwt beam="1">  1       21 0.17630592E-01 0.15859616E+03</pdfrwt>
<pdfrwt beam="2">  1       21 0.90798132E-01 0.15859616E+03</pdfrwt>
<totfact> 0.30629623E+04</totfact>
</mgrwt>
</event>
<event>
 4    1  0.6052129E+003  0.1112146E+03  0.7546771E-02  0.1258337E+00
         21   -1    0    0  504  501  0.00000000000E+00  0.00000000000E+00  0.38679049285E+02  0.38679049285E+02  0.00000000000E+00 0. -1.
         21   -1    0    0  503  502 -0.00000000000E+00 -0.00000000000E+00 -0.32843370452E+03  0.32843370452E+03  0.00000000000E+00 0. -1.
         21    1    1    2  503  501  0.12877660593E+02 -0.11046650284E+03 -0.17467717918E+03  0.20707679570E+03  0.00000000000E+00 0. -1.
         21    1    1    2  504  502 -0.12877660593E+02  0.11046650284E+03 -0.11507747605E+03  0.16003595810E+03  0.00000000000E+00 0. -1.
<mgrwt>
<rscale>  2 0.11121458E+03</rscale>
<asrwt>0</asrwt>
<pdfrwt beam="1">  1       21 0.59506229E-02 0.11121458E+03</pdfrwt>
<pdfrwt beam="2">  1       21 0.50528263E-01 0.11121458E+03</pdfrwt>
<totfact> 0.74916833E+05</totfact>
</mgrwt>
</event>
<event>
 4    1  0.6052129E+003  0.1368958E+03  0.7546771E-02  0.1217568E+00
         21   -1    0    0  504  501  0.00000000000E+00  0.00000000000E+00  0.59185442223E+03  0.59185442223E+03  0.00000000000E+00 0.  1.
         21   -1    0    0  501  502 -0.00000000000E+00 -0.00000000000E+00 -0.81909703063E+02  0.81909703063E+02  0.00000000000E+00 0.  1.
         21    1    1    2  503  502 -0.12332077768E+03  0.59434332077E+02 -0.88793142128E+01  0.13718344017E+03  0.00000000000E+00 0.  1.
         21    1    1    2  504  503  0.12332077768E+03 -0.59434332077E+02  0.51882403338E+03  0.53658068513E+03  0.00000000000E+00 0.  1.
<mgrwt>
<rscale>  2 0.13689578E+03</rscale>
<asrwt>0</asrwt>
<pdfrwt beam="1">  1       21 0.91054524E-01 0.13689578E+03</pdfrwt>
<pdfrwt beam="2">  1       21 0.12601493E-01 0.13689578E+03</pdfrwt>
<totfact> 0.56521182E+04</totfact>
</mgrwt>
</event>
<event>
 4    1  0.6052129E+003  0.1396513E+03  0.7546771E-02  0.1213799E+00
         21   -1    0    0  502  501  0.00000000000E+00  0.00000000000E+00  0.41711816153E+02  0.41711816153E+02  0.00000000000E+00 0. -1.
         21   -1    0    0  503  502 -0.00000000000E+00 -0.00000000000E+00 -0.74197696761E+03  0.74197696761E+03  0.00000000000E+00 0. -1.
         21    1    1    2  503  504 -0.66944148027E+02 -0.12256003958E+03 -0.58843556532E+03  0.60478004001E+03  0.00000000000E+00 0. -1.
         21    1    1    2  504  501  0.66944148027E+02  0.12256003958E+03 -0.11182958613E+03  0.17890874375E+03  0.00000000000E+00 0. -1.
<mgrwt>
<rscale>  2 0.13965129E+03</rscale>
<asrwt>0</asrwt>
<pdfrwt beam="1">  1       21 0.64172025E-02 0.13965129E+03</pdfrwt>
<pdfrwt beam="2">  1       21 0.11415030E+00 0.13965129E+03</pdfrwt>
<totfact> 0.10729249E+05</totfact>
</mgrwt>
</event>
<event>
 4    1  0.6052129E+003  0.1131359E+03  0.7546771E-02  0.1254870E+00
         21   -1    0    0  504  501  0.00000000000E+00  0.00000000000E+00  0.29922235427E+02  0.29922235427E+02  0.00000000000E+00 0. -1.
         21   -1    0    0  503  502 -0.00000000000E+00 -0.00000000000E+00 -0.43371684892E+03  0.43371684892E+03  0.00000000000E+00 0. -1.
         21    1    1    2  503  501  0.40530562874E+02 -0.10562670837E+03 -0.22905046795E+03  0.25546789410E+03  0.00000000000E+00 0. -1.
         21    1    1    2  504  502 -0.40530562874E+02  0.10562670837E+03 -0.17474414554E+03  0.20817119024E+03  0.00000000000E+00 0. -1.
<mgrwt>
<rscale>  2 0.11313588E+03</rscale>
<asrwt>0</asrwt>
<pdfrwt beam="1">  1       21 0.46034210E-02 0.11313588E+03</pdfrwt>
<pdfrwt beam="2">  1       21 0.66725667E-01 0.11313588E+03</pdfrwt>
<totfact> 0.64191407E+05</totfact>
</mgrwt>
</event>
<event>
 4    1  0.6052129E+003  0.1196204E+03  0.7546771E-02  0.1243725E+00
         21   -1    0    0  503  501  0.00000000000E+00  0.00000000000E+00  0.16815318622E+03  0.16815318622E+03  0.00000000000E+00 0.  1.
         21   -1    0    0  504  502 -0.00000000000E+00 -0.00000000000E+00 -0.89204979941E+02  0.89204979941E+02  0.00000000000E+00 0.  1.
         21    1    1    2  503  502  0.84594542704E+02 -0.84574290971E+02  0.11854532048E+02  0.12020639450E+03  0.00000000000E+00 0.  1.
         21    1    1    2  504  501 -0.84594542704E+02  0.84574290971E+02  0.67093674233E+02  0.13715177166E+03  0.00000000000E+00 0.  1.
<mgrwt>
<rscale>  2 0.11962043E+03</rscale>
<asrwt>0</asrwt>
<pdfrwt beam="1">  1       21 0.25869721E-01 0.11962043E+03</pdfrwt>
<pdfrwt beam="2">  1       21 0.13723843E-01 0.11962043E+03</pdfrwt>
<totfact> 0.65748999E+05</totfact>
</mgrwt>
</event>
<event>
 4    1  0.6052129E+003  0.1082550E+03  0.7546771E-02  0.1263836E+00
         21   -1    0    0  504  501  0.00000000000E+00  0.00000000000E+00  0.19268083281E+02  0.19268083281E+02  0.00000000000E+00 0. -1.
         21   -1    0    0  503  502 -0.00000000000E+00 -0.00000000000E+00 -0.68397039167E+03  0.68397039167E+03  0.00000000000E+00 0.  1.
         21    1    1    2  503  501  0.27889045323E+02  0.10460089124E+03 -0.44937100957E+03  0.46222662141E+03  0.00000000000E+00 0.  1.
         21    1    1    2  504  502 -0.27889045323E+02 -0.10460089124E+03 -0.21533129882E+03  0.24101185354E+03  0.00000000000E+00 0. -1.
<mgrwt>
<rscale>  2 0.10825500E+03</rscale>
<asrwt>0</asrwt>
<pdfrwt beam="1">  1       21 0.29643210E-02 0.10825500E+03</pdfrwt>
<pdfrwt beam="2">  1       21 0.10522620E+00 0.10825500E+03</pdfrwt>
<totfact> 0.47679339E+05</totfact>
</mgrwt>
</event>
<event>
 4    1  0.6052129E+003  0.1001461E+03  0.7546771E-02  0.1279989E+00
         21   -1    0    0  504  501  0.00000000000E+00  0.00000000000E+00  0.16819016668E+02  0.16819016668E+02  0.00000000000E+00 0. -1.
         21   -1    0    0  503  502 -0.00000000000E+00 -0.00000000000E+00 -0.62087653040E+03  0.62087653040E+03  0.00000000000E+00 0.  1.
         21    1    1    2  503  501  0.39712073932E+02  0.91935847169E+02 -0.36546021744E+03  0.37893326503E+03  0.00000000000E+00 0. -1.
         21    1    1    2  504  502 -0.39712073932E+02 -0.91935847169E+02 -0.23859729628E+03  0.25876228203E+03  0.00000000000E+00 0.  1.
<mgrwt>
<rscale>  2 0.10014614E+03</rscale>
<asrwt>0</asrwt>
<pdfrwt beam="1">  1       21 0.25875416E-02 0.10014614E+03</pdfrwt>
<pdfrwt beam="2">  1       21 0.95519445E-01 0.10014614E+03</pdfrwt>
<totfact> 0.74551567E+05</totfact>
</mgrwt>
</event>
<event>
 4    1  0.6052129E+003  0.1454757E+03  0.7546771E-02  0.1206145E+00
         21   -1    0    0  503  501  0.00000000000E+00  0.00000000000E+00  0.45278620824E+02  0.45278620824E+02  0.00000000000E+00 0. -1.
         21   -1    0    0  504  502 -0.00000000000E+00 -0.00000000000E+00 -0.46898265809E+03  0.46898265809E+03  0.00000000000E+00 0.  1.
         21    1    1    2  503  502 -0.59228636076E+02  0.13287267323E+03 -0.22679429160E+03  0.26944169930E+03  0.00000000000E+00 0. -1.
         21    1    1    2  504  501  0.59228636076E+02 -0.13287267323E+03 -0.19690974567E+03  0.24481957961E+03  0.00000000000E+00 0.  1.
<mgrwt>
<rscale>  2 0.14547570E+03</rscale>
<asrwt>0</asrwt>
<pdfrwt beam="1">  1       21 0.69659413E-02 0.14547570E+03</pdfrwt>
<pdfrwt beam="2">  1       21 0.72151182E-01 0.14547570E+03</pdfrwt>
<totfact> 0.26757147E+05</totfact>
</mgrwt>
</event>
<event>
 4    1  0.6052129E+003  0.1272111E+03  0.7546771E-02  0.1231654E+00
         21   -1    0    0  504  501  0.00000000000E+00  0.00000000000E+00  0.12266613149E+03  0.12266613149E+03  0.00000000000E+00 0. -1.
         21   -1    0    0  503  502 -0.00000000000E+00 -0.00000000000E+00 -0.24759321948E+03  0.24759321948E+03  0.00000000000E+00 0.  1.
         21    1    1    2  503  501  0.11717766748E+03  0.49518360164E+02 -0.18899967265E+03  0.22782350627E+03  0.00000000000E+00 0.  1.
         21    1    1    2  504  502 -0.11717766748E+03 -0.49518360164E+02  0.64072584651E+02  0.14243584470E+03  0.00000000000E+00 0. -1.
<mgrwt>
<rscale>  2 0.12721114E+03</rscale>
<asrwt>0</asrwt>
<pdfrwt beam="1">  1       21 0.18871713E-01 0.12721114E+03</pdfrwt>
<pdfrwt beam="2">  1       21 0.38091264E-01 0.12721114E+03</pdfrwt>
<totfact> 0.17429679E+05</totfact>
</mgrwt>
</event>
<event>
 4    1  0.6052129E+003  0.1168459E+03  0.7546771E-02  0.1248393E+00
         21   -1    0    0  502  501  0.00000000000E+00  0.00000000000E+00  0.10003311962E+04  0.10003311962E+04  0.00000000000E+00 0. -1.
         21   -1    0    0  503  502 -0.00000000000E+00 -0.00000000000E+00 -0.85286777702E+03  0.85286777702E+03  0.00000000000E+00 0. -1.
         21    1    1    2  503  504 -0.10832059349E+03  0.43813444860E+02 -0.84542368612E+03  0.85346012091E+03  0.00000000000E+00 0. -1.
         21    1    1    2  504  501  0.10832059349E+03 -0.43813444860E+02  0.99288710529E+03  0.99973885229E+03  0.00000000000E+00 0. -1.
<mgrwt>
<rscale>  2 0.11684592E+03</rscale>
<asrwt>0</asrwt>
<pdfrwt beam="1">  1       21 0.15389711E+00 0.11684592E+03</pdfrwt>
<pdfrwt beam="2">  1       21 0.13121043E+00 0.11684592E+03</pdfrwt>
<totfact> 0.13420892E+02</totfact>
</mgrwt>
</event>
<event>
 4    1  0.6052129E+003  0.1113811E+03  0.7546771E-02  0.1258033E+00
         21   -1    0    0  502  501  0.00000000000E+00  0.00000000000E+00  0.50950065297E+02  0.50950065297E+02  0.00000000000E+00 0.  1.
         21   -1    0    0  503  502 -0.00000000000E+00 -0.00000000000E+00 -0.28096371318E+03  0.28096371318E+03  0.00000000000E+00 0.  1.
         21    1    1    2  503  504  0.10770422346E+03  0.28382306037E+02 -0.17561653539E+03  0.20795894438E+03  0.00000000000E+00 0.  1.
         21    1    1    2  504  501 -0.10770422346E+03 -0.28382306037E+02 -0.54397112491E+02  0.12395483409E+03  0.00000000000E+00 0.  1.
<mgrwt>
<rscale>  2 0.11138113E+03</rscale>
<asrwt>0</asrwt>
<pdfrwt beam="1">  1       21 0.78384714E-02 0.11138113E+03</pdfrwt>
<pdfrwt beam="2">  1       21 0.43225187E-01 0.11138113E+03</pdfrwt>
<totfact> 0.64395176E+05</totfact>
</mgrwt>
</event>
<event>
 4    1  0.6052129E+003  0.1098133E+03  0.7546771E-02  0.1260916E+00
         21   -1    0    0  503  501  0.00000000000E+00  0.00000000000E+00  0.33773809459E+03  0.33773809459E+03  0.00000000000E+00 0.  1.
         21   -1    0    0  504  502 -0.00000000000E+00 -0.00000000000E+00 -0.37787531212E+02  0.37787531212E+02  0.00000000000E+00 0.  1.
         21    1    1    2  503  502  0.10908159109E+03 -0.12655733690E+02  0.19405351244E+03  0.22297023748E+03  0.00000000000E+00 0.  1.
         21    1    1    2  504  501 -0.10908159109E+03  0.12655733690E+02  0.10589705094E+03  0.15255538833E+03  0.00000000000E+00 0.  1.
<mgrwt>
<rscale>  2 0.10981330E+03</rscale>
<asrwt>0</asrwt>
<pdfrwt beam="1">  1       21 0.51959705E-01 0.10981330E+03</pdfrwt>
<pdfrwt beam="2">  1       21 0.58134666E-02 0.10981330E+03</pdfrwt>
<totfact> 0.73561606E+05</totfact>
</mgrwt>
</event>
<event>
 4    1  0.6052129E+003  0.1088228E+03  0.7546771E-02  0.1262766E+00
         21   -1    0    0  503  501  0.00000000000E+00  0.00000000000E+00  0.42896468373E+03  0.42896468373E+03  0.00000000000E+00 0.  1.
         21   -1    0    0  504  502 -0.00000000000E+00 -0.00000000000E+00 -0.21796720615E+04  0.21796720615E+04  0.00000000000E+00 0. -1.
         21    1    1    2  503  502  0.10783082708E+03 -0.14659886197E+02  0.42067835114E+03  0.43452580435E+03  0.00000000000E+00 0.  1.
         21    1    1    2  504  501 -0.10783082708E+03  0.14659886197E+02 -0.21713857289E+04  0.21741109409E+04  0.00000000000E+00 0. -1.
<mgrwt>
<rscale>  2 0.10882279E+03</rscale>
<asrwt>0</asrwt>
<pdfrwt beam="1">  1       21 0.65994566E-01 0.10882279E+03</pdfrwt>
<pdfrwt beam="2">  1       21 0.33533417E+00 0.10882279E+03</pdfrwt>
<totfact> 0.54945030E+01</totfact>
</mgrwt>
</event>
<event>
 4    1  0.6052129E+003  0.1058395E+03  0.7546771E-02  0.1268474E+00
         21   -1    0    0  503  501  0.00000000000E+00  0.00000000000E+00  0.49000964333E+03  0.49000964333E+03  0.00000000000E+00 0.  1.
         21   -1    0    0  501  502 -0.00000000000E+00 -0.00000000000E+00 -0.94431264671E+02  0.94431264671E+02  0.00000000000E+00 0. -1.
         21    1    1    2  503  504  0.93516404711E+02  0.49564922304E+02  0.45219071234E+03  0.46441192900E+03  0.00000000000E+00 0.  1.
         21    1    1    2  504  502 -0.93516404711E+02 -0.49564922304E+02 -0.56612333686E+02  0.12002897899E+03  0.00000000000E+00 0. -1.
<mgrwt>
<rscale>  2 0.10583950E+03</rscale>
<asrwt>0</asrwt>
<pdfrwt beam="1">  1       21 0.75386097E-01 0.10583950E+03</pdfrwt>
<pdfrwt beam="2">  1       21 0.14527887E-01 0.10583950E+03</pdfrwt>
<totfact> 0.68173019E+04</totfact>
</mgrwt>
</event>
<event>
 4    1  0.6052129E+003  0.1299909E+03  0.7546771E-02  0.1227469E+00
         21   -1    0    0  504  501  0.00000000000E+00  0.00000000000E+00  0.85894455127E+02  0.85894455127E+02  0.00000000000E+00 0. -1.
         21   -1    0    0  503  502 -0.00000000000E+00 -0.00000000000E+00 -0.21020754240E+03  0.21020754240E+03  0.00000000000E+00 0. -1.
         21    1    1    2  503  501 -0.65666910990E+02 -0.11218509625E+03 -0.99650673379E+02  0.16379223341E+03  0.00000000000E+00 0. -1.
         21    1    1    2  504  502  0.65666910990E+02  0.11218509625E+03 -0.24662413889E+02  0.13230976411E+03  0.00000000000E+00 0. -1.
<mgrwt>
<rscale>  2 0.12999092E+03</rscale>
<asrwt>0</asrwt>
<pdfrwt beam="1">  1       21 0.13214531E-01 0.12999092E+03</pdfrwt>
<pdfrwt beam="2">  1       21 0.32339622E-01 0.12999092E+03</pdfrwt>
<totfact> 0.45810197E+05</totfact>
</mgrwt>
</event>
<event>
 4    1  0.6052129E+003  0.1217924E+03  0.7546771E-02  0.1240169E+00
         21   -1    0    0  502  501  0.00000000000E+00  0.00000000000E+00  0.55162450779E+02  0.55162450779E+02  0.00000000000E+00 0.  1.
         21   -1    0    0  504  502 -0.00000000000E+00 -0.00000000000E+00 -0.96534930201E+03  0.96534930201E+03  0.00000000000E+00 0.  1.
         21    1    1    2  503  501 -0.50365544682E+02  0.11089046876E+03 -0.21692945203E+02  0.12370920752E+03  0.00000000000E+00 0.  1.
         21    1    1    2  504  503  0.50365544682E+02 -0.11089046876E+03 -0.88849390603E+03  0.89680254527E+03  0.00000000000E+00 0.  1.
<mgrwt>
<rscale>  2 0.12179238E+03</rscale>
<asrwt>0</asrwt>
<pdfrwt beam="1">  1       21 0.84865315E-02 0.12179238E+03</pdfrwt>
<pdfrwt beam="2">  1       21 0.14851527E+00 0.12179238E+03</pdfrwt>
<totfact> 0.34830249E+04</totfact>
</mgrwt>
</event>
<event>
 4    1  0.6052129E+003  0.1253864E+03  0.7546771E-02  0.1234467E+00
         21   -1    0    0  503  501  0.00000000000E+00  0.00000000000E+00  0.52804028444E+03  0.52804028444E+03  0.00000000000E+00 0. -1.
         21   -1    0    0  501  502 -0.00000000000E+00 -0.00000000000E+00 -0.16988106380E+03  0.16988106380E+03  0.00000000000E+00 0. -1.
         21    1    1    2  503  504 -0.67391183106E+02 -0.10573634588E+03  0.49598847245E+03  0.51159193817E+03  0.00000000000E+00 0. -1.
         21    1    1    2  504  502  0.67391183106E+02  0.10573634588E+03 -0.13782925181E+03  0.18632941006E+03  0.00000000000E+00 0. -1.
<mgrwt>
<rscale>  2 0.12538639E+03</rscale>
<asrwt>0</asrwt>
<pdfrwt beam="1">  1       21 0.81236966E-01 0.12538639E+03</pdfrwt>
<pdfrwt beam="2">  1       21 0.26135548E-01 0.12538639E+03</pdfrwt>
<totfact> 0.19338848E+04</totfact>
</mgrwt>
</event>
<event>
 4    1  0.6052129E+003  0.1254283E+03  0.7546771E-02  0.1234401E+00
         21   -1    0    0  503  501  0.00000000000E+00  0.00000000000E+00  0.17576018930E+03  0.17576018930E+03  0.00000000000E+00 0.  1.
         21   -1    0    0  504  502 -0.00000000000E+00 -0.00000000000E+00 -0.89612421063E+02  0.89612421063E+02  0.00000000000E+00 0.  1.
         21    1    1    2  503  502 -0.46911385275E+01  0.12534051249E+03  0.47565090768E+02  0.13414428319E+03  0.00000000000E+00 0.  1.
         21    1    1    2  504  501  0.46911385275E+01 -0.12534051249E+03  0.38582677474E+02  0.13122832718E+03  0.00000000000E+00 0.  1.
<mgrwt>
<rscale>  2 0.12542827E+03</rscale>
<asrwt>0</asrwt>
<pdfrwt beam="1">  1       21 0.27040029E-01 0.12542827E+03</pdfrwt>
<pdfrwt beam="2">  1       21 0.13786526E-01 0.12542827E+03</pdfrwt>
<totfact> 0.59955798E+05</totfact>
</mgrwt>
</event>
<event>
 4    1  0.6052129E+003  0.1159828E+03  0.7546771E-02  0.1249875E+00
         21   -1    0    0  504  501  0.00000000000E+00  0.00000000000E+00  0.99278303468E+01  0.99278303468E+01  0.00000000000E+00 0. -1.
         21   -1    0    0  503  502 -0.00000000000E+00 -0.00000000000E+00 -0.14345663271E+04  0.14345663271E+04  0.00000000000E+00 0. -1.
         21    1    1    2  503  501  0.11422819141E+03 -0.20098217587E+02 -0.88243437102E+03  0.89002384082E+03  0.00000000000E+00 0. -1.
         21    1    1    2  504  502 -0.11422819141E+03  0.20098217587E+02 -0.54220412574E+03  0.55447031663E+03  0.00000000000E+00 0. -1.
<mgrwt>
<rscale>  2 0.11598284E+03</rscale>
<asrwt>0</asrwt>
<pdfrwt beam="1">  1       21 0.15273575E-02 0.11598284E+03</pdfrwt>
<pdfrwt beam="2">  1       21 0.22070265E+00 0.11598284E+03</pdfrwt>
<totfact> 0.19867020E+05</totfact>
</mgrwt>
</event>
<event>
 4    1  0.6052129E+003  0.1226265E+03  0.7546771E-02  0.1238826E+00
         21   -1    0    0  504  501  0.00000000000E+00  0.00000000000E+00  0.14357758616E+04  0.14357758616E+04  0.00000000000E+00 0.  1.
         21   -1    0    0  501  502 -0.00000000000E+00 -0.00000000000E+00 -0.24357838071E+03  0.24357838071E+03  0.00000000000E+00 0.  1.
         21    1    1    2  503  502  0.11847997539E+03 -0.31618749668E+02 -0.22532804443E+03  0.25653455421E+03  0.00000000000E+00 0.  1.
         21    1    1    2  504  503 -0.11847997539E+03  0.31618749668E+02  0.14175255253E+04  0.14228196881E+04  0.00000000000E+00 0.  1.
<mgrwt>
<rscale>  2 0.12262646E+03</rscale>
<asrwt>0</asrwt>
<pdfrwt beam="1">  1       21 0.22088859E+00 0.12262646E+03</pdfrwt>
<pdfrwt beam="2">  1       21 0.37473598E-01 0.12262646E+03</pdfrwt>
<totfact> 0.75601409E+02</totfact>
</mgrwt>
</event>
<event>
 4    1  0.6052129E+003  0.1074833E+03  0.7546771E-02  0.1265303E+00
         21   -1    0    0  503  501  0.00000000000E+00  0.00000000000E+00  0.12631096115E+03  0.12631096115E+03  0.00000000000E+00 0. -1.
         21   -1    0    0  504  502 -0.00000000000E+00 -0.00000000000E+00 -0.92359631699E+02  0.92359631699E+02  0.00000000000E+00 0. -1.
         21    1    1    2  503  502  0.50647054540E+02  0.94802564137E+02  0.61967807320E+01  0.10766174061E+03  0.00000000000E+00 0. -1.
         21    1    1    2  504  501 -0.50647054540E+02 -0.94802564137E+02  0.27754548722E+02  0.11100885224E+03  0.00000000000E+00 0. -1.
<mgrwt>
<rscale>  2 0.10748326E+03</rscale>
<asrwt>0</asrwt>
<pdfrwt beam="1">  1       21 0.19432456E-01 0.10748326E+03</pdfrwt>
<pdfrwt beam="2">  1       21 0.14209174E-01 0.10748326E+03</pdfrwt>
<totfact> 0.10522725E+06</totfact>
</mgrwt>
</event>
<event>
 4    1  0.6052129E+003  0.1077943E+03  0.7546771E-02  0.1264710E+00
         21   -1    0    0  504  501  0.00000000000E+00  0.00000000000E+00  0.55155215577E+03  0.55155215577E+03  0.00000000000E+00 0. -1.
         21   -1    0    0  503  502 -0.00000000000E+00 -0.00000000000E+00 -0.37786969007E+02  0.37786969007E+02  0.00000000000E+00 0. -1.
         21    1    1    2  503  501 -0.99004531773E+02  0.42634576974E+02  0.60871485359E+02  0.12379395056E+03  0.00000000000E+00 0. -1.
         21    1    1    2  504  502  0.99004531773E+02 -0.42634576974E+02  0.45289370140E+03  0.46554517422E+03  0.00000000000E+00 0. -1.
<mgrwt>
<rscale>  2 0.10779427E+03</rscale>
<asrwt>0</asrwt>
<pdfrwt beam="1">  1       21 0.84854172E-01 0.10779427E+03</pdfrwt>
<pdfrwt beam="2">  1       21 0.58133802E-02 0.10779427E+03</pdfrwt>
<totfact> 0.25610419E+05</totfact>
</mgrwt>
</event>
<event>
 4    1  0.6052129E+003  0.1293386E+03  0.7546771E-02  0.1228441E+00
         21   -1    0    0  503  501  0.00000000000E+00  0.00000000000E+00  0.47589412821E+03  0.47589412821E+03  0.00000000000E+00 0. -1.
         21   -1    0    0  504  502 -0.00000000000E+00 -0.00000000000E+00 -0.37649705159E+02  0.37649705159E+02  0.00000000000E+00 0. -1.
         21    1    1    2  503  502  0.41659578211E+02  0.12244566918E+03  0.15298162923E+03  0.20032933195E+03  0.00000000000E+00 0. -1.
         21    1    1    2  504  501 -0.41659578211E+02 -0.12244566918E+03  0.28526279382E+03  0.31321450141E+03  0.00000000000E+00 0. -1.
<mgrwt>
<rscale>  2 0.12933856E+03</rscale>
<asrwt>0</asrwt>
<pdfrwt beam="1">  1       21 0.73214477E-01 0.12933856E+03</pdfrwt>
<pdfrwt beam="2">  1       21 0.57922627E-02 0.12933856E+03</pdfrwt>
<totfact> 0.35597159E+05</totfact>
</mgrwt>
</event>
<event>
 4    1  0.6052129E+003  0.1386575E+03  0.7546771E-02  0.1215147E+00
         21   -1    0    0  503  501  0.00000000000E+00  0.00000000000E+00  0.72009911012E+02  0.72009911012E+02  0.00000000000E+00 0. -1.
         21   -1    0    0  504  502 -0.00000000000E+00 -0.00000000000E+00 -0.86742811485E+03  0.86742811485E+03  0.00000000000E+00 0. -1.
         21    1    1    2  503  502 -0.13768625545E+03  0.16382674117E+02 -0.78851010109E+03  0.80060856632E+03  0.00000000000E+00 0. -1.
         21    1    1    2  504  501  0.13768625545E+03 -0.16382674117E+02 -0.69081027461E+01  0.13882945954E+03  0.00000000000E+00 0. -1.
<mgrwt>
<rscale>  2 0.13865748E+03</rscale>
<asrwt>0</asrwt>
<pdfrwt beam="1">  1       21 0.11078447E-01 0.13865748E+03</pdfrwt>
<pdfrwt beam="2">  1       21 0.13345048E+00 0.13865748E+03</pdfrwt>
<totfact> 0.28352827E+04</totfact>
</mgrwt>
</event>
<event>
 4    1  0.6052129E+003  0.1088849E+03  0.7546771E-02  0.1262649E+00
         21   -1    0    0  504  501  0.00000000000E+00  0.00000000000E+00  0.32599982217E+03  0.32599982217E+03  0.00000000000E+00 0.  1.
         21   -1    0    0  503  502 -0.00000000000E+00 -0.00000000000E+00 -0.14344442379E+03  0.14344442379E+03  0.00000000000E+00 0.  1.
         21    1    1    2  503  501 -0.94358602194E+02 -0.54335831280E+02  0.29407367120E+03  0.31358452204E+03  0.00000000000E+00 0.  1.
         21    1    1    2  504  502  0.94358602194E+02  0.54335831280E+02 -0.11151827282E+03  0.15585972392E+03  0.00000000000E+00 0.  1.
<mgrwt>
<rscale>  2 0.10888493E+03</rscale>
<asrwt>0</asrwt>
<pdfrwt beam="1">  1       21 0.50153819E-01 0.10888493E+03</pdfrwt>
<pdfrwt beam="2">  1       21 0.22068373E-01 0.10888493E+03</pdfrwt>
<totfact> 0.75462955E+04</totfact>
</mgrwt>
</event>
<event>
 4    1  0.6052129E+003  0.1358633E+03  0.7546771E-02  0.1219006E+00
         21   -1    0    0  504  501  0.00000000000E+00  0.00000000000E+00  0.51741185642E+03  0.51741185642E+03  0.00000000000E+00 0. -1.
         21   -1    0    0  503  502 -0.00000000000E+00 -0.00000000000E+00 -0.39161559650E+02  0.39161559650E+02  0.00000000000E+00 0. -1.
         21    1    1    2  503  501 -0.73570188018E+02 -0.11422025054E+03  0.32215619891E+03  0.34963331463E+03  0.00000000000E+00 0. -1.
         21    1    1    2  504  502  0.73570188018E+02  0.11422025054E+03  0.15609409785E+03  0.20694010144E+03  0.00000000000E+00 0. -1.
<mgrwt>
<rscale>  2 0.13586331E+03</rscale>
<asrwt>0</asrwt>
<pdfrwt beam="1">  1       21 0.79601820E-01 0.13586331E+03</pdfrwt>
<pdfrwt beam="2">  1       21 0.60248557E-02 0.13586331E+03</pdfrwt>
<totfact> 0.27627121E+05</totfact>
</mgrwt>
</event>
<event>
 4    1  0.6052129E+003  0.1116917E+03  0.7546771E-02  0.1257469E+00
         21   -1    0    0  503  501  0.00000000000E+00  0.00000000000E+00  0.30428382971E+02  0.30428382971E+02  0.00000000000E+00 0. -1.
         21   -1    0    0  504  502 -0.00000000000E+00 -0.00000000000E+00 -0.41355397454E+03  0.41355397454E+03  0.00000000000E+00 0. -1.
         21    1    1    2  503  502 -0.89675315554E+02 -0.66583602623E+02 -0.21219879778E+03  0.23979859911E+03  0.00000000000E+00 0. -1.
         21    1    1    2  504  501  0.89675315554E+02  0.66583602623E+02 -0.17092679379E+03  0.20418375840E+03  0.00000000000E+00 0. -1.
<mgrwt>
<rscale>  2 0.11169171E+03</rscale>
<asrwt>0</asrwt>
<pdfrwt beam="1">  1       21 0.46812899E-02 0.11169171E+03</pdfrwt>
<pdfrwt beam="2">  1       21 0.63623686E-01 0.11169171E+03</pdfrwt>
<totfact> 0.69134212E+05</totfact>
</mgrwt>
</event>
<event>
 4    1  0.6052129E+003  0.1117832E+03  0.7546771E-02  0.1257303E+00
         21   -1    0    0  503  501  0.00000000000E+00  0.00000000000E+00  0.95001530015E+02  0.95001530015E+02  0.00000000000E+00 0. -1.
         21   -1    0    0  504  502 -0.00000000000E+00 -0.00000000000E+00 -0.90209234784E+03  0.90209234784E+03  0.00000000000E+00 0.  1.
         21    1    1    2  503  502  0.10600798464E+03 -0.35465255732E+02 -0.86431590894E+03  0.87151446782E+03  0.00000000000E+00 0.  1.
         21    1    1    2  504  501 -0.10600798464E+03  0.35465255732E+02  0.57225091116E+02  0.12557941004E+03  0.00000000000E+00 0. -1.
<mgrwt>
<rscale>  2 0.11178317E+03</rscale>
<asrwt>0</asrwt>
<pdfrwt beam="1">  1       21 0.14615620E-01 0.11178317E+03</pdfrwt>
<pdfrwt beam="2">  1       21 0.13878344E+00 0.11178317E+03</pdfrwt>
<totfact> 0.16059452E+04</totfact>
</mgrwt>
</event>
<event>
 4    1  0.6052129E+003  0.1246075E+03  0.7546771E-02  0.1235684E+00
         21   -1    0    0  502  501  0.00000000000E+00  0.00000000000E+00  0.37116031112E+02  0.37116031112E+02  0.00000000000E+00 0. -1.
         21   -1    0    0  503  502 -0.00000000000E+00 -0.00000000000E+00 -0.42590764148E+03  0.42590764148E+03  0.00000000000E+00 0. -1.
         21    1    1    2  503  504 -0.94709936585E+02 -0.80975636104E+02 -0.22526099679E+03  0.25742871325E+03  0.00000000000E+00 0. -1.
         21    1    1    2  504  501  0.94709936585E+02  0.80975636104E+02 -0.16353061358E+03  0.20559495935E+03  0.00000000000E+00 0. -1.
<mgrwt>
<rscale>  2 0.12460749E+03</rscale>
<asrwt>0</asrwt>
<pdfrwt beam="1">  1       21 0.57101588E-02 0.12460749E+03</pdfrwt>
<pdfrwt beam="2">  1       21 0.65524250E-01 0.12460749E+03</pdfrwt>
<totfact> 0.46454954E+05</totfact>
</mgrwt>
</event>
<event>
 4    1  0.6052129E+003  0.1080040E+03  0.7546771E-02  0.1264311E+00
         21   -1    0    0  504  501  0.00000000000E+00  0.00000000000E+00  0.15212322589E+02  0.15212322589E+02  0.00000000000E+00 0. -1.
         21   -1    0    0  503  502 -0.00000000000E+00 -0.00000000000E+00 -0.78513545898E+03  0.78513545898E+03  0.00000000000E+00 0. -1.
         21    1    1    2  503  501 -0.41111398445E+02  0.99873509403E+02 -0.44610907365E+03  0.45899691781E+03  0.00000000000E+00 0. -1.
         21    1    1    2  504  502  0.41111398445E+02 -0.99873509403E+02 -0.32381406274E+03  0.34135086376E+03  0.00000000000E+00 0. -1.
<mgrwt>
<rscale>  2 0.10800400E+03</rscale>
<asrwt>0</asrwt>
<pdfrwt beam="1">  1       21 0.23403566E-02 0.10800400E+03</pdfrwt>
<pdfrwt beam="2">  1       21 0.12079011E+00 0.10800400E+03</pdfrwt>
<totfact> 0.50358594E+05</totfact>
</mgrwt>
</event>
<event>
 4    1  0.6052129E+003  0.1266796E+03  0.7546771E-02  0.1232467E+00
         21   -1    0    0  504  501  0.00000000000E+00  0.00000000000E+00  0.11673581460E+03  0.11673581460E+03  0.00000000000E+00 0. -1.
         21   -1    0    0  503  502 -0.00000000000E+00 -0.00000000000E+00 -0.22268163305E+03  0.22268163305E+03  0.00000000000E+00 0. -1.
         21    1    1    2  503  501  0.68163952489E+02 -0.10677734228E+03  0.52007983192E+02  0.13693997064E+03  0.00000000000E+00 0. -1.
         21    1    1    2  504  502 -0.68163952489E+02  0.10677734228E+03 -0.15795380165E+03  0.20247747701E+03  0.00000000000E+00 0. -1.
<mgrwt>
<rscale>  2 0.12667962E+03</rscale>
<asrwt>0</asrwt>
<pdfrwt beam="1">  1       21 0.17959356E-01 0.12667962E+03</pdfrwt>
<pdfrwt beam="2">  1       21 0.34258712E-01 0.12667962E+03</pdfrwt>
<totfact> 0.23528234E+05</totfact>
</mgrwt>
</event>
<event>
 4    1  0.6052129E+003  0.1003782E+03  0.7546771E-02  0.1279503E+00
         21   -1    0    0  502  501  0.00000000000E+00  0.00000000000E+00  0.43798296015E+02  0.43798296015E+02  0.00000000000E+00 0. -1.
         21   -1    0    0  503  502 -0.00000000000E+00 -0.00000000000E+00 -0.54797792355E+03  0.54797792355E+03  0.00000000000E+00 0.  1.
         21    1    1    2  503  504 -0.10021497312E+03 -0.57215862821E+01 -0.47746735701E+03  0.48790455460E+03  0.00000000000E+00 0.  1.
         21    1    1    2  504  501  0.10021497312E+03  0.57215862821E+01 -0.26712270525E+02  0.10387166497E+03  0.00000000000E+00 0. -1.
<mgrwt>
<rscale>  2 0.10037817E+03</rscale>
<asrwt>0</asrwt>
<pdfrwt beam="1">  1       21 0.67381997E-02 0.10037817E+03</pdfrwt>
<pdfrwt beam="2">  1       21 0.84304292E-01 0.10037817E+03</pdfrwt>
<totfact> 0.20291887E+05</totfact>
</mgrwt>
</event>
<event>
 4    1  0.6052129E+003  0.2413871E+03  0.7546771E-02  0.1118872E+00
         21   -1    0    0  502  501  0.00000000000E+00  0.00000000000E+00  0.59343925075E+03  0.59343925075E+03  0.00000000000E+00 0.  1.
         21   -1    0    0  504  502 -0.00000000000E+00 -0.00000000000E+00 -0.10724654529E+03  0.10724654529E+03  0.00000000000E+00 0.  1.
         21    1    1    2  503  501  0.57864478612E+02  0.23434897341E+03  0.34492411299E+03  0.42099926716E+03  0.00000000000E+00 0.  1.
         21    1    1    2  504  503 -0.57864478612E+02 -0.23434897341E+03  0.14126859246E+03  0.27968652888E+03  0.00000000000E+00 0.  1.
<mgrwt>
<rscale>  2 0.24138711E+03</rscale>
<asrwt>0</asrwt>
<pdfrwt beam="1">  1       21 0.91298344E-01 0.24138711E+03</pdfrwt>
<pdfrwt beam="2">  1       21 0.16499469E-01 0.24138711E+03</pdfrwt>
<totfact> 0.32662578E+04</totfact>
</mgrwt>
</event>
<event>
 4    1  0.6052129E+003  0.1117859E+03  0.7546771E-02  0.1257298E+00
         21   -1    0    0  503  501  0.00000000000E+00  0.00000000000E+00  0.26183190733E+03  0.26183190733E+03  0.00000000000E+00 0. -1.
         21   -1    0    0  501  502 -0.00000000000E+00 -0.00000000000E+00 -0.62471184196E+02  0.62471184196E+02  0.00000000000E+00 0.  1.
         21    1    1    2  503  504 -0.70979389154E+02  0.86359815754E+02  0.17845961215E+03  0.21057997205E+03  0.00000000000E+00 0. -1.
         21    1    1    2  504  502  0.70979389154E+02 -0.86359815754E+02  0.20901110983E+02  0.11372311947E+03  0.00000000000E+00 0.  1.
<mgrwt>
<rscale>  2 0.11178592E+03</rscale>
<asrwt>0</asrwt>
<pdfrwt beam="1">  1       21 0.40281831E-01 0.11178592E+03</pdfrwt>
<pdfrwt beam="2">  1       21 0.96109515E-02 0.11178592E+03</pdfrwt>
<totfact> 0.52158038E+05</totfact>
</mgrwt>
</event>
<event>
 4    1  0.6052129E+003  0.1081291E+03  0.7546771E-02  0.1264074E+00
         21   -1    0    0  504  501  0.00000000000E+00  0.00000000000E+00  0.60039521220E+02  0.60039521220E+02  0.00000000000E+00 0. -1.
         21   -1    0    0  503  502 -0.00000000000E+00 -0.00000000000E+00 -0.19579902126E+03  0.19579902126E+03  0.00000000000E+00 0. -1.
         21    1    1    2  503  501 -0.97811613956E+02  0.46095351398E+02 -0.58457044211E+02  0.12291915743E+03  0.00000000000E+00 0. -1.
         21    1    1    2  504  502  0.97811613956E+02 -0.46095351398E+02 -0.77302455829E+02  0.13291938505E+03  0.00000000000E+00 0. -1.
<mgrwt>
<rscale>  2 0.10812906E+03</rscale>
<asrwt>0</asrwt>
<pdfrwt beam="1">  1       21 0.92368492E-02 0.10812906E+03</pdfrwt>
<pdfrwt beam="2">  1       21 0.30122927E-01 0.10812906E+03</pdfrwt>
<totfact> 0.98621849E+05</totfact>
</mgrwt>
</event>
<event>
 4    1  0.6052129E+003  0.1570122E+03  0.7546771E-02  0.1192112E+00
         21   -1    0    0  503  501  0.00000000000E+00  0.00000000000E+00  0.38966662096E+03  0.38966662096E+03  0.00000000000E+00 0. -1.
         21   -1    0    0  504  502 -0.00000000000E+00 -0.00000000000E+00 -0.75779906698E+02  0.75779906698E+02  0.00000000000E+00 0. -1.
         21    1    1    2  503  502  0.14660547175E+03  0.56210799843E+02  0.62373734712E+02  0.16894762842E+03  0.00000000000E+00 0. -1.
         21    1    1    2  504  501 -0.14660547175E+03 -0.56210799843E+02  0.25151297955E+03  0.29649889924E+03  0.00000000000E+00 0. -1.
<mgrwt>
<rscale>  2 0.15701216E+03</rscale>
<asrwt>0</asrwt>
<pdfrwt beam="1">  1       21 0.59948710E-01 0.15701216E+03</pdfrwt>
<pdfrwt beam="2">  1       21 0.11658447E-01 0.15701216E+03</pdfrwt>
<totfact> 0.16230186E+05</totfact>
</mgrwt>
</event>
<event>
 4    1  0.6052129E+003  0.1259634E+03  0.7546771E-02  0.1233571E+00
         21   -1    0    0  504  501  0.00000000000E+00  0.00000000000E+00  0.24145292250E+04  0.24145292250E+04  0.00000000000E+00 0.  1.
         21   -1    0    0  501  502 -0.00000000000E+00 -0.00000000000E+00 -0.34149089546E+02  0.34149089546E+02  0.00000000000E+00 0. -1.
         21    1    1    2  503  502 -0.85560064911E+02  0.92445977638E+02  0.89940289846E+02  0.15477738603E+03  0.00000000000E+00 0. -1.
         21    1    1    2  504  503  0.85560064911E+02 -0.92445977638E+02  0.22904398457E+04  0.22939009286E+04  0.00000000000E+00 0.  1.
<mgrwt>
<rscale>  2 0.12596342E+03</rscale>
<asrwt>0</asrwt>
<pdfrwt beam="1">  1       21 0.37146590E+00 0.12596342E+03</pdfrwt>
<pdfrwt beam="2">  1       21 0.52537080E-02 0.12596342E+03</pdfrwt>
<totfact> 0.35930985E+03</totfact>
</mgrwt>
</event>
<event>
 4    1  0.6052129E+003  0.1203491E+03  0.7546771E-02  0.1242522E+00
         21   -1    0    0  504  501  0.00000000000E+00  0.00000000000E+00  0.33486865134E+02  0.33486865134E+02  0.00000000000E+00 0.  1.
         21   -1    0    0  503  502 -0.00000000000E+00 -0.00000000000E+00 -0.79202486777E+03  0.79202486777E+03  0.00000000000E+00 0.  1.
         21    1    1    2  503  501 -0.12019169914E+03  0.61524783168E+01 -0.10118668510E+03  0.15723435621E+03  0.00000000000E+00 0.  1.
         21    1    1    2  504  502  0.12019169914E+03 -0.61524783168E+01 -0.65735131754E+03  0.66827737669E+03  0.00000000000E+00 0.  1.
<mgrwt>
<rscale>  2 0.12034907E+03</rscale>
<asrwt>0</asrwt>
<pdfrwt beam="1">  1       21 0.51518257E-02 0.12034907E+03</pdfrwt>
<pdfrwt beam="2">  1       21 0.12184997E+00 0.12034907E+03</pdfrwt>
<totfact> 0.13393851E+05</totfact>
</mgrwt>
</event>
<event>
 4    1  0.6052129E+003  0.1321492E+03  0.7546771E-02  0.1224301E+00
         21   -1    0    0  504  501  0.00000000000E+00  0.00000000000E+00  0.79248562826E+03  0.79248562826E+03  0.00000000000E+00 0.  1.
         21   -1    0    0  501  502 -0.00000000000E+00 -0.00000000000E+00 -0.83329082002E+02  0.83329082002E+02  0.00000000000E+00 0.  1.
         21    1    1    2  503  502  0.11229749884E+03 -0.69661221163E+02 -0.20989893101E+02  0.13380579058E+03  0.00000000000E+00 0.  1.
         21    1    1    2  504  503 -0.11229749884E+03  0.69661221163E+02  0.73014643935E+03  0.74200891968E+03  0.00000000000E+00 0.  1.
<mgrwt>
<rscale>  2 0.13214921E+03</rscale>
<asrwt>0</asrwt>
<pdfrwt beam="1">  1       21 0.12192086E+00 0.13214921E+03</pdfrwt>
<pdfrwt beam="2">  1       21 0.12819859E-01 0.13214921E+03</pdfrwt>
<totfact> 0.27516164E+04</totfact>
</mgrwt>
</event>
<event>
 4    1  0.6052129E+003  0.1850115E+03  0.7546771E-02  0.1163039E+00
         21   -1    0    0  503  501  0.00000000000E+00  0.00000000000E+00  0.97672702231E+03  0.97672702231E+03  0.00000000000E+00 0. -1.
         21   -1    0    0  501  502 -0.00000000000E+00 -0.00000000000E+00 -0.26159418887E+03  0.26159418887E+03  0.00000000000E+00 0. -1.
         21    1    1    2  503  504 -0.14843414432E+03 -0.11043807875E+03  0.93376297201E+03  0.95191520229E+03  0.00000000000E+00 0. -1.
         21    1    1    2  504  502  0.14843414432E+03  0.11043807875E+03 -0.21863013857E+03  0.28640600889E+03  0.00000000000E+00 0. -1.
<mgrwt>
<rscale>  2 0.18501153E+03</rscale>
<asrwt>0</asrwt>
<pdfrwt beam="1">  1       21 0.15026569E+00 0.18501153E+03</pdfrwt>
<pdfrwt beam="2">  1       21 0.40245260E-01 0.18501153E+03</pdfrwt>
<totfact> 0.17835056E+03</totfact>
</mgrwt>
</event>
<event>
 4    1  0.6052129E+003  0.1100640E+03  0.7546771E-02  0.1260451E+00
         21   -1    0    0  504  501  0.00000000000E+00  0.00000000000E+00  0.16936265034E+02  0.16936265034E+02  0.00000000000E+00 0. -1.
         21   -1    0    0  503  502 -0.00000000000E+00 -0.00000000000E+00 -0.11331004906E+04  0.11331004906E+04  0.00000000000E+00 0. -1.
         21    1    1    2  503  501 -0.71471705614E+02 -0.83701111746E+02 -0.90725874046E+03  0.91391055522E+03  0.00000000000E+00 0. -1.
         21    1    1    2  504  502  0.71471705614E+02  0.83701111746E+02 -0.20890548509E+03  0.23612620039E+03  0.00000000000E+00 0. -1.
<mgrwt>
<rscale>  2 0.11006399E+03</rscale>
<asrwt>0</asrwt>
<pdfrwt beam="1">  1       21 0.26055791E-02 0.11006399E+03</pdfrwt>
<pdfrwt beam="2">  1       21 0.17432316E+00 0.11006399E+03</pdfrwt>
<totfact> 0.16562488E+05</totfact>
</mgrwt>
</event>
<event>
 4    1  0.6052129E+003  0.1009675E+03  0.7546771E-02  0.1278274E+00
         21   -1    0    0  502  501  0.00000000000E+00  0.00000000000E+00  0.47603160114E+03  0.47603160114E+03  0.00000000000E+00 0.  1.
         21   -1    0    0  504  502 -0.00000000000E+00 -0.00000000000E+00 -0.28831100305E+02  0.28831100305E+02  0.00000000000E+00 0. -1.
         21    1    1    2  503  501  0.73412352294E+02 -0.69318580363E+02  0.35162289826E+03  0.36583206753E+03  0.00000000000E+00 0.  1.
         21    1    1    2  504  503 -0.73412352294E+02  0.69318580363E+02  0.95577602574E+02  0.13903063391E+03  0.00000000000E+00 0. -1.
<mgrwt>
<rscale>  2 0.10096751E+03</rscale>
<asrwt>0</asrwt>
<pdfrwt beam="1">  1       21 0.73235625E-01 0.10096751E+03</pdfrwt>
<pdfrwt beam="2">  1       21 0.44355542E-02 0.10096751E+03</pdfrwt>
<totfact> 0.55834385E+05</totfact>
</mgrwt>
</event>
<event>
 4    1  0.6052129E+003  0.1125570E+03  0.7546771E-02  0.1255907E+00
         21   -1    0    0  504  501  0.00000000000E+00  0.00000000000E+00  0.74010403809E+03  0.74010403809E+03  0.00000000000E+00 0.  1.
         21   -1    0    0  503  502 -0.00000000000E+00 -0.00000000000E+00 -0.20831245571E+02  0.20831245571E+02  0.00000000000E+00 0.  1.
         21    1    1    2  503  501  0.10665384544E+03  0.35972748623E+02  0.19900202173E+03  0.22862827044E+03  0.00000000000E+00 0.  1.
         21    1    1    2  504  502 -0.10665384544E+03 -0.35972748623E+02  0.52027077079E+03  0.53230701322E+03  0.00000000000E+00 0.  1.
<mgrwt>
<rscale>  2 0.11255701E+03</rscale>
<asrwt>0</asrwt>
<pdfrwt beam="1">  1       21 0.11386214E+00 0.11255701E+03</pdfrwt>
<pdfrwt beam="2">  1       21 0.32048076E-02 0.11255701E+03</pdfrwt>
<totfact> 0.34770526E+05</totfact>
</mgrwt>
</event>
<event>
 4    1  0.6052129E+003  0.2089849E+03  0.7546771E-02  0.1142372E+00
         21   -1    0    0  504  501  0.00000000000E+00  0.00000000000E+00  0.32656009231E+03  0.32656009231E+03  0.00000000000E+00 0.  1.
         21   -1    0    0  503  502 -0.00000000000E+00 -0.00000000000E+00 -0.13382696307E+03  0.13382696307E+03  0.00000000000E+00 0.  1.
         21    1    1    2  503  501  0.14565909017E+03  0.14986032918E+03  0.10217827310E+03  0.23262649957E+03  0.00000000000E+00 0.  1.
         21    1    1    2  504  502 -0.14565909017E+03 -0.14986032918E+03  0.90554856141E+02  0.22776055581E+03  0.00000000000E+00 0.  1.
<mgrwt>
<rscale>  2 0.20898490E+03</rscale>
<asrwt>0</asrwt>
<pdfrwt beam="1">  1       21 0.50240014E-01 0.20898490E+03</pdfrwt>
<pdfrwt beam="2">  1       21 0.20588764E-01 0.20898490E+03</pdfrwt>
<totfact> 0.81910010E+04</totfact>
</mgrwt>
</event>
<event>
 4    1  0.6052129E+003  0.1178334E+03  0.7546771E-02  0.1246715E+00
         21   -1    0    0  504  501  0.00000000000E+00  0.00000000000E+00  0.64400286346E+02  0.64400286346E+02  0.00000000000E+00 0. -1.
         21   -1    0    0  501  502 -0.00000000000E+00 -0.00000000000E+00 -0.22404881833E+03  0.22404881833E+03  0.00000000000E+00 0. -1.
         21    1    1    2  503  502  0.11630122275E+03  0.18940222334E+02 -0.10783109771E+03  0.15972555233E+03  0.00000000000E+00 0. -1.
         21    1    1    2  504  503 -0.11630122275E+03 -0.18940222334E+02 -0.51817434277E+02  0.12872355235E+03  0.00000000000E+00 0. -1.
<mgrwt>
<rscale>  2 0.11783338E+03</rscale>
<asrwt>0</asrwt>
<pdfrwt beam="1">  1       21 0.99077367E-02 0.11783338E+03</pdfrwt>
<pdfrwt beam="2">  1       21 0.34469048E-01 0.11783338E+03</pdfrwt>
<totfact> 0.67267811E+05</totfact>
</mgrwt>
</event>
<event>
 4    1  0.6052129E+003  0.1055250E+03  0.7546771E-02  0.1269089E+00
         21   -1    0    0  504  501  0.00000000000E+00  0.00000000000E+00  0.16201219943E+02  0.16201219943E+02  0.00000000000E+00 0.  1.
         21   -1    0    0  503  502 -0.00000000000E+00 -0.00000000000E+00 -0.70637424180E+03  0.70637424180E+03  0.00000000000E+00 0.  1.
         21    1    1    2  503  501  0.10552409536E+03  0.43890671274E+00 -0.28575876377E+03  0.30462041693E+03  0.00000000000E+00 0.  1.
         21    1    1    2  504  502 -0.10552409536E+03 -0.43890671274E+00 -0.40441425808E+03  0.41795504481E+03  0.00000000000E+00 0.  1.
<mgrwt>
<rscale>  2 0.10552501E+03</rscale>
<asrwt>0</asrwt>
<pdfrwt beam="1">  1       21 0.24924951E-02 0.10552501E+03</pdfrwt>
<pdfrwt beam="2">  1       21 0.10867297E+00 0.10552501E+03</pdfrwt>
<totfact> 0.58590589E+05</totfact>
</mgrwt>
</event>
<event>
 4    1  0.6052129E+003  0.1005305E+03  0.7546771E-02  0.1279184E+00
         21   -1    0    0  502  501  0.00000000000E+00  0.00000000000E+00  0.20684161715E+03  0.20684161715E+03  0.00000000000E+00 0. -1.
         21   -1    0    0  504  502 -0.00000000000E+00 -0.00000000000E+00 -0.60023667341E+02  0.60023667341E+02  0.00000000000E+00 0. -1.
         21    1    1    2  503  501  0.20501204593E+02  0.98417945860E+02  0.13095216271E+03  0.16509046119E+03  0.00000000000E+00 0. -1.
         21    1    1    2  504  503 -0.20501204593E+02 -0.98417945860E+02  0.15865787093E+02  0.10177482330E+03  0.00000000000E+00 0. -1.
<mgrwt>
<rscale>  2 0.10053055E+03</rscale>
<asrwt>0</asrwt>
<pdfrwt beam="1">  1       21 0.31821787E-01 0.10053055E+03</pdfrwt>
<pdfrwt beam="2">  1       21 0.92344104E-02 0.10053055E+03</pdfrwt>
<totfact> 0.88693678E+05</totfact>
</mgrwt>
</event>
<event>
 4    1  0.6052129E+003  0.1290773E+03  0.7546771E-02  0.1228831E+00
         21   -1    0    0  503  501  0.00000000000E+00  0.00000000000E+00  0.10569195074E+03  0.10569195074E+03  0.00000000000E+00 0.  1.
         21   -1    0    0  504  502 -0.00000000000E+00 -0.00000000000E+00 -0.15796102212E+03  0.15796102212E+03  0.00000000000E+00 0.  1.
         21    1    1    2  503  502  0.26751930588E+02 -0.12627461026E+03 -0.32106755717E+02  0.13301047609E+03  0.00000000000E+00 0.  1.
         21    1    1    2  504  501 -0.26751930588E+02  0.12627461026E+03 -0.20162315665E+02  0.13064249676E+03  0.00000000000E+00 0.  1.
<mgrwt>
<rscale>  2 0.12907728E+03</rscale>
<asrwt>0</asrwt>
<pdfrwt beam="1">  1       21 0.16260300E-01 0.12907728E+03</pdfrwt>
<pdfrwt beam="2">  1       21 0.24301696E-01 0.12907728E+03</pdfrwt>
<totfact> 0.54506710E+05</totfact>
</mgrwt>
</event>
<event>
 4    1  0.6052129E+003  0.1046615E+03  0.7546771E-02  0.1270788E+00
         21   -1    0    0  504  501  0.00000000000E+00  0.00000000000E+00  0.15643761886E+03  0.15643761886E+03  0.00000000000E+00 0. -1.
         21   -1    0    0  503  502 -0.00000000000E+00 -0.00000000000E+00 -0.76697782194E+02  0.76697782194E+02  0.00000000000E+00 0. -1.
         21    1    1    2  503  501 -0.38765079527E+02 -0.97217764337E+02  0.74261192926E+02  0.12833062716E+03  0.00000000000E+00 0. -1.
         21    1    1    2  504  502  0.38765079527E+02  0.97217764337E+02  0.54786437413E+01  0.10480477389E+03  0.00000000000E+00 0. -1.
<mgrwt>
<rscale>  2 0.10466148E+03</rscale>
<asrwt>0</asrwt>
<pdfrwt beam="1">  1       21 0.24067326E-01 0.10466148E+03</pdfrwt>
<pdfrwt beam="2">  1       21 0.11799659E-01 0.10466148E+03</pdfrwt>
<totfact> 0.98368466E+05</totfact>
</mgrwt>
</event>
<event>
 4    1  0.6052129E+003  0.1024339E+03  0.7546771E-02  0.1275260E+00
         21   -1    0    0  502  501  0.00000000000E+00  0.00000000000E+00  0.18631459892E+04  0.18631459892E+04  0.00000000000E+00 0.  1.
         21   -1    0    0  503  502 -0.00000000000E+00 -0.00000000000E+00 -0.16608240403E+02  0.16608240403E+02  0.00000000000E+00 0.  1.
         21    1    1    2  503  504  0.52152285967E+02  0.88163682962E+02  0.15918360516E+03  0.18929372963E+03  0.00000000000E+00 0.  1.
         21    1    1    2  504  501 -0.52152285967E+02 -0.88163682962E+02  0.16873541436E+04  0.16904604999E+04  0.00000000000E+00 0.  1.
<mgrwt>
<rscale>  2 0.10243386E+03</rscale>
<asrwt>0</asrwt>
<pdfrwt beam="1">  1       21 0.28663768E+00 0.10243386E+03</pdfrwt>
<pdfrwt beam="2">  1       21 0.25551154E-02 0.10243386E+03</pdfrwt>
<totfact> 0.37223443E+04</totfact>
</mgrwt>
</event>
<event>
 4    1  0.6052129E+003  0.1788355E+03  0.7546771E-02  0.1168935E+00
         21   -1    0    0  504  501  0.00000000000E+00  0.00000000000E+00  0.13512097338E+04  0.13512097338E+04  0.00000000000E+00 0. -1.
         21   -1    0    0  503  502 -0.00000000000E+00 -0.00000000000E+00 -0.23719794910E+02  0.23719794910E+02  0.00000000000E+00 0. -1.
         21    1    1    2  503  501 -0.12496323398E+03 -0.12793097725E+03  0.69547408913E+03  0.71809912508E+03  0.00000000000E+00 0. -1.
         21    1    1    2  504  502  0.12496323398E+03  0.12793097725E+03  0.63201584973E+03  0.65683040361E+03  0.00000000000E+00 0. -1.
<mgrwt>
<rscale>  2 0.17883552E+03</rscale>
<asrwt>0</asrwt>
<pdfrwt beam="1">  1       21 0.20787836E+00 0.17883552E+03</pdfrwt>
<pdfrwt beam="2">  1       21 0.36492003E-02 0.17883552E+03</pdfrwt>
<totfact> 0.55174532E+04</totfact>
</mgrwt>
</event>
<event>
 4    1  0.6052129E+003  0.1191204E+03  0.7546771E-02  0.1244555E+00
         21   -1    0    0  503  501  0.00000000000E+00  0.00000000000E+00  0.27277718231E+03  0.27277718231E+03  0.00000000000E+00 0. -1.
         21   -1    0    0  501  502 -0.00000000000E+00 -0.00000000000E+00 -0.52192958576E+02  0.52192958576E+02  0.00000000000E+00 0. -1.
         21    1    1    2  503  504  0.16908953622E+02 -0.11791415868E+03  0.10091797095E+03  0.15612206247E+03  0.00000000000E+00 0. -1.
         21    1    1    2  504  502 -0.16908953622E+02  0.11791415868E+03  0.11966625279E+03  0.16884807842E+03  0.00000000000E+00 0. -1.
<mgrwt>
<rscale>  2 0.11912037E+03</rscale>
<asrwt>0</asrwt>
<pdfrwt beam="1">  1       21 0.41965720E-01 0.11912037E+03</pdfrwt>
<pdfrwt beam="2">  1       21 0.80296861E-02 0.11912037E+03</pdfrwt>
<totfact> 0.65555980E+05</totfact>
</mgrwt>
</event>
<event>
 4    1  0.6052129E+003  0.1019825E+03  0.7546771E-02  0.1276181E+00
         21   -1    0    0  504  501  0.00000000000E+00  0.00000000000E+00  0.20995012107E+03  0.20995012107E+03  0.00000000000E+00 0. -1.
         21   -1    0    0  503  502 -0.00000000000E+00 -0.00000000000E+00 -0.52857515700E+02  0.52857515700E+02  0.00000000000E+00 0. -1.
         21    1    1    2  503  501 -0.20349302058E+02 -0.99931660155E+02  0.11147817104E+03  0.15108876005E+03  0.00000000000E+00 0. -1.
         21    1    1    2  504  502  0.20349302058E+02  0.99931660155E+02  0.45614434326E+02  0.11171887671E+03  0.00000000000E+00 0. -1.
<mgrwt>
<rscale>  2 0.10198250E+03</rscale>
<asrwt>0</asrwt>
<pdfrwt beam="1">  1       21 0.32300018E-01 0.10198250E+03</pdfrwt>
<pdfrwt beam="2">  1       21 0.81319256E-02 0.10198250E+03</pdfrwt>
<totfact> 0.10728739E+06</totfact>
</mgrwt>
</event>
<event>
 4    1  0.6052129E+003  0.1102744E+03  0.7546771E-02  0.1260063E+00
         21   -1    0    0  504  501  0.00000000000E+00  0.00000000000E+00  0.29898110352E+02  0.29898110352E+02  0.00000000000E+00 0. -1.
         21   -1    0    0  503  502 -0.00000000000E+00 -0.00000000000E+00 -0.40758362488E+03  0.40758362488E+03  0.00000000000E+00 0. -1.
         21    1    1    2  503  501 -0.33445768414E+02 -0.10508006317E+03 -0.17882848406E+03  0.21009537314E+03  0.00000000000E+00 0. -1.
         21    1    1    2  504  502  0.33445768414E+02  0.10508006317E+03 -0.19885703047E+03  0.22738636210E+03  0.00000000000E+00 0. -1.
<mgrwt>
<rscale>  2 0.11027438E+03</rscale>
<asrwt>0</asrwt>
<pdfrwt beam="1">  1       21 0.45997097E-02 0.11027438E+03</pdfrwt>
<pdfrwt beam="2">  1       21 0.62705167E-01 0.11027438E+03</pdfrwt>
<totfact> 0.73435049E+05</totfact>
</mgrwt>
</event>
<event>
 4    1  0.6052129E+003  0.1172387E+03  0.7546771E-02  0.1247723E+00
         21   -1    0    0  503  501  0.00000000000E+00  0.00000000000E+00  0.44558314375E+02  0.44558314375E+02  0.00000000000E+00 0.  1.
         21   -1    0    0  504  502 -0.00000000000E+00 -0.00000000000E+00 -0.68411721384E+03  0.68411721384E+03  0.00000000000E+00 0.  1.
         21    1    1    2  503  502  0.85621789987E+02 -0.80086319622E+02 -0.49801102562E+02  0.12737762491E+03  0.00000000000E+00 0.  1.
         21    1    1    2  504  501 -0.85621789987E+02  0.80086319622E+02 -0.58975779691E+03  0.60129790331E+03  0.00000000000E+00 0.  1.
<mgrwt>
<rscale>  2 0.11723869E+03</rscale>
<asrwt>0</asrwt>
<pdfrwt beam="1">  1       21 0.68551256E-02 0.11723869E+03</pdfrwt>
<pdfrwt beam="2">  1       21 0.10524880E+00 0.11723869E+03</pdfrwt>
<totfact> 0.11754306E+05</totfact>
</mgrwt>
</event>
<event>
 4    1  0.6052129E+003  0.1031756E+03  0.7546771E-02  0.1273756E+00
         21   -1    0    0  504  501  0.00000000000E+00  0.00000000000E+00  0.12266128420E+02  0.12266128420E+02  0.00000000000E+00 0.  1.
         21   -1    0    0  503  502 -0.00000000000E+00 -0.00000000000E+00 -0.87633929313E+03  0.87633929313E+03  0.00000000000E+00 0.  1.
         21    1    1    2  503  501  0.10317519318E+03 -0.29162345525E+00 -0.47575683595E+03  0.48681595340E+03  0.00000000000E+00 0.  1.
         21    1    1    2  504  502 -0.10317519318E+03  0.29162345525E+00 -0.38831632876E+03  0.40178946815E+03  0.00000000000E+00 0.  1.
<mgrwt>
<rscale>  2 0.10317561E+03</rscale>
<asrwt>0</asrwt>
<pdfrwt beam="1">  1       21 0.18870965E-02 0.10317561E+03</pdfrwt>
<pdfrwt beam="2">  1       21 0.13482144E+00 0.10317561E+03</pdfrwt>
<totfact> 0.54395464E+05</totfact>
</mgrwt>
</event>
<event>
 4    1  0.6052129E+003  0.1304061E+03  0.7546771E-02  0.1226854E+00
         21   -1    0    0  504  501  0.00000000000E+00  0.00000000000E+00  0.13496289425E+03  0.13496289425E+03  0.00000000000E+00 0.  1.
         21   -1    0    0  501  502 -0.00000000000E+00 -0.00000000000E+00 -0.42462298004E+03  0.42462298004E+03  0.00000000000E+00 0. -1.
         21    1    1    2  503  502  0.98360213531E+02 -0.85621418274E+02 -0.37946584148E+03  0.40124815728E+03  0.00000000000E+00 0. -1.
         21    1    1    2  504  503 -0.98360213531E+02  0.85621418274E+02  0.89805755687E+02  0.15833771701E+03  0.00000000000E+00 0.  1.
<mgrwt>
<rscale>  2 0.13040613E+03</rscale>
<asrwt>0</asrwt>
<pdfrwt beam="1">  1       21 0.20763523E-01 0.13040613E+03</pdfrwt>
<pdfrwt beam="2">  1       21 0.65326611E-01 0.13040613E+03</pdfrwt>
<totfact> 0.47896662E+04</totfact>
</mgrwt>
</event>
<event>
 4    1  0.6052129E+003  0.1048558E+03  0.7546771E-02  0.1270404E+00
         21   -1    0    0  503  501  0.00000000000E+00  0.00000000000E+00  0.20820481676E+02  0.20820481676E+02  0.00000000000E+00 0. -1.
         21   -1    0    0  504  502 -0.00000000000E+00 -0.00000000000E+00 -0.72234997397E+03  0.72234997397E+03  0.00000000000E+00 0. -1.
         21    1    1    2  503  502  0.87549101660E+01 -0.10448962628E+03 -0.54347085280E+03  0.55349372019E+03  0.00000000000E+00 0. -1.
         21    1    1    2  504  501 -0.87549101660E+01  0.10448962628E+03 -0.15805863950E+03  0.18967673545E+03  0.00000000000E+00 0. -1.
<mgrwt>
<rscale>  2 0.10485576E+03</rscale>
<asrwt>0</asrwt>
<pdfrwt beam="1">  1       21 0.32031507E-02 0.10485576E+03</pdfrwt>
<pdfrwt beam="2">  1       21 0.11113078E+00 0.10485576E+03</pdfrwt>
<totfact> 0.36941112E+05</totfact>
</mgrwt>
</event>
<event>
 4    1  0.6052129E+003  0.1595324E+03  0.7546771E-02  0.1189226E+00
         21   -1    0    0  503  501  0.00000000000E+00  0.00000000000E+00  0.31606323088E+03  0.31606323088E+03  0.00000000000E+00 0. -1.
         21   -1    0    0  504  502 -0.00000000000E+00 -0.00000000000E+00 -0.18283800372E+03  0.18283800372E+03  0.00000000000E+00 0.  1.
         21    1    1    2  503  502 -0.13779670632E+03 -0.80390697770E+02 -0.11999072868E+03  0.19962056891E+03  0.00000000000E+00 0.  1.
         21    1    1    2  504  501  0.13779670632E+03  0.80390697770E+02  0.25321595585E+03  0.29928066569E+03  0.00000000000E+00 0. -1.
<mgrwt>
<rscale>  2 0.15953243E+03</rscale>
<asrwt>0</asrwt>
<pdfrwt beam="1">  1       21 0.48625112E-01 0.15953243E+03</pdfrwt>
<pdfrwt beam="2">  1       21 0.28128924E-01 0.15953243E+03</pdfrwt>
<totfact> 0.49570436E+04</totfact>
</mgrwt>
</event>
<event>
 4    1  0.6052129E+003  0.1378863E+03  0.7546771E-02  0.1216202E+00
         21   -1    0    0  503  501  0.00000000000E+00  0.00000000000E+00  0.11448502031E+03  0.11448502031E+03  0.00000000000E+00 0. -1.
         21   -1    0    0  504  502 -0.00000000000E+00 -0.00000000000E+00 -0.17142433735E+03  0.17142433735E+03  0.00000000000E+00 0. -1.
         21    1    1    2  503  502 -0.64628445366E+02  0.12180222613E+03 -0.32067825336E+01  0.13792353568E+03  0.00000000000E+00 0. -1.
         21    1    1    2  504  501  0.64628445366E+02 -0.12180222613E+03 -0.53732534510E+02  0.14798582198E+03  0.00000000000E+00 0. -1.
<mgrwt>
<rscale>  2 0.13788625E+03</rscale>
<asrwt>0</asrwt>
<pdfrwt beam="1">  1       21 0.17613080E-01 0.13788625E+03</pdfrwt>
<pdfrwt beam="2">  1       21 0.26372975E-01 0.13788625E+03</pdfrwt>
<totfact> 0.40325194E+05</totfact>
</mgrwt>
</event>
<event>
 4    1  0.6052129E+003  0.1035404E+03  0.7546771E-02  0.1273022E+00
         21   -1    0    0  504  501  0.00000000000E+00  0.00000000000E+00  0.14919821672E+03  0.14919821672E+03  0.00000000000E+00 0.  1.
         21   -1    0    0  501  502 -0.00000000000E+00 -0.00000000000E+00 -0.76041420924E+02  0.76041420924E+02  0.00000000000E+00 0. -1.
         21    1    1    2  503  502  0.35463084605E+02 -0.97277830442E+02  0.10152971472E+02  0.10403696216E+03  0.00000000000E+00 0. -1.
         21    1    1    2  504  503 -0.35463084605E+02  0.97277830442E+02  0.63003824320E+02  0.12120267548E+03  0.00000000000E+00 0.  1.
<mgrwt>
<rscale>  2 0.10354036E+03</rscale>
<asrwt>0</asrwt>
<pdfrwt beam="1">  1       21 0.22953572E-01 0.10354036E+03</pdfrwt>
<pdfrwt beam="2">  1       21 0.11698680E-01 0.10354036E+03</pdfrwt>
<totfact> 0.10908370E+06</totfact>
</mgrwt>
</event>
<event>
 4    1  0.6052129E+003  0.2633403E+03  0.7546771E-02  0.1105153E+00
         21   -1    0    0  504  501  0.00000000000E+00  0.00000000000E+00  0.14034406880E+03  0.14034406880E+03  0.00000000000E+00 0. -1.
         21   -1    0    0  503  502 -0.00000000000E+00 -0.00000000000E+00 -0.54763524340E+03  0.54763524340E+03  0.00000000000E+00 0. -1.
         21    1    1    2  503  501 -0.24768001603E+03 -0.89457831299E+02 -0.31116858246E+03  0.40764442917E+03  0.00000000000E+00 0. -1.
         21    1    1    2  504  502  0.24768001603E+03  0.89457831299E+02 -0.96122592132E+02  0.28033488303E+03  0.00000000000E+00 0. -1.
<mgrwt>
<rscale>  2 0.26334026E+03</rscale>
<asrwt>0</asrwt>
<pdfrwt beam="1">  1       21 0.21591395E-01 0.26334026E+03</pdfrwt>
<pdfrwt beam="2">  1       21 0.84251575E-01 0.26334026E+03</pdfrwt>
<totfact> 0.23564485E+04</totfact>
</mgrwt>
</event>
<event>
 4    1  0.6052129E+003  0.1010441E+03  0.7546771E-02  0.1278116E+00
         21   -1    0    0  503  501  0.00000000000E+00  0.00000000000E+00  0.78316694364E+03  0.78316694364E+03  0.00000000000E+00 0.  1.
         21   -1    0    0  504  502 -0.00000000000E+00 -0.00000000000E+00 -0.27793725220E+02  0.27793725220E+02  0.00000000000E+00 0.  1.
         21    1    1    2  503  502  0.10015376263E+03 -0.13383753505E+02  0.67314480495E+03  0.68068629299E+03  0.00000000000E+00 0.  1.
         21    1    1    2  504  501 -0.10015376263E+03  0.13383753505E+02  0.82228413470E+02  0.13027437587E+03  0.00000000000E+00 0.  1.
<mgrwt>
<rscale>  2 0.10104405E+03</rscale>
<asrwt>0</asrwt>
<pdfrwt beam="1">  1       21 0.12048721E+00 0.10104405E+03</pdfrwt>
<pdfrwt beam="2">  1       21 0.42759583E-02 0.10104405E+03</pdfrwt>
<totfact> 0.18944784E+05</totfact>
</mgrwt>
</event>
<event>
 4    1  0.6052129E+003  0.1043071E+03  0.7546771E-02  0.1271491E+00
         21   -1    0    0  503  501  0.00000000000E+00  0.00000000000E+00  0.72301204570E+03  0.72301204570E+03  0.00000000000E+00 0. -1.
         21   -1    0    0  504  502 -0.00000000000E+00 -0.00000000000E+00 -0.15937054720E+02  0.15937054720E+02  0.00000000000E+00 0. -1.
         21    1    1    2  503  502  0.14831085682E+02 -0.10324734033E+03  0.44079737998E+03  0.45297053390E+03  0.00000000000E+00 0. -1.
         21    1    1    2  504  501 -0.14831085682E+02  0.10324734033E+03  0.26627761101E+03  0.28597856652E+03  0.00000000000E+00 0. -1.
<mgrwt>
<rscale>  2 0.10430712E+03</rscale>
<asrwt>0</asrwt>
<pdfrwt beam="1">  1       21 0.11123260E+00 0.10430712E+03</pdfrwt>
<pdfrwt beam="2">  1       21 0.24518551E-02 0.10430712E+03</pdfrwt>
<totfact> 0.56947662E+05</totfact>
</mgrwt>
</event>
<event>
 4    1  0.6052129E+003  0.1324458E+03  0.7546771E-02  0.1223871E+00
         21   -1    0    0  502  501  0.00000000000E+00  0.00000000000E+00  0.32225980414E+02  0.32225980414E+02  0.00000000000E+00 0.  1.
         21   -1    0    0  504  502 -0.00000000000E+00 -0.00000000000E+00 -0.55837116712E+03  0.55837116712E+03  0.00000000000E+00 0. -1.
         21    1    1    2  503  501 -0.92297046627E+01  0.13212379993E+03 -0.21626150019E+03  0.25359598266E+03  0.00000000000E+00 0.  1.
         21    1    1    2  504  503  0.92297046627E+01 -0.13212379993E+03 -0.30988368651E+03  0.33700116487E+03  0.00000000000E+00 0. -1.
<mgrwt>
<rscale>  2 0.13244578E+03</rscale>
<asrwt>0</asrwt>
<pdfrwt beam="1">  1       21 0.49578432E-02 0.13244578E+03</pdfrwt>
<pdfrwt beam="2">  1       21 0.85903255E-01 0.13244578E+03</pdfrwt>
<totfact> 0.32370516E+05</totfact>
</mgrwt>
</event>
<event>
 4    1  0.6052129E+003  0.1563707E+03  0.7546771E-02  0.1192856E+00
         21   -1    0    0  503  501  0.00000000000E+00  0.00000000000E+00  0.25354089274E+02  0.25354089274E+02  0.00000000000E+00 0. -1.
         21   -1    0    0  504  502 -0.00000000000E+00 -0.00000000000E+00 -0.17632058066E+04  0.17632058066E+04  0.00000000000E+00 0.  1.
         21    1    1    2  503  502 -0.80515802252E+02  0.13404847312E+03 -0.26700507712E+03  0.30942446375E+03  0.00000000000E+00 0. -1.
         21    1    1    2  504  501  0.80515802252E+02 -0.13404847312E+03 -0.14708466402E+04  0.14791354321E+04  0.00000000000E+00 0.  1.
<mgrwt>
<rscale>  2 0.15637067E+03</rscale>
<asrwt>0</asrwt>
<pdfrwt beam="1">  1       21 0.39006294E-02 0.15637067E+03</pdfrwt>
<pdfrwt beam="2">  1       21 0.27126241E+00 0.15637067E+03</pdfrwt>
<totfact> 0.21179547E+04</totfact>
</mgrwt>
</event>
<event>
 4    1  0.6052129E+003  0.1027881E+03  0.7546771E-02  0.1274540E+00
         21   -1    0    0  503  501  0.00000000000E+00  0.00000000000E+00  0.70086508839E+03  0.70086508839E+03  0.00000000000E+00 0.  1.
         21   -1    0    0  504  502 -0.00000000000E+00 -0.00000000000E+00 -0.15587915528E+02  0.15587915528E+02  0.00000000000E+00 0.  1.
         21    1    1    2  503  502 -0.10237025706E+03  0.92584620178E+01  0.40763340675E+03  0.42039312905E+03  0.00000000000E+00 0.  1.
         21    1    1    2  504  501  0.10237025706E+03 -0.92584620178E+01  0.27764376611E+03  0.29605987487E+03  0.00000000000E+00 0.  1.
<mgrwt>
<rscale>  2 0.10278808E+03</rscale>
<asrwt>0</asrwt>
<pdfrwt beam="1">  1       21 0.10782537E+00 0.10278808E+03</pdfrwt>
<pdfrwt beam="2">  1       21 0.23981414E-02 0.10278808E+03</pdfrwt>
<totfact> 0.63548628E+05</totfact>
</mgrwt>
</event>
<event>
 4    1  0.6052129E+003  0.1380519E+03  0.7546771E-02  0.1215975E+00
         21   -1    0    0  504  501  0.00000000000E+00  0.00000000000E+00  0.80292382795E+02  0.80292382795E+02  0.00000000000E+00 0. -1.
         21   -1    0    0  503  502 -0.00000000000E+00 -0.00000000000E+00 -0.25106910987E+03  0.25106910987E+03  0.00000000000E+00 0. -1.
         21    1    1    2  503  501  0.10416000659E+03  0.90603611498E+02 -0.12410129663E+03  0.18563257585E+03  0.00000000000E+00 0. -1.
         21    1    1    2  504  502 -0.10416000659E+03 -0.90603611498E+02 -0.46675430448E+02  0.14572891682E+03  0.00000000000E+00 0. -1.
<mgrwt>
<rscale>  2 0.13805188E+03</rscale>
<asrwt>0</asrwt>
<pdfrwt beam="1">  1       21 0.12352674E-01 0.13805188E+03</pdfrwt>
<pdfrwt beam="2">  1       21 0.38626017E-01 0.13805188E+03</pdfrwt>
<totfact> 0.36376466E+05</totfact>
</mgrwt>
</event>
<event>
 4    1  0.6052129E+003  0.1117959E+03  0.7546771E-02  0.1257280E+00
         21   -1    0    0  503  501  0.00000000000E+00  0.00000000000E+00  0.16630606179E+02  0.16630606179E+02  0.00000000000E+00 0.  1.
         21   -1    0    0  504  502 -0.00000000000E+00 -0.00000000000E+00 -0.84018625828E+03  0.84018625828E+03  0.00000000000E+00 0.  1.
         21    1    1    2  503  502  0.87164431901E+02  0.70004938108E+02 -0.27261116142E+03  0.29464414958E+03  0.00000000000E+00 0.  1.
         21    1    1    2  504  501 -0.87164431901E+02 -0.70004938108E+02 -0.55094449068E+03  0.56217271489E+03  0.00000000000E+00 0.  1.
<mgrwt>
<rscale>  2 0.11179593E+03</rscale>
<asrwt>0</asrwt>
<pdfrwt beam="1">  1       21 0.25585553E-02 0.11179593E+03</pdfrwt>
<pdfrwt beam="2">  1       21 0.12925940E+00 0.11179593E+03</pdfrwt>
<totfact> 0.36882528E+05</totfact>
</mgrwt>
</event>
<event>
 4    1  0.6052129E+003  0.1093389E+03  0.7546771E-02  0.1261799E+00
         21   -1    0    0  503  501  0.00000000000E+00  0.00000000000E+00  0.67046776368E+02  0.67046776368E+02  0.00000000000E+00 0.  1.
         21   -1    0    0  504  502 -0.00000000000E+00 -0.00000000000E+00 -0.18129721666E+03  0.18129721666E+03  0.00000000000E+00 0.  1.
         21    1    1    2  503  502 -0.89556739328E+02 -0.62726360187E+02 -0.41182033492E+02  0.11683734721E+03  0.00000000000E+00 0.  1.
         21    1    1    2  504  501  0.89556739328E+02  0.62726360187E+02 -0.73068406802E+02  0.13150664582E+03  0.00000000000E+00 0.  1.
<mgrwt>
<rscale>  2 0.10933895E+03</rscale>
<asrwt>0</asrwt>
<pdfrwt beam="1">  1       21 0.10314889E-01 0.10933895E+03</pdfrwt>
<pdfrwt beam="2">  1       21 0.27891880E-01 0.10933895E+03</pdfrwt>
<totfact> 0.94317849E+05</totfact>
</mgrwt>
</event>
<event>
 4    1  0.6052129E+003  0.1842932E+03  0.7546771E-02  0.1163712E+00
         21   -1    0    0  503  501  0.00000000000E+00  0.00000000000E+00  0.25508140255E+03  0.25508140255E+03  0.00000000000E+00 0. -1.
         21   -1    0    0  504  502 -0.00000000000E+00 -0.00000000000E+00 -0.15739464423E+03  0.15739464423E+03  0.00000000000E+00 0. -1.
         21    1    1    2  503  502 -0.63627893003E+02 -0.17296085318E+03 -0.32100869810E+02  0.18706798589E+03  0.00000000000E+00 0. -1.
         21    1    1    2  504  501  0.63627893003E+02  0.17296085318E+03  0.12978762813E+03  0.22540806090E+03  0.00000000000E+00 0. -1.
<mgrwt>
<rscale>  2 0.18429315E+03</rscale>
<asrwt>0</asrwt>
<pdfrwt beam="1">  1       21 0.39243293E-01 0.18429315E+03</pdfrwt>
<pdfrwt beam="2">  1       21 0.24214561E-01 0.18429315E+03</pdfrwt>
<totfact> 0.10108414E+05</totfact>
</mgrwt>
</event>
<event>
 4    1  0.6052129E+003  0.1135016E+03  0.7546771E-02  0.1254220E+00
         21   -1    0    0  504  501  0.00000000000E+00  0.00000000000E+00  0.19401388741E+03  0.19401388741E+03  0.00000000000E+00 0.  1.
         21   -1    0    0  503  502 -0.00000000000E+00 -0.00000000000E+00 -0.23665214668E+03  0.23665214668E+03  0.00000000000E+00 0. -1.
         21    1    1    2  503  501 -0.88596765702E+01 -0.11315524231E+03  0.16132308710E+03  0.19725045289E+03  0.00000000000E+00 0.  1.
         21    1    1    2  504  502  0.88596765702E+01  0.11315524231E+03 -0.20396134638E+03  0.23341558120E+03  0.00000000000E+00 0. -1.
<mgrwt>
<rscale>  2 0.11350155E+03</rscale>
<asrwt>0</asrwt>
<pdfrwt beam="1">  1       21 0.29848291E-01 0.11350155E+03</pdfrwt>
<pdfrwt beam="2">  1       21 0.36408022E-01 0.11350155E+03</pdfrwt>
<totfact> 0.81019086E+04</totfact>
</mgrwt>
</event>
<event>
 4    1  0.6052129E+003  0.1380207E+03  0.7546771E-02  0.1216017E+00
         21   -1    0    0  503  501  0.00000000000E+00  0.00000000000E+00  0.76267528735E+02  0.76267528735E+02  0.00000000000E+00 0. -1.
         21   -1    0    0  504  502 -0.00000000000E+00 -0.00000000000E+00 -0.24977538533E+03  0.24977538533E+03  0.00000000000E+00 0. -1.
         21    1    1    2  503  502 -0.13251433803E+03 -0.38596007525E+02 -0.87017503674E+02  0.16316172200E+03  0.00000000000E+00 0. -1.
         21    1    1    2  504  501  0.13251433803E+03  0.38596007525E+02 -0.86490352926E+02  0.16288119207E+03  0.00000000000E+00 0. -1.
<mgrwt>
<rscale>  2 0.13802066E+03</rscale>
<asrwt>0</asrwt>
<pdfrwt beam="1">  1       21 0.11733466E-01 0.13802066E+03</pdfrwt>
<pdfrwt beam="2">  1       21 0.38426981E-01 0.13802066E+03</pdfrwt>
<totfact> 0.40265644E+05</totfact>
</mgrwt>
</event>
<event>
 4    1  0.6052129E+003  0.1103892E+03  0.7546771E-02  0.1259851E+00
         21   -1    0    0  503  501  0.00000000000E+00  0.00000000000E+00  0.16644882990E+03  0.16644882990E+03  0.00000000000E+00 0. -1.
         21   -1    0    0  504  502 -0.00000000000E+00 -0.00000000000E+00 -0.17800731235E+03  0.17800731235E+03  0.00000000000E+00 0.  1.
         21    1    1    2  503  502  0.10951786025E+03 -0.13842455622E+02 -0.13792687339E+03  0.17666238336E+03  0.00000000000E+00 0.  1.
         21    1    1    2  504  501 -0.10951786025E+03  0.13842455622E+02  0.12636839094E+03  0.16779375889E+03  0.00000000000E+00 0. -1.
<mgrwt>
<rscale>  2 0.11038920E+03</rscale>
<asrwt>0</asrwt>
<pdfrwt beam="1">  1       21 0.25607512E-01 0.11038920E+03</pdfrwt>
<pdfrwt beam="2">  1       21 0.27385740E-01 0.11038920E+03</pdfrwt>
<totfact> 0.18833111E+05</totfact>
</mgrwt>
</event>
<event>
 4    1  0.6052129E+003  0.1012218E+03  0.7546771E-02  0.1277747E+00
         21   -1    0    0  502  501  0.00000000000E+00  0.00000000000E+00  0.13374027555E+03  0.13374027555E+03  0.00000000000E+00 0.  1.
         21   -1    0    0  504  502 -0.00000000000E+00 -0.00000000000E+00 -0.88739180629E+02  0.88739180629E+02  0.00000000000E+00 0.  1.
         21    1    1    2  503  501 -0.42701484620E+02  0.91773884562E+02  0.63626431232E+02  0.11955829301E+03  0.00000000000E+00 0.  1.
         21    1    1    2  504  503  0.42701484620E+02 -0.91773884562E+02 -0.18625336307E+02  0.10292116317E+03  0.00000000000E+00 0.  1.
<mgrwt>
<rscale>  2 0.10122185E+03</rscale>
<asrwt>0</asrwt>
<pdfrwt beam="1">  1       21 0.20575427E-01 0.10122185E+03</pdfrwt>
<pdfrwt beam="2">  1       21 0.13652182E-01 0.10122185E+03</pdfrwt>
<totfact> 0.10162618E+06</totfact>
</mgrwt>
</event>
<event>
 4    1  0.6052129E+003  0.1007870E+03  0.7546771E-02  0.1278650E+00
         21   -1    0    0  502  501  0.00000000000E+00  0.00000000000E+00  0.91909508844E+03  0.91909508844E+03  0.00000000000E+00 0.  1.
         21   -1    0    0  504  502 -0.00000000000E+00 -0.00000000000E+00 -0.86103424199E+02  0.86103424199E+02  0.00000000000E+00 0. -1.
         21    1    1    2  503  501  0.48440777926E+02  0.88382726395E+02  0.88573098926E+03  0.89144680190E+03  0.00000000000E+00 0.  1.
         21    1    1    2  504  503 -0.48440777926E+02 -0.88382726395E+02 -0.52739325020E+02  0.11375171073E+03  0.00000000000E+00 0. -1.
<mgrwt>
<rscale>  2 0.10078698E+03</rscale>
<asrwt>0</asrwt>
<pdfrwt beam="1">  1       21 0.14139924E+00 0.10078698E+03</pdfrwt>
<pdfrwt beam="2">  1       21 0.13246681E-01 0.10078698E+03</pdfrwt>
<totfact> 0.18468932E+04</totfact>
</mgrwt>
</event>
<event>
 4    1  0.6052129E+003  0.1144215E+03  0.7546771E-02  0.1252594E+00
         21   -1    0    0  504  501  0.00000000000E+00  0.00000000000E+00  0.17750158166E+03  0.17750158166E+03  0.00000000000E+00 0.  1.
         21   -1    0    0  501  502 -0.00000000000E+00 -0.00000000000E+00 -0.72698213007E+03  0.72698213007E+03  0.00000000000E+00 0. -1.
         21    1    1    2  503  502 -0.10349359352E+03  0.48799248387E+02 -0.70342672284E+03  0.71267204586E+03  0.00000000000E+00 0. -1.
         21    1    1    2  504  503  0.10349359352E+03 -0.48799248387E+02  0.15394617443E+03  0.19181166588E+03  0.00000000000E+00 0.  1.
<mgrwt>
<rscale>  2 0.11442155E+03</rscale>
<asrwt>0</asrwt>
<pdfrwt beam="1">  1       21 0.27307936E-01 0.11442155E+03</pdfrwt>
<pdfrwt beam="2">  1       21 0.11184340E+00 0.11442155E+03</pdfrwt>
<totfact> 0.85832298E+03</totfact>
</mgrwt>
</event>
<event>
 4    1  0.6052129E+003  0.1222361E+03  0.7546771E-02  0.1239453E+00
         21   -1    0    0  503  501  0.00000000000E+00  0.00000000000E+00  0.19752180696E+03  0.19752180696E+03  0.00000000000E+00 0. -1.
         21   -1    0    0  504  502 -0.00000000000E+00 -0.00000000000E+00 -0.76338187689E+02  0.76338187689E+02  0.00000000000E+00 0. -1.
         21    1    1    2  503  502 -0.67738084677E+02  0.10175080525E+03  0.47550083279E+02  0.13115900619E+03  0.00000000000E+00 0. -1.
         21    1    1    2  504  501  0.67738084677E+02 -0.10175080525E+03  0.73633535993E+02  0.14270098846E+03  0.00000000000E+00 0. -1.
<mgrwt>
<rscale>  2 0.12223614E+03</rscale>
<asrwt>0</asrwt>
<pdfrwt beam="1">  1       21 0.30387970E-01 0.12223614E+03</pdfrwt>
<pdfrwt beam="2">  1       21 0.11744337E-01 0.12223614E+03</pdfrwt>
<totfact> 0.63746310E+05</totfact>
</mgrwt>
</event>
<event>
 4    1  0.6052129E+003  0.1009716E+03  0.7546771E-02  0.1278266E+00
         21   -1    0    0  503  501  0.00000000000E+00  0.00000000000E+00  0.26495719505E+03  0.26495719505E+03  0.00000000000E+00 0. -1.
         21   -1    0    0  504  502 -0.00000000000E+00 -0.00000000000E+00 -0.27104606732E+03  0.27104606732E+03  0.00000000000E+00 0. -1.
         21    1    1    2  503  502  0.93425139122E+02  0.38301523310E+02  0.24520603254E+03  0.26518156366E+03  0.00000000000E+00 0. -1.
         21    1    1    2  504  501 -0.93425139122E+02 -0.38301523310E+02 -0.25129490481E+03  0.27082169871E+03  0.00000000000E+00 0. -1.
<mgrwt>
<rscale>  2 0.10097160E+03</rscale>
<asrwt>0</asrwt>
<pdfrwt beam="1">  1       21 0.40762645E-01 0.10097160E+03</pdfrwt>
<pdfrwt beam="2">  1       21 0.41699395E-01 0.10097160E+03</pdfrwt>
<totfact> 0.33945148E+04</totfact>
</mgrwt>
</event>
<event>
 4    1  0.6052129E+003  0.1663808E+03  0.7546771E-02  0.1181676E+00
         21   -1    0    0  502  501  0.00000000000E+00  0.00000000000E+00  0.25852650736E+03  0.25852650736E+03  0.00000000000E+00 0.  1.
         21   -1    0    0  503  502 -0.00000000000E+00 -0.00000000000E+00 -0.14524142000E+04  0.14524142000E+04  0.00000000000E+00 0.  1.
         21    1    1    2  503  504  0.21615865045E+02 -0.16497065204E+03 -0.14202760393E+04  0.14299883179E+04  0.00000000000E+00 0.  1.
         21    1    1    2  504  501 -0.21615865045E+02  0.16497065204E+03  0.22638834662E+03  0.28095238945E+03  0.00000000000E+00 0.  1.
<mgrwt>
<rscale>  2 0.16638077E+03</rscale>
<asrwt>0</asrwt>
<pdfrwt beam="1">  1       21 0.39773309E-01 0.16638077E+03</pdfrwt>
<pdfrwt beam="2">  1       21 0.22344834E+00 0.16638077E+03</pdfrwt>
<totfact> 0.60462262E+02</totfact>
</mgrwt>
</event>
<event>
 4    1  0.6052129E+003  0.1098510E+03  0.7546771E-02  0.1260846E+00
         21   -1    0    0  503  501  0.00000000000E+00  0.00000000000E+00  0.10399743520E+03  0.10399743520E+03  0.00000000000E+00 0.  1.
         21   -1    0    0  504  502 -0.00000000000E+00 -0.00000000000E+00 -0.73922485524E+03  0.73922485524E+03  0.00000000000E+00 0.  1.
         21    1    1    2  503  502 -0.77954734912E+02 -0.77396971233E+02 -0.70472368319E+03  0.71323397388E+03  0.00000000000E+00 0.  1.
         21    1    1    2  504  501  0.77954734912E+02  0.77396971233E+02  0.69496263145E+02  0.12998831656E+03  0.00000000000E+00 0.  1.
<mgrwt>
<rscale>  2 0.10985095E+03</rscale>
<asrwt>0</asrwt>
<pdfrwt beam="1">  1       21 0.15999606E-01 0.10985095E+03</pdfrwt>
<pdfrwt beam="2">  1       21 0.11372690E+00 0.10985095E+03</pdfrwt>
<totfact> 0.22283193E+04</totfact>
</mgrwt>
</event>
<event>
 4    1  0.6052129E+003  0.1135309E+03  0.7546771E-02  0.1254167E+00
         21   -1    0    0  503  501  0.00000000000E+00  0.00000000000E+00  0.29220276056E+03  0.29220276056E+03  0.00000000000E+00 0.  1.
         21   -1    0    0  501  502 -0.00000000000E+00 -0.00000000000E+00 -0.60161320313E+02  0.60161320313E+02  0.00000000000E+00 0.  1.
         21    1    1    2  503  504  0.95917787336E+02  0.60737588134E+02  0.20702220645E+03  0.23610902249E+03  0.00000000000E+00 0.  1.
         21    1    1    2  504  502 -0.95917787336E+02 -0.60737588134E+02  0.25019233804E+02  0.11625505838E+03  0.00000000000E+00 0.  1.
<mgrwt>
<rscale>  2 0.11353095E+03</rscale>
<asrwt>0</asrwt>
<pdfrwt beam="1">  1       21 0.44954270E-01 0.11353095E+03</pdfrwt>
<pdfrwt beam="2">  1       21 0.92555879E-02 0.11353095E+03</pdfrwt>
<totfact> 0.44660730E+05</totfact>
</mgrwt>
</event>
<event>
 4    1  0.6052129E+003  0.1623953E+03  0.7546771E-02  0.1186019E+00
         21   -1    0    0  503  501  0.00000000000E+00  0.00000000000E+00  0.12141584361E+04  0.12141584361E+04  0.00000000000E+00 0.  1.
         21   -1    0    0  504  502 -0.00000000000E+00 -0.00000000000E+00 -0.26374484526E+02  0.26374484526E+02  0.00000000000E+00 0.  1.
         21    1    1    2  503  502 -0.48384050096E+02  0.15502001828E+03  0.33333952598E+03  0.37079301766E+03  0.00000000000E+00 0.  1.
         21    1    1    2  504  501  0.48384050096E+02 -0.15502001828E+03  0.85444442557E+03  0.86973990293E+03  0.00000000000E+00 0.  1.
<mgrwt>
<rscale>  2 0.16239527E+03</rscale>
<asrwt>0</asrwt>
<pdfrwt beam="1">  1       21 0.18679356E+00 0.16239527E+03</pdfrwt>
<pdfrwt beam="2">  1       21 0.40576139E-02 0.16239527E+03</pdfrwt>
<totfact> 0.63851991E+04</totfact>
</mgrwt>
</event>
<event>
 4    1  0.6052129E+003  0.1123903E+03  0.7546771E-02  0.1256206E+00
         21   -1    0    0  502  501  0.00000000000E+00  0.00000000000E+00  0.17304782283E+02  0.17304782283E+02  0.00000000000E+00 0.  1.
         21   -1    0    0  504  502 -0.00000000000E+00 -0.00000000000E+00 -0.13922513734E+04  0.13922513734E+04  0.00000000000E+00 0.  1.
         21    1    1    2  503  501 -0.10536268904E+03  0.39118947332E+02 -0.20137723824E+03  0.23061738955E+03  0.00000000000E+00 0.  1.
         21    1    1    2  504  503  0.10536268904E+03 -0.39118947332E+02 -0.11735693529E+04  0.11789387661E+04  0.00000000000E+00 0.  1.
<mgrwt>
<rscale>  2 0.11239034E+03</rscale>
<asrwt>0</asrwt>
<pdfrwt beam="1">  1       21 0.26622722E-02 0.11239034E+03</pdfrwt>
<pdfrwt beam="2">  1       21 0.21419268E+00 0.11239034E+03</pdfrwt>
<totfact> 0.89104483E+04</totfact>
</mgrwt>
</event>
<event>
 4    1  0.6052129E+003  0.1016180E+03  0.7546771E-02  0.1276930E+00
         21   -1    0    0  503  501  0.00000000000E+00  0.00000000000E+00  0.72943763765E+02  0.72943763765E+02  0.00000000000E+00 0.  1.
         21   -1    0    0  504  502 -0.00000000000E+00 -0.00000000000E+00 -0.49445455295E+03  0.49445455295E+03  0.00000000000E+00 0. -1.
         21    1    1    2  503  502  0.10146512439E+03  0.55719118852E+01  0.28915235097E+02  0.10565182672E+03  0.00000000000E+00 0.  1.
         21    1    1    2  504  501 -0.10146512439E+03 -0.55719118852E+01 -0.45042602428E+03  0.46174648999E+03  0.00000000000E+00 0. -1.
<mgrwt>
<rscale>  2 0.10161800E+03</rscale>
<asrwt>0</asrwt>
<pdfrwt beam="1">  1       21 0.11222118E-01 0.10161800E+03</pdfrwt>
<pdfrwt beam="2">  1       21 0.76069929E-01 0.10161800E+03</pdfrwt>
<totfact> 0.10578985E+05</totfact>
</mgrwt>
</event>
<event>
 4    1  0.6052129E+003  0.1261820E+03  0.7546771E-02  0.1233233E+00
         21   -1    0    0  504  501  0.00000000000E+00  0.00000000000E+00  0.87828448773E+03  0.87828448773E+03  0.00000000000E+00 0. -1.
         21   -1    0    0  503  502 -0.00000000000E+00 -0.00000000000E+00 -0.18333765481E+02  0.18333765481E+02  0.00000000000E+00 0. -1.
         21    1    1    2  503  501 -0.10804361602E+03  0.65180366201E+02  0.38252902150E+03  0.40280312237E+03  0.00000000000E+00 0. -1.
         21    1    1    2  504  502  0.10804361602E+03 -0.65180366201E+02  0.47742170075E+03  0.49381513084E+03  0.00000000000E+00 0. -1.
<mgrwt>
<rscale>  2 0.12618202E+03</rscale>
<asrwt>0</asrwt>
<pdfrwt beam="1">  1       21 0.13512066E+00 0.12618202E+03</pdfrwt>
<pdfrwt beam="2">  1       21 0.28205800E-02 0.12618202E+03</pdfrwt>
<totfact> 0.28057957E+05</totfact>
</mgrwt>
</event>
<event>
 4    1  0.6052129E+003  0.1479897E+03  0.7546771E-02  0.1202965E+00
         21   -1    0    0  503  501  0.00000000000E+00  0.00000000000E+00  0.22064440523E+03  0.22064440523E+03  0.00000000000E+00 0. -1.
         21   -1    0    0  504  502 -0.00000000000E+00 -0.00000000000E+00 -0.66251520126E+03  0.66251520126E+03  0.00000000000E+00 0. -1.
         21    1    1    2  503  502 -0.44490621928E+01  0.14792285223E+03  0.18622378242E+03  0.23786605791E+03  0.00000000000E+00 0. -1.
         21    1    1    2  504  501  0.44490621928E+01 -0.14792285223E+03 -0.62809457845E+03  0.64529354858E+03  0.00000000000E+00 0. -1.
<mgrwt>
<rscale>  2 0.14798974E+03</rscale>
<asrwt>0</asrwt>
<pdfrwt beam="1">  1       21 0.33945293E-01 0.14798974E+03</pdfrwt>
<pdfrwt beam="2">  1       21 0.10192542E+00 0.14798974E+03</pdfrwt>
<totfact> 0.68030108E+03</totfact>
</mgrwt>
</event>
<event>
 4    1  0.6052129E+003  0.1575363E+03  0.7546771E-02  0.1191507E+00
         21   -1    0    0  503  501  0.00000000000E+00  0.00000000000E+00  0.48221286930E+02  0.48221286930E+02  0.00000000000E+00 0.  1.
         21   -1    0    0  501  502 -0.00000000000E+00 -0.00000000000E+00 -0.84366315438E+03  0.84366315438E+03  0.00000000000E+00 0.  1.
         21    1    1    2  503  504  0.13871884936E+03 -0.74664276092E+02 -0.11924181602E+03  0.19757602077E+03  0.00000000000E+00 0.  1.
         21    1    1    2  504  502 -0.13871884936E+03  0.74664276092E+02 -0.67620005142E+03  0.69430842054E+03  0.00000000000E+00 0.  1.
<mgrwt>
<rscale>  2 0.15753626E+03</rscale>
<asrwt>0</asrwt>
<pdfrwt beam="1">  1       21 0.74186602E-02 0.15753626E+03</pdfrwt>
<pdfrwt beam="2">  1       21 0.12979432E+00 0.15753626E+03</pdfrwt>
<totfact> 0.60486152E+04</totfact>
</mgrwt>
</event>
<event>
 4    1  0.6052129E+003  0.1263008E+03  0.7546771E-02  0.1233050E+00
         21   -1    0    0  504  501  0.00000000000E+00  0.00000000000E+00  0.19136666291E+04  0.19136666291E+04  0.00000000000E+00 0. -1.
         21   -1    0    0  503  502 -0.00000000000E+00 -0.00000000000E+00 -0.24644758373E+02  0.24644758373E+02  0.00000000000E+00 0.  1.
         21    1    1    2  503  501  0.28379513658E+02  0.12307107309E+03  0.17329075927E+04  0.17375041325E+04  0.00000000000E+00 0. -1.
         21    1    1    2  504  502 -0.28379513658E+02 -0.12307107309E+03  0.15611427808E+03  0.20080725497E+03  0.00000000000E+00 0.  1.
<mgrwt>
<rscale>  2 0.12630078E+03</rscale>
<asrwt>0</asrwt>
<pdfrwt beam="1">  1       21 0.29441013E+00 0.12630078E+03</pdfrwt>
<pdfrwt beam="2">  1       21 0.37915028E-02 0.12630078E+03</pdfrwt>
<totfact> 0.17035060E+04</totfact>
</mgrwt>
</event>
<event>
 4    1  0.6052129E+003  0.1069832E+03  0.7546771E-02  0.1266261E+00
         21   -1    0    0  504  501  0.00000000000E+00  0.00000000000E+00  0.32392949317E+02  0.32392949317E+02  0.00000000000E+00 0. -1.
         21   -1    0    0  501  502 -0.00000000000E+00 -0.00000000000E+00 -0.40878704342E+03  0.40878704342E+03  0.00000000000E+00 0. -1.
         21    1    1    2  503  502 -0.73741812961E+02  0.77508415476E+02 -0.26944539910E+03  0.28990728267E+03  0.00000000000E+00 0. -1.
         21    1    1    2  504  503  0.73741812961E+02 -0.77508415476E+02 -0.10694869500E+03  0.15127271007E+03  0.00000000000E+00 0. -1.
<mgrwt>
<rscale>  2 0.10698322E+03</rscale>
<asrwt>0</asrwt>
<pdfrwt beam="1">  1       21 0.49835305E-02 0.10698322E+03</pdfrwt>
<pdfrwt beam="2">  1       21 0.62890317E-01 0.10698322E+03</pdfrwt>
<totfact> 0.63839528E+05</totfact>
</mgrwt>
</event>
<event>
 4    1  0.6052129E+003  0.1175986E+03  0.7546771E-02  0.1247112E+00
         21   -1    0    0  504  501  0.00000000000E+00  0.00000000000E+00  0.13979888083E+04  0.13979888083E+04  0.00000000000E+00 0.  1.
         21   -1    0    0  503  502 -0.00000000000E+00 -0.00000000000E+00 -0.27250447329E+02  0.27250447329E+02  0.00000000000E+00 0.  1.
         21    1    1    2  503  501  0.48118691532E+02 -0.10730344971E+03  0.12541194640E+04  0.12596210020E+04  0.00000000000E+00 0.  1.
         21    1    1    2  504  502 -0.48118691532E+02  0.10730344971E+03  0.11661889700E+03  0.16561825362E+03  0.00000000000E+00 0.  1.
<mgrwt>
<rscale>  2 0.11759863E+03</rscale>
<asrwt>0</asrwt>
<pdfrwt beam="1">  1       21 0.21507515E+00 0.11759863E+03</pdfrwt>
<pdfrwt beam="2">  1       21 0.41923776E-02 0.11759863E+03</pdfrwt>
<totfact> 0.41535952E+04</totfact>
</mgrwt>
</event>
<event>
 4    1  0.6052129E+003  0.1284791E+03  0.7546771E-02  0.1229730E+00
         21   -1    0    0  503  501  0.00000000000E+00  0.00000000000E+00  0.12147025140E+03  0.12147025140E+03  0.00000000000E+00 0. -1.
         21   -1    0    0  504  502 -0.00000000000E+00 -0.00000000000E+00 -0.14225908927E+03  0.14225908927E+03  0.00000000000E+00 0. -1.
         21    1    1    2  503  502 -0.10905062043E+03 -0.67932698374E+02 -0.38290536902E+02  0.13406362125E+03  0.00000000000E+00 0. -1.
         21    1    1    2  504  501  0.10905062043E+03  0.67932698374E+02  0.17501699030E+02  0.12966571943E+03  0.00000000000E+00 0. -1.
<mgrwt>
<rscale>  2 0.12847914E+03</rscale>
<asrwt>0</asrwt>
<pdfrwt beam="1">  1       21 0.18687731E-01 0.12847914E+03</pdfrwt>
<pdfrwt beam="2">  1       21 0.21886014E-01 0.12847914E+03</pdfrwt>
<totfact> 0.51450680E+05</totfact>
</mgrwt>
</event>
<event>
 4    1  0.6052129E+003  0.1559682E+03  0.7546771E-02  0.1193325E+00
         21   -1    0    0  504  501  0.00000000000E+00  0.00000000000E+00  0.33725553503E+02  0.33725553503E+02  0.00000000000E+00 0. -1.
         21   -1    0    0  503  502 -0.00000000000E+00 -0.00000000000E+00 -0.72802412300E+03  0.72802412300E+03  0.00000000000E+00 0.  1.
         21    1    1    2  503  501  0.15713539151E+02 -0.15517465980E+03 -0.38376538874E+03  0.41424867405E+03  0.00000000000E+00 0.  1.
         21    1    1    2  504  502 -0.15713539151E+02  0.15517465980E+03 -0.31053318076E+03  0.34750100245E+03  0.00000000000E+00 0. -1.
<mgrwt>
<rscale>  2 0.15596824E+03</rscale>
<asrwt>0</asrwt>
<pdfrwt beam="1">  1       21 0.51885465E-02 0.15596824E+03</pdfrwt>
<pdfrwt beam="2">  1       21 0.11200372E+00 0.15596824E+03</pdfrwt>
<totfact> 0.16011252E+05</totfact>
</mgrwt>
</event>
<event>
 4    1  0.6052129E+003  0.1778352E+03  0.7546771E-02  0.1169915E+00
         21   -1    0    0  502  501  0.00000000000E+00  0.00000000000E+00  0.43296742591E+03  0.43296742591E+03  0.00000000000E+00 0. -1.
         21   -1    0    0  504  502 -0.00000000000E+00 -0.00000000000E+00 -0.91627158219E+02  0.91627158219E+02  0.00000000000E+00 0.  1.
         21    1    1    2  503  501  0.15867168846E+03  0.80303616750E+02  0.28879721641E+03  0.33915956095E+03  0.00000000000E+00 0. -1.
         21    1    1    2  504  503 -0.15867168846E+03 -0.80303616750E+02  0.52543051281E+02  0.18543502317E+03  0.00000000000E+00 0.  1.
<mgrwt>
<rscale>  2 0.17783525E+03</rscale>
<asrwt>0</asrwt>
<pdfrwt beam="1">  1       21 0.66610372E-01 0.17783525E+03</pdfrwt>
<pdfrwt beam="2">  1       21 0.14096486E-01 0.17783525E+03</pdfrwt>
<totfact> 0.91275044E+04</totfact>
</mgrwt>
</event>
<event>
 4    1  0.6052129E+003  0.1289026E+03  0.7546771E-02  0.1229093E+00
         21   -1    0    0  504  501  0.00000000000E+00  0.00000000000E+00  0.15424834076E+04  0.15424834076E+04  0.00000000000E+00 0. -1.
         21   -1    0    0  503  502 -0.00000000000E+00 -0.00000000000E+00 -0.12739655722E+02  0.12739655722E+02  0.00000000000E+00 0. -1.
         21    1    1    2  503  501 -0.11545101222E+03 -0.57331802730E+02  0.45928043158E+03  0.47702661001E+03  0.00000000000E+00 0. -1.
         21    1    1    2  504  502  0.11545101222E+03  0.57331802730E+02  0.10704633203E+04  0.10781964533E+04  0.00000000000E+00 0. -1.
<mgrwt>
<rscale>  2 0.12890257E+03</rscale>
<asrwt>0</asrwt>
<pdfrwt beam="1">  1       21 0.23730499E+00 0.12890257E+03</pdfrwt>
<pdfrwt beam="2">  1       21 0.19599483E-02 0.12890257E+03</pdfrwt>
<totfact> 0.10530019E+05</totfact>
</mgrwt>
</event>
<event>
 4    1  0.6052129E+003  0.1166809E+03  0.7546771E-02  0.1248675E+00
         21   -1    0    0  502  501  0.00000000000E+00  0.00000000000E+00  0.26925017227E+03  0.26925017227E+03  0.00000000000E+00 0.  1.
         21   -1    0    0  504  502 -0.00000000000E+00 -0.00000000000E+00 -0.13575302402E+03  0.13575302402E+03  0.00000000000E+00 0. -1.
         21    1    1    2  503  501  0.50608197840E+02  0.10513441474E+03  0.22716353344E+03  0.25537757493E+03  0.00000000000E+00 0.  1.
         21    1    1    2  504  503 -0.50608197840E+02 -0.10513441474E+03 -0.93666385189E+02  0.14962562135E+03  0.00000000000E+00 0. -1.
<mgrwt>
<rscale>  2 0.11668091E+03</rscale>
<asrwt>0</asrwt>
<pdfrwt beam="1">  1       21 0.41423103E-01 0.11668091E+03</pdfrwt>
<pdfrwt beam="2">  1       21 0.20885081E-01 0.11668091E+03</pdfrwt>
<totfact> 0.12274648E+05</totfact>
</mgrwt>
</event>
<event>
 4    1  0.6052129E+003  0.1141068E+03  0.7546771E-02  0.1253148E+00
         21   -1    0    0  503  501  0.00000000000E+00  0.00000000000E+00  0.71961354729E+03  0.71961354729E+03  0.00000000000E+00 0. -1.
         21   -1    0    0  501  502 -0.00000000000E+00 -0.00000000000E+00 -0.31746229787E+02  0.31746229787E+02  0.00000000000E+00 0. -1.
         21    1    1    2  503  504 -0.10301285776E+03  0.49078675971E+02  0.59029966618E+03  0.60122712945E+03  0.00000000000E+00 0. -1.
         21    1    1    2  504  502  0.10301285776E+03 -0.49078675971E+02  0.97567651329E+02  0.15013264763E+03  0.00000000000E+00 0. -1.
<mgrwt>
<rscale>  2 0.11410682E+03</rscale>
<asrwt>0</asrwt>
<pdfrwt beam="1">  1       21 0.11070976E+00 0.11410682E+03</pdfrwt>
<pdfrwt beam="2">  1       21 0.48840359E-02 0.11410682E+03</pdfrwt>
<totfact> 0.18500816E+05</totfact>
</mgrwt>
</event>
<event>
 4    1  0.6052129E+003  0.1401725E+03  0.7546771E-02  0.1213097E+00
         21   -1    0    0  503  501  0.00000000000E+00  0.00000000000E+00  0.13233005735E+03  0.13233005735E+03  0.00000000000E+00 0. -1.
         21   -1    0    0  504  502 -0.00000000000E+00 -0.00000000000E+00 -0.17226237298E+03  0.17226237298E+03  0.00000000000E+00 0. -1.
         21    1    1    2  503  502  0.66521720551E+02  0.12338228899E+03  0.36621815294E+02  0.14487748581E+03  0.00000000000E+00 0. -1.
         21    1    1    2  504  501 -0.66521720551E+02 -0.12338228899E+03 -0.76554130920E+02  0.15971494451E+03  0.00000000000E+00 0. -1.
<mgrwt>
<rscale>  2 0.14017250E+03</rscale>
<asrwt>0</asrwt>
<pdfrwt beam="1">  1       21 0.20358470E-01 0.14017250E+03</pdfrwt>
<pdfrwt beam="2">  1       21 0.26501904E-01 0.14017250E+03</pdfrwt>
<totfact> 0.30580817E+05</totfact>
</mgrwt>
</event>
<event>
 4    1  0.6052129E+003  0.1017794E+03  0.7546771E-02  0.1276598E+00
         21   -1    0    0  504  501  0.00000000000E+00  0.00000000000E+00  0.11169715095E+03  0.11169715095E+03  0.00000000000E+00 0.  1.
         21   -1    0    0  503  502 -0.00000000000E+00 -0.00000000000E+00 -0.10443838794E+03  0.10443838794E+03  0.00000000000E+00 0. -1.
         21    1    1    2  503  501  0.94437521163E+02  0.37955356484E+02  0.39794158176E+02  0.10928233853E+03  0.00000000000E+00 0.  1.
         21    1    1    2  504  502 -0.94437521163E+02 -0.37955356484E+02 -0.32535395168E+02  0.10685320036E+03  0.00000000000E+00 0. -1.
<mgrwt>
<rscale>  2 0.10177944E+03</rscale>
<asrwt>0</asrwt>
<pdfrwt beam="1">  1       21 0.17184177E-01 0.10177944E+03</pdfrwt>
<pdfrwt beam="2">  1       21 0.16067444E-01 0.10177944E+03</pdfrwt>
<totfact> 0.10551276E+06</totfact>
</mgrwt>
</event>
<event>
 4    1  0.6052129E+003  0.2026329E+03  0.7546771E-02  0.1147536E+00
         21   -1    0    0  504  501  0.00000000000E+00  0.00000000000E+00  0.36350384032E+03  0.36350384032E+03  0.00000000000E+00 0. -1.
         21   -1    0    0  503  502 -0.00000000000E+00 -0.00000000000E+00 -0.16402864656E+03  0.16402864656E+03  0.00000000000E+00 0.  1.
         21    1    1    2  503  501 -0.18265468129E+03 -0.87734660692E+02 -0.47443363609E+02  0.20811289252E+03  0.00000000000E+00 0.  1.
         21    1    1    2  504  502  0.18265468129E+03  0.87734660692E+02  0.24691855737E+03  0.31941959436E+03  0.00000000000E+00 0. -1.
<mgrwt>
<rscale>  2 0.20263293E+03</rscale>
<asrwt>0</asrwt>
<pdfrwt beam="1">  1       21 0.55923667E-01 0.20263293E+03</pdfrwt>
<pdfrwt beam="2">  1       21 0.25235177E-01 0.20263293E+03</pdfrwt>
<totfact> 0.44574423E+04</totfact>
</mgrwt>
</event>
<event>
 4    1  0.6052129E+003  0.1428306E+03  0.7546771E-02  0.1209570E+00
         21   -1    0    0  503  501  0.00000000000E+00  0.00000000000E+00  0.14817260425E+04  0.14817260425E+04  0.00000000000E+00 0. -1.
         21   -1    0    0  501  502 -0.00000000000E+00 -0.00000000000E+00 -0.17885129307E+02  0.17885129307E+02  0.00000000000E+00 0. -1.
         21    1    1    2  503  504  0.87291199873E+02  0.11305236105E+03  0.10916642175E+04  0.11009683708E+04  0.00000000000E+00 0. -1.
         21    1    1    2  504  502 -0.87291199873E+02 -0.11305236105E+03  0.37217669577E+03  0.39864280100E+03  0.00000000000E+00 0. -1.
<mgrwt>
<rscale>  2 0.14283063E+03</rscale>
<asrwt>0</asrwt>
<pdfrwt beam="1">  1       21 0.22795776E+00 0.14283063E+03</pdfrwt>
<pdfrwt beam="2">  1       21 0.27515595E-02 0.14283063E+03</pdfrwt>
<totfact> 0.68111919E+04</totfact>
</mgrwt>
</event>
<event>
 4    1  0.6052129E+003  0.1406807E+03  0.7546771E-02  0.1212416E+00
         21   -1    0    0  503  501  0.00000000000E+00  0.00000000000E+00  0.16232019625E+03  0.16232019625E+03  0.00000000000E+00 0.  1.
         21   -1    0    0  501  502 -0.00000000000E+00 -0.00000000000E+00 -0.12468468371E+03  0.12468468371E+03  0.00000000000E+00 0.  1.
         21    1    1    2  503  504 -0.13430457840E+03 -0.41872962023E+02  0.40162828803E+02  0.14630146118E+03  0.00000000000E+00 0.  1.
         21    1    1    2  504  502  0.13430457840E+03  0.41872962023E+02 -0.25273162569E+01  0.14070341877E+03  0.00000000000E+00 0.  1.
<mgrwt>
<rscale>  2 0.14068072E+03</rscale>
<asrwt>0</asrwt>
<pdfrwt beam="1">  1       21 0.24972338E-01 0.14068072E+03</pdfrwt>
<pdfrwt beam="2">  1       21 0.19182259E-01 0.14068072E+03</pdfrwt>
<totfact> 0.38220766E+05</totfact>
</mgrwt>
</event>
<event>
 4    1  0.6052129E+003  0.1021392E+03  0.7546771E-02  0.1275861E+00
         21   -1    0    0  504  501  0.00000000000E+00  0.00000000000E+00  0.51952036283E+02  0.51952036283E+02  0.00000000000E+00 0. -1.
         21   -1    0    0  503  502 -0.00000000000E+00 -0.00000000000E+00 -0.62971900857E+03  0.62971900857E+03  0.00000000000E+00 0. -1.
         21    1    1    2  503  501  0.97240425303E+02  0.31252343255E+02 -0.57017381772E+03  0.57925002519E+03  0.00000000000E+00 0. -1.
         21    1    1    2  504  502 -0.97240425303E+02 -0.31252343255E+02 -0.75931545676E+01  0.10242101966E+03  0.00000000000E+00 0. -1.
<mgrwt>
<rscale>  2 0.10213917E+03</rscale>
<asrwt>0</asrwt>
<pdfrwt beam="1">  1       21 0.79926210E-02 0.10213917E+03</pdfrwt>
<pdfrwt beam="2">  1       21 0.96879847E-01 0.10213917E+03</pdfrwt>
<totfact> 0.11052902E+05</totfact>
</mgrwt>
</event>
<event>
 4    1  0.6052129E+003  0.1014682E+03  0.7546771E-02  0.1277238E+00
         21   -1    0    0  502  501  0.00000000000E+00  0.00000000000E+00  0.85832078165E+02  0.85832078165E+02  0.00000000000E+00 0.  1.
         21   -1    0    0  504  502 -0.00000000000E+00 -0.00000000000E+00 -0.21065173941E+03  0.21065173941E+03  0.00000000000E+00 0.  1.
         21    1    1    2  503  501 -0.10145056544E+03  0.18936612565E+01  0.34862525707E+02  0.10729025529E+03  0.00000000000E+00 0.  1.
         21    1    1    2  504  503  0.10145056544E+03 -0.18936612565E+01 -0.15968218695E+03  0.18919356229E+03  0.00000000000E+00 0.  1.
<mgrwt>
<rscale>  2 0.10146824E+03</rscale>
<asrwt>0</asrwt>
<pdfrwt beam="1">  1       21 0.13204935E-01 0.10146824E+03</pdfrwt>
<pdfrwt beam="2">  1       21 0.32407959E-01 0.10146824E+03</pdfrwt>
<totfact> 0.45787557E+05</totfact>
</mgrwt>
</event>
<event>
 4    1  0.6052129E+003  0.1020374E+03  0.7546771E-02  0.1276069E+00
         21   -1    0    0  503  501  0.00000000000E+00  0.00000000000E+00  0.76149303498E+01  0.76149303498E+01  0.00000000000E+00 0. -1.
         21   -1    0    0  501  502 -0.00000000000E+00 -0.00000000000E+00 -0.18936921969E+04  0.18936921969E+04  0.00000000000E+00 0. -1.
         21    1    1    2  503  504  0.10140274917E+03  0.11362487345E+02 -0.44180873782E+03  0.45343862260E+03  0.00000000000E+00 0. -1.
         21    1    1    2  504  502 -0.10140274917E+03 -0.11362487345E+02 -0.14442685288E+04  0.14478685047E+04  0.00000000000E+00 0. -1.
<mgrwt>
<rscale>  2 0.10203736E+03</rscale>
<asrwt>0</asrwt>
<pdfrwt beam="1">  1       21 0.11715282E-02 0.10203736E+03</pdfrwt>
<pdfrwt beam="2">  1       21 0.29133715E+00 0.10203736E+03</pdfrwt>
<totfact> 0.12184453E+05</totfact>
</mgrwt>
</event>
<event>
 4    1  0.6052129E+003  0.1066504E+03  0.7546771E-02  0.1266902E+00
         21   -1    0    0  503  501  0.00000000000E+00  0.00000000000E+00  0.39646469152E+02  0.39646469152E+02  0.00000000000E+00 0. -1.
         21   -1    0    0  504  502 -0.00000000000E+00 -0.00000000000E+00 -0.40183765599E+03  0.40183765599E+03  0.00000000000E+00 0. -1.
         21    1    1    2  503  502  0.24622077434E+01  0.10662196604E+03 -0.63035365234E+02  0.12388609034E+03  0.00000000000E+00 0. -1.
         21    1    1    2  504  501 -0.24622077434E+01 -0.10662196604E+03 -0.29915582160E+03  0.31759803480E+03  0.00000000000E+00 0. -1.
<mgrwt>
<rscale>  2 0.10665039E+03</rscale>
<asrwt>0</asrwt>
<pdfrwt beam="1">  1       21 0.60994566E-02 0.10665039E+03</pdfrwt>
<pdfrwt beam="2">  1       21 0.61821180E-01 0.10665039E+03</pdfrwt>
<totfact> 0.47152192E+05</totfact>
</mgrwt>
</event>
<event>
 4    1  0.6052129E+003  0.1150637E+03  0.7546771E-02  0.1251470E+00
         21   -1    0    0  503  501  0.00000000000E+00  0.00000000000E+00  0.23267164981E+03  0.23267164981E+03  0.00000000000E+00 0.  1.
         21   -1    0    0  504  502 -0.00000000000E+00 -0.00000000000E+00 -0.58107628042E+03  0.58107628042E+03  0.00000000000E+00 0.  1.
         21    1    1    2  503  502 -0.10087595699E+03  0.55350633327E+02  0.21223662288E+03  0.24142086778E+03  0.00000000000E+00 0.  1.
         21    1    1    2  504  501  0.10087595699E+03 -0.55350633327E+02 -0.56064125348E+03  0.57232706245E+03  0.00000000000E+00 0.  1.
<mgrwt>
<rscale>  2 0.11506368E+03</rscale>
<asrwt>0</asrwt>
<pdfrwt beam="1">  1       21 0.35795639E-01 0.11506368E+03</pdfrwt>
<pdfrwt beam="2">  1       21 0.89396349E-01 0.11506368E+03</pdfrwt>
<totfact> 0.85729781E+03</totfact>
</mgrwt>
</event>
<event>
 4    1  0.6052129E+003  0.1021878E+03  0.7546771E-02  0.1275761E+00
         21   -1    0    0  504  501  0.00000000000E+00  0.00000000000E+00  0.33067333107E+03  0.33067333107E+03  0.00000000000E+00 0.  1.
         21   -1    0    0  503  502 -0.00000000000E+00 -0.00000000000E+00 -0.33900571061E+02  0.33900571061E+02  0.00000000000E+00 0.  1.
         21    1    1    2  503  501  0.16767559323E+02  0.10080279057E+03  0.19608845415E+03  0.22111769600E+03  0.00000000000E+00 0.  1.
         21    1    1    2  504  502 -0.16767559323E+02 -0.10080279057E+03  0.10068430585E+03  0.14345620613E+03  0.00000000000E+00 0.  1.
<mgrwt>
<rscale>  2 0.10218784E+03</rscale>
<asrwt>0</asrwt>
<pdfrwt beam="1">  1       21 0.50872818E-01 0.10218784E+03</pdfrwt>
<pdfrwt beam="2">  1       21 0.52154727E-02 0.10218784E+03</pdfrwt>
<totfact> 0.92152785E+05</totfact>
</mgrwt>
</event>
<event>
 4    1  0.6052129E+003  0.1011549E+03  0.7546771E-02  0.1277886E+00
         21   -1    0    0  504  501  0.00000000000E+00  0.00000000000E+00  0.11025988564E+04  0.11025988564E+04  0.00000000000E+00 0.  1.
         21   -1    0    0  501  502 -0.00000000000E+00 -0.00000000000E+00 -0.71573155186E+02  0.71573155186E+02  0.00000000000E+00 0. -1.
         21    1    1    2  503  502  0.92650334296E+02 -0.40598293666E+02 -0.32191531068E+02  0.10615366487E+03  0.00000000000E+00 0. -1.
         21    1    1    2  504  503 -0.92650334296E+02  0.40598293666E+02  0.10632172323E+04  0.10680183468E+04  0.00000000000E+00 0.  1.
<mgrwt>
<rscale>  2 0.10115486E+03</rscale>
<asrwt>0</asrwt>
<pdfrwt beam="1">  1       21 0.16963058E+00 0.10115486E+03</pdfrwt>
<pdfrwt beam="2">  1       21 0.11011255E-01 0.10115486E+03</pdfrwt>
<totfact> 0.15947517E+04</totfact>
</mgrwt>
</event>
<event>
 4    1  0.6052129E+003  0.1179728E+03  0.7546771E-02  0.1246479E+00
         21   -1    0    0  502  501  0.00000000000E+00  0.00000000000E+00  0.72407853444E+02  0.72407853444E+02  0.00000000000E+00 0.  1.
         21   -1    0    0  503  502 -0.00000000000E+00 -0.00000000000E+00 -0.77289220030E+03  0.77289220030E+03  0.00000000000E+00 0. -1.
         21    1    1    2  503  504 -0.79933641209E+02 -0.86765161814E+02 -0.71658724263E+03  0.72623333482E+03  0.00000000000E+00 0. -1.
         21    1    1    2  504  501  0.79933641209E+02  0.86765161814E+02  0.16102895781E+02  0.11906671892E+03  0.00000000000E+00 0.  1.
<mgrwt>
<rscale>  2 0.11797279E+03</rscale>
<asrwt>0</asrwt>
<pdfrwt beam="1">  1       21 0.11139669E-01 0.11797279E+03</pdfrwt>
<pdfrwt beam="2">  1       21 0.11890650E+00 0.11797279E+03</pdfrwt>
<totfact> 0.37899116E+04</totfact>
</mgrwt>
</event>
<event>
 4    1  0.6052129E+003  0.1650362E+03  0.7546771E-02  0.1183125E+00
         21   -1    0    0  503  501  0.00000000000E+00  0.00000000000E+00  0.23901629217E+03  0.23901629217E+03  0.00000000000E+00 0. -1.
         21   -1    0    0  504  502 -0.00000000000E+00 -0.00000000000E+00 -0.11541808849E+03  0.11541808849E+03  0.00000000000E+00 0.  1.
         21    1    1    2  503  502  0.15604357951E+03 -0.53733960593E+02  0.81756606186E+02  0.18417676260E+03  0.00000000000E+00 0. -1.
         21    1    1    2  504  501 -0.15604357951E+03  0.53733960593E+02  0.41841597486E+02  0.17025761806E+03  0.00000000000E+00 0.  1.
<mgrwt>
<rscale>  2 0.16503617E+03</rscale>
<asrwt>0</asrwt>
<pdfrwt beam="1">  1       21 0.36771737E-01 0.16503617E+03</pdfrwt>
<pdfrwt beam="2">  1       21 0.17756629E-01 0.16503617E+03</pdfrwt>
<totfact> 0.20699199E+05</totfact>
</mgrwt>
</event>
<event>
 4    1  0.6052129E+003  0.1177534E+03  0.7546771E-02  0.1246850E+00
         21   -1    0    0  503  501  0.00000000000E+00  0.00000000000E+00  0.12056482547E+04  0.12056482547E+04  0.00000000000E+00 0.  1.
         21   -1    0    0  504  502 -0.00000000000E+00 -0.00000000000E+00 -0.17443071494E+02  0.17443071494E+02  0.00000000000E+00 0. -1.
         21    1    1    2  503  502  0.41842165741E+02 -0.11006862855E+03  0.23716264088E+03  0.26478668405E+03  0.00000000000E+00 0. -1.
         21    1    1    2  504  501 -0.41842165741E+02  0.11006862855E+03  0.95104254230E+03  0.95830464211E+03  0.00000000000E+00 0.  1.
<mgrwt>
<rscale>  2 0.11775343E+03</rscale>
<asrwt>0</asrwt>
<pdfrwt beam="1">  1       21 0.18548428E+00 0.11775343E+03</pdfrwt>
<pdfrwt beam="2">  1       21 0.26835504E-02 0.11775343E+03</pdfrwt>
<totfact> 0.13248429E+05</totfact>
</mgrwt>
</event>
<event>
 4    1  0.6052129E+003  0.1538156E+03  0.7546771E-02  0.1195861E+00
         21   -1    0    0  503  501  0.00000000000E+00  0.00000000000E+00  0.29071352734E+02  0.29071352734E+02  0.00000000000E+00 0.  1.
         21   -1    0    0  504  502 -0.00000000000E+00 -0.00000000000E+00 -0.11355246193E+04  0.11355246193E+04  0.00000000000E+00 0.  1.
         21    1    1    2  503  502  0.15349445002E+03 -0.99344272041E+01 -0.24329451367E+03  0.28783929442E+03  0.00000000000E+00 0.  1.
         21    1    1    2  504  501 -0.15349445002E+03  0.99344272041E+01 -0.86315875287E+03  0.87675667759E+03  0.00000000000E+00 0.  1.
<mgrwt>
<rscale>  2 0.15381560E+03</rscale>
<asrwt>0</asrwt>
<pdfrwt beam="1">  1       21 0.44725156E-02 0.15381560E+03</pdfrwt>
<pdfrwt beam="2">  1       21 0.17469611E+00 0.15381560E+03</pdfrwt>
<totfact> 0.65776886E+04</totfact>
</mgrwt>
</event>
<event>
 4    1  0.6052129E+003  0.1003983E+03  0.7546771E-02  0.1279461E+00
         21   -1    0    0  503  501  0.00000000000E+00  0.00000000000E+00  0.68080784158E+03  0.68080784158E+03  0.00000000000E+00 0.  1.
         21   -1    0    0  504  502 -0.00000000000E+00 -0.00000000000E+00 -0.16082058257E+02  0.16082058257E+02  0.00000000000E+00 0.  1.
         21    1    1    2  503  502 -0.80555211136E+02  0.59922248053E+02  0.23419841514E+03  0.25481113694E+03  0.00000000000E+00 0.  1.
         21    1    1    2  504  501  0.80555211136E+02 -0.59922248053E+02  0.43052736818E+03  0.44207876290E+03  0.00000000000E+00 0.  1.
<mgrwt>
<rscale>  2 0.10039830E+03</rscale>
<asrwt>0</asrwt>
<pdfrwt beam="1">  1       21 0.10473965E+00 0.10039830E+03</pdfrwt>
<pdfrwt beam="2">  1       21 0.24741633E-02 0.10039830E+03</pdfrwt>
<totfact> 0.64712027E+05</totfact>
</mgrwt>
</event>
<event>
 4    1  0.6052129E+003  0.1174188E+03  0.7546771E-02  0.1247417E+00
         21   -1    0    0  502  501  0.00000000000E+00  0.00000000000E+00  0.14305750504E+03  0.14305750504E+03  0.00000000000E+00 0.  1.
         21   -1    0    0  504  502 -0.00000000000E+00 -0.00000000000E+00 -0.55982343707E+03  0.55982343707E+03  0.00000000000E+00 0.  1.
         21    1    1    2  503  501  0.35769744841E+02  0.11183783279E+03  0.11137908250E+03  0.16184089565E+03  0.00000000000E+00 0.  1.
         21    1    1    2  504  503 -0.35769744841E+02 -0.11183783279E+03 -0.52814501453E+03  0.54104004645E+03  0.00000000000E+00 0.  1.
<mgrwt>
<rscale>  2 0.11741880E+03</rscale>
<asrwt>0</asrwt>
<pdfrwt beam="1">  1       21 0.22008847E-01 0.11741880E+03</pdfrwt>
<pdfrwt beam="2">  1       21 0.86126683E-01 0.11741880E+03</pdfrwt>
<totfact> 0.23566961E+04</totfact>
</mgrwt>
</event>
<event>
 4    1  0.6052129E+003  0.1010552E+03  0.7546771E-02  0.1278093E+00
         21   -1    0    0  503  501  0.00000000000E+00  0.00000000000E+00  0.27388302152E+02  0.27388302152E+02  0.00000000000E+00 0. -1.
         21   -1    0    0  504  502 -0.00000000000E+00 -0.00000000000E+00 -0.37408469843E+03  0.37408469843E+03  0.00000000000E+00 0. -1.
         21    1    1    2  503  502 -0.95026549590E+02  0.34381844271E+02 -0.16188893531E+03  0.19084072867E+03  0.00000000000E+00 0. -1.
         21    1    1    2  504  501  0.95026549590E+02 -0.34381844271E+02 -0.18480746097E+03  0.21063227191E+03  0.00000000000E+00 0. -1.
<mgrwt>
<rscale>  2 0.10105521E+03</rscale>
<asrwt>0</asrwt>
<pdfrwt beam="1">  1       21 0.42135848E-02 0.10105521E+03</pdfrwt>
<pdfrwt beam="2">  1       21 0.57551494E-01 0.10105521E+03</pdfrwt>
<totfact> 0.10175202E+06</totfact>
</mgrwt>
</event>
<event>
 4    1  0.6052129E+003  0.1030527E+03  0.7546771E-02  0.1274004E+00
         21   -1    0    0  502  501  0.00000000000E+00  0.00000000000E+00  0.53175151858E+03  0.53175151858E+03  0.00000000000E+00 0. -1.
         21   -1    0    0  504  502 -0.00000000000E+00 -0.00000000000E+00 -0.29017659998E+02  0.29017659998E+02  0.00000000000E+00 0.  1.
         21    1    1    2  503  501  0.56347893896E+02 -0.86283129836E+02  0.40791784479E+03  0.42073368268E+03  0.00000000000E+00 0. -1.
         21    1    1    2  504  503 -0.56347893896E+02  0.86283129836E+02  0.94816013789E+02  0.14003549590E+03  0.00000000000E+00 0.  1.
<mgrwt>
<rscale>  2 0.10305272E+03</rscale>
<asrwt>0</asrwt>
<pdfrwt beam="1">  1       21 0.81807919E-01 0.10305272E+03</pdfrwt>
<pdfrwt beam="2">  1       21 0.44642558E-02 0.10305272E+03</pdfrwt>
<totfact> 0.43269404E+05</totfact>
</mgrwt>
</event>
<event>
 4    1  0.6052129E+003  0.1004215E+03  0.7546771E-02  0.1279412E+00
         21   -1    0    0  504  501  0.00000000000E+00  0.00000000000E+00  0.44990431671E+02  0.44990431671E+02  0.00000000000E+00 0. -1.
         21   -1    0    0  501  502 -0.00000000000E+00 -0.00000000000E+00 -0.37832655166E+03  0.37832655166E+03  0.00000000000E+00 0. -1.
         21    1    1    2  503  502 -0.40842884391E+02  0.91740551352E+02 -0.30178683062E+03  0.31805622318E+03  0.00000000000E+00 0. -1.
         21    1    1    2  504  503  0.40842884391E+02 -0.91740551352E+02 -0.31549289368E+02  0.10526076015E+03  0.00000000000E+00 0. -1.
<mgrwt>
<rscale>  2 0.10042146E+03</rscale>
<asrwt>0</asrwt>
<pdfrwt beam="1">  1       21 0.69216051E-02 0.10042146E+03</pdfrwt>
<pdfrwt beam="2">  1       21 0.58204083E-01 0.10042146E+03</pdfrwt>
<totfact> 0.43249484E+05</totfact>
</mgrwt>
</event>
<event>
 4    1  0.6052129E+003  0.1069652E+03  0.7546771E-02  0.1266295E+00
         21   -1    0    0  503  501  0.00000000000E+00  0.00000000000E+00  0.53899085806E+02  0.53899085806E+02  0.00000000000E+00 0.  1.
         21   -1    0    0  501  502 -0.00000000000E+00 -0.00000000000E+00 -0.31952248777E+03  0.31952248777E+03  0.00000000000E+00 0.  1.
         21    1    1    2  503  504 -0.32164845809E+02  0.10201456729E+03 -0.24641479154E+02  0.10976680619E+03  0.00000000000E+00 0.  1.
         21    1    1    2  504  502  0.32164845809E+02 -0.10201456729E+03 -0.24098192281E+03  0.26365476739E+03  0.00000000000E+00 0.  1.
<mgrwt>
<rscale>  2 0.10696518E+03</rscale>
<asrwt>0</asrwt>
<pdfrwt beam="1">  1       21 0.82921668E-02 0.10696518E+03</pdfrwt>
<pdfrwt beam="2">  1       21 0.49157307E-01 0.10696518E+03</pdfrwt>
<totfact> 0.45042080E+05</totfact>
</mgrwt>
</event>
<event>
 4    1  0.6052129E+003  0.1242571E+03  0.7546771E-02  0.1236235E+00
         21   -1    0    0  502  501  0.00000000000E+00  0.00000000000E+00  0.32696758818E+03  0.32696758818E+03  0.00000000000E+00 0.  1.
         21   -1    0    0  503  502 -0.00000000000E+00 -0.00000000000E+00 -0.17769941716E+03  0.17769941716E+03  0.00000000000E+00 0.  1.
         21    1    1    2  503  504  0.12425709508E+03 -0.48139566186E-01 -0.14158836676E+03  0.18838018366E+03  0.00000000000E+00 0.  1.
         21    1    1    2  504  501 -0.12425709508E+03  0.48139566186E-01  0.29085653778E+03  0.31628682167E+03  0.00000000000E+00 0.  1.
<mgrwt>
<rscale>  2 0.12425710E+03</rscale>
<asrwt>0</asrwt>
<pdfrwt beam="1">  1       21 0.50302706E-01 0.12425710E+03</pdfrwt>
<pdfrwt beam="2">  1       21 0.27338372E-01 0.12425710E+03</pdfrwt>
<totfact> 0.49702399E+04</totfact>
</mgrwt>
</event>
<event>
 4    1  0.6052129E+003  0.1037916E+03  0.7546771E-02  0.1272519E+00
         21   -1    0    0  504  501  0.00000000000E+00  0.00000000000E+00  0.17870174200E+03  0.17870174200E+03  0.00000000000E+00 0.  1.
         21   -1    0    0  503  502 -0.00000000000E+00 -0.00000000000E+00 -0.73451693177E+02  0.73451693177E+02  0.00000000000E+00 0.  1.
         21    1    1    2  503  501  0.95680127688E+02 -0.40224575259E+02 -0.75796763660E+00  0.10379440160E+03  0.00000000000E+00 0.  1.
         21    1    1    2  504  502 -0.95680127688E+02  0.40224575259E+02  0.10600801646E+03  0.14835903357E+03  0.00000000000E+00 0.  1.
<mgrwt>
<rscale>  2 0.10379163E+03</rscale>
<asrwt>0</asrwt>
<pdfrwt beam="1">  1       21 0.27492576E-01 0.10379163E+03</pdfrwt>
<pdfrwt beam="2">  1       21 0.11300261E-01 0.10379163E+03</pdfrwt>
<totfact> 0.82585243E+05</totfact>
</mgrwt>
</event>
<event>
 4    1  0.6052129E+003  0.1541537E+03  0.7546771E-02  0.1195460E+00
         21   -1    0    0  502  501  0.00000000000E+00  0.00000000000E+00  0.17382523505E+03  0.17382523505E+03  0.00000000000E+00 0.  1.
         21   -1    0    0  503  502 -0.00000000000E+00 -0.00000000000E+00 -0.34542111489E+03  0.34542111489E+03  0.00000000000E+00 0.  1.
         21    1    1    2  503  504  0.91592245191E+01 -0.15388138173E+03 -0.28760830214E+03  0.32631565470E+03  0.00000000000E+00 0.  1.
         21    1    1    2  504  501 -0.91592245191E+01  0.15388138173E+03  0.11601242231E+03  0.19293069525E+03  0.00000000000E+00 0.  1.
<mgrwt>
<rscale>  2 0.15415373E+03</rscale>
<asrwt>0</asrwt>
<pdfrwt beam="1">  1       21 0.26742344E-01 0.15415373E+03</pdfrwt>
<pdfrwt beam="2">  1       21 0.53141709E-01 0.15415373E+03</pdfrwt>
<totfact> 0.45525175E+04</totfact>
</mgrwt>
</event>
<event>
 4    1  0.6052129E+003  0.1241995E+03  0.7546771E-02  0.1236326E+00
         21   -1    0    0  502  501  0.00000000000E+00  0.00000000000E+00  0.39731286692E+03  0.39731286692E+03  0.00000000000E+00 0.  1.
         21   -1    0    0  504  502 -0.00000000000E+00 -0.00000000000E+00 -0.24954229270E+03  0.24954229270E+03  0.00000000000E+00 0. -1.
         21    1    1    2  503  501 -0.80117344432E+01  0.12394080400E+03  0.37108985343E+03  0.39132236085E+03  0.00000000000E+00 0.  1.
         21    1    1    2  504  503  0.80117344432E+01 -0.12394080400E+03 -0.22331927921E+03  0.25553279877E+03  0.00000000000E+00 0. -1.
<mgrwt>
<rscale>  2 0.12419948E+03</rscale>
<asrwt>0</asrwt>
<pdfrwt beam="1">  1       21 0.61125057E-01 0.12419948E+03</pdfrwt>
<pdfrwt beam="2">  1       21 0.38391122E-01 0.12419948E+03</pdfrwt>
<totfact> 0.17075482E+04</totfact>
</mgrwt>
</event>
<event>
 4    1  0.6052129E+003  0.1245026E+03  0.7546771E-02  0.1235849E+00
         21   -1    0    0  503  501  0.00000000000E+00  0.00000000000E+00  0.38647467780E+02  0.38647467780E+02  0.00000000000E+00 0.  1.
         21   -1    0    0  501  502 -0.00000000000E+00 -0.00000000000E+00 -0.55145857056E+03  0.55145857056E+03  0.00000000000E+00 0.  1.
         21    1    1    2  503  504  0.15002679056E+02  0.12359536981E+03 -0.10233123028E+03  0.16116009589E+03  0.00000000000E+00 0.  1.
         21    1    1    2  504  502 -0.15002679056E+02 -0.12359536981E+03 -0.41047987250E+03  0.42894594245E+03  0.00000000000E+00 0.  1.
<mgrwt>
<rscale>  2 0.12450259E+03</rscale>
<asrwt>0</asrwt>
<pdfrwt beam="1">  1       21 0.59457649E-02 0.12450259E+03</pdfrwt>
<pdfrwt beam="2">  1       21 0.84839771E-01 0.12450259E+03</pdfrwt>
<totfact> 0.24552972E+05</totfact>
</mgrwt>
</event>
<event>
 4    1  0.6052129E+003  0.1386366E+03  0.7546771E-02  0.1215175E+00
         21   -1    0    0  504  501  0.00000000000E+00  0.00000000000E+00  0.24305559944E+03  0.24305559944E+03  0.00000000000E+00 0.  1.
         21   -1    0    0  501  502 -0.00000000000E+00 -0.00000000000E+00 -0.11653760439E+03  0.11653760439E+03  0.00000000000E+00 0.  1.
         21    1    1    2  503  502  0.31213434245E+02 -0.13507711958E+03 -0.38678941414E+02  0.14393111971E+03  0.00000000000E+00 0.  1.
         21    1    1    2  504  503 -0.31213434245E+02  0.13507711958E+03  0.16519693647E+03  0.21566208413E+03  0.00000000000E+00 0.  1.
<mgrwt>
<rscale>  2 0.13863660E+03</rscale>
<asrwt>0</asrwt>
<pdfrwt beam="1">  1       21 0.37393169E-01 0.13863660E+03</pdfrwt>
<pdfrwt beam="2">  1       21 0.17928862E-01 0.13863660E+03</pdfrwt>
<totfact> 0.19802401E+05</totfact>
</mgrwt>
</event>
<event>
 4    1  0.6052129E+003  0.1081866E+03  0.7546771E-02  0.1263965E+00
         21   -1    0    0  503  501  0.00000000000E+00  0.00000000000E+00  0.98985317614E+03  0.98985317614E+03  0.00000000000E+00 0. -1.
         21   -1    0    0  504  502 -0.00000000000E+00 -0.00000000000E+00 -0.18952672838E+03  0.18952672838E+03  0.00000000000E+00 0. -1.
         21    1    1    2  503  502  0.89854650561E+02  0.60253473913E+02 -0.17083552089E+03  0.20221056981E+03  0.00000000000E+00 0. -1.
         21    1    1    2  504  501 -0.89854650561E+02 -0.60253473913E+02  0.97116196865E+03  0.97716933471E+03  0.00000000000E+00 0. -1.
<mgrwt>
<rscale>  2 0.10818660E+03</rscale>
<asrwt>0</asrwt>
<pdfrwt beam="1">  1       21 0.15228510E+00 0.10818660E+03</pdfrwt>
<pdfrwt beam="2">  1       21 0.29157959E-01 0.10818660E+03</pdfrwt>
<totfact> 0.35514808E+03</totfact>
</mgrwt>
</event>
<event>
 4    1  0.6052129E+003  0.2124680E+03  0.7546771E-02  0.1139626E+00
         21   -1    0    0  504  501  0.00000000000E+00  0.00000000000E+00  0.26638808449E+03  0.26638808449E+03  0.00000000000E+00 0.  1.
         21   -1    0    0  503  502 -0.00000000000E+00 -0.00000000000E+00 -0.17734930240E+03  0.17734930240E+03  0.00000000000E+00 0.  1.
         21    1    1    2  503  501 -0.13342454202E+03 -0.16534979106E+03  0.91308534088E+02  0.23125723819E+03  0.00000000000E+00 0.  1.
         21    1    1    2  504  502  0.13342454202E+03  0.16534979106E+03 -0.22697520053E+01  0.21248014870E+03  0.00000000000E+00 0.  1.
<mgrwt>
<rscale>  2 0.21246803E+03</rscale>
<asrwt>0</asrwt>
<pdfrwt beam="1">  1       21 0.40982782E-01 0.21246803E+03</pdfrwt>
<pdfrwt beam="2">  1       21 0.27284508E-01 0.21246803E+03</pdfrwt>
<totfact> 0.72819694E+04</totfact>
</mgrwt>
</event>
<event>
 4    1  0.6052129E+003  0.1462278E+03  0.7546771E-02  0.1205186E+00
         21   -1    0    0  504  501  0.00000000000E+00  0.00000000000E+00  0.10409757299E+03  0.10409757299E+03  0.00000000000E+00 0.  1.
         21   -1    0    0  503  502 -0.00000000000E+00 -0.00000000000E+00 -0.20759446835E+03  0.20759446835E+03  0.00000000000E+00 0.  1.
         21    1    1    2  503  501 -0.13501948453E+03  0.56145361104E+02 -0.35757471611E+02  0.15053624000E+03  0.00000000000E+00 0.  1.
         21    1    1    2  504  502  0.13501948453E+03 -0.56145361104E+02 -0.67739423754E+02  0.16115580134E+03  0.00000000000E+00 0.  1.
<mgrwt>
<rscale>  2 0.14622778E+03</rscale>
<asrwt>0</asrwt>
<pdfrwt beam="1">  1       21 0.16015011E-01 0.14622778E+03</pdfrwt>
<pdfrwt beam="2">  1       21 0.31937610E-01 0.14622778E+03</pdfrwt>
<totfact> 0.33130119E+05</totfact>
</mgrwt>
</event>
<event>
 4    1  0.6052129E+003  0.1068227E+03  0.7546771E-02  0.1266569E+00
         21   -1    0    0  502  501  0.00000000000E+00  0.00000000000E+00  0.10282700416E+04  0.10282700416E+04  0.00000000000E+00 0.  1.
         21   -1    0    0  503  502 -0.00000000000E+00 -0.00000000000E+00 -0.38217648048E+02  0.38217648048E+02  0.00000000000E+00 0. -1.
         21    1    1    2  503  504  0.10621118280E+03  0.11413869841E+02  0.45824950922E+02  0.11623690423E+03  0.00000000000E+00 0. -1.
         21    1    1    2  504  501 -0.10621118280E+03 -0.11413869841E+02  0.94422744259E+03  0.95025078538E+03  0.00000000000E+00 0.  1.
<mgrwt>
<rscale>  2 0.10682271E+03</rscale>
<asrwt>0</asrwt>
<pdfrwt beam="1">  1       21 0.15819537E+00 0.10682271E+03</pdfrwt>
<pdfrwt beam="2">  1       21 0.58796389E-02 0.10682271E+03</pdfrwt>
<totfact> 0.55968961E+04</totfact>
</mgrwt>
</event>
<event>
 4    1  0.6052129E+003  0.1176366E+03  0.7546771E-02  0.1247048E+00
         21   -1    0    0  503  501  0.00000000000E+00  0.00000000000E+00  0.16448569529E+03  0.16448569529E+03  0.00000000000E+00 0.  1.
         21   -1    0    0  504  502 -0.00000000000E+00 -0.00000000000E+00 -0.93929287866E+02  0.93929287866E+02  0.00000000000E+00 0. -1.
         21    1    1    2  503  502 -0.20604996203E+02 -0.11581794258E+03 -0.64529284870E+01  0.11781342019E+03  0.00000000000E+00 0. -1.
         21    1    1    2  504  501  0.20604996203E+02  0.11581794258E+03  0.77009335909E+02  0.14060156296E+03  0.00000000000E+00 0.  1.
<mgrwt>
<rscale>  2 0.11763657E+03</rscale>
<asrwt>0</asrwt>
<pdfrwt beam="1">  1       21 0.25305492E-01 0.11763657E+03</pdfrwt>
<pdfrwt beam="2">  1       21 0.14450660E-01 0.11763657E+03</pdfrwt>
<totfact> 0.62500936E+05</totfact>
</mgrwt>
</event>
<event>
 4    1  0.6052129E+003  0.1026870E+03  0.7546771E-02  0.1274745E+00
         21   -1    0    0  504  501  0.00000000000E+00  0.00000000000E+00  0.45957195391E+02  0.45957195391E+02  0.00000000000E+00 0. -1.
         21   -1    0    0  503  502 -0.00000000000E+00 -0.00000000000E+00 -0.38720716123E+03  0.38720716123E+03  0.00000000000E+00 0. -1.
         21    1    1    2  503  501  0.10267279013E+03 -0.17062807713E+01 -0.32378684157E+02  0.10767075933E+03  0.00000000000E+00 0. -1.
         21    1    1    2  504  502 -0.10267279013E+03  0.17062807713E+01 -0.30887128169E+03  0.32549359729E+03  0.00000000000E+00 0. -1.
<mgrwt>
<rscale>  2 0.10268697E+03</rscale>
<asrwt>0</asrwt>
<pdfrwt beam="1">  1       21 0.70703381E-02 0.10268697E+03</pdfrwt>
<pdfrwt beam="2">  1       21 0.59570330E-01 0.10268697E+03</pdfrwt>
<totfact> 0.39717721E+05</totfact>
</mgrwt>
</event>
<event>
 4    1  0.6052129E+003  0.1627466E+03  0.7546771E-02  0.1185630E+00
         21   -1    0    0  503  501  0.00000000000E+00  0.00000000000E+00  0.14103414845E+04  0.14103414845E+04  0.00000000000E+00 0. -1.
         21   -1    0    0  504  502 -0.00000000000E+00 -0.00000000000E+00 -0.71471440054E+02  0.71471440054E+02  0.00000000000E+00 0. -1.
         21    1    1    2  503  502  0.59420707832E+02 -0.15151112919E+03  0.13055951993E+04  0.13156995353E+04  0.00000000000E+00 0. -1.
         21    1    1    2  504  501 -0.59420707832E+02  0.15151112919E+03  0.33274845235E+02  0.16611338933E+03  0.00000000000E+00 0. -1.
<mgrwt>
<rscale>  2 0.16274656E+03</rscale>
<asrwt>0</asrwt>
<pdfrwt beam="1">  1       21 0.21697559E+00 0.16274656E+03</pdfrwt>
<pdfrwt beam="2">  1       21 0.10995607E-01 0.16274656E+03</pdfrwt>
<totfact> 0.74144991E+03</totfact>
</mgrwt>
</event>
<event>
 4    1  0.6052129E+003  0.1035865E+03  0.7546771E-02  0.1272930E+00
         21   -1    0    0  502  501  0.00000000000E+00  0.00000000000E+00  0.74376386880E+02  0.74376386880E+02  0.00000000000E+00 0. -1.
         21   -1    0    0  504  502 -0.00000000000E+00 -0.00000000000E+00 -0.22396357890E+03  0.22396357890E+03  0.00000000000E+00 0. -1.
         21    1    1    2  503  501 -0.72339618960E+01 -0.10333362109E+03  0.14189718354E+02  0.10455388830E+03  0.00000000000E+00 0. -1.
         21    1    1    2  504  503  0.72339618960E+01  0.10333362109E+03 -0.16377691038E+03  0.19378607748E+03  0.00000000000E+00 0. -1.
<mgrwt>
<rscale>  2 0.10358652E+03</rscale>
<asrwt>0</asrwt>
<pdfrwt beam="1">  1       21 0.11442521E-01 0.10358652E+03</pdfrwt>
<pdfrwt beam="2">  1       21 0.34455934E-01 0.10358652E+03</pdfrwt>
<totfact> 0.52335945E+05</totfact>
</mgrwt>
</event>
<event>
 4    1  0.6052129E+003  0.1132473E+03  0.7546771E-02  0.1254672E+00
         21   -1    0    0  504  501  0.00000000000E+00  0.00000000000E+00  0.16034520591E+02  0.16034520591E+02  0.00000000000E+00 0.  1.
         21   -1    0    0  503  502 -0.00000000000E+00 -0.00000000000E+00 -0.26151305608E+04  0.26151305608E+04  0.00000000000E+00 0. -1.
         21    1    1    2  503  501  0.95176826602E+02 -0.61370449263E+02 -0.23956353656E+04  0.23983106065E+04  0.00000000000E+00 0. -1.
         21    1    1    2  504  502 -0.95176826602E+02  0.61370449263E+02 -0.20346067466E+03  0.23285447494E+03  0.00000000000E+00 0.  1.
<mgrwt>
<rscale>  2 0.11324734E+03</rscale>
<asrwt>0</asrwt>
<pdfrwt beam="1">  1       21 0.24668501E-02 0.11324734E+03</pdfrwt>
<pdfrwt beam="2">  1       21 0.40232765E+00 0.11324734E+03</pdfrwt>
<totfact> 0.84012525E+03</totfact>
</mgrwt>
</event>
<event>
 4    1  0.6052129E+003  0.1011222E+03  0.7546771E-02  0.1277954E+00
         21   -1    0    0  502  501  0.00000000000E+00  0.00000000000E+00  0.48316348600E+03  0.48316348600E+03  0.00000000000E+00 0.  1.
         21   -1    0    0  504  502 -0.00000000000E+00 -0.00000000000E+00 -0.30947074010E+03  0.30947074010E+03  0.00000000000E+00 0.  1.
         21    1    1    2  503  501 -0.32964234658E+02  0.95598409558E+02  0.46937187007E+03  0.48014128035E+03  0.00000000000E+00 0.  1.
         21    1    1    2  504  503  0.32964234658E+02 -0.95598409558E+02 -0.29567912417E+03  0.31249294576E+03  0.00000000000E+00 0.  1.
<mgrwt>
<rscale>  2 0.10112219E+03</rscale>
<asrwt>0</asrwt>
<pdfrwt beam="1">  1       21 0.74332844E-01 0.10112219E+03</pdfrwt>
<pdfrwt beam="2">  1       21 0.47610883E-01 0.10112219E+03</pdfrwt>
<totfact> 0.74349542E+03</totfact>
</mgrwt>
</event>
<event>
 4    1  0.6052129E+003  0.1167659E+03  0.7546771E-02  0.1248530E+00
         21   -1    0    0  503  501  0.00000000000E+00  0.00000000000E+00  0.96915633004E+02  0.96915633004E+02  0.00000000000E+00 0.  1.
         21   -1    0    0  501  502 -0.00000000000E+00 -0.00000000000E+00 -0.26581619832E+03  0.26581619832E+03  0.00000000000E+00 0.  1.
         21    1    1    2  503  504  0.84652982705E+02 -0.80424788598E+02  0.39987755634E+02  0.12342323405E+03  0.00000000000E+00 0.  1.
         21    1    1    2  504  502 -0.84652982705E+02  0.80424788598E+02 -0.20888832095E+03  0.23930859728E+03  0.00000000000E+00 0.  1.
<mgrwt>
<rscale>  2 0.11676589E+03</rscale>
<asrwt>0</asrwt>
<pdfrwt beam="1">  1       21 0.14910098E-01 0.11676589E+03</pdfrwt>
<pdfrwt beam="2">  1       21 0.40894799E-01 0.11676589E+03</pdfrwt>
<totfact> 0.23280396E+05</totfact>
</mgrwt>
</event>
<event>
 4    1  0.6052129E+003  0.1032525E+03  0.7546771E-02  0.1273601E+00
         21   -1    0    0  503  501  0.00000000000E+00  0.00000000000E+00  0.73388489978E+02  0.73388489978E+02  0.00000000000E+00 0. -1.
         21   -1    0    0  504  502 -0.00000000000E+00 -0.00000000000E+00 -0.47301494311E+03  0.47301494311E+03  0.00000000000E+00 0. -1.
         21    1    1    2  503  502 -0.58344340582E+02  0.85188164088E+02 -0.42722583511E+03  0.43952588042E+03  0.00000000000E+00 0. -1.
         21    1    1    2  504  501  0.58344340582E+02 -0.85188164088E+02  0.27599381973E+02  0.10687755267E+03  0.00000000000E+00 0. -1.
<mgrwt>
<rscale>  2 0.10325253E+03</rscale>
<asrwt>0</asrwt>
<pdfrwt beam="1">  1       21 0.11290537E-01 0.10325253E+03</pdfrwt>
<pdfrwt beam="2">  1       21 0.72771530E-01 0.10325253E+03</pdfrwt>
<totfact> 0.11524446E+05</totfact>
</mgrwt>
</event>
<event>
 4    1  0.6052129E+003  0.1148437E+03  0.7546771E-02  0.1251854E+00
         21   -1    0    0  504  501  0.00000000000E+00  0.00000000000E+00  0.23971978598E+03  0.23971978598E+03  0.00000000000E+00 0.  1.
         21   -1    0    0  501  502 -0.00000000000E+00 -0.00000000000E+00 -0.74179803145E+02  0.74179803145E+02  0.00000000000E+00 0.  1.
         21    1    1    2  503  502 -0.56636283331E+01 -0.11470400792E+03  0.30022211624E+01  0.11488298156E+03  0.00000000000E+00 0.  1.
         21    1    1    2  504  503  0.56636283331E+01  0.11470400792E+03  0.16253776168E+03  0.19901660757E+03  0.00000000000E+00 0.  1.
<mgrwt>
<rscale>  2 0.11484375E+03</rscale>
<asrwt>0</asrwt>
<pdfrwt beam="1">  1       21 0.36879967E-01 0.11484375E+03</pdfrwt>
<pdfrwt beam="2">  1       21 0.11412278E-01 0.11484375E+03</pdfrwt>
<totfact> 0.45989988E+05</totfact>
</mgrwt>
</event>
<event>
 4    1  0.6052129E+003  0.1155030E+03  0.7546771E-02  0.1250706E+00
         21   -1    0    0  504  501  0.00000000000E+00  0.00000000000E+00  0.72646067383E+02  0.72646067383E+02  0.00000000000E+00 0.  1.
         21   -1    0    0  503  502 -0.00000000000E+00 -0.00000000000E+00 -0.23091719794E+03  0.23091719794E+03  0.00000000000E+00 0.  1.
         21    1    1    2  503  501  0.39124761073E+02 -0.10867467682E+03 -0.14781137081E+03  0.18758766925E+03  0.00000000000E+00 0.  1.
         21    1    1    2  504  502 -0.39124761073E+02  0.10867467682E+03 -0.10459759742E+02  0.11597559608E+03  0.00000000000E+00 0.  1.
<mgrwt>
<rscale>  2 0.11550295E+03</rscale>
<asrwt>0</asrwt>
<pdfrwt beam="1">  1       21 0.11176318E-01 0.11550295E+03</pdfrwt>
<pdfrwt beam="2">  1       21 0.35525723E-01 0.11550295E+03</pdfrwt>
<totfact> 0.51350771E+05</totfact>
</mgrwt>
</event>
<event>
 4    1  0.6052129E+003  0.1741277E+03  0.7546771E-02  0.1173610E+00
         21   -1    0    0  502  501  0.00000000000E+00  0.00000000000E+00  0.53663976251E+02  0.53663976251E+02  0.00000000000E+00 0.  1.
         21   -1    0    0  503  502 -0.00000000000E+00 -0.00000000000E+00 -0.96400441504E+03  0.96400441504E+03  0.00000000000E+00 0. -1.
         21    1    1    2  503  504  0.17324122831E+03  0.17547617003E+02 -0.78252797358E+03  0.80166730724E+03  0.00000000000E+00 0. -1.
         21    1    1    2  504  501 -0.17324122831E+03 -0.17547617003E+02 -0.12781246520E+03  0.21600108405E+03  0.00000000000E+00 0.  1.
<mgrwt>
<rscale>  2 0.17412766E+03</rscale>
<asrwt>0</asrwt>
<pdfrwt beam="1">  1       21 0.82559966E-02 0.17412766E+03</pdfrwt>
<pdfrwt beam="2">  1       21 0.14830837E+00 0.17412766E+03</pdfrwt>
<totfact> 0.35378255E+04</totfact>
</mgrwt>
</event>
<event>
 4    1  0.6052129E+003  0.1264392E+03  0.7546771E-02  0.1232837E+00
         21   -1    0    0  503  501  0.00000000000E+00  0.00000000000E+00  0.21140859553E+03  0.21140859553E+03  0.00000000000E+00 0. -1.
         21   -1    0    0  504  502 -0.00000000000E+00 -0.00000000000E+00 -0.12068182232E+03  0.12068182232E+03  0.00000000000E+00 0.  1.
         21    1    1    2  503  502 -0.71685167596E+02  0.10415427835E+03 -0.56099256453E+02  0.13832571534E+03  0.00000000000E+00 0.  1.
         21    1    1    2  504  501  0.71685167596E+02 -0.10415427835E+03  0.14682602966E+03  0.19376470251E+03  0.00000000000E+00 0. -1.
<mgrwt>
<rscale>  2 0.12643922E+03</rscale>
<asrwt>0</asrwt>
<pdfrwt beam="1">  1       21 0.32524399E-01 0.12643922E+03</pdfrwt>
<pdfrwt beam="2">  1       21 0.18566434E-01 0.12643922E+03</pdfrwt>
<totfact> 0.24502417E+05</totfact>
</mgrwt>
</event>
<event>
 4    1  0.6052129E+003  0.1095977E+03  0.7546771E-02  0.1261317E+00
         21   -1    0    0  504  501  0.00000000000E+00  0.00000000000E+00  0.23679981113E+03  0.23679981113E+03  0.00000000000E+00 0.  1.
         21   -1    0    0  503  502 -0.00000000000E+00 -0.00000000000E+00 -0.91121586849E+02  0.91121586849E+02  0.00000000000E+00 0.  1.
         21    1    1    2  503  501 -0.81960893283E+02 -0.72760287979E+02  0.18200877769E+03  0.21245903768E+03  0.00000000000E+00 0.  1.
         21    1    1    2  504  502  0.81960893283E+02  0.72760287979E+02 -0.36330553412E+02  0.11546236030E+03  0.00000000000E+00 0.  1.
<mgrwt>
<rscale>  2 0.10959766E+03</rscale>
<asrwt>0</asrwt>
<pdfrwt beam="1">  1       21 0.36430740E-01 0.10959766E+03</pdfrwt>
<pdfrwt beam="2">  1       21 0.14018706E-01 0.10959766E+03</pdfrwt>
<totfact> 0.32742953E+05</totfact>
</mgrwt>
</event>
<event>
 4    1  0.6052129E+003  0.1098045E+03  0.7546771E-02  0.1260932E+00
         21   -1    0    0  502  501  0.00000000000E+00  0.00000000000E+00  0.20529722036E+03  0.20529722036E+03  0.00000000000E+00 0.  1.
         21   -1    0    0  503  502 -0.00000000000E+00 -0.00000000000E+00 -0.68913589497E+02  0.68913589497E+02  0.00000000000E+00 0. -1.
         21    1    1    2  503  504 -0.65448210392E+02 -0.88167764708E+02  0.15485679295E+02  0.11089106925E+03  0.00000000000E+00 0. -1.
         21    1    1    2  504  501  0.65448210392E+02  0.88167764708E+02  0.12089795156E+03  0.16331974060E+03  0.00000000000E+00 0.  1.
<mgrwt>
<rscale>  2 0.10980448E+03</rscale>
<asrwt>0</asrwt>
<pdfrwt beam="1">  1       21 0.31584188E-01 0.10980448E+03</pdfrwt>
<pdfrwt beam="2">  1       21 0.10602091E-01 0.10980448E+03</pdfrwt>
<totfact> 0.70829277E+05</totfact>
</mgrwt>
</event>
<event>
 4    1  0.6052129E+003  0.1040635E+03  0.7546771E-02  0.1271976E+00
         21   -1    0    0  504  501  0.00000000000E+00  0.00000000000E+00  0.88751394955E+02  0.88751394955E+02  0.00000000000E+00 0.  1.
         21   -1    0    0  503  502 -0.00000000000E+00 -0.00000000000E+00 -0.12687761740E+03  0.12687761740E+03  0.00000000000E+00 0.  1.
         21    1    1    2  503  501  0.17090990086E+02  0.10265041784E+03 -0.40164676400E+02  0.11154555776E+03  0.00000000000E+00 0.  1.
         21    1    1    2  504  502 -0.17090990086E+02 -0.10265041784E+03  0.20384539574E+01  0.10408345459E+03  0.00000000000E+00 0.  1.
<mgrwt>
<rscale>  2 0.10406349E+03</rscale>
<asrwt>0</asrwt>
<pdfrwt beam="1">  1       21 0.13654061E-01 0.10406349E+03</pdfrwt>
<pdfrwt beam="2">  1       21 0.19519633E-01 0.10406349E+03</pdfrwt>
<totfact> 0.11198490E+06</totfact>
</mgrwt>
</event>
<event>
 4    1  0.6052129E+003  0.2386852E+03  0.7546771E-02  0.1120672E+00
         21   -1    0    0  504  501  0.00000000000E+00  0.00000000000E+00  0.10859456988E+04  0.10859456988E+04  0.00000000000E+00 0.  1.
         21   -1    0    0  503  502 -0.00000000000E+00 -0.00000000000E+00 -0.64992242068E+02  0.64992242068E+02  0.00000000000E+00 0.  1.
         21    1    1    2  503  501  0.88765412192E+02 -0.22156558240E+03  0.25779414334E+03  0.35132381935E+03  0.00000000000E+00 0.  1.
         21    1    1    2  504  502 -0.88765412192E+02  0.22156558240E+03  0.76315931341E+03  0.79961412153E+03  0.00000000000E+00 0.  1.
<mgrwt>
<rscale>  2 0.23868516E+03</rscale>
<asrwt>0</asrwt>
<pdfrwt beam="1">  1       21 0.16706856E+00 0.23868516E+03</pdfrwt>
<pdfrwt beam="2">  1       21 0.99988073E-02 0.23868516E+03</pdfrwt>
<totfact> 0.17617666E+04</totfact>
</mgrwt>
</event>
<event>
 4    1  0.6052129E+003  0.1042388E+03  0.7546771E-02  0.1271627E+00
         21   -1    0    0  502  501  0.00000000000E+00  0.00000000000E+00  0.26530565348E+02  0.26530565348E+02  0.00000000000E+00 0. -1.
         21   -1    0    0  504  502 -0.00000000000E+00 -0.00000000000E+00 -0.10689781703E+04  0.10689781703E+04  0.00000000000E+00 0. -1.
         21    1    1    2  503  501 -0.84288029756E+02 -0.61329040154E+02 -0.91010767995E+02  0.13837876650E+03  0.00000000000E+00 0. -1.
         21    1    1    2  504  503  0.84288029756E+02  0.61329040154E+02 -0.95143683700E+03  0.95712996919E+03  0.00000000000E+00 0. -1.
<mgrwt>
<rscale>  2 0.10423878E+03</rscale>
<asrwt>0</asrwt>
<pdfrwt beam="1">  1       21 0.40816257E-02 0.10423878E+03</pdfrwt>
<pdfrwt beam="2">  1       21 0.16445817E+00 0.10423878E+03</pdfrwt>
<totfact> 0.93124881E+04</totfact>
</mgrwt>
</event>
<event>
 4    1  0.6052129E+003  0.1122269E+03  0.7546771E-02  0.1256501E+00
         21   -1    0    0  504  501  0.00000000000E+00  0.00000000000E+00  0.57568707458E+02  0.57568707458E+02  0.00000000000E+00 0. -1.
         21   -1    0    0  501  502 -0.00000000000E+00 -0.00000000000E+00 -0.29002309555E+03  0.29002309555E+03  0.00000000000E+00 0. -1.
         21    1    1    2  503  502  0.39299182457E+02  0.10512116460E+03 -0.20236513014E+03  0.23140123354E+03  0.00000000000E+00 0. -1.
         21    1    1    2  504  503 -0.39299182457E+02 -0.10512116460E+03 -0.30089257957E+02  0.11619056947E+03  0.00000000000E+00 0. -1.
<mgrwt>
<rscale>  2 0.11222694E+03</rscale>
<asrwt>0</asrwt>
<pdfrwt beam="1">  1       21 0.88567243E-02 0.11222694E+03</pdfrwt>
<pdfrwt beam="2">  1       21 0.44618937E-01 0.11222694E+03</pdfrwt>
<totfact> 0.48943472E+05</totfact>
</mgrwt>
</event>
<event>
 4    1  0.6052129E+003  0.1793002E+03  0.7546771E-02  0.1168482E+00
         21   -1    0    0  504  501  0.00000000000E+00  0.00000000000E+00  0.92487048250E+02  0.92487048250E+02  0.00000000000E+00 0. -1.
         21   -1    0    0  503  502 -0.00000000000E+00 -0.00000000000E+00 -0.12496454254E+04  0.12496454254E+04  0.00000000000E+00 0. -1.
         21    1    1    2  503  501  0.15426200912E+02 -0.17863534075E+03 -0.84332317517E+01  0.17949839007E+03  0.00000000000E+00 0. -1.
         21    1    1    2  504  502 -0.15426200912E+02  0.17863534075E+03 -0.11487251454E+04  0.11626340836E+04  0.00000000000E+00 0. -1.
<mgrwt>
<rscale>  2 0.17930017E+03</rscale>
<asrwt>0</asrwt>
<pdfrwt beam="1">  1       21 0.14228777E-01 0.17930017E+03</pdfrwt>
<pdfrwt beam="2">  1       21 0.19225313E+00 0.17930017E+03</pdfrwt>
<totfact> 0.65873199E+03</totfact>
</mgrwt>
</event>
<event>
 4    1  0.6052129E+003  0.1379334E+03  0.7546771E-02  0.1216137E+00
         21   -1    0    0  504  501  0.00000000000E+00  0.00000000000E+00  0.18292664988E+03  0.18292664988E+03  0.00000000000E+00 0.  1.
         21   -1    0    0  503  502 -0.00000000000E+00 -0.00000000000E+00 -0.10403585222E+03  0.10403585222E+03  0.00000000000E+00 0.  1.
         21    1    1    2  503  501 -0.73329862706E+02 -0.11682611998E+03  0.37046711858E+02  0.14282181183E+03  0.00000000000E+00 0.  1.
         21    1    1    2  504  502  0.73329862706E+02  0.11682611998E+03  0.41844085806E+02  0.14414069027E+03  0.00000000000E+00 0.  1.
<mgrwt>
<rscale>  2 0.13793336E+03</rscale>
<asrwt>0</asrwt>
<pdfrwt beam="1">  1       21 0.28142562E-01 0.13793336E+03</pdfrwt>
<pdfrwt beam="2">  1       21 0.16005516E-01 0.13793336E+03</pdfrwt>
<totfact> 0.42406593E+05</totfact>
</mgrwt>
</event>
<event>
 4    1  0.6052129E+003  0.1069615E+03  0.7546771E-02  0.1266302E+00
         21   -1    0    0  504  501  0.00000000000E+00  0.00000000000E+00  0.14913974765E+03  0.14913974765E+03  0.00000000000E+00 0.  1.
         21   -1    0    0  501  502 -0.00000000000E+00 -0.00000000000E+00 -0.13777096512E+03  0.13777096512E+03  0.00000000000E+00 0.  1.
         21    1    1    2  503  502  0.93853877838E+02 -0.51305073214E+02 -0.89817894951E+02  0.13967109642E+03  0.00000000000E+00 0.  1.
         21    1    1    2  504  503 -0.93853877838E+02  0.51305073214E+02  0.10118667748E+03  0.14723961635E+03  0.00000000000E+00 0.  1.
<mgrwt>
<rscale>  2 0.10696149E+03</rscale>
<asrwt>0</asrwt>
<pdfrwt beam="1">  1       21 0.22944577E-01 0.10696149E+03</pdfrwt>
<pdfrwt beam="2">  1       21 0.21195533E-01 0.10696149E+03</pdfrwt>
<totfact> 0.37428258E+05</totfact>
</mgrwt>
</event>
<event>
 4    1  0.6052129E+003  0.1332418E+03  0.7546771E-02  0.1222723E+00
         21   -1    0    0  504  501  0.00000000000E+00  0.00000000000E+00  0.14857234508E+03  0.14857234508E+03  0.00000000000E+00 0. -1.
         21   -1    0    0  501  502 -0.00000000000E+00 -0.00000000000E+00 -0.18228427774E+03  0.18228427774E+03  0.00000000000E+00 0.  1.
         21    1    1    2  503  502  0.13148847493E+03 -0.21544256252E+02 -0.11394819138E+03  0.17532131741E+03  0.00000000000E+00 0.  1.
         21    1    1    2  504  503 -0.13148847493E+03  0.21544256252E+02  0.80236258717E+02  0.15553530541E+03  0.00000000000E+00 0. -1.
<mgrwt>
<rscale>  2 0.13324179E+03</rscale>
<asrwt>0</asrwt>
<pdfrwt beam="1">  1       21 0.22857284E-01 0.13324179E+03</pdfrwt>
<pdfrwt beam="2">  1       21 0.28043735E-01 0.13324179E+03</pdfrwt>
<totfact> 0.22150588E+05</totfact>
</mgrwt>
</event>
<event>
 4    1  0.6052129E+003  0.1107503E+03  0.7546771E-02  0.1259187E+00
         21   -1    0    0  503  501  0.00000000000E+00  0.00000000000E+00  0.15944080456E+02  0.15944080456E+02  0.00000000000E+00 0.  1.
         21   -1    0    0  504  502 -0.00000000000E+00 -0.00000000000E+00 -0.14768753691E+04  0.14768753691E+04  0.00000000000E+00 0.  1.
         21    1    1    2  503  502 -0.11074791329E+03  0.72327111946E+00 -0.12471136455E+04  0.12520215926E+04  0.00000000000E+00 0.  1.
         21    1    1    2  504  501  0.11074791329E+03 -0.72327111946E+00 -0.21381764315E+03  0.24079785701E+03  0.00000000000E+00 0.  1.
<mgrwt>
<rscale>  2 0.11075028E+03</rscale>
<asrwt>0</asrwt>
<pdfrwt beam="1">  1       21 0.24529352E-02 0.11075028E+03</pdfrwt>
<pdfrwt beam="2">  1       21 0.22721162E+00 0.11075028E+03</pdfrwt>
<totfact> 0.85293470E+04</totfact>
</mgrwt>
</event>
<event>
 4    1  0.6052129E+003  0.1118861E+03  0.7546771E-02  0.1257116E+00
         21   -1    0    0  503  501  0.00000000000E+00  0.00000000000E+00  0.19920390987E+02  0.19920390987E+02  0.00000000000E+00 0. -1.
         21   -1    0    0  504  502 -0.00000000000E+00 -0.00000000000E+00 -0.69497319166E+03  0.69497319166E+03  0.00000000000E+00 0.  1.
         21    1    1    2  503  502 -0.99569490164E+02 -0.51033439499E+02 -0.44813569894E+03  0.46189187044E+03  0.00000000000E+00 0.  1.
         21    1    1    2  504  501  0.99569490164E+02  0.51033439499E+02 -0.22691710173E+03  0.25300171220E+03  0.00000000000E+00 0. -1.
<mgrwt>
<rscale>  2 0.11188608E+03</rscale>
<asrwt>0</asrwt>
<pdfrwt beam="1">  1       21 0.30646760E-02 0.11188608E+03</pdfrwt>
<pdfrwt beam="2">  1       21 0.10691894E+00 0.11188608E+03</pdfrwt>
<totfact> 0.43456828E+05</totfact>
</mgrwt>
</event>
<event>
 4    1  0.6052129E+003  0.1026925E+03  0.7546771E-02  0.1274734E+00
         21   -1    0    0  502  501  0.00000000000E+00  0.00000000000E+00  0.67895415359E+02  0.67895415359E+02  0.00000000000E+00 0.  1.
         21   -1    0    0  503  502 -0.00000000000E+00 -0.00000000000E+00 -0.38455449509E+03  0.38455449509E+03  0.00000000000E+00 0.  1.
         21    1    1    2  503  504 -0.99596279571E+02  0.25026524589E+02 -0.33299150504E+03  0.34846676781E+03  0.00000000000E+00 0.  1.
         21    1    1    2  504  501  0.99596279571E+02 -0.25026524589E+02  0.16332425308E+02  0.10398314264E+03  0.00000000000E+00 0.  1.
<mgrwt>
<rscale>  2 0.10269248E+03</rscale>
<asrwt>0</asrwt>
<pdfrwt beam="1">  1       21 0.10445448E-01 0.10269248E+03</pdfrwt>
<pdfrwt beam="2">  1       21 0.59162231E-01 0.10269248E+03</pdfrwt>
<totfact> 0.20578233E+05</totfact>
</mgrwt>
</event>
<event>
 4    1  0.6052129E+003  0.1378260E+03  0.7546771E-02  0.1216284E+00
         21   -1    0    0  503  501  0.00000000000E+00  0.00000000000E+00  0.38487292212E+03  0.38487292212E+03  0.00000000000E+00 0. -1.
         21   -1    0    0  501  502 -0.00000000000E+00 -0.00000000000E+00 -0.70884028904E+02  0.70884028904E+02  0.00000000000E+00 0. -1.
         21    1    1    2  503  504 -0.54240430578E+02 -0.12670435322E+03  0.28257581985E+03  0.31439642396E+03  0.00000000000E+00 0. -1.
         21    1    1    2  504  502  0.54240430578E+02  0.12670435322E+03  0.31413073365E+02  0.14136052707E+03  0.00000000000E+00 0. -1.
<mgrwt>
<rscale>  2 0.13782604E+03</rscale>
<asrwt>0</asrwt>
<pdfrwt beam="1">  1       21 0.59211218E-01 0.13782604E+03</pdfrwt>
<pdfrwt beam="2">  1       21 0.10905235E-01 0.13782604E+03</pdfrwt>
<totfact> 0.18855025E+05</totfact>
</mgrwt>
</event>
<event>
 4    1  0.6052129E+003  0.1243359E+03  0.7546771E-02  0.1236111E+00
         21   -1    0    0  502  501  0.00000000000E+00  0.00000000000E+00  0.60589339671E+03  0.60589339671E+03  0.00000000000E+00 0. -1.
         21   -1    0    0  504  502 -0.00000000000E+00 -0.00000000000E+00 -0.42307578323E+02  0.42307578323E+02  0.00000000000E+00 0. -1.
         21    1    1    2  503  501  0.11193977299E+03 -0.54119361794E+02  0.48597999268E+03  0.50163330370E+03  0.00000000000E+00 0. -1.
         21    1    1    2  504  503 -0.11193977299E+03  0.54119361794E+02  0.77605825713E+02  0.14656767134E+03  0.00000000000E+00 0. -1.
<mgrwt>
<rscale>  2 0.12433591E+03</rscale>
<asrwt>0</asrwt>
<pdfrwt beam="1">  1       21 0.93214363E-01 0.12433591E+03</pdfrwt>
<pdfrwt beam="2">  1       21 0.65088586E-02 0.12433591E+03</pdfrwt>
<totfact> 0.16992585E+05</totfact>
</mgrwt>
</event>
<event>
 4    1  0.6052129E+003  0.1502147E+03  0.7546771E-02  0.1200209E+00
         21   -1    0    0  502  501  0.00000000000E+00  0.00000000000E+00  0.94081707684E+03  0.94081707684E+03  0.00000000000E+00 0.  1.
         21   -1    0    0  503  502 -0.00000000000E+00 -0.00000000000E+00 -0.30258303625E+03  0.30258303625E+03  0.00000000000E+00 0.  1.
         21    1    1    2  503  504  0.14959665827E+03  0.13612421216E+02 -0.27743525323E+03  0.31549132779E+03  0.00000000000E+00 0.  1.
         21    1    1    2  504  501 -0.14959665827E+03 -0.13612421216E+02  0.91566929383E+03  0.92790878530E+03  0.00000000000E+00 0.  1.
<mgrwt>
<rscale>  2 0.15021471E+03</rscale>
<asrwt>0</asrwt>
<pdfrwt beam="1">  1       21 0.14474109E+00 0.15021471E+03</pdfrwt>
<pdfrwt beam="2">  1       21 0.46551237E-01 0.15021471E+03</pdfrwt>
<totfact> 0.15189214E+03</totfact>
</mgrwt>
</event>
<event>
 4    1  0.6052129E+003  0.1209725E+03  0.7546771E-02  0.1241501E+00
         21   -1    0    0  504  501  0.00000000000E+00  0.00000000000E+00  0.24238503223E+03  0.24238503223E+03  0.00000000000E+00 0.  1.
         21   -1    0    0  503  502 -0.00000000000E+00 -0.00000000000E+00 -0.19710443768E+03  0.19710443768E+03  0.00000000000E+00 0.  1.
         21    1    1    2  503  501 -0.62870340933E+02 -0.10335219684E+03 -0.16037986324E+03  0.20088817012E+03  0.00000000000E+00 0.  1.
         21    1    1    2  504  502  0.62870340933E+02  0.10335219684E+03  0.20566045779E+03  0.23860129979E+03  0.00000000000E+00 0.  1.
<mgrwt>
<rscale>  2 0.12097254E+03</rscale>
<asrwt>0</asrwt>
<pdfrwt beam="1">  1       21 0.37290005E-01 0.12097254E+03</pdfrwt>
<pdfrwt beam="2">  1       21 0.30323760E-01 0.12097254E+03</pdfrwt>
<totfact> 0.74689856E+04</totfact>
</mgrwt>
</event>
<event>
 4    1  0.6052129E+003  0.1337649E+03  0.7546771E-02  0.1221974E+00
         21   -1    0    0  504  501  0.00000000000E+00  0.00000000000E+00  0.55623179301E+03  0.55623179301E+03  0.00000000000E+00 0.  1.
         21   -1    0    0  503  502 -0.00000000000E+00 -0.00000000000E+00 -0.85031917427E+02  0.85031917427E+02  0.00000000000E+00 0.  1.
         21    1    1    2  503  501 -0.11635713262E+03  0.65985347661E+02  0.48840978939E+03  0.50639625866E+03  0.00000000000E+00 0.  1.
         21    1    1    2  504  502  0.11635713262E+03 -0.65985347661E+02 -0.17209913801E+02  0.13486745178E+03  0.00000000000E+00 0.  1.
<mgrwt>
<rscale>  2 0.13376490E+03</rscale>
<asrwt>0</asrwt>
<pdfrwt beam="1">  1       21 0.85574120E-01 0.13376490E+03</pdfrwt>
<pdfrwt beam="2">  1       21 0.13081834E-01 0.13376490E+03</pdfrwt>
<totfact> 0.61018002E+04</totfact>
</mgrwt>
</event>
<event>
 4    1  0.6052129E+003  0.1701345E+03  0.7546771E-02  0.1177708E+00
         21   -1    0    0  503  501  0.00000000000E+00  0.00000000000E+00  0.83618255570E+02  0.83618255570E+02  0.00000000000E+00 0.  1.
         21   -1    0    0  504  502 -0.00000000000E+00 -0.00000000000E+00 -0.71722103894E+03  0.71722103894E+03  0.00000000000E+00 0.  1.
         21    1    1    2  503  502  0.51765602943E+02 -0.16206806672E+03 -0.28790797424E+02  0.17255331326E+03  0.00000000000E+00 0.  1.
         21    1    1    2  504  501 -0.51765602943E+02  0.16206806672E+03 -0.60481198595E+03  0.62828598126E+03  0.00000000000E+00 0.  1.
<mgrwt>
<rscale>  2 0.17013446E+03</rscale>
<asrwt>0</asrwt>
<pdfrwt beam="1">  1       21 0.12864347E-01 0.17013446E+03</pdfrwt>
<pdfrwt beam="2">  1       21 0.11034170E+00 0.17013446E+03</pdfrwt>
<totfact> 0.34012653E+04</totfact>
</mgrwt>
</event>
<event>
 4    1  0.6052129E+003  0.1205998E+03  0.7546771E-02  0.1242111E+00
         21   -1    0    0  502  501  0.00000000000E+00  0.00000000000E+00  0.10941674717E+03  0.10941674717E+03  0.00000000000E+00 0.  1.
         21   -1    0    0  504  502 -0.00000000000E+00 -0.00000000000E+00 -0.16217368683E+03  0.16217368683E+03  0.00000000000E+00 0.  1.
         21    1    1    2  503  501 -0.29086797523E+02 -0.11703957544E+03  0.31290453098E+02  0.12459292301E+03  0.00000000000E+00 0.  1.
         21    1    1    2  504  503  0.29086797523E+02  0.11703957544E+03 -0.84047392760E+02  0.14699751099E+03  0.00000000000E+00 0.  1.
<mgrwt>
<rscale>  2 0.12059977E+03</rscale>
<asrwt>0</asrwt>
<pdfrwt beam="1">  1       21 0.16833346E-01 0.12059977E+03</pdfrwt>
<pdfrwt beam="2">  1       21 0.24949798E-01 0.12059977E+03</pdfrwt>
<totfact> 0.48731165E+05</totfact>
</mgrwt>
</event>
<event>
 4    1  0.6052129E+003  0.1357446E+03  0.7546771E-02  0.1219172E+00
         21   -1    0    0  502  501  0.00000000000E+00  0.00000000000E+00  0.23360350845E+02  0.23360350845E+02  0.00000000000E+00 0. -1.
         21   -1    0    0  504  502 -0.00000000000E+00 -0.00000000000E+00 -0.94680073606E+03  0.94680073606E+03  0.00000000000E+00 0.  1.
         21    1    1    2  503  501 -0.12162481171E+03 -0.60282624904E+02 -0.26355957085E+03  0.29646287638E+03  0.00000000000E+00 0. -1.
         21    1    1    2  504  503  0.12162481171E+03  0.60282624904E+02 -0.65988081437E+03  0.67369821052E+03  0.00000000000E+00 0.  1.
<mgrwt>
<rscale>  2 0.13574458E+03</rscale>
<asrwt>0</asrwt>
<pdfrwt beam="1">  1       21 0.35939003E-02 0.13574458E+03</pdfrwt>
<pdfrwt beam="2">  1       21 0.14566164E+00 0.13574458E+03</pdfrwt>
<totfact> 0.15500547E+05</totfact>
</mgrwt>
</event>
<event>
 4    1  0.6052129E+003  0.1099239E+03  0.7546771E-02  0.1260711E+00
         21   -1    0    0  503  501  0.00000000000E+00  0.00000000000E+00  0.65769929328E+02  0.65769929328E+02  0.00000000000E+00 0. -1.
         21   -1    0    0  504  502 -0.00000000000E+00 -0.00000000000E+00 -0.18910788988E+03  0.18910788988E+03  0.00000000000E+00 0. -1.
         21    1    1    2  503  502 -0.68597168295E+02  0.85893549909E+02 -0.83179113372E+02  0.13784788107E+03  0.00000000000E+00 0. -1.
         21    1    1    2  504  501  0.68597168295E+02 -0.85893549909E+02 -0.40158847183E+02  0.11702993814E+03  0.00000000000E+00 0. -1.
<mgrwt>
<rscale>  2 0.10992394E+03</rscale>
<asrwt>0</asrwt>
<pdfrwt beam="1">  1       21 0.10118451E-01 0.10992394E+03</pdfrwt>
<pdfrwt beam="2">  1       21 0.29093522E-01 0.10992394E+03</pdfrwt>
<totfact> 0.89994574E+05</totfact>
</mgrwt>
</event>
<event>
 4    1  0.6052129E+003  0.1428299E+03  0.7546771E-02  0.1209571E+00
         21   -1    0    0  502  501  0.00000000000E+00  0.00000000000E+00  0.20572332568E+03  0.20572332568E+03  0.00000000000E+00 0. -1.
         21   -1    0    0  503  502 -0.00000000000E+00 -0.00000000000E+00 -0.52825219194E+03  0.52825219194E+03  0.00000000000E+00 0.  1.
         21    1    1    2  503  504  0.93412159481E+02  0.10804877568E+03 -0.49201770796E+03  0.51232977116E+03  0.00000000000E+00 0.  1.
         21    1    1    2  504  501 -0.93412159481E+02 -0.10804877568E+03  0.16948884170E+03  0.22164574646E+03  0.00000000000E+00 0. -1.
<mgrwt>
<rscale>  2 0.14282986E+03</rscale>
<asrwt>0</asrwt>
<pdfrwt beam="1">  1       21 0.31649743E-01 0.14282986E+03</pdfrwt>
<pdfrwt beam="2">  1       21 0.81269568E-01 0.14282986E+03</pdfrwt>
<totfact> 0.13194763E+04</totfact>
</mgrwt>
</event>
<event>
 4    1  0.6052129E+003  0.1006722E+03  0.7546771E-02  0.1278889E+00
         21   -1    0    0  502  501  0.00000000000E+00  0.00000000000E+00  0.63695950415E+02  0.63695950415E+02  0.00000000000E+00 0.  1.
         21   -1    0    0  504  502 -0.00000000000E+00 -0.00000000000E+00 -0.19582518886E+03  0.19582518886E+03  0.00000000000E+00 0.  1.
         21    1    1    2  503  501 -0.99019693765E+02  0.18165815357E+02 -0.98810109547E+01  0.10115597352E+03  0.00000000000E+00 0.  1.
         21    1    1    2  504  503  0.99019693765E+02 -0.18165815357E+02 -0.12224822749E+03  0.15836516576E+03  0.00000000000E+00 0.  1.
<mgrwt>
<rscale>  2 0.10067222E+03</rscale>
<asrwt>0</asrwt>
<pdfrwt beam="1">  1       21 0.97993773E-02 0.10067222E+03</pdfrwt>
<pdfrwt beam="2">  1       21 0.30126951E-01 0.10067222E+03</pdfrwt>
<totfact> 0.88904651E+05</totfact>
</mgrwt>
</event>
<event>
 4    1  0.6052129E+003  0.1305543E+03  0.7546771E-02  0.1226636E+00
         21   -1    0    0  504  501  0.00000000000E+00  0.00000000000E+00  0.18151576712E+03  0.18151576712E+03  0.00000000000E+00 0. -1.
         21   -1    0    0  503  502 -0.00000000000E+00 -0.00000000000E+00 -0.46617518859E+03  0.46617518859E+03  0.00000000000E+00 0. -1.
         21    1    1    2  503  501 -0.33677645489E+02  0.12613575747E+03  0.14706796590E+03  0.19665553568E+03  0.00000000000E+00 0. -1.
         21    1    1    2  504  502  0.33677645489E+02 -0.12613575747E+03 -0.43172738737E+03  0.45103542003E+03  0.00000000000E+00 0. -1.
<mgrwt>
<rscale>  2 0.13055425E+03</rscale>
<asrwt>0</asrwt>
<pdfrwt beam="1">  1       21 0.27925503E-01 0.13055425E+03</pdfrwt>
<pdfrwt beam="2">  1       21 0.71719259E-01 0.13055425E+03</pdfrwt>
<totfact> 0.22374437E+04</totfact>
</mgrwt>
</event>
<event>
 4    1  0.6052129E+003  0.1009518E+03  0.7546771E-02  0.1278307E+00
         21   -1    0    0  504  501  0.00000000000E+00  0.00000000000E+00  0.78028201242E+02  0.78028201242E+02  0.00000000000E+00 0.  1.
         21   -1    0    0  503  502 -0.00000000000E+00 -0.00000000000E+00 -0.13821086055E+03  0.13821086055E+03  0.00000000000E+00 0.  1.
         21    1    1    2  503  501  0.40049877156E+02 -0.92667503345E+02 -0.55446475165E+02  0.11517625816E+03  0.00000000000E+00 0.  1.
         21    1    1    2  504  502 -0.40049877156E+02  0.92667503345E+02 -0.47361841403E+01  0.10106280363E+03  0.00000000000E+00 0.  1.
<mgrwt>
<rscale>  2 0.10095176E+03</rscale>
<asrwt>0</asrwt>
<pdfrwt beam="1">  1       21 0.12004339E-01 0.10095176E+03</pdfrwt>
<pdfrwt beam="2">  1       21 0.21263209E-01 0.10095176E+03</pdfrwt>
<totfact> 0.12007615E+06</totfact>
</mgrwt>
</event>
<event>
 4    1  0.6052129E+003  0.1044114E+03  0.7546771E-02  0.1271284E+00
         21   -1    0    0  504  501  0.00000000000E+00  0.00000000000E+00  0.42213486689E+03  0.42213486689E+03  0.00000000000E+00 0. -1.
         21   -1    0    0  503  502 -0.00000000000E+00 -0.00000000000E+00 -0.26912048420E+02  0.26912048420E+02  0.00000000000E+00 0. -1.
         21    1    1    2  503  501  0.55074533144E+02  0.88704813715E+02  0.24273028284E+03  0.26423424908E+03  0.00000000000E+00 0. -1.
         21    1    1    2  504  502 -0.55074533144E+02 -0.88704813715E+02  0.15249253562E+03  0.18481266623E+03  0.00000000000E+00 0. -1.
<mgrwt>
<rscale>  2 0.10441144E+03</rscale>
<asrwt>0</asrwt>
<pdfrwt beam="1">  1       21 0.64943821E-01 0.10441144E+03</pdfrwt>
<pdfrwt beam="2">  1       21 0.41403154E-02 0.10441144E+03</pdfrwt>
<totfact> 0.81132902E+05</totfact>
</mgrwt>
</event>
<event>
 4    1  0.6052129E+003  0.1187911E+03  0.7546771E-02  0.1245105E+00
         21   -1    0    0  504  501  0.00000000000E+00  0.00000000000E+00  0.62653029896E+03  0.62653029896E+03  0.00000000000E+00 0. -1.
         21   -1    0    0  503  502 -0.00000000000E+00 -0.00000000000E+00 -0.28100405235E+02  0.28100405235E+02  0.00000000000E+00 0. -1.
         21    1    1    2  503  501 -0.28986783383E+02  0.11520017768E+03  0.15339132349E+03  0.19401085709E+03  0.00000000000E+00 0. -1.
         21    1    1    2  504  502  0.28986783383E+02 -0.11520017768E+03  0.44503857023E+03  0.46061984710E+03  0.00000000000E+00 0. -1.
<mgrwt>
<rscale>  2 0.11879105E+03</rscale>
<asrwt>0</asrwt>
<pdfrwt beam="1">  1       21 0.96389266E-01 0.11879105E+03</pdfrwt>
<pdfrwt beam="2">  1       21 0.43231398E-02 0.11879105E+03</pdfrwt>
<totfact> 0.31361195E+05</totfact>
</mgrwt>
</event>
<event>
 4    1  0.6052129E+003  0.1018342E+03  0.7546771E-02  0.1276486E+00
         21   -1    0    0  503  501  0.00000000000E+00  0.00000000000E+00  0.56275678664E+02  0.56275678664E+02  0.00000000000E+00 0.  1.
         21   -1    0    0  504  502 -0.00000000000E+00 -0.00000000000E+00 -0.19244815078E+03  0.19244815078E+03  0.00000000000E+00 0.  1.
         21    1    1    2  503  502  0.85211870947E+02 -0.55759597383E+02 -0.42457472092E+02  0.11033056053E+03  0.00000000000E+00 0.  1.
         21    1    1    2  504  501 -0.85211870947E+02  0.55759597383E+02 -0.93715000020E+02  0.13839326891E+03  0.00000000000E+00 0.  1.
<mgrwt>
<rscale>  2 0.10183416E+03</rscale>
<asrwt>0</asrwt>
<pdfrwt beam="1">  1       21 0.86577968E-02 0.10183416E+03</pdfrwt>
<pdfrwt beam="2">  1       21 0.29607407E-01 0.10183416E+03</pdfrwt>
<totfact> 0.11388494E+06</totfact>
</mgrwt>
</event>
<event>
 4    1  0.6052129E+003  0.1511697E+03  0.7546771E-02  0.1199043E+00
         21   -1    0    0  502  501  0.00000000000E+00  0.00000000000E+00  0.82533969434E+02  0.82533969434E+02  0.00000000000E+00 0. -1.
         21   -1    0    0  503  502 -0.00000000000E+00 -0.00000000000E+00 -0.41723337486E+03  0.41723337486E+03  0.00000000000E+00 0.  1.
         21    1    1    2  503  504  0.52996815244E+01  0.15107675943E+03 -0.31227852315E+03  0.34694401549E+03  0.00000000000E+00 0.  1.
         21    1    1    2  504  501 -0.52996815244E+01 -0.15107675943E+03 -0.22420882277E+02  0.15282332880E+03  0.00000000000E+00 0. -1.
<mgrwt>
<rscale>  2 0.15116969E+03</rscale>
<asrwt>0</asrwt>
<pdfrwt beam="1">  1       21 0.12697534E-01 0.15116969E+03</pdfrwt>
<pdfrwt beam="2">  1       21 0.64189750E-01 0.15116969E+03</pdfrwt>
<totfact> 0.12059796E+05</totfact>
</mgrwt>
</event>
<event>
 4    1  0.6052129E+003  0.1322976E+03  0.7546771E-02  0.1224086E+00
         21   -1    0    0  504  501  0.00000000000E+00  0.00000000000E+00  0.78413133352E+02  0.78413133352E+02  0.00000000000E+00 0. -1.
         21   -1    0    0  503  502 -0.00000000000E+00 -0.00000000000E+00 -0.22504948214E+03  0.22504948214E+03  0.00000000000E+00 0. -1.
         21    1    1    2  503  501 -0.11491826494E+03  0.65547235827E+02 -0.59602874401E+02  0.14510392958E+03  0.00000000000E+00 0. -1.
         21    1    1    2  504  502  0.11491826494E+03 -0.65547235827E+02 -0.87033474385E+02  0.15835868592E+03  0.00000000000E+00 0. -1.
<mgrwt>
<rscale>  2 0.13229757E+03</rscale>
<asrwt>0</asrwt>
<pdfrwt beam="1">  1       21 0.12063559E-01 0.13229757E+03</pdfrwt>
<pdfrwt beam="2">  1       21 0.34622997E-01 0.13229757E+03</pdfrwt>
<totfact> 0.47138549E+05</totfact>
</mgrwt>
</event>
<event>
 4    1  0.6052129E+003  0.1328612E+03  0.7546771E-02  0.1223271E+00
         21   -1    0    0  504  501  0.00000000000E+00  0.00000000000E+00  0.12419836887E+04  0.12419836887E+04  0.00000000000E+00 0.  1.
         21   -1    0    0  501  502 -0.00000000000E+00 -0.00000000000E+00 -0.22848401500E+03  0.22848401500E+03  0.00000000000E+00 0. -1.
         21    1    1    2  503  502 -0.71730725349E+02  0.11183375292E+03 -0.20524932781E+03  0.24449820412E+03  0.00000000000E+00 0. -1.
         21    1    1    2  504  503  0.71730725349E+02 -0.11183375292E+03  0.12187490015E+04  0.12259694996E+04  0.00000000000E+00 0.  1.
<mgrwt>
<rscale>  2 0.13286115E+03</rscale>
<asrwt>0</asrwt>
<pdfrwt beam="1">  1       21 0.19107441E+00 0.13286115E+03</pdfrwt>
<pdfrwt beam="2">  1       21 0.35151388E-01 0.13286115E+03</pdfrwt>
<totfact> 0.12902248E+03</totfact>
</mgrwt>
</event>
<event>
 4    1  0.6052129E+003  0.1124991E+03  0.7546771E-02  0.1256011E+00
         21   -1    0    0  502  501  0.00000000000E+00  0.00000000000E+00  0.97670042465E+02  0.97670042465E+02  0.00000000000E+00 0. -1.
         21   -1    0    0  504  502 -0.00000000000E+00 -0.00000000000E+00 -0.18927798568E+03  0.18927798568E+03  0.00000000000E+00 0. -1.
         21    1    1    2  503  501  0.91486185406E+02  0.65470034073E+02  0.34771786232E+02  0.11775026369E+03  0.00000000000E+00 0. -1.
         21    1    1    2  504  503 -0.91486185406E+02 -0.65470034073E+02 -0.12637972945E+03  0.16919776446E+03  0.00000000000E+00 0. -1.
<mgrwt>
<rscale>  2 0.11249910E+03</rscale>
<asrwt>0</asrwt>
<pdfrwt beam="1">  1       21 0.15026160E-01 0.11249910E+03</pdfrwt>
<pdfrwt beam="2">  1       21 0.29119690E-01 0.11249910E+03</pdfrwt>
<totfact> 0.44633951E+05</totfact>
</mgrwt>
</event>
<event>
 4    1  0.6052129E+003  0.1049838E+03  0.7546771E-02  0.1270152E+00
         21   -1    0    0  504  501  0.00000000000E+00  0.00000000000E+00  0.65119488207E+03  0.65119488207E+03  0.00000000000E+00 0. -1.
         21   -1    0    0  503  502 -0.00000000000E+00 -0.00000000000E+00 -0.17028032238E+02  0.17028032238E+02  0.00000000000E+00 0. -1.
         21    1    1    2  503  501  0.35880797710E+02 -0.98661868193E+02  0.34304905540E+03  0.35875374603E+03  0.00000000000E+00 0. -1.
         21    1    1    2  504  502 -0.35880797710E+02  0.98661868193E+02  0.29111779444E+03  0.30946916828E+03  0.00000000000E+00 0. -1.
<mgrwt>
<rscale>  2 0.10498379E+03</rscale>
<asrwt>0</asrwt>
<pdfrwt beam="1">  1       21 0.10018381E+00 0.10498379E+03</pdfrwt>
<pdfrwt beam="2">  1       21 0.26196978E-02 0.10498379E+03</pdfrwt>
<totfact> 0.65439933E+05</totfact>
</mgrwt>
</event>
<event>
 4    1  0.6052129E+003  0.1202838E+03  0.7546771E-02  0.1242630E+00
         21   -1    0    0  503  501  0.00000000000E+00  0.00000000000E+00  0.15985421068E+02  0.15985421068E+02  0.00000000000E+00 0. -1.
         21   -1    0    0  504  502 -0.00000000000E+00 -0.00000000000E+00 -0.11145609659E+04  0.11145609659E+04  0.00000000000E+00 0.  1.
         21    1    1    2  503  502  0.22831562098E+02 -0.11809707817E+03 -0.30422841544E+03  0.32714389627E+03  0.00000000000E+00 0. -1.
         21    1    1    2  504  501 -0.22831562098E+02  0.11809707817E+03 -0.79434712938E+03  0.80340249069E+03  0.00000000000E+00 0.  1.
<mgrwt>
<rscale>  2 0.12028383E+03</rscale>
<asrwt>0</asrwt>
<pdfrwt beam="1">  1       21 0.24592962E-02 0.12028383E+03</pdfrwt>
<pdfrwt beam="2">  1       21 0.17147087E+00 0.12028383E+03</pdfrwt>
<totfact> 0.18916131E+05</totfact>
</mgrwt>
</event>
<event>
 4    1  0.6052129E+003  0.1030110E+03  0.7546771E-02  0.1274089E+00
         21   -1    0    0  502  501  0.00000000000E+00  0.00000000000E+00  0.18134988345E+04  0.18134988345E+04  0.00000000000E+00 0.  1.
         21   -1    0    0  504  502 -0.00000000000E+00 -0.00000000000E+00 -0.72247205689E+03  0.72247205689E+03  0.00000000000E+00 0.  1.
         21    1    1    2  503  501  0.10103987200E+03  0.20055240692E+02  0.18083537175E+04  0.18112852995E+04  0.00000000000E+00 0.  1.
         21    1    1    2  504  503 -0.10103987200E+03 -0.20055240692E+02 -0.71732693991E+03  0.72468559192E+03  0.00000000000E+00 0.  1.
<mgrwt>
<rscale>  2 0.10301101E+03</rscale>
<asrwt>0</asrwt>
<pdfrwt beam="1">  1       21 0.27899982E+00 0.10301101E+03</pdfrwt>
<pdfrwt beam="2">  1       21 0.11114955E+00 0.10301101E+03</pdfrwt>
<totfact> 0.35602679E+01</totfact>
</mgrwt>
</event>
<event>
 4    1  0.6052129E+003  0.1048132E+03  0.7546771E-02  0.1270488E+00
         21   -1    0    0  504  501  0.00000000000E+00  0.00000000000E+00  0.45474192537E+02  0.45474192537E+02  0.00000000000E+00 0. -1.
         21   -1    0    0  503  502 -0.00000000000E+00 -0.00000000000E+00 -0.31120495897E+03  0.31120495897E+03  0.00000000000E+00 0. -1.
         21    1    1    2  503  501 -0.10063499660E+03  0.29298587914E+02 -0.48513192943E+02  0.11549605917E+03  0.00000000000E+00 0. -1.
         21    1    1    2  504  502  0.10063499660E+03 -0.29298587914E+02 -0.21721757349E+03  0.24118309233E+03  0.00000000000E+00 0. -1.
<mgrwt>
<rscale>  2 0.10481321E+03</rscale>
<asrwt>0</asrwt>
<pdfrwt beam="1">  1       21 0.69960298E-02 0.10481321E+03</pdfrwt>
<pdfrwt beam="2">  1       21 0.47877685E-01 0.10481321E+03</pdfrwt>
<totfact> 0.63577264E+05</totfact>
</mgrwt>
</event>
<event>
 4    1  0.6052129E+003  0.1057162E+03  0.7546771E-02  0.1268715E+00
         21   -1    0    0  504  501  0.00000000000E+00  0.00000000000E+00  0.95262797001E+03  0.95262797001E+03  0.00000000000E+00 0.  1.
         21   -1    0    0  503  502 -0.00000000000E+00 -0.00000000000E+00 -0.14823915475E+02  0.14823915475E+02  0.00000000000E+00 0.  1.
         21    1    1    2  503  501 -0.10362836654E+03  0.20906319628E+02  0.68983229669E+03  0.69788574288E+03  0.00000000000E+00 0.  1.
         21    1    1    2  504  502  0.10362836654E+03 -0.20906319628E+02  0.24797175784E+03  0.26956614261E+03  0.00000000000E+00 0.  1.
<mgrwt>
<rscale>  2 0.10571619E+03</rscale>
<asrwt>0</asrwt>
<pdfrwt beam="1">  1       21 0.14655810E+00 0.10571619E+03</pdfrwt>
<pdfrwt beam="2">  1       21 0.22806031E-02 0.10571619E+03</pdfrwt>
<totfact> 0.32476898E+05</totfact>
</mgrwt>
</event>
<event>
 4    1  0.6052129E+003  0.1560458E+03  0.7546771E-02  0.1193235E+00
         21   -1    0    0  504  501  0.00000000000E+00  0.00000000000E+00  0.67932802811E+03  0.67932802811E+03  0.00000000000E+00 0.  1.
         21   -1    0    0  501  502 -0.00000000000E+00 -0.00000000000E+00 -0.44689035989E+02  0.44689035989E+02  0.00000000000E+00 0. -1.
         21    1    1    2  503  502 -0.52430263389E+02 -0.14697397872E+03  0.15627277581E+03  0.22084262134E+03  0.00000000000E+00 0. -1.
         21    1    1    2  504  503  0.52430263389E+02  0.14697397872E+03  0.47836621631E+03  0.50317444276E+03  0.00000000000E+00 0.  1.
<mgrwt>
<rscale>  2 0.15604577E+03</rscale>
<asrwt>0</asrwt>
<pdfrwt beam="1">  1       21 0.10451200E+00 0.15604577E+03</pdfrwt>
<pdfrwt beam="2">  1       21 0.68752368E-02 0.15604577E+03</pdfrwt>
<totfact> 0.11702374E+05</totfact>
</mgrwt>
</event>
<event>
 4    1  0.6052129E+003  0.1032034E+03  0.7546771E-02  0.1273700E+00
         21   -1    0    0  503  501  0.00000000000E+00  0.00000000000E+00  0.23260590310E+03  0.23260590310E+03  0.00000000000E+00 0. -1.
         21   -1    0    0  501  502 -0.00000000000E+00 -0.00000000000E+00 -0.29905654163E+03  0.29905654163E+03  0.00000000000E+00 0.  1.
         21    1    1    2  503  504  0.59183298383E+02  0.84547490947E+02  0.21140965828E+03  0.23525514797E+03  0.00000000000E+00 0. -1.
         21    1    1    2  504  502 -0.59183298383E+02 -0.84547490947E+02 -0.27786029681E+03  0.29640729676E+03  0.00000000000E+00 0.  1.
<mgrwt>
<rscale>  2 0.10320340E+03</rscale>
<asrwt>0</asrwt>
<pdfrwt beam="1">  1       21 0.35785524E-01 0.10320340E+03</pdfrwt>
<pdfrwt beam="2">  1       21 0.46008699E-01 0.10320340E+03</pdfrwt>
<totfact> 0.35954081E+04</totfact>
</mgrwt>
</event>
<event>
 4    1  0.6052129E+003  0.1094802E+03  0.7546771E-02  0.1261535E+00
         21   -1    0    0  504  501  0.00000000000E+00  0.00000000000E+00  0.19977955934E+04  0.19977955934E+04  0.00000000000E+00 0.  1.
         21   -1    0    0  503  502 -0.00000000000E+00 -0.00000000000E+00 -0.16175978068E+02  0.16175978068E+02  0.00000000000E+00 0. -1.
         21    1    1    2  503  501 -0.82924470113E+02  0.71480416598E+02  0.19210685813E+03  0.22111300876E+03  0.00000000000E+00 0. -1.
         21    1    1    2  504  502  0.82924470113E+02 -0.71480416598E+02  0.17895127572E+04  0.17928585627E+04  0.00000000000E+00 0.  1.
<mgrwt>
<rscale>  2 0.10948022E+03</rscale>
<asrwt>0</asrwt>
<pdfrwt beam="1">  1       21 0.30735297E+00 0.10948022E+03</pdfrwt>
<pdfrwt beam="2">  1       21 0.24886136E-02 0.10948022E+03</pdfrwt>
<totfact> 0.29482976E+04</totfact>
</mgrwt>
</event>
<event>
 4    1  0.6052129E+003  0.1172817E+03  0.7546771E-02  0.1247650E+00
         21   -1    0    0  503  501  0.00000000000E+00  0.00000000000E+00  0.33240913488E+03  0.33240913488E+03  0.00000000000E+00 0. -1.
         21   -1    0    0  504  502 -0.00000000000E+00 -0.00000000000E+00 -0.80515121380E+02  0.80515121380E+02  0.00000000000E+00 0. -1.
         21    1    1    2  503  502 -0.80970907432E+02  0.84845248368E+02 -0.17994634850E+02  0.11865416514E+03  0.00000000000E+00 0. -1.
         21    1    1    2  504  501  0.80970907432E+02 -0.84845248368E+02  0.26988864835E+03  0.29427009112E+03  0.00000000000E+00 0. -1.
<mgrwt>
<rscale>  2 0.11728173E+03</rscale>
<asrwt>0</asrwt>
<pdfrwt beam="1">  1       21 0.51139866E-01 0.11728173E+03</pdfrwt>
<pdfrwt beam="2">  1       21 0.12386942E-01 0.11728173E+03</pdfrwt>
<totfact> 0.20575639E+05</totfact>
</mgrwt>
</event>
<event>
 4    1  0.6052129E+003  0.1034469E+03  0.7546771E-02  0.1273210E+00
         21   -1    0    0  503  501  0.00000000000E+00  0.00000000000E+00  0.10069895412E+03  0.10069895412E+03  0.00000000000E+00 0.  1.
         21   -1    0    0  504  502 -0.00000000000E+00 -0.00000000000E+00 -0.10885264222E+03  0.10885264222E+03  0.00000000000E+00 0.  1.
         21    1    1    2  503  502  0.10141636638E+03  0.20395455039E+02  0.12062785716E+02  0.10414780245E+03  0.00000000000E+00 0.  1.
         21    1    1    2  504  501 -0.10141636638E+03 -0.20395455039E+02 -0.20216473816E+02  0.10540379390E+03  0.00000000000E+00 0.  1.
<mgrwt>
<rscale>  2 0.10344687E+03</rscale>
<asrwt>0</asrwt>
<pdfrwt beam="1">  1       21 0.15492147E-01 0.10344687E+03</pdfrwt>
<pdfrwt beam="2">  1       21 0.16746560E-01 0.10344687E+03</pdfrwt>
<totfact> 0.11808759E+06</totfact>
</mgrwt>
</event>
<event>
 4    1  0.6052129E+003  0.1146482E+03  0.7546771E-02  0.1252196E+00
         21   -1    0    0  504  501  0.00000000000E+00  0.00000000000E+00  0.57735287597E+03  0.57735287597E+03  0.00000000000E+00 0. -1.
         21   -1    0    0  501  502 -0.00000000000E+00 -0.00000000000E+00 -0.12673243484E+03  0.12673243484E+03  0.00000000000E+00 0.  1.
         21    1    1    2  503  502 -0.10234740674E+03 -0.51664501450E+02 -0.93547738982E+02  0.14797091554E+03  0.00000000000E+00 0.  1.
         21    1    1    2  504  503  0.10234740674E+03  0.51664501450E+02  0.54416818011E+03  0.55611439527E+03  0.00000000000E+00 0. -1.
<mgrwt>
<rscale>  2 0.11464821E+03</rscale>
<asrwt>0</asrwt>
<pdfrwt beam="1">  1       21 0.88823518E-01 0.11464821E+03</pdfrwt>
<pdfrwt beam="2">  1       21 0.19497298E-01 0.11464821E+03</pdfrwt>
<totfact> 0.27558780E+04</totfact>
</mgrwt>
</event>
<event>
 4    1  0.6052129E+003  0.1023467E+03  0.7546771E-02  0.1275437E+00
         21   -1    0    0  503  501  0.00000000000E+00  0.00000000000E+00  0.30836243927E+02  0.30836243927E+02  0.00000000000E+00 0.  1.
         21   -1    0    0  504  502 -0.00000000000E+00 -0.00000000000E+00 -0.48269077859E+03  0.48269077859E+03  0.00000000000E+00 0.  1.
         21    1    1    2  503  502  0.44997602999E+02  0.91924187003E+02 -0.86173273633E+02  0.13379339864E+03  0.00000000000E+00 0.  1.
         21    1    1    2  504  501 -0.44997602999E+02 -0.91924187003E+02 -0.36568126103E+03  0.37973362387E+03  0.00000000000E+00 0.  1.
<mgrwt>
<rscale>  2 0.10234667E+03</rscale>
<asrwt>0</asrwt>
<pdfrwt beam="1">  1       21 0.47440375E-02 0.10234667E+03</pdfrwt>
<pdfrwt beam="2">  1       21 0.74260120E-01 0.10234667E+03</pdfrwt>
<totfact> 0.48431729E+05</totfact>
</mgrwt>
</event>
<event>
 4    1  0.6052129E+003  0.1144689E+03  0.7546771E-02  0.1252511E+00
         21   -1    0    0  503  501  0.00000000000E+00  0.00000000000E+00  0.17590639657E+02  0.17590639657E+02  0.00000000000E+00 0. -1.
         21   -1    0    0  504  502 -0.00000000000E+00 -0.00000000000E+00 -0.10833099678E+04  0.10833099678E+04  0.00000000000E+00 0. -1.
         21    1    1    2  503  502 -0.10954117732E+03  0.33224484246E+02 -0.22520172972E+03  0.25262413770E+03  0.00000000000E+00 0. -1.
         21    1    1    2  504  501  0.10954117732E+03 -0.33224484246E+02 -0.84051759844E+03  0.84827646977E+03  0.00000000000E+00 0. -1.
<mgrwt>
<rscale>  2 0.11446893E+03</rscale>
<asrwt>0</asrwt>
<pdfrwt beam="1">  1       21 0.27062527E-02 0.11446893E+03</pdfrwt>
<pdfrwt beam="2">  1       21 0.16666304E+00 0.11446893E+03</pdfrwt>
<totfact> 0.17528519E+05</totfact>
</mgrwt>
</event>
<event>
 4    1  0.6052129E+003  0.1126604E+03  0.7546771E-02  0.1255721E+00
         21   -1    0    0  504  501  0.00000000000E+00  0.00000000000E+00  0.75414225859E+02  0.75414225859E+02  0.00000000000E+00 0. -1.
         21   -1    0    0  503  502 -0.00000000000E+00 -0.00000000000E+00 -0.17493224592E+03  0.17493224592E+03  0.00000000000E+00 0. -1.
         21    1    1    2  503  501 -0.88702752267E+02  0.69456382966E+02 -0.74128157707E+02  0.13486048776E+03  0.00000000000E+00 0. -1.
         21    1    1    2  504  502  0.88702752267E+02 -0.69456382966E+02 -0.25389862358E+02  0.11548598402E+03  0.00000000000E+00 0. -1.
<mgrwt>
<rscale>  2 0.11266041E+03</rscale>
<asrwt>0</asrwt>
<pdfrwt beam="1">  1       21 0.11602189E-01 0.11266041E+03</pdfrwt>
<pdfrwt beam="2">  1       21 0.26912653E-01 0.11266041E+03</pdfrwt>
<totfact> 0.82159814E+05</totfact>
</mgrwt>
</event>
<event>
 4    1  0.6052129E+003  0.1224687E+03  0.7546771E-02  0.1239079E+00
         21   -1    0    0  503  501  0.00000000000E+00  0.00000000000E+00  0.58397461864E+02  0.58397461864E+02  0.00000000000E+00 0.  1.
         21   -1    0    0  504  502 -0.00000000000E+00 -0.00000000000E+00 -0.25746952387E+03  0.25746952387E+03  0.00000000000E+00 0.  1.
         21    1    1    2  503  502 -0.24094814943E+02  0.12007508522E+03 -0.91703524826E+02  0.15299713286E+03  0.00000000000E+00 0.  1.
         21    1    1    2  504  501  0.24094814943E+02 -0.12007508522E+03 -0.10736853718E+03  0.16286985288E+03  0.00000000000E+00 0.  1.
<mgrwt>
<rscale>  2 0.12246872E+03</rscale>
<asrwt>0</asrwt>
<pdfrwt beam="1">  1       21 0.89842248E-02 0.12246872E+03</pdfrwt>
<pdfrwt beam="2">  1       21 0.39610696E-01 0.12246872E+03</pdfrwt>
<totfact> 0.60602497E+05</totfact>
</mgrwt>
</event>
<event>
 4    1  0.6052129E+003  0.1112354E+03  0.7546771E-02  0.1258299E+00
         21   -1    0    0  504  501  0.00000000000E+00  0.00000000000E+00  0.15102217935E+04  0.15102217935E+04  0.00000000000E+00 0. -1.
         21   -1    0    0  503  502 -0.00000000000E+00 -0.00000000000E+00 -0.26805682434E+02  0.26805682434E+02  0.00000000000E+00 0.  1.
         21    1    1    2  503  501  0.54288095214E+02 -0.97088203893E+02  0.13820945268E+04  0.13865635930E+04  0.00000000000E+00 0. -1.
         21    1    1    2  504  502 -0.54288095214E+02  0.97088203893E+02  0.10132158436E+03  0.15046388295E+03  0.00000000000E+00 0.  1.
<mgrwt>
<rscale>  2 0.11123541E+03</rscale>
<asrwt>0</asrwt>
<pdfrwt beam="1">  1       21 0.23234175E+00 0.11123541E+03</pdfrwt>
<pdfrwt beam="2">  1       21 0.41239523E-02 0.11123541E+03</pdfrwt>
<totfact> 0.33966946E+04</totfact>
</mgrwt>
</event>
<event>
 4    1  0.6052129E+003  0.1038429E+03  0.7546771E-02  0.1272416E+00
         21   -1    0    0  504  501  0.00000000000E+00  0.00000000000E+00  0.86100985842E+02  0.86100985842E+02  0.00000000000E+00 0. -1.
         21   -1    0    0  503  502 -0.00000000000E+00 -0.00000000000E+00 -0.20087990141E+03  0.20087990141E+03  0.00000000000E+00 0.  1.
         21    1    1    2  503  501  0.10382394508E+03  0.19863384453E+01  0.30660244101E+02  0.10827468625E+03  0.00000000000E+00 0. -1.
         21    1    1    2  504  502 -0.10382394508E+03 -0.19863384453E+01 -0.14543915967E+03  0.17870620101E+03  0.00000000000E+00 0.  1.
<mgrwt>
<rscale>  2 0.10384294E+03</rscale>
<asrwt>0</asrwt>
<pdfrwt beam="1">  1       21 0.13246306E-01 0.10384294E+03</pdfrwt>
<pdfrwt beam="2">  1       21 0.30904600E-01 0.10384294E+03</pdfrwt>
<totfact> 0.49896645E+05</totfact>
</mgrwt>
</event>
<event>
 4    1  0.6052129E+003  0.1054046E+03  0.7546771E-02  0.1269325E+00
         21   -1    0    0  502  501  0.00000000000E+00  0.00000000000E+00  0.89291745679E+02  0.89291745679E+02  0.00000000000E+00 0.  1.
         21   -1    0    0  503  502 -0.00000000000E+00 -0.00000000000E+00 -0.67541136405E+03  0.67541136405E+03  0.00000000000E+00 0.  1.
         21    1    1    2  503  504  0.87815712923E+02  0.58296843203E+02 -0.63840158857E+03  0.64704459634E+03  0.00000000000E+00 0.  1.
         21    1    1    2  504  501 -0.87815712923E+02 -0.58296843203E+02  0.52281970203E+02  0.11765851338E+03  0.00000000000E+00 0.  1.
<mgrwt>
<rscale>  2 0.10540456E+03</rscale>
<asrwt>0</asrwt>
<pdfrwt beam="1">  1       21 0.13737192E-01 0.10540456E+03</pdfrwt>
<pdfrwt beam="2">  1       21 0.10390944E+00 0.10540456E+03</pdfrwt>
<totfact> 0.36406627E+04</totfact>
</mgrwt>
</event>
<event>
 4    1  0.6052129E+003  0.1005965E+03  0.7546771E-02  0.1279047E+00
         21   -1    0    0  503  501  0.00000000000E+00  0.00000000000E+00  0.32642674713E+02  0.32642674713E+02  0.00000000000E+00 0. -1.
         21   -1    0    0  501  502 -0.00000000000E+00 -0.00000000000E+00 -0.56372943245E+03  0.56372943245E+03  0.00000000000E+00 0. -1.
         21    1    1    2  503  504 -0.20022148292E+01 -0.10057656492E+03 -0.65499047030E+02  0.12004074074E+03  0.00000000000E+00 0. -1.
         21    1    1    2  504  502  0.20022148292E+01  0.10057656492E+03 -0.46558771070E+03  0.47633136642E+03  0.00000000000E+00 0. -1.
<mgrwt>
<rscale>  2 0.10059649E+03</rscale>
<asrwt>0</asrwt>
<pdfrwt beam="1">  1       21 0.50219505E-02 0.10059649E+03</pdfrwt>
<pdfrwt beam="2">  1       21 0.86727595E-01 0.10059649E+03</pdfrwt>
<totfact> 0.31220454E+05</totfact>
</mgrwt>
</event>
<event>
 4    1  0.6052129E+003  0.2492094E+03  0.7546771E-02  0.1113805E+00
         21   -1    0    0  503  501  0.00000000000E+00  0.00000000000E+00  0.25580770546E+04  0.25580770546E+04  0.00000000000E+00 0.  1.
         21   -1    0    0  504  502 -0.00000000000E+00 -0.00000000000E+00 -0.30076619136E+02  0.30076619136E+02  0.00000000000E+00 0.  1.
         21    1    1    2  503  502  0.22141493062E+03 -0.11437113220E+03  0.69579793005E+03  0.73908056858E+03  0.00000000000E+00 0.  1.
         21    1    1    2  504  501 -0.22141493062E+03  0.11437113220E+03  0.18322025054E+04  0.18490731051E+04  0.00000000000E+00 0.  1.
<mgrwt>
<rscale>  2 0.24920940E+03</rscale>
<asrwt>0</asrwt>
<pdfrwt beam="1">  1       21 0.39355014E+00 0.24920940E+03</pdfrwt>
<pdfrwt beam="2">  1       21 0.46271742E-02 0.24920940E+03</pdfrwt>
<totfact> 0.27303869E+03</totfact>
</mgrwt>
</event>
<event>
 4    1  0.6052129E+003  0.1161349E+03  0.7546771E-02  0.1249613E+00
         21   -1    0    0  503  501  0.00000000000E+00  0.00000000000E+00  0.94734431612E+02  0.94734431612E+02  0.00000000000E+00 0. -1.
         21   -1    0    0  504  502 -0.00000000000E+00 -0.00000000000E+00 -0.48403743017E+03  0.48403743017E+03  0.00000000000E+00 0.  1.
         21    1    1    2  503  502  0.95478303869E+02 -0.66115146945E+02  0.48479243646E+02  0.12584735289E+03  0.00000000000E+00 0. -1.
         21    1    1    2  504  501 -0.95478303869E+02  0.66115146945E+02 -0.43778224220E+03  0.45292450889E+03  0.00000000000E+00 0.  1.
<mgrwt>
<rscale>  2 0.11613492E+03</rscale>
<asrwt>0</asrwt>
<pdfrwt beam="1">  1       21 0.14574528E-01 0.11613492E+03</pdfrwt>
<pdfrwt beam="2">  1       21 0.74467294E-01 0.11613492E+03</pdfrwt>
<totfact> 0.69226699E+04</totfact>
</mgrwt>
</event>
<event>
 4    1  0.6052129E+003  0.1347134E+03  0.7546771E-02  0.1220625E+00
         21   -1    0    0  502  501  0.00000000000E+00  0.00000000000E+00  0.70147984500E+03  0.70147984500E+03  0.00000000000E+00 0.  1.
         21   -1    0    0  503  502 -0.00000000000E+00 -0.00000000000E+00 -0.28033567478E+02  0.28033567478E+02  0.00000000000E+00 0. -1.
         21    1    1    2  503  504  0.14041166880E+02  0.13397969413E+03  0.23540483648E+03  0.27122527508E+03  0.00000000000E+00 0. -1.
         21    1    1    2  504  501 -0.14041166880E+02 -0.13397969413E+03  0.43804144105E+03  0.45828813740E+03  0.00000000000E+00 0.  1.
<mgrwt>
<rscale>  2 0.13471345E+03</rscale>
<asrwt>0</asrwt>
<pdfrwt beam="1">  1       21 0.10791996E+00 0.13471345E+03</pdfrwt>
<pdfrwt beam="2">  1       21 0.43128571E-02 0.13471345E+03</pdfrwt>
<totfact> 0.24036337E+05</totfact>
</mgrwt>
</event>
<event>
 4    1  0.6052129E+003  0.2290000E+03  0.7546771E-02  0.1127346E+00
         21   -1    0    0  504  501  0.00000000000E+00  0.00000000000E+00  0.14297503164E+04  0.14297503164E+04  0.00000000000E+00 0. -1.
         21   -1    0    0  503  502 -0.00000000000E+00 -0.00000000000E+00 -0.45976494253E+02  0.45976494253E+02  0.00000000000E+00 0. -1.
         21    1    1    2  503  501 -0.40599336189E+02 -0.22537234826E+03  0.10237081973E+04  0.10490088058E+04  0.00000000000E+00 0. -1.
         21    1    1    2  504  502  0.40599336189E+02  0.22537234826E+03  0.36006562489E+03  0.42671800488E+03  0.00000000000E+00 0. -1.
<mgrwt>
<rscale>  2 0.22900000E+03</rscale>
<asrwt>0</asrwt>
<pdfrwt beam="1">  1       21 0.21996155E+00 0.22900000E+03</pdfrwt>
<pdfrwt beam="2">  1       21 0.70733079E-02 0.22900000E+03</pdfrwt>
<totfact> 0.14528542E+04</totfact>
</mgrwt>
</event>
<event>
 4    1  0.6052129E+003  0.1165894E+03  0.7546771E-02  0.1248832E+00
         21   -1    0    0  504  501  0.00000000000E+00  0.00000000000E+00  0.92510617735E+03  0.92510617735E+03  0.00000000000E+00 0. -1.
         21   -1    0    0  503  502 -0.00000000000E+00 -0.00000000000E+00 -0.41875733207E+02  0.41875733207E+02  0.00000000000E+00 0. -1.
         21    1    1    2  503  501  0.80153045967E+02  0.84667493971E+02  0.52077700100E+02  0.12769174664E+03  0.00000000000E+00 0. -1.
         21    1    1    2  504  502 -0.80153045967E+02 -0.84667493971E+02  0.83115274405E+03  0.83929016392E+03  0.00000000000E+00 0. -1.
<mgrwt>
<rscale>  2 0.11658943E+03</rscale>
<asrwt>0</asrwt>
<pdfrwt beam="1">  1       21 0.14232401E+00 0.11658943E+03</pdfrwt>
<pdfrwt beam="2">  1       21 0.64424212E-02 0.11658943E+03</pdfrwt>
<totfact> 0.62508991E+04</totfact>
</mgrwt>
</event>
<event>
 4    1  0.6052129E+003  0.1062306E+03  0.7546771E-02  0.1267714E+00
         21   -1    0    0  504  501  0.00000000000E+00  0.00000000000E+00  0.53999525868E+03  0.53999525868E+03  0.00000000000E+00 0.  1.
         21   -1    0    0  503  502 -0.00000000000E+00 -0.00000000000E+00 -0.23325348344E+02  0.23325348344E+02  0.00000000000E+00 0.  1.
         21    1    1    2  503  501  0.75355842785E+02 -0.74876085935E+02  0.16747775677E+03  0.19832733119E+03  0.00000000000E+00 0.  1.
         21    1    1    2  504  502 -0.75355842785E+02  0.74876085935E+02  0.34919215357E+03  0.36499327583E+03  0.00000000000E+00 0.  1.
<mgrwt>
<rscale>  2 0.10623056E+03</rscale>
<asrwt>0</asrwt>
<pdfrwt beam="1">  1       21 0.83076184E-01 0.10623056E+03</pdfrwt>
<pdfrwt beam="2">  1       21 0.35885156E-02 0.10623056E+03</pdfrwt>
<totfact> 0.59960676E+05</totfact>
</mgrwt>
</event>
<event>
 4    1  0.6052129E+003  0.1333419E+03  0.7546771E-02  0.1222580E+00
         21   -1    0    0  503  501  0.00000000000E+00  0.00000000000E+00  0.95530893871E+02  0.95530893871E+02  0.00000000000E+00 0.  1.
         21   -1    0    0  504  502 -0.00000000000E+00 -0.00000000000E+00 -0.56614425301E+03  0.56614425301E+03  0.00000000000E+00 0.  1.
         21    1    1    2  503  502 -0.11763582197E+03 -0.62784341533E+02 -0.50636193263E+03  0.52362435673E+03  0.00000000000E+00 0.  1.
         21    1    1    2  504  501  0.11763582197E+03  0.62784341533E+02  0.35748573490E+02  0.13805079014E+03  0.00000000000E+00 0.  1.
<mgrwt>
<rscale>  2 0.13334189E+03</rscale>
<asrwt>0</asrwt>
<pdfrwt beam="1">  1       21 0.14697061E-01 0.13334189E+03</pdfrwt>
<pdfrwt beam="2">  1       21 0.87099116E-01 0.13334189E+03</pdfrwt>
<totfact> 0.47585214E+04</totfact>
</mgrwt>
</event>
<event>
 4    1  0.6052129E+003  0.1026015E+03  0.7546771E-02  0.1274919E+00
         21   -1    0    0  502  501  0.00000000000E+00  0.00000000000E+00  0.61106703887E+02  0.61106703887E+02  0.00000000000E+00 0.  1.
         21   -1    0    0  503  502 -0.00000000000E+00 -0.00000000000E+00 -0.33380690269E+03  0.33380690269E+03  0.00000000000E+00 0.  1.
         21    1    1    2  503  504 -0.55809805972E+02 -0.86094932289E+02 -0.27370858145E+03  0.29230713191E+03  0.00000000000E+00 0.  1.
         21    1    1    2  504  501  0.55809805972E+02  0.86094932289E+02  0.10083826407E+01  0.10260647467E+03  0.00000000000E+00 0.  1.
<mgrwt>
<rscale>  2 0.10260152E+03</rscale>
<asrwt>0</asrwt>
<pdfrwt beam="1">  1       21 0.94010313E-02 0.10260152E+03</pdfrwt>
<pdfrwt beam="2">  1       21 0.51354909E-01 0.10260152E+03</pdfrwt>
<totfact> 0.33174659E+05</totfact>
</mgrwt>
</event>
<event>
 4    1  0.6052129E+003  0.1007410E+03  0.7546771E-02  0.1278746E+00
         21   -1    0    0  504  501  0.00000000000E+00  0.00000000000E+00  0.28048378407E+02  0.28048378407E+02  0.00000000000E+00 0.  1.
         21   -1    0    0  503  502 -0.00000000000E+00 -0.00000000000E+00 -0.92602836822E+03  0.92602836822E+03  0.00000000000E+00 0. -1.
         21    1    1    2  503  501 -0.10030652619E+03  0.93455789241E+01 -0.82134497021E+03  0.82750002969E+03  0.00000000000E+00 0. -1.
         21    1    1    2  504  502  0.10030652619E+03 -0.93455789241E+01 -0.76635019597E+02  0.12657671694E+03  0.00000000000E+00 0.  1.
<mgrwt>
<rscale>  2 0.10074095E+03</rscale>
<asrwt>0</asrwt>
<pdfrwt beam="1">  1       21 0.43151359E-02 0.10074095E+03</pdfrwt>
<pdfrwt beam="2">  1       21 0.14246588E+00 0.10074095E+03</pdfrwt>
<totfact> 0.12335141E+05</totfact>
</mgrwt>
</event>
<event>
 4    1  0.6052129E+003  0.1103566E+03  0.7546771E-02  0.1259911E+00
         21   -1    0    0  502  501  0.00000000000E+00  0.00000000000E+00  0.30382290056E+03  0.30382290056E+03  0.00000000000E+00 0.  1.
         21   -1    0    0  503  502 -0.00000000000E+00 -0.00000000000E+00 -0.90415409823E+02  0.90415409823E+02  0.00000000000E+00 0. -1.
         21    1    1    2  503  504 -0.48826319737E+01 -0.11024849537E+03 -0.40366647006E+02  0.11750760408E+03  0.00000000000E+00 0. -1.
         21    1    1    2  504  501  0.48826319737E+01  0.11024849537E+03  0.25377413775E+03  0.27673070631E+03  0.00000000000E+00 0.  1.
<mgrwt>
<rscale>  2 0.11035656E+03</rscale>
<asrwt>0</asrwt>
<pdfrwt beam="1">  1       21 0.46741984E-01 0.11035656E+03</pdfrwt>
<pdfrwt beam="2">  1       21 0.13910063E-01 0.11035656E+03</pdfrwt>
<totfact> 0.20169873E+05</totfact>
</mgrwt>
</event>
<event>
 4    1  0.6052129E+003  0.1103393E+03  0.7546771E-02  0.1259943E+00
         21   -1    0    0  503  501  0.00000000000E+00  0.00000000000E+00  0.67894813608E+02  0.67894813608E+02  0.00000000000E+00 0. -1.
         21   -1    0    0  504  502 -0.00000000000E+00 -0.00000000000E+00 -0.18828652568E+03  0.18828652568E+03  0.00000000000E+00 0. -1.
         21    1    1    2  503  502 -0.50545291174E+02  0.98081263700E+02 -0.32240249717E+02  0.11495300975E+03  0.00000000000E+00 0. -1.
         21    1    1    2  504  501  0.50545291174E+02 -0.98081263700E+02 -0.88151462356E+02  0.14122832954E+03  0.00000000000E+00 0. -1.
<mgrwt>
<rscale>  2 0.11033930E+03</rscale>
<asrwt>0</asrwt>
<pdfrwt beam="1">  1       21 0.10445356E-01 0.11033930E+03</pdfrwt>
<pdfrwt beam="2">  1       21 0.28967158E-01 0.11033930E+03</pdfrwt>
<totfact> 0.85850241E+05</totfact>
</mgrwt>
</event>
<event>
 4    1  0.6052129E+003  0.1118629E+03  0.7546771E-02  0.1257158E+00
         21   -1    0    0  502  501  0.00000000000E+00  0.00000000000E+00  0.22104601912E+03  0.22104601912E+03  0.00000000000E+00 0. -1.
         21   -1    0    0  504  502 -0.00000000000E+00 -0.00000000000E+00 -0.56812528922E+02  0.56812528922E+02  0.00000000000E+00 0. -1.
         21    1    1    2  503  501 -0.94179854144E+02 -0.60361136241E+02  0.73812189046E+02  0.13402071089E+03  0.00000000000E+00 0. -1.
         21    1    1    2  504  503  0.94179854144E+02  0.60361136241E+02  0.90421301151E+02  0.14383783715E+03  0.00000000000E+00 0. -1.
<mgrwt>
<rscale>  2 0.11186291E+03</rscale>
<asrwt>0</asrwt>
<pdfrwt beam="1">  1       21 0.34007079E-01 0.11186291E+03</pdfrwt>
<pdfrwt beam="2">  1       21 0.87403892E-02 0.11186291E+03</pdfrwt>
<totfact> 0.85842654E+05</totfact>
</mgrwt>
</event>
<event>
 4    1  0.6052129E+003  0.1492723E+03  0.7546771E-02  0.1201370E+00
         21   -1    0    0  502  501  0.00000000000E+00  0.00000000000E+00  0.24111298710E+03  0.24111298710E+03  0.00000000000E+00 0.  1.
         21   -1    0    0  503  502 -0.00000000000E+00 -0.00000000000E+00 -0.31179093726E+03  0.31179093726E+03  0.00000000000E+00 0. -1.
         21    1    1    2  503  504 -0.13293580636E+03 -0.67899075931E+02 -0.26722972638E+03  0.30609465821E+03  0.00000000000E+00 0. -1.
         21    1    1    2  504  501  0.13293580636E+03  0.67899075931E+02  0.19655177622E+03  0.24680926615E+03  0.00000000000E+00 0.  1.
<mgrwt>
<rscale>  2 0.14927228E+03</rscale>
<asrwt>0</asrwt>
<pdfrwt beam="1">  1       21 0.37094306E-01 0.14927228E+03</pdfrwt>
<pdfrwt beam="2">  1       21 0.47967836E-01 0.14927228E+03</pdfrwt>
<totfact> 0.29838813E+04</totfact>
</mgrwt>
</event>
<event>
 4    1  0.6052129E+003  0.1323665E+03  0.7546771E-02  0.1223986E+00
         21   -1    0    0  503  501  0.00000000000E+00  0.00000000000E+00  0.31517444206E+03  0.31517444206E+03  0.00000000000E+00 0.  1.
         21   -1    0    0  504  502 -0.00000000000E+00 -0.00000000000E+00 -0.55881854709E+02  0.55881854709E+02  0.00000000000E+00 0.  1.
         21    1    1    2  503  502 -0.90336139112E+02 -0.96748509931E+02  0.14302893583E+03  0.19487988272E+03  0.00000000000E+00 0.  1.
         21    1    1    2  504  501  0.90336139112E+02  0.96748509931E+02  0.11626365152E+03  0.17617641405E+03  0.00000000000E+00 0.  1.
<mgrwt>
<rscale>  2 0.13236651E+03</rscale>
<asrwt>0</asrwt>
<pdfrwt beam="1">  1       21 0.48488375E-01 0.13236651E+03</pdfrwt>
<pdfrwt beam="2">  1       21 0.85972086E-02 0.13236651E+03</pdfrwt>
<totfact> 0.43408856E+05</totfact>
</mgrwt>
</event>
<event>
 4    1  0.6052129E+003  0.1231895E+03  0.7546771E-02  0.1237926E+00
         21   -1    0    0  503  501  0.00000000000E+00  0.00000000000E+00  0.32413413770E+03  0.32413413770E+03  0.00000000000E+00 0.  1.
         21   -1    0    0  504  502 -0.00000000000E+00 -0.00000000000E+00 -0.50015977489E+02  0.50015977489E+02  0.00000000000E+00 0.  1.
         21    1    1    2  503  502 -0.16666325464E+02 -0.12205694235E+03  0.18435520477E+03  0.22172619400E+03  0.00000000000E+00 0.  1.
         21    1    1    2  504  501  0.16666325464E+02  0.12205694235E+03  0.89762955437E+02  0.15242392118E+03  0.00000000000E+00 0.  1.
<mgrwt>
<rscale>  2 0.12318954E+03</rscale>
<asrwt>0</asrwt>
<pdfrwt beam="1">  1       21 0.49866789E-01 0.12318954E+03</pdfrwt>
<pdfrwt beam="2">  1       21 0.76947660E-02 0.12318954E+03</pdfrwt>
<totfact> 0.49660008E+05</totfact>
</mgrwt>
</event>
<event>
 4    1  0.6052129E+003  0.1755791E+03  0.7546771E-02  0.1172152E+00
         21   -1    0    0  504  501  0.00000000000E+00  0.00000000000E+00  0.64091993485E+03  0.64091993485E+03  0.00000000000E+00 0. -1.
         21   -1    0    0  501  502 -0.00000000000E+00 -0.00000000000E+00 -0.78347636424E+02  0.78347636424E+02  0.00000000000E+00 0. -1.
         21    1    1    2  503  502  0.17494576187E+03  0.14899744570E+02  0.57828205340E+02  0.18485703480E+03  0.00000000000E+00 0. -1.
         21    1    1    2  504  503 -0.17494576187E+03 -0.14899744570E+02  0.50474409308E+03  0.53441053647E+03  0.00000000000E+00 0. -1.
<mgrwt>
<rscale>  2 0.17557910E+03</rscale>
<asrwt>0</asrwt>
<pdfrwt beam="1">  1       21 0.98603064E-01 0.17557910E+03</pdfrwt>
<pdfrwt beam="2">  1       21 0.12053483E-01 0.17557910E+03</pdfrwt>
<totfact> 0.49836997E+04</totfact>
</mgrwt>
</event>
<event>
 4    1  0.6052129E+003  0.2511159E+03  0.7546771E-02  0.1112602E+00
         21   -1    0    0  503  501  0.00000000000E+00  0.00000000000E+00  0.54431210439E+03  0.54431210439E+03  0.00000000000E+00 0.  1.
         21   -1    0    0  504  502 -0.00000000000E+00 -0.00000000000E+00 -0.47144905761E+03  0.47144905761E+03  0.00000000000E+00 0. -1.
         21    1    1    2  503  502  0.25108987829E+03 -0.36182043417E+01  0.47751803854E+03  0.53952080174E+03  0.00000000000E+00 0.  1.
         21    1    1    2  504  501 -0.25108987829E+03  0.36182043417E+01 -0.40465499176E+03  0.47624036026E+03  0.00000000000E+00 0. -1.
<mgrwt>
<rscale>  2 0.25111595E+03</rscale>
<asrwt>0</asrwt>
<pdfrwt beam="1">  1       21 0.83740324E-01 0.25111595E+03</pdfrwt>
<pdfrwt beam="2">  1       21 0.72530624E-01 0.25111595E+03</pdfrwt>
<totfact> 0.20258322E+03</totfact>
</mgrwt>
</event>
<event>
 4    1  0.6052129E+003  0.1049539E+03  0.7546771E-02  0.1270211E+00
         21   -1    0    0  504  501  0.00000000000E+00  0.00000000000E+00  0.48528652027E+02  0.48528652027E+02  0.00000000000E+00 0.  1.
         21   -1    0    0  503  502 -0.00000000000E+00 -0.00000000000E+00 -0.36108260763E+03  0.36108260763E+03  0.00000000000E+00 0.  1.
         21    1    1    2  503  501  0.20978465080E+02 -0.10283586484E+03 -0.31467389073E+02  0.10956964758E+03  0.00000000000E+00 0.  1.
         21    1    1    2  504  502 -0.20978465080E+02  0.10283586484E+03 -0.28108656653E+03  0.30004161208E+03  0.00000000000E+00 0.  1.
<mgrwt>
<rscale>  2 0.10495385E+03</rscale>
<asrwt>0</asrwt>
<pdfrwt beam="1">  1       21 0.74659467E-02 0.10495385E+03</pdfrwt>
<pdfrwt beam="2">  1       21 0.55551169E-01 0.10495385E+03</pdfrwt>
<totfact> 0.41892749E+05</totfact>
</mgrwt>
</event>
<event>
 4    1  0.6052129E+003  0.1070705E+03  0.7546771E-02  0.1266093E+00
         21   -1    0    0  504  501  0.00000000000E+00  0.00000000000E+00  0.16569345307E+03  0.16569345307E+03  0.00000000000E+00 0. -1.
         21   -1    0    0  503  502 -0.00000000000E+00 -0.00000000000E+00 -0.15529080929E+03  0.15529080929E+03  0.00000000000E+00 0. -1.
         21    1    1    2  503  501  0.10835923670E+01  0.10706498597E+03 -0.11430426462E+03  0.15661912496E+03  0.00000000000E+00 0. -1.
         21    1    1    2  504  502 -0.10835923670E+01 -0.10706498597E+03  0.12470690839E+03  0.16436513740E+03  0.00000000000E+00 0. -1.
<mgrwt>
<rscale>  2 0.10707047E+03</rscale>
<asrwt>0</asrwt>
<pdfrwt beam="1">  1       21 0.25491300E-01 0.10707047E+03</pdfrwt>
<pdfrwt beam="2">  1       21 0.23890894E-01 0.10707047E+03</pdfrwt>
<totfact> 0.24593096E+05</totfact>
</mgrwt>
</event>
<event>
 4    1  0.6052129E+003  0.1715398E+03  0.7546771E-02  0.1176252E+00
         21   -1    0    0  504  501  0.00000000000E+00  0.00000000000E+00  0.33598879821E+03  0.33598879821E+03  0.00000000000E+00 0.  1.
         21   -1    0    0  503  502 -0.00000000000E+00 -0.00000000000E+00 -0.94604857444E+02  0.94604857444E+02  0.00000000000E+00 0.  1.
         21    1    1    2  503  501 -0.14482963719E+03 -0.91925359868E+02  0.62024146548E+02  0.18240858080E+03  0.00000000000E+00 0.  1.
         21    1    1    2  504  502  0.14482963719E+03  0.91925359868E+02  0.17935979421E+03  0.24818507485E+03  0.00000000000E+00 0.  1.
<mgrwt>
<rscale>  2 0.17153978E+03</rscale>
<asrwt>0</asrwt>
<pdfrwt beam="1">  1       21 0.51690584E-01 0.17153978E+03</pdfrwt>
<pdfrwt beam="2">  1       21 0.14554594E-01 0.17153978E+03</pdfrwt>
<totfact> 0.14833784E+05</totfact>
</mgrwt>
</event>
<event>
 4    1  0.6052129E+003  0.1004187E+03  0.7546771E-02  0.1279418E+00
         21   -1    0    0  504  501  0.00000000000E+00  0.00000000000E+00  0.15285268543E+02  0.15285268543E+02  0.00000000000E+00 0.  1.
         21   -1    0    0  503  502 -0.00000000000E+00 -0.00000000000E+00 -0.67345794556E+03  0.67345794556E+03  0.00000000000E+00 0.  1.
         21    1    1    2  503  501 -0.16337072154E+02  0.99080874251E+02 -0.37828048428E+03  0.39138222284E+03  0.00000000000E+00 0.  1.
         21    1    1    2  504  502  0.16337072154E+02 -0.99080874251E+02 -0.27989219274E+03  0.29736099126E+03  0.00000000000E+00 0.  1.
<mgrwt>
<rscale>  2 0.10041872E+03</rscale>
<asrwt>0</asrwt>
<pdfrwt beam="1">  1       21 0.23515798E-02 0.10041872E+03</pdfrwt>
<pdfrwt beam="2">  1       21 0.10360891E+00 0.10041872E+03</pdfrwt>
<totfact> 0.72060569E+05</totfact>
</mgrwt>
</event>
<event>
 4    1  0.6052129E+003  0.1193483E+03  0.7546771E-02  0.1244176E+00
         21   -1    0    0  503  501  0.00000000000E+00  0.00000000000E+00  0.17583886299E+04  0.17583886299E+04  0.00000000000E+00 0.  1.
         21   -1    0    0  504  502 -0.00000000000E+00 -0.00000000000E+00 -0.89591268421E+03  0.89591268421E+03  0.00000000000E+00 0. -1.
         21    1    1    2  503  502  0.11694342177E+03  0.23837933395E+02 -0.88989918833E+03  0.89786668073E+03  0.00000000000E+00 0. -1.
         21    1    1    2  504  501 -0.11694342177E+03 -0.23837933395E+02  0.17523751341E+04  0.17564346334E+04  0.00000000000E+00 0.  1.
<mgrwt>
<rscale>  2 0.11934828E+03</rscale>
<asrwt>0</asrwt>
<pdfrwt beam="1">  1       21 0.27052133E+00 0.11934828E+03</pdfrwt>
<pdfrwt beam="2">  1       21 0.13783272E+00 0.11934828E+03</pdfrwt>
<totfact> 0.22277499E+01</totfact>
</mgrwt>
</event>
<event>
 4    1  0.6052129E+003  0.1513537E+03  0.7546771E-02  0.1198819E+00
         21   -1    0    0  504  501  0.00000000000E+00  0.00000000000E+00  0.30209203893E+03  0.30209203893E+03  0.00000000000E+00 0. -1.
         21   -1    0    0  503  502 -0.00000000000E+00 -0.00000000000E+00 -0.89107766440E+02  0.89107766440E+02  0.00000000000E+00 0. -1.
         21    1    1    2  503  501 -0.12310503082E+02  0.15085217724E+03  0.18199401284E+03  0.23670603832E+03  0.00000000000E+00 0. -1.
         21    1    1    2  504  502  0.12310503082E+02 -0.15085217724E+03  0.30990259642E+02  0.15449376705E+03  0.00000000000E+00 0. -1.
<mgrwt>
<rscale>  2 0.15135365E+03</rscale>
<asrwt>0</asrwt>
<pdfrwt beam="1">  1       21 0.46475698E-01 0.15135365E+03</pdfrwt>
<pdfrwt beam="2">  1       21 0.13708887E-01 0.15135365E+03</pdfrwt>
<totfact> 0.20720209E+05</totfact>
</mgrwt>
</event>
<event>
 4    1  0.6052129E+003  0.1315116E+03  0.7546771E-02  0.1225230E+00
         21   -1    0    0  503  501  0.00000000000E+00  0.00000000000E+00  0.23223286398E+03  0.23223286398E+03  0.00000000000E+00 0.  1.
         21   -1    0    0  501  502 -0.00000000000E+00 -0.00000000000E+00 -0.65642388561E+03  0.65642388561E+03  0.00000000000E+00 0.  1.
         21    1    1    2  503  504 -0.75589083673E+02  0.10761776771E+03  0.20626884977E+03  0.24462651509E+03  0.00000000000E+00 0.  1.
         21    1    1    2  504  502  0.75589083673E+02 -0.10761776771E+03 -0.63045987141E+03  0.64403023450E+03  0.00000000000E+00 0.  1.
<mgrwt>
<rscale>  2 0.13151157E+03</rscale>
<asrwt>0</asrwt>
<pdfrwt beam="1">  1       21 0.35728132E-01 0.13151157E+03</pdfrwt>
<pdfrwt beam="2">  1       21 0.10098829E+00 0.13151157E+03</pdfrwt>
<totfact> 0.63838473E+03</totfact>
</mgrwt>
</event>
<event>
 4    1  0.6052129E+003  0.1032176E+03  0.7546771E-02  0.1273672E+00
         21   -1    0    0  503  501  0.00000000000E+00  0.00000000000E+00  0.20271582130E+02  0.20271582130E+02  0.00000000000E+00 0. -1.
         21   -1    0    0  501  502 -0.00000000000E+00 -0.00000000000E+00 -0.17138148515E+04  0.17138148515E+04  0.00000000000E+00 0. -1.
         21    1    1    2  503  504  0.39946207071E+02  0.95174432599E+02 -0.12480996854E+03  0.16196110745E+03  0.00000000000E+00 0. -1.
         21    1    1    2  504  502 -0.39946207071E+02 -0.95174432599E+02 -0.15687333008E+04  0.15721253261E+04  0.00000000000E+00 0. -1.
<mgrwt>
<rscale>  2 0.10321760E+03</rscale>
<asrwt>0</asrwt>
<pdfrwt beam="1">  1       21 0.31187040E-02 0.10321760E+03</pdfrwt>
<pdfrwt beam="2">  1       21 0.26366391E+00 0.10321760E+03</pdfrwt>
<totfact> 0.36064149E+04</totfact>
</mgrwt>
</event>
<event>
 4    1  0.6052129E+003  0.1439021E+03  0.7546771E-02  0.1208173E+00
         21   -1    0    0  504  501  0.00000000000E+00  0.00000000000E+00  0.73162294914E+03  0.73162294914E+03  0.00000000000E+00 0. -1.
         21   -1    0    0  503  502 -0.00000000000E+00 -0.00000000000E+00 -0.18381695637E+03  0.18381695637E+03  0.00000000000E+00 0.  1.
         21    1    1    2  503  501 -0.12528755487E+03 -0.70787344579E+02 -0.14710507041E+03  0.20578561976E+03  0.00000000000E+00 0.  1.
         21    1    1    2  504  502  0.12528755487E+03  0.70787344579E+02  0.69491106318E+03  0.70965428575E+03  0.00000000000E+00 0. -1.
<mgrwt>
<rscale>  2 0.14390212E+03</rscale>
<asrwt>0</asrwt>
<pdfrwt beam="1">  1       21 0.11255738E+00 0.14390212E+03</pdfrwt>
<pdfrwt beam="2">  1       21 0.28279532E-01 0.14390212E+03</pdfrwt>
<totfact> 0.76813813E+03</totfact>
</mgrwt>
</event>
<event>
 4    1  0.6052129E+003  0.1075868E+03  0.7546771E-02  0.1265105E+00
         21   -1    0    0  503  501  0.00000000000E+00  0.00000000000E+00  0.44916813421E+02  0.44916813421E+02  0.00000000000E+00 0.  1.
         21   -1    0    0  504  502 -0.00000000000E+00 -0.00000000000E+00 -0.25862064332E+03  0.25862064332E+03  0.00000000000E+00 0.  1.
         21    1    1    2  503  502 -0.95355103640E+02 -0.49822862857E+02 -0.11592341966E+03  0.15815546996E+03  0.00000000000E+00 0.  1.
         21    1    1    2  504  501  0.95355103640E+02  0.49822862857E+02 -0.97780410244E+02  0.14538198678E+03  0.00000000000E+00 0.  1.
<mgrwt>
<rscale>  2 0.10758677E+03</rscale>
<asrwt>0</asrwt>
<pdfrwt beam="1">  1       21 0.69102791E-02 0.10758677E+03</pdfrwt>
<pdfrwt beam="2">  1       21 0.39787791E-01 0.10758677E+03</pdfrwt>
<totfact> 0.94246597E+05</totfact>
</mgrwt>
</event>
<event>
 4    1  0.6052129E+003  0.1198610E+03  0.7546771E-02  0.1243327E+00
         21   -1    0    0  504  501  0.00000000000E+00  0.00000000000E+00  0.40905895372E+03  0.40905895372E+03  0.00000000000E+00 0. -1.
         21   -1    0    0  503  502 -0.00000000000E+00 -0.00000000000E+00 -0.20204165177E+03  0.20204165177E+03  0.00000000000E+00 0.  1.
         21    1    1    2  503  501 -0.11794399776E+03 -0.21351225021E+02  0.38123492967E+03  0.39963324814E+03  0.00000000000E+00 0. -1.
         21    1    1    2  504  502  0.11794399776E+03  0.21351225021E+02 -0.17421762771E+03  0.21146735735E+03  0.00000000000E+00 0.  1.
<mgrwt>
<rscale>  2 0.11986101E+03</rscale>
<asrwt>0</asrwt>
<pdfrwt beam="1">  1       21 0.62932146E-01 0.11986101E+03</pdfrwt>
<pdfrwt beam="2">  1       21 0.31083331E-01 0.11986101E+03</pdfrwt>
<totfact> 0.24348779E+04</totfact>
</mgrwt>
</event>
<event>
 4    1  0.6052129E+003  0.1571521E+03  0.7546771E-02  0.1191950E+00
         21   -1    0    0  503  501  0.00000000000E+00  0.00000000000E+00  0.73616576881E+02  0.73616576881E+02  0.00000000000E+00 0. -1.
         21   -1    0    0  504  502 -0.00000000000E+00 -0.00000000000E+00 -0.37837733253E+03  0.37837733253E+03  0.00000000000E+00 0.  1.
         21    1    1    2  503  502  0.82055142089E+02 -0.13402889267E+03 -0.76284353280E+02  0.17468855993E+03  0.00000000000E+00 0. -1.
         21    1    1    2  504  501 -0.82055142089E+02  0.13402889267E+03 -0.22847640237E+03  0.27730534948E+03  0.00000000000E+00 0.  1.
<mgrwt>
<rscale>  2 0.15715213E+03</rscale>
<asrwt>0</asrwt>
<pdfrwt beam="1">  1       21 0.11325627E-01 0.15715213E+03</pdfrwt>
<pdfrwt beam="2">  1       21 0.58211898E-01 0.15715213E+03</pdfrwt>
<totfact> 0.18189855E+05</totfact>
</mgrwt>
</event>
<event>
 4    1  0.6052129E+003  0.1187330E+03  0.7546771E-02  0.1245202E+00
         21   -1    0    0  504  501  0.00000000000E+00  0.00000000000E+00  0.42618359686E+03  0.42618359686E+03  0.00000000000E+00 0. -1.
         21   -1    0    0  501  502 -0.00000000000E+00 -0.00000000000E+00 -0.70764509240E+02  0.70764509240E+02  0.00000000000E+00 0.  1.
         21    1    1    2  503  502  0.10221526831E+03 -0.60411633893E+02 -0.36177587628E+01  0.11878810868E+03  0.00000000000E+00 0.  1.
         21    1    1    2  504  503 -0.10221526831E+03  0.60411633893E+02  0.35903684638E+03  0.37815999741E+03  0.00000000000E+00 0. -1.
<mgrwt>
<rscale>  2 0.11873301E+03</rscale>
<asrwt>0</asrwt>
<pdfrwt beam="1">  1       21 0.65566706E-01 0.11873301E+03</pdfrwt>
<pdfrwt beam="2">  1       21 0.10886848E-01 0.11873301E+03</pdfrwt>
<totfact> 0.15300023E+05</totfact>
</mgrwt>
</event>
<event>
 4    1  0.6052129E+003  0.1029266E+03  0.7546771E-02  0.1274259E+00
         21   -1    0    0  504  501  0.00000000000E+00  0.00000000000E+00  0.43192584221E+03  0.43192584221E+03  0.00000000000E+00 0.  1.
         21   -1    0    0  503  502 -0.00000000000E+00 -0.00000000000E+00 -0.25777328412E+02  0.25777328412E+02  0.00000000000E+00 0.  1.
         21    1    1    2  503  501 -0.10292447360E+03  0.66158309087E+00  0.25347431173E+03  0.27357469120E+03  0.00000000000E+00 0.  1.
         21    1    1    2  504  502  0.10292447360E+03 -0.66158309087E+00  0.15267420207E+03  0.18412847942E+03  0.00000000000E+00 0.  1.
<mgrwt>
<rscale>  2 0.10292660E+03</rscale>
<asrwt>0</asrwt>
<pdfrwt beam="1">  1       21 0.66450125E-01 0.10292660E+03</pdfrwt>
<pdfrwt beam="2">  1       21 0.39657431E-02 0.10292660E+03</pdfrwt>
<totfact> 0.82938327E+05</totfact>
</mgrwt>
</event>
<event>
 4    1  0.6052129E+003  0.1387240E+03  0.7546771E-02  0.1215056E+00
         21   -1    0    0  504  501  0.00000000000E+00  0.00000000000E+00  0.30602253100E+03  0.30602253100E+03  0.00000000000E+00 0. -1.
         21   -1    0    0  503  502 -0.00000000000E+00 -0.00000000000E+00 -0.13482690937E+03  0.13482690937E+03  0.00000000000E+00 0.  1.
         21    1    1    2  503  501  0.40013933065E+02  0.13282781585E+03 -0.75415521429E+02  0.15789820891E+03  0.00000000000E+00 0.  1.
         21    1    1    2  504  502 -0.40013933065E+02 -0.13282781585E+03  0.24661114307E+03  0.28295123147E+03  0.00000000000E+00 0. -1.
<mgrwt>
<rscale>  2 0.13872398E+03</rscale>
<asrwt>0</asrwt>
<pdfrwt beam="1">  1       21 0.47080389E-01 0.13872398E+03</pdfrwt>
<pdfrwt beam="2">  1       21 0.20742602E-01 0.13872398E+03</pdfrwt>
<totfact> 0.95081095E+04</totfact>
</mgrwt>
</event>
<event>
 4    1  0.6052129E+003  0.1143650E+03  0.7546771E-02  0.1252694E+00
         21   -1    0    0  503  501  0.00000000000E+00  0.00000000000E+00  0.70240532533E+03  0.70240532533E+03  0.00000000000E+00 0.  1.
         21   -1    0    0  504  502 -0.00000000000E+00 -0.00000000000E+00 -0.27715975234E+02  0.27715975234E+02  0.00000000000E+00 0.  1.
         21    1    1    2  503  502 -0.87122086808E+02  0.74088383373E+02  0.12821986383E+03  0.17181292164E+03  0.00000000000E+00 0.  1.
         21    1    1    2  504  501  0.87122086808E+02 -0.74088383373E+02  0.54646948627E+03  0.55830837893E+03  0.00000000000E+00 0.  1.
<mgrwt>
<rscale>  2 0.11436497E+03</rscale>
<asrwt>0</asrwt>
<pdfrwt beam="1">  1       21 0.10806234E+00 0.11436497E+03</pdfrwt>
<pdfrwt beam="2">  1       21 0.42639968E-02 0.11436497E+03</pdfrwt>
<totfact> 0.24570920E+05</totfact>
</mgrwt>
</event>
<event>
 4    1  0.6052129E+003  0.1080858E+03  0.7546771E-02  0.1264156E+00
         21   -1    0    0  503  501  0.00000000000E+00  0.00000000000E+00  0.30939835215E+03  0.30939835215E+03  0.00000000000E+00 0. -1.
         21   -1    0    0  504  502 -0.00000000000E+00 -0.00000000000E+00 -0.60231572715E+02  0.60231572715E+02  0.00000000000E+00 0.  1.
         21    1    1    2  503  502  0.10668867929E+03  0.17322569063E+02  0.11694225563E+02  0.10871660683E+03  0.00000000000E+00 0.  1.
         21    1    1    2  504  501 -0.10668867929E+03 -0.17322569063E+02  0.23747255387E+03  0.26091331804E+03  0.00000000000E+00 0. -1.
<mgrwt>
<rscale>  2 0.10808583E+03</rscale>
<asrwt>0</asrwt>
<pdfrwt beam="1">  1       21 0.47599746E-01 0.10808583E+03</pdfrwt>
<pdfrwt beam="2">  1       21 0.92663960E-02 0.10808583E+03</pdfrwt>
<totfact> 0.39707461E+05</totfact>
</mgrwt>
</event>
<event>
 4    1  0.6052129E+003  0.1034586E+03  0.7546771E-02  0.1273187E+00
         21   -1    0    0  503  501  0.00000000000E+00  0.00000000000E+00  0.63397318642E+02  0.63397318642E+02  0.00000000000E+00 0.  1.
         21   -1    0    0  501  502 -0.00000000000E+00 -0.00000000000E+00 -0.27049090974E+03  0.27049090974E+03  0.00000000000E+00 0.  1.
         21    1    1    2  503  504 -0.91930035451E+02 -0.47461004216E+02 -0.12030379008E+01  0.10346557707E+03  0.00000000000E+00 0.  1.
         21    1    1    2  504  502  0.91930035451E+02  0.47461004216E+02 -0.20589055319E+03  0.23042265130E+03  0.00000000000E+00 0.  1.
<mgrwt>
<rscale>  2 0.10345858E+03</rscale>
<asrwt>0</asrwt>
<pdfrwt beam="1">  1       21 0.97534338E-02 0.10345858E+03</pdfrwt>
<pdfrwt beam="2">  1       21 0.41613985E-01 0.10345858E+03</pdfrwt>
<totfact> 0.47666161E+05</totfact>
</mgrwt>
</event>
<event>
 4    1  0.6052129E+003  0.1798003E+03  0.7546771E-02  0.1167996E+00
         21   -1    0    0  503  501  0.00000000000E+00  0.00000000000E+00  0.14107555310E+03  0.14107555310E+03  0.00000000000E+00 0.  1.
         21   -1    0    0  501  502 -0.00000000000E+00 -0.00000000000E+00 -0.26869364059E+03  0.26869364059E+03  0.00000000000E+00 0.  1.
         21    1    1    2  503  504 -0.12873103313E+03  0.12552480123E+03  0.14785431351E+02  0.18040721603E+03  0.00000000000E+00 0.  1.
         21    1    1    2  504  502  0.12873103313E+03 -0.12552480123E+03 -0.14240351884E+03  0.22936197766E+03  0.00000000000E+00 0.  1.
<mgrwt>
<rscale>  2 0.17980032E+03</rscale>
<asrwt>0</asrwt>
<pdfrwt beam="1">  1       21 0.21703932E-01 0.17980032E+03</pdfrwt>
<pdfrwt beam="2">  1       21 0.41337482E-01 0.17980032E+03</pdfrwt>
<totfact> 0.11211189E+05</totfact>
</mgrwt>
</event>
<event>
 4    1  0.6052129E+003  0.1037077E+03  0.7546771E-02  0.1272687E+00
         21   -1    0    0  502  501  0.00000000000E+00  0.00000000000E+00  0.22837468897E+02  0.22837468897E+02  0.00000000000E+00 0.  1.
         21   -1    0    0  503  502 -0.00000000000E+00 -0.00000000000E+00 -0.13375290642E+04  0.13375290642E+04  0.00000000000E+00 0. -1.
         21    1    1    2  503  504 -0.86245971587E+02  0.57592734205E+02 -0.12048388269E+04  0.12092939632E+04  0.00000000000E+00 0. -1.
         21    1    1    2  504  501  0.86245971587E+02 -0.57592734205E+02 -0.10985276842E+03  0.15107256990E+03  0.00000000000E+00 0.  1.
<mgrwt>
<rscale>  2 0.10370772E+03</rscale>
<asrwt>0</asrwt>
<pdfrwt beam="1">  1       21 0.35134562E-02 0.10370772E+03</pdfrwt>
<pdfrwt beam="2">  1       21 0.20577373E+00 0.10370772E+03</pdfrwt>
<totfact> 0.64207611E+04</totfact>
</mgrwt>
</event>
<event>
 4    1  0.6052129E+003  0.1138665E+03  0.7546771E-02  0.1253573E+00
         21   -1    0    0  503  501  0.00000000000E+00  0.00000000000E+00  0.17864281975E+03  0.17864281975E+03  0.00000000000E+00 0. -1.
         21   -1    0    0  504  502 -0.00000000000E+00 -0.00000000000E+00 -0.44067275633E+03  0.44067275633E+03  0.00000000000E+00 0.  1.
         21    1    1    2  503  502  0.51937013576E+02  0.10133171625E+03 -0.41402616482E+03  0.42939869033E+03  0.00000000000E+00 0.  1.
         21    1    1    2  504  501 -0.51937013576E+02 -0.10133171625E+03  0.15199622824E+03  0.18991688576E+03  0.00000000000E+00 0. -1.
<mgrwt>
<rscale>  2 0.11386646E+03</rscale>
<asrwt>0</asrwt>
<pdfrwt beam="1">  1       21 0.27483511E-01 0.11386646E+03</pdfrwt>
<pdfrwt beam="2">  1       21 0.67795809E-01 0.11386646E+03</pdfrwt>
<totfact> 0.26397762E+04</totfact>
</mgrwt>
</event>
<event>
 4    1  0.6052129E+003  0.1342349E+03  0.7546771E-02  0.1221304E+00
         21   -1    0    0  504  501  0.00000000000E+00  0.00000000000E+00  0.22527986856E+03  0.22527986856E+03  0.00000000000E+00 0.  1.
         21   -1    0    0  503  502 -0.00000000000E+00 -0.00000000000E+00 -0.26923534188E+03  0.26923534188E+03  0.00000000000E+00 0.  1.
         21    1    1    2  503  501 -0.11763267094E+03  0.64664924312E+02  0.18532356306E+03  0.22883142427E+03  0.00000000000E+00 0.  1.
         21    1    1    2  504  502  0.11763267094E+03 -0.64664924312E+02 -0.22927903638E+03  0.26568378616E+03  0.00000000000E+00 0.  1.
<mgrwt>
<rscale>  2 0.13423486E+03</rscale>
<asrwt>0</asrwt>
<pdfrwt beam="1">  1       21 0.34658442E-01 0.13423486E+03</pdfrwt>
<pdfrwt beam="2">  1       21 0.41420822E-01 0.13423486E+03</pdfrwt>
<totfact> 0.46387404E+04</totfact>
</mgrwt>
</event>
<event>
 4    1  0.6052129E+003  0.1000565E+03  0.7546771E-02  0.1280177E+00
         21   -1    0    0  504  501  0.00000000000E+00  0.00000000000E+00  0.43745817966E+03  0.43745817966E+03  0.00000000000E+00 0. -1.
         21   -1    0    0  503  502 -0.00000000000E+00 -0.00000000000E+00 -0.30240741191E+02  0.30240741191E+02  0.00000000000E+00 0. -1.
         21    1    1    2  503  501 -0.39765062449E+02  0.91815301994E+02  0.31894023940E+03  0.33426663935E+03  0.00000000000E+00 0. -1.
         21    1    1    2  504  502  0.39765062449E+02 -0.91815301994E+02  0.88277199067E+02  0.13343228150E+03  0.00000000000E+00 0. -1.
<mgrwt>
<rscale>  2 0.10005653E+03</rscale>
<asrwt>0</asrwt>
<pdfrwt beam="1">  1       21 0.67301254E-01 0.10005653E+03</pdfrwt>
<pdfrwt beam="2">  1       21 0.46524220E-02 0.10005653E+03</pdfrwt>
<totfact> 0.61935872E+05</totfact>
</mgrwt>
</event>
<event>
 4    1  0.6052129E+003  0.1078576E+03  0.7546771E-02  0.1264590E+00
         21   -1    0    0  502  501  0.00000000000E+00  0.00000000000E+00  0.30991274620E+03  0.30991274620E+03  0.00000000000E+00 0. -1.
         21   -1    0    0  504  502 -0.00000000000E+00 -0.00000000000E+00 -0.14135324673E+03  0.14135324673E+03  0.00000000000E+00 0. -1.
         21    1    1    2  503  501 -0.94511686312E+02 -0.51969154848E+02  0.27764658662E+03  0.29786050253E+03  0.00000000000E+00 0. -1.
         21    1    1    2  504  503  0.94511686312E+02  0.51969154848E+02 -0.10908708714E+03  0.15340549040E+03  0.00000000000E+00 0. -1.
<mgrwt>
<rscale>  2 0.10785755E+03</rscale>
<asrwt>0</asrwt>
<pdfrwt beam="1">  1       21 0.47678884E-01 0.10785755E+03</pdfrwt>
<pdfrwt beam="2">  1       21 0.21746653E-01 0.10785755E+03</pdfrwt>
<totfact> 0.86054531E+04</totfact>
</mgrwt>
</event>
<event>
 4    1  0.6052129E+003  0.1108644E+03  0.7546771E-02  0.1258977E+00
         21   -1    0    0  504  501  0.00000000000E+00  0.00000000000E+00  0.12661061315E+03  0.12661061315E+03  0.00000000000E+00 0. -1.
         21   -1    0    0  503  502 -0.00000000000E+00 -0.00000000000E+00 -0.86875674450E+03  0.86875674450E+03  0.00000000000E+00 0.  1.
         21    1    1    2  503  501 -0.11022690446E+03 -0.11872226176E+02 -0.84012721689E+03  0.84741056211E+03  0.00000000000E+00 0.  1.
         21    1    1    2  504  502  0.11022690446E+03  0.11872226176E+02  0.97981085537E+02  0.14795679553E+03  0.00000000000E+00 0. -1.
<mgrwt>
<rscale>  2 0.11086442E+03</rscale>
<asrwt>0</asrwt>
<pdfrwt beam="1">  1       21 0.19478556E-01 0.11086442E+03</pdfrwt>
<pdfrwt beam="2">  1       21 0.13365488E+00 0.11086442E+03</pdfrwt>
<totfact> 0.10492008E+04</totfact>
</mgrwt>
</event>
<event>
 4    1  0.6052129E+003  0.1824094E+03  0.7546771E-02  0.1165491E+00
         21   -1    0    0  504  501  0.00000000000E+00  0.00000000000E+00  0.12606347954E+04  0.12606347954E+04  0.00000000000E+00 0.  1.
         21   -1    0    0  503  502 -0.00000000000E+00 -0.00000000000E+00 -0.28087577451E+02  0.28087577451E+02  0.00000000000E+00 0.  1.
         21    1    1    2  503  501  0.16513385010E+03  0.77485467330E+02  0.77449880652E+03  0.79568937871E+03  0.00000000000E+00 0.  1.
         21    1    1    2  504  502 -0.16513385010E+03 -0.77485467330E+02  0.45804841141E+03  0.49303299412E+03  0.00000000000E+00 0.  1.
<mgrwt>
<rscale>  2 0.18240939E+03</rscale>
<asrwt>0</asrwt>
<pdfrwt beam="1">  1       21 0.19394377E+00 0.18240939E+03</pdfrwt>
<pdfrwt beam="2">  1       21 0.43211667E-02 0.18240939E+03</pdfrwt>
<totfact> 0.50911465E+04</totfact>
</mgrwt>
</event>
<event>
 4    1  0.6052129E+003  0.1146340E+03  0.7546771E-02  0.1252221E+00
         21   -1    0    0  504  501  0.00000000000E+00  0.00000000000E+00  0.21542285559E+03  0.21542285559E+03  0.00000000000E+00 0.  1.
         21   -1    0    0  501  502 -0.00000000000E+00 -0.00000000000E+00 -0.65598412754E+02  0.65598412754E+02  0.00000000000E+00 0. -1.
         21    1    1    2  503  502 -0.33777484118E+02 -0.10954470903E+03  0.37713348664E+02  0.12067832604E+03  0.00000000000E+00 0. -1.
         21    1    1    2  504  503  0.33777484118E+02  0.10954470903E+03  0.11211109417E+03  0.16034294230E+03  0.00000000000E+00 0.  1.
<mgrwt>
<rscale>  2 0.11463403E+03</rscale>
<asrwt>0</asrwt>
<pdfrwt beam="1">  1       21 0.33141977E-01 0.11463403E+03</pdfrwt>
<pdfrwt beam="2">  1       21 0.10092064E-01 0.11463403E+03</pdfrwt>
<totfact> 0.70323447E+05</totfact>
</mgrwt>
</event>
<event>
 4    1  0.6052129E+003  0.1210664E+03  0.7546771E-02  0.1241348E+00
         21   -1    0    0  503  501  0.00000000000E+00  0.00000000000E+00  0.31770310780E+02  0.31770310780E+02  0.00000000000E+00 0. -1.
         21   -1    0    0  504  502 -0.00000000000E+00 -0.00000000000E+00 -0.81665735117E+03  0.81665735117E+03  0.00000000000E+00 0. -1.
         21    1    1    2  503  502 -0.77700475553E+02  0.92842429720E+02 -0.11262921673E+03  0.16535543873E+03  0.00000000000E+00 0. -1.
         21    1    1    2  504  501  0.77700475553E+02 -0.92842429720E+02 -0.67225782367E+03  0.68307222322E+03  0.00000000000E+00 0. -1.
<mgrwt>
<rscale>  2 0.12106643E+03</rscale>
<asrwt>0</asrwt>
<pdfrwt beam="1">  1       21 0.48877404E-02 0.12106643E+03</pdfrwt>
<pdfrwt beam="2">  1       21 0.12563959E+00 0.12106643E+03</pdfrwt>
<totfact> 0.13565195E+05</totfact>
</mgrwt>
</event>
<event>
 4    1  0.6052129E+003  0.1012779E+03  0.7546771E-02  0.1277631E+00
         21   -1    0    0  502  501  0.00000000000E+00  0.00000000000E+00  0.24206822834E+03  0.24206822834E+03  0.00000000000E+00 0. -1.
         21   -1    0    0  504  502 -0.00000000000E+00 -0.00000000000E+00 -0.55665892685E+02  0.55665892685E+02  0.00000000000E+00 0. -1.
         21    1    1    2  503  501  0.37994074910E+02  0.93881151663E+02  0.16594723173E+03  0.19441117274E+03  0.00000000000E+00 0. -1.
         21    1    1    2  504  503 -0.37994074910E+02 -0.93881151663E+02  0.20455103921E+02  0.10332294828E+03  0.00000000000E+00 0. -1.
<mgrwt>
<rscale>  2 0.10127794E+03</rscale>
<asrwt>0</asrwt>
<pdfrwt beam="1">  1       21 0.37241266E-01 0.10127794E+03</pdfrwt>
<pdfrwt beam="2">  1       21 0.85639836E-02 0.10127794E+03</pdfrwt>
<totfact> 0.74367558E+05</totfact>
</mgrwt>
</event>
<event>
 4    1  0.6052129E+003  0.1253470E+03  0.7546771E-02  0.1234528E+00
         21   -1    0    0  503  501  0.00000000000E+00  0.00000000000E+00  0.59413689327E+03  0.59413689327E+03  0.00000000000E+00 0.  1.
         21   -1    0    0  504  502 -0.00000000000E+00 -0.00000000000E+00 -0.46243018431E+02  0.46243018431E+02  0.00000000000E+00 0. -1.
         21    1    1    2  503  502 -0.11787047669E+03  0.42642878850E+02  0.64440649351E+02  0.14094134128E+03  0.00000000000E+00 0. -1.
         21    1    1    2  504  501  0.11787047669E+03 -0.42642878850E+02  0.48345322549E+03  0.49943857043E+03  0.00000000000E+00 0.  1.
<mgrwt>
<rscale>  2 0.12534698E+03</rscale>
<asrwt>0</asrwt>
<pdfrwt beam="1">  1       21 0.91405671E-01 0.12534698E+03</pdfrwt>
<pdfrwt beam="2">  1       21 0.71143109E-02 0.12534698E+03</pdfrwt>
<totfact> 0.15265835E+05</totfact>
</mgrwt>
</event>
<event>
 4    1  0.6052129E+003  0.1605925E+03  0.7546771E-02  0.1188029E+00
         21   -1    0    0  504  501  0.00000000000E+00  0.00000000000E+00  0.11088993850E+03  0.11088993850E+03  0.00000000000E+00 0.  1.
         21   -1    0    0  503  502 -0.00000000000E+00 -0.00000000000E+00 -0.14064206027E+04  0.14064206027E+04  0.00000000000E+00 0.  1.
         21    1    1    2  503  501 -0.71128400346E+02 -0.14398157978E+03  0.45329770142E+02  0.16686741058E+03  0.00000000000E+00 0.  1.
         21    1    1    2  504  502  0.71128400346E+02  0.14398157978E+03 -0.13408604344E+04  0.13504431306E+04  0.00000000000E+00 0.  1.
<mgrwt>
<rscale>  2 0.16059248E+03</rscale>
<asrwt>0</asrwt>
<pdfrwt beam="1">  1       21 0.17059990E-01 0.16059248E+03</pdfrwt>
<pdfrwt beam="2">  1       21 0.21637241E+00 0.16059248E+03</pdfrwt>
<totfact> 0.33990560E+03</totfact>
</mgrwt>
</event>
<event>
 4    1  0.6052129E+003  0.1022384E+03  0.7546771E-02  0.1275658E+00
         21   -1    0    0  503  501  0.00000000000E+00  0.00000000000E+00  0.68586343032E+03  0.68586343032E+03  0.00000000000E+00 0. -1.
         21   -1    0    0  504  502 -0.00000000000E+00 -0.00000000000E+00 -0.16384282696E+02  0.16384282696E+02  0.00000000000E+00 0. -1.
         21    1    1    2  503  502  0.41512178817E+02  0.93431364925E+02  0.24195421410E+03  0.26266808459E+03  0.00000000000E+00 0. -1.
         21    1    1    2  504  501 -0.41512178817E+02 -0.93431364925E+02  0.42752493352E+03  0.43957962842E+03  0.00000000000E+00 0. -1.
<mgrwt>
<rscale>  2 0.10223835E+03</rscale>
<asrwt>0</asrwt>
<pdfrwt beam="1">  1       21 0.10551743E+00 0.10223835E+03</pdfrwt>
<pdfrwt beam="2">  1       21 0.25206594E-02 0.10223835E+03</pdfrwt>
<totfact> 0.61699249E+05</totfact>
</mgrwt>
</event>
<event>
 4    1  0.6052129E+003  0.1578126E+03  0.7546771E-02  0.1191189E+00
         21   -1    0    0  503  501  0.00000000000E+00  0.00000000000E+00  0.11381978045E+04  0.11381978045E+04  0.00000000000E+00 0. -1.
         21   -1    0    0  501  502 -0.00000000000E+00 -0.00000000000E+00 -0.60952364999E+02  0.60952364999E+02  0.00000000000E+00 0.  1.
         21    1    1    2  503  504 -0.15608780138E+03 -0.23268419422E+02  0.10186633578E+04  0.10308151423E+04  0.00000000000E+00 0. -1.
         21    1    1    2  504  502  0.15608780138E+03  0.23268419422E+02  0.58582081693E+02  0.16833502718E+03  0.00000000000E+00 0.  1.
<mgrwt>
<rscale>  2 0.15781261E+03</rscale>
<asrwt>0</asrwt>
<pdfrwt beam="1">  1       21 0.17510734E+00 0.15781261E+03</pdfrwt>
<pdfrwt beam="2">  1       21 0.93772878E-02 0.15781261E+03</pdfrwt>
<totfact> 0.18351477E+04</totfact>
</mgrwt>
</event>
<event>
 4    1  0.6052129E+003  0.1033364E+03  0.7546771E-02  0.1273432E+00
         21   -1    0    0  504  501  0.00000000000E+00  0.00000000000E+00  0.19709522239E+02  0.19709522239E+02  0.00000000000E+00 0. -1.
         21   -1    0    0  501  502 -0.00000000000E+00 -0.00000000000E+00 -0.13535328076E+04  0.13535328076E+04  0.00000000000E+00 0. -1.
         21    1    1    2  503  502  0.38968153372E+02 -0.95707322393E+02 -0.11986429126E+04  0.12030890410E+04  0.00000000000E+00 0. -1.
         21    1    1    2  504  503 -0.38968153372E+02  0.95707322393E+02 -0.13518037273E+03  0.17015328886E+03  0.00000000000E+00 0. -1.
<mgrwt>
<rscale>  2 0.10333639E+03</rscale>
<asrwt>0</asrwt>
<pdfrwt beam="1">  1       21 0.30322340E-02 0.10333639E+03</pdfrwt>
<pdfrwt beam="2">  1       21 0.20823583E+00 0.10333639E+03</pdfrwt>
<totfact> 0.78973285E+04</totfact>
</mgrwt>
</event>
<event>
 4    1  0.6052129E+003  0.1205185E+03  0.7546771E-02  0.1242244E+00
         21   -1    0    0  502  501  0.00000000000E+00  0.00000000000E+00  0.97014663955E+02  0.97014663955E+02  0.00000000000E+00 0. -1.
         21   -1    0    0  503  502 -0.00000000000E+00 -0.00000000000E+00 -0.21318627101E+03  0.21318627101E+03  0.00000000000E+00 0. -1.
         21    1    1    2  503  504 -0.14157007915E+02  0.11968413631E+03 -0.14271424473E+03  0.18679418890E+03  0.00000000000E+00 0. -1.
         21    1    1    2  504  501  0.14157007915E+02 -0.11968413631E+03  0.26542637681E+02  0.12340674606E+03  0.00000000000E+00 0. -1.
<mgrwt>
<rscale>  2 0.12051852E+03</rscale>
<asrwt>0</asrwt>
<pdfrwt beam="1">  1       21 0.14925333E-01 0.12051852E+03</pdfrwt>
<pdfrwt beam="2">  1       21 0.32797888E-01 0.12051852E+03</pdfrwt>
<totfact> 0.35874405E+05</totfact>
</mgrwt>
</event>
<event>
 4    1  0.6052129E+003  0.1029257E+03  0.7546771E-02  0.1274261E+00
         21   -1    0    0  504  501  0.00000000000E+00  0.00000000000E+00  0.30318190714E+03  0.30318190714E+03  0.00000000000E+00 0.  1.
         21   -1    0    0  503  502 -0.00000000000E+00 -0.00000000000E+00 -0.80405974888E+02  0.80405974888E+02  0.00000000000E+00 0.  1.
         21    1    1    2  503  501  0.10099955835E+03 -0.19819052813E+02  0.25560801216E+03  0.27555246601E+03  0.00000000000E+00 0.  1.
         21    1    1    2  504  502 -0.10099955835E+03  0.19819052813E+02 -0.32832079914E+02  0.10803541602E+03  0.00000000000E+00 0.  1.
<mgrwt>
<rscale>  2 0.10292573E+03</rscale>
<asrwt>0</asrwt>
<pdfrwt beam="1">  1       21 0.46643370E-01 0.10292573E+03</pdfrwt>
<pdfrwt beam="2">  1       21 0.12370150E-01 0.10292573E+03</pdfrwt>
<totfact> 0.24993018E+05</totfact>
</mgrwt>
</event>
<event>
 4    1  0.6052129E+003  0.2815576E+03  0.7546771E-02  0.1094841E+00
         21   -1    0    0  504  501  0.00000000000E+00  0.00000000000E+00  0.11564952808E+03  0.11564952808E+03  0.00000000000E+00 0.  1.
         21   -1    0    0  503  502 -0.00000000000E+00 -0.00000000000E+00 -0.10487279461E+04  0.10487279461E+04  0.00000000000E+00 0.  1.
         21    1    1    2  503  501 -0.12171016021E+03 -0.25389233837E+03 -0.80917905793E+03  0.85676451279E+03  0.00000000000E+00 0.  1.
         21    1    1    2  504  502  0.12171016021E+03  0.25389233837E+03 -0.12389936007E+03  0.30761296138E+03  0.00000000000E+00 0.  1.
<mgrwt>
<rscale>  2 0.28155760E+03</rscale>
<asrwt>0</asrwt>
<pdfrwt beam="1">  1       21 0.17792234E-01 0.28155760E+03</pdfrwt>
<pdfrwt beam="2">  1       21 0.16134277E+00 0.28155760E+03</pdfrwt>
<totfact> 0.66359299E+03</totfact>
</mgrwt>
</event>
<event>
 4    1  0.6052129E+003  0.1304013E+03  0.7546771E-02  0.1226862E+00
         21   -1    0    0  503  501  0.00000000000E+00  0.00000000000E+00  0.35087453797E+02  0.35087453797E+02  0.00000000000E+00 0. -1.
         21   -1    0    0  504  502 -0.00000000000E+00 -0.00000000000E+00 -0.48936660437E+03  0.48936660437E+03  0.00000000000E+00 0. -1.
         21    1    1    2  503  502  0.10876077297E+03 -0.71941525992E+02 -0.25293367945E+03  0.28456973679E+03  0.00000000000E+00 0. -1.
         21    1    1    2  504  501 -0.10876077297E+03  0.71941525992E+02 -0.20134547113E+03  0.23988432138E+03  0.00000000000E+00 0. -1.
<mgrwt>
<rscale>  2 0.13040126E+03</rscale>
<asrwt>0</asrwt>
<pdfrwt beam="1">  1       21 0.53980703E-02 0.13040126E+03</pdfrwt>
<pdfrwt beam="2">  1       21 0.75287163E-01 0.13040126E+03</pdfrwt>
<totfact> 0.37699183E+05</totfact>
</mgrwt>
</event>
<event>
 4    1  0.6052129E+003  0.1152055E+03  0.7546771E-02  0.1251223E+00
         21   -1    0    0  504  501  0.00000000000E+00  0.00000000000E+00  0.22388151445E+03  0.22388151445E+03  0.00000000000E+00 0.  1.
         21   -1    0    0  501  502 -0.00000000000E+00 -0.00000000000E+00 -0.93373147839E+02  0.93373147839E+02  0.00000000000E+00 0.  1.
         21    1    1    2  503  502 -0.45721595730E+02 -0.10574428259E+03 -0.30593779817E+02  0.11919856115E+03  0.00000000000E+00 0.  1.
         21    1    1    2  504  503  0.45721595730E+02  0.10574428259E+03  0.16110214643E+03  0.19805610115E+03  0.00000000000E+00 0.  1.
<mgrwt>
<rscale>  2 0.11520555E+03</rscale>
<asrwt>0</asrwt>
<pdfrwt beam="1">  1       21 0.34443310E-01 0.11520555E+03</pdfrwt>
<pdfrwt beam="2">  1       21 0.14365100E-01 0.11520555E+03</pdfrwt>
<totfact> 0.34954423E+05</totfact>
</mgrwt>
</event>
<event>
 4    1  0.6052129E+003  0.1118826E+03  0.7546771E-02  0.1257123E+00
         21   -1    0    0  504  501  0.00000000000E+00  0.00000000000E+00  0.18248069092E+03  0.18248069092E+03  0.00000000000E+00 0.  1.
         21   -1    0    0  501  502 -0.00000000000E+00 -0.00000000000E+00 -0.89837063148E+02  0.89837063148E+02  0.00000000000E+00 0.  1.
         21    1    1    2  503  502  0.85701753119E+02 -0.71923060682E+02 -0.19883232283E+02  0.11363564613E+03  0.00000000000E+00 0.  1.
         21    1    1    2  504  503 -0.85701753119E+02  0.71923060682E+02  0.11252686006E+03  0.15868210794E+03  0.00000000000E+00 0.  1.
<mgrwt>
<rscale>  2 0.11188260E+03</rscale>
<asrwt>0</asrwt>
<pdfrwt beam="1">  1       21 0.28073952E-01 0.11188260E+03</pdfrwt>
<pdfrwt beam="2">  1       21 0.13821087E-01 0.11188260E+03</pdfrwt>
<totfact> 0.55596084E+05</totfact>
</mgrwt>
</event>
<event>
 4    1  0.6052129E+003  0.1025640E+03  0.7546771E-02  0.1274995E+00
         21   -1    0    0  502  501  0.00000000000E+00  0.00000000000E+00  0.37441050695E+02  0.37441050695E+02  0.00000000000E+00 0.  1.
         21   -1    0    0  503  502 -0.00000000000E+00 -0.00000000000E+00 -0.34590204718E+03  0.34590204718E+03  0.00000000000E+00 0.  1.
         21    1    1    2  503  504 -0.21746468167E+02  0.10023209329E+03 -0.23728230651E+03  0.25850004716E+03  0.00000000000E+00 0.  1.
         21    1    1    2  504  501  0.21746468167E+02 -0.10023209329E+03 -0.71178689980E+02  0.12484305071E+03  0.00000000000E+00 0.  1.
<mgrwt>
<rscale>  2 0.10256404E+03</rscale>
<asrwt>0</asrwt>
<pdfrwt beam="1">  1       21 0.57601615E-02 0.10256404E+03</pdfrwt>
<pdfrwt beam="2">  1       21 0.53215701E-01 0.10256404E+03</pdfrwt>
<totfact> 0.71094228E+05</totfact>
</mgrwt>
</event>
<event>
 4    1  0.6052129E+003  0.1228197E+03  0.7546771E-02  0.1238517E+00
         21   -1    0    0  503  501  0.00000000000E+00  0.00000000000E+00  0.17006078024E+03  0.17006078024E+03  0.00000000000E+00 0. -1.
         21   -1    0    0  504  502 -0.00000000000E+00 -0.00000000000E+00 -0.96113946527E+02  0.96113946527E+02  0.00000000000E+00 0. -1.
         21    1    1    2  503  502  0.62067956076E+02 -0.10598226387E+03  0.73932405145E+02  0.14335505557E+03  0.00000000000E+00 0. -1.
         21    1    1    2  504  501 -0.62067956076E+02  0.10598226387E+03  0.14428568710E-01  0.12281967120E+03  0.00000000000E+00 0. -1.
<mgrwt>
<rscale>  2 0.12281967E+03</rscale>
<asrwt>0</asrwt>
<pdfrwt beam="1">  1       21 0.26163197E-01 0.12281967E+03</pdfrwt>
<pdfrwt beam="2">  1       21 0.14786761E-01 0.12281967E+03</pdfrwt>
<totfact> 0.56299365E+05</totfact>
</mgrwt>
</event>
<event>
 4    1  0.6052129E+003  0.1191780E+03  0.7546771E-02  0.1244459E+00
         21   -1    0    0  503  501  0.00000000000E+00  0.00000000000E+00  0.95427627613E+03  0.95427627613E+03  0.00000000000E+00 0. -1.
         21   -1    0    0  504  502 -0.00000000000E+00 -0.00000000000E+00 -0.96247440178E+02  0.96247440178E+02  0.00000000000E+00 0. -1.
         21    1    1    2  503  502 -0.10238713516E+03  0.60994045494E+02 -0.53928787690E+02  0.13081174708E+03  0.00000000000E+00 0. -1.
         21    1    1    2  504  501  0.10238713516E+03 -0.60994045494E+02  0.91195762364E+03  0.91971196923E+03  0.00000000000E+00 0. -1.
<mgrwt>
<rscale>  2 0.11917801E+03</rscale>
<asrwt>0</asrwt>
<pdfrwt beam="1">  1       21 0.14681173E+00 0.11917801E+03</pdfrwt>
<pdfrwt beam="2">  1       21 0.14807299E-01 0.11917801E+03</pdfrwt>
<totfact> 0.13495275E+04</totfact>
</mgrwt>
</event>
<event>
 4    1  0.6052129E+003  0.2228491E+03  0.7546771E-02  0.1131777E+00
         21   -1    0    0  503  501  0.00000000000E+00  0.00000000000E+00  0.18041404391E+03  0.18041404391E+03  0.00000000000E+00 0.  1.
         21   -1    0    0  504  502 -0.00000000000E+00 -0.00000000000E+00 -0.30494426707E+03  0.30494426707E+03  0.00000000000E+00 0.  1.
         21    1    1    2  503  502  0.21214775741E+03  0.68227794609E+02 -0.13797412065E+03  0.26210410317E+03  0.00000000000E+00 0.  1.
         21    1    1    2  504  501 -0.21214775741E+03 -0.68227794609E+02  0.13443897487E+02  0.22325420782E+03  0.00000000000E+00 0.  1.
<mgrwt>
<rscale>  2 0.22284906E+03</rscale>
<asrwt>0</asrwt>
<pdfrwt beam="1">  1       21 0.27756007E-01 0.22284906E+03</pdfrwt>
<pdfrwt beam="2">  1       21 0.46914502E-01 0.22284906E+03</pdfrwt>
<totfact> 0.53139820E+04</totfact>
</mgrwt>
</event>
<event>
 4    1  0.6052129E+003  0.1442190E+03  0.7546771E-02  0.1207762E+00
         21   -1    0    0  504  501  0.00000000000E+00  0.00000000000E+00  0.16644009645E+03  0.16644009645E+03  0.00000000000E+00 0. -1.
         21   -1    0    0  503  502 -0.00000000000E+00 -0.00000000000E+00 -0.17646847121E+03  0.17646847121E+03  0.00000000000E+00 0. -1.
         21    1    1    2  503  501  0.12762131725E+03 -0.67170929049E+02  0.87612120782E+02  0.16874542374E+03  0.00000000000E+00 0. -1.
         21    1    1    2  504  502 -0.12762131725E+03  0.67170929049E+02 -0.97640495552E+02  0.17416314392E+03  0.00000000000E+00 0. -1.
<mgrwt>
<rscale>  2 0.14421905E+03</rscale>
<asrwt>0</asrwt>
<pdfrwt beam="1">  1       21 0.25606169E-01 0.14421905E+03</pdfrwt>
<pdfrwt beam="2">  1       21 0.27148995E-01 0.14421905E+03</pdfrwt>
<totfact> 0.18969959E+05</totfact>
</mgrwt>
</event>
<event>
 4    1  0.6052129E+003  0.1193572E+03  0.7546771E-02  0.1244161E+00
         21   -1    0    0  504  501  0.00000000000E+00  0.00000000000E+00  0.17277498976E+03  0.17277498976E+03  0.00000000000E+00 0.  1.
         21   -1    0    0  503  502 -0.00000000000E+00 -0.00000000000E+00 -0.35397138351E+03  0.35397138351E+03  0.00000000000E+00 0.  1.
         21    1    1    2  503  501 -0.11691979504E+03  0.23997813521E+02  0.14006889100E+03  0.18402561711E+03  0.00000000000E+00 0.  1.
         21    1    1    2  504  502  0.11691979504E+03 -0.23997813521E+02 -0.32126528475E+03  0.34272075617E+03  0.00000000000E+00 0.  1.
<mgrwt>
<rscale>  2 0.11935717E+03</rscale>
<asrwt>0</asrwt>
<pdfrwt beam="1">  1       21 0.26580768E-01 0.11935717E+03</pdfrwt>
<pdfrwt beam="2">  1       21 0.54457135E-01 0.11935717E+03</pdfrwt>
<totfact> 0.44605714E+04</totfact>
</mgrwt>
</event>
<event>
 4    1  0.6052129E+003  0.1310254E+03  0.7546771E-02  0.1225942E+00
         21   -1    0    0  504  501  0.00000000000E+00  0.00000000000E+00  0.96412464822E+02  0.96412464822E+02  0.00000000000E+00 0.  1.
         21   -1    0    0  501  502 -0.00000000000E+00 -0.00000000000E+00 -0.42600188885E+03  0.42600188885E+03  0.00000000000E+00 0.  1.
         21    1    1    2  503  502 -0.12380211353E+03  0.42903287966E+02 -0.36406850632E+03  0.38692833022E+03  0.00000000000E+00 0.  1.
         21    1    1    2  504  503  0.12380211353E+03 -0.42903287966E+02  0.34479082298E+02  0.13548602345E+03  0.00000000000E+00 0.  1.
<mgrwt>
<rscale>  2 0.13102540E+03</rscale>
<asrwt>0</asrwt>
<pdfrwt beam="1">  1       21 0.14832687E-01 0.13102540E+03</pdfrwt>
<pdfrwt beam="2">  1       21 0.65538753E-01 0.13102540E+03</pdfrwt>
<totfact> 0.87931595E+04</totfact>
</mgrwt>
</event>
<event>
 4    1  0.6052129E+003  0.1001984E+03  0.7546771E-02  0.1279879E+00
         21   -1    0    0  504  501  0.00000000000E+00  0.00000000000E+00  0.16733148504E+03  0.16733148504E+03  0.00000000000E+00 0. -1.
         21   -1    0    0  503  502 -0.00000000000E+00 -0.00000000000E+00 -0.10031431897E+03  0.10031431897E+03  0.00000000000E+00 0. -1.
         21    1    1    2  503  501 -0.14174314323E+02  0.99190749638E+02 -0.51328204475E+02  0.11258019619E+03  0.00000000000E+00 0. -1.
         21    1    1    2  504  502  0.14174314323E+02 -0.99190749638E+02  0.11834537054E+03  0.15506560782E+03  0.00000000000E+00 0. -1.
<mgrwt>
<rscale>  2 0.10019838E+03</rscale>
<asrwt>0</asrwt>
<pdfrwt beam="1">  1       21 0.25743305E-01 0.10019838E+03</pdfrwt>
<pdfrwt beam="2">  1       21 0.15432972E-01 0.10019838E+03</pdfrwt>
<totfact> 0.53790429E+05</totfact>
</mgrwt>
</event>
<event>
 4    1  0.6052129E+003  0.1122262E+03  0.7546771E-02  0.1256502E+00
         21   -1    0    0  503  501  0.00000000000E+00  0.00000000000E+00  0.23222884866E+03  0.23222884866E+03  0.00000000000E+00 0.  1.
         21   -1    0    0  504  502 -0.00000000000E+00 -0.00000000000E+00 -0.56223722821E+02  0.56223722821E+02  0.00000000000E+00 0.  1.
         21    1    1    2  503  502 -0.13166658882E+02 -0.11145116665E+03  0.11513380002E+03  0.16078095459E+03  0.00000000000E+00 0.  1.
         21    1    1    2  504  501  0.13166658882E+02  0.11145116665E+03  0.60871325827E+02  0.12767161690E+03  0.00000000000E+00 0.  1.
<mgrwt>
<rscale>  2 0.11222622E+03</rscale>
<asrwt>0</asrwt>
<pdfrwt beam="1">  1       21 0.35727515E-01 0.11222622E+03</pdfrwt>
<pdfrwt beam="2">  1       21 0.86498036E-02 0.11222622E+03</pdfrwt>
<totfact> 0.79360031E+05</totfact>
</mgrwt>
</event>
<event>
 4    1  0.6052129E+003  0.1024857E+03  0.7546771E-02  0.1275154E+00
         21   -1    0    0  504  501  0.00000000000E+00  0.00000000000E+00  0.35312809744E+02  0.35312809744E+02  0.00000000000E+00 0. -1.
         21   -1    0    0  503  502 -0.00000000000E+00 -0.00000000000E+00 -0.38664046889E+03  0.38664046889E+03  0.00000000000E+00 0. -1.
         21    1    1    2  503  501  0.70603992709E+02  0.74285909138E+02 -0.74325743477E+02  0.12660030105E+03  0.00000000000E+00 0. -1.
         21    1    1    2  504  502 -0.70603992709E+02 -0.74285909138E+02 -0.27700191567E+03  0.29535297758E+03  0.00000000000E+00 0. -1.
<mgrwt>
<rscale>  2 0.10248571E+03</rscale>
<asrwt>0</asrwt>
<pdfrwt beam="1">  1       21 0.54327399E-02 0.10248571E+03</pdfrwt>
<pdfrwt beam="2">  1       21 0.59483150E-01 0.10248571E+03</pdfrwt>
<totfact> 0.62171007E+05</totfact>
</mgrwt>
</event>
<event>
 4    1  0.6052129E+003  0.1071850E+03  0.7546771E-02  0.1265873E+00
         21   -1    0    0  504  501  0.00000000000E+00  0.00000000000E+00  0.52934274531E+02  0.52934274531E+02  0.00000000000E+00 0.  1.
         21   -1    0    0  503  502 -0.00000000000E+00 -0.00000000000E+00 -0.22643479260E+03  0.22643479260E+03  0.00000000000E+00 0. -1.
         21    1    1    2  503  501 -0.31844599032E+02 -0.10234519234E+03 -0.58290955697E+02  0.12201005040E+03  0.00000000000E+00 0. -1.
         21    1    1    2  504  502  0.31844599032E+02  0.10234519234E+03 -0.11520956238E+03  0.15735901673E+03  0.00000000000E+00 0.  1.
<mgrwt>
<rscale>  2 0.10718497E+03</rscale>
<asrwt>0</asrwt>
<pdfrwt beam="1">  1       21 0.81437345E-02 0.10718497E+03</pdfrwt>
<pdfrwt beam="2">  1       21 0.34836122E-01 0.10718497E+03</pdfrwt>
<totfact> 0.92470590E+05</totfact>
</mgrwt>
</event>
<event>
 4    1  0.6052129E+003  0.1042416E+03  0.7546771E-02  0.1271621E+00
         21   -1    0    0  503  501  0.00000000000E+00  0.00000000000E+00  0.11867466314E+03  0.11867466314E+03  0.00000000000E+00 0.  1.
         21   -1    0    0  504  502 -0.00000000000E+00 -0.00000000000E+00 -0.94400268377E+03  0.94400268377E+03  0.00000000000E+00 0.  1.
         21    1    1    2  503  502 -0.10043092375E+03  0.27927602172E+02  0.92248811394E+02  0.13919829242E+03  0.00000000000E+00 0.  1.
         21    1    1    2  504  501  0.10043092375E+03 -0.27927602172E+02 -0.91757683202E+03  0.92347905449E+03  0.00000000000E+00 0.  1.
<mgrwt>
<rscale>  2 0.10424165E+03</rscale>
<asrwt>0</asrwt>
<pdfrwt beam="1">  1       21 0.18257641E-01 0.10424165E+03</pdfrwt>
<pdfrwt beam="2">  1       21 0.14523118E+00 0.10424165E+03</pdfrwt>
<totfact> 0.96569480E+03</totfact>
</mgrwt>
</event>
<event>
 4    1  0.6052129E+003  0.1217892E+03  0.7546771E-02  0.1240174E+00
         21   -1    0    0  504  501  0.00000000000E+00  0.00000000000E+00  0.25708226020E+03  0.25708226020E+03  0.00000000000E+00 0.  1.
         21   -1    0    0  503  502 -0.00000000000E+00 -0.00000000000E+00 -0.90586950205E+02  0.90586950205E+02  0.00000000000E+00 0. -1.
         21    1    1    2  503  501  0.28972494502E+02  0.11829287413E+03 -0.21499406097E+02  0.12367228457E+03  0.00000000000E+00 0. -1.
         21    1    1    2  504  502 -0.28972494502E+02 -0.11829287413E+03  0.18799471610E+03  0.22399692584E+03  0.00000000000E+00 0.  1.
<mgrwt>
<rscale>  2 0.12178920E+03</rscale>
<asrwt>0</asrwt>
<pdfrwt beam="1">  1       21 0.39551117E-01 0.12178920E+03</pdfrwt>
<pdfrwt beam="2">  1       21 0.13936454E-01 0.12178920E+03</pdfrwt>
<totfact> 0.28058744E+05</totfact>
</mgrwt>
</event>
<event>
 4    1  0.6052129E+003  0.1927484E+03  0.7546771E-02  0.1156006E+00
         21   -1    0    0  504  501  0.00000000000E+00  0.00000000000E+00  0.16347110789E+03  0.16347110789E+03  0.00000000000E+00 0. -1.
         21   -1    0    0  501  502 -0.00000000000E+00 -0.00000000000E+00 -0.32080265691E+03  0.32080265691E+03  0.00000000000E+00 0. -1.
         21    1    1    2  503  502 -0.19270312623E+03  0.41752417133E+01 -0.20941097366E+03  0.28461356854E+03  0.00000000000E+00 0. -1.
         21    1    1    2  504  503  0.19270312623E+03 -0.41752417133E+01  0.52079424642E+02  0.19966019627E+03  0.00000000000E+00 0. -1.
<mgrwt>
<rscale>  2 0.19274835E+03</rscale>
<asrwt>0</asrwt>
<pdfrwt beam="1">  1       21 0.25149402E-01 0.19274835E+03</pdfrwt>
<pdfrwt beam="2">  1       21 0.49354254E-01 0.19274835E+03</pdfrwt>
<totfact> 0.58630223E+04</totfact>
</mgrwt>
</event>
<event>
 4    1  0.6052129E+003  0.1168353E+03  0.7546771E-02  0.1248411E+00
         21   -1    0    0  503  501  0.00000000000E+00  0.00000000000E+00  0.34517701085E+02  0.34517701085E+02  0.00000000000E+00 0. -1.
         21   -1    0    0  501  502 -0.00000000000E+00 -0.00000000000E+00 -0.43097192421E+03  0.43097192421E+03  0.00000000000E+00 0. -1.
         21    1    1    2  503  504 -0.63043752900E+02 -0.98366504279E+02 -0.13142003771E+03  0.17584570013E+03  0.00000000000E+00 0. -1.
         21    1    1    2  504  502  0.63043752900E+02  0.98366504279E+02 -0.26503418541E+03  0.28964392516E+03  0.00000000000E+00 0. -1.
<mgrwt>
<rscale>  2 0.11683529E+03</rscale>
<asrwt>0</asrwt>
<pdfrwt beam="1">  1       21 0.53104155E-02 0.11683529E+03</pdfrwt>
<pdfrwt beam="2">  1       21 0.66303373E-01 0.11683529E+03</pdfrwt>
<totfact> 0.51220151E+05</totfact>
</mgrwt>
</event>
<event>
 4    1  0.6052129E+003  0.1033970E+03  0.7546771E-02  0.1273310E+00
         21   -1    0    0  502  501  0.00000000000E+00  0.00000000000E+00  0.46544807541E+02  0.46544807541E+02  0.00000000000E+00 0. -1.
         21   -1    0    0  503  502 -0.00000000000E+00 -0.00000000000E+00 -0.31459244632E+03  0.31459244632E+03  0.00000000000E+00 0. -1.
         21    1    1    2  503  504  0.11848337642E+02 -0.10271593639E+03 -0.22782847948E+03  0.25019345066E+03  0.00000000000E+00 0. -1.
         21    1    1    2  504  501 -0.11848337642E+02  0.10271593639E+03 -0.40219159304E+02  0.11094380320E+03  0.00000000000E+00 0. -1.
<mgrwt>
<rscale>  2 0.10339703E+03</rscale>
<asrwt>0</asrwt>
<pdfrwt beam="1">  1       21 0.71607393E-02 0.10339703E+03</pdfrwt>
<pdfrwt beam="2">  1       21 0.48398840E-01 0.10339703E+03</pdfrwt>
<totfact> 0.59773472E+05</totfact>
</mgrwt>
</event>
<event>
 4    1  0.6052129E+003  0.1007802E+03  0.7546771E-02  0.1278664E+00
         21   -1    0    0  502  501  0.00000000000E+00  0.00000000000E+00  0.27397215096E+03  0.27397215096E+03  0.00000000000E+00 0. -1.
         21   -1    0    0  503  502 -0.00000000000E+00 -0.00000000000E+00 -0.18416982492E+03  0.18416982492E+03  0.00000000000E+00 0.  1.
         21    1    1    2  503  504 -0.42603594159E+01  0.10069009975E+03 -0.15982070671E+03  0.18894259749E+03  0.00000000000E+00 0.  1.
         21    1    1    2  504  501  0.42603594159E+01 -0.10069009975E+03  0.24962303275E+03  0.26919937840E+03  0.00000000000E+00 0. -1.
<mgrwt>
<rscale>  2 0.10078019E+03</rscale>
<asrwt>0</asrwt>
<pdfrwt beam="1">  1       21 0.42149561E-01 0.10078019E+03</pdfrwt>
<pdfrwt beam="2">  1       21 0.28333819E-01 0.10078019E+03</pdfrwt>
<totfact> 0.67410615E+04</totfact>
</mgrwt>
</event>
<event>
 4    1  0.6052129E+003  0.1059921E+03  0.7546771E-02  0.1268177E+00
         21   -1    0    0  504  501  0.00000000000E+00  0.00000000000E+00  0.25295663008E+03  0.25295663008E+03  0.00000000000E+00 0. -1.
         21   -1    0    0  503  502 -0.00000000000E+00 -0.00000000000E+00 -0.54014288691E+02  0.54014288691E+02  0.00000000000E+00 0. -1.
         21    1    1    2  503  501  0.21924484919E+01 -0.10596945283E+03  0.16418518321E+03  0.19542544908E+03  0.00000000000E+00 0. -1.
         21    1    1    2  504  502 -0.21924484919E+01  0.10596945283E+03  0.34757158173E+02  0.11154546968E+03  0.00000000000E+00 0. -1.
<mgrwt>
<rscale>  2 0.10599213E+03</rscale>
<asrwt>0</asrwt>
<pdfrwt beam="1">  1       21 0.38916404E-01 0.10599213E+03</pdfrwt>
<pdfrwt beam="2">  1       21 0.83098907E-02 0.10599213E+03</pdfrwt>
<totfact> 0.71828162E+05</totfact>
</mgrwt>
</event>
<event>
 4    1  0.6052129E+003  0.2844935E+03  0.7546771E-02  0.1093260E+00
         21   -1    0    0  504  501  0.00000000000E+00  0.00000000000E+00  0.17109943724E+03  0.17109943724E+03  0.00000000000E+00 0.  1.
         21   -1    0    0  503  502 -0.00000000000E+00 -0.00000000000E+00 -0.47468168332E+03  0.47468168332E+03  0.00000000000E+00 0.  1.
         21    1    1    2  503  501 -0.71631256444E+02 -0.27532803128E+03 -0.17079066024E+03  0.33182225864E+03  0.00000000000E+00 0.  1.
         21    1    1    2  504  502  0.71631256444E+02  0.27532803128E+03 -0.13279158584E+03  0.31395886192E+03  0.00000000000E+00 0.  1.
<mgrwt>
<rscale>  2 0.28449352E+03</rscale>
<asrwt>0</asrwt>
<pdfrwt beam="1">  1       21 0.26322991E-01 0.28449352E+03</pdfrwt>
<pdfrwt beam="2">  1       21 0.73027950E-01 0.28449352E+03</pdfrwt>
<totfact> 0.22108124E+04</totfact>
</mgrwt>
</event>
<event>
 4    1  0.6052129E+003  0.1030621E+03  0.7546771E-02  0.1273986E+00
         21   -1    0    0  502  501  0.00000000000E+00  0.00000000000E+00  0.55871649947E+02  0.55871649947E+02  0.00000000000E+00 0. -1.
         21   -1    0    0  504  502 -0.00000000000E+00 -0.00000000000E+00 -0.19482116264E+03  0.19482116264E+03  0.00000000000E+00 0. -1.
         21    1    1    2  503  501 -0.20863833056E+02  0.10092814046E+03 -0.88965722712E+02  0.13614950930E+03  0.00000000000E+00 0. -1.
         21    1    1    2  504  503  0.20863833056E+02 -0.10092814046E+03 -0.49983789979E+02  0.11454330328E+03  0.00000000000E+00 0. -1.
<mgrwt>
<rscale>  2 0.10306206E+03</rscale>
<asrwt>0</asrwt>
<pdfrwt beam="1">  1       21 0.85956386E-02 0.10306206E+03</pdfrwt>
<pdfrwt beam="2">  1       21 0.29972486E-01 0.10306206E+03</pdfrwt>
<totfact> 0.11265694E+06</totfact>
</mgrwt>
</event>
<event>
 4    1  0.6052129E+003  0.1368449E+03  0.7546771E-02  0.1217639E+00
         21   -1    0    0  504  501  0.00000000000E+00  0.00000000000E+00  0.38455410084E+03  0.38455410084E+03  0.00000000000E+00 0.  1.
         21   -1    0    0  501  502 -0.00000000000E+00 -0.00000000000E+00 -0.75220846039E+02  0.75220846039E+02  0.00000000000E+00 0.  1.
         21    1    1    2  503  502 -0.93059569843E+02  0.10033167152E+03  0.18155942209E+02  0.13804407299E+03  0.00000000000E+00 0.  1.
         21    1    1    2  504  503  0.93059569843E+02 -0.10033167152E+03  0.29117731259E+03  0.32173087389E+03  0.00000000000E+00 0.  1.
<mgrwt>
<rscale>  2 0.13684490E+03</rscale>
<asrwt>0</asrwt>
<pdfrwt beam="1">  1       21 0.59162168E-01 0.13684490E+03</pdfrwt>
<pdfrwt beam="2">  1       21 0.11572438E-01 0.13684490E+03</pdfrwt>
<totfact> 0.17012564E+05</totfact>
</mgrwt>
</event>
<event>
 4    1  0.6052129E+003  0.1086623E+03  0.7546771E-02  0.1263067E+00
         21   -1    0    0  504  501  0.00000000000E+00  0.00000000000E+00  0.13489977896E+04  0.13489977896E+04  0.00000000000E+00 0. -1.
         21   -1    0    0  503  502 -0.00000000000E+00 -0.00000000000E+00 -0.10318792040E+02  0.10318792040E+02  0.00000000000E+00 0. -1.
         21    1    1    2  503  501  0.45024322638E+02  0.98895387605E+02  0.93411211991E+03  0.94041104836E+03  0.00000000000E+00 0. -1.
         21    1    1    2  504  502 -0.45024322638E+02 -0.98895387605E+02  0.40456687761E+03  0.41890553324E+03  0.00000000000E+00 0. -1.
<mgrwt>
<rscale>  2 0.10866226E+03</rscale>
<asrwt>0</asrwt>
<pdfrwt beam="1">  1       21 0.20753798E+00 0.10866226E+03</pdfrwt>
<pdfrwt beam="2">  1       21 0.15875075E-02 0.10866226E+03</pdfrwt>
<totfact> 0.22537618E+05</totfact>
</mgrwt>
</event>
<event>
 4    1  0.6052129E+003  0.1095180E+03  0.7546771E-02  0.1261465E+00
         21   -1    0    0  504  501  0.00000000000E+00  0.00000000000E+00  0.40391451022E+03  0.40391451022E+03  0.00000000000E+00 0. -1.
         21   -1    0    0  503  502 -0.00000000000E+00 -0.00000000000E+00 -0.66392041175E+02  0.66392041175E+02  0.00000000000E+00 0. -1.
         21    1    1    2  503  501 -0.24053803906E+02  0.10684385334E+03 -0.60660588913E+01  0.10968587671E+03  0.00000000000E+00 0. -1.
         21    1    1    2  504  502  0.24053803906E+02 -0.10684385334E+03  0.34358852794E+03  0.36062067468E+03  0.00000000000E+00 0. -1.
<mgrwt>
<rscale>  2 0.10951801E+03</rscale>
<asrwt>0</asrwt>
<pdfrwt beam="1">  1       21 0.62140692E-01 0.10951801E+03</pdfrwt>
<pdfrwt beam="2">  1       21 0.10214160E-01 0.10951801E+03</pdfrwt>
<totfact> 0.19246914E+05</totfact>
</mgrwt>
</event>
<event>
 4    1  0.6052129E+003  0.1029313E+03  0.7546771E-02  0.1274250E+00
         21   -1    0    0  504  501  0.00000000000E+00  0.00000000000E+00  0.11772746428E+02  0.11772746428E+02  0.00000000000E+00 0.  1.
         21   -1    0    0  501  502 -0.00000000000E+00 -0.00000000000E+00 -0.96898676349E+03  0.96898676349E+03  0.00000000000E+00 0.  1.
         21    1    1    2  503  502  0.10230262219E+03 -0.11358913892E+02 -0.60950177868E+03  0.61813208107E+03  0.00000000000E+00 0.  1.
         21    1    1    2  504  503 -0.10230262219E+03  0.11358913892E+02 -0.34771223838E+03  0.36262742885E+03  0.00000000000E+00 0.  1.
<mgrwt>
<rscale>  2 0.10293129E+03</rscale>
<asrwt>0</asrwt>
<pdfrwt beam="1">  1       21 0.18111911E-02 0.10293129E+03</pdfrwt>
<pdfrwt beam="2">  1       21 0.14907494E+00 0.10293129E+03</pdfrwt>
<totfact> 0.45066441E+05</totfact>
</mgrwt>
</event>
<event>
 4    1  0.6052129E+003  0.2032209E+03  0.7546771E-02  0.1147050E+00
         21   -1    0    0  504  501  0.00000000000E+00  0.00000000000E+00  0.26785473271E+03  0.26785473271E+03  0.00000000000E+00 0.  1.
         21   -1    0    0  503  502 -0.00000000000E+00 -0.00000000000E+00 -0.61005335201E+03  0.61005335201E+03  0.00000000000E+00 0.  1.
         21    1    1    2  503  501 -0.20152449977E+03 -0.26202864011E+02  0.20835168668E+03  0.29104834552E+03  0.00000000000E+00 0.  1.
         21    1    1    2  504  502  0.20152449977E+03  0.26202864011E+02 -0.55055030597E+03  0.58685973920E+03  0.00000000000E+00 0.  1.
<mgrwt>
<rscale>  2 0.20322085E+03</rscale>
<asrwt>0</asrwt>
<pdfrwt beam="1">  1       21 0.41208421E-01 0.20322085E+03</pdfrwt>
<pdfrwt beam="2">  1       21 0.93854361E-01 0.20322085E+03</pdfrwt>
<totfact> 0.53604975E+03</totfact>
</mgrwt>
</event>
<event>
 4    1  0.6052129E+003  0.1290679E+03  0.7546771E-02  0.1228845E+00
         21   -1    0    0  504  501  0.00000000000E+00  0.00000000000E+00  0.30882866808E+03  0.30882866808E+03  0.00000000000E+00 0. -1.
         21   -1    0    0  503  502 -0.00000000000E+00 -0.00000000000E+00 -0.54794444380E+02  0.54794444380E+02  0.00000000000E+00 0.  1.
         21    1    1    2  503  501  0.88818043732E+02 -0.93647613478E+02  0.10432648888E+03  0.16595944289E+03  0.00000000000E+00 0. -1.
         21    1    1    2  504  502 -0.88818043732E+02  0.93647613478E+02  0.14970773482E+03  0.19766366957E+03  0.00000000000E+00 0.  1.
<mgrwt>
<rscale>  2 0.12906789E+03</rscale>
<asrwt>0</asrwt>
<pdfrwt beam="1">  1       21 0.47512102E-01 0.12906789E+03</pdfrwt>
<pdfrwt beam="2">  1       21 0.84299147E-02 0.12906789E+03</pdfrwt>
<totfact> 0.46839755E+05</totfact>
</mgrwt>
</event>
<event>
 4    1  0.6052129E+003  0.1330984E+03  0.7546771E-02  0.1222929E+00
         21   -1    0    0  502  501  0.00000000000E+00  0.00000000000E+00  0.24550868842E+03  0.24550868842E+03  0.00000000000E+00 0. -1.
         21   -1    0    0  503  502 -0.00000000000E+00 -0.00000000000E+00 -0.28252524152E+03  0.28252524152E+03  0.00000000000E+00 0. -1.
         21    1    1    2  503  504  0.69894953167E+01 -0.13291473733E+03 -0.24632901388E+03  0.27998779174E+03  0.00000000000E+00 0. -1.
         21    1    1    2  504  501 -0.69894953167E+01  0.13291473733E+03  0.20931246078E+03  0.24804613821E+03  0.00000000000E+00 0. -1.
<mgrwt>
<rscale>  2 0.13309839E+03</rscale>
<asrwt>0</asrwt>
<pdfrwt beam="1">  1       21 0.37770567E-01 0.13309839E+03</pdfrwt>
<pdfrwt beam="2">  1       21 0.43465422E-01 0.13309839E+03</pdfrwt>
<totfact> 0.35541615E+04</totfact>
</mgrwt>
</event>
<event>
 4    1  0.6052129E+003  0.1948353E+03  0.7546771E-02  0.1154171E+00
         21   -1    0    0  502  501  0.00000000000E+00  0.00000000000E+00  0.59794322493E+03  0.59794322493E+03  0.00000000000E+00 0.  1.
         21   -1    0    0  503  502 -0.00000000000E+00 -0.00000000000E+00 -0.10729355521E+03  0.10729355521E+03  0.00000000000E+00 0.  1.
         21    1    1    2  503  504 -0.16569062025E+03  0.10250569721E+03  0.20007551953E+02  0.19585990334E+03  0.00000000000E+00 0.  1.
         21    1    1    2  504  501  0.16569062025E+03 -0.10250569721E+03  0.47064211777E+03  0.50937687680E+03  0.00000000000E+00 0.  1.
<mgrwt>
<rscale>  2 0.19483531E+03</rscale>
<asrwt>0</asrwt>
<pdfrwt beam="1">  1       21 0.91991263E-01 0.19483531E+03</pdfrwt>
<pdfrwt beam="2">  1       21 0.16506701E-01 0.19483531E+03</pdfrwt>
<totfact> 0.32846170E+04</totfact>
</mgrwt>
</event>
<event>
 4    1  0.6052129E+003  0.1584064E+03  0.7546771E-02  0.1190508E+00
         21   -1    0    0  504  501  0.00000000000E+00  0.00000000000E+00  0.34907531190E+02  0.34907531190E+02  0.00000000000E+00 0.  1.
         21   -1    0    0  503  502 -0.00000000000E+00 -0.00000000000E+00 -0.10340817038E+04  0.10340817038E+04  0.00000000000E+00 0.  1.
         21    1    1    2  503  501  0.12733516881E+03 -0.94224957242E+02 -0.20446990831E+03  0.25865136997E+03  0.00000000000E+00 0.  1.
         21    1    1    2  504  502 -0.12733516881E+03  0.94224957242E+02 -0.79470426433E+03  0.81033786504E+03  0.00000000000E+00 0.  1.
<mgrwt>
<rscale>  2 0.15840640E+03</rscale>
<asrwt>0</asrwt>
<pdfrwt beam="1">  1       21 0.53703896E-02 0.15840640E+03</pdfrwt>
<pdfrwt beam="2">  1       21 0.15908949E+00 0.15840640E+03</pdfrwt>
<totfact> 0.62104616E+04</totfact>
</mgrwt>
</event>
<event>
 4    1  0.6052129E+003  0.1285737E+03  0.7546771E-02  0.1229588E+00
         21   -1    0    0  504  501  0.00000000000E+00  0.00000000000E+00  0.40541310867E+03  0.40541310867E+03  0.00000000000E+00 0. -1.
         21   -1    0    0  503  502 -0.00000000000E+00 -0.00000000000E+00 -0.83378642452E+03  0.83378642452E+03  0.00000000000E+00 0. -1.
         21    1    1    2  503  501  0.26493064881E+02 -0.12581455148E+03  0.39007250396E+03  0.41071613335E+03  0.00000000000E+00 0. -1.
         21    1    1    2  504  502 -0.26493064881E+02  0.12581455148E+03 -0.81844581981E+03  0.82848339984E+03  0.00000000000E+00 0. -1.
<mgrwt>
<rscale>  2 0.12857365E+03</rscale>
<asrwt>0</asrwt>
<pdfrwt beam="1">  1       21 0.62371249E-01 0.12857365E+03</pdfrwt>
<pdfrwt beam="2">  1       21 0.12827483E+00 0.12857365E+03</pdfrwt>
<totfact> 0.11492906E+03</totfact>
</mgrwt>
</event>
<event>
 4    1  0.6052129E+003  0.1019973E+03  0.7546771E-02  0.1276151E+00
         21   -1    0    0  504  501  0.00000000000E+00  0.00000000000E+00  0.33804358820E+03  0.33804358820E+03  0.00000000000E+00 0.  1.
         21   -1    0    0  503  502 -0.00000000000E+00 -0.00000000000E+00 -0.15518100672E+03  0.15518100672E+03  0.00000000000E+00 0. -1.
         21    1    1    2  503  501 -0.98619254937E+02  0.26032703529E+02  0.31223952045E+03  0.32847675295E+03  0.00000000000E+00 0.  1.
         21    1    1    2  504  502  0.98619254937E+02 -0.26032703529E+02 -0.12937693897E+03  0.16474784198E+03  0.00000000000E+00 0. -1.
<mgrwt>
<rscale>  2 0.10199735E+03</rscale>
<asrwt>0</asrwt>
<pdfrwt beam="1">  1       21 0.52006706E-01 0.10199735E+03</pdfrwt>
<pdfrwt beam="2">  1       21 0.23874001E-01 0.10199735E+03</pdfrwt>
<totfact> 0.60728688E+04</totfact>
</mgrwt>
</event>
<event>
 4    1  0.6052129E+003  0.1116149E+03  0.7546771E-02  0.1257608E+00
         21   -1    0    0  504  501  0.00000000000E+00  0.00000000000E+00  0.24119196822E+03  0.24119196822E+03  0.00000000000E+00 0.  1.
         21   -1    0    0  503  502 -0.00000000000E+00 -0.00000000000E+00 -0.51792159967E+02  0.51792159967E+02  0.00000000000E+00 0.  1.
         21    1    1    2  503  501  0.66830503754E+02 -0.89395570793E+02  0.87060841423E+02  0.14155378631E+03  0.00000000000E+00 0.  1.
         21    1    1    2  504  502 -0.66830503754E+02  0.89395570793E+02  0.10233896683E+03  0.15143034188E+03  0.00000000000E+00 0.  1.
<mgrwt>
<rscale>  2 0.11161489E+03</rscale>
<asrwt>0</asrwt>
<pdfrwt beam="1">  1       21 0.37106456E-01 0.11161489E+03</pdfrwt>
<pdfrwt beam="2">  1       21 0.79680247E-02 0.11161489E+03</pdfrwt>
<totfact> 0.84847554E+05</totfact>
</mgrwt>
</event>
<event>
 4    1  0.6052129E+003  0.1144019E+03  0.7546771E-02  0.1252629E+00
         21   -1    0    0  502  501  0.00000000000E+00  0.00000000000E+00  0.85453301704E+03  0.85453301704E+03  0.00000000000E+00 0.  1.
         21   -1    0    0  504  502 -0.00000000000E+00 -0.00000000000E+00 -0.72725562596E+02  0.72725562596E+02  0.00000000000E+00 0.  1.
         21    1    1    2  503  501  0.10343499251E+03  0.48877369619E+02  0.80283092661E+03  0.81094099147E+03  0.00000000000E+00 0.  1.
         21    1    1    2  504  503 -0.10343499251E+03 -0.48877369619E+02 -0.21023472157E+02  0.11631758817E+03  0.00000000000E+00 0.  1.
<mgrwt>
<rscale>  2 0.11440190E+03</rscale>
<asrwt>0</asrwt>
<pdfrwt beam="1">  1       21 0.13146661E+00 0.11440190E+03</pdfrwt>
<pdfrwt beam="2">  1       21 0.11188549E-01 0.11440190E+03</pdfrwt>
<totfact> 0.29467211E+04</totfact>
</mgrwt>
</event>
<event>
 4    1  0.6052129E+003  0.1085742E+03  0.7546771E-02  0.1263233E+00
         21   -1    0    0  502  501  0.00000000000E+00  0.00000000000E+00  0.19836666657E+03  0.19836666657E+03  0.00000000000E+00 0.  1.
         21   -1    0    0  504  502 -0.00000000000E+00 -0.00000000000E+00 -0.65840620438E+02  0.65840620438E+02  0.00000000000E+00 0.  1.
         21    1    1    2  503  501  0.20939092963E+02 -0.10653593957E+03  0.10749334359E+03  0.15278472093E+03  0.00000000000E+00 0.  1.
         21    1    1    2  504  503 -0.20939092963E+02  0.10653593957E+03  0.25032702545E+02  0.11142256608E+03  0.00000000000E+00 0.  1.
<mgrwt>
<rscale>  2 0.10857418E+03</rscale>
<asrwt>0</asrwt>
<pdfrwt beam="1">  1       21 0.30517948E-01 0.10857418E+03</pdfrwt>
<pdfrwt beam="2">  1       21 0.10129326E-01 0.10857418E+03</pdfrwt>
<totfact> 0.81943549E+05</totfact>
</mgrwt>
</event>
<event>
 4    1  0.6052129E+003  0.1071444E+03  0.7546771E-02  0.1265951E+00
         21   -1    0    0  503  501  0.00000000000E+00  0.00000000000E+00  0.18899400267E+03  0.18899400267E+03  0.00000000000E+00 0. -1.
         21   -1    0    0  504  502 -0.00000000000E+00 -0.00000000000E+00 -0.61142955894E+02  0.61142955894E+02  0.00000000000E+00 0. -1.
         21    1    1    2  503  502 -0.10700131621E+03 -0.55362714360E+01  0.53801434772E+02  0.11989381283E+03  0.00000000000E+00 0. -1.
         21    1    1    2  504  501  0.10700131621E+03  0.55362714360E+01  0.74049612006E+02  0.13024314573E+03  0.00000000000E+00 0. -1.
<mgrwt>
<rscale>  2 0.10714444E+03</rscale>
<asrwt>0</asrwt>
<pdfrwt beam="1">  1       21 0.29076000E-01 0.10714444E+03</pdfrwt>
<pdfrwt beam="2">  1       21 0.94066087E-02 0.10714444E+03</pdfrwt>
<totfact> 0.10224567E+06</totfact>
</mgrwt>
</event>
<event>
 4    1  0.6052129E+003  0.1090689E+03  0.7546771E-02  0.1262304E+00
         21   -1    0    0  504  501  0.00000000000E+00  0.00000000000E+00  0.16378055064E+02  0.16378055064E+02  0.00000000000E+00 0.  1.
         21   -1    0    0  503  502 -0.00000000000E+00 -0.00000000000E+00 -0.74629532954E+03  0.74629532954E+03  0.00000000000E+00 0.  1.
         21    1    1    2  503  501 -0.72501543426E+00 -0.10906644509E+03 -0.30259995652E+03  0.32165625873E+03  0.00000000000E+00 0.  1.
         21    1    1    2  504  502  0.72501543426E+00  0.10906644509E+03 -0.42731731796E+03  0.44101712588E+03  0.00000000000E+00 0.  1.
<mgrwt>
<rscale>  2 0.10906885E+03</rscale>
<asrwt>0</asrwt>
<pdfrwt beam="1">  1       21 0.25197000E-02 0.10906885E+03</pdfrwt>
<pdfrwt beam="2">  1       21 0.11481470E+00 0.10906885E+03</pdfrwt>
<totfact> 0.50485818E+05</totfact>
</mgrwt>
</event>
<event>
 4    1  0.6052129E+003  0.1122181E+03  0.7546771E-02  0.1256517E+00
         21   -1    0    0  503  501  0.00000000000E+00  0.00000000000E+00  0.81427962889E+03  0.81427962889E+03  0.00000000000E+00 0.  1.
         21   -1    0    0  501  502 -0.00000000000E+00 -0.00000000000E+00 -0.96181909443E+02  0.96181909443E+02  0.00000000000E+00 0.  1.
         21    1    1    2  503  504  0.99351228742E+02 -0.52175007412E+02  0.77607853848E+03  0.78414972801E+03  0.00000000000E+00 0.  1.
         21    1    1    2  504  502 -0.99351228742E+02  0.52175007412E+02 -0.57980819033E+02  0.12631181032E+03  0.00000000000E+00 0.  1.
<mgrwt>
<rscale>  2 0.11221808E+03</rscale>
<asrwt>0</asrwt>
<pdfrwt beam="1">  1       21 0.12527378E+00 0.11221808E+03</pdfrwt>
<pdfrwt beam="2">  1       21 0.14797217E-01 0.11221808E+03</pdfrwt>
<totfact> 0.20247158E+04</totfact>
</mgrwt>
</event>
<event>
 4    1  0.6052129E+003  0.1022447E+03  0.7546771E-02  0.1275645E+00
         21   -1    0    0  504  501  0.00000000000E+00  0.00000000000E+00  0.36848804691E+03  0.36848804691E+03  0.00000000000E+00 0. -1.
         21   -1    0    0  501  502 -0.00000000000E+00 -0.00000000000E+00 -0.28677736363E+02  0.28677736363E+02  0.00000000000E+00 0. -1.
         21    1    1    2  503  502 -0.95576727958E+02  0.36318970331E+02  0.19047879767E+03  0.21618545486E+03  0.00000000000E+00 0. -1.
         21    1    1    2  504  503  0.95576727958E+02 -0.36318970331E+02  0.14933151287E+03  0.18098032841E+03  0.00000000000E+00 0. -1.
<mgrwt>
<rscale>  2 0.10224470E+03</rscale>
<asrwt>0</asrwt>
<pdfrwt beam="1">  1       21 0.56690466E-01 0.10224470E+03</pdfrwt>
<pdfrwt beam="2">  1       21 0.44119597E-02 0.10224470E+03</pdfrwt>
<totfact> 0.97314782E+05</totfact>
</mgrwt>
</event>
<event>
 4    1  0.6052129E+003  0.1318910E+03  0.7546771E-02  0.1224677E+00
         21   -1    0    0  503  501  0.00000000000E+00  0.00000000000E+00  0.13232903275E+03  0.13232903275E+03  0.00000000000E+00 0. -1.
         21   -1    0    0  504  502 -0.00000000000E+00 -0.00000000000E+00 -0.14966624472E+03  0.14966624472E+03  0.00000000000E+00 0. -1.
         21    1    1    2  503  502 -0.12966059503E+03  0.24152706132E+02 -0.57853056375E+02  0.14402152356E+03  0.00000000000E+00 0. -1.
         21    1    1    2  504  501  0.12966059503E+03 -0.24152706132E+02  0.40515844406E+02  0.13797375390E+03  0.00000000000E+00 0. -1.
<mgrwt>
<rscale>  2 0.13189095E+03</rscale>
<asrwt>0</asrwt>
<pdfrwt beam="1">  1       21 0.20358313E-01 0.13189095E+03</pdfrwt>
<pdfrwt beam="2">  1       21 0.23025576E-01 0.13189095E+03</pdfrwt>
<totfact> 0.39942680E+05</totfact>
</mgrwt>
</event>
<event>
 4    1  0.6052129E+003  0.1026618E+03  0.7546771E-02  0.1274796E+00
         21   -1    0    0  502  501  0.00000000000E+00  0.00000000000E+00  0.35085354207E+03  0.35085354207E+03  0.00000000000E+00 0. -1.
         21   -1    0    0  503  502 -0.00000000000E+00 -0.00000000000E+00 -0.36903388228E+02  0.36903388228E+02  0.00000000000E+00 0. -1.
         21    1    1    2  503  504  0.83749687544E+02 -0.59375399672E+02  0.73360294968E+02  0.12617916281E+03  0.00000000000E+00 0. -1.
         21    1    1    2  504  501 -0.83749687544E+02  0.59375399672E+02  0.24058985888E+03  0.26157776749E+03  0.00000000000E+00 0. -1.
<mgrwt>
<rscale>  2 0.10266181E+03</rscale>
<asrwt>0</asrwt>
<pdfrwt beam="1">  1       21 0.53977466E-01 0.10266181E+03</pdfrwt>
<pdfrwt beam="2">  1       21 0.56774446E-02 0.10266181E+03</pdfrwt>
<totfact> 0.70731583E+05</totfact>
</mgrwt>
</event>
<event>
 4    1  0.6052129E+003  0.1072444E+03  0.7546771E-02  0.1265760E+00
         21   -1    0    0  503  501  0.00000000000E+00  0.00000000000E+00  0.39734955039E+03  0.39734955039E+03  0.00000000000E+00 0.  1.
         21   -1    0    0  504  502 -0.00000000000E+00 -0.00000000000E+00 -0.30783758214E+02  0.30783758214E+02  0.00000000000E+00 0.  1.
         21    1    1    2  503  502 -0.78772500757E+02 -0.72775378628E+02  0.23559796171E+03  0.25885857562E+03  0.00000000000E+00 0.  1.
         21    1    1    2  504  501  0.78772500757E+02  0.72775378628E+02  0.13096783047E+03  0.16927473299E+03  0.00000000000E+00 0.  1.
<mgrwt>
<rscale>  2 0.10724441E+03</rscale>
<asrwt>0</asrwt>
<pdfrwt beam="1">  1       21 0.61130696E-01 0.10724441E+03</pdfrwt>
<pdfrwt beam="2">  1       21 0.47359631E-02 0.10724441E+03</pdfrwt>
<totfact> 0.73825967E+05</totfact>
</mgrwt>
</event>
<event>
 4    1  0.6052129E+003  0.1234150E+03  0.7546771E-02  0.1237567E+00
         21   -1    0    0  504  501  0.00000000000E+00  0.00000000000E+00  0.87480837524E+03  0.87480837524E+03  0.00000000000E+00 0.  1.
         21   -1    0    0  501  502 -0.00000000000E+00 -0.00000000000E+00 -0.18038171652E+02  0.18038171652E+02  0.00000000000E+00 0.  1.
         21    1    1    2  503  502  0.10082522302E+03 -0.71172552867E+02  0.51162967800E+03  0.52630427064E+03  0.00000000000E+00 0.  1.
         21    1    1    2  504  503 -0.10082522302E+03  0.71172552867E+02  0.34514052558E+03  0.36654227625E+03  0.00000000000E+00 0.  1.
<mgrwt>
<rscale>  2 0.12341498E+03</rscale>
<asrwt>0</asrwt>
<pdfrwt beam="1">  1       21 0.13458587E+00 0.12341498E+03</pdfrwt>
<pdfrwt beam="2">  1       21 0.27751040E-02 0.12341498E+03</pdfrwt>
<totfact> 0.29126492E+05</totfact>
</mgrwt>
</event>
<event>
 4    1  0.6052129E+003  0.1471487E+03  0.7546771E-02  0.1204021E+00
         21   -1    0    0  503  501  0.00000000000E+00  0.00000000000E+00  0.41018036107E+02  0.41018036107E+02  0.00000000000E+00 0.  1.
         21   -1    0    0  501  502 -0.00000000000E+00 -0.00000000000E+00 -0.15020579245E+04  0.15020579245E+04  0.00000000000E+00 0.  1.
         21    1    1    2  503  504 -0.68243353653E+02  0.13036712468E+03 -0.10917561104E+03  0.18322678997E+03  0.00000000000E+00 0.  1.
         21    1    1    2  504  502  0.68243353653E+02 -0.13036712468E+03 -0.13518642773E+04  0.13598491706E+04  0.00000000000E+00 0.  1.
<mgrwt>
<rscale>  2 0.14714871E+03</rscale>
<asrwt>0</asrwt>
<pdfrwt beam="1">  1       21 0.63104671E-02 0.14714871E+03</pdfrwt>
<pdfrwt beam="2">  1       21 0.23108583E+00 0.14714871E+03</pdfrwt>
<totfact> 0.16253266E+04</totfact>
</mgrwt>
</event>
<event>
 4    1  0.6052129E+003  0.1700913E+03  0.7546771E-02  0.1177753E+00
         21   -1    0    0  503  501  0.00000000000E+00  0.00000000000E+00  0.36802094527E+02  0.36802094527E+02  0.00000000000E+00 0.  1.
         21   -1    0    0  504  502 -0.00000000000E+00 -0.00000000000E+00 -0.10149369921E+04  0.10149369921E+04  0.00000000000E+00 0. -1.
         21    1    1    2  503  502 -0.13205098230E+03 -0.10720820900E+03 -0.73875533369E+03  0.75808344202E+03  0.00000000000E+00 0. -1.
         21    1    1    2  504  501  0.13205098230E+03  0.10720820900E+03 -0.23937956386E+03  0.29365564458E+03  0.00000000000E+00 0.  1.
<mgrwt>
<rscale>  2 0.17009133E+03</rscale>
<asrwt>0</asrwt>
<pdfrwt beam="1">  1       21 0.56618607E-02 0.17009133E+03</pdfrwt>
<pdfrwt beam="2">  1       21 0.15614415E+00 0.17009133E+03</pdfrwt>
<totfact> 0.59260343E+04</totfact>
</mgrwt>
</event>
<event>
 4    1  0.6052129E+003  0.1626701E+03  0.7546771E-02  0.1185715E+00
         21   -1    0    0  503  501  0.00000000000E+00  0.00000000000E+00  0.54333850592E+02  0.54333850592E+02  0.00000000000E+00 0. -1.
         21   -1    0    0  501  502 -0.00000000000E+00 -0.00000000000E+00 -0.19942444888E+04  0.19942444888E+04  0.00000000000E+00 0. -1.
         21    1    1    2  503  504 -0.66165503482E+02 -0.14860576465E+03 -0.79478369154E+02  0.18104794476E+03  0.00000000000E+00 0. -1.
         21    1    1    2  504  502  0.66165503482E+02  0.14860576465E+03 -0.18604322690E+04  0.18675303946E+04  0.00000000000E+00 0. -1.
<mgrwt>
<rscale>  2 0.16267006E+03</rscale>
<asrwt>0</asrwt>
<pdfrwt beam="1">  1       21 0.83590546E-02 0.16267006E+03</pdfrwt>
<pdfrwt beam="2">  1       21 0.30680682E+00 0.16267006E+03</pdfrwt>
<totfact> 0.36055974E+03</totfact>
</mgrwt>
</event>
<event>
 4    1  0.6052129E+003  0.1485601E+03  0.7546771E-02  0.1202254E+00
         21   -1    0    0  503  501  0.00000000000E+00  0.00000000000E+00  0.17484160185E+03  0.17484160185E+03  0.00000000000E+00 0.  1.
         21   -1    0    0  504  502 -0.00000000000E+00 -0.00000000000E+00 -0.13699988861E+03  0.13699988861E+03  0.00000000000E+00 0.  1.
         21    1    1    2  503  502  0.14642821261E+03 -0.25077459679E+02 -0.24797846518E+02  0.15061551588E+03  0.00000000000E+00 0.  1.
         21    1    1    2  504  501 -0.14642821261E+03  0.25077459679E+02  0.62639559761E+02  0.16122597458E+03  0.00000000000E+00 0.  1.
<mgrwt>
<rscale>  2 0.14856009E+03</rscale>
<asrwt>0</asrwt>
<pdfrwt beam="1">  1       21 0.26898708E-01 0.14856009E+03</pdfrwt>
<pdfrwt beam="2">  1       21 0.21076906E-01 0.14856009E+03</pdfrwt>
<totfact> 0.27825934E+05</totfact>
</mgrwt>
</event>
<event>
 4    1  0.6052129E+003  0.1124413E+03  0.7546771E-02  0.1256115E+00
         21   -1    0    0  504  501  0.00000000000E+00  0.00000000000E+00  0.21618185733E+02  0.21618185733E+02  0.00000000000E+00 0. -1.
         21   -1    0    0  503  502 -0.00000000000E+00 -0.00000000000E+00 -0.59875826550E+03  0.59875826550E+03  0.00000000000E+00 0. -1.
         21    1    1    2  503  501  0.97743073146E+02  0.55581867970E+02 -0.33587252882E+03  0.35419402594E+03  0.00000000000E+00 0. -1.
         21    1    1    2  504  502 -0.97743073146E+02 -0.55581867970E+02 -0.24126755095E+03  0.26618242529E+03  0.00000000000E+00 0. -1.
<mgrwt>
<rscale>  2 0.11244133E+03</rscale>
<asrwt>0</asrwt>
<pdfrwt beam="1">  1       21 0.33258756E-02 0.11244133E+03</pdfrwt>
<pdfrwt beam="2">  1       21 0.92116633E-01 0.11244133E+03</pdfrwt>
<totfact> 0.53754176E+05</totfact>
</mgrwt>
</event>
<event>
 4    1  0.6052129E+003  0.1758092E+03  0.7546771E-02  0.1171922E+00
         21   -1    0    0  503  501  0.00000000000E+00  0.00000000000E+00  0.13945684483E+04  0.13945684483E+04  0.00000000000E+00 0.  1.
         21   -1    0    0  504  502 -0.00000000000E+00 -0.00000000000E+00 -0.79796394621E+02  0.79796394621E+02  0.00000000000E+00 0.  1.
         21    1    1    2  503  502  0.91101169665E+02 -0.15036440507E+03  0.30891068104E+02  0.17850248042E+03  0.00000000000E+00 0.  1.
         21    1    1    2  504  501 -0.91101169665E+02  0.15036440507E+03  0.12838809855E+04  0.12958623625E+04  0.00000000000E+00 0.  1.
<mgrwt>
<rscale>  2 0.17580921E+03</rscale>
<asrwt>0</asrwt>
<pdfrwt beam="1">  1       21 0.21454897E+00 0.17580921E+03</pdfrwt>
<pdfrwt beam="2">  1       21 0.12276369E-01 0.17580921E+03</pdfrwt>
<totfact> 0.62239995E+03</totfact>
</mgrwt>
</event>
<event>
 4    1  0.6052129E+003  0.1062866E+03  0.7546771E-02  0.1267605E+00
         21   -1    0    0  502  501  0.00000000000E+00  0.00000000000E+00  0.23339824402E+04  0.23339824402E+04  0.00000000000E+00 0. -1.
         21   -1    0    0  504  502 -0.00000000000E+00 -0.00000000000E+00 -0.25493826952E+03  0.25493826952E+03  0.00000000000E+00 0. -1.
         21    1    1    2  503  501 -0.74303579669E+01 -0.10602657450E+03  0.23216354965E+04  0.23240671727E+04  0.00000000000E+00 0. -1.
         21    1    1    2  504  503  0.74303579669E+01  0.10602657450E+03 -0.24259132580E+03  0.26485353702E+03  0.00000000000E+00 0. -1.
<mgrwt>
<rscale>  2 0.10628662E+03</rscale>
<asrwt>0</asrwt>
<pdfrwt beam="1">  1       21 0.35907421E+00 0.10628662E+03</pdfrwt>
<pdfrwt beam="2">  1       21 0.39221274E-01 0.10628662E+03</pdfrwt>
<totfact> 0.11860873E+02</totfact>
</mgrwt>
</event>
<event>
 4    1  0.6052129E+003  0.1031058E+03  0.7546771E-02  0.1273897E+00
         21   -1    0    0  503  501  0.00000000000E+00  0.00000000000E+00  0.23376031993E+03  0.23376031993E+03  0.00000000000E+00 0. -1.
         21   -1    0    0  501  502 -0.00000000000E+00 -0.00000000000E+00 -0.24891880266E+03  0.24891880266E+03  0.00000000000E+00 0. -1.
         21    1    1    2  503  504  0.29638801283E+02  0.98754020427E+02  0.21060296135E+03  0.23448757413E+03  0.00000000000E+00 0. -1.
         21    1    1    2  504  502 -0.29638801283E+02 -0.98754020427E+02 -0.22576144408E+03  0.24819154845E+03  0.00000000000E+00 0. -1.
<mgrwt>
<rscale>  2 0.10310584E+03</rscale>
<asrwt>0</asrwt>
<pdfrwt beam="1">  1       21 0.35963126E-01 0.10310584E+03</pdfrwt>
<pdfrwt beam="2">  1       21 0.38295200E-01 0.10310584E+03</pdfrwt>
<totfact> 0.51398554E+04</totfact>
</mgrwt>
</event>
<event>
 4    1  0.6052129E+003  0.1179203E+03  0.7546771E-02  0.1246568E+00
         21   -1    0    0  503  501  0.00000000000E+00  0.00000000000E+00  0.47778585983E+02  0.47778585983E+02  0.00000000000E+00 0. -1.
         21   -1    0    0  504  502 -0.00000000000E+00 -0.00000000000E+00 -0.33948209157E+03  0.33948209157E+03  0.00000000000E+00 0.  1.
         21    1    1    2  503  502 -0.10098186261E+03 -0.60892229810E+02 -0.21899978192E+03  0.24872897843E+03  0.00000000000E+00 0.  1.
         21    1    1    2  504  501  0.10098186261E+03  0.60892229810E+02 -0.72703723667E+02  0.13853169913E+03  0.00000000000E+00 0. -1.
<mgrwt>
<rscale>  2 0.11792031E+03</rscale>
<asrwt>0</asrwt>
<pdfrwt beam="1">  1       21 0.73505519E-02 0.11792031E+03</pdfrwt>
<pdfrwt beam="2">  1       21 0.52228013E-01 0.11792031E+03</pdfrwt>
<totfact> 0.48841973E+05</totfact>
</mgrwt>
</event>
<event>
 4    1  0.6052129E+003  0.1435608E+03  0.7546771E-02  0.1208616E+00
         21   -1    0    0  503  501  0.00000000000E+00  0.00000000000E+00  0.27991869812E+02  0.27991869812E+02  0.00000000000E+00 0.  1.
         21   -1    0    0  504  502 -0.00000000000E+00 -0.00000000000E+00 -0.16859330849E+04  0.16859330849E+04  0.00000000000E+00 0. -1.
         21    1    1    2  503  502  0.12721811729E+03 -0.66522598436E+02 -0.14721399634E+04  0.14791233137E+04  0.00000000000E+00 0. -1.
         21    1    1    2  504  501 -0.12721811729E+03  0.66522598436E+02 -0.18580125174E+03  0.23480164100E+03  0.00000000000E+00 0.  1.
<mgrwt>
<rscale>  2 0.14356081E+03</rscale>
<asrwt>0</asrwt>
<pdfrwt beam="1">  1       21 0.43064405E-02 0.14356081E+03</pdfrwt>
<pdfrwt beam="2">  1       21 0.25937438E+00 0.14356081E+03</pdfrwt>
<totfact> 0.21287575E+04</totfact>
</mgrwt>
</event>
<event>
 4    1  0.6052129E+003  0.2091734E+03  0.7546771E-02  0.1142222E+00
         21   -1    0    0  503  501  0.00000000000E+00  0.00000000000E+00  0.60668775201E+03  0.60668775201E+03  0.00000000000E+00 0. -1.
         21   -1    0    0  501  502 -0.00000000000E+00 -0.00000000000E+00 -0.76377382241E+02  0.76377382241E+02  0.00000000000E+00 0. -1.
         21    1    1    2  503  504  0.19914367991E+03  0.63994668714E+02  0.34580216730E+03  0.40414435760E+03  0.00000000000E+00 0. -1.
         21    1    1    2  504  502 -0.19914367991E+03 -0.63994668714E+02  0.18450820247E+03  0.27892077665E+03  0.00000000000E+00 0. -1.
<mgrwt>
<rscale>  2 0.20917343E+03</rscale>
<asrwt>0</asrwt>
<pdfrwt beam="1">  1       21 0.93336574E-01 0.20917343E+03</pdfrwt>
<pdfrwt beam="2">  1       21 0.11750367E-01 0.20917343E+03</pdfrwt>
<totfact> 0.58349661E+04</totfact>
</mgrwt>
</event>
<event>
 4    1  0.6052129E+003  0.1007704E+03  0.7546771E-02  0.1278684E+00
         21   -1    0    0  503  501  0.00000000000E+00  0.00000000000E+00  0.35795465234E+02  0.35795465234E+02  0.00000000000E+00 0.  1.
         21   -1    0    0  504  502 -0.00000000000E+00 -0.00000000000E+00 -0.13172294725E+04  0.13172294725E+04  0.00000000000E+00 0. -1.
         21    1    1    2  503  502  0.17332317340E+02 -0.99268680125E+02 -0.12399688968E+04  0.12440568898E+04  0.00000000000E+00 0. -1.
         21    1    1    2  504  501 -0.17332317340E+02  0.99268680125E+02 -0.41465110450E+02  0.10896804790E+03  0.00000000000E+00 0.  1.
<mgrwt>
<rscale>  2 0.10077043E+03</rscale>
<asrwt>0</asrwt>
<pdfrwt beam="1">  1       21 0.55069946E-02 0.10077043E+03</pdfrwt>
<pdfrwt beam="2">  1       21 0.20265069E+00 0.10077043E+03</pdfrwt>
<totfact> 0.31932394E+04</totfact>
</mgrwt>
</event>
<event>
 4    1  0.6052129E+003  0.1210545E+03  0.7546771E-02  0.1241368E+00
         21   -1    0    0  502  501  0.00000000000E+00  0.00000000000E+00  0.25353065742E+02  0.25353065742E+02  0.00000000000E+00 0.  1.
         21   -1    0    0  504  502 -0.00000000000E+00 -0.00000000000E+00 -0.94389286763E+03  0.94389286763E+03  0.00000000000E+00 0.  1.
         21    1    1    2  503  501 -0.25659662028E+02  0.11830371251E+03 -0.15754098822E+03  0.19867901152E+03  0.00000000000E+00 0.  1.
         21    1    1    2  504  503  0.25659662028E+02 -0.11830371251E+03 -0.76099881367E+03  0.77056692185E+03  0.00000000000E+00 0.  1.
<mgrwt>
<rscale>  2 0.12105448E+03</rscale>
<asrwt>0</asrwt>
<pdfrwt beam="1">  1       21 0.39004714E-02 0.12105448E+03</pdfrwt>
<pdfrwt beam="2">  1       21 0.14521430E+00 0.12105448E+03</pdfrwt>
<totfact> 0.13737719E+05</totfact>
</mgrwt>
</event>
<event>
 4    1  0.6052129E+003  0.1201699E+03  0.7546771E-02  0.1242817E+00
         21   -1    0    0  504  501  0.00000000000E+00  0.00000000000E+00  0.43213465868E+02  0.43213465868E+02  0.00000000000E+00 0. -1.
         21   -1    0    0  503  502 -0.00000000000E+00 -0.00000000000E+00 -0.60507591642E+03  0.60507591642E+03  0.00000000000E+00 0.  1.
         21    1    1    2  503  501  0.98808289502E+02 -0.68393848327E+02 -0.64040793930E+02  0.13616908552E+03  0.00000000000E+00 0. -1.
         21    1    1    2  504  502 -0.98808289502E+02  0.68393848327E+02 -0.49782165662E+03  0.51212029677E+03  0.00000000000E+00 0.  1.
<mgrwt>
<rscale>  2 0.12016987E+03</rscale>
<asrwt>0</asrwt>
<pdfrwt beam="1">  1       21 0.66482259E-02 0.12016987E+03</pdfrwt>
<pdfrwt beam="2">  1       21 0.93088597E-01 0.12016987E+03</pdfrwt>
<totfact> 0.16466104E+05</totfact>
</mgrwt>
</event>
<event>
 4    1  0.6052129E+003  0.1243627E+03  0.7546771E-02  0.1236069E+00
         21   -1    0    0  503  501  0.00000000000E+00  0.00000000000E+00  0.88641601310E+02  0.88641601310E+02  0.00000000000E+00 0.  1.
         21   -1    0    0  504  502 -0.00000000000E+00 -0.00000000000E+00 -0.25469623297E+03  0.25469623297E+03  0.00000000000E+00 0.  1.
         21    1    1    2  503  502  0.67637563233E+02 -0.10436108081E+03  0.13314525392E+02  0.12507338539E+03  0.00000000000E+00 0.  1.
         21    1    1    2  504  501 -0.67637563233E+02  0.10436108081E+03 -0.17936915705E+03  0.21826444889E+03  0.00000000000E+00 0.  1.
<mgrwt>
<rscale>  2 0.12436268E+03</rscale>
<asrwt>0</asrwt>
<pdfrwt beam="1">  1       21 0.13637169E-01 0.12436268E+03</pdfrwt>
<pdfrwt beam="2">  1       21 0.39184036E-01 0.12436268E+03</pdfrwt>
<totfact> 0.29701907E+05</totfact>
</mgrwt>
</event>
<event>
 4    1  0.6052129E+003  0.1054756E+03  0.7546771E-02  0.1269185E+00
         21   -1    0    0  504  501  0.00000000000E+00  0.00000000000E+00  0.23329150911E+03  0.23329150911E+03  0.00000000000E+00 0.  1.
         21   -1    0    0  503  502 -0.00000000000E+00 -0.00000000000E+00 -0.12896422477E+03  0.12896422477E+03  0.00000000000E+00 0.  1.
         21    1    1    2  503  501  0.70702443983E+02  0.78270502370E+02  0.19595524823E+03  0.22253890994E+03  0.00000000000E+00 0.  1.
         21    1    1    2  504  502 -0.70702443983E+02 -0.78270502370E+02 -0.91627963894E+02  0.13971682395E+03  0.00000000000E+00 0.  1.
<mgrwt>
<rscale>  2 0.10547562E+03</rscale>
<asrwt>0</asrwt>
<pdfrwt beam="1">  1       21 0.35891001E-01 0.10547562E+03</pdfrwt>
<pdfrwt beam="2">  1       21 0.19840650E-01 0.10547562E+03</pdfrwt>
<totfact> 0.17995600E+05</totfact>
</mgrwt>
</event>
<event>
 4    1  0.6052129E+003  0.1692146E+03  0.7546771E-02  0.1178669E+00
         21   -1    0    0  503  501  0.00000000000E+00  0.00000000000E+00  0.41857222083E+03  0.41857222083E+03  0.00000000000E+00 0.  1.
         21   -1    0    0  504  502 -0.00000000000E+00 -0.00000000000E+00 -0.96170071736E+02  0.96170071736E+02  0.00000000000E+00 0.  1.
         21    1    1    2  503  502  0.10179662686E+03 -0.13517031863E+03  0.22918304999E+02  0.17075952970E+03  0.00000000000E+00 0.  1.
         21    1    1    2  504  501 -0.10179662686E+03  0.13517031863E+03  0.29948384410E+03  0.34398276287E+03  0.00000000000E+00 0.  1.
<mgrwt>
<rscale>  2 0.16921456E+03</rscale>
<asrwt>0</asrwt>
<pdfrwt beam="1">  1       21 0.64395725E-01 0.16921456E+03</pdfrwt>
<pdfrwt beam="2">  1       21 0.14795396E-01 0.16921456E+03</pdfrwt>
<totfact> 0.90319665E+04</totfact>
</mgrwt>
</event>
<event>
 4    1  0.6052129E+003  0.1127633E+03  0.7546771E-02  0.1255537E+00
         21   -1    0    0  503  501  0.00000000000E+00  0.00000000000E+00  0.20890855074E+03  0.20890855074E+03  0.00000000000E+00 0.  1.
         21   -1    0    0  504  502 -0.00000000000E+00 -0.00000000000E+00 -0.16778604570E+03  0.16778604570E+03  0.00000000000E+00 0. -1.
         21    1    1    2  503  502 -0.89510131240E+02  0.68582025941E+02  0.17091344970E+03  0.20476075104E+03  0.00000000000E+00 0.  1.
         21    1    1    2  504  501  0.89510131240E+02 -0.68582025941E+02 -0.12979094466E+03  0.17193384540E+03  0.00000000000E+00 0. -1.
<mgrwt>
<rscale>  2 0.11276328E+03</rscale>
<asrwt>0</asrwt>
<pdfrwt beam="1">  1       21 0.32139777E-01 0.11276328E+03</pdfrwt>
<pdfrwt beam="2">  1       21 0.25813238E-01 0.11276328E+03</pdfrwt>
<totfact> 0.13633237E+05</totfact>
</mgrwt>
</event>
<event>
 4    1  0.6052129E+003  0.1013775E+03  0.7546771E-02  0.1277426E+00
         21   -1    0    0  504  501  0.00000000000E+00  0.00000000000E+00  0.19360570020E+03  0.19360570020E+03  0.00000000000E+00 0.  1.
         21   -1    0    0  501  502 -0.00000000000E+00 -0.00000000000E+00 -0.19937363295E+03  0.19937363295E+03  0.00000000000E+00 0.  1.
         21    1    1    2  503  502 -0.10086602082E+03 -0.10170733998E+02 -0.17119491841E+03  0.19896004140E+03  0.00000000000E+00 0.  1.
         21    1    1    2  504  503  0.10086602082E+03  0.10170733998E+02  0.16542698566E+03  0.19401929174E+03  0.00000000000E+00 0.  1.
<mgrwt>
<rscale>  2 0.10137750E+03</rscale>
<asrwt>0</asrwt>
<pdfrwt beam="1">  1       21 0.29785492E-01 0.10137750E+03</pdfrwt>
<pdfrwt beam="2">  1       21 0.30672867E-01 0.10137750E+03</pdfrwt>
<totfact> 0.11416150E+05</totfact>
</mgrwt>
</event>
<event>
 4    1  0.6052129E+003  0.1187790E+03  0.7546771E-02  0.1245125E+00
         21   -1    0    0  503  501  0.00000000000E+00  0.00000000000E+00  0.57935240299E+02  0.57935240299E+02  0.00000000000E+00 0. -1.
         21   -1    0    0  504  502 -0.00000000000E+00 -0.00000000000E+00 -0.52000289600E+03  0.52000289600E+03  0.00000000000E+00 0. -1.
         21    1    1    2  503  502 -0.10263606573E+03  0.59785275927E+02 -0.44174225885E+03  0.45743268845E+03  0.00000000000E+00 0. -1.
         21    1    1    2  504  501  0.10263606573E+03 -0.59785275927E+02 -0.20325396856E+02  0.12050544786E+03  0.00000000000E+00 0. -1.
<mgrwt>
<rscale>  2 0.11877896E+03</rscale>
<asrwt>0</asrwt>
<pdfrwt beam="1">  1       21 0.89131142E-02 0.11877896E+03</pdfrwt>
<pdfrwt beam="2">  1       21 0.80000443E-01 0.11877896E+03</pdfrwt>
<totfact> 0.14030493E+05</totfact>
</mgrwt>
</event>
<event>
 4    1  0.6052129E+003  0.1316913E+03  0.7546771E-02  0.1224968E+00
         21   -1    0    0  503  501  0.00000000000E+00  0.00000000000E+00  0.13089984922E+03  0.13089984922E+03  0.00000000000E+00 0.  1.
         21   -1    0    0  504  502 -0.00000000000E+00 -0.00000000000E+00 -0.27052102254E+03  0.27052102254E+03  0.00000000000E+00 0. -1.
         21    1    1    2  503  502 -0.12984824275E+03 -0.21955139035E+02  0.73560548370E+02  0.15084345710E+03  0.00000000000E+00 0.  1.
         21    1    1    2  504  501  0.12984824275E+03  0.21955139035E+02 -0.21318172169E+03  0.25057741466E+03  0.00000000000E+00 0. -1.
<mgrwt>
<rscale>  2 0.13169128E+03</rscale>
<asrwt>0</asrwt>
<pdfrwt beam="1">  1       21 0.20138438E-01 0.13169128E+03</pdfrwt>
<pdfrwt beam="2">  1       21 0.41618619E-01 0.13169128E+03</pdfrwt>
<totfact> 0.12935349E+05</totfact>
</mgrwt>
</event>
<event>
 4    1  0.6052129E+003  0.1488912E+03  0.7546771E-02  0.1201842E+00
         21   -1    0    0  504  501  0.00000000000E+00  0.00000000000E+00  0.57876479463E+03  0.57876479463E+03  0.00000000000E+00 0. -1.
         21   -1    0    0  501  502 -0.00000000000E+00 -0.00000000000E+00 -0.25802981771E+03  0.25802981771E+03  0.00000000000E+00 0.  1.
         21    1    1    2  503  502 -0.65960097936E+02 -0.13348355434E+03 -0.22572840425E+03  0.27041062532E+03  0.00000000000E+00 0.  1.
         21    1    1    2  504  503  0.65960097936E+02  0.13348355434E+03  0.54646338117E+03  0.56638398703E+03  0.00000000000E+00 0. -1.
<mgrwt>
<rscale>  2 0.14889121E+03</rscale>
<asrwt>0</asrwt>
<pdfrwt beam="1">  1       21 0.89040737E-01 0.14889121E+03</pdfrwt>
<pdfrwt beam="2">  1       21 0.39696895E-01 0.14889121E+03</pdfrwt>
<totfact> 0.68237612E+03</totfact>
</mgrwt>
</event>
<event>
 4    1  0.6052129E+003  0.1805139E+03  0.7546771E-02  0.1167307E+00
         21   -1    0    0  502  501  0.00000000000E+00  0.00000000000E+00  0.51499063125E+03  0.51499063125E+03  0.00000000000E+00 0.  1.
         21   -1    0    0  504  502 -0.00000000000E+00 -0.00000000000E+00 -0.13221859877E+03  0.13221859877E+03  0.00000000000E+00 0.  1.
         21    1    1    2  503  501  0.17057650188E+03 -0.59067221464E+02  0.42506519008E+03  0.46180698940E+03  0.00000000000E+00 0.  1.
         21    1    1    2  504  503 -0.17057650188E+03  0.59067221464E+02 -0.42293157607E+02  0.18540224062E+03  0.00000000000E+00 0.  1.
<mgrwt>
<rscale>  2 0.18051393E+03</rscale>
<asrwt>0</asrwt>
<pdfrwt beam="1">  1       21 0.79229327E-01 0.18051393E+03</pdfrwt>
<pdfrwt beam="2">  1       21 0.20341323E-01 0.18051393E+03</pdfrwt>
<totfact> 0.31646619E+04</totfact>
</mgrwt>
</event>
<event>
 4    1  0.6052129E+003  0.1089254E+03  0.7546771E-02  0.1262573E+00
         21   -1    0    0  503  501  0.00000000000E+00  0.00000000000E+00  0.11500822070E+04  0.11500822070E+04  0.00000000000E+00 0. -1.
         21   -1    0    0  501  502 -0.00000000000E+00 -0.00000000000E+00 -0.55272971202E+02  0.55272971202E+02  0.00000000000E+00 0.  1.
         21    1    1    2  503  504 -0.97159336951E+02 -0.49242297690E+02  0.10909365836E+04  0.10963609670E+04  0.00000000000E+00 0. -1.
         21    1    1    2  504  502  0.97159336951E+02  0.49242297690E+02  0.38726522436E+01  0.10899421119E+03  0.00000000000E+00 0.  1.
<mgrwt>
<rscale>  2 0.10892539E+03</rscale>
<asrwt>0</asrwt>
<pdfrwt beam="1">  1       21 0.17693571E+00 0.10892539E+03</pdfrwt>
<pdfrwt beam="2">  1       21 0.85035349E-02 0.10892539E+03</pdfrwt>
<totfact> 0.22095129E+04</totfact>
</mgrwt>
</event>
<event>
 4    1  0.6052129E+003  0.1061385E+03  0.7546771E-02  0.1267893E+00
         21   -1    0    0  504  501  0.00000000000E+00  0.00000000000E+00  0.65858328208E+02  0.65858328208E+02  0.00000000000E+00 0. -1.
         21   -1    0    0  501  502 -0.00000000000E+00 -0.00000000000E+00 -0.17192657016E+03  0.17192657016E+03  0.00000000000E+00 0. -1.
         21    1    1    2  503  502  0.74322775286E+02 -0.75772675187E+02 -0.61500960388E+02  0.12266923559E+03  0.00000000000E+00 0. -1.
         21    1    1    2  504  503 -0.74322775286E+02  0.75772675187E+02 -0.44567281563E+02  0.11511566278E+03  0.00000000000E+00 0. -1.
<mgrwt>
<rscale>  2 0.10613846E+03</rscale>
<asrwt>0</asrwt>
<pdfrwt beam="1">  1       21 0.10132051E-01 0.10613846E+03</pdfrwt>
<pdfrwt beam="2">  1       21 0.26450241E-01 0.10613846E+03</pdfrwt>
<totfact> 0.10756538E+06</totfact>
</mgrwt>
</event>
<event>
 4    1  0.6052129E+003  0.1101042E+03  0.7546771E-02  0.1260377E+00
         21   -1    0    0  503  501  0.00000000000E+00  0.00000000000E+00  0.36815754303E+02  0.36815754303E+02  0.00000000000E+00 0.  1.
         21   -1    0    0  504  502 -0.00000000000E+00 -0.00000000000E+00 -0.40868844079E+03  0.40868844079E+03  0.00000000000E+00 0.  1.
         21    1    1    2  503  502 -0.10595961241E+03 -0.29924910554E+02 -0.87752387327E+02  0.14079567186E+03  0.00000000000E+00 0.  1.
         21    1    1    2  504  501  0.10595961241E+03  0.29924910554E+02 -0.28412029916E+03  0.30470852323E+03  0.00000000000E+00 0.  1.
<mgrwt>
<rscale>  2 0.11010422E+03</rscale>
<asrwt>0</asrwt>
<pdfrwt beam="1">  1       21 0.56639619E-02 0.11010422E+03</pdfrwt>
<pdfrwt beam="2">  1       21 0.62875148E-01 0.11010422E+03</pdfrwt>
<totfact> 0.51525521E+05</totfact>
</mgrwt>
</event>
<event>
 4    1  0.6052129E+003  0.1054881E+03  0.7546771E-02  0.1269161E+00
         21   -1    0    0  504  501  0.00000000000E+00  0.00000000000E+00  0.24982828672E+02  0.24982828672E+02  0.00000000000E+00 0. -1.
         21   -1    0    0  503  502 -0.00000000000E+00 -0.00000000000E+00 -0.85568655776E+03  0.85568655776E+03  0.00000000000E+00 0. -1.
         21    1    1    2  503  501  0.10102106992E+03  0.30372403432E+02 -0.72025436281E+03  0.72793824367E+03  0.00000000000E+00 0. -1.
         21    1    1    2  504  502 -0.10102106992E+03 -0.30372403432E+02 -0.11044936628E+03  0.15273114276E+03  0.00000000000E+00 0. -1.
<mgrwt>
<rscale>  2 0.10548810E+03</rscale>
<asrwt>0</asrwt>
<pdfrwt beam="1">  1       21 0.38435124E-02 0.10548810E+03</pdfrwt>
<pdfrwt beam="2">  1       21 0.13164407E+00 0.10548810E+03</pdfrwt>
<totfact> 0.18153938E+05</totfact>
</mgrwt>
</event>
<event>
 4    1  0.6052129E+003  0.1345225E+03  0.7546771E-02  0.1220895E+00
         21   -1    0    0  504  501  0.00000000000E+00  0.00000000000E+00  0.97012851787E+01  0.97012851787E+01  0.00000000000E+00 0. -1.
         21   -1    0    0  503  502 -0.00000000000E+00 -0.00000000000E+00 -0.22535312188E+04  0.22535312188E+04  0.00000000000E+00 0. -1.
         21    1    1    2  503  501  0.12551296396E+03  0.48402450203E+02 -0.15915755655E+04  0.15972504757E+04  0.00000000000E+00 0. -1.
         21    1    1    2  504  502 -0.12551296396E+03 -0.48402450203E+02 -0.65225436811E+03  0.66598202831E+03  0.00000000000E+00 0. -1.
<mgrwt>
<rscale>  2 0.13452249E+03</rscale>
<asrwt>0</asrwt>
<pdfrwt beam="1">  1       21 0.14925048E-02 0.13452249E+03</pdfrwt>
<pdfrwt beam="2">  1       21 0.34669725E+00 0.13452249E+03</pdfrwt>
<totfact> 0.38741468E+04</totfact>
</mgrwt>
</event>
<event>
 4    1  0.6052129E+003  0.1053363E+03  0.7546771E-02  0.1269458E+00
         21   -1    0    0  504  501  0.00000000000E+00  0.00000000000E+00  0.44540694433E+03  0.44540694433E+03  0.00000000000E+00 0.  1.
         21   -1    0    0  503  502 -0.00000000000E+00 -0.00000000000E+00 -0.25163976402E+02  0.25163976402E+02  0.00000000000E+00 0.  1.
         21    1    1    2  503  501 -0.61633372598E+02 -0.85422900392E+02  0.18655275020E+03  0.21423742236E+03  0.00000000000E+00 0.  1.
         21    1    1    2  504  502  0.61633372598E+02  0.85422900392E+02  0.23369021772E+03  0.25633349837E+03  0.00000000000E+00 0.  1.
<mgrwt>
<rscale>  2 0.10533634E+03</rscale>
<asrwt>0</asrwt>
<pdfrwt beam="1">  1       21 0.68524140E-01 0.10533634E+03</pdfrwt>
<pdfrwt beam="2">  1       21 0.38713813E-02 0.10533634E+03</pdfrwt>
<totfact> 0.80785521E+05</totfact>
</mgrwt>
</event>
<event>
 4    1  0.6052129E+003  0.1257372E+03  0.7546771E-02  0.1233922E+00
         21   -1    0    0  503  501  0.00000000000E+00  0.00000000000E+00  0.22993629527E+02  0.22993629527E+02  0.00000000000E+00 0.  1.
         21   -1    0    0  504  502 -0.00000000000E+00 -0.00000000000E+00 -0.84886022074E+03  0.84886022074E+03  0.00000000000E+00 0.  1.
         21    1    1    2  503  502  0.37262618460E+02  0.12008892262E+03 -0.60295029911E+03  0.61592119242E+03  0.00000000000E+00 0.  1.
         21    1    1    2  504  501 -0.37262618460E+02 -0.12008892262E+03 -0.22291629210E+03  0.25593265785E+03  0.00000000000E+00 0.  1.
<mgrwt>
<rscale>  2 0.12573723E+03</rscale>
<asrwt>0</asrwt>
<pdfrwt beam="1">  1       21 0.35374820E-02 0.12573723E+03</pdfrwt>
<pdfrwt beam="2">  1       21 0.13059386E+00 0.12573723E+03</pdfrwt>
<totfact> 0.21060633E+05</totfact>
</mgrwt>
</event>
<event>
 4    1  0.6052129E+003  0.1253124E+03  0.7546771E-02  0.1234582E+00
         21   -1    0    0  503  501  0.00000000000E+00  0.00000000000E+00  0.26650173809E+02  0.26650173809E+02  0.00000000000E+00 0.  1.
         21   -1    0    0  504  502 -0.00000000000E+00 -0.00000000000E+00 -0.13358474045E+04  0.13358474045E+04  0.00000000000E+00 0. -1.
         21    1    1    2  503  502 -0.96763280645E+02  0.79624546539E+02 -0.14529697584E+03  0.19187082134E+03  0.00000000000E+00 0.  1.
         21    1    1    2  504  501  0.96763280645E+02 -0.79624546539E+02 -0.11639002549E+04  0.11706267570E+04  0.00000000000E+00 0. -1.
<mgrwt>
<rscale>  2 0.12531241E+03</rscale>
<asrwt>0</asrwt>
<pdfrwt beam="1">  1       21 0.41000254E-02 0.12531241E+03</pdfrwt>
<pdfrwt beam="2">  1       21 0.20551505E+00 0.12531241E+03</pdfrwt>
<totfact> 0.48948333E+04</totfact>
</mgrwt>
</event>
<event>
 4    1  0.6052129E+003  0.1656447E+03  0.7546771E-02  0.1182467E+00
         21   -1    0    0  504  501  0.00000000000E+00  0.00000000000E+00  0.53840053898E+03  0.53840053898E+03  0.00000000000E+00 0.  1.
         21   -1    0    0  503  502 -0.00000000000E+00 -0.00000000000E+00 -0.55873646713E+02  0.55873646713E+02  0.00000000000E+00 0. -1.
         21    1    1    2  503  501  0.68183002427E+02 -0.15096109109E+03  0.32935821543E+03  0.36866652535E+03  0.00000000000E+00 0.  1.
         21    1    1    2  504  502 -0.68183002427E+02  0.15096109109E+03  0.15316867684E+03  0.22560766035E+03  0.00000000000E+00 0. -1.
<mgrwt>
<rscale>  2 0.16564472E+03</rscale>
<asrwt>0</asrwt>
<pdfrwt beam="1">  1       21 0.82830849E-01 0.16564472E+03</pdfrwt>
<pdfrwt beam="2">  1       21 0.85959460E-02 0.16564472E+03</pdfrwt>
<totfact> 0.13590556E+05</totfact>
</mgrwt>
</event>
<event>
 4    1  0.6052129E+003  0.1223123E+03  0.7546771E-02  0.1239330E+00
         21   -1    0    0  502  501  0.00000000000E+00  0.00000000000E+00  0.18379923740E+03  0.18379923740E+03  0.00000000000E+00 0. -1.
         21   -1    0    0  504  502 -0.00000000000E+00 -0.00000000000E+00 -0.82145417260E+02  0.82145417260E+02  0.00000000000E+00 0. -1.
         21    1    1    2  503  501  0.11647035786E+03 -0.37349096262E+02  0.38115800423E+02  0.12811367411E+03  0.00000000000E+00 0. -1.
         21    1    1    2  504  503 -0.11647035786E+03  0.37349096262E+02  0.63538019718E+02  0.13783098055E+03  0.00000000000E+00 0. -1.
<mgrwt>
<rscale>  2 0.12231230E+03</rscale>
<asrwt>0</asrwt>
<pdfrwt beam="1">  1       21 0.28276806E-01 0.12231230E+03</pdfrwt>
<pdfrwt beam="2">  1       21 0.12637757E-01 0.12231230E+03</pdfrwt>
<totfact> 0.64289392E+05</totfact>
</mgrwt>
</event>
<event>
 4    1  0.6052129E+003  0.1273563E+03  0.7546771E-02  0.1231432E+00
         21   -1    0    0  503  501  0.00000000000E+00  0.00000000000E+00  0.69310111428E+01  0.69310111428E+01  0.00000000000E+00 0. -1.
         21   -1    0    0  504  502 -0.00000000000E+00 -0.00000000000E+00 -0.23523180779E+04  0.23523180779E+04  0.00000000000E+00 0. -1.
         21    1    1    2  503  502 -0.32822757125E+01  0.12731396197E+03 -0.12575284281E+04  0.12639609826E+04  0.00000000000E+00 0. -1.
         21    1    1    2  504  501  0.32822757125E+01 -0.12731396197E+03 -0.10878586387E+04  0.10952881064E+04  0.00000000000E+00 0. -1.
<mgrwt>
<rscale>  2 0.12735627E+03</rscale>
<asrwt>0</asrwt>
<pdfrwt beam="1">  1       21 0.10663100E-02 0.12735627E+03</pdfrwt>
<pdfrwt beam="2">  1       21 0.36189490E+00 0.12735627E+03</pdfrwt>
<totfact> 0.54512532E+04</totfact>
</mgrwt>
</event>
<event>
 4    1  0.6052129E+003  0.1308715E+03  0.7546771E-02  0.1226168E+00
         21   -1    0    0  503  501  0.00000000000E+00  0.00000000000E+00  0.45003954793E+02  0.45003954793E+02  0.00000000000E+00 0.  1.
         21   -1    0    0  504  502 -0.00000000000E+00 -0.00000000000E+00 -0.41377182141E+03  0.41377182141E+03  0.00000000000E+00 0.  1.
         21    1    1    2  503  502 -0.10035673506E+03  0.83999261047E+02 -0.11940947998E+03  0.17716087050E+03  0.00000000000E+00 0.  1.
         21    1    1    2  504  501  0.10035673506E+03 -0.83999261047E+02 -0.24935838663E+03  0.28161490570E+03  0.00000000000E+00 0.  1.
<mgrwt>
<rscale>  2 0.13087150E+03</rscale>
<asrwt>0</asrwt>
<pdfrwt beam="1">  1       21 0.69236853E-02 0.13087150E+03</pdfrwt>
<pdfrwt beam="2">  1       21 0.63657204E-01 0.13087150E+03</pdfrwt>
<totfact> 0.35595233E+05</totfact>
</mgrwt>
</event>
<event>
 4    1  0.6052129E+003  0.1199176E+03  0.7546771E-02  0.1243233E+00
         21   -1    0    0  503  501  0.00000000000E+00  0.00000000000E+00  0.64056882751E+03  0.64056882751E+03  0.00000000000E+00 0. -1.
         21   -1    0    0  501  502 -0.00000000000E+00 -0.00000000000E+00 -0.15454718384E+03  0.15454718384E+03  0.00000000000E+00 0. -1.
         21    1    1    2  503  504  0.10800230323E+03  0.52112726743E+02  0.61056224735E+03  0.62222704190E+03  0.00000000000E+00 0. -1.
         21    1    1    2  504  502 -0.10800230323E+03 -0.52112726743E+02 -0.12454060368E+03  0.17288896944E+03  0.00000000000E+00 0. -1.
<mgrwt>
<rscale>  2 0.11991761E+03</rscale>
<asrwt>0</asrwt>
<pdfrwt beam="1">  1       21 0.98549049E-01 0.11991761E+03</pdfrwt>
<pdfrwt beam="2">  1       21 0.23776490E-01 0.11991761E+03</pdfrwt>
<totfact> 0.14948226E+04</totfact>
</mgrwt>
</event>
<event>
 4    1  0.6052129E+003  0.1101605E+03  0.7546771E-02  0.1260273E+00
         21   -1    0    0  503  501  0.00000000000E+00  0.00000000000E+00  0.47153323540E+02  0.47153323540E+02  0.00000000000E+00 0.  1.
         21   -1    0    0  504  502 -0.00000000000E+00 -0.00000000000E+00 -0.99016397934E+03  0.99016397934E+03  0.00000000000E+00 0. -1.
         21    1    1    2  503  502 -0.88821147413E+02  0.65162331591E+02 -0.25312781085E+02  0.11303124600E+03  0.00000000000E+00 0.  1.
         21    1    1    2  504  501  0.88821147413E+02 -0.65162331591E+02 -0.91769787471E+03  0.92428605688E+03  0.00000000000E+00 0. -1.
<mgrwt>
<rscale>  2 0.11016045E+03</rscale>
<asrwt>0</asrwt>
<pdfrwt beam="1">  1       21 0.72543580E-02 0.11016045E+03</pdfrwt>
<pdfrwt beam="2">  1       21 0.15233291E+00 0.11016045E+03</pdfrwt>
<totfact> 0.43112544E+04</totfact>
</mgrwt>
</event>
<event>
 4    1  0.6052129E+003  0.1183038E+03  0.7546771E-02  0.1245922E+00
         21   -1    0    0  504  501  0.00000000000E+00  0.00000000000E+00  0.20117225297E+04  0.20117225297E+04  0.00000000000E+00 0.  1.
         21   -1    0    0  503  502 -0.00000000000E+00 -0.00000000000E+00 -0.17703660755E+02  0.17703660755E+02  0.00000000000E+00 0.  1.
         21    1    1    2  503  501 -0.11668580106E+03 -0.19499212107E+02  0.20642899151E+03  0.23792587916E+03  0.00000000000E+00 0.  1.
         21    1    1    2  504  502  0.11668580106E+03  0.19499212107E+02  0.17875898775E+04  0.17915003113E+04  0.00000000000E+00 0.  1.
<mgrwt>
<rscale>  2 0.11830383E+03</rscale>
<asrwt>0</asrwt>
<pdfrwt beam="1">  1       21 0.30949559E+00 0.11830383E+03</pdfrwt>
<pdfrwt beam="2">  1       21 0.27236417E-02 0.11830383E+03</pdfrwt>
<totfact> 0.24437481E+04</totfact>
</mgrwt>
</event>
<event>
 4    1  0.6052129E+003  0.1317416E+03  0.7546771E-02  0.1224894E+00
         21   -1    0    0  503  501  0.00000000000E+00  0.00000000000E+00  0.12677917225E+03  0.12677917225E+03  0.00000000000E+00 0.  1.
         21   -1    0    0  504  502 -0.00000000000E+00 -0.00000000000E+00 -0.14299185590E+03  0.14299185590E+03  0.00000000000E+00 0.  1.
         21    1    1    2  503  502  0.61623136075E+02 -0.11644075041E+03  0.19738409582E+02  0.13321210181E+03  0.00000000000E+00 0.  1.
         21    1    1    2  504  501 -0.61623136075E+02  0.11644075041E+03 -0.35951093232E+02  0.13655892633E+03  0.00000000000E+00 0.  1.
<mgrwt>
<rscale>  2 0.13174164E+03</rscale>
<asrwt>0</asrwt>
<pdfrwt beam="1">  1       21 0.19504488E-01 0.13174164E+03</pdfrwt>
<pdfrwt beam="2">  1       21 0.21998747E-01 0.13174164E+03</pdfrwt>
<totfact> 0.47089673E+05</totfact>
</mgrwt>
</event>
<event>
 4    1  0.6052129E+003  0.1574904E+03  0.7546771E-02  0.1191560E+00
         21   -1    0    0  503  501  0.00000000000E+00  0.00000000000E+00  0.51713154610E+02  0.51713154610E+02  0.00000000000E+00 0.  1.
         21   -1    0    0  501  502 -0.00000000000E+00 -0.00000000000E+00 -0.56904028344E+03  0.56904028344E+03  0.00000000000E+00 0.  1.
         21    1    1    2  503  504 -0.10785197689E+03  0.11476569295E+03 -0.13563390413E+03  0.20784554156E+03  0.00000000000E+00 0.  1.
         21    1    1    2  504  502  0.10785197689E+03 -0.11476569295E+03 -0.38169322471E+03  0.41290789649E+03  0.00000000000E+00 0.  1.
<mgrwt>
<rscale>  2 0.15749036E+03</rscale>
<asrwt>0</asrwt>
<pdfrwt beam="1">  1       21 0.79558689E-02 0.15749036E+03</pdfrwt>
<pdfrwt beam="2">  1       21 0.87544670E-01 0.15749036E+03</pdfrwt>
<totfact> 0.13747122E+05</totfact>
</mgrwt>
</event>
<event>
 4    1  0.6052129E+003  0.1018590E+03  0.7546771E-02  0.1276435E+00
         21   -1    0    0  504  501  0.00000000000E+00  0.00000000000E+00  0.14883120656E+03  0.14883120656E+03  0.00000000000E+00 0.  1.
         21   -1    0    0  503  502 -0.00000000000E+00 -0.00000000000E+00 -0.91133398735E+02  0.91133398735E+02  0.00000000000E+00 0.  1.
         21    1    1    2  503  501 -0.43115381447E+02  0.92283909955E+02  0.87019932483E+02  0.13396911884E+03  0.00000000000E+00 0.  1.
         21    1    1    2  504  502  0.43115381447E+02 -0.92283909955E+02 -0.29322124657E+02  0.10599548645E+03  0.00000000000E+00 0.  1.
<mgrwt>
<rscale>  2 0.10185900E+03</rscale>
<asrwt>0</asrwt>
<pdfrwt beam="1">  1       21 0.22897109E-01 0.10185900E+03</pdfrwt>
<pdfrwt beam="2">  1       21 0.14020523E-01 0.10185900E+03</pdfrwt>
<totfact> 0.79525408E+05</totfact>
</mgrwt>
</event>
<event>
 4    1  0.6052129E+003  0.1165073E+03  0.7546771E-02  0.1248973E+00
         21   -1    0    0  502  501  0.00000000000E+00  0.00000000000E+00  0.43557061979E+03  0.43557061979E+03  0.00000000000E+00 0.  1.
         21   -1    0    0  503  502 -0.00000000000E+00 -0.00000000000E+00 -0.70829417409E+02  0.70829417409E+02  0.00000000000E+00 0. -1.
         21    1    1    2  503  504  0.19241344738E+02  0.11490745289E+03 -0.71101328526E+01  0.11672405950E+03  0.00000000000E+00 0. -1.
         21    1    1    2  504  501 -0.19241344738E+02 -0.11490745289E+03  0.37185133523E+03  0.38967597770E+03  0.00000000000E+00 0.  1.
<mgrwt>
<rscale>  2 0.11650730E+03</rscale>
<asrwt>0</asrwt>
<pdfrwt beam="1">  1       21 0.67010863E-01 0.11650730E+03</pdfrwt>
<pdfrwt beam="2">  1       21 0.10896834E-01 0.11650730E+03</pdfrwt>
<totfact> 0.14586964E+05</totfact>
</mgrwt>
</event>
<event>
 4    1  0.6052129E+003  0.1211781E+03  0.7546771E-02  0.1241166E+00
         21   -1    0    0  504  501  0.00000000000E+00  0.00000000000E+00  0.97168310096E+02  0.97168310096E+02  0.00000000000E+00 0.  1.
         21   -1    0    0  501  502 -0.00000000000E+00 -0.00000000000E+00 -0.36799444576E+03  0.36799444576E+03  0.00000000000E+00 0.  1.
         21    1    1    2  503  502 -0.41786083589E+02  0.11374562185E+03 -0.31396222115E+03  0.33653591129E+03  0.00000000000E+00 0.  1.
         21    1    1    2  504  503  0.41786083589E+02 -0.11374562185E+03  0.43136085493E+02  0.12862684457E+03  0.00000000000E+00 0.  1.
<mgrwt>
<rscale>  2 0.12117815E+03</rscale>
<asrwt>0</asrwt>
<pdfrwt beam="1">  1       21 0.14948971E-01 0.12117815E+03</pdfrwt>
<pdfrwt beam="2">  1       21 0.56614530E-01 0.12117815E+03</pdfrwt>
<totfact> 0.11887412E+05</totfact>
</mgrwt>
</event>
<event>
 4    1  0.6052129E+003  0.1312641E+03  0.7546771E-02  0.1225592E+00
         21   -1    0    0  503  501  0.00000000000E+00  0.00000000000E+00  0.62100778612E+02  0.62100778612E+02  0.00000000000E+00 0. -1.
         21   -1    0    0  504  502 -0.00000000000E+00 -0.00000000000E+00 -0.38027221557E+03  0.38027221557E+03  0.00000000000E+00 0.  1.
         21    1    1    2  503  502  0.72726972303E+02  0.10927509709E+03 -0.44074224217E+02  0.13846586794E+03  0.00000000000E+00 0. -1.
         21    1    1    2  504  501 -0.72726972303E+02 -0.10927509709E+03 -0.27409721274E+03  0.30390712624E+03  0.00000000000E+00 0.  1.
<mgrwt>
<rscale>  2 0.13126408E+03</rscale>
<asrwt>0</asrwt>
<pdfrwt beam="1">  1       21 0.95539662E-02 0.13126408E+03</pdfrwt>
<pdfrwt beam="2">  1       21 0.58503416E-01 0.13126408E+03</pdfrwt>
<totfact> 0.24433970E+05</totfact>
</mgrwt>
</event>
<event>
 4    1  0.6052129E+003  0.1151126E+03  0.7546771E-02  0.1251385E+00
         21   -1    0    0  504  501  0.00000000000E+00  0.00000000000E+00  0.53278438297E+02  0.53278438297E+02  0.00000000000E+00 0.  1.
         21   -1    0    0  503  502 -0.00000000000E+00 -0.00000000000E+00 -0.48754328686E+03  0.48754328686E+03  0.00000000000E+00 0.  1.
         21    1    1    2  503  501  0.41451777427E+02 -0.10739023290E+03 -0.27869985565E+02  0.11843837245E+03  0.00000000000E+00 0.  1.
         21    1    1    2  504  502 -0.41451777427E+02  0.10739023290E+03 -0.40639486300E+03  0.42238335271E+03  0.00000000000E+00 0.  1.
<mgrwt>
<rscale>  2 0.11511261E+03</rscale>
<asrwt>0</asrwt>
<pdfrwt beam="1">  1       21 0.81966829E-02 0.11511261E+03</pdfrwt>
<pdfrwt beam="2">  1       21 0.75006659E-01 0.11511261E+03</pdfrwt>
<totfact> 0.18726639E+05</totfact>
</mgrwt>
</event>
<event>
 4    1  0.6052129E+003  0.1055332E+03  0.7546771E-02  0.1269073E+00
         21   -1    0    0  503  501  0.00000000000E+00  0.00000000000E+00  0.14188859463E+03  0.14188859463E+03  0.00000000000E+00 0. -1.
         21   -1    0    0  504  502 -0.00000000000E+00 -0.00000000000E+00 -0.31514457026E+03  0.31514457026E+03  0.00000000000E+00 0. -1.
         21    1    1    2  503  502  0.35327580163E+01  0.10547408479E+03  0.11139585842E+03  0.15344803751E+03  0.00000000000E+00 0. -1.
         21    1    1    2  504  501 -0.35327580163E+01 -0.10547408479E+03 -0.28465183405E+03  0.30358512739E+03  0.00000000000E+00 0. -1.
<mgrwt>
<rscale>  2 0.10553323E+03</rscale>
<asrwt>0</asrwt>
<pdfrwt beam="1">  1       21 0.21829015E-01 0.10553323E+03</pdfrwt>
<pdfrwt beam="2">  1       21 0.48483779E-01 0.10553323E+03</pdfrwt>
<totfact> 0.82681562E+04</totfact>
</mgrwt>
</event>
<event>
 4    1  0.6052129E+003  0.1218156E+03  0.7546771E-02  0.1240132E+00
         21   -1    0    0  503  501  0.00000000000E+00  0.00000000000E+00  0.11917307346E+04  0.11917307346E+04  0.00000000000E+00 0.  1.
         21   -1    0    0  501  502 -0.00000000000E+00 -0.00000000000E+00 -0.32550085049E+03  0.32550085049E+03  0.00000000000E+00 0.  1.
         21    1    1    2  503  504 -0.12108037860E+03 -0.13363435229E+02  0.11770792495E+04  0.11833657926E+04  0.00000000000E+00 0.  1.
         21    1    1    2  504  502  0.12108037860E+03  0.13363435229E+02 -0.31084936535E+03  0.33386579253E+03  0.00000000000E+00 0.  1.
<mgrwt>
<rscale>  2 0.12181560E+03</rscale>
<asrwt>0</asrwt>
<pdfrwt beam="1">  1       21 0.18334319E+00 0.12181560E+03</pdfrwt>
<pdfrwt beam="2">  1       21 0.50077054E-01 0.12181560E+03</pdfrwt>
<totfact> 0.72364808E+02</totfact>
</mgrwt>
</event>
<event>
 4    1  0.6052129E+003  0.1158741E+03  0.7546771E-02  0.1250063E+00
         21   -1    0    0  504  501  0.00000000000E+00  0.00000000000E+00  0.23740330429E+03  0.23740330429E+03  0.00000000000E+00 0.  1.
         21   -1    0    0  503  502 -0.00000000000E+00 -0.00000000000E+00 -0.56659519534E+02  0.56659519534E+02  0.00000000000E+00 0.  1.
         21    1    1    2  503  501  0.11390347715E+03  0.21278946141E+02  0.96629125302E+02  0.15087737906E+03  0.00000000000E+00 0.  1.
         21    1    1    2  504  502 -0.11390347715E+03 -0.21278946141E+02  0.84114659455E+02  0.14318544476E+03  0.00000000000E+00 0.  1.
<mgrwt>
<rscale>  2 0.11587405E+03</rscale>
<asrwt>0</asrwt>
<pdfrwt beam="1">  1       21 0.36523585E-01 0.11587405E+03</pdfrwt>
<pdfrwt beam="2">  1       21 0.87168493E-02 0.11587405E+03</pdfrwt>
<totfact> 0.74995683E+05</totfact>
</mgrwt>
</event>
<event>
 4    1  0.6052129E+003  0.1595522E+03  0.7546771E-02  0.1189203E+00
         21   -1    0    0  503  501  0.00000000000E+00  0.00000000000E+00  0.97277801462E+02  0.97277801462E+02  0.00000000000E+00 0. -1.
         21   -1    0    0  504  502 -0.00000000000E+00 -0.00000000000E+00 -0.27773200944E+03  0.27773200944E+03  0.00000000000E+00 0. -1.
         21    1    1    2  503  502  0.99837052191E+02 -0.12445667516E+03 -0.13528708891E+03  0.20918770855E+03  0.00000000000E+00 0. -1.
         21    1    1    2  504  501 -0.99837052191E+02  0.12445667516E+03 -0.45167119069E+02  0.16582210235E+03  0.00000000000E+00 0. -1.
<mgrwt>
<rscale>  2 0.15955219E+03</rscale>
<asrwt>0</asrwt>
<pdfrwt beam="1">  1       21 0.14965815E-01 0.15955219E+03</pdfrwt>
<pdfrwt beam="2">  1       21 0.42728002E-01 0.15955219E+03</pdfrwt>
<totfact> 0.20955013E+05</totfact>
</mgrwt>
</event>
<event>
 4    1  0.6052129E+003  0.1088541E+03  0.7546771E-02  0.1262707E+00
         21   -1    0    0  504  501  0.00000000000E+00  0.00000000000E+00  0.48412811839E+02  0.48412811839E+02  0.00000000000E+00 0. -1.
         21   -1    0    0  503  502 -0.00000000000E+00 -0.00000000000E+00 -0.26158292649E+03  0.26158292649E+03  0.00000000000E+00 0. -1.
         21    1    1    2  503  501  0.10877220281E+03  0.42229303801E+01 -0.14589933775E+03  0.18203253006E+03  0.00000000000E+00 0. -1.
         21    1    1    2  504  502 -0.10877220281E+03 -0.42229303801E+01 -0.67270776900E+02  0.12796320827E+03  0.00000000000E+00 0. -1.
<mgrwt>
<rscale>  2 0.10885415E+03</rscale>
<asrwt>0</asrwt>
<pdfrwt beam="1">  1       21 0.74481247E-02 0.10885415E+03</pdfrwt>
<pdfrwt beam="2">  1       21 0.40243528E-01 0.10885415E+03</pdfrwt>
<totfact> 0.81089074E+05</totfact>
</mgrwt>
</event>
<event>
 4    1  0.6052129E+003  0.1737601E+03  0.7546771E-02  0.1173982E+00
         21   -1    0    0  503  501  0.00000000000E+00  0.00000000000E+00  0.20598058561E+03  0.20598058561E+03  0.00000000000E+00 0. -1.
         21   -1    0    0  504  502 -0.00000000000E+00 -0.00000000000E+00 -0.39552134546E+03  0.39552134546E+03  0.00000000000E+00 0. -1.
         21    1    1    2  503  502  0.17254229552E+03  0.20535942785E+02 -0.33337061152E+03  0.37593687411E+03  0.00000000000E+00 0. -1.
         21    1    1    2  504  501 -0.17254229552E+03 -0.20535942785E+02  0.14382985167E+03  0.22556505696E+03  0.00000000000E+00 0. -1.
<mgrwt>
<rscale>  2 0.17376009E+03</rscale>
<asrwt>0</asrwt>
<pdfrwt beam="1">  1       21 0.31689321E-01 0.17376009E+03</pdfrwt>
<pdfrwt beam="2">  1       21 0.60849438E-01 0.17376009E+03</pdfrwt>
<totfact> 0.24334222E+04</totfact>
</mgrwt>
</event>
<event>
 4    1  0.6052129E+003  0.1135160E+03  0.7546771E-02  0.1254194E+00
         21   -1    0    0  503  501  0.00000000000E+00  0.00000000000E+00  0.31301247669E+03  0.31301247669E+03  0.00000000000E+00 0. -1.
         21   -1    0    0  501  502 -0.00000000000E+00 -0.00000000000E+00 -0.61375893371E+02  0.61375893371E+02  0.00000000000E+00 0. -1.
         21    1    1    2  503  504 -0.11285945546E+03 -0.12191081115E+02  0.23323243323E+03  0.25939014448E+03  0.00000000000E+00 0. -1.
         21    1    1    2  504  502  0.11285945546E+03  0.12191081115E+02  0.18404150090E+02  0.11499822558E+03  0.00000000000E+00 0. -1.
<mgrwt>
<rscale>  2 0.11351599E+03</rscale>
<asrwt>0</asrwt>
<pdfrwt beam="1">  1       21 0.48155765E-01 0.11351599E+03</pdfrwt>
<pdfrwt beam="2">  1       21 0.94424453E-02 0.11351599E+03</pdfrwt>
<totfact> 0.37503989E+05</totfact>
</mgrwt>
</event>
<event>
 4    1  0.6052129E+003  0.1017743E+03  0.7546771E-02  0.1276608E+00
         21   -1    0    0  504  501  0.00000000000E+00  0.00000000000E+00  0.68892116252E+03  0.68892116252E+03  0.00000000000E+00 0. -1.
         21   -1    0    0  501  502 -0.00000000000E+00 -0.00000000000E+00 -0.64790121993E+02  0.64790121993E+02  0.00000000000E+00 0.  1.
         21    1    1    2  503  502 -0.10057887853E+03  0.15553221034E+02 -0.18181562370E+02  0.10338560200E+03  0.00000000000E+00 0.  1.
         21    1    1    2  504  503  0.10057887853E+03 -0.15553221034E+02  0.64231260290E+03  0.65032568251E+03  0.00000000000E+00 0. -1.
<mgrwt>
<rscale>  2 0.10177433E+03</rscale>
<asrwt>0</asrwt>
<pdfrwt beam="1">  1       21 0.10598787E+00 0.10177433E+03</pdfrwt>
<pdfrwt beam="2">  1       21 0.99677115E-02 0.10177433E+03</pdfrwt>
<totfact> 0.61247161E+04</totfact>
</mgrwt>
</event>
<event>
 4    1  0.6052129E+003  0.1313631E+03  0.7546771E-02  0.1225447E+00
         21   -1    0    0  504  501  0.00000000000E+00  0.00000000000E+00  0.24513745312E+03  0.24513745312E+03  0.00000000000E+00 0. -1.
         21   -1    0    0  503  502 -0.00000000000E+00 -0.00000000000E+00 -0.77820529605E+02  0.77820529605E+02  0.00000000000E+00 0. -1.
         21    1    1    2  503  501  0.36566229830E+02 -0.12617117010E+03  0.33775040144E+02  0.13563556564E+03  0.00000000000E+00 0. -1.
         21    1    1    2  504  502 -0.36566229830E+02  0.12617117010E+03  0.13354188338E+03  0.18732241709E+03  0.00000000000E+00 0. -1.
<mgrwt>
<rscale>  2 0.13136306E+03</rscale>
<asrwt>0</asrwt>
<pdfrwt beam="1">  1       21 0.37713454E-01 0.13136306E+03</pdfrwt>
<pdfrwt beam="2">  1       21 0.11972389E-01 0.13136306E+03</pdfrwt>
<totfact> 0.40362761E+05</totfact>
</mgrwt>
</event>
<event>
 4    1  0.6052129E+003  0.1077583E+03  0.7546771E-02  0.1264778E+00
         21   -1    0    0  504  501  0.00000000000E+00  0.00000000000E+00  0.55539186149E+01  0.55539186149E+01  0.00000000000E+00 0.  1.
         21   -1    0    0  503  502 -0.00000000000E+00 -0.00000000000E+00 -0.23731884753E+04  0.23731884753E+04  0.00000000000E+00 0.  1.
         21    1    1    2  503  501  0.64663816495E+02  0.86200045723E+02 -0.77350643417E+03  0.78097635095E+03  0.00000000000E+00 0.  1.
         21    1    1    2  504  502 -0.64663816495E+02 -0.86200045723E+02 -0.15941281225E+04  0.15977660429E+04  0.00000000000E+00 0.  1.
<mgrwt>
<rscale>  2 0.10775833E+03</rscale>
<asrwt>0</asrwt>
<pdfrwt beam="1">  1       21 0.85444937E-03 0.10775833E+03</pdfrwt>
<pdfrwt beam="2">  1       21 0.36510577E+00 0.10775833E+03</pdfrwt>
<totfact> 0.76262659E+04</totfact>
</mgrwt>
</event>
<event>
 4    1  0.6052129E+003  0.1191145E+03  0.7546771E-02  0.1244565E+00
         21   -1    0    0  504  501  0.00000000000E+00  0.00000000000E+00  0.73742921035E+03  0.73742921035E+03  0.00000000000E+00 0.  1.
         21   -1    0    0  503  502 -0.00000000000E+00 -0.00000000000E+00 -0.72853529999E+02  0.72853529999E+02  0.00000000000E+00 0.  1.
         21    1    1    2  503  501  0.95737170370E+02 -0.70870721714E+02 -0.15262563031E+02  0.12008834588E+03  0.00000000000E+00 0.  1.
         21    1    1    2  504  502 -0.95737170370E+02  0.70870721714E+02  0.67983824338E+03  0.69019439446E+03  0.00000000000E+00 0.  1.
<mgrwt>
<rscale>  2 0.11911450E+03</rscale>
<asrwt>0</asrwt>
<pdfrwt beam="1">  1       21 0.11345064E+00 0.11911450E+03</pdfrwt>
<pdfrwt beam="2">  1       21 0.11208236E-01 0.11911450E+03</pdfrwt>
<totfact> 0.41941598E+04</totfact>
</mgrwt>
</event>
<event>
 4    1  0.6052129E+003  0.1014222E+03  0.7546771E-02  0.1277333E+00
         21   -1    0    0  504  501  0.00000000000E+00  0.00000000000E+00  0.22833945600E+03  0.22833945600E+03  0.00000000000E+00 0. -1.
         21   -1    0    0  503  502 -0.00000000000E+00 -0.00000000000E+00 -0.51899456317E+02  0.51899456317E+02  0.00000000000E+00 0. -1.
         21    1    1    2  503  501 -0.40531691775E+01 -0.10134118982E+03  0.37313096361E+02  0.10806818262E+03  0.00000000000E+00 0. -1.
         21    1    1    2  504  502  0.40531691775E+01  0.10134118982E+03  0.13912690332E+03  0.17217072969E+03  0.00000000000E+00 0. -1.
<mgrwt>
<rscale>  2 0.10142221E+03</rscale>
<asrwt>0</asrwt>
<pdfrwt beam="1">  1       21 0.35129146E-01 0.10142221E+03</pdfrwt>
<pdfrwt beam="2">  1       21 0.79845319E-02 0.10142221E+03</pdfrwt>
<totfact> 0.94037573E+05</totfact>
</mgrwt>
</event>
<event>
 4    1  0.6052129E+003  0.1025044E+03  0.7546771E-02  0.1275116E+00
         21   -1    0    0  503  501  0.00000000000E+00  0.00000000000E+00  0.73776232500E+01  0.73776232500E+01  0.00000000000E+00 0.  1.
         21   -1    0    0  501  502 -0.00000000000E+00 -0.00000000000E+00 -0.14638891817E+04  0.14638891817E+04  0.00000000000E+00 0.  1.
         21    1    1    2  503  504  0.18746161960E+02 -0.10077570359E+03 -0.60711775212E+03  0.61571026137E+03  0.00000000000E+00 0.  1.
         21    1    1    2  504  502 -0.18746161960E+02  0.10077570359E+03 -0.84939380633E+03  0.85555654358E+03  0.00000000000E+00 0.  1.
<mgrwt>
<rscale>  2 0.10250444E+03</rscale>
<asrwt>0</asrwt>
<pdfrwt beam="1">  1       21 0.11350188E-02 0.10250444E+03</pdfrwt>
<pdfrwt beam="2">  1       21 0.22521376E+00 0.10250444E+03</pdfrwt>
<totfact> 0.30192503E+05</totfact>
</mgrwt>
</event>
<event>
 4    1  0.6052129E+003  0.1058260E+03  0.7546771E-02  0.1268501E+00
         21   -1    0    0  504  501  0.00000000000E+00  0.00000000000E+00  0.12351293983E+04  0.12351293983E+04  0.00000000000E+00 0. -1.
         21   -1    0    0  503  502 -0.00000000000E+00 -0.00000000000E+00 -0.10173910546E+02  0.10173910546E+02  0.00000000000E+00 0. -1.
         21    1    1    2  503  501  0.87955982922E+02  0.58846327174E+02  0.40711511726E+03  0.42064458139E+03  0.00000000000E+00 0. -1.
         21    1    1    2  504  502 -0.87955982922E+02 -0.58846327174E+02  0.81784037054E+03  0.82465872749E+03  0.00000000000E+00 0. -1.
<mgrwt>
<rscale>  2 0.10582601E+03</rscale>
<asrwt>0</asrwt>
<pdfrwt beam="1">  1       21 0.19001979E+00 0.10582601E+03</pdfrwt>
<pdfrwt beam="2">  1       21 0.15652180E-02 0.10582601E+03</pdfrwt>
<totfact> 0.29707653E+05</totfact>
</mgrwt>
</event>
<event>
 4    1  0.6052129E+003  0.1992615E+03  0.7546771E-02  0.1150364E+00
         21   -1    0    0  504  501  0.00000000000E+00  0.00000000000E+00  0.45229742464E+03  0.45229742464E+03  0.00000000000E+00 0. -1.
         21   -1    0    0  503  502 -0.00000000000E+00 -0.00000000000E+00 -0.15060193304E+03  0.15060193304E+03  0.00000000000E+00 0.  1.
         21    1    1    2  503  501  0.53314530068E+02 -0.19199664630E+03 -0.43838926020E+02  0.20402696572E+03  0.00000000000E+00 0.  1.
         21    1    1    2  504  502 -0.53314530068E+02  0.19199664630E+03  0.34553441762E+03  0.39887239195E+03  0.00000000000E+00 0. -1.
<mgrwt>
<rscale>  2 0.19926151E+03</rscale>
<asrwt>0</asrwt>
<pdfrwt beam="1">  1       21 0.69584218E-01 0.19926151E+03</pdfrwt>
<pdfrwt beam="2">  1       21 0.23169528E-01 0.19926151E+03</pdfrwt>
<totfact> 0.32742323E+04</totfact>
</mgrwt>
</event>
<event>
 4    1  0.6052129E+003  0.1094190E+03  0.7546771E-02  0.1261650E+00
         21   -1    0    0  502  501  0.00000000000E+00  0.00000000000E+00  0.48254899449E+03  0.48254899449E+03  0.00000000000E+00 0. -1.
         21   -1    0    0  504  502 -0.00000000000E+00 -0.00000000000E+00 -0.70185136225E+02  0.70185136225E+02  0.00000000000E+00 0.  1.
         21    1    1    2  503  501  0.65151114535E+02  0.87908231402E+02  0.42839411991E+03  0.44214708734E+03  0.00000000000E+00 0. -1.
         21    1    1    2  504  503 -0.65151114535E+02 -0.87908231402E+02 -0.16030261643E+02  0.11058704337E+03  0.00000000000E+00 0.  1.
<mgrwt>
<rscale>  2 0.10941903E+03</rscale>
<asrwt>0</asrwt>
<pdfrwt beam="1">  1       21 0.74238305E-01 0.10941903E+03</pdfrwt>
<pdfrwt beam="2">  1       21 0.10797714E-01 0.10941903E+03</pdfrwt>
<totfact> 0.11897055E+05</totfact>
</mgrwt>
</event>
<event>
 4    1  0.6052129E+003  0.1039372E+03  0.7546771E-02  0.1272228E+00
         21   -1    0    0  503  501  0.00000000000E+00  0.00000000000E+00  0.64109220546E+01  0.64109220546E+01  0.00000000000E+00 0.  1.
         21   -1    0    0  504  502 -0.00000000000E+00 -0.00000000000E+00 -0.25450184752E+04  0.25450184752E+04  0.00000000000E+00 0.  1.
         21    1    1    2  503  502  0.97514521627E+02  0.35970156892E+02 -0.52775266952E+03  0.53789015077E+03  0.00000000000E+00 0.  1.
         21    1    1    2  504  501 -0.97514521627E+02 -0.35970156892E+02 -0.20108548836E+04  0.20135392465E+04  0.00000000000E+00 0.  1.
<mgrwt>
<rscale>  2 0.10393716E+03</rscale>
<asrwt>0</asrwt>
<pdfrwt beam="1">  1       21 0.98629461E-03 0.10393716E+03</pdfrwt>
<pdfrwt beam="2">  1       21 0.39154174E+00 0.10393716E+03</pdfrwt>
<totfact> 0.42900795E+04</totfact>
</mgrwt>
</event>
<event>
 4    1  0.6052129E+003  0.1136359E+03  0.7546771E-02  0.1253981E+00
         21   -1    0    0  504  501  0.00000000000E+00  0.00000000000E+00  0.28091101899E+03  0.28091101899E+03  0.00000000000E+00 0. -1.
         21   -1    0    0  503  502 -0.00000000000E+00 -0.00000000000E+00 -0.49926576604E+02  0.49926576604E+02  0.00000000000E+00 0. -1.
         21    1    1    2  503  501 -0.80512779389E+02 -0.80192291174E+02  0.68917452540E+02  0.13290119064E+03  0.00000000000E+00 0. -1.
         21    1    1    2  504  502  0.80512779389E+02  0.80192291174E+02  0.16206698985E+03  0.19793640496E+03  0.00000000000E+00 0. -1.
<mgrwt>
<rscale>  2 0.11363587E+03</rscale>
<asrwt>0</asrwt>
<pdfrwt beam="1">  1       21 0.43217079E-01 0.11363587E+03</pdfrwt>
<pdfrwt beam="2">  1       21 0.76810119E-02 0.11363587E+03</pdfrwt>
<totfact> 0.66697817E+05</totfact>
</mgrwt>
</event>
<event>
 4    1  0.6052129E+003  0.1530830E+03  0.7546771E-02  0.1196735E+00
         21   -1    0    0  504  501  0.00000000000E+00  0.00000000000E+00  0.20359129726E+03  0.20359129726E+03  0.00000000000E+00 0.  1.
         21   -1    0    0  503  502 -0.00000000000E+00 -0.00000000000E+00 -0.54956908953E+03  0.54956908953E+03  0.00000000000E+00 0. -1.
         21    1    1    2  503  501  0.12925638689E+03  0.82019497871E+02 -0.50781798528E+03  0.53038996762E+03  0.00000000000E+00 0. -1.
         21    1    1    2  504  502 -0.12925638689E+03 -0.82019497871E+02  0.16184019301E+03  0.22277041916E+03  0.00000000000E+00 0.  1.
<mgrwt>
<rscale>  2 0.15308302E+03</rscale>
<asrwt>0</asrwt>
<pdfrwt beam="1">  1       21 0.31321738E-01 0.15308302E+03</pdfrwt>
<pdfrwt beam="2">  1       21 0.84549091E-01 0.15308302E+03</pdfrwt>
<totfact> 0.12220183E+04</totfact>
</mgrwt>
</event>
<event>
 4    1  0.6052129E+003  0.1305521E+03  0.7546771E-02  0.1226639E+00
         21   -1    0    0  503  501  0.00000000000E+00  0.00000000000E+00  0.19405679598E+04  0.19405679598E+04  0.00000000000E+00 0. -1.
         21   -1    0    0  501  502 -0.00000000000E+00 -0.00000000000E+00 -0.14688387437E+02  0.14688387437E+02  0.00000000000E+00 0. -1.
         21    1    1    2  503  504  0.12518732828E+03 -0.37040326670E+02  0.15828285895E+04  0.15882034494E+04  0.00000000000E+00 0. -1.
         21    1    1    2  504  502 -0.12518732828E+03  0.37040326670E+02  0.34305098283E+03  0.36705289780E+03  0.00000000000E+00 0. -1.
<mgrwt>
<rscale>  2 0.13055211E+03</rscale>
<asrwt>0</asrwt>
<pdfrwt beam="1">  1       21 0.29854871E+00 0.13055211E+03</pdfrwt>
<pdfrwt beam="2">  1       21 0.22597534E-02 0.13055211E+03</pdfrwt>
<totfact> 0.37479564E+04</totfact>
</mgrwt>
</event>
<event>
 4    1  0.6052129E+003  0.1044960E+03  0.7546771E-02  0.1271116E+00
         21   -1    0    0  502  501  0.00000000000E+00  0.00000000000E+00  0.26970181248E+02  0.26970181248E+02  0.00000000000E+00 0. -1.
         21   -1    0    0  504  502 -0.00000000000E+00 -0.00000000000E+00 -0.90751307368E+03  0.90751307368E+03  0.00000000000E+00 0.  1.
         21    1    1    2  503  501  0.96498973669E+02 -0.40091898699E+02 -0.92539161106E+02  0.13958118999E+03  0.00000000000E+00 0. -1.
         21    1    1    2  504  503 -0.96498973669E+02  0.40091898699E+02 -0.78800373132E+03  0.79490206494E+03  0.00000000000E+00 0.  1.
<mgrwt>
<rscale>  2 0.10449599E+03</rscale>
<asrwt>0</asrwt>
<pdfrwt beam="1">  1       21 0.41492582E-02 0.10449599E+03</pdfrwt>
<pdfrwt beam="2">  1       21 0.13961741E+00 0.10449599E+03</pdfrwt>
<totfact> 0.13821684E+05</totfact>
</mgrwt>
</event>
<event>
 4    1  0.6052129E+003  0.1616760E+03  0.7546771E-02  0.1186817E+00
         21   -1    0    0  502  501  0.00000000000E+00  0.00000000000E+00  0.41919052999E+03  0.41919052999E+03  0.00000000000E+00 0.  1.
         21   -1    0    0  504  502 -0.00000000000E+00 -0.00000000000E+00 -0.62410775153E+02  0.62410775153E+02  0.00000000000E+00 0.  1.
         21    1    1    2  503  501  0.14718495320E+03  0.66900757923E+02  0.18551165839E+03  0.24607660852E+03  0.00000000000E+00 0.  1.
         21    1    1    2  504  503 -0.14718495320E+03 -0.66900757923E+02  0.17126809645E+03  0.23552469663E+03  0.00000000000E+00 0.  1.
<mgrwt>
<rscale>  2 0.16167598E+03</rscale>
<asrwt>0</asrwt>
<pdfrwt beam="1">  1       21 0.64490849E-01 0.16167598E+03</pdfrwt>
<pdfrwt beam="2">  1       21 0.96016580E-02 0.16167598E+03</pdfrwt>
<totfact> 0.19515334E+05</totfact>
</mgrwt>
</event>
<event>
 4    1  0.6052129E+003  0.1009793E+03  0.7546771E-02  0.1278250E+00
         21   -1    0    0  502  501  0.00000000000E+00  0.00000000000E+00  0.67170458574E+03  0.67170458574E+03  0.00000000000E+00 0.  1.
         21   -1    0    0  504  502 -0.00000000000E+00 -0.00000000000E+00 -0.15390145988E+02  0.15390145988E+02  0.00000000000E+00 0.  1.
         21    1    1    2  503  501 -0.90725901746E+02 -0.44335510224E+02  0.36825173934E+03  0.38184574142E+03  0.00000000000E+00 0.  1.
         21    1    1    2  504  503  0.90725901746E+02  0.44335510224E+02  0.28806270041E+03  0.30524899030E+03  0.00000000000E+00 0.  1.
<mgrwt>
<rscale>  2 0.10097934E+03</rscale>
<asrwt>0</asrwt>
<pdfrwt beam="1">  1       21 0.10333914E+00 0.10097934E+03</pdfrwt>
<pdfrwt beam="2">  1       21 0.23677153E-02 0.10097934E+03</pdfrwt>
<totfact> 0.71704358E+05</totfact>
</mgrwt>
</event>
<event>
 4    1  0.6052129E+003  0.1163217E+03  0.7546771E-02  0.1249291E+00
         21   -1    0    0  504  501  0.00000000000E+00  0.00000000000E+00  0.82208703078E+02  0.82208703078E+02  0.00000000000E+00 0.  1.
         21   -1    0    0  503  502 -0.00000000000E+00 -0.00000000000E+00 -0.16855997738E+03  0.16855997738E+03  0.00000000000E+00 0.  1.
         21    1    1    2  503  501  0.11591368133E+03 -0.97344608614E+01 -0.23933518386E+02  0.11875838729E+03  0.00000000000E+00 0.  1.
         21    1    1    2  504  502 -0.11591368133E+03  0.97344608614E+01 -0.62417755912E+02  0.13201029317E+03  0.00000000000E+00 0.  1.
<mgrwt>
<rscale>  2 0.11632171E+03</rscale>
<asrwt>0</asrwt>
<pdfrwt beam="1">  1       21 0.12647493E-01 0.11632171E+03</pdfrwt>
<pdfrwt beam="2">  1       21 0.25932304E-01 0.11632171E+03</pdfrwt>
<totfact> 0.75689982E+05</totfact>
</mgrwt>
</event>
<event>
 4    1  0.6052129E+003  0.1700227E+03  0.7546771E-02  0.1177824E+00
         21   -1    0    0  504  501  0.00000000000E+00  0.00000000000E+00  0.10769061742E+04  0.10769061742E+04  0.00000000000E+00 0.  1.
         21   -1    0    0  503  502 -0.00000000000E+00 -0.00000000000E+00 -0.30147283265E+02  0.30147283265E+02  0.00000000000E+00 0.  1.
         21    1    1    2  503  501 -0.16887259573E+03 -0.19742393704E+02  0.34013390516E+03  0.38026147469E+03  0.00000000000E+00 0.  1.
         21    1    1    2  504  502  0.16887259573E+03  0.19742393704E+02  0.70662498581E+03  0.72679198280E+03  0.00000000000E+00 0.  1.
<mgrwt>
<rscale>  2 0.17002269E+03</rscale>
<asrwt>0</asrwt>
<pdfrwt beam="1">  1       21 0.16567784E+00 0.17002269E+03</pdfrwt>
<pdfrwt beam="2">  1       21 0.46380444E-02 0.17002269E+03</pdfrwt>
<totfact> 0.70833858E+04</totfact>
</mgrwt>
</event>
<event>
 4    1  0.6052129E+003  0.1210487E+03  0.7546771E-02  0.1241377E+00
         21   -1    0    0  502  501  0.00000000000E+00  0.00000000000E+00  0.11921223558E+03  0.11921223558E+03  0.00000000000E+00 0.  1.
         21   -1    0    0  503  502 -0.00000000000E+00 -0.00000000000E+00 -0.16165101210E+03  0.16165101210E+03  0.00000000000E+00 0. -1.
         21    1    1    2  503  504  0.37932667369E+02 -0.11495171383E+03 -0.89964529067E+02  0.15081909779E+03  0.00000000000E+00 0. -1.
         21    1    1    2  504  501 -0.37932667369E+02  0.11495171383E+03  0.47525752549E+02  0.13004414990E+03  0.00000000000E+00 0.  1.
<mgrwt>
<rscale>  2 0.12104868E+03</rscale>
<asrwt>0</asrwt>
<pdfrwt beam="1">  1       21 0.18340344E-01 0.12104868E+03</pdfrwt>
<pdfrwt beam="2">  1       21 0.24869386E-01 0.12104868E+03</pdfrwt>
<totfact> 0.41931007E+05</totfact>
</mgrwt>
</event>
<event>
 4    1  0.6052129E+003  0.1007546E+03  0.7546771E-02  0.1278717E+00
         21   -1    0    0  503  501  0.00000000000E+00  0.00000000000E+00  0.57311989068E+03  0.57311989068E+03  0.00000000000E+00 0. -1.
         21   -1    0    0  504  502 -0.00000000000E+00 -0.00000000000E+00 -0.22238799558E+02  0.22238799558E+02  0.00000000000E+00 0. -1.
         21    1    1    2  503  502 -0.10070264482E+03  0.32342172937E+01  0.40973453550E+03  0.42194060295E+03  0.00000000000E+00 0. -1.
         21    1    1    2  504  501  0.10070264482E+03 -0.32342172937E+01  0.14114655562E+03  0.17341808729E+03  0.00000000000E+00 0. -1.
<mgrwt>
<rscale>  2 0.10075457E+03</rscale>
<asrwt>0</asrwt>
<pdfrwt beam="1">  1       21 0.88172280E-01 0.10075457E+03</pdfrwt>
<pdfrwt beam="2">  1       21 0.34213542E-02 0.10075457E+03</pdfrwt>
<totfact> 0.56744591E+05</totfact>
</mgrwt>
</event>
<event>
 4    1  0.6052129E+003  0.1133401E+03  0.7546771E-02  0.1254507E+00
         21   -1    0    0  503  501  0.00000000000E+00  0.00000000000E+00  0.53411963166E+02  0.53411963166E+02  0.00000000000E+00 0.  1.
         21   -1    0    0  504  502 -0.00000000000E+00 -0.00000000000E+00 -0.71742295373E+03  0.71742295373E+03  0.00000000000E+00 0.  1.
         21    1    1    2  503  502 -0.97051947211E+02  0.58539775646E+02 -0.64624760248E+03  0.65611123257E+03  0.00000000000E+00 0.  1.
         21    1    1    2  504  501  0.97051947211E+02 -0.58539775646E+02 -0.17763388086E+02  0.11472368433E+03  0.00000000000E+00 0.  1.
<mgrwt>
<rscale>  2 0.11334013E+03</rscale>
<asrwt>0</asrwt>
<pdfrwt beam="1">  1       21 0.82172249E-02 0.11334013E+03</pdfrwt>
<pdfrwt beam="2">  1       21 0.11037276E+00 0.11334013E+03</pdfrwt>
<totfact> 0.77146644E+04</totfact>
</mgrwt>
</event>
<event>
 4    1  0.6052129E+003  0.1610672E+03  0.7546771E-02  0.1187497E+00
         21   -1    0    0  504  501  0.00000000000E+00  0.00000000000E+00  0.17600934179E+03  0.17600934179E+03  0.00000000000E+00 0. -1.
         21   -1    0    0  503  502 -0.00000000000E+00 -0.00000000000E+00 -0.33583557487E+03  0.33583557487E+03  0.00000000000E+00 0. -1.
         21    1    1    2  503  501 -0.14434430926E+03 -0.71465918360E+02 -0.27161828853E+03  0.31578339375E+03  0.00000000000E+00 0. -1.
         21    1    1    2  504  502  0.14434430926E+03  0.71465918360E+02  0.11179205545E+03  0.19606152291E+03  0.00000000000E+00 0. -1.
<mgrwt>
<rscale>  2 0.16106724E+03</rscale>
<asrwt>0</asrwt>
<pdfrwt beam="1">  1       21 0.27078360E-01 0.16106724E+03</pdfrwt>
<pdfrwt beam="2">  1       21 0.51667011E-01 0.16106724E+03</pdfrwt>
<totfact> 0.46982587E+04</totfact>
</mgrwt>
</event>
<event>
 4    1  0.6052129E+003  0.1097713E+03  0.7546771E-02  0.1260994E+00
         21   -1    0    0  502  501  0.00000000000E+00  0.00000000000E+00  0.84868753531E+03  0.84868753531E+03  0.00000000000E+00 0. -1.
         21   -1    0    0  503  502 -0.00000000000E+00 -0.00000000000E+00 -0.36637029168E+03  0.36637029168E+03  0.00000000000E+00 0.  1.
         21    1    1    2  503  504  0.66981835861E+02 -0.86966471888E+02 -0.35448208309E+03  0.37108931647E+03  0.00000000000E+00 0.  1.
         21    1    1    2  504  501 -0.66981835861E+02  0.86966471888E+02  0.83679932672E+03  0.84396851053E+03  0.00000000000E+00 0. -1.
<mgrwt>
<rscale>  2 0.10977128E+03</rscale>
<asrwt>0</asrwt>
<pdfrwt beam="1">  1       21 0.13056731E+00 0.10977128E+03</pdfrwt>
<pdfrwt beam="2">  1       21 0.56364660E-01 0.10977128E+03</pdfrwt>
<totfact> 0.14021387E+03</totfact>
</mgrwt>
</event>
<event>
 4    1  0.6052129E+003  0.1157797E+03  0.7546771E-02  0.1250226E+00
         21   -1    0    0  504  501  0.00000000000E+00  0.00000000000E+00  0.35906788411E+02  0.35906788411E+02  0.00000000000E+00 0. -1.
         21   -1    0    0  501  502 -0.00000000000E+00 -0.00000000000E+00 -0.41800163139E+03  0.41800163139E+03  0.00000000000E+00 0.  1.
         21    1    1    2  503  502 -0.11258759584E+03  0.26999469600E+02 -0.26524411460E+03  0.28941212557E+03  0.00000000000E+00 0.  1.
         21    1    1    2  504  503  0.11258759584E+03 -0.26999469600E+02 -0.11685072838E+03  0.16449629424E+03  0.00000000000E+00 0. -1.
<mgrwt>
<rscale>  2 0.11577970E+03</rscale>
<asrwt>0</asrwt>
<pdfrwt beam="1">  1       21 0.55241214E-02 0.11577970E+03</pdfrwt>
<pdfrwt beam="2">  1       21 0.64307942E-01 0.11577970E+03</pdfrwt>
<totfact> 0.51187729E+05</totfact>
</mgrwt>
</event>
<event>
 4    1  0.6052129E+003  0.1333139E+03  0.7546771E-02  0.1222620E+00
         21   -1    0    0  504  501  0.00000000000E+00  0.00000000000E+00  0.87491165728E+02  0.87491165728E+02  0.00000000000E+00 0.  1.
         21   -1    0    0  503  502 -0.00000000000E+00 -0.00000000000E+00 -0.22068616825E+03  0.22068616825E+03  0.00000000000E+00 0.  1.
         21    1    1    2  503  501  0.12453300546E+03  0.47582818050E+02 -0.23143937699E+02  0.13530792983E+03  0.00000000000E+00 0.  1.
         21    1    1    2  504  502 -0.12453300546E+03 -0.47582818050E+02 -0.11005106483E+03  0.17286940415E+03  0.00000000000E+00 0.  1.
<mgrwt>
<rscale>  2 0.13331389E+03</rscale>
<asrwt>0</asrwt>
<pdfrwt beam="1">  1       21 0.13460179E-01 0.13331389E+03</pdfrwt>
<pdfrwt beam="2">  1       21 0.33951718E-01 0.13331389E+03</pdfrwt>
<totfact> 0.40296598E+05</totfact>
</mgrwt>
</event>
<event>
 4    1  0.6052129E+003  0.1391186E+03  0.7546771E-02  0.1214520E+00
         21   -1    0    0  502  501  0.00000000000E+00  0.00000000000E+00  0.15410481433E+03  0.15410481433E+03  0.00000000000E+00 0.  1.
         21   -1    0    0  503  502 -0.00000000000E+00 -0.00000000000E+00 -0.13192015457E+03  0.13192015457E+03  0.00000000000E+00 0.  1.
         21    1    1    2  503  504  0.12951797485E+03 -0.50784743549E+02  0.42420258929E+02  0.14544234031E+03  0.00000000000E+00 0.  1.
         21    1    1    2  504  501 -0.12951797485E+03  0.50784743549E+02 -0.20235599169E+02  0.14058262859E+03  0.00000000000E+00 0.  1.
<mgrwt>
<rscale>  2 0.13911864E+03</rscale>
<asrwt>0</asrwt>
<pdfrwt beam="1">  1       21 0.23708433E-01 0.13911864E+03</pdfrwt>
<pdfrwt beam="2">  1       21 0.20295408E-01 0.13911864E+03</pdfrwt>
<totfact> 0.37988659E+05</totfact>
</mgrwt>
</event>
<event>
 4    1  0.6052129E+003  0.1227179E+03  0.7546771E-02  0.1238680E+00
         21   -1    0    0  503  501  0.00000000000E+00  0.00000000000E+00  0.17315616990E+04  0.17315616990E+04  0.00000000000E+00 0.  1.
         21   -1    0    0  504  502 -0.00000000000E+00 -0.00000000000E+00 -0.86981763929E+01  0.86981763929E+01  0.00000000000E+00 0.  1.
         21    1    1    2  503  502 -0.24450387166E+02 -0.12025743873E+03  0.85203616252E+03  0.86082826118E+03  0.00000000000E+00 0.  1.
         21    1    1    2  504  501  0.24450387166E+02  0.12025743873E+03  0.87082736009E+03  0.87943161422E+03  0.00000000000E+00 0.  1.
<mgrwt>
<rscale>  2 0.12271786E+03</rscale>
<asrwt>0</asrwt>
<pdfrwt beam="1">  1       21 0.26639383E+00 0.12271786E+03</pdfrwt>
<pdfrwt beam="2">  1       21 0.13381824E-02 0.12271786E+03</pdfrwt>
<totfact> 0.13291636E+05</totfact>
</mgrwt>
</event>
<event>
 4    1  0.6052129E+003  0.1264946E+03  0.7546771E-02  0.1232752E+00
         21   -1    0    0  504  501  0.00000000000E+00  0.00000000000E+00  0.48419040009E+02  0.48419040009E+02  0.00000000000E+00 0.  1.
         21   -1    0    0  503  502 -0.00000000000E+00 -0.00000000000E+00 -0.35576721311E+03  0.35576721311E+03  0.00000000000E+00 0.  1.
         21    1    1    2  503  501  0.87370260041E+01  0.12619247108E+03 -0.99780866774E+02  0.16111206272E+03  0.00000000000E+00 0.  1.
         21    1    1    2  504  502 -0.87370260041E+01 -0.12619247108E+03 -0.20756730633E+03  0.24307419040E+03  0.00000000000E+00 0.  1.
<mgrwt>
<rscale>  2 0.12649457E+03</rscale>
<asrwt>0</asrwt>
<pdfrwt beam="1">  1       21 0.74490831E-02 0.12649457E+03</pdfrwt>
<pdfrwt beam="2">  1       21 0.54733417E-01 0.12649457E+03</pdfrwt>
<totfact> 0.43266973E+05</totfact>
</mgrwt>
</event>
<event>
 4    1  0.6052129E+003  0.1058216E+03  0.7546771E-02  0.1268509E+00
         21   -1    0    0  504  501  0.00000000000E+00  0.00000000000E+00  0.13886082429E+03  0.13886082429E+03  0.00000000000E+00 0. -1.
         21   -1    0    0  503  502 -0.00000000000E+00 -0.00000000000E+00 -0.83408773528E+02  0.83408773528E+02  0.00000000000E+00 0. -1.
         21    1    1    2  503  501 -0.52231774303E+02 -0.92032899938E+02  0.74902950087E+01  0.10608636782E+03  0.00000000000E+00 0. -1.
         21    1    1    2  504  502  0.52231774303E+02  0.92032899938E+02  0.47961755755E+02  0.11618323000E+03  0.00000000000E+00 0. -1.
<mgrwt>
<rscale>  2 0.10582161E+03</rscale>
<asrwt>0</asrwt>
<pdfrwt beam="1">  1       21 0.21363204E-01 0.10582161E+03</pdfrwt>
<pdfrwt beam="2">  1       21 0.12832119E-01 0.10582161E+03</pdfrwt>
<totfact> 0.10591490E+06</totfact>
</mgrwt>
</event>
<event>
 4    1  0.6052129E+003  0.1005017E+03  0.7546771E-02  0.1279244E+00
         21   -1    0    0  503  501  0.00000000000E+00  0.00000000000E+00  0.11735196910E+03  0.11735196910E+03  0.00000000000E+00 0. -1.
         21   -1    0    0  504  502 -0.00000000000E+00 -0.00000000000E+00 -0.22972055848E+03  0.22972055848E+03  0.00000000000E+00 0. -1.
         21    1    1    2  503  502  0.43456564074E+02  0.90620762750E+02 -0.19341223114E+03  0.21796533385E+03  0.00000000000E+00 0. -1.
         21    1    1    2  504  501 -0.43456564074E+02 -0.90620762750E+02  0.81043641771E+02  0.12910719373E+03  0.00000000000E+00 0. -1.
<mgrwt>
<rscale>  2 0.10050172E+03</rscale>
<asrwt>0</asrwt>
<pdfrwt beam="1">  1       21 0.18054149E-01 0.10050172E+03</pdfrwt>
<pdfrwt beam="2">  1       21 0.35341624E-01 0.10050172E+03</pdfrwt>
<totfact> 0.22069945E+05</totfact>
</mgrwt>
</event>
<event>
 4    1  0.6052129E+003  0.1381188E+03  0.7546771E-02  0.1215883E+00
         21   -1    0    0  503  501  0.00000000000E+00  0.00000000000E+00  0.15081014121E+03  0.15081014121E+03  0.00000000000E+00 0.  1.
         21   -1    0    0  501  502 -0.00000000000E+00 -0.00000000000E+00 -0.15693673489E+03  0.15693673489E+03  0.00000000000E+00 0.  1.
         21    1    1    2  503  504 -0.96451317384E+02  0.98863247378E+02  0.64705966330E+02  0.15252429441E+03  0.00000000000E+00 0.  1.
         21    1    1    2  504  502  0.96451317384E+02 -0.98863247378E+02 -0.70832560016E+02  0.15522258169E+03  0.00000000000E+00 0.  1.
<mgrwt>
<rscale>  2 0.13811878E+03</rscale>
<asrwt>0</asrwt>
<pdfrwt beam="1">  1       21 0.23201560E-01 0.13811878E+03</pdfrwt>
<pdfrwt beam="2">  1       21 0.24144113E-01 0.13811878E+03</pdfrwt>
<totfact> 0.28596762E+05</totfact>
</mgrwt>
</event>
<event>
 4    1  0.6052129E+003  0.1276827E+03  0.7546771E-02  0.1230935E+00
         21   -1    0    0  502  501  0.00000000000E+00  0.00000000000E+00  0.34915961324E+03  0.34915961324E+03  0.00000000000E+00 0. -1.
         21   -1    0    0  504  502 -0.00000000000E+00 -0.00000000000E+00 -0.17810064904E+03  0.17810064904E+03  0.00000000000E+00 0. -1.
         21    1    1    2  503  501  0.55626035657E+01  0.12756148666E+03  0.31198070649E+03  0.33709766636E+03  0.00000000000E+00 0. -1.
         21    1    1    2  504  503 -0.55626035657E+01 -0.12756148666E+03 -0.14092174230E+03  0.19016259593E+03  0.00000000000E+00 0. -1.
<mgrwt>
<rscale>  2 0.12768271E+03</rscale>
<asrwt>0</asrwt>
<pdfrwt beam="1">  1       21 0.53716864E-01 0.12768271E+03</pdfrwt>
<pdfrwt beam="2">  1       21 0.27400100E-01 0.12768271E+03</pdfrwt>
<totfact> 0.43102807E+04</totfact>
</mgrwt>
</event>
<event>
 4    1  0.6052129E+003  0.1035717E+03  0.7546771E-02  0.1272960E+00
         21   -1    0    0  503  501  0.00000000000E+00  0.00000000000E+00  0.11293059938E+04  0.11293059938E+04  0.00000000000E+00 0.  1.
         21   -1    0    0  504  502 -0.00000000000E+00 -0.00000000000E+00 -0.21173163681E+02  0.21173163681E+02  0.00000000000E+00 0. -1.
         21    1    1    2  503  502 -0.97526183598E+01  0.10311151399E+03  0.98120787914E+03  0.98665900897E+03  0.00000000000E+00 0.  1.
         21    1    1    2  504  501  0.97526183598E+01 -0.10311151399E+03  0.12692495102E+03  0.16382014856E+03  0.00000000000E+00 0. -1.
<mgrwt>
<rscale>  2 0.10357170E+03</rscale>
<asrwt>0</asrwt>
<pdfrwt beam="1">  1       21 0.17373934E+00 0.10357170E+03</pdfrwt>
<pdfrwt beam="2">  1       21 0.32574107E-02 0.10357170E+03</pdfrwt>
<totfact> 0.11662796E+05</totfact>
</mgrwt>
</event>
<event>
 4    1  0.6052129E+003  0.1403900E+03  0.7546771E-02  0.1212805E+00
         21   -1    0    0  503  501  0.00000000000E+00  0.00000000000E+00  0.30393953123E+03  0.30393953123E+03  0.00000000000E+00 0. -1.
         21   -1    0    0  501  502 -0.00000000000E+00 -0.00000000000E+00 -0.73641963180E+03  0.73641963180E+03  0.00000000000E+00 0. -1.
         21    1    1    2  503  504 -0.66643903818E+02 -0.12356353435E+03  0.28050933690E+03  0.31367952599E+03  0.00000000000E+00 0. -1.
         21    1    1    2  504  502  0.66643903818E+02  0.12356353435E+03 -0.71298943747E+03  0.72667963703E+03  0.00000000000E+00 0. -1.
<mgrwt>
<rscale>  2 0.14039002E+03</rscale>
<asrwt>0</asrwt>
<pdfrwt beam="1">  1       21 0.46759928E-01 0.14039002E+03</pdfrwt>
<pdfrwt beam="2">  1       21 0.11329533E+00 0.14039002E+03</pdfrwt>
<totfact> 0.28018751E+03</totfact>
</mgrwt>
</event>
<event>
 4    1  0.6052129E+003  0.1508558E+03  0.7546771E-02  0.1199425E+00
         21   -1    0    0  502  501  0.00000000000E+00  0.00000000000E+00  0.20798061775E+03  0.20798061775E+03  0.00000000000E+00 0.  1.
         21   -1    0    0  503  502 -0.00000000000E+00 -0.00000000000E+00 -0.14850635815E+03  0.14850635815E+03  0.00000000000E+00 0.  1.
         21    1    1    2  503  504  0.71938456757E+01 -0.15068413569E+03 -0.61705319255E+02  0.16298774981E+03  0.00000000000E+00 0.  1.
         21    1    1    2  504  501 -0.71938456757E+01  0.15068413569E+03  0.12117957885E+03  0.19349922609E+03  0.00000000000E+00 0.  1.
<mgrwt>
<rscale>  2 0.15085576E+03</rscale>
<asrwt>0</asrwt>
<pdfrwt beam="1">  1       21 0.31997018E-01 0.15085576E+03</pdfrwt>
<pdfrwt beam="2">  1       21 0.22847132E-01 0.15085576E+03</pdfrwt>
<totfact> 0.17101432E+05</totfact>
</mgrwt>
</event>
<event>
 4    1  0.6052129E+003  0.1070509E+03  0.7546771E-02  0.1266131E+00
         21   -1    0    0  504  501  0.00000000000E+00  0.00000000000E+00  0.56782495332E+02  0.56782495332E+02  0.00000000000E+00 0.  1.
         21   -1    0    0  503  502 -0.00000000000E+00 -0.00000000000E+00 -0.17423682351E+04  0.17423682351E+04  0.00000000000E+00 0.  1.
         21    1    1    2  503  501  0.44228770405E+02 -0.97486986697E+02 -0.16886657458E+04  0.16920555244E+04  0.00000000000E+00 0.  1.
         21    1    1    2  504  502 -0.44228770405E+02  0.97486986697E+02  0.30800060558E+01  0.10709520598E+03  0.00000000000E+00 0.  1.
<mgrwt>
<rscale>  2 0.10705091E+03</rscale>
<asrwt>0</asrwt>
<pdfrwt beam="1">  1       21 0.87357704E-02 0.10705091E+03</pdfrwt>
<pdfrwt beam="2">  1       21 0.26805659E+00 0.10705091E+03</pdfrwt>
<totfact> 0.60251789E+03</totfact>
</mgrwt>
</event>
<event>
 4    1  0.6052129E+003  0.1910541E+03  0.7546771E-02  0.1157514E+00
         21   -1    0    0  502  501  0.00000000000E+00  0.00000000000E+00  0.50230468247E+03  0.50230468247E+03  0.00000000000E+00 0.  1.
         21   -1    0    0  504  502 -0.00000000000E+00 -0.00000000000E+00 -0.20096966733E+03  0.20096966733E+03  0.00000000000E+00 0.  1.
         21    1    1    2  503  501 -0.16323258919E+03  0.99281342151E+02  0.43162786546E+03  0.47202147972E+03  0.00000000000E+00 0.  1.
         21    1    1    2  504  503  0.16323258919E+03 -0.99281342151E+02 -0.13029285033E+03  0.23125287008E+03  0.00000000000E+00 0.  1.
<mgrwt>
<rscale>  2 0.19105408E+03</rscale>
<asrwt>0</asrwt>
<pdfrwt beam="1">  1       21 0.77277643E-01 0.19105408E+03</pdfrwt>
<pdfrwt beam="2">  1       21 0.30918411E-01 0.19105408E+03</pdfrwt>
<totfact> 0.14954737E+04</totfact>
</mgrwt>
</event>
<event>
 4    1  0.6052129E+003  0.1041067E+03  0.7546771E-02  0.1271890E+00
         21   -1    0    0  503  501  0.00000000000E+00  0.00000000000E+00  0.73420467554E+03  0.73420467554E+03  0.00000000000E+00 0. -1.
         21   -1    0    0  501  502 -0.00000000000E+00 -0.00000000000E+00 -0.29308038793E+02  0.29308038793E+02  0.00000000000E+00 0. -1.
         21    1    1    2  503  504 -0.41916402679E+02  0.95295452642E+02  0.62139595749E+03  0.63005646103E+03  0.00000000000E+00 0. -1.
         21    1    1    2  504  502  0.41916402679E+02 -0.95295452642E+02  0.83500679256E+02  0.13345625330E+03  0.00000000000E+00 0. -1.
<mgrwt>
<rscale>  2 0.10410671E+03</rscale>
<asrwt>0</asrwt>
<pdfrwt beam="1">  1       21 0.11295455E+00 0.10410671E+03</pdfrwt>
<pdfrwt beam="2">  1       21 0.45089296E-02 0.10410671E+03</pdfrwt>
<totfact> 0.20228242E+05</totfact>
</mgrwt>
</event>
<event>
 4    1  0.6052129E+003  0.1305582E+03  0.7546771E-02  0.1226630E+00
         21   -1    0    0  503  501  0.00000000000E+00  0.00000000000E+00  0.35951005058E+02  0.35951005058E+02  0.00000000000E+00 0. -1.
         21   -1    0    0  504  502 -0.00000000000E+00 -0.00000000000E+00 -0.48344966927E+03  0.48344966927E+03  0.00000000000E+00 0. -1.
         21    1    1    2  503  502 -0.42735084665E+02  0.12336594679E+03 -0.18769139730E+03  0.22863399771E+03  0.00000000000E+00 0. -1.
         21    1    1    2  504  501  0.42735084665E+02 -0.12336594679E+03 -0.25980726691E+03  0.29076667662E+03  0.00000000000E+00 0. -1.
<mgrwt>
<rscale>  2 0.13055820E+03</rscale>
<asrwt>0</asrwt>
<pdfrwt beam="1">  1       21 0.55309236E-02 0.13055820E+03</pdfrwt>
<pdfrwt beam="2">  1       21 0.74376876E-01 0.13055820E+03</pdfrwt>
<totfact> 0.37167445E+05</totfact>
</mgrwt>
</event>
<event>
 4    1  0.6052129E+003  0.3987499E+03  0.7546771E-02  0.1044213E+00
         21   -1    0    0  503  501  0.00000000000E+00  0.00000000000E+00  0.47971306833E+03  0.47971306833E+03  0.00000000000E+00 0.  1.
         21   -1    0    0  501  502 -0.00000000000E+00 -0.00000000000E+00 -0.55804688938E+03  0.55804688938E+03  0.00000000000E+00 0.  1.
         21    1    1    2  503  504 -0.18813462135E+03 -0.35157760189E+03  0.29147465011E+03  0.49392197517E+03  0.00000000000E+00 0.  1.
         21    1    1    2  504  502  0.18813462135E+03  0.35157760189E+03 -0.36980847116E+03  0.54383798253E+03  0.00000000000E+00 0.  1.
<mgrwt>
<rscale>  2 0.39874985E+03</rscale>
<asrwt>0</asrwt>
<pdfrwt beam="1">  1       21 0.73802010E-01 0.39874985E+03</pdfrwt>
<pdfrwt beam="2">  1       21 0.85853368E-01 0.39874985E+03</pdfrwt>
<totfact> 0.16949397E+03</totfact>
</mgrwt>
</event>
<event>
 4    1  0.6052129E+003  0.1156880E+03  0.7546771E-02  0.1250385E+00
         21   -1    0    0  503  501  0.00000000000E+00  0.00000000000E+00  0.11564999342E+04  0.11564999342E+04  0.00000000000E+00 0. -1.
         21   -1    0    0  504  502 -0.00000000000E+00 -0.00000000000E+00 -0.11572670950E+02  0.11572670950E+02  0.00000000000E+00 0. -1.
         21    1    1    2  503  502 -0.10842940474E+02 -0.11517874817E+03  0.57103748895E+03  0.58263841889E+03  0.00000000000E+00 0. -1.
         21    1    1    2  504  501  0.10842940474E+02  0.11517874817E+03  0.57388977435E+03  0.58543418630E+03  0.00000000000E+00 0. -1.
<mgrwt>
<rscale>  2 0.11568800E+03</rscale>
<asrwt>0</asrwt>
<pdfrwt beam="1">  1       21 0.17792298E+00 0.11568800E+03</pdfrwt>
<pdfrwt beam="2">  1       21 0.17804118E-02 0.11568800E+03</pdfrwt>
<totfact> 0.28869323E+05</totfact>
</mgrwt>
</event>
<event>
 4    1  0.6052129E+003  0.1033106E+03  0.7546771E-02  0.1273484E+00
         21   -1    0    0  503  501  0.00000000000E+00  0.00000000000E+00  0.93971328907E+01  0.93971328907E+01  0.00000000000E+00 0.  1.
         21   -1    0    0  504  502 -0.00000000000E+00 -0.00000000000E+00 -0.19796524060E+04  0.19796524060E+04  0.00000000000E+00 0.  1.
         21    1    1    2  503  502 -0.75398906381E+02  0.70626380852E+02 -0.33580673244E+03  0.35133921259E+03  0.00000000000E+00 0.  1.
         21    1    1    2  504  501  0.75398906381E+02 -0.70626380852E+02 -0.16344485407E+04  0.16377103263E+04  0.00000000000E+00 0.  1.
<mgrwt>
<rscale>  2 0.10331060E+03</rscale>
<asrwt>0</asrwt>
<pdfrwt beam="1">  1       21 0.14457133E-02 0.10331060E+03</pdfrwt>
<pdfrwt beam="2">  1       21 0.30456180E+00 0.10331060E+03</pdfrwt>
<totfact> 0.73709007E+04</totfact>
</mgrwt>
</event>
<event>
 4    1  0.6052129E+003  0.1287964E+03  0.7546771E-02  0.1229253E+00
         21   -1    0    0  502  501  0.00000000000E+00  0.00000000000E+00  0.22896657471E+03  0.22896657471E+03  0.00000000000E+00 0. -1.
         21   -1    0    0  503  502 -0.00000000000E+00 -0.00000000000E+00 -0.10914982037E+03  0.10914982037E+03  0.00000000000E+00 0. -1.
         21    1    1    2  503  504 -0.11157740166E+03 -0.64334984456E+02 -0.38121810036E+02  0.13431969024E+03  0.00000000000E+00 0. -1.
         21    1    1    2  504  501  0.11157740166E+03  0.64334984456E+02  0.15793856438E+03  0.20379670484E+03  0.00000000000E+00 0. -1.
<mgrwt>
<rscale>  2 0.12879638E+03</rscale>
<asrwt>0</asrwt>
<pdfrwt beam="1">  1       21 0.35225627E-01 0.12879638E+03</pdfrwt>
<pdfrwt beam="2">  1       21 0.16792280E-01 0.12879638E+03</pdfrwt>
<totfact> 0.25171375E+05</totfact>
</mgrwt>
</event>
<event>
 4    1  0.6052129E+003  0.1104525E+03  0.7546771E-02  0.1259734E+00
         21   -1    0    0  502  501  0.00000000000E+00  0.00000000000E+00  0.78382071969E+03  0.78382071969E+03  0.00000000000E+00 0. -1.
         21   -1    0    0  504  502 -0.00000000000E+00 -0.00000000000E+00 -0.20891953429E+02  0.20891953429E+02  0.00000000000E+00 0.  1.
         21    1    1    2  503  501 -0.33100064673E+02 -0.10537619055E+03  0.58464500444E+03  0.59498700577E+03  0.00000000000E+00 0. -1.
         21    1    1    2  504  503  0.33100064673E+02  0.10537619055E+03  0.17828376183E+03  0.20972566736E+03  0.00000000000E+00 0.  1.
<mgrwt>
<rscale>  2 0.11045250E+03</rscale>
<asrwt>0</asrwt>
<pdfrwt beam="1">  1       21 0.12058778E+00 0.11045250E+03</pdfrwt>
<pdfrwt beam="2">  1       21 0.32141473E-02 0.11045250E+03</pdfrwt>
<totfact> 0.30155653E+05</totfact>
</mgrwt>
</event>
<event>
 4    1  0.6052129E+003  0.1785563E+03  0.7546771E-02  0.1169208E+00
         21   -1    0    0  504  501  0.00000000000E+00  0.00000000000E+00  0.42000781562E+03  0.42000781562E+03  0.00000000000E+00 0.  1.
         21   -1    0    0  501  502 -0.00000000000E+00 -0.00000000000E+00 -0.77418096154E+02  0.77418096154E+02  0.00000000000E+00 0.  1.
         21    1    1    2  503  502 -0.97273015432E+02  0.14973410897E+03  0.13656955854E+03  0.22479676874E+03  0.00000000000E+00 0.  1.
         21    1    1    2  504  503  0.97273015432E+02 -0.14973410897E+03  0.20602016093E+03  0.27262914303E+03  0.00000000000E+00 0.  1.
<mgrwt>
<rscale>  2 0.17855627E+03</rscale>
<asrwt>0</asrwt>
<pdfrwt beam="1">  1       21 0.64616585E-01 0.17855627E+03</pdfrwt>
<pdfrwt beam="2">  1       21 0.11910477E-01 0.17855627E+03</pdfrwt>
<totfact> 0.13194974E+05</totfact>
</mgrwt>
</event>
<event>
 4    1  0.6052129E+003  0.1149913E+03  0.7546771E-02  0.1251596E+00
         21   -1    0    0  503  501  0.00000000000E+00  0.00000000000E+00  0.33861461514E+02  0.33861461514E+02  0.00000000000E+00 0. -1.
         21   -1    0    0  504  502 -0.00000000000E+00 -0.00000000000E+00 -0.49751427444E+03  0.49751427444E+03  0.00000000000E+00 0. -1.
         21    1    1    2  503  502  0.55252052283E+02 -0.10084743971E+03 -0.35504723771E+03  0.37320441635E+03  0.00000000000E+00 0. -1.
         21    1    1    2  504  501 -0.55252052283E+02  0.10084743971E+03 -0.10860557522E+03  0.15817131961E+03  0.00000000000E+00 0. -1.
<mgrwt>
<rscale>  2 0.11499128E+03</rscale>
<asrwt>0</asrwt>
<pdfrwt beam="1">  1       21 0.52094555E-02 0.11499128E+03</pdfrwt>
<pdfrwt beam="2">  1       21 0.76540659E-01 0.11499128E+03</pdfrwt>
<totfact> 0.38688642E+05</totfact>
</mgrwt>
</event>
<event>
 4    1  0.6052129E+003  0.1223629E+03  0.7546771E-02  0.1239249E+00
         21   -1    0    0  503  501  0.00000000000E+00  0.00000000000E+00  0.16018464278E+04  0.16018464278E+04  0.00000000000E+00 0. -1.
         21   -1    0    0  504  502 -0.00000000000E+00 -0.00000000000E+00 -0.16960179830E+02  0.16960179830E+02  0.00000000000E+00 0.  1.
         21    1    1    2  503  502 -0.70368770735E+02 -0.10010452543E+03  0.13347296942E+04  0.13403268394E+04  0.00000000000E+00 0. -1.
         21    1    1    2  504  501  0.70368770735E+02  0.10010452543E+03  0.25015655381E+03  0.27847976825E+03  0.00000000000E+00 0.  1.
<mgrwt>
<rscale>  2 0.12236290E+03</rscale>
<asrwt>0</asrwt>
<pdfrwt beam="1">  1       21 0.24643779E+00 0.12236290E+03</pdfrwt>
<pdfrwt beam="2">  1       21 0.26092597E-02 0.12236290E+03</pdfrwt>
<totfact> 0.59011028E+04</totfact>
</mgrwt>
</event>
<event>
 4    1  0.6052129E+003  0.1084250E+03  0.7546771E-02  0.1263515E+00
         21   -1    0    0  503  501  0.00000000000E+00  0.00000000000E+00  0.56266672775E+03  0.56266672775E+03  0.00000000000E+00 0.  1.
         21   -1    0    0  501  502 -0.00000000000E+00 -0.00000000000E+00 -0.49987305628E+02  0.49987305628E+02  0.00000000000E+00 0.  1.
         21    1    1    2  503  504 -0.58877391689E+02  0.91046381315E+02  0.49003870926E+03  0.50189035394E+03  0.00000000000E+00 0.  1.
         21    1    1    2  504  502  0.58877391689E+02 -0.91046381315E+02  0.22640712852E+02  0.11076367943E+03  0.00000000000E+00 0.  1.
<mgrwt>
<rscale>  2 0.10842505E+03</rscale>
<asrwt>0</asrwt>
<pdfrwt beam="1">  1       21 0.86564107E-01 0.10842505E+03</pdfrwt>
<pdfrwt beam="2">  1       21 0.76903551E-02 0.10842505E+03</pdfrwt>
<totfact> 0.15219789E+05</totfact>
</mgrwt>
</event>
<event>
 4    1  0.6052129E+003  0.1566604E+03  0.7546771E-02  0.1192520E+00
         21   -1    0    0  504  501  0.00000000000E+00  0.00000000000E+00  0.29401119154E+03  0.29401119154E+03  0.00000000000E+00 0.  1.
         21   -1    0    0  501  502 -0.00000000000E+00 -0.00000000000E+00 -0.13642016314E+04  0.13642016314E+04  0.00000000000E+00 0. -1.
         21    1    1    2  503  502  0.15553831026E+03  0.18716604798E+02 -0.13384350001E+04  0.13475721602E+04  0.00000000000E+00 0. -1.
         21    1    1    2  504  503 -0.15553831026E+03 -0.18716604798E+02  0.26824456028E+03  0.31064066278E+03  0.00000000000E+00 0.  1.
<mgrwt>
<rscale>  2 0.15666039E+03</rscale>
<asrwt>0</asrwt>
<pdfrwt beam="1">  1       21 0.45232490E-01 0.15666039E+03</pdfrwt>
<pdfrwt beam="2">  1       21 0.20987718E+00 0.15666039E+03</pdfrwt>
<totfact> 0.57194006E+02</totfact>
</mgrwt>
</event>
<event>
 4    1  0.6052129E+003  0.1350488E+03  0.7546771E-02  0.1220151E+00
         21   -1    0    0  504  501  0.00000000000E+00  0.00000000000E+00  0.79672847249E+02  0.79672847249E+02  0.00000000000E+00 0.  1.
         21   -1    0    0  503  502 -0.00000000000E+00 -0.00000000000E+00 -0.24051663535E+03  0.24051663535E+03  0.00000000000E+00 0.  1.
         21    1    1    2  503  501  0.91391860594E+02 -0.99426858209E+02 -0.11558574370E+03  0.17775892794E+03  0.00000000000E+00 0.  1.
         21    1    1    2  504  502 -0.91391860594E+02  0.99426858209E+02 -0.45258044396E+02  0.14243055465E+03  0.00000000000E+00 0.  1.
<mgrwt>
<rscale>  2 0.13504878E+03</rscale>
<asrwt>0</asrwt>
<pdfrwt beam="1">  1       21 0.12257361E-01 0.13504878E+03</pdfrwt>
<pdfrwt beam="2">  1       21 0.37002558E-01 0.13504878E+03</pdfrwt>
<totfact> 0.40181992E+05</totfact>
</mgrwt>
</event>
<event>
 4    1  0.6052129E+003  0.1051334E+03  0.7546771E-02  0.1269857E+00
         21   -1    0    0  502  501  0.00000000000E+00  0.00000000000E+00  0.71933033281E+03  0.71933033281E+03  0.00000000000E+00 0. -1.
         21   -1    0    0  504  502 -0.00000000000E+00 -0.00000000000E+00 -0.16482282846E+02  0.16482282846E+02  0.00000000000E+00 0. -1.
         21    1    1    2  503  501 -0.28573701060E+02  0.10117596396E+03  0.44718072425E+03  0.45937308608E+03  0.00000000000E+00 0. -1.
         21    1    1    2  504  503  0.28573701060E+02 -0.10117596396E+03  0.25566732572E+03  0.27643952958E+03  0.00000000000E+00 0. -1.
<mgrwt>
<rscale>  2 0.10513340E+03</rscale>
<asrwt>0</asrwt>
<pdfrwt beam="1">  1       21 0.11066618E+00 0.10513340E+03</pdfrwt>
<pdfrwt beam="2">  1       21 0.25357364E-02 0.10513340E+03</pdfrwt>
<totfact> 0.54580383E+05</totfact>
</mgrwt>
</event>
<event>
 4    1  0.6052129E+003  0.1816874E+03  0.7546771E-02  0.1166180E+00
         21   -1    0    0  503  501  0.00000000000E+00  0.00000000000E+00  0.16342836378E+03  0.16342836378E+03  0.00000000000E+00 0.  1.
         21   -1    0    0  504  502 -0.00000000000E+00 -0.00000000000E+00 -0.20284408599E+03  0.20284408599E+03  0.00000000000E+00 0. -1.
         21    1    1    2  503  502  0.34940376409E+02  0.17829603893E+03 -0.31616342884E+02  0.18441773380E+03  0.00000000000E+00 0.  1.
         21    1    1    2  504  501 -0.34940376409E+02 -0.17829603893E+03 -0.77993793281E+01  0.18185471597E+03  0.00000000000E+00 0. -1.
<mgrwt>
<rscale>  2 0.18168739E+03</rscale>
<asrwt>0</asrwt>
<pdfrwt beam="1">  1       21 0.25142825E-01 0.18168739E+03</pdfrwt>
<pdfrwt beam="2">  1       21 0.31206783E-01 0.18168739E+03</pdfrwt>
<totfact> 0.14834416E+05</totfact>
</mgrwt>
</event>
<event>
 4    1  0.6052129E+003  0.1428039E+03  0.7546771E-02  0.1209605E+00
         21   -1    0    0  503  501  0.00000000000E+00  0.00000000000E+00  0.93095817234E+03  0.93095817234E+03  0.00000000000E+00 0. -1.
         21   -1    0    0  504  502 -0.00000000000E+00 -0.00000000000E+00 -0.60965435297E+02  0.60965435297E+02  0.00000000000E+00 0.  1.
         21    1    1    2  503  502  0.13386543110E+03  0.49729214017E+02  0.83198044036E+03  0.84414714446E+03  0.00000000000E+00 0. -1.
         21    1    1    2  504  501 -0.13386543110E+03 -0.49729214017E+02  0.38012296687E+02  0.14777646317E+03  0.00000000000E+00 0.  1.
<mgrwt>
<rscale>  2 0.14280388E+03</rscale>
<asrwt>0</asrwt>
<pdfrwt beam="1">  1       21 0.14322432E+00 0.14280388E+03</pdfrwt>
<pdfrwt beam="2">  1       21 0.93792984E-02 0.14280388E+03</pdfrwt>
<totfact> 0.31645968E+04</totfact>
</mgrwt>
</event>
<event>
 4    1  0.6052129E+003  0.1034500E+03  0.7546771E-02  0.1273204E+00
         21   -1    0    0  504  501  0.00000000000E+00  0.00000000000E+00  0.37053591830E+03  0.37053591830E+03  0.00000000000E+00 0.  1.
         21   -1    0    0  503  502 -0.00000000000E+00 -0.00000000000E+00 -0.68705550489E+02  0.68705550489E+02  0.00000000000E+00 0.  1.
         21    1    1    2  503  501 -0.74878647529E+02  0.71379915707E+02  0.31811898769E+03  0.33451695705E+03  0.00000000000E+00 0.  1.
         21    1    1    2  504  502  0.74878647529E+02 -0.71379915707E+02 -0.16288619881E+02  0.10472451174E+03  0.00000000000E+00 0.  1.
<mgrwt>
<rscale>  2 0.10345001E+03</rscale>
<asrwt>0</asrwt>
<pdfrwt beam="1">  1       21 0.57005525E-01 0.10345001E+03</pdfrwt>
<pdfrwt beam="2">  1       21 0.10570085E-01 0.10345001E+03</pdfrwt>
<totfact> 0.21785856E+05</totfact>
</mgrwt>
</event>
<event>
 4    1  0.6052129E+003  0.1171488E+03  0.7546771E-02  0.1247876E+00
         21   -1    0    0  503  501  0.00000000000E+00  0.00000000000E+00  0.10621715431E+03  0.10621715431E+03  0.00000000000E+00 0. -1.
         21   -1    0    0  504  502 -0.00000000000E+00 -0.00000000000E+00 -0.13103976313E+03  0.13103976313E+03  0.00000000000E+00 0. -1.
         21    1    1    2  503  502  0.29101352145E+02 -0.11347660982E+03 -0.26446881024E+02  0.12009690749E+03  0.00000000000E+00 0. -1.
         21    1    1    2  504  501 -0.29101352145E+02  0.11347660982E+03  0.16242722088E+01  0.11716000995E+03  0.00000000000E+00 0. -1.
<mgrwt>
<rscale>  2 0.11714875E+03</rscale>
<asrwt>0</asrwt>
<pdfrwt beam="1">  1       21 0.16341101E-01 0.11714875E+03</pdfrwt>
<pdfrwt beam="2">  1       21 0.20159963E-01 0.11714875E+03</pdfrwt>
<totfact> 0.76542902E+05</totfact>
</mgrwt>
</event>
<event>
 4    1  0.6052129E+003  0.1110446E+03  0.7546771E-02  0.1258648E+00
         21   -1    0    0  504  501  0.00000000000E+00  0.00000000000E+00  0.17854980455E+03  0.17854980455E+03  0.00000000000E+00 0.  1.
         21   -1    0    0  501  502 -0.00000000000E+00 -0.00000000000E+00 -0.17417357937E+03  0.17417357937E+03  0.00000000000E+00 0. -1.
         21    1    1    2  503  502  0.27566854691E+02 -0.10756845959E+03 -0.13481788361E+03  0.17466186394E+03  0.00000000000E+00 0. -1.
         21    1    1    2  504  503 -0.27566854691E+02  0.10756845959E+03  0.13919410879E+03  0.17806151998E+03  0.00000000000E+00 0.  1.
<mgrwt>
<rscale>  2 0.11104461E+03</rscale>
<asrwt>0</asrwt>
<pdfrwt beam="1">  1       21 0.27469201E-01 0.11104461E+03</pdfrwt>
<pdfrwt beam="2">  1       21 0.26795935E-01 0.11104461E+03</pdfrwt>
<totfact> 0.17181428E+05</totfact>
</mgrwt>
</event>
<event>
 4    1  0.6052129E+003  0.1175647E+03  0.7546771E-02  0.1247170E+00
         21   -1    0    0  503  501  0.00000000000E+00  0.00000000000E+00  0.62439283420E+03  0.62439283420E+03  0.00000000000E+00 0.  1.
         21   -1    0    0  504  502 -0.00000000000E+00 -0.00000000000E+00 -0.18612404433E+03  0.18612404433E+03  0.00000000000E+00 0.  1.
         21    1    1    2  503  502  0.91059564724E+02 -0.74361310734E+02 -0.16126266852E+03  0.19956727467E+03  0.00000000000E+00 0.  1.
         21    1    1    2  504  501 -0.91059564724E+02  0.74361310734E+02  0.59953145839E+03  0.61094960386E+03  0.00000000000E+00 0.  1.
<mgrwt>
<rscale>  2 0.11756466E+03</rscale>
<asrwt>0</asrwt>
<pdfrwt beam="1">  1       21 0.96060435E-01 0.11756466E+03</pdfrwt>
<pdfrwt beam="2">  1       21 0.28634469E-01 0.11756466E+03</pdfrwt>
<totfact> 0.11177167E+04</totfact>
</mgrwt>
</event>
<event>
 4    1  0.6052129E+003  0.1095667E+03  0.7546771E-02  0.1261374E+00
         21   -1    0    0  502  501  0.00000000000E+00  0.00000000000E+00  0.49875370792E+02  0.49875370792E+02  0.00000000000E+00 0. -1.
         21   -1    0    0  503  502 -0.00000000000E+00 -0.00000000000E+00 -0.24595002914E+03  0.24595002914E+03  0.00000000000E+00 0. -1.
         21    1    1    2  503  504 -0.10890180759E+03 -0.12052381849E+02 -0.11965343282E+03  0.16223996915E+03  0.00000000000E+00 0. -1.
         21    1    1    2  504  501  0.10890180759E+03  0.12052381849E+02 -0.76421225527E+02  0.13358543078E+03  0.00000000000E+00 0. -1.
<mgrwt>
<rscale>  2 0.10956671E+03</rscale>
<asrwt>0</asrwt>
<pdfrwt beam="1">  1       21 0.76731339E-02 0.10956671E+03</pdfrwt>
<pdfrwt beam="2">  1       21 0.37838467E-01 0.10956671E+03</pdfrwt>
<totfact> 0.87084454E+05</totfact>
</mgrwt>
</event>
<event>
 4    1  0.6052129E+003  0.2066934E+03  0.7546771E-02  0.1144212E+00
         21   -1    0    0  503  501  0.00000000000E+00  0.00000000000E+00  0.12147343360E+04  0.12147343360E+04  0.00000000000E+00 0. -1.
         21   -1    0    0  504  502 -0.00000000000E+00 -0.00000000000E+00 -0.58948237547E+02  0.58948237547E+02  0.00000000000E+00 0. -1.
         21    1    1    2  503  502  0.33544048302E+02 -0.20395331203E+03  0.98236276026E+03  0.10038718790E+04  0.00000000000E+00 0. -1.
         21    1    1    2  504  501 -0.33544048302E+02  0.20395331203E+03  0.17342333816E+03  0.26981069453E+03  0.00000000000E+00 0. -1.
<mgrwt>
<rscale>  2 0.20669339E+03</rscale>
<asrwt>0</asrwt>
<pdfrwt beam="1">  1       21 0.18688219E+00 0.20669339E+03</pdfrwt>
<pdfrwt beam="2">  1       21 0.90689605E-02 0.20669339E+03</pdfrwt>
<totfact> 0.15597958E+04</totfact>
</mgrwt>
</event>
<event>
 4    1  0.6052129E+003  0.1199258E+03  0.7546771E-02  0.1243219E+00
         21   -1    0    0  503  501  0.00000000000E+00  0.00000000000E+00  0.10081075861E+03  0.10081075861E+03  0.00000000000E+00 0. -1.
         21   -1    0    0  504  502 -0.00000000000E+00 -0.00000000000E+00 -0.11278787738E+04  0.11278787738E+04  0.00000000000E+00 0. -1.
         21    1    1    2  503  502  0.84104248548E+02 -0.85490844501E+02  0.60643394645E+02  0.13438686852E+03  0.00000000000E+00 0. -1.
         21    1    1    2  504  501 -0.84104248548E+02  0.85490844501E+02 -0.10877114098E+04  0.10943026639E+04  0.00000000000E+00 0. -1.
<mgrwt>
<rscale>  2 0.11992585E+03</rscale>
<asrwt>0</asrwt>
<pdfrwt beam="1">  1       21 0.15509348E-01 0.11992585E+03</pdfrwt>
<pdfrwt beam="2">  1       21 0.17351981E+00 0.11992585E+03</pdfrwt>
<totfact> 0.79833752E+03</totfact>
</mgrwt>
</event>
<event>
 4    1  0.6052129E+003  0.1146657E+03  0.7546771E-02  0.1252166E+00
         21   -1    0    0  503  501  0.00000000000E+00  0.00000000000E+00  0.96368857637E+02  0.96368857637E+02  0.00000000000E+00 0. -1.
         21   -1    0    0  504  502 -0.00000000000E+00 -0.00000000000E+00 -0.20357145802E+03  0.20357145802E+03  0.00000000000E+00 0. -1.
         21    1    1    2  503  502 -0.62759833213E+02  0.95965708269E+02  0.32522125583E+02  0.11918851656E+03  0.00000000000E+00 0. -1.
         21    1    1    2  504  501  0.62759833213E+02 -0.95965708269E+02 -0.13972472596E+03  0.18075179909E+03  0.00000000000E+00 0. -1.
<mgrwt>
<rscale>  2 0.11466566E+03</rscale>
<asrwt>0</asrwt>
<pdfrwt beam="1">  1       21 0.14825978E-01 0.11466566E+03</pdfrwt>
<pdfrwt beam="2">  1       21 0.31318686E-01 0.11466566E+03</pdfrwt>
<totfact> 0.39737320E+05</totfact>
</mgrwt>
</event>
<event>
 4    1  0.6052129E+003  0.1005137E+03  0.7546771E-02  0.1279219E+00
         21   -1    0    0  504  501  0.00000000000E+00  0.00000000000E+00  0.28597151143E+03  0.28597151143E+03  0.00000000000E+00 0.  1.
         21   -1    0    0  503  502 -0.00000000000E+00 -0.00000000000E+00 -0.35331240093E+02  0.35331240093E+02  0.00000000000E+00 0.  1.
         21    1    1    2  503  501  0.68186774627E+02  0.73848247529E+02  0.12668402390E+03  0.16171531099E+03  0.00000000000E+00 0.  1.
         21    1    1    2  504  502 -0.68186774627E+02 -0.73848247529E+02  0.12395624744E+03  0.15958744054E+03  0.00000000000E+00 0.  1.
<mgrwt>
<rscale>  2 0.10051368E+03</rscale>
<asrwt>0</asrwt>
<pdfrwt beam="1">  1       21 0.43995616E-01 0.10051368E+03</pdfrwt>
<pdfrwt beam="2">  1       21 0.54355756E-02 0.10051368E+03</pdfrwt>
<totfact> 0.11549319E+06</totfact>
</mgrwt>
</event>
<event>
 4    1  0.6052129E+003  0.1630565E+03  0.7546771E-02  0.1185289E+00
         21   -1    0    0  504  501  0.00000000000E+00  0.00000000000E+00  0.85106732578E+03  0.85106732578E+03  0.00000000000E+00 0.  1.
         21   -1    0    0  503  502 -0.00000000000E+00 -0.00000000000E+00 -0.92274164552E+03  0.92274164552E+03  0.00000000000E+00 0.  1.
         21    1    1    2  503  501 -0.75110765467E+02 -0.14472664615E+03 -0.90759897165E+03  0.92212977532E+03  0.00000000000E+00 0.  1.
         21    1    1    2  504  502  0.75110765467E+02  0.14472664615E+03  0.83592465191E+03  0.85167919598E+03  0.00000000000E+00 0.  1.
<mgrwt>
<rscale>  2 0.16305652E+03</rscale>
<asrwt>0</asrwt>
<pdfrwt beam="1">  1       21 0.13093343E+00 0.16305652E+03</pdfrwt>
<pdfrwt beam="2">  1       21 0.14196025E+00 0.16305652E+03</pdfrwt>
<totfact> 0.15288955E+02</totfact>
</mgrwt>
</event>
<event>
 4    1  0.6052129E+003  0.1029204E+03  0.7546771E-02  0.1274272E+00
         21   -1    0    0  504  501  0.00000000000E+00  0.00000000000E+00  0.34721836320E+02  0.34721836320E+02  0.00000000000E+00 0.  1.
         21   -1    0    0  503  502 -0.00000000000E+00 -0.00000000000E+00 -0.43163674729E+03  0.43163674729E+03  0.00000000000E+00 0.  1.
         21    1    1    2  503  501  0.33149673587E+02  0.97435650976E+02 -0.32472443040E+03  0.34064433452E+03  0.00000000000E+00 0.  1.
         21    1    1    2  504  502 -0.33149673587E+02 -0.97435650976E+02 -0.72190480567E+02  0.12571424909E+03  0.00000000000E+00 0.  1.
<mgrwt>
<rscale>  2 0.10292039E+03</rscale>
<asrwt>0</asrwt>
<pdfrwt beam="1">  1       21 0.53418213E-02 0.10292039E+03</pdfrwt>
<pdfrwt beam="2">  1       21 0.66405650E-01 0.10292039E+03</pdfrwt>
<totfact> 0.50607121E+05</totfact>
</mgrwt>
</event>
<event>
 4    1  0.6052129E+003  0.1167318E+03  0.7546771E-02  0.1248588E+00
         21   -1    0    0  503  501  0.00000000000E+00  0.00000000000E+00  0.14641873079E+04  0.14641873079E+04  0.00000000000E+00 0. -1.
         21   -1    0    0  504  502 -0.00000000000E+00 -0.00000000000E+00 -0.93069028322E+01  0.93069028322E+01  0.00000000000E+00 0. -1.
         21    1    1    2  503  502 -0.11486427301E+03 -0.20796814544E+02  0.72200995675E+03  0.73138545675E+03  0.00000000000E+00 0. -1.
         21    1    1    2  504  501  0.11486427301E+03  0.20796814544E+02  0.73287044832E+03  0.74210875397E+03  0.00000000000E+00 0. -1.
<mgrwt>
<rscale>  2 0.11673178E+03</rscale>
<asrwt>0</asrwt>
<pdfrwt beam="1">  1       21 0.22525940E+00 0.11673178E+03</pdfrwt>
<pdfrwt beam="2">  1       21 0.14318324E-02 0.11673178E+03</pdfrwt>
<totfact> 0.20680576E+05</totfact>
</mgrwt>
</event>
<event>
 4    1  0.6052129E+003  0.1889910E+03  0.7546771E-02  0.1159375E+00
         21   -1    0    0  503  501  0.00000000000E+00  0.00000000000E+00  0.10072239140E+03  0.10072239140E+03  0.00000000000E+00 0.  1.
         21   -1    0    0  504  502 -0.00000000000E+00 -0.00000000000E+00 -0.41936660689E+03  0.41936660689E+03  0.00000000000E+00 0.  1.
         21    1    1    2  503  502 -0.18664682918E+03  0.29673977032E+02 -0.26150517214E+03  0.32264925044E+03  0.00000000000E+00 0.  1.
         21    1    1    2  504  501  0.18664682918E+03 -0.29673977032E+02 -0.57139043349E+02  0.19743974785E+03  0.00000000000E+00 0.  1.
<mgrwt>
<rscale>  2 0.18899096E+03</rscale>
<asrwt>0</asrwt>
<pdfrwt beam="1">  1       21 0.15495753E-01 0.18899096E+03</pdfrwt>
<pdfrwt beam="2">  1       21 0.64517939E-01 0.18899096E+03</pdfrwt>
<totfact> 0.82015674E+04</totfact>
</mgrwt>
</event>
<event>
 4    1  0.6052129E+003  0.1801067E+03  0.7546771E-02  0.1167700E+00
         21   -1    0    0  504  501  0.00000000000E+00  0.00000000000E+00  0.25918172441E+03  0.25918172441E+03  0.00000000000E+00 0. -1.
         21   -1    0    0  503  502 -0.00000000000E+00 -0.00000000000E+00 -0.18823221161E+03  0.18823221161E+03  0.00000000000E+00 0. -1.
         21    1    1    2  503  501 -0.16273356413E+03  0.77176445315E+02  0.16497237166E+03  0.24424229776E+03  0.00000000000E+00 0. -1.
         21    1    1    2  504  502  0.16273356413E+03 -0.77176445315E+02 -0.94022858863E+02  0.20317163826E+03  0.00000000000E+00 0. -1.
<mgrwt>
<rscale>  2 0.18010668E+03</rscale>
<asrwt>0</asrwt>
<pdfrwt beam="1">  1       21 0.39874112E-01 0.18010668E+03</pdfrwt>
<pdfrwt beam="2">  1       21 0.28958802E-01 0.18010668E+03</pdfrwt>
<totfact> 0.69561953E+04</totfact>
</mgrwt>
</event>
<event>
 4    1  0.6052129E+003  0.1244266E+03  0.7546771E-02  0.1235968E+00
         21   -1    0    0  504  501  0.00000000000E+00  0.00000000000E+00  0.90219031506E+03  0.90219031506E+03  0.00000000000E+00 0.  1.
         21   -1    0    0  503  502 -0.00000000000E+00 -0.00000000000E+00 -0.43861615867E+02  0.43861615867E+02  0.00000000000E+00 0.  1.
         21    1    1    2  503  501 -0.27507449314E+02 -0.12134789624E+03  0.60095015904E+02  0.13817880671E+03  0.00000000000E+00 0.  1.
         21    1    1    2  504  502  0.27507449314E+02  0.12134789624E+03  0.79823368329E+03  0.80787312422E+03  0.00000000000E+00 0.  1.
<mgrwt>
<rscale>  2 0.12442657E+03</rscale>
<asrwt>0</asrwt>
<pdfrwt beam="1">  1       21 0.13879850E+00 0.12442657E+03</pdfrwt>
<pdfrwt beam="2">  1       21 0.67479416E-02 0.12442657E+03</pdfrwt>
<totfact> 0.61252619E+04</totfact>
</mgrwt>
</event>
<event>
 4    1  0.6052129E+003  0.1848493E+03  0.7546771E-02  0.1163191E+00
         21   -1    0    0  502  501  0.00000000000E+00  0.00000000000E+00  0.33786823225E+02  0.33786823225E+02  0.00000000000E+00 0. -1.
         21   -1    0    0  504  502 -0.00000000000E+00 -0.00000000000E+00 -0.13242961355E+04  0.13242961355E+04  0.00000000000E+00 0. -1.
         21    1    1    2  503  501  0.17967104059E+03 -0.43446331515E+02 -0.31514377264E+03  0.36535580464E+03  0.00000000000E+00 0. -1.
         21    1    1    2  504  503 -0.17967104059E+03  0.43446331515E+02 -0.97536553966E+03  0.99272715411E+03  0.00000000000E+00 0. -1.
<mgrwt>
<rscale>  2 0.18484931E+03</rscale>
<asrwt>0</asrwt>
<pdfrwt beam="1">  1       21 0.51979730E-02 0.18484931E+03</pdfrwt>
<pdfrwt beam="2">  1       21 0.20373786E+00 0.18484931E+03</pdfrwt>
<totfact> 0.32184189E+04</totfact>
</mgrwt>
</event>
<event>
 4    1  0.6052129E+003  0.1167477E+03  0.7546771E-02  0.1248561E+00
         21   -1    0    0  503  501  0.00000000000E+00  0.00000000000E+00  0.15689218677E+02  0.15689218677E+02  0.00000000000E+00 0. -1.
         21   -1    0    0  504  502 -0.00000000000E+00 -0.00000000000E+00 -0.96718820472E+03  0.96718820472E+03  0.00000000000E+00 0. -1.
         21    1    1    2  503  502 -0.11673630674E+03 -0.16311922991E+01 -0.31896855170E+03  0.33966301399E+03  0.00000000000E+00 0. -1.
         21    1    1    2  504  501  0.11673630674E+03  0.16311922991E+01 -0.63253043435E+03  0.64321440941E+03  0.00000000000E+00 0. -1.
<mgrwt>
<rscale>  2 0.11674770E+03</rscale>
<asrwt>0</asrwt>
<pdfrwt beam="1">  1       21 0.24137257E-02 0.11674770E+03</pdfrwt>
<pdfrwt beam="2">  1       21 0.14879820E+00 0.11674770E+03</pdfrwt>
<totfact> 0.28384611E+05</totfact>
</mgrwt>
</event>
<event>
 4    1  0.6052129E+003  0.1247558E+03  0.7546771E-02  0.1235451E+00
         21   -1    0    0  503  501  0.00000000000E+00  0.00000000000E+00  0.29478389146E+02  0.29478389146E+02  0.00000000000E+00 0.  1.
         21   -1    0    0  504  502 -0.00000000000E+00 -0.00000000000E+00 -0.91430751956E+03  0.91430751956E+03  0.00000000000E+00 0.  1.
         21    1    1    2  503  502  0.12469237176E+03 -0.39792261823E+01 -0.74915762989E+03  0.75947427622E+03  0.00000000000E+00 0.  1.
         21    1    1    2  504  501 -0.12469237176E+03  0.39792261823E+01 -0.13567150052E+03  0.18431163248E+03  0.00000000000E+00 0.  1.
<mgrwt>
<rscale>  2 0.12475585E+03</rscale>
<asrwt>0</asrwt>
<pdfrwt beam="1">  1       21 0.45351373E-02 0.12475585E+03</pdfrwt>
<pdfrwt beam="2">  1       21 0.14066268E+00 0.12475585E+03</pdfrwt>
<totfact> 0.11574455E+05</totfact>
</mgrwt>
</event>
<event>
 4    1  0.6052129E+003  0.1100430E+03  0.7546771E-02  0.1260490E+00
         21   -1    0    0  503  501  0.00000000000E+00  0.00000000000E+00  0.22170048161E+02  0.22170048161E+02  0.00000000000E+00 0.  1.
         21   -1    0    0  504  502 -0.00000000000E+00 -0.00000000000E+00 -0.94375784915E+03  0.94375784915E+03  0.00000000000E+00 0.  1.
         21    1    1    2  503  502 -0.70677994717E+02  0.84344964922E+02 -0.77425262370E+03  0.78203361651E+03  0.00000000000E+00 0.  1.
         21    1    1    2  504  501  0.70677994717E+02 -0.84344964922E+02 -0.14733517729E+03  0.18389428080E+03  0.00000000000E+00 0.  1.
<mgrwt>
<rscale>  2 0.11004296E+03</rscale>
<asrwt>0</asrwt>
<pdfrwt beam="1">  1       21 0.34107766E-02 0.11004296E+03</pdfrwt>
<pdfrwt beam="2">  1       21 0.14519352E+00 0.11004296E+03</pdfrwt>
<totfact> 0.17240453E+05</totfact>
</mgrwt>
</event>
<event>
 4    1  0.6052129E+003  0.1327993E+03  0.7546771E-02  0.1223360E+00
         21   -1    0    0  503  501  0.00000000000E+00  0.00000000000E+00  0.10347564876E+03  0.10347564876E+03  0.00000000000E+00 0.  1.
         21   -1    0    0  501  502 -0.00000000000E+00 -0.00000000000E+00 -0.27683196321E+03  0.27683196321E+03  0.00000000000E+00 0.  1.
         21    1    1    2  503  504 -0.10782554906E+03 -0.77519764068E+02  0.31208770956E+02  0.13641719186E+03  0.00000000000E+00 0.  1.
         21    1    1    2  504  502  0.10782554906E+03  0.77519764068E+02 -0.20456508540E+03  0.24389042010E+03  0.00000000000E+00 0.  1.
<mgrwt>
<rscale>  2 0.13279933E+03</rscale>
<asrwt>0</asrwt>
<pdfrwt beam="1">  1       21 0.15919331E-01 0.13279933E+03</pdfrwt>
<pdfrwt beam="2">  1       21 0.42589533E-01 0.13279933E+03</pdfrwt>
<totfact> 0.18985989E+05</totfact>
</mgrwt>
</event>
<event>
 4    1  0.6052129E+003  0.2138577E+03  0.7546771E-02  0.1138547E+00
         21   -1    0    0  502  501  0.00000000000E+00  0.00000000000E+00  0.36546343537E+03  0.36546343537E+03  0.00000000000E+00 0.  1.
         21   -1    0    0  503  502 -0.00000000000E+00 -0.00000000000E+00 -0.19015198557E+03  0.19015198557E+03  0.00000000000E+00 0. -1.
         21    1    1    2  503  504  0.23233750524E+02  0.21259192652E+03 -0.74779820939E+02  0.22655497347E+03  0.00000000000E+00 0. -1.
         21    1    1    2  504  501 -0.23233750524E+02 -0.21259192652E+03  0.25009127074E+03  0.32906044746E+03  0.00000000000E+00 0.  1.
<mgrwt>
<rscale>  2 0.21385774E+03</rscale>
<asrwt>0</asrwt>
<pdfrwt beam="1">  1       21 0.56225144E-01 0.21385774E+03</pdfrwt>
<pdfrwt beam="2">  1       21 0.29254152E-01 0.21385774E+03</pdfrwt>
<totfact> 0.32942385E+04</totfact>
</mgrwt>
</event>
<event>
 4    1  0.6052129E+003  0.1169092E+03  0.7546771E-02  0.1248285E+00
         21   -1    0    0  502  501  0.00000000000E+00  0.00000000000E+00  0.15996127328E+03  0.15996127328E+03  0.00000000000E+00 0. -1.
         21   -1    0    0  503  502 -0.00000000000E+00 -0.00000000000E+00 -0.14575177396E+03  0.14575177396E+03  0.00000000000E+00 0. -1.
         21    1    1    2  503  504  0.93724610568E+02  0.69881829255E+02 -0.91219980973E+02  0.14828640401E+03  0.00000000000E+00 0. -1.
         21    1    1    2  504  501 -0.93724610568E+02 -0.69881829255E+02  0.10542948029E+03  0.15742664324E+03  0.00000000000E+00 0. -1.
<mgrwt>
<rscale>  2 0.11690925E+03</rscale>
<asrwt>0</asrwt>
<pdfrwt beam="1">  1       21 0.24609427E-01 0.11690925E+03</pdfrwt>
<pdfrwt beam="2">  1       21 0.22423350E-01 0.11690925E+03</pdfrwt>
<totfact> 0.29520911E+05</totfact>
</mgrwt>
</event>
<event>
 4    1  0.6052129E+003  0.1306125E+03  0.7546771E-02  0.1226550E+00
         21   -1    0    0  504  501  0.00000000000E+00  0.00000000000E+00  0.25692985229E+03  0.25692985229E+03  0.00000000000E+00 0.  1.
         21   -1    0    0  503  502 -0.00000000000E+00 -0.00000000000E+00 -0.66647955314E+02  0.66647955314E+02  0.00000000000E+00 0.  1.
         21    1    1    2  503  501 -0.13600184838E+02 -0.12990248218E+03  0.10504961025E+03  0.16761575259E+03  0.00000000000E+00 0.  1.
         21    1    1    2  504  502  0.13600184838E+02  0.12990248218E+03  0.85232286730E+02  0.15596205501E+03  0.00000000000E+00 0.  1.
<mgrwt>
<rscale>  2 0.13061248E+03</rscale>
<asrwt>0</asrwt>
<pdfrwt beam="1">  1       21 0.39527669E-01 0.13061248E+03</pdfrwt>
<pdfrwt beam="2">  1       21 0.10253532E-01 0.13061248E+03</pdfrwt>
<totfact> 0.48309041E+05</totfact>
</mgrwt>
</event>
<event>
 4    1  0.6052129E+003  0.1539238E+03  0.7546771E-02  0.1195733E+00
         21   -1    0    0  504  501  0.00000000000E+00  0.00000000000E+00  0.40599564381E+03  0.40599564381E+03  0.00000000000E+00 0. -1.
         21   -1    0    0  503  502 -0.00000000000E+00 -0.00000000000E+00 -0.67425519839E+02  0.67425519839E+02  0.00000000000E+00 0. -1.
         21    1    1    2  503  501  0.17098497683E+02  0.15297113438E+03  0.82472368167E+02  0.17462593761E+03  0.00000000000E+00 0. -1.
         21    1    1    2  504  502 -0.17098497683E+02 -0.15297113438E+03  0.25609775581E+03  0.29879522604E+03  0.00000000000E+00 0. -1.
<mgrwt>
<rscale>  2 0.15392377E+03</rscale>
<asrwt>0</asrwt>
<pdfrwt beam="1">  1       21 0.62460867E-01 0.15392377E+03</pdfrwt>
<pdfrwt beam="2">  1       21 0.10373157E-01 0.15392377E+03</pdfrwt>
<totfact> 0.18290951E+05</totfact>
</mgrwt>
</event>
<event>
 4    1  0.6052129E+003  0.1885498E+03  0.7546771E-02  0.1159776E+00
         21   -1    0    0  503  501  0.00000000000E+00  0.00000000000E+00  0.27877164046E+02  0.27877164046E+02  0.00000000000E+00 0.  1.
         21   -1    0    0  504  502 -0.00000000000E+00 -0.00000000000E+00 -0.13007067195E+04  0.13007067195E+04  0.00000000000E+00 0.  1.
         21    1    1    2  503  502  0.15439093740E+03 -0.10823341025E+03 -0.72930341386E+03  0.75328248493E+03  0.00000000000E+00 0.  1.
         21    1    1    2  504  501 -0.15439093740E+03  0.10823341025E+03 -0.54352614163E+03  0.57530139864E+03  0.00000000000E+00 0.  1.
<mgrwt>
<rscale>  2 0.18854981E+03</rscale>
<asrwt>0</asrwt>
<pdfrwt beam="1">  1       21 0.42887943E-02 0.18854981E+03</pdfrwt>
<pdfrwt beam="2">  1       21 0.20010873E+00 0.18854981E+03</pdfrwt>
<totfact> 0.46852697E+04</totfact>
</mgrwt>
</event>
<event>
 4    1  0.6052129E+003  0.1116283E+03  0.7546771E-02  0.1257584E+00
         21   -1    0    0  503  501  0.00000000000E+00  0.00000000000E+00  0.14034269378E+02  0.14034269378E+02  0.00000000000E+00 0. -1.
         21   -1    0    0  504  502 -0.00000000000E+00 -0.00000000000E+00 -0.18737160712E+04  0.18737160712E+04  0.00000000000E+00 0. -1.
         21    1    1    2  503  502  0.66226168315E+02 -0.89860852575E+02 -0.16144819986E+04  0.16183364922E+04  0.00000000000E+00 0. -1.
         21    1    1    2  504  501 -0.66226168315E+02  0.89860852575E+02 -0.24519980322E+03  0.26941384838E+03  0.00000000000E+00 0. -1.
<mgrwt>
<rscale>  2 0.11162830E+03</rscale>
<asrwt>0</asrwt>
<pdfrwt beam="1">  1       21 0.21591194E-02 0.11162830E+03</pdfrwt>
<pdfrwt beam="2">  1       21 0.28826388E+00 0.11162830E+03</pdfrwt>
<totfact> 0.47215879E+04</totfact>
</mgrwt>
</event>
<event>
 4    1  0.6052129E+003  0.1413533E+03  0.7546771E-02  0.1211520E+00
         21   -1    0    0  502  501  0.00000000000E+00  0.00000000000E+00  0.88609961360E+03  0.88609961360E+03  0.00000000000E+00 0. -1.
         21   -1    0    0  503  502 -0.00000000000E+00 -0.00000000000E+00 -0.62340411765E+02  0.62340411765E+02  0.00000000000E+00 0. -1.
         21    1    1    2  503  504 -0.13426078872E+03  0.44213110922E+02  0.33010565233E+02  0.14515666014E+03  0.00000000000E+00 0. -1.
         21    1    1    2  504  501  0.13426078872E+03 -0.44213110922E+02  0.79074863661E+03  0.80328336523E+03  0.00000000000E+00 0. -1.
<mgrwt>
<rscale>  2 0.14135331E+03</rscale>
<asrwt>0</asrwt>
<pdfrwt beam="1">  1       21 0.13632301E+00 0.14135331E+03</pdfrwt>
<pdfrwt beam="2">  1       21 0.95908332E-02 0.14135331E+03</pdfrwt>
<totfact> 0.34558005E+04</totfact>
</mgrwt>
</event>
<event>
 4    1  0.6052129E+003  0.1025178E+03  0.7546771E-02  0.1275089E+00
         21   -1    0    0  504  501  0.00000000000E+00  0.00000000000E+00  0.39305149268E+03  0.39305149268E+03  0.00000000000E+00 0. -1.
         21   -1    0    0  503  502 -0.00000000000E+00 -0.00000000000E+00 -0.34399851629E+02  0.34399851629E+02  0.00000000000E+00 0.  1.
         21    1    1    2  503  501 -0.99248127337E+02 -0.25684917516E+02  0.78467998979E+02  0.12910124953E+03  0.00000000000E+00 0.  1.
         21    1    1    2  504  502  0.99248127337E+02  0.25684917516E+02  0.28018364208E+03  0.29835009478E+03  0.00000000000E+00 0. -1.
<mgrwt>
<rscale>  2 0.10251783E+03</rscale>
<asrwt>0</asrwt>
<pdfrwt beam="1">  1       21 0.60469457E-01 0.10251783E+03</pdfrwt>
<pdfrwt beam="2">  1       21 0.52922851E-02 0.10251783E+03</pdfrwt>
<totfact> 0.62745601E+05</totfact>
</mgrwt>
</event>
<event>
 4    1  0.6052129E+003  0.1272453E+03  0.7546771E-02  0.1231601E+00
         21   -1    0    0  504  501  0.00000000000E+00  0.00000000000E+00  0.24161736790E+03  0.24161736790E+03  0.00000000000E+00 0. -1.
         21   -1    0    0  501  502 -0.00000000000E+00 -0.00000000000E+00 -0.84754061844E+02  0.84754061844E+02  0.00000000000E+00 0. -1.
         21    1    1    2  503  502  0.11761181029E+03 -0.48567791072E+02  0.37698293611E+01  0.12730113850E+03  0.00000000000E+00 0. -1.
         21    1    1    2  504  503 -0.11761181029E+03  0.48567791072E+02  0.15309347670E+03  0.19907029125E+03  0.00000000000E+00 0. -1.
<mgrwt>
<rscale>  2 0.12724531E+03</rscale>
<asrwt>0</asrwt>
<pdfrwt beam="1">  1       21 0.37171903E-01 0.12724531E+03</pdfrwt>
<pdfrwt beam="2">  1       21 0.13039087E-01 0.12724531E+03</pdfrwt>
<totfact> 0.35709602E+05</totfact>
</mgrwt>
</event>
<event>
 4    1  0.6052129E+003  0.1353832E+03  0.7546771E-02  0.1219680E+00
         21   -1    0    0  503  501  0.00000000000E+00  0.00000000000E+00  0.37251765274E+03  0.37251765274E+03  0.00000000000E+00 0. -1.
         21   -1    0    0  504  502 -0.00000000000E+00 -0.00000000000E+00 -0.49253809721E+02  0.49253809721E+02  0.00000000000E+00 0. -1.
         21    1    1    2  503  502 -0.39376807597E+02 -0.12953024799E+03  0.16847074647E+03  0.21612730169E+03  0.00000000000E+00 0. -1.
         21    1    1    2  504  501  0.39376807597E+02  0.12953024799E+03  0.15479309655E+03  0.20564416077E+03  0.00000000000E+00 0. -1.
<mgrwt>
<rscale>  2 0.13538323E+03</rscale>
<asrwt>0</asrwt>
<pdfrwt beam="1">  1       21 0.57310406E-01 0.13538323E+03</pdfrwt>
<pdfrwt beam="2">  1       21 0.75775094E-02 0.13538323E+03</pdfrwt>
<totfact> 0.38100519E+05</totfact>
</mgrwt>
</event>
<event>
 4    1  0.6052129E+003  0.1059534E+03  0.7546771E-02  0.1268252E+00
         21   -1    0    0  503  501  0.00000000000E+00  0.00000000000E+00  0.92561807478E+02  0.92561807478E+02  0.00000000000E+00 0. -1.
         21   -1    0    0  501  502 -0.00000000000E+00 -0.00000000000E+00 -0.19643702209E+03  0.19643702209E+03  0.00000000000E+00 0. -1.
         21    1    1    2  503  504  0.99956366575E+02  0.35140386236E+02  0.37440704268E+02  0.11237405528E+03  0.00000000000E+00 0. -1.
         21    1    1    2  504  502 -0.99956366575E+02 -0.35140386236E+02 -0.14131591888E+03  0.17662477429E+03  0.00000000000E+00 0. -1.
<mgrwt>
<rscale>  2 0.10595340E+03</rscale>
<asrwt>0</asrwt>
<pdfrwt beam="1">  1       21 0.14240278E-01 0.10595340E+03</pdfrwt>
<pdfrwt beam="2">  1       21 0.30221081E-01 0.10595340E+03</pdfrwt>
<totfact> 0.45787584E+05</totfact>
</mgrwt>
</event>
<event>
 4    1  0.6052129E+003  0.1073303E+03  0.7546771E-02  0.1265595E+00
         21   -1    0    0  503  501  0.00000000000E+00  0.00000000000E+00  0.91115962434E+02  0.91115962434E+02  0.00000000000E+00 0.  1.
         21   -1    0    0  504  502 -0.00000000000E+00 -0.00000000000E+00 -0.14270219933E+03  0.14270219933E+03  0.00000000000E+00 0.  1.
         21    1    1    2  503  502  0.51305384365E+02 -0.94273788663E+02 -0.65271219212E+02  0.12561895459E+03  0.00000000000E+00 0.  1.
         21    1    1    2  504  501 -0.51305384365E+02  0.94273788663E+02  0.13684982313E+02  0.10819920718E+03  0.00000000000E+00 0.  1.
<mgrwt>
<rscale>  2 0.10733028E+03</rscale>
<asrwt>0</asrwt>
<pdfrwt beam="1">  1       21 0.14017840E-01 0.10733028E+03</pdfrwt>
<pdfrwt beam="2">  1       21 0.21954184E-01 0.10733028E+03</pdfrwt>
<totfact> 0.86067749E+05</totfact>
</mgrwt>
</event>
<event>
 4    1  0.6052129E+003  0.1262356E+03  0.7546771E-02  0.1233151E+00
         21   -1    0    0  502  501  0.00000000000E+00  0.00000000000E+00  0.15110553711E+04  0.15110553711E+04  0.00000000000E+00 0.  1.
         21   -1    0    0  504  502 -0.00000000000E+00 -0.00000000000E+00 -0.15264865393E+03  0.15264865393E+03  0.00000000000E+00 0.  1.
         21    1    1    2  503  501  0.32645272805E+02  0.12194141497E+03  0.14818064828E+04  0.14871737877E+04  0.00000000000E+00 0.  1.
         21    1    1    2  504  503 -0.32645272805E+02 -0.12194141497E+03 -0.12339976562E+03  0.17653023729E+03  0.00000000000E+00 0.  1.
<mgrwt>
<rscale>  2 0.12623558E+03</rscale>
<asrwt>0</asrwt>
<pdfrwt beam="1">  1       21 0.23247005E+00 0.12623558E+03</pdfrwt>
<pdfrwt beam="2">  1       21 0.23484409E-01 0.12623558E+03</pdfrwt>
<totfact> 0.15776952E+03</totfact>
</mgrwt>
</event>
<event>
 4    1  0.6052129E+003  0.1210821E+03  0.7546771E-02  0.1241323E+00
         21   -1    0    0  503  501  0.00000000000E+00  0.00000000000E+00  0.38851023405E+02  0.38851023405E+02  0.00000000000E+00 0.  1.
         21   -1    0    0  504  502 -0.00000000000E+00 -0.00000000000E+00 -0.42601868549E+03  0.42601868549E+03  0.00000000000E+00 0.  1.
         21    1    1    2  503  502 -0.82236914108E+02 -0.88870489340E+02 -0.27213654119E+03  0.29785763540E+03  0.00000000000E+00 0.  1.
         21    1    1    2  504  501  0.82236914108E+02  0.88870489340E+02 -0.11503112089E+03  0.16701207349E+03  0.00000000000E+00 0.  1.
<mgrwt>
<rscale>  2 0.12108210E+03</rscale>
<asrwt>0</asrwt>
<pdfrwt beam="1">  1       21 0.59770804E-02 0.12108210E+03</pdfrwt>
<pdfrwt beam="2">  1       21 0.65541337E-01 0.12108210E+03</pdfrwt>
<totfact> 0.42995583E+05</totfact>
</mgrwt>
</event>
<event>
 4    1  0.6052129E+003  0.1192011E+03  0.7546771E-02  0.1244421E+00
         21   -1    0    0  502  501  0.00000000000E+00  0.00000000000E+00  0.35134934421E+02  0.35134934421E+02  0.00000000000E+00 0. -1.
         21   -1    0    0  504  502 -0.00000000000E+00 -0.00000000000E+00 -0.46481064909E+03  0.46481064909E+03  0.00000000000E+00 0. -1.
         21    1    1    2  503  501  0.43289348130E+02 -0.11106272638E+03 -0.12472686812E+03  0.17252735576E+03  0.00000000000E+00 0. -1.
         21    1    1    2  504  503 -0.43289348130E+02  0.11106272638E+03 -0.30494884655E+03  0.32741822776E+03  0.00000000000E+00 0. -1.
<mgrwt>
<rscale>  2 0.11920108E+03</rscale>
<asrwt>0</asrwt>
<pdfrwt beam="1">  1       21 0.54053747E-02 0.11920108E+03</pdfrwt>
<pdfrwt beam="2">  1       21 0.71509328E-01 0.11920108E+03</pdfrwt>
<totfact> 0.42188313E+05</totfact>
</mgrwt>
</event>
<event>
 4    1  0.6052129E+003  0.1301617E+03  0.7546771E-02  0.1227216E+00
         21   -1    0    0  504  501  0.00000000000E+00  0.00000000000E+00  0.22358713597E+03  0.22358713597E+03  0.00000000000E+00 0.  1.
         21   -1    0    0  503  502 -0.00000000000E+00 -0.00000000000E+00 -0.11004207347E+03  0.11004207347E+03  0.00000000000E+00 0.  1.
         21    1    1    2  503  501  0.67845554114E+02  0.11108124319E+03  0.14986196286E+03  0.19849601939E+03  0.00000000000E+00 0.  1.
         21    1    1    2  504  502 -0.67845554114E+02 -0.11108124319E+03 -0.36316900365E+02  0.13513319005E+03  0.00000000000E+00 0.  1.
<mgrwt>
<rscale>  2 0.13016168E+03</rscale>
<asrwt>0</asrwt>
<pdfrwt beam="1">  1       21 0.34398021E-01 0.13016168E+03</pdfrwt>
<pdfrwt beam="2">  1       21 0.16929550E-01 0.13016168E+03</pdfrwt>
<totfact> 0.25978918E+05</totfact>
</mgrwt>
</event>
<event>
 4    1  0.6052129E+003  0.1083083E+03  0.7546771E-02  0.1263735E+00
         21   -1    0    0  502  501  0.00000000000E+00  0.00000000000E+00  0.46469931846E+03  0.46469931846E+03  0.00000000000E+00 0.  1.
         21   -1    0    0  503  502 -0.00000000000E+00 -0.00000000000E+00 -0.38392564072E+02  0.38392564072E+02  0.00000000000E+00 0.  1.
         21    1    1    2  503  504  0.65221264133E+02  0.86468971871E+02  0.65942780066E+02  0.12680357501E+03  0.00000000000E+00 0.  1.
         21    1    1    2  504  501 -0.65221264133E+02 -0.86468971871E+02  0.36036397432E+03  0.37628830752E+03  0.00000000000E+00 0.  1.
<mgrwt>
<rscale>  2 0.10830834E+03</rscale>
<asrwt>0</asrwt>
<pdfrwt beam="1">  1       21 0.71492199E-01 0.10830834E+03</pdfrwt>
<pdfrwt beam="2">  1       21 0.59065486E-02 0.10830834E+03</pdfrwt>
<totfact> 0.36415989E+05</totfact>
</mgrwt>
</event>
<event>
 4    1  0.6052129E+003  0.1443008E+03  0.7546771E-02  0.1207656E+00
         21   -1    0    0  503  501  0.00000000000E+00  0.00000000000E+00  0.25024652495E+02  0.25024652495E+02  0.00000000000E+00 0. -1.
         21   -1    0    0  501  502 -0.00000000000E+00 -0.00000000000E+00 -0.11372341957E+04  0.11372341957E+04  0.00000000000E+00 0. -1.
         21    1    1    2  503  504  0.45380970818E+02 -0.13697911965E+03 -0.25508021336E+03  0.29306761503E+03  0.00000000000E+00 0. -1.
         21    1    1    2  504  502 -0.45380970818E+02  0.13697911965E+03 -0.85712932986E+03  0.86919123318E+03  0.00000000000E+00 0. -1.
<mgrwt>
<rscale>  2 0.14430077E+03</rscale>
<asrwt>0</asrwt>
<pdfrwt beam="1">  1       21 0.38499468E-02 0.14430077E+03</pdfrwt>
<pdfrwt beam="2">  1       21 0.17495910E+00 0.14430077E+03</pdfrwt>
<totfact> 0.84609689E+04</totfact>
</mgrwt>
</event>
<event>
 4    1  0.6052129E+003  0.1047533E+03  0.7546771E-02  0.1270606E+00
         21   -1    0    0  504  501  0.00000000000E+00  0.00000000000E+00  0.26922353059E+03  0.26922353059E+03  0.00000000000E+00 0.  1.
         21   -1    0    0  501  502 -0.00000000000E+00 -0.00000000000E+00 -0.50233899311E+02  0.50233899311E+02  0.00000000000E+00 0. -1.
         21    1    1    2  503  502  0.66202387537E+02  0.81181887598E+02  0.40124424475E+02  0.11217497238E+03  0.00000000000E+00 0. -1.
         21    1    1    2  504  503 -0.66202387537E+02 -0.81181887598E+02  0.17886520681E+03  0.20728245752E+03  0.00000000000E+00 0.  1.
<mgrwt>
<rscale>  2 0.10475331E+03</rscale>
<asrwt>0</asrwt>
<pdfrwt beam="1">  1       21 0.41419004E-01 0.10475331E+03</pdfrwt>
<pdfrwt beam="2">  1       21 0.77282924E-02 0.10475331E+03</pdfrwt>
<totfact> 0.71859701E+05</totfact>
</mgrwt>
</event>
<event>
 4    1  0.6052129E+003  0.1447917E+03  0.7546771E-02  0.1207023E+00
         21   -1    0    0  502  501  0.00000000000E+00  0.00000000000E+00  0.13831559929E+04  0.13831559929E+04  0.00000000000E+00 0.  1.
         21   -1    0    0  504  502 -0.00000000000E+00 -0.00000000000E+00 -0.58803374691E+02  0.58803374691E+02  0.00000000000E+00 0.  1.
         21    1    1    2  503  501  0.91084147043E+01 -0.14450487476E+03  0.12833249430E+04  0.12914672011E+04  0.00000000000E+00 0.  1.
         21    1    1    2  504  503 -0.91084147043E+01  0.14450487476E+03  0.41027675152E+02  0.15049216649E+03  0.00000000000E+00 0.  1.
<mgrwt>
<rscale>  2 0.14479165E+03</rscale>
<asrwt>0</asrwt>
<pdfrwt beam="1">  1       21 0.21279320E+00 0.14479165E+03</pdfrwt>
<pdfrwt beam="2">  1       21 0.90466741E-02 0.14479165E+03</pdfrwt>
<totfact> 0.11285901E+04</totfact>
</mgrwt>
</event>
<event>
 4    1  0.6052129E+003  0.1162996E+03  0.7546771E-02  0.1249330E+00
         21   -1    0    0  504  501  0.00000000000E+00  0.00000000000E+00  0.78527292502E+02  0.78527292502E+02  0.00000000000E+00 0. -1.
         21   -1    0    0  501  502 -0.00000000000E+00 -0.00000000000E+00 -0.35472912274E+03  0.35472912274E+03  0.00000000000E+00 0. -1.
         21    1    1    2  503  502 -0.10411894067E+03 -0.51815395621E+02 -0.29347706144E+03  0.31568081130E+03  0.00000000000E+00 0. -1.
         21    1    1    2  504  503  0.10411894067E+03  0.51815395621E+02  0.17275231202E+02  0.11757560394E+03  0.00000000000E+00 0. -1.
<mgrwt>
<rscale>  2 0.11629957E+03</rscale>
<asrwt>0</asrwt>
<pdfrwt beam="1">  1       21 0.12081122E-01 0.11629957E+03</pdfrwt>
<pdfrwt beam="2">  1       21 0.54573713E-01 0.11629957E+03</pdfrwt>
<totfact> 0.18799390E+05</totfact>
</mgrwt>
</event>
<event>
 4    1  0.6052129E+003  0.1099924E+03  0.7546771E-02  0.1260584E+00
         21   -1    0    0  504  501  0.00000000000E+00  0.00000000000E+00  0.59768724414E+03  0.59768724414E+03  0.00000000000E+00 0.  1.
         21   -1    0    0  501  502 -0.00000000000E+00 -0.00000000000E+00 -0.24756816964E+03  0.24756816964E+03  0.00000000000E+00 0.  1.
         21    1    1    2  503  502 -0.78114043459E+02  0.77437171956E+02 -0.22992214945E+03  0.25487744936E+03  0.00000000000E+00 0.  1.
         21    1    1    2  504  503  0.78114043459E+02 -0.77437171956E+02  0.58004122395E+03  0.59037796442E+03  0.00000000000E+00 0.  1.
<mgrwt>
<rscale>  2 0.10999236E+03</rscale>
<asrwt>0</asrwt>
<pdfrwt beam="1">  1       21 0.91951884E-01 0.10999236E+03</pdfrwt>
<pdfrwt beam="2">  1       21 0.38087411E-01 0.10999236E+03</pdfrwt>
<totfact> 0.71540733E+03</totfact>
</mgrwt>
</event>
<event>
 4    1  0.6052129E+003  0.1108274E+03  0.7546771E-02  0.1259045E+00
         21   -1    0    0  503  501  0.00000000000E+00  0.00000000000E+00  0.54582623885E+03  0.54582623885E+03  0.00000000000E+00 0. -1.
         21   -1    0    0  504  502 -0.00000000000E+00 -0.00000000000E+00 -0.29098857129E+02  0.29098857129E+02  0.00000000000E+00 0. -1.
         21    1    1    2  503  502 -0.97533038236E+02  0.52630911167E+02  0.12150252946E+03  0.16445537700E+03  0.00000000000E+00 0. -1.
         21    1    1    2  504  501  0.97533038236E+02 -0.52630911167E+02  0.39522485226E+03  0.41046971898E+03  0.00000000000E+00 0. -1.
<mgrwt>
<rscale>  2 0.11082737E+03</rscale>
<asrwt>0</asrwt>
<pdfrwt beam="1">  1       21 0.83973260E-01 0.11082737E+03</pdfrwt>
<pdfrwt beam="2">  1       21 0.44767476E-02 0.11082737E+03</pdfrwt>
<totfact> 0.40579130E+05</totfact>
</mgrwt>
</event>
<event>
 4    1  0.6052129E+003  0.1141113E+03  0.7546771E-02  0.1253140E+00
         21   -1    0    0  504  501  0.00000000000E+00  0.00000000000E+00  0.47023653810E+03  0.47023653810E+03  0.00000000000E+00 0. -1.
         21   -1    0    0  501  502 -0.00000000000E+00 -0.00000000000E+00 -0.36394068664E+02  0.36394068664E+02  0.00000000000E+00 0. -1.
         21    1    1    2  503  502 -0.35846069366E+01 -0.11405499793E+03  0.93047706434E+02  0.14723881157E+03  0.00000000000E+00 0. -1.
         21    1    1    2  504  503  0.35846069366E+01  0.11405499793E+03  0.34079476300E+03  0.35939179519E+03  0.00000000000E+00 0. -1.
<mgrwt>
<rscale>  2 0.11411131E+03</rscale>
<asrwt>0</asrwt>
<pdfrwt beam="1">  1       21 0.72344079E-01 0.11411131E+03</pdfrwt>
<pdfrwt beam="2">  1       21 0.55990878E-02 0.11411131E+03</pdfrwt>
<totfact> 0.38795213E+05</totfact>
</mgrwt>
</event>
<event>
 4    1  0.6052129E+003  0.1110355E+03  0.7546771E-02  0.1258664E+00
         21   -1    0    0  504  501  0.00000000000E+00  0.00000000000E+00  0.22048856418E+03  0.22048856418E+03  0.00000000000E+00 0. -1.
         21   -1    0    0  503  502 -0.00000000000E+00 -0.00000000000E+00 -0.67230883183E+02  0.67230883183E+02  0.00000000000E+00 0.  1.
         21    1    1    2  503  501 -0.10948122901E+03 -0.18513271994E+02  0.17611969697E+02  0.11242358392E+03  0.00000000000E+00 0.  1.
         21    1    1    2  504  502  0.10948122901E+03  0.18513271994E+02  0.13564571130E+03  0.17529586344E+03  0.00000000000E+00 0. -1.
<mgrwt>
<rscale>  2 0.11103549E+03</rscale>
<asrwt>0</asrwt>
<pdfrwt beam="1">  1       21 0.33921317E-01 0.11103549E+03</pdfrwt>
<pdfrwt beam="2">  1       21 0.10343213E-01 0.11103549E+03</pdfrwt>
<totfact> 0.64390144E+05</totfact>
</mgrwt>
</event>
<event>
 4    1  0.6052129E+003  0.1056856E+03  0.7546771E-02  0.1268775E+00
         21   -1    0    0  504  501  0.00000000000E+00  0.00000000000E+00  0.61123459318E+03  0.61123459318E+03  0.00000000000E+00 0.  1.
         21   -1    0    0  501  502 -0.00000000000E+00 -0.00000000000E+00 -0.54095778176E+02  0.54095778176E+02  0.00000000000E+00 0.  1.
         21    1    1    2  503  502 -0.35680170682E+02 -0.99480467907E+02  0.78609376581E+01  0.10597750901E+03  0.00000000000E+00 0.  1.
         21    1    1    2  504  503  0.35680170682E+02  0.99480467907E+02  0.54927787734E+03  0.55935286235E+03  0.00000000000E+00 0.  1.
<mgrwt>
<rscale>  2 0.10568556E+03</rscale>
<asrwt>0</asrwt>
<pdfrwt beam="1">  1       21 0.94036086E-01 0.10568556E+03</pdfrwt>
<pdfrwt beam="2">  1       21 0.83224278E-02 0.10568556E+03</pdfrwt>
<totfact> 0.11023028E+05</totfact>
</mgrwt>
</event>
<event>
 4    1  0.6052129E+003  0.1019111E+03  0.7546771E-02  0.1276328E+00
         21   -1    0    0  504  501  0.00000000000E+00  0.00000000000E+00  0.58261721614E+03  0.58261721614E+03  0.00000000000E+00 0. -1.
         21   -1    0    0  503  502 -0.00000000000E+00 -0.00000000000E+00 -0.17828055619E+02  0.17828055619E+02  0.00000000000E+00 0. -1.
         21    1    1    2  503  501 -0.10592726805E+02 -0.10135913352E+03  0.27937271769E+03  0.29738021992E+03  0.00000000000E+00 0. -1.
         21    1    1    2  504  502  0.10592726805E+02  0.10135913352E+03  0.28541644283E+03  0.30306505184E+03  0.00000000000E+00 0. -1.
<mgrwt>
<rscale>  2 0.10191114E+03</rscale>
<asrwt>0</asrwt>
<pdfrwt beam="1">  1       21 0.89633404E-01 0.10191114E+03</pdfrwt>
<pdfrwt beam="2">  1       21 0.27427782E-02 0.10191114E+03</pdfrwt>
<totfact> 0.78419296E+05</totfact>
</mgrwt>
</event>
<event>
 4    1  0.6052129E+003  0.1121467E+03  0.7546771E-02  0.1256645E+00
         21   -1    0    0  503  501  0.00000000000E+00  0.00000000000E+00  0.31110172482E+03  0.31110172482E+03  0.00000000000E+00 0.  1.
         21   -1    0    0  501  502 -0.00000000000E+00 -0.00000000000E+00 -0.44032207961E+03  0.44032207961E+03  0.00000000000E+00 0. -1.
         21    1    1    2  503  504 -0.73459238089E+02  0.84738496840E+02  0.29343911219E+03  0.31413911738E+03  0.00000000000E+00 0.  1.
         21    1    1    2  504  502  0.73459238089E+02 -0.84738496840E+02 -0.42265946697E+03  0.43728468705E+03  0.00000000000E+00 0. -1.
<mgrwt>
<rscale>  2 0.11214666E+03</rscale>
<asrwt>0</asrwt>
<pdfrwt beam="1">  1       21 0.47861804E-01 0.11214666E+03</pdfrwt>
<pdfrwt beam="2">  1       21 0.67741858E-01 0.11214666E+03</pdfrwt>
<totfact> 0.88871778E+03</totfact>
</mgrwt>
</event>
<event>
 4    1  0.6052129E+003  0.1232354E+03  0.7546771E-02  0.1237853E+00
         21   -1    0    0  504  501  0.00000000000E+00  0.00000000000E+00  0.94930818659E+02  0.94930818659E+02  0.00000000000E+00 0.  1.
         21   -1    0    0  501  502 -0.00000000000E+00 -0.00000000000E+00 -0.16148133953E+03  0.16148133953E+03  0.00000000000E+00 0.  1.
         21    1    1    2  503  502  0.48181787243E+02 -0.11342611502E+03 -0.45639991294E+02  0.13141528448E+03  0.00000000000E+00 0.  1.
         21    1    1    2  504  503 -0.48181787243E+02  0.11342611502E+03 -0.20910529579E+02  0.12499687371E+03  0.00000000000E+00 0.  1.
<mgrwt>
<rscale>  2 0.12323542E+03</rscale>
<asrwt>0</asrwt>
<pdfrwt beam="1">  1       21 0.14604742E-01 0.12323542E+03</pdfrwt>
<pdfrwt beam="2">  1       21 0.24843283E-01 0.12323542E+03</pdfrwt>
<totfact> 0.63486916E+05</totfact>
</mgrwt>
</event>
<event>
 4    1  0.6052129E+003  0.1191346E+03  0.7546771E-02  0.1244532E+00
         21   -1    0    0  503  501  0.00000000000E+00  0.00000000000E+00  0.31342100726E+02  0.31342100726E+02  0.00000000000E+00 0. -1.
         21   -1    0    0  504  502 -0.00000000000E+00 -0.00000000000E+00 -0.45789525359E+03  0.45789525359E+03  0.00000000000E+00 0. -1.
         21    1    1    2  503  502 -0.10069370638E+03  0.63669605776E+02 -0.18758075915E+03  0.22221517141E+03  0.00000000000E+00 0. -1.
         21    1    1    2  504  501  0.10069370638E+03 -0.63669605776E+02 -0.23897239371E+03  0.26702218290E+03  0.00000000000E+00 0. -1.
<mgrwt>
<rscale>  2 0.11913455E+03</rscale>
<asrwt>0</asrwt>
<pdfrwt beam="1">  1       21 0.48218619E-02 0.11913455E+03</pdfrwt>
<pdfrwt beam="2">  1       21 0.70445420E-01 0.11913455E+03</pdfrwt>
<totfact> 0.52800615E+05</totfact>
</mgrwt>
</event>
<event>
 4    1  0.6052129E+003  0.1026120E+03  0.7546771E-02  0.1274897E+00
         21   -1    0    0  502  501  0.00000000000E+00  0.00000000000E+00  0.65952642045E+03  0.65952642045E+03  0.00000000000E+00 0.  1.
         21   -1    0    0  504  502 -0.00000000000E+00 -0.00000000000E+00 -0.80633990525E+02  0.80633990525E+02  0.00000000000E+00 0. -1.
         21    1    1    2  503  501  0.43100029052E+02  0.93121496659E+02  0.62087131760E+03  0.62929358702E+03  0.00000000000E+00 0.  1.
         21    1    1    2  504  503 -0.43100029052E+02 -0.93121496659E+02 -0.41978887672E+02  0.11086682396E+03  0.00000000000E+00 0. -1.
<mgrwt>
<rscale>  2 0.10261202E+03</rscale>
<asrwt>0</asrwt>
<pdfrwt beam="1">  1       21 0.10146560E+00 0.10261202E+03</pdfrwt>
<pdfrwt beam="2">  1       21 0.12405230E-01 0.10261202E+03</pdfrwt>
<totfact> 0.46223128E+04</totfact>
</mgrwt>
</event>
<event>
 4    1  0.6052129E+003  0.1042881E+03  0.7546771E-02  0.1271529E+00
         21   -1    0    0  502  501  0.00000000000E+00  0.00000000000E+00  0.24979214545E+02  0.24979214545E+02  0.00000000000E+00 0.  1.
         21   -1    0    0  504  502 -0.00000000000E+00 -0.00000000000E+00 -0.23673709377E+04  0.23673709377E+04  0.00000000000E+00 0. -1.
         21    1    1    2  503  501 -0.40792531084E+02  0.95979046737E+02 -0.90604163151E+02  0.13814891380E+03  0.00000000000E+00 0.  1.
         21    1    1    2  504  503  0.40792531084E+02 -0.95979046737E+02 -0.22517875600E+04  0.22542012385E+04  0.00000000000E+00 0. -1.
<mgrwt>
<rscale>  2 0.10428810E+03</rscale>
<asrwt>0</asrwt>
<pdfrwt beam="1">  1       21 0.38429571E-02 0.10428810E+03</pdfrwt>
<pdfrwt beam="2">  1       21 0.36421082E+00 0.10428810E+03</pdfrwt>
<totfact> 0.69905839E+03</totfact>
</mgrwt>
</event>
<event>
 4    1  0.6052129E+003  0.1170848E+03  0.7546771E-02  0.1247985E+00
         21   -1    0    0  503  501  0.00000000000E+00  0.00000000000E+00  0.66129820522E+02  0.66129820522E+02  0.00000000000E+00 0. -1.
         21   -1    0    0  501  502 -0.00000000000E+00 -0.00000000000E+00 -0.68586793943E+03  0.68586793943E+03  0.00000000000E+00 0.  1.
         21    1    1    2  503  504 -0.76748790099E+02  0.88422102251E+02  0.42087018942E+01  0.11716039484E+03  0.00000000000E+00 0. -1.
         21    1    1    2  504  502  0.76748790099E+02 -0.88422102251E+02 -0.62394682080E+03  0.63483736511E+03  0.00000000000E+00 0.  1.
<mgrwt>
<rscale>  2 0.11708478E+03</rscale>
<asrwt>0</asrwt>
<pdfrwt beam="1">  1       21 0.10173818E-01 0.11708478E+03</pdfrwt>
<pdfrwt beam="2">  1       21 0.10551815E+00 0.11708478E+03</pdfrwt>
<totfact> 0.59134189E+04</totfact>
</mgrwt>
</event>
<event>
 4    1  0.6052129E+003  0.1047482E+03  0.7546771E-02  0.1270616E+00
         21   -1    0    0  504  501  0.00000000000E+00  0.00000000000E+00  0.19090412262E+03  0.19090412262E+03  0.00000000000E+00 0. -1.
         21   -1    0    0  501  502 -0.00000000000E+00 -0.00000000000E+00 -0.58092801692E+02  0.58092801692E+02  0.00000000000E+00 0. -1.
         21    1    1    2  503  502  0.83636482443E+02  0.63064503215E+02  0.79245727671E+02  0.13134716638E+03  0.00000000000E+00 0. -1.
         21    1    1    2  504  503 -0.83636482443E+02 -0.63064503215E+02  0.53565593256E+02  0.11764975793E+03  0.00000000000E+00 0. -1.
<mgrwt>
<rscale>  2 0.10474824E+03</rscale>
<asrwt>0</asrwt>
<pdfrwt beam="1">  1       21 0.29369865E-01 0.10474824E+03</pdfrwt>
<pdfrwt beam="2">  1       21 0.89373542E-02 0.10474824E+03</pdfrwt>
<totfact> 0.10954360E+06</totfact>
</mgrwt>
</event>
<event>
 4    1  0.6052129E+003  0.1098043E+03  0.7546771E-02  0.1260933E+00
         21   -1    0    0  503  501  0.00000000000E+00  0.00000000000E+00  0.26113520825E+03  0.26113520825E+03  0.00000000000E+00 0.  1.
         21   -1    0    0  504  502 -0.00000000000E+00 -0.00000000000E+00 -0.61409904398E+02  0.61409904398E+02  0.00000000000E+00 0. -1.
         21    1    1    2  503  502  0.82346864119E+01 -0.10949509741E+03  0.18019898060E+03  0.21101814857E+03  0.00000000000E+00 0.  1.
         21    1    1    2  504  501 -0.82346864119E+01  0.10949509741E+03  0.19526323253E+02  0.11152696408E+03  0.00000000000E+00 0. -1.
<mgrwt>
<rscale>  2 0.10980431E+03</rscale>
<asrwt>0</asrwt>
<pdfrwt beam="1">  1       21 0.40174647E-01 0.10980431E+03</pdfrwt>
<pdfrwt beam="2">  1       21 0.94476778E-02 0.10980431E+03</pdfrwt>
<totfact> 0.54026718E+05</totfact>
</mgrwt>
</event>
<event>
 4    1  0.6052129E+003  0.1025746E+03  0.7546771E-02  0.1274973E+00
         21   -1    0    0  504  501  0.00000000000E+00  0.00000000000E+00  0.60173710205E+02  0.60173710205E+02  0.00000000000E+00 0.  1.
         21   -1    0    0  503  502 -0.00000000000E+00 -0.00000000000E+00 -0.34630410229E+03  0.34630410229E+03  0.00000000000E+00 0. -1.
         21    1    1    2  503  501 -0.30140494781E+02 -0.98046432025E+02 -0.28606920190E+03  0.30390317624E+03  0.00000000000E+00 0. -1.
         21    1    1    2  504  502  0.30140494781E+02  0.98046432025E+02 -0.61190192918E-01  0.10257463625E+03  0.00000000000E+00 0.  1.
<mgrwt>
<rscale>  2 0.10257462E+03</rscale>
<asrwt>0</asrwt>
<pdfrwt beam="1">  1       21 0.92574940E-02 0.10257462E+03</pdfrwt>
<pdfrwt beam="2">  1       21 0.53277554E-01 0.10257462E+03</pdfrwt>
<totfact> 0.31581892E+05</totfact>
</mgrwt>
</event>
<event>
 4    1  0.6052129E+003  0.1123406E+03  0.7546771E-02  0.1256296E+00
         21   -1    0    0  502  501  0.00000000000E+00  0.00000000000E+00  0.19637548115E+02  0.19637548115E+02  0.00000000000E+00 0.  1.
         21   -1    0    0  503  502 -0.00000000000E+00 -0.00000000000E+00 -0.88704336067E+03  0.88704336067E+03  0.00000000000E+00 0.  1.
         21    1    1    2  503  504 -0.69040764746E+01 -0.11212820480E+03 -0.67165076878E+03  0.68098102455E+03  0.00000000000E+00 0.  1.
         21    1    1    2  504  501  0.69040764746E+01  0.11212820480E+03 -0.19575504377E+03  0.22569988424E+03  0.00000000000E+00 0.  1.
<mgrwt>
<rscale>  2 0.11234056E+03</rscale>
<asrwt>0</asrwt>
<pdfrwt beam="1">  1       21 0.30211611E-02 0.11234056E+03</pdfrwt>
<pdfrwt beam="2">  1       21 0.13646821E+00 0.11234056E+03</pdfrwt>
<totfact> 0.24581387E+05</totfact>
</mgrwt>
</event>
<event>
 4    1  0.6052129E+003  0.1063142E+03  0.7546771E-02  0.1267552E+00
         21   -1    0    0  503  501  0.00000000000E+00  0.00000000000E+00  0.59663095146E+03  0.59663095146E+03  0.00000000000E+00 0.  1.
         21   -1    0    0  504  502 -0.00000000000E+00 -0.00000000000E+00 -0.18364695806E+03  0.18364695806E+03  0.00000000000E+00 0.  1.
         21    1    1    2  503  502  0.10405620257E+03 -0.21795062332E+02  0.57596085105E+03  0.58569072041E+03  0.00000000000E+00 0.  1.
         21    1    1    2  504  501 -0.10405620257E+03  0.21795062332E+02 -0.16297685765E+03  0.19458718911E+03  0.00000000000E+00 0.  1.
<mgrwt>
<rscale>  2 0.10631424E+03</rscale>
<asrwt>0</asrwt>
<pdfrwt beam="1">  1       21 0.91789376E-01 0.10631424E+03</pdfrwt>
<pdfrwt beam="2">  1       21 0.28253378E-01 0.10631424E+03</pdfrwt>
<totfact> 0.12874496E+04</totfact>
</mgrwt>
</event>
<event>
 4    1  0.6052129E+003  0.1239276E+03  0.7546771E-02  0.1236755E+00
         21   -1    0    0  502  501  0.00000000000E+00  0.00000000000E+00  0.86475356170E+03  0.86475356170E+03  0.00000000000E+00 0. -1.
         21   -1    0    0  504  502 -0.00000000000E+00 -0.00000000000E+00 -0.58236432951E+02  0.58236432951E+02  0.00000000000E+00 0.  1.
         21    1    1    2  503  501  0.12187153171E+03 -0.22480458403E+02  0.78800146885E+03  0.79768687852E+03  0.00000000000E+00 0. -1.
         21    1    1    2  504  503 -0.12187153171E+03  0.22480458403E+02  0.18515659900E+02  0.12530311613E+03  0.00000000000E+00 0.  1.
<mgrwt>
<rscale>  2 0.12392756E+03</rscale>
<asrwt>0</asrwt>
<pdfrwt beam="1">  1       21 0.13303900E+00 0.12392756E+03</pdfrwt>
<pdfrwt beam="2">  1       21 0.89594518E-02 0.12392756E+03</pdfrwt>
<totfact> 0.41859915E+04</totfact>
</mgrwt>
</event>
<event>
 4    1  0.6052129E+003  0.1011027E+03  0.7546771E-02  0.1277994E+00
         21   -1    0    0  503  501  0.00000000000E+00  0.00000000000E+00  0.25110563725E+03  0.25110563725E+03  0.00000000000E+00 0. -1.
         21   -1    0    0  501  502 -0.00000000000E+00 -0.00000000000E+00 -0.15281701843E+03  0.15281701843E+03  0.00000000000E+00 0.  1.
         21    1    1    2  503  504  0.10064792892E+03 -0.95786437147E+01  0.22212776852E+03  0.24405430043E+03  0.00000000000E+00 0. -1.
         21    1    1    2  504  502 -0.10064792892E+03  0.95786437147E+01 -0.12383914970E+03  0.15986835525E+03  0.00000000000E+00 0.  1.
<mgrwt>
<rscale>  2 0.10110270E+03</rscale>
<asrwt>0</asrwt>
<pdfrwt beam="1">  1       21 0.38631637E-01 0.10110270E+03</pdfrwt>
<pdfrwt beam="2">  1       21 0.23510310E-01 0.10110270E+03</pdfrwt>
<totfact> 0.11390996E+05</totfact>
</mgrwt>
</event>
<event>
 4    1  0.6052129E+003  0.1221787E+03  0.7546771E-02  0.1239546E+00
         21   -1    0    0  502  501  0.00000000000E+00  0.00000000000E+00  0.15532012136E+04  0.15532012136E+04  0.00000000000E+00 0. -1.
         21   -1    0    0  504  502 -0.00000000000E+00 -0.00000000000E+00 -0.21703053338E+02  0.21703053338E+02  0.00000000000E+00 0. -1.
         21    1    1    2  503  501 -0.10693378534E+03  0.59099954081E+02  0.13535304659E+04  0.13590336129E+04  0.00000000000E+00 0. -1.
         21    1    1    2  504  503  0.10693378534E+03 -0.59099954081E+02  0.17796769441E+03  0.21587065404E+03  0.00000000000E+00 0. -1.
<mgrwt>
<rscale>  2 0.12217872E+03</rscale>
<asrwt>0</asrwt>
<pdfrwt beam="1">  1       21 0.23895395E+00 0.12217872E+03</pdfrwt>
<pdfrwt beam="2">  1       21 0.33389325E-02 0.12217872E+03</pdfrwt>
<totfact> 0.43538366E+04</totfact>
</mgrwt>
</event>
<event>
 4    1  0.6052129E+003  0.1106885E+03  0.7546771E-02  0.1259300E+00
         21   -1    0    0  503  501  0.00000000000E+00  0.00000000000E+00  0.57302633888E+02  0.57302633888E+02  0.00000000000E+00 0. -1.
         21   -1    0    0  504  502 -0.00000000000E+00 -0.00000000000E+00 -0.14508804087E+04  0.14508804087E+04  0.00000000000E+00 0. -1.
         21    1    1    2  503  502  0.89985721803E+02  0.64455482394E+02 -0.47466596658E+00  0.11068949655E+03  0.00000000000E+00 0. -1.
         21    1    1    2  504  501 -0.89985721803E+02 -0.64455482394E+02 -0.13931031088E+04  0.13974935460E+04  0.00000000000E+00 0. -1.
<mgrwt>
<rscale>  2 0.11068848E+03</rscale>
<asrwt>0</asrwt>
<pdfrwt beam="1">  1       21 0.88157900E-02 0.11068848E+03</pdfrwt>
<pdfrwt beam="2">  1       21 0.22321237E+00 0.11068848E+03</pdfrwt>
<totfact> 0.10641496E+04</totfact>
</mgrwt>
</event>
<event>
 4    1  0.6052129E+003  0.1318969E+03  0.7546771E-02  0.1224668E+00
         21   -1    0    0  503  501  0.00000000000E+00  0.00000000000E+00  0.44928366256E+02  0.44928366256E+02  0.00000000000E+00 0. -1.
         21   -1    0    0  504  502 -0.00000000000E+00 -0.00000000000E+00 -0.39660625496E+03  0.39660625496E+03  0.00000000000E+00 0. -1.
         21    1    1    2  503  502  0.66671905615E+02 -0.11380536755E+03 -0.14186194167E+03  0.19370496941E+03  0.00000000000E+00 0. -1.
         21    1    1    2  504  501 -0.66671905615E+02  0.11380536755E+03 -0.20981594704E+03  0.24782965180E+03  0.00000000000E+00 0. -1.
<mgrwt>
<rscale>  2 0.13189695E+03</rscale>
<asrwt>0</asrwt>
<pdfrwt beam="1">  1       21 0.69120568E-02 0.13189695E+03</pdfrwt>
<pdfrwt beam="2">  1       21 0.61016343E-01 0.13189695E+03</pdfrwt>
<totfact> 0.39077354E+05</totfact>
</mgrwt>
</event>
<event>
 4    1  0.6052129E+003  0.1073069E+03  0.7546771E-02  0.1265640E+00
         21   -1    0    0  502  501  0.00000000000E+00  0.00000000000E+00  0.47467866454E+02  0.47467866454E+02  0.00000000000E+00 0.  1.
         21   -1    0    0  504  502 -0.00000000000E+00 -0.00000000000E+00 -0.27049929572E+03  0.27049929572E+03  0.00000000000E+00 0.  1.
         21    1    1    2  503  501  0.83434357391E+02  0.67479496558E+02 -0.60439552633E+02  0.12315727332E+03  0.00000000000E+00 0.  1.
         21    1    1    2  504  503 -0.83434357391E+02 -0.67479496558E+02 -0.16259187663E+03  0.19480988886E+03  0.00000000000E+00 0.  1.
<mgrwt>
<rscale>  2 0.10730692E+03</rscale>
<asrwt>0</asrwt>
<pdfrwt beam="1">  1       21 0.73027486E-02 0.10730692E+03</pdfrwt>
<pdfrwt beam="2">  1       21 0.41615277E-01 0.10730692E+03</pdfrwt>
<totfact> 0.78430344E+05</totfact>
</mgrwt>
</event>
<event>
 4    1  0.6052129E+003  0.1507813E+03  0.7546771E-02  0.1199516E+00
         21   -1    0    0  503  501  0.00000000000E+00  0.00000000000E+00  0.87247761949E+02  0.87247761949E+02  0.00000000000E+00 0.  1.
         21   -1    0    0  504  502 -0.00000000000E+00 -0.00000000000E+00 -0.28023418256E+03  0.28023418256E+03  0.00000000000E+00 0.  1.
         21    1    1    2  503  502 -0.14799056023E+03  0.28875387718E+02 -0.14515370040E+03  0.20929546261E+03  0.00000000000E+00 0.  1.
         21    1    1    2  504  501  0.14799056023E+03 -0.28875387718E+02 -0.47832720215E+02  0.15818648190E+03  0.00000000000E+00 0.  1.
<mgrwt>
<rscale>  2 0.15078128E+03</rscale>
<asrwt>0</asrwt>
<pdfrwt beam="1">  1       21 0.13422732E-01 0.15078128E+03</pdfrwt>
<pdfrwt beam="2">  1       21 0.43112952E-01 0.15078128E+03</pdfrwt>
<totfact> 0.25085087E+05</totfact>
</mgrwt>
</event>
<event>
 4    1  0.6052129E+003  0.1526618E+03  0.7546771E-02  0.1197240E+00
         21   -1    0    0  502  501  0.00000000000E+00  0.00000000000E+00  0.52254155562E+03  0.52254155562E+03  0.00000000000E+00 0.  1.
         21   -1    0    0  504  502 -0.00000000000E+00 -0.00000000000E+00 -0.32986957438E+03  0.32986957438E+03  0.00000000000E+00 0. -1.
         21    1    1    2  503  501  0.10115727890E+03 -0.11433641579E+03  0.49268277377E+03  0.51579252284E+03  0.00000000000E+00 0.  1.
         21    1    1    2  504  503 -0.10115727890E+03  0.11433641579E+03 -0.30001079253E+03  0.33661860716E+03  0.00000000000E+00 0. -1.
<mgrwt>
<rscale>  2 0.15266175E+03</rscale>
<asrwt>0</asrwt>
<pdfrwt beam="1">  1       21 0.80391009E-01 0.15266175E+03</pdfrwt>
<pdfrwt beam="2">  1       21 0.50749165E-01 0.15266175E+03</pdfrwt>
<totfact> 0.51961051E+03</totfact>
</mgrwt>
</event>
<event>
 4    1  0.6052129E+003  0.1466890E+03  0.7546771E-02  0.1204602E+00
         21   -1    0    0  503  501  0.00000000000E+00  0.00000000000E+00  0.30360045718E+02  0.30360045718E+02  0.00000000000E+00 0. -1.
         21   -1    0    0  504  502 -0.00000000000E+00 -0.00000000000E+00 -0.78128270195E+03  0.78128270195E+03  0.00000000000E+00 0. -1.
         21    1    1    2  503  502  0.14616922287E+03 -0.12337521530E+02 -0.25180956061E+03  0.29142016225E+03  0.00000000000E+00 0. -1.
         21    1    1    2  504  501 -0.14616922287E+03  0.12337521530E+02 -0.49911309562E+03  0.52022258541E+03  0.00000000000E+00 0. -1.
<mgrwt>
<rscale>  2 0.14668898E+03</rscale>
<asrwt>0</asrwt>
<pdfrwt beam="1">  1       21 0.46707761E-02 0.14668898E+03</pdfrwt>
<pdfrwt beam="2">  1       21 0.12019734E+00 0.14668898E+03</pdfrwt>
<totfact> 0.16155002E+05</totfact>
</mgrwt>
</event>
<event>
 4    1  0.6052129E+003  0.1292660E+03  0.7546771E-02  0.1228549E+00
         21   -1    0    0  504  501  0.00000000000E+00  0.00000000000E+00  0.93659959013E+02  0.93659959013E+02  0.00000000000E+00 0.  1.
         21   -1    0    0  503  502 -0.00000000000E+00 -0.00000000000E+00 -0.17883164519E+03  0.17883164519E+03  0.00000000000E+00 0.  1.
         21    1    1    2  503  501  0.74040348015E+02  0.10596093912E+03 -0.49216544526E+02  0.13831833576E+03  0.00000000000E+00 0.  1.
         21    1    1    2  504  502 -0.74040348015E+02 -0.10596093912E+03 -0.35955141651E+02  0.13417326844E+03  0.00000000000E+00 0.  1.
<mgrwt>
<rscale>  2 0.12926598E+03</rscale>
<asrwt>0</asrwt>
<pdfrwt beam="1">  1       21 0.14409225E-01 0.12926598E+03</pdfrwt>
<pdfrwt beam="2">  1       21 0.27512560E-01 0.12926598E+03</pdfrwt>
<totfact> 0.53580911E+05</totfact>
</mgrwt>
</event>
<event>
 4    1  0.6052129E+003  0.1095743E+03  0.7546771E-02  0.1261360E+00
         21   -1    0    0  503  501  0.00000000000E+00  0.00000000000E+00  0.50298105785E+02  0.50298105785E+02  0.00000000000E+00 0. -1.
         21   -1    0    0  504  502 -0.00000000000E+00 -0.00000000000E+00 -0.45133998923E+03  0.45133998923E+03  0.00000000000E+00 0. -1.
         21    1    1    2  503  502  0.53877766591E+02 -0.95413357598E+02 -0.37267754037E+03  0.38845214845E+03  0.00000000000E+00 0. -1.
         21    1    1    2  504  501 -0.53877766591E+02  0.95413357598E+02 -0.28364343073E+02  0.11318594656E+03  0.00000000000E+00 0. -1.
<mgrwt>
<rscale>  2 0.10957428E+03</rscale>
<asrwt>0</asrwt>
<pdfrwt beam="1">  1       21 0.77381706E-02 0.10957428E+03</pdfrwt>
<pdfrwt beam="2">  1       21 0.69436917E-01 0.10957428E+03</pdfrwt>
<totfact> 0.24506296E+05</totfact>
</mgrwt>
</event>
<event>
 4    1  0.6052129E+003  0.1043678E+03  0.7546771E-02  0.1271370E+00
         21   -1    0    0  502  501  0.00000000000E+00  0.00000000000E+00  0.80834838133E+02  0.80834838133E+02  0.00000000000E+00 0.  1.
         21   -1    0    0  504  502 -0.00000000000E+00 -0.00000000000E+00 -0.13584268118E+03  0.13584268118E+03  0.00000000000E+00 0.  1.
         21    1    1    2  503  501  0.24530321434E+02  0.10144409755E+03 -0.37212382336E+02  0.11080344307E+03  0.00000000000E+00 0.  1.
         21    1    1    2  504  503 -0.24530321434E+02 -0.10144409755E+03 -0.17795460712E+02  0.10587407624E+03  0.00000000000E+00 0.  1.
<mgrwt>
<rscale>  2 0.10436782E+03</rscale>
<asrwt>0</asrwt>
<pdfrwt beam="1">  1       21 0.12436129E-01 0.10436782E+03</pdfrwt>
<pdfrwt beam="2">  1       21 0.20898874E-01 0.10436782E+03</pdfrwt>
<totfact> 0.11656209E+06</totfact>
</mgrwt>
</event>
<event>
 4    1  0.6052129E+003  0.1053881E+03  0.7546771E-02  0.1269357E+00
         21   -1    0    0  503  501  0.00000000000E+00  0.00000000000E+00  0.10631372713E+03  0.10631372713E+03  0.00000000000E+00 0. -1.
         21   -1    0    0  504  502 -0.00000000000E+00 -0.00000000000E+00 -0.10565249244E+03  0.10565249244E+03  0.00000000000E+00 0. -1.
         21    1    1    2  503  502 -0.61270987937E+02  0.85746763538E+02  0.11540882971E+02  0.10601808053E+03  0.00000000000E+00 0. -1.
         21    1    1    2  504  501  0.61270987937E+02 -0.85746763538E+02 -0.10879648276E+02  0.10594813904E+03  0.00000000000E+00 0. -1.
<mgrwt>
<rscale>  2 0.10538805E+03</rscale>
<asrwt>0</asrwt>
<pdfrwt beam="1">  1       21 0.16355958E-01 0.10538805E+03</pdfrwt>
<pdfrwt beam="2">  1       21 0.16254230E-01 0.10538805E+03</pdfrwt>
<totfact> 0.11306649E+06</totfact>
</mgrwt>
</event>
<event>
 4    1  0.6052129E+003  0.1032805E+03  0.7546771E-02  0.1273545E+00
         21   -1    0    0  504  501  0.00000000000E+00  0.00000000000E+00  0.17145804764E+03  0.17145804764E+03  0.00000000000E+00 0. -1.
         21   -1    0    0  503  502 -0.00000000000E+00 -0.00000000000E+00 -0.32777389780E+03  0.32777389780E+03  0.00000000000E+00 0. -1.
         21    1    1    2  503  501  0.86666087603E+02 -0.56176927729E+02 -0.30283954528E+03  0.31996663597E+03  0.00000000000E+00 0. -1.
         21    1    1    2  504  502 -0.86666087603E+02  0.56176927729E+02  0.14652369512E+03  0.17926530947E+03  0.00000000000E+00 0. -1.
<mgrwt>
<rscale>  2 0.10328048E+03</rscale>
<asrwt>0</asrwt>
<pdfrwt beam="1">  1       21 0.26378161E-01 0.10328048E+03</pdfrwt>
<pdfrwt beam="2">  1       21 0.50426754E-01 0.10328048E+03</pdfrwt>
<totfact> 0.53606140E+04</totfact>
</mgrwt>
</event>
<event>
 4    1  0.6052129E+003  0.1208488E+03  0.7546771E-02  0.1241703E+00
         21   -1    0    0  503  501  0.00000000000E+00  0.00000000000E+00  0.10923813717E+03  0.10923813717E+03  0.00000000000E+00 0.  1.
         21   -1    0    0  501  502 -0.00000000000E+00 -0.00000000000E+00 -0.31240102963E+03  0.31240102963E+03  0.00000000000E+00 0.  1.
         21    1    1    2  503  504  0.73868014471E+02  0.95644954716E+02  0.57869101095E+02  0.13398982717E+03  0.00000000000E+00 0.  1.
         21    1    1    2  504  502 -0.73868014471E+02 -0.95644954716E+02 -0.26103199356E+03  0.28764933962E+03  0.00000000000E+00 0.  1.
<mgrwt>
<rscale>  2 0.12084884E+03</rscale>
<asrwt>0</asrwt>
<pdfrwt beam="1">  1       21 0.16805868E-01 0.12084884E+03</pdfrwt>
<pdfrwt beam="2">  1       21 0.48061696E-01 0.12084884E+03</pdfrwt>
<totfact> 0.13509450E+05</totfact>
</mgrwt>
</event>
<event>
 4    1  0.6052129E+003  0.1035934E+03  0.7546771E-02  0.1272916E+00
         21   -1    0    0  504  501  0.00000000000E+00  0.00000000000E+00  0.15694868519E+03  0.15694868519E+03  0.00000000000E+00 0. -1.
         21   -1    0    0  503  502 -0.00000000000E+00 -0.00000000000E+00 -0.15779645027E+03  0.15779645027E+03  0.00000000000E+00 0. -1.
         21    1    1    2  503  501 -0.87839319083E+02  0.54916801736E+02  0.11804318515E+03  0.15705347704E+03  0.00000000000E+00 0. -1.
         21    1    1    2  504  502  0.87839319083E+02 -0.54916801736E+02 -0.11889095023E+03  0.15769165842E+03  0.00000000000E+00 0. -1.
<mgrwt>
<rscale>  2 0.10359344E+03</rscale>
<asrwt>0</asrwt>
<pdfrwt beam="1">  1       21 0.24145952E-01 0.10359344E+03</pdfrwt>
<pdfrwt beam="2">  1       21 0.24276377E-01 0.10359344E+03</pdfrwt>
<totfact> 0.26444537E+05</totfact>
</mgrwt>
</event>
<event>
 4    1  0.6052129E+003  0.1122174E+03  0.7546771E-02  0.1256518E+00
         21   -1    0    0  502  501  0.00000000000E+00  0.00000000000E+00  0.21739281520E+03  0.21739281520E+03  0.00000000000E+00 0. -1.
         21   -1    0    0  504  502 -0.00000000000E+00 -0.00000000000E+00 -0.69916770423E+02  0.69916770423E+02  0.00000000000E+00 0. -1.
         21    1    1    2  503  501 -0.90483014304E+02 -0.66374479245E+02  0.13322867356E+03  0.17419135120E+03  0.00000000000E+00 0. -1.
         21    1    1    2  504  503  0.90483014304E+02  0.66374479245E+02  0.14247371212E+02  0.11311823442E+03  0.00000000000E+00 0. -1.
<mgrwt>
<rscale>  2 0.11221741E+03</rscale>
<asrwt>0</asrwt>
<pdfrwt beam="1">  1       21 0.33445048E-01 0.11221741E+03</pdfrwt>
<pdfrwt beam="2">  1       21 0.10756426E-01 0.11221741E+03</pdfrwt>
<totfact> 0.61803325E+05</totfact>
</mgrwt>
</event>
<event>
 4    1  0.6052129E+003  0.1443750E+03  0.7546771E-02  0.1207560E+00
         21   -1    0    0  502  501  0.00000000000E+00  0.00000000000E+00  0.52558878700E+02  0.52558878700E+02  0.00000000000E+00 0.  1.
         21   -1    0    0  503  502 -0.00000000000E+00 -0.00000000000E+00 -0.45039904556E+03  0.45039904556E+03  0.00000000000E+00 0.  1.
         21    1    1    2  503  504  0.10581662897E+03 -0.98218992657E+02 -0.28584527135E+03  0.32023686333E+03  0.00000000000E+00 0.  1.
         21    1    1    2  504  501 -0.10581662897E+03  0.98218992657E+02 -0.11199489551E+03  0.18272106093E+03  0.00000000000E+00 0.  1.
<mgrwt>
<rscale>  2 0.14437496E+03</rscale>
<asrwt>0</asrwt>
<pdfrwt beam="1">  1       21 0.80859810E-02 0.14437496E+03</pdfrwt>
<pdfrwt beam="2">  1       21 0.69292164E-01 0.14437496E+03</pdfrwt>
<totfact> 0.22620025E+05</totfact>
</mgrwt>
</event>
<event>
 4    1  0.6052129E+003  0.1516733E+03  0.7546771E-02  0.1198432E+00
         21   -1    0    0  502  501  0.00000000000E+00  0.00000000000E+00  0.45650595373E+02  0.45650595373E+02  0.00000000000E+00 0.  1.
         21   -1    0    0  504  502 -0.00000000000E+00 -0.00000000000E+00 -0.52315537395E+03  0.52315537395E+03  0.00000000000E+00 0.  1.
         21    1    1    2  503  501 -0.14179162959E+03  0.53851028792E+02 -0.18423529539E+03  0.23863663505E+03  0.00000000000E+00 0.  1.
         21    1    1    2  504  503  0.14179162959E+03 -0.53851028792E+02 -0.29326948320E+03  0.33016933428E+03  0.00000000000E+00 0.  1.
<mgrwt>
<rscale>  2 0.15167333E+03</rscale>
<asrwt>0</asrwt>
<pdfrwt beam="1">  1       21 0.70231685E-02 0.15167333E+03</pdfrwt>
<pdfrwt beam="2">  1       21 0.80485442E-01 0.15167333E+03</pdfrwt>
<totfact> 0.20660798E+05</totfact>
</mgrwt>
</event>
<event>
 4    1  0.6052129E+003  0.1015073E+03  0.7546771E-02  0.1277158E+00
         21   -1    0    0  503  501  0.00000000000E+00  0.00000000000E+00  0.11102868142E+03  0.11102868142E+03  0.00000000000E+00 0. -1.
         21   -1    0    0  504  502 -0.00000000000E+00 -0.00000000000E+00 -0.17216097211E+03  0.17216097211E+03  0.00000000000E+00 0. -1.
         21    1    1    2  503  502  0.94852408152E+02 -0.36149083304E+02  0.65567801348E+02  0.12084234411E+03  0.00000000000E+00 0. -1.
         21    1    1    2  504  501 -0.94852408152E+02  0.36149083304E+02 -0.12670009204E+03  0.16234730943E+03  0.00000000000E+00 0. -1.
<mgrwt>
<rscale>  2 0.10150732E+03</rscale>
<asrwt>0</asrwt>
<pdfrwt beam="1">  1       21 0.17081336E-01 0.10150732E+03</pdfrwt>
<pdfrwt beam="2">  1       21 0.26486303E-01 0.10150732E+03</pdfrwt>
<totfact> 0.42456375E+05</totfact>
</mgrwt>
</event>
<event>
 4    1  0.6052129E+003  0.1951783E+03  0.7546771E-02  0.1153872E+00
         21   -1    0    0  504  501  0.00000000000E+00  0.00000000000E+00  0.54868190405E+03  0.54868190405E+03  0.00000000000E+00 0. -1.
         21   -1    0    0  503  502 -0.00000000000E+00 -0.00000000000E+00 -0.74586351624E+02  0.74586351624E+02  0.00000000000E+00 0. -1.
         21    1    1    2  503  501  0.10170919277E+03  0.16658270477E+03  0.31899219459E+03  0.37396601133E+03  0.00000000000E+00 0. -1.
         21    1    1    2  504  502 -0.10170919277E+03 -0.16658270477E+03  0.15510335783E+03  0.24930224434E+03  0.00000000000E+00 0. -1.
<mgrwt>
<rscale>  2 0.19517827E+03</rscale>
<asrwt>0</asrwt>
<pdfrwt beam="1">  1       21 0.84412598E-01 0.19517827E+03</pdfrwt>
<pdfrwt beam="2">  1       21 0.11474824E-01 0.19517827E+03</pdfrwt>
<totfact> 0.77299400E+04</totfact>
</mgrwt>
</event>
<event>
 4    1  0.6052129E+003  0.1069002E+03  0.7546771E-02  0.1266420E+00
         21   -1    0    0  504  501  0.00000000000E+00  0.00000000000E+00  0.51512683765E+02  0.51512683765E+02  0.00000000000E+00 0.  1.
         21   -1    0    0  503  502 -0.00000000000E+00 -0.00000000000E+00 -0.25148900686E+04  0.25148900686E+04  0.00000000000E+00 0.  1.
         21    1    1    2  503  501  0.98822556042E+02 -0.40764600698E+02 -0.24569873057E+04  0.24593117474E+04  0.00000000000E+00 0.  1.
         21    1    1    2  504  502 -0.98822556042E+02  0.40764600698E+02 -0.63900791732E+01  0.10709100506E+03  0.00000000000E+00 0.  1.
<mgrwt>
<rscale>  2 0.10690019E+03</rscale>
<asrwt>0</asrwt>
<pdfrwt beam="1">  1       21 0.79250269E-02 0.10690019E+03</pdfrwt>
<pdfrwt beam="2">  1       21 0.38690623E+00 0.10690019E+03</pdfrwt>
<totfact> 0.15144522E+03</totfact>
</mgrwt>
</event>
<event>
 4    1  0.6052129E+003  0.1190409E+03  0.7546771E-02  0.1244688E+00
         21   -1    0    0  504  501  0.00000000000E+00  0.00000000000E+00  0.19090627545E+04  0.19090627545E+04  0.00000000000E+00 0.  1.
         21   -1    0    0  503  502 -0.00000000000E+00 -0.00000000000E+00 -0.10719617817E+03  0.10719617817E+03  0.00000000000E+00 0. -1.
         21    1    1    2  503  501 -0.97172899825E+02  0.68761709447E+02  0.18735322925E+04  0.18773103090E+04  0.00000000000E+00 0.  1.
         21    1    1    2  504  502  0.97172899825E+02 -0.68761709447E+02 -0.71665716186E+02  0.13894862368E+03  0.00000000000E+00 0. -1.
<mgrwt>
<rscale>  2 0.11904094E+03</rscale>
<asrwt>0</asrwt>
<pdfrwt beam="1">  1       21 0.29370194E+00 0.11904094E+03</pdfrwt>
<pdfrwt beam="2">  1       21 0.16491721E-01 0.11904094E+03</pdfrwt>
<totfact> 0.13779101E+03</totfact>
</mgrwt>
</event>
<event>
 4    1  0.6052129E+003  0.1226438E+03  0.7546771E-02  0.1238798E+00
         21   -1    0    0  503  501  0.00000000000E+00  0.00000000000E+00  0.44133969971E+02  0.44133969971E+02  0.00000000000E+00 0.  1.
         21   -1    0    0  504  502 -0.00000000000E+00 -0.00000000000E+00 -0.93496376699E+03  0.93496376699E+03  0.00000000000E+00 0.  1.
         21    1    1    2  503  502  0.88098618941E+02 -0.85323706736E+02 -0.55161759728E+02  0.13447795852E+03  0.00000000000E+00 0.  1.
         21    1    1    2  504  501 -0.88098618941E+02  0.85323706736E+02 -0.83566803729E+03  0.84461977844E+03  0.00000000000E+00 0.  1.
<mgrwt>
<rscale>  2 0.12264380E+03</rscale>
<asrwt>0</asrwt>
<pdfrwt beam="1">  1       21 0.67898417E-02 0.12264380E+03</pdfrwt>
<pdfrwt beam="2">  1       21 0.14384058E+00 0.12264380E+03</pdfrwt>
<totfact> 0.55411483E+04</totfact>
</mgrwt>
</event>
<event>
 4    1  0.6052129E+003  0.1029562E+03  0.7546771E-02  0.1274199E+00
         21   -1    0    0  503  501  0.00000000000E+00  0.00000000000E+00  0.60111061712E+01  0.60111061712E+01  0.00000000000E+00 0. -1.
         21   -1    0    0  501  502 -0.00000000000E+00 -0.00000000000E+00 -0.24017566807E+04  0.24017566807E+04  0.00000000000E+00 0. -1.
         21    1    1    2  503  504 -0.81583266288E+02  0.62802484485E+02 -0.57721531701E+03  0.58632542465E+03  0.00000000000E+00 0. -1.
         21    1    1    2  504  502  0.81583266288E+02 -0.62802484485E+02 -0.18185302575E+04  0.18214423622E+04  0.00000000000E+00 0. -1.
<mgrwt>
<rscale>  2 0.10295621E+03</rscale>
<asrwt>0</asrwt>
<pdfrwt beam="1">  1       21 0.92478458E-03 0.10295621E+03</pdfrwt>
<pdfrwt beam="2">  1       21 0.36950142E+00 0.10295621E+03</pdfrwt>
<totfact> 0.64115048E+04</totfact>
</mgrwt>
</event>
<event>
 4    1  0.6052129E+003  0.1229394E+03  0.7546771E-02  0.1238325E+00
         21   -1    0    0  502  501  0.00000000000E+00  0.00000000000E+00  0.38743948335E+04  0.38743948335E+04  0.00000000000E+00 0. -1.
         21   -1    0    0  504  502 -0.00000000000E+00 -0.00000000000E+00 -0.73492758278E+01  0.73492758278E+01  0.00000000000E+00 0. -1.
         21    1    1    2  503  501 -0.87547330218E+02 -0.86310891989E+02  0.32629793513E+04  0.32652945277E+04  0.00000000000E+00 0. -1.
         21    1    1    2  504  503  0.87547330218E+02  0.86310891989E+02  0.60406620634E+03  0.61644958167E+03  0.00000000000E+00 0. -1.
<mgrwt>
<rscale>  2 0.12293944E+03</rscale>
<asrwt>0</asrwt>
<pdfrwt beam="1">  1       21 0.59605911E+00 0.12293944E+03</pdfrwt>
<pdfrwt beam="2">  1       21 0.11306609E-02 0.12293944E+03</pdfrwt>
<totfact> 0.12853310E+03</totfact>
</mgrwt>
</event>
<event>
 4    1  0.6052129E+003  0.1068499E+03  0.7546771E-02  0.1266517E+00
         21   -1    0    0  503  501  0.00000000000E+00  0.00000000000E+00  0.45585677462E+03  0.45585677462E+03  0.00000000000E+00 0.  1.
         21   -1    0    0  501  502 -0.00000000000E+00 -0.00000000000E+00 -0.41581884568E+02  0.41581884568E+02  0.00000000000E+00 0. -1.
         21    1    1    2  503  504  0.69614875917E+02  0.81059631423E+02  0.36398776170E+03  0.37934678786E+03  0.00000000000E+00 0.  1.
         21    1    1    2  504  502 -0.69614875917E+02 -0.81059631423E+02  0.50287128356E+02  0.11809187133E+03  0.00000000000E+00 0. -1.
<mgrwt>
<rscale>  2 0.10684987E+03</rscale>
<asrwt>0</asrwt>
<pdfrwt beam="1">  1       21 0.70131808E-01 0.10684987E+03</pdfrwt>
<pdfrwt beam="2">  1       21 0.63972133E-02 0.10684987E+03</pdfrwt>
<totfact> 0.33185733E+05</totfact>
</mgrwt>
</event>
<event>
 4    1  0.6052129E+003  0.1234510E+03  0.7546771E-02  0.1237510E+00
         21   -1    0    0  504  501  0.00000000000E+00  0.00000000000E+00  0.12643037165E+02  0.12643037165E+02  0.00000000000E+00 0. -1.
         21   -1    0    0  503  502 -0.00000000000E+00 -0.00000000000E+00 -0.12943933920E+04  0.12943933920E+04  0.00000000000E+00 0. -1.
         21    1    1    2  503  501  0.52226161459E+02 -0.11185959634E+03 -0.46953462907E+03  0.48549243983E+03  0.00000000000E+00 0. -1.
         21    1    1    2  504  502 -0.52226161459E+02  0.11185959634E+03 -0.81221572580E+03  0.82154398937E+03  0.00000000000E+00 0. -1.
<mgrwt>
<rscale>  2 0.12345097E+03</rscale>
<asrwt>0</asrwt>
<pdfrwt beam="1">  1       21 0.19450816E-02 0.12345097E+03</pdfrwt>
<pdfrwt beam="2">  1       21 0.19913756E+00 0.12345097E+03</pdfrwt>
<totfact> 0.18179191E+05</totfact>
</mgrwt>
</event>
<event>
 4    1  0.6052129E+003  0.1189407E+03  0.7546771E-02  0.1244855E+00
         21   -1    0    0  502  501  0.00000000000E+00  0.00000000000E+00  0.73542132306E+02  0.73542132306E+02  0.00000000000E+00 0.  1.
         21   -1    0    0  504  502 -0.00000000000E+00 -0.00000000000E+00 -0.19978424769E+03  0.19978424769E+03  0.00000000000E+00 0.  1.
         21    1    1    2  503  501 -0.25303130343E+02 -0.11621803582E+03 -0.36783738213E+02  0.12449868936E+03  0.00000000000E+00 0.  1.
         21    1    1    2  504  503  0.25303130343E+02  0.11621803582E+03 -0.89458377167E+02  0.14882769064E+03  0.00000000000E+00 0.  1.
<mgrwt>
<rscale>  2 0.11894066E+03</rscale>
<asrwt>0</asrwt>
<pdfrwt beam="1">  1       21 0.11314174E-01 0.11894066E+03</pdfrwt>
<pdfrwt beam="2">  1       21 0.30736037E-01 0.11894066E+03</pdfrwt>
<totfact> 0.66604627E+05</totfact>
</mgrwt>
</event>
<event>
 4    1  0.6052129E+003  0.1189322E+03  0.7546771E-02  0.1244869E+00
         21   -1    0    0  503  501  0.00000000000E+00  0.00000000000E+00  0.13706198953E+04  0.13706198953E+04  0.00000000000E+00 0. -1.
         21   -1    0    0  504  502 -0.00000000000E+00 -0.00000000000E+00 -0.10339122157E+02  0.10339122157E+02  0.00000000000E+00 0.  1.
         21    1    1    2  503  502 -0.12461004041E+02  0.11827764436E+03  0.65049140621E+03  0.66127448713E+03  0.00000000000E+00 0.  1.
         21    1    1    2  504  501  0.12461004041E+02 -0.11827764436E+03  0.70978936692E+03  0.71968453032E+03  0.00000000000E+00 0. -1.
<mgrwt>
<rscale>  2 0.11893224E+03</rscale>
<asrwt>0</asrwt>
<pdfrwt beam="1">  1       21 0.21086445E+00 0.11893224E+03</pdfrwt>
<pdfrwt beam="2">  1       21 0.15906353E-02 0.11893224E+03</pdfrwt>
<totfact> 0.21300935E+05</totfact>
</mgrwt>
</event>
<event>
 4    1  0.6052129E+003  0.1081798E+03  0.7546771E-02  0.1263978E+00
         21   -1    0    0  503  501  0.00000000000E+00  0.00000000000E+00  0.63903453059E+03  0.63903453059E+03  0.00000000000E+00 0. -1.
         21   -1    0    0  504  502 -0.00000000000E+00 -0.00000000000E+00 -0.22325768552E+02  0.22325768552E+02  0.00000000000E+00 0.  1.
         21    1    1    2  503  502 -0.92397390999E+02  0.56263608364E+02  0.44854124287E+03  0.46140233858E+03  0.00000000000E+00 0. -1.
         21    1    1    2  504  501  0.92397390999E+02 -0.56263608364E+02  0.16816751917E+03  0.19995796056E+03  0.00000000000E+00 0.  1.
<mgrwt>
<rscale>  2 0.10817981E+03</rscale>
<asrwt>0</asrwt>
<pdfrwt beam="1">  1       21 0.98312991E-01 0.10817981E+03</pdfrwt>
<pdfrwt beam="2">  1       21 0.34347341E-02 0.10817981E+03</pdfrwt>
<totfact> 0.43916900E+05</totfact>
</mgrwt>
</event>
<event>
 4    1  0.6052129E+003  0.1246724E+03  0.7546771E-02  0.1235582E+00
         21   -1    0    0  504  501  0.00000000000E+00  0.00000000000E+00  0.84304986346E+02  0.84304986346E+02  0.00000000000E+00 0. -1.
         21   -1    0    0  503  502 -0.00000000000E+00 -0.00000000000E+00 -0.58258226006E+03  0.58258226006E+03  0.00000000000E+00 0.  1.
         21    1    1    2  503  501 -0.86087545202E+02 -0.90178404607E+02  0.26539135107E+02  0.12746582204E+03  0.00000000000E+00 0. -1.
         21    1    1    2  504  502  0.86087545202E+02  0.90178404607E+02 -0.52481640882E+03  0.53942142437E+03  0.00000000000E+00 0.  1.
<mgrwt>
<rscale>  2 0.12467241E+03</rscale>
<asrwt>0</asrwt>
<pdfrwt beam="1">  1       21 0.12969998E-01 0.12467241E+03</pdfrwt>
<pdfrwt beam="2">  1       21 0.89628040E-01 0.12467241E+03</pdfrwt>
<totfact> 0.56046062E+04</totfact>
</mgrwt>
</event>
<event>
 4    1  0.6052129E+003  0.1459299E+03  0.7546771E-02  0.1205565E+00
         21   -1    0    0  504  501  0.00000000000E+00  0.00000000000E+00  0.77125391957E+02  0.77125391957E+02  0.00000000000E+00 0.  1.
         21   -1    0    0  503  502 -0.00000000000E+00 -0.00000000000E+00 -0.38748990961E+03  0.38748990961E+03  0.00000000000E+00 0.  1.
         21    1    1    2  503  501 -0.14182634195E+03  0.34363073019E+02 -0.30637453050E+02  0.14911131945E+03  0.00000000000E+00 0.  1.
         21    1    1    2  504  502  0.14182634195E+03 -0.34363073019E+02 -0.27972706460E+03  0.31550398211E+03  0.00000000000E+00 0.  1.
<mgrwt>
<rscale>  2 0.14592989E+03</rscale>
<asrwt>0</asrwt>
<pdfrwt beam="1">  1       21 0.11865445E-01 0.14592989E+03</pdfrwt>
<pdfrwt beam="2">  1       21 0.59613831E-01 0.14592989E+03</pdfrwt>
<totfact> 0.15970310E+05</totfact>
</mgrwt>
</event>
<event>
 4    1  0.6052129E+003  0.1039707E+03  0.7546771E-02  0.1272161E+00
         21   -1    0    0  503  501  0.00000000000E+00  0.00000000000E+00  0.90958070580E+02  0.90958070580E+02  0.00000000000E+00 0. -1.
         21   -1    0    0  504  502 -0.00000000000E+00 -0.00000000000E+00 -0.12512951600E+03  0.12512951600E+03  0.00000000000E+00 0. -1.
         21    1    1    2  503  502  0.14258330715E+02  0.10298834122E+03  0.71279673036E+01  0.10421471269E+03  0.00000000000E+00 0. -1.
         21    1    1    2  504  501 -0.14258330715E+02 -0.10298834122E+03 -0.41299412727E+02  0.11187287390E+03  0.00000000000E+00 0. -1.
<mgrwt>
<rscale>  2 0.10397066E+03</rscale>
<asrwt>0</asrwt>
<pdfrwt beam="1">  1       21 0.13993549E-01 0.10397066E+03</pdfrwt>
<pdfrwt beam="2">  1       21 0.19250695E-01 0.10397066E+03</pdfrwt>
<totfact> 0.10995131E+06</totfact>
</mgrwt>
</event>
<event>
 4    1  0.6052129E+003  0.1119046E+03  0.7546771E-02  0.1257083E+00
         21   -1    0    0  503  501  0.00000000000E+00  0.00000000000E+00  0.10941021543E+02  0.10941021543E+02  0.00000000000E+00 0.  1.
         21   -1    0    0  501  502 -0.00000000000E+00 -0.00000000000E+00 -0.13540062833E+04  0.13540062833E+04  0.00000000000E+00 0.  1.
         21    1    1    2  503  504  0.68493673730E+02  0.88494371615E+02 -0.40311339917E+03  0.41835756207E+03  0.00000000000E+00 0.  1.
         21    1    1    2  504  502 -0.68493673730E+02 -0.88494371615E+02 -0.93995186255E+03  0.94658974273E+03  0.00000000000E+00 0.  1.
<mgrwt>
<rscale>  2 0.11190459E+03</rscale>
<asrwt>0</asrwt>
<pdfrwt beam="1">  1       21 0.16832357E-02 0.11190459E+03</pdfrwt>
<pdfrwt beam="2">  1       21 0.20830846E+00 0.11190459E+03</pdfrwt>
<totfact> 0.20262299E+05</totfact>
</mgrwt>
</event>
<event>
 4    1  0.6052129E+003  0.1562085E+03  0.7546771E-02  0.1193045E+00
         21   -1    0    0  504  501  0.00000000000E+00  0.00000000000E+00  0.21154574111E+03  0.21154574111E+03  0.00000000000E+00 0.  1.
         21   -1    0    0  503  502 -0.00000000000E+00 -0.00000000000E+00 -0.13147319068E+03  0.13147319068E+03  0.00000000000E+00 0.  1.
         21    1    1    2  503  501 -0.63576297761E+02 -0.14268547549E+03 -0.20031317712E+02  0.15748760028E+03  0.00000000000E+00 0.  1.
         21    1    1    2  504  502  0.63576297761E+02  0.14268547549E+03  0.10010386814E+03  0.18553133150E+03  0.00000000000E+00 0.  1.
<mgrwt>
<rscale>  2 0.15620848E+03</rscale>
<asrwt>0</asrwt>
<pdfrwt beam="1">  1       21 0.32545498E-01 0.15620848E+03</pdfrwt>
<pdfrwt beam="2">  1       21 0.20226645E-01 0.15620848E+03</pdfrwt>
<totfact> 0.20748324E+05</totfact>
</mgrwt>
</event>
<event>
 4    1  0.6052129E+003  0.1080745E+03  0.7546771E-02  0.1264178E+00
         21   -1    0    0  502  501  0.00000000000E+00  0.00000000000E+00  0.33602314011E+02  0.33602314011E+02  0.00000000000E+00 0.  1.
         21   -1    0    0  504  502 -0.00000000000E+00 -0.00000000000E+00 -0.13321496862E+04  0.13321496862E+04  0.00000000000E+00 0. -1.
         21    1    1    2  503  501 -0.37336060740E+02  0.10142045126E+03 -0.62210770146E+02  0.12470071887E+03  0.00000000000E+00 0.  1.
         21    1    1    2  504  503  0.37336060740E+02 -0.10142045126E+03 -0.12363366021E+04  0.12410512814E+04  0.00000000000E+00 0. -1.
<mgrwt>
<rscale>  2 0.10807446E+03</rscale>
<asrwt>0</asrwt>
<pdfrwt beam="1">  1       21 0.51695879E-02 0.10807446E+03</pdfrwt>
<pdfrwt beam="2">  1       21 0.20494606E+00 0.10807446E+03</pdfrwt>
<totfact> 0.34082844E+04</totfact>
</mgrwt>
</event>
<event>
 4    1  0.6052129E+003  0.1456006E+03  0.7546771E-02  0.1205986E+00
         21   -1    0    0  503  501  0.00000000000E+00  0.00000000000E+00  0.13352697140E+03  0.13352697140E+03  0.00000000000E+00 0.  1.
         21   -1    0    0  504  502 -0.00000000000E+00 -0.00000000000E+00 -0.16056672660E+03  0.16056672660E+03  0.00000000000E+00 0.  1.
         21    1    1    2  503  502  0.10876810922E+03 -0.96793759128E+02 -0.29092460184E+02  0.14847863358E+03  0.00000000000E+00 0.  1.
         21    1    1    2  504  501 -0.10876810922E+03  0.96793759128E+02  0.20527049924E+01  0.14561506442E+03  0.00000000000E+00 0.  1.
<mgrwt>
<rscale>  2 0.14560060E+03</rscale>
<asrwt>0</asrwt>
<pdfrwt beam="1">  1       21 0.20542611E-01 0.14560060E+03</pdfrwt>
<pdfrwt beam="2">  1       21 0.24702573E-01 0.14560060E+03</pdfrwt>
<totfact> 0.34339578E+05</totfact>
</mgrwt>
</event>
<event>
 4    1  0.6052129E+003  0.1235302E+03  0.7546771E-02  0.1237384E+00
         21   -1    0    0  502  501  0.00000000000E+00  0.00000000000E+00  0.23507632628E+03  0.23507632628E+03  0.00000000000E+00 0. -1.
         21   -1    0    0  503  502 -0.00000000000E+00 -0.00000000000E+00 -0.67265929830E+02  0.67265929830E+02  0.00000000000E+00 0. -1.
         21    1    1    2  503  504 -0.95017374368E+01 -0.12316420897E+03  0.55636951230E+02  0.13548127446E+03  0.00000000000E+00 0. -1.
         21    1    1    2  504  501  0.95017374368E+01  0.12316420897E+03  0.11217344522E+03  0.16686098166E+03  0.00000000000E+00 0. -1.
<mgrwt>
<rscale>  2 0.12353018E+03</rscale>
<asrwt>0</asrwt>
<pdfrwt beam="1">  1       21 0.36165588E-01 0.12353018E+03</pdfrwt>
<pdfrwt beam="2">  1       21 0.10348605E-01 0.12353018E+03</pdfrwt>
<totfact> 0.56720162E+05</totfact>
</mgrwt>
</event>
<event>
 4    1  0.6052129E+003  0.1018960E+03  0.7546771E-02  0.1276359E+00
         21   -1    0    0  503  501  0.00000000000E+00  0.00000000000E+00  0.15658456211E+02  0.15658456211E+02  0.00000000000E+00 0. -1.
         21   -1    0    0  501  502 -0.00000000000E+00 -0.00000000000E+00 -0.84469198837E+03  0.84469198837E+03  0.00000000000E+00 0. -1.
         21    1    1    2  503  504 -0.97457581894E+02 -0.29745975043E+02 -0.21505075295E+03  0.23796980826E+03  0.00000000000E+00 0. -1.
         21    1    1    2  504  502  0.97457581894E+02  0.29745975043E+02 -0.61398277921E+03  0.62238063632E+03  0.00000000000E+00 0. -1.
<mgrwt>
<rscale>  2 0.10189604E+03</rscale>
<asrwt>0</asrwt>
<pdfrwt beam="1">  1       21 0.24089931E-02 0.10189604E+03</pdfrwt>
<pdfrwt beam="2">  1       21 0.12995262E+00 0.10189604E+03</pdfrwt>
<totfact> 0.40235146E+05</totfact>
</mgrwt>
</event>
<event>
 4    1  0.6052129E+003  0.1408602E+03  0.7546771E-02  0.1212176E+00
         21   -1    0    0  504  501  0.00000000000E+00  0.00000000000E+00  0.50480613301E+02  0.50480613301E+02  0.00000000000E+00 0. -1.
         21   -1    0    0  503  502 -0.00000000000E+00 -0.00000000000E+00 -0.40113625288E+03  0.40113625288E+03  0.00000000000E+00 0. -1.
         21    1    1    2  503  501 -0.54323411609E+02  0.12996370142E+03 -0.20738061221E+03  0.25069566222E+03  0.00000000000E+00 0. -1.
         21    1    1    2  504  502  0.54323411609E+02 -0.12996370142E+03 -0.14327502737E+03  0.20092120397E+03  0.00000000000E+00 0. -1.
<mgrwt>
<rscale>  2 0.14086020E+03</rscale>
<asrwt>0</asrwt>
<pdfrwt beam="1">  1       21 0.77662481E-02 0.14086020E+03</pdfrwt>
<pdfrwt beam="2">  1       21 0.61713270E-01 0.14086020E+03</pdfrwt>
<totfact> 0.31174712E+05</totfact>
</mgrwt>
</event>
<event>
 4    1  0.6052129E+003  0.1174851E+03  0.7546771E-02  0.1247304E+00
         21   -1    0    0  504  501  0.00000000000E+00  0.00000000000E+00  0.66148770092E+02  0.66148770092E+02  0.00000000000E+00 0.  1.
         21   -1    0    0  503  502 -0.00000000000E+00 -0.00000000000E+00 -0.25113984014E+03  0.25113984014E+03  0.00000000000E+00 0.  1.
         21    1    1    2  503  501 -0.29879097895E+02  0.11362212038E+03 -0.15774049374E+03  0.19668454463E+03  0.00000000000E+00 0.  1.
         21    1    1    2  504  502  0.29879097895E+02 -0.11362212038E+03 -0.27250576300E+02  0.12060406560E+03  0.00000000000E+00 0.  1.
<mgrwt>
<rscale>  2 0.11748509E+03</rscale>
<asrwt>0</asrwt>
<pdfrwt beam="1">  1       21 0.10176734E-01 0.11748509E+03</pdfrwt>
<pdfrwt beam="2">  1       21 0.38636899E-01 0.11748509E+03</pdfrwt>
<totfact> 0.51269835E+05</totfact>
</mgrwt>
</event>
<event>
 4    1  0.6052129E+003  0.1077815E+03  0.7546771E-02  0.1264734E+00
         21   -1    0    0  504  501  0.00000000000E+00  0.00000000000E+00  0.22796993809E+02  0.22796993809E+02  0.00000000000E+00 0.  1.
         21   -1    0    0  503  502 -0.00000000000E+00 -0.00000000000E+00 -0.51564397627E+03  0.51564397627E+03  0.00000000000E+00 0.  1.
         21    1    1    2  503  501 -0.10777752458E+03  0.92673517044E+00 -0.21722420190E+03  0.24249372679E+03  0.00000000000E+00 0.  1.
         21    1    1    2  504  502  0.10777752458E+03 -0.92673517044E+00 -0.27562278056E+03  0.29594724329E+03  0.00000000000E+00 0.  1.
<mgrwt>
<rscale>  2 0.10778151E+03</rscale>
<asrwt>0</asrwt>
<pdfrwt beam="1">  1       21 0.35072298E-02 0.10778151E+03</pdfrwt>
<pdfrwt beam="2">  1       21 0.79329843E-01 0.10778151E+03</pdfrwt>
<totfact> 0.68999645E+05</totfact>
</mgrwt>
</event>
<event>
 4    1  0.6052129E+003  0.1669126E+03  0.7546771E-02  0.1181106E+00
         21   -1    0    0  503  501  0.00000000000E+00  0.00000000000E+00  0.89837520717E+03  0.89837520717E+03  0.00000000000E+00 0. -1.
         21   -1    0    0  504  502 -0.00000000000E+00 -0.00000000000E+00 -0.55210268147E+02  0.55210268147E+02  0.00000000000E+00 0.  1.
         21    1    1    2  503  502 -0.80097880593E+02  0.14643818930E+03  0.10592372790E+03  0.19768573518E+03  0.00000000000E+00 0.  1.
         21    1    1    2  504  501  0.80097880593E+02 -0.14643818930E+03  0.73724121113E+03  0.75589974014E+03  0.00000000000E+00 0. -1.
<mgrwt>
<rscale>  2 0.16691259E+03</rscale>
<asrwt>0</asrwt>
<pdfrwt beam="1">  1       21 0.13821156E+00 0.16691259E+03</pdfrwt>
<pdfrwt beam="2">  1       21 0.84938881E-02 0.16691259E+03</pdfrwt>
<totfact> 0.40594000E+04</totfact>
</mgrwt>
</event>
<event>
 4    1  0.6052129E+003  0.1083209E+03  0.7546771E-02  0.1263711E+00
         21   -1    0    0  503  501  0.00000000000E+00  0.00000000000E+00  0.42862829538E+03  0.42862829538E+03  0.00000000000E+00 0. -1.
         21   -1    0    0  501  502 -0.00000000000E+00 -0.00000000000E+00 -0.34104656289E+02  0.34104656289E+02  0.00000000000E+00 0. -1.
         21    1    1    2  503  504  0.62537375444E+02  0.88444915265E+02  0.30004229018E+03  0.31899655525E+03  0.00000000000E+00 0. -1.
         21    1    1    2  504  502 -0.62537375444E+02 -0.88444915265E+02  0.94481348908E+02  0.14373639642E+03  0.00000000000E+00 0. -1.
<mgrwt>
<rscale>  2 0.10832094E+03</rscale>
<asrwt>0</asrwt>
<pdfrwt beam="1">  1       21 0.65942811E-01 0.10832094E+03</pdfrwt>
<pdfrwt beam="2">  1       21 0.52468705E-02 0.10832094E+03</pdfrwt>
<totfact> 0.52921534E+05</totfact>
</mgrwt>
</event>
<event>
 4    1  0.6052129E+003  0.1103848E+03  0.7546771E-02  0.1259859E+00
         21   -1    0    0  503  501  0.00000000000E+00  0.00000000000E+00  0.13028925361E+03  0.13028925361E+03  0.00000000000E+00 0.  1.
         21   -1    0    0  504  502 -0.00000000000E+00 -0.00000000000E+00 -0.16792987313E+03  0.16792987313E+03  0.00000000000E+00 0.  1.
         21    1    1    2  503  502 -0.33230939289E+01  0.11033472175E+03 -0.11807558603E+03  0.16163736509E+03  0.00000000000E+00 0.  1.
         21    1    1    2  504  501  0.33230939289E+01 -0.11033472175E+03  0.80434966518E+02  0.13658176165E+03  0.00000000000E+00 0.  1.
<mgrwt>
<rscale>  2 0.11038475E+03</rscale>
<asrwt>0</asrwt>
<pdfrwt beam="1">  1       21 0.20044501E-01 0.11038475E+03</pdfrwt>
<pdfrwt beam="2">  1       21 0.25835365E-01 0.11038475E+03</pdfrwt>
<totfact> 0.33196499E+05</totfact>
</mgrwt>
</event>
<event>
 4    1  0.6052129E+003  0.1604581E+03  0.7546771E-02  0.1188181E+00
         21   -1    0    0  502  501  0.00000000000E+00  0.00000000000E+00  0.67012170800E+02  0.67012170800E+02  0.00000000000E+00 0. -1.
         21   -1    0    0  504  502 -0.00000000000E+00 -0.00000000000E+00 -0.70502718758E+03  0.70502718758E+03  0.00000000000E+00 0.  1.
         21    1    1    2  503  501  0.12909716206E+03 -0.95292871247E+02 -0.58611275993E+02  0.17082766239E+03  0.00000000000E+00 0. -1.
         21    1    1    2  504  503 -0.12909716206E+03  0.95292871247E+02 -0.57940374079E+03  0.60121169600E+03  0.00000000000E+00 0.  1.
<mgrwt>
<rscale>  2 0.16045812E+03</rscale>
<asrwt>0</asrwt>
<pdfrwt beam="1">  1       21 0.10309565E-01 0.16045812E+03</pdfrwt>
<pdfrwt beam="2">  1       21 0.10846572E+00 0.16045812E+03</pdfrwt>
<totfact> 0.52833430E+04</totfact>
</mgrwt>
</event>
<event>
 4    1  0.6052129E+003  0.1800068E+03  0.7546771E-02  0.1167797E+00
         21   -1    0    0  503  501  0.00000000000E+00  0.00000000000E+00  0.78336970939E+02  0.78336970939E+02  0.00000000000E+00 0.  1.
         21   -1    0    0  504  502 -0.00000000000E+00 -0.00000000000E+00 -0.41398296127E+03  0.41398296127E+03  0.00000000000E+00 0.  1.
         21    1    1    2  503  502 -0.17762209186E+03  0.29203178682E+02 -0.17502213691E+03  0.25106808154E+03  0.00000000000E+00 0.  1.
         21    1    1    2  504  501  0.17762209186E+03 -0.29203178682E+02 -0.16062385343E+03  0.24125185067E+03  0.00000000000E+00 0.  1.
<mgrwt>
<rscale>  2 0.18000676E+03</rscale>
<asrwt>0</asrwt>
<pdfrwt beam="1">  1       21 0.12051842E-01 0.18000676E+03</pdfrwt>
<pdfrwt beam="2">  1       21 0.63689685E-01 0.18000676E+03</pdfrwt>
<totfact> 0.13323962E+05</totfact>
</mgrwt>
</event>
<event>
 4    1  0.6052129E+003  0.1815794E+03  0.7546771E-02  0.1166283E+00
         21   -1    0    0  504  501  0.00000000000E+00  0.00000000000E+00  0.45028759353E+03  0.45028759353E+03  0.00000000000E+00 0.  1.
         21   -1    0    0  503  502 -0.00000000000E+00 -0.00000000000E+00 -0.12826294666E+03  0.12826294666E+03  0.00000000000E+00 0.  1.
         21    1    1    2  503  501  0.11671981736E+03 -0.13909545210E+03 -0.28484856658E+02  0.18380002072E+03  0.00000000000E+00 0.  1.
         21    1    1    2  504  502 -0.11671981736E+03  0.13909545210E+03  0.35050950352E+03  0.39475051947E+03  0.00000000000E+00 0.  1.
<mgrwt>
<rscale>  2 0.18157935E+03</rscale>
<asrwt>0</asrwt>
<pdfrwt beam="1">  1       21 0.69275014E-01 0.18157935E+03</pdfrwt>
<pdfrwt beam="2">  1       21 0.19732761E-01 0.18157935E+03</pdfrwt>
<totfact> 0.45120324E+04</totfact>
</mgrwt>
</event>
<event>
 4    1  0.6052129E+003  0.1166511E+03  0.7546771E-02  0.1248726E+00
         21   -1    0    0  503  501  0.00000000000E+00  0.00000000000E+00  0.68856080946E+02  0.68856080946E+02  0.00000000000E+00 0. -1.
         21   -1    0    0  504  502 -0.00000000000E+00 -0.00000000000E+00 -0.19764177492E+03  0.19764177492E+03  0.00000000000E+00 0. -1.
         21    1    1    2  503  502  0.50607790935E+01  0.11654126255E+03 -0.65725241053E+02  0.13389281039E+03  0.00000000000E+00 0. -1.
         21    1    1    2  504  501 -0.50607790935E+01 -0.11654126255E+03 -0.63060452921E+02  0.13260504547E+03  0.00000000000E+00 0. -1.
<mgrwt>
<rscale>  2 0.11665109E+03</rscale>
<asrwt>0</asrwt>
<pdfrwt beam="1">  1       21 0.10593243E-01 0.11665109E+03</pdfrwt>
<pdfrwt beam="2">  1       21 0.30406426E-01 0.11665109E+03</pdfrwt>
<totfact> 0.76337043E+05</totfact>
</mgrwt>
</event>
<event>
 4    1  0.6052129E+003  0.1134224E+03  0.7546771E-02  0.1254360E+00
         21   -1    0    0  503  501  0.00000000000E+00  0.00000000000E+00  0.85680492311E+03  0.85680492311E+03  0.00000000000E+00 0.  1.
         21   -1    0    0  504  502 -0.00000000000E+00 -0.00000000000E+00 -0.10419899360E+03  0.10419899360E+03  0.00000000000E+00 0.  1.
         21    1    1    2  503  502  0.93244321040E+02  0.64576538496E+02  0.82083973615E+03  0.82863894741E+03  0.00000000000E+00 0.  1.
         21    1    1    2  504  501 -0.93244321040E+02 -0.64576538496E+02 -0.68233806632E+02  0.13236496930E+03  0.00000000000E+00 0.  1.
<mgrwt>
<rscale>  2 0.11342236E+03</rscale>
<asrwt>0</asrwt>
<pdfrwt beam="1">  1       21 0.13181614E+00 0.11342236E+03</pdfrwt>
<pdfrwt beam="2">  1       21 0.16030615E-01 0.11342236E+03</pdfrwt>
<totfact> 0.15442089E+04</totfact>
</mgrwt>
</event>
<event>
 4    1  0.6052129E+003  0.1079062E+03  0.7546771E-02  0.1264497E+00
         21   -1    0    0  504  501  0.00000000000E+00  0.00000000000E+00  0.55375372694E+03  0.55375372694E+03  0.00000000000E+00 0. -1.
         21   -1    0    0  503  502 -0.00000000000E+00 -0.00000000000E+00 -0.40540170350E+02  0.40540170350E+02  0.00000000000E+00 0. -1.
         21    1    1    2  503  501 -0.96952125228E+02  0.47371177570E+02  0.50452124525E+02  0.11911826023E+03  0.00000000000E+00 0. -1.
         21    1    1    2  504  502  0.96952125228E+02 -0.47371177570E+02  0.46276143206E+03  0.47517563706E+03  0.00000000000E+00 0. -1.
<mgrwt>
<rscale>  2 0.10790618E+03</rscale>
<asrwt>0</asrwt>
<pdfrwt beam="1">  1       21 0.85192876E-01 0.10790618E+03</pdfrwt>
<pdfrwt beam="2">  1       21 0.62369497E-02 0.10790618E+03</pdfrwt>
<totfact> 0.22539711E+05</totfact>
</mgrwt>
</event>
<event>
 4    1  0.6052129E+003  0.1035088E+03  0.7546771E-02  0.1273086E+00
         21   -1    0    0  504  501  0.00000000000E+00  0.00000000000E+00  0.55260281007E+03  0.55260281007E+03  0.00000000000E+00 0. -1.
         21   -1    0    0  503  502 -0.00000000000E+00 -0.00000000000E+00 -0.51506317197E+02  0.51506317197E+02  0.00000000000E+00 0. -1.
         21    1    1    2  503  501 -0.59599889802E+02  0.84628207288E+02  0.12026001317E+02  0.10420511044E+03  0.00000000000E+00 0. -1.
         21    1    1    2  504  502  0.59599889802E+02 -0.84628207288E+02  0.48907049155E+03  0.49990401683E+03  0.00000000000E+00 0. -1.
<mgrwt>
<rscale>  2 0.10350884E+03</rscale>
<asrwt>0</asrwt>
<pdfrwt beam="1">  1       21 0.85015813E-01 0.10350884E+03</pdfrwt>
<pdfrwt beam="2">  1       21 0.79240492E-02 0.10350884E+03</pdfrwt>
<totfact> 0.15087925E+05</totfact>
</mgrwt>
</event>
<event>
 4    1  0.6052129E+003  0.1414548E+03  0.7546771E-02  0.1211385E+00
         21   -1    0    0  503  501  0.00000000000E+00  0.00000000000E+00  0.90154178040E+03  0.90154178040E+03  0.00000000000E+00 0. -1.
         21   -1    0    0  501  502 -0.00000000000E+00 -0.00000000000E+00 -0.29557495430E+02  0.29557495430E+02  0.00000000000E+00 0. -1.
         21    1    1    2  503  504 -0.21586069475E+02 -0.13979812604E+03  0.66834751785E+03  0.68315289581E+03  0.00000000000E+00 0. -1.
         21    1    1    2  504  502  0.21586069475E+02  0.13979812604E+03  0.20363676712E+03  0.24794638002E+03  0.00000000000E+00 0. -1.
<mgrwt>
<rscale>  2 0.14145485E+03</rscale>
<asrwt>0</asrwt>
<pdfrwt beam="1">  1       21 0.13869871E+00 0.14145485E+03</pdfrwt>
<pdfrwt beam="2">  1       21 0.45473077E-02 0.14145485E+03</pdfrwt>
<totfact> 0.11846574E+05</totfact>
</mgrwt>
</event>
<event>
 4    1  0.6052129E+003  0.1136311E+03  0.7546771E-02  0.1253990E+00
         21   -1    0    0  504  501  0.00000000000E+00  0.00000000000E+00  0.13315349111E+03  0.13315349111E+03  0.00000000000E+00 0. -1.
         21   -1    0    0  503  502 -0.00000000000E+00 -0.00000000000E+00 -0.16923653781E+03  0.16923653781E+03  0.00000000000E+00 0. -1.
         21    1    1    2  503  501 -0.11307014306E+02  0.11306712942E+03  0.80758281982E+02  0.13940561121E+03  0.00000000000E+00 0. -1.
         21    1    1    2  504  502  0.11307014306E+02 -0.11306712942E+03 -0.11684132868E+03  0.16298441771E+03  0.00000000000E+00 0. -1.
<mgrwt>
<rscale>  2 0.11363109E+03</rscale>
<asrwt>0</asrwt>
<pdfrwt beam="1">  1       21 0.20485153E-01 0.11363109E+03</pdfrwt>
<pdfrwt beam="2">  1       21 0.26036390E-01 0.11363109E+03</pdfrwt>
<totfact> 0.31409775E+05</totfact>
</mgrwt>
</event>
<event>
 4    1  0.6052129E+003  0.1110986E+03  0.7546771E-02  0.1258549E+00
         21   -1    0    0  503  501  0.00000000000E+00  0.00000000000E+00  0.12946022444E+03  0.12946022444E+03  0.00000000000E+00 0.  1.
         21   -1    0    0  504  502 -0.00000000000E+00 -0.00000000000E+00 -0.16748281616E+03  0.16748281616E+03  0.00000000000E+00 0.  1.
         21    1    1    2  503  502  0.49627614111E+02  0.99398150856E+02  0.78431778489E+02  0.13599425118E+03  0.00000000000E+00 0.  1.
         21    1    1    2  504  501 -0.49627614111E+02 -0.99398150856E+02 -0.11645437021E+03  0.16094878942E+03  0.00000000000E+00 0.  1.
<mgrwt>
<rscale>  2 0.11109857E+03</rscale>
<asrwt>0</asrwt>
<pdfrwt beam="1">  1       21 0.19916958E-01 0.11109857E+03</pdfrwt>
<pdfrwt beam="2">  1       21 0.25766587E-01 0.11109857E+03</pdfrwt>
<totfact> 0.33754357E+05</totfact>
</mgrwt>
</event>
<event>
 4    1  0.6052129E+003  0.1031203E+03  0.7546771E-02  0.1273868E+00
         21   -1    0    0  504  501  0.00000000000E+00  0.00000000000E+00  0.98833399779E+03  0.98833399779E+03  0.00000000000E+00 0.  1.
         21   -1    0    0  503  502 -0.00000000000E+00 -0.00000000000E+00 -0.13218692340E+02  0.13218692340E+02  0.00000000000E+00 0.  1.
         21    1    1    2  503  501  0.60783539335E+02 -0.83301662359E+02  0.70356143528E+03  0.71107840553E+03  0.00000000000E+00 0.  1.
         21    1    1    2  504  502 -0.60783539335E+02  0.83301662359E+02  0.27155387017E+03  0.29047428460E+03  0.00000000000E+00 0.  1.
<mgrwt>
<rscale>  2 0.10312035E+03</rscale>
<asrwt>0</asrwt>
<pdfrwt beam="1">  1       21 0.15205133E+00 0.10312035E+03</pdfrwt>
<pdfrwt beam="2">  1       21 0.20336457E-02 0.10312035E+03</pdfrwt>
<totfact> 0.35577518E+05</totfact>
</mgrwt>
</event>
<event>
 4    1  0.6052129E+003  0.1320374E+03  0.7546771E-02  0.1224464E+00
         21   -1    0    0  503  501  0.00000000000E+00  0.00000000000E+00  0.16973733237E+03  0.16973733237E+03  0.00000000000E+00 0. -1.
         21   -1    0    0  504  502 -0.00000000000E+00 -0.00000000000E+00 -0.24329109784E+03  0.24329109784E+03  0.00000000000E+00 0. -1.
         21    1    1    2  503  502  0.30296714047E+02  0.12851448560E+03  0.12020481102E+03  0.17855828316E+03  0.00000000000E+00 0. -1.
         21    1    1    2  504  501 -0.30296714047E+02 -0.12851448560E+03 -0.19375857649E+03  0.23447014705E+03  0.00000000000E+00 0. -1.
<mgrwt>
<rscale>  2 0.13203736E+03</rscale>
<asrwt>0</asrwt>
<pdfrwt beam="1">  1       21 0.26113436E-01 0.13203736E+03</pdfrwt>
<pdfrwt beam="2">  1       21 0.37429400E-01 0.13203736E+03</pdfrwt>
<totfact> 0.98213275E+04</totfact>
</mgrwt>
</event>
<event>
 4    1  0.6052129E+003  0.1119880E+03  0.7546771E-02  0.1256932E+00
         21   -1    0    0  504  501  0.00000000000E+00  0.00000000000E+00  0.13445913697E+02  0.13445913697E+02  0.00000000000E+00 0. -1.
         21   -1    0    0  503  502 -0.00000000000E+00 -0.00000000000E+00 -0.19853617646E+04  0.19853617646E+04  0.00000000000E+00 0.  1.
         21    1    1    2  503  501  0.51512200270E+02  0.99437419989E+02 -0.17136722999E+04  0.17173275921E+04  0.00000000000E+00 0.  1.
         21    1    1    2  504  502 -0.51512200270E+02 -0.99437419989E+02 -0.25824355103E+03  0.28148008619E+03  0.00000000000E+00 0. -1.
<mgrwt>
<rscale>  2 0.11198798E+03</rscale>
<asrwt>0</asrwt>
<pdfrwt beam="1">  1       21 0.20686041E-02 0.11198798E+03</pdfrwt>
<pdfrwt beam="2">  1       21 0.30543998E+00 0.11198798E+03</pdfrwt>
<totfact> 0.40577602E+04</totfact>
</mgrwt>
</event>
<event>
 4    1  0.6052129E+003  0.1038708E+03  0.7546771E-02  0.1272360E+00
         21   -1    0    0  503  501  0.00000000000E+00  0.00000000000E+00  0.24888950398E+03  0.24888950398E+03  0.00000000000E+00 0.  1.
         21   -1    0    0  504  502 -0.00000000000E+00 -0.00000000000E+00 -0.14513329260E+03  0.14513329260E+03  0.00000000000E+00 0.  1.
         21    1    1    2  503  502 -0.10219123510E+03  0.18603710176E+02 -0.11310820330E+03  0.15356631212E+03  0.00000000000E+00 0.  1.
         21    1    1    2  504  501  0.10219123510E+03 -0.18603710176E+02  0.21686441468E+03  0.24045648446E+03  0.00000000000E+00 0.  1.
<mgrwt>
<rscale>  2 0.10387082E+03</rscale>
<asrwt>0</asrwt>
<pdfrwt beam="1">  1       21 0.38290693E-01 0.10387082E+03</pdfrwt>
<pdfrwt beam="2">  1       21 0.22328199E-01 0.10387082E+03</pdfrwt>
<totfact> 0.12745518E+05</totfact>
</mgrwt>
</event>
<event>
 4    1  0.6052129E+003  0.1739116E+03  0.7546771E-02  0.1173829E+00
         21   -1    0    0  503  501  0.00000000000E+00  0.00000000000E+00  0.72916487433E+02  0.72916487433E+02  0.00000000000E+00 0.  1.
         21   -1    0    0  504  502 -0.00000000000E+00 -0.00000000000E+00 -0.41481440783E+03  0.41481440783E+03  0.00000000000E+00 0.  1.
         21    1    1    2  503  502 -0.52975279690E+02 -0.16564684752E+03 -0.16920255593E+03  0.24264122339E+03  0.00000000000E+00 0.  1.
         21    1    1    2  504  501  0.52975279690E+02  0.16564684752E+03 -0.17269536447E+03  0.24508967188E+03  0.00000000000E+00 0.  1.
<mgrwt>
<rscale>  2 0.17391164E+03</rscale>
<asrwt>0</asrwt>
<pdfrwt beam="1">  1       21 0.11217921E-01 0.17391164E+03</pdfrwt>
<pdfrwt beam="2">  1       21 0.63817602E-01 0.17391164E+03</pdfrwt>
<totfact> 0.15106037E+05</totfact>
</mgrwt>
</event>
<event>
 4    1  0.6052129E+003  0.1786337E+03  0.7546771E-02  0.1169132E+00
         21   -1    0    0  503  501  0.00000000000E+00  0.00000000000E+00  0.17232734362E+03  0.17232734362E+03  0.00000000000E+00 0.  1.
         21   -1    0    0  504  502 -0.00000000000E+00 -0.00000000000E+00 -0.19743014521E+03  0.19743014521E+03  0.00000000000E+00 0.  1.
         21    1    1    2  503  502 -0.10498545498E+03 -0.14452700975E+03  0.33518028988E+02  0.18175109510E+03  0.00000000000E+00 0.  1.
         21    1    1    2  504  501  0.10498545498E+03  0.14452700975E+03 -0.58620830581E+02  0.18800639373E+03  0.00000000000E+00 0.  1.
<mgrwt>
<rscale>  2 0.17863371E+03</rscale>
<asrwt>0</asrwt>
<pdfrwt beam="1">  1       21 0.26511899E-01 0.17863371E+03</pdfrwt>
<pdfrwt beam="2">  1       21 0.30373868E-01 0.17863371E+03</pdfrwt>
<totfact> 0.14144946E+05</totfact>
</mgrwt>
</event>
<event>
 4    1  0.6052129E+003  0.1147426E+03  0.7546771E-02  0.1252031E+00
         21   -1    0    0  504  501  0.00000000000E+00  0.00000000000E+00  0.77671467808E+02  0.77671467808E+02  0.00000000000E+00 0. -1.
         21   -1    0    0  503  502 -0.00000000000E+00 -0.00000000000E+00 -0.18302508441E+03  0.18302508441E+03  0.00000000000E+00 0. -1.
         21    1    1    2  503  501  0.55061350025E+02 -0.10066832457E+03 -0.17252102769E+02  0.11603231829E+03  0.00000000000E+00 0. -1.
         21    1    1    2  504  502 -0.55061350025E+02  0.10066832457E+03 -0.88101513833E+02  0.14466423393E+03  0.00000000000E+00 0. -1.
<mgrwt>
<rscale>  2 0.11474260E+03</rscale>
<asrwt>0</asrwt>
<pdfrwt beam="1">  1       21 0.11949457E-01 0.11474260E+03</pdfrwt>
<pdfrwt beam="2">  1       21 0.28157705E-01 0.11474260E+03</pdfrwt>
<totfact> 0.71566828E+05</totfact>
</mgrwt>
</event>
<event>
 4    1  0.6052129E+003  0.1534368E+03  0.7546771E-02  0.1196312E+00
         21   -1    0    0  504  501  0.00000000000E+00  0.00000000000E+00  0.99885487216E+03  0.99885487216E+03  0.00000000000E+00 0. -1.
         21   -1    0    0  503  502 -0.00000000000E+00 -0.00000000000E+00 -0.12990449092E+03  0.12990449092E+03  0.00000000000E+00 0. -1.
         21    1    1    2  503  501  0.16037932052E+02 -0.15259627609E+03 -0.76143507960E+02  0.17129119226E+03  0.00000000000E+00 0. -1.
         21    1    1    2  504  502 -0.16037932052E+02  0.15259627609E+03  0.94509388920E+03  0.95746817082E+03  0.00000000000E+00 0. -1.
<mgrwt>
<rscale>  2 0.15343676E+03</rscale>
<asrwt>0</asrwt>
<pdfrwt beam="1">  1       21 0.15366998E+00 0.15343676E+03</pdfrwt>
<pdfrwt beam="2">  1       21 0.19985307E-01 0.15343676E+03</pdfrwt>
<totfact> 0.67080342E+03</totfact>
</mgrwt>
</event>
<event>
 4    1  0.6052129E+003  0.1235892E+03  0.7546771E-02  0.1237291E+00
         21   -1    0    0  504  501  0.00000000000E+00  0.00000000000E+00  0.11276357720E+04  0.11276357720E+04  0.00000000000E+00 0. -1.
         21   -1    0    0  503  502 -0.00000000000E+00 -0.00000000000E+00 -0.21174784236E+02  0.21174784236E+02  0.00000000000E+00 0. -1.
         21    1    1    2  503  501 -0.36717410818E+02  0.11800894874E+03  0.89801965269E+03  0.90648418456E+03  0.00000000000E+00 0. -1.
         21    1    1    2  504  502  0.36717410818E+02 -0.11800894874E+03  0.20844133503E+03  0.24232637163E+03  0.00000000000E+00 0. -1.
<mgrwt>
<rscale>  2 0.12358916E+03</rscale>
<asrwt>0</asrwt>
<pdfrwt beam="1">  1       21 0.17348238E+00 0.12358916E+03</pdfrwt>
<pdfrwt beam="2">  1       21 0.32576600E-02 0.12358916E+03</pdfrwt>
<totfact> 0.11556541E+05</totfact>
</mgrwt>
</event>
<event>
 4    1  0.6052129E+003  0.1060919E+03  0.7546771E-02  0.1267983E+00
         21   -1    0    0  503  501  0.00000000000E+00  0.00000000000E+00  0.28665187145E+02  0.28665187145E+02  0.00000000000E+00 0.  1.
         21   -1    0    0  504  502 -0.00000000000E+00 -0.00000000000E+00 -0.47241530249E+03  0.47241530249E+03  0.00000000000E+00 0.  1.
         21    1    1    2  503  502  0.96666713224E+01 -0.10565055211E+03 -0.11892816950E+03  0.15937187078E+03  0.00000000000E+00 0.  1.
         21    1    1    2  504  501 -0.96666713224E+01  0.10565055211E+03 -0.32482194585E+03  0.34170861885E+03  0.00000000000E+00 0.  1.
<mgrwt>
<rscale>  2 0.10609186E+03</rscale>
<asrwt>0</asrwt>
<pdfrwt beam="1">  1       21 0.44100291E-02 0.10609186E+03</pdfrwt>
<pdfrwt beam="2">  1       21 0.72679272E-01 0.10609186E+03</pdfrwt>
<totfact> 0.57302366E+05</totfact>
</mgrwt>
</event>
<event>
 4    1  0.6052129E+003  0.1000689E+03  0.7546771E-02  0.1280151E+00
         21   -1    0    0  503  501  0.00000000000E+00  0.00000000000E+00  0.17760498281E+03  0.17760498281E+03  0.00000000000E+00 0.  1.
         21   -1    0    0  504  502 -0.00000000000E+00 -0.00000000000E+00 -0.56884994718E+02  0.56884994718E+02  0.00000000000E+00 0.  1.
         21    1    1    2  503  502 -0.90295641527E+02  0.43133203044E+02  0.49338236706E+02  0.11157077433E+03  0.00000000000E+00 0.  1.
         21    1    1    2  504  501  0.90295641527E+02 -0.43133203044E+02  0.71381751385E+02  0.12291920320E+03  0.00000000000E+00 0.  1.
<mgrwt>
<rscale>  2 0.10006886E+03</rscale>
<asrwt>0</asrwt>
<pdfrwt beam="1">  1       21 0.27323843E-01 0.10006886E+03</pdfrwt>
<pdfrwt beam="2">  1       21 0.87515377E-02 0.10006886E+03</pdfrwt>
<totfact> 0.13020864E+06</totfact>
</mgrwt>
</event>
<event>
 4    1  0.6052129E+003  0.1001929E+03  0.7546771E-02  0.1279891E+00
         21   -1    0    0  504  501  0.00000000000E+00  0.00000000000E+00  0.24105931483E+03  0.24105931483E+03  0.00000000000E+00 0.  1.
         21   -1    0    0  503  502 -0.00000000000E+00 -0.00000000000E+00 -0.64224125453E+02  0.64224125453E+02  0.00000000000E+00 0. -1.
         21    1    1    2  503  501 -0.81188225597E+02  0.58711867152E+02 -0.20910021323E+01  0.10021468760E+03  0.00000000000E+00 0. -1.
         21    1    1    2  504  502  0.81188225597E+02 -0.58711867152E+02  0.17892619151E+03  0.20506875268E+03  0.00000000000E+00 0.  1.
<mgrwt>
<rscale>  2 0.10019287E+03</rscale>
<asrwt>0</asrwt>
<pdfrwt beam="1">  1       21 0.37086048E-01 0.10019287E+03</pdfrwt>
<pdfrwt beam="2">  1       21 0.98806349E-02 0.10019287E+03</pdfrwt>
<totfact> 0.58557219E+05</totfact>
</mgrwt>
</event>
<event>
 4    1  0.6052129E+003  0.1165735E+03  0.7546771E-02  0.1248859E+00
         21   -1    0    0  504  501  0.00000000000E+00  0.00000000000E+00  0.14197851592E+03  0.14197851592E+03  0.00000000000E+00 0.  1.
         21   -1    0    0  503  502 -0.00000000000E+00 -0.00000000000E+00 -0.21289421946E+03  0.21289421946E+03  0.00000000000E+00 0.  1.
         21    1    1    2  503  501  0.10106420202E+03 -0.58098287665E+02  0.96181936390E+02  0.15113023803E+03  0.00000000000E+00 0.  1.
         21    1    1    2  504  502 -0.10106420202E+03  0.58098287665E+02 -0.16709763993E+03  0.20374249735E+03  0.00000000000E+00 0.  1.
<mgrwt>
<rscale>  2 0.11657351E+03</rscale>
<asrwt>0</asrwt>
<pdfrwt beam="1">  1       21 0.21842849E-01 0.11657351E+03</pdfrwt>
<pdfrwt beam="2">  1       21 0.32752957E-01 0.11657351E+03</pdfrwt>
<totfact> 0.17948637E+05</totfact>
</mgrwt>
</event>
<event>
 4    1  0.6052129E+003  0.1831987E+03  0.7546771E-02  0.1164743E+00
         21   -1    0    0  502  501  0.00000000000E+00  0.00000000000E+00  0.10764149987E+04  0.10764149987E+04  0.00000000000E+00 0. -1.
         21   -1    0    0  503  502 -0.00000000000E+00 -0.00000000000E+00 -0.57728833743E+02  0.57728833743E+02  0.00000000000E+00 0. -1.
         21    1    1    2  503  504  0.17083829720E+03  0.66151748794E+02  0.12477709615E+03  0.22165536624E+03  0.00000000000E+00 0. -1.
         21    1    1    2  504  501 -0.17083829720E+03 -0.66151748794E+02  0.89390906878E+03  0.91248846618E+03  0.00000000000E+00 0. -1.
<mgrwt>
<rscale>  2 0.18319874E+03</rscale>
<asrwt>0</asrwt>
<pdfrwt beam="1">  1       21 0.16560229E+00 0.18319874E+03</pdfrwt>
<pdfrwt beam="2">  1       21 0.88813599E-02 0.18319874E+03</pdfrwt>
<totfact> 0.23070536E+04</totfact>
</mgrwt>
</event>
<event>
 4    1  0.6052129E+003  0.1273160E+03  0.7546771E-02  0.1231494E+00
         21   -1    0    0  503  501  0.00000000000E+00  0.00000000000E+00  0.13419191000E+03  0.13419191000E+03  0.00000000000E+00 0. -1.
         21   -1    0    0  504  502 -0.00000000000E+00 -0.00000000000E+00 -0.37488563131E+03  0.37488563131E+03  0.00000000000E+00 0. -1.
         21    1    1    2  503  502  0.11476857718E+03 -0.55113850041E+02  0.89209618682E+02  0.15545970166E+03  0.00000000000E+00 0. -1.
         21    1    1    2  504  501 -0.11476857718E+03  0.55113850041E+02 -0.32990334000E+03  0.35361783965E+03  0.00000000000E+00 0. -1.
<mgrwt>
<rscale>  2 0.12731600E+03</rscale>
<asrwt>0</asrwt>
<pdfrwt beam="1">  1       21 0.20644910E-01 0.12731600E+03</pdfrwt>
<pdfrwt beam="2">  1       21 0.57674712E-01 0.12731600E+03</pdfrwt>
<totfact> 0.63239677E+04</totfact>
</mgrwt>
</event>
<event>
 4    1  0.6052129E+003  0.2092391E+03  0.7546771E-02  0.1142170E+00
         21   -1    0    0  503  501  0.00000000000E+00  0.00000000000E+00  0.23623761347E+03  0.23623761347E+03  0.00000000000E+00 0.  1.
         21   -1    0    0  504  502 -0.00000000000E+00 -0.00000000000E+00 -0.21642882095E+03  0.21642882095E+03  0.00000000000E+00 0.  1.
         21    1    1    2  503  502  0.10587333465E+03 -0.18047667133E+03  0.95704942195E+02  0.23008786983E+03  0.00000000000E+00 0.  1.
         21    1    1    2  504  501 -0.10587333465E+03  0.18047667133E+03 -0.75896149673E+02  0.22257856460E+03  0.00000000000E+00 0.  1.
<mgrwt>
<rscale>  2 0.20923908E+03</rscale>
<asrwt>0</asrwt>
<pdfrwt beam="1">  1       21 0.36344248E-01 0.20923908E+03</pdfrwt>
<pdfrwt beam="2">  1       21 0.33296742E-01 0.20923908E+03</pdfrwt>
<totfact> 0.62938001E+04</totfact>
</mgrwt>
</event>
<event>
 4    1  0.6052129E+003  0.1364596E+03  0.7546771E-02  0.1218174E+00
         21   -1    0    0  504  501  0.00000000000E+00  0.00000000000E+00  0.21580598594E+03  0.21580598594E+03  0.00000000000E+00 0. -1.
         21   -1    0    0  503  502 -0.00000000000E+00 -0.00000000000E+00 -0.15821364554E+03  0.15821364554E+03  0.00000000000E+00 0.  1.
         21    1    1    2  503  501 -0.34273527560E+02  0.13208534228E+03  0.15488827060E+03  0.20642574623E+03  0.00000000000E+00 0. -1.
         21    1    1    2  504  502  0.34273527560E+02 -0.13208534228E+03 -0.97295930204E+02  0.16759388524E+03  0.00000000000E+00 0.  1.
<mgrwt>
<rscale>  2 0.13645956E+03</rscale>
<asrwt>0</asrwt>
<pdfrwt beam="1">  1       21 0.33200921E-01 0.13645956E+03</pdfrwt>
<pdfrwt beam="2">  1       21 0.24340561E-01 0.13645956E+03</pdfrwt>
<totfact> 0.14182421E+05</totfact>
</mgrwt>
</event>
<event>
 4    1  0.6052129E+003  0.1396940E+03  0.7546771E-02  0.1213741E+00
         21   -1    0    0  504  501  0.00000000000E+00  0.00000000000E+00  0.79416632339E+03  0.79416632339E+03  0.00000000000E+00 0. -1.
         21   -1    0    0  501  502 -0.00000000000E+00 -0.00000000000E+00 -0.50475285142E+02  0.50475285142E+02  0.00000000000E+00 0. -1.
         21    1    1    2  503  502 -0.10527487051E+03 -0.91823896660E+02  0.69308377899E+02  0.15594254585E+03  0.00000000000E+00 0. -1.
         21    1    1    2  504  503  0.10527487051E+03  0.91823896660E+02  0.67438266035E+03  0.68869906268E+03  0.00000000000E+00 0. -1.
<mgrwt>
<rscale>  2 0.13969405E+03</rscale>
<asrwt>0</asrwt>
<pdfrwt beam="1">  1       21 0.12217943E+00 0.13969405E+03</pdfrwt>
<pdfrwt beam="2">  1       21 0.77654291E-02 0.13969405E+03</pdfrwt>
<totfact> 0.65564654E+04</totfact>
</mgrwt>
</event>
<event>
 4    1  0.6052129E+003  0.1343960E+03  0.7546771E-02  0.1221075E+00
         21   -1    0    0  504  501  0.00000000000E+00  0.00000000000E+00  0.10721091810E+03  0.10721091810E+03  0.00000000000E+00 0.  1.
         21   -1    0    0  503  502 -0.00000000000E+00 -0.00000000000E+00 -0.26216340797E+03  0.26216340797E+03  0.00000000000E+00 0.  1.
         21    1    1    2  503  501  0.94162849152E+02  0.95893919855E+02  0.32930394140E+02  0.13837158987E+03  0.00000000000E+00 0.  1.
         21    1    1    2  504  502 -0.94162849152E+02 -0.95893919855E+02 -0.18788288401E+03  0.23100273619E+03  0.00000000000E+00 0.  1.
<mgrwt>
<rscale>  2 0.13439600E+03</rscale>
<asrwt>0</asrwt>
<pdfrwt beam="1">  1       21 0.16493987E-01 0.13439600E+03</pdfrwt>
<pdfrwt beam="2">  1       21 0.40332832E-01 0.13439600E+03</pdfrwt>
<totfact> 0.19852983E+05</totfact>
</mgrwt>
</event>
<event>
 4    1  0.6052129E+003  0.1357031E+03  0.7546771E-02  0.1219231E+00
         21   -1    0    0  504  501  0.00000000000E+00  0.00000000000E+00  0.68857275961E+02  0.68857275961E+02  0.00000000000E+00 0.  1.
         21   -1    0    0  501  502 -0.00000000000E+00 -0.00000000000E+00 -0.15343663128E+04  0.15343663128E+04  0.00000000000E+00 0.  1.
         21    1    1    2  503  502 -0.38602435453E+02 -0.13009678124E+03 -0.14611628823E+04  0.14674509495E+04  0.00000000000E+00 0.  1.
         21    1    1    2  504  503  0.38602435453E+02  0.13009678124E+03 -0.43461545136E+01  0.13577263926E+03  0.00000000000E+00 0.  1.
<mgrwt>
<rscale>  2 0.13570306E+03</rscale>
<asrwt>0</asrwt>
<pdfrwt beam="1">  1       21 0.10593428E-01 0.13570306E+03</pdfrwt>
<pdfrwt beam="2">  1       21 0.23605634E+00 0.13570306E+03</pdfrwt>
<totfact> 0.62776705E+03</totfact>
</mgrwt>
</event>
<event>
 4    1  0.6052129E+003  0.1004091E+03  0.7546771E-02  0.1279438E+00
         21   -1    0    0  503  501  0.00000000000E+00  0.00000000000E+00  0.11321525335E+03  0.11321525335E+03  0.00000000000E+00 0. -1.
         21   -1    0    0  504  502 -0.00000000000E+00 -0.00000000000E+00 -0.10337065894E+03  0.10337065894E+03  0.00000000000E+00 0. -1.
         21    1    1    2  503  502  0.57241134802E+02 -0.82495123511E+02 -0.35382772902E+02  0.10646094840E+03  0.00000000000E+00 0. -1.
         21    1    1    2  504  501 -0.57241134802E+02  0.82495123511E+02  0.45227367320E+02  0.11012496389E+03  0.00000000000E+00 0. -1.
<mgrwt>
<rscale>  2 0.10040913E+03</rscale>
<asrwt>0</asrwt>
<pdfrwt beam="1">  1       21 0.17417731E-01 0.10040913E+03</pdfrwt>
<pdfrwt beam="2">  1       21 0.15903178E-01 0.10040913E+03</pdfrwt>
<totfact> 0.10486038E+06</totfact>
</mgrwt>
</event>
<event>
 4    1  0.6052129E+003  0.1285384E+03  0.7546771E-02  0.1229641E+00
         21   -1    0    0  503  501  0.00000000000E+00  0.00000000000E+00  0.17283182692E+03  0.17283182692E+03  0.00000000000E+00 0. -1.
         21   -1    0    0  504  502 -0.00000000000E+00 -0.00000000000E+00 -0.96987007502E+02  0.96987007502E+02  0.00000000000E+00 0. -1.
         21    1    1    2  503  502  0.68382960794E+02 -0.10883879912E+03  0.54076256888E+02  0.13945018852E+03  0.00000000000E+00 0. -1.
         21    1    1    2  504  501 -0.68382960794E+02  0.10883879912E+03  0.21768562534E+02  0.13036864590E+03  0.00000000000E+00 0. -1.
<mgrwt>
<rscale>  2 0.12853837E+03</rscale>
<asrwt>0</asrwt>
<pdfrwt beam="1">  1       21 0.26589512E-01 0.12853837E+03</pdfrwt>
<pdfrwt beam="2">  1       21 0.14921078E-01 0.12853837E+03</pdfrwt>
<totfact> 0.53702316E+05</totfact>
</mgrwt>
</event>
<event>
 4    1  0.6052129E+003  0.1034601E+03  0.7546771E-02  0.1273184E+00
         21   -1    0    0  503  501  0.00000000000E+00  0.00000000000E+00  0.69820341666E+02  0.69820341666E+02  0.00000000000E+00 0.  1.
         21   -1    0    0  504  502 -0.00000000000E+00 -0.00000000000E+00 -0.65502822182E+03  0.65502822182E+03  0.00000000000E+00 0. -1.
         21    1    1    2  503  502 -0.47290076353E+02  0.92019772183E+02  0.24585157991E+02  0.10634105410E+03  0.00000000000E+00 0.  1.
         21    1    1    2  504  501  0.47290076353E+02 -0.92019772183E+02 -0.60979303815E+03  0.61850750939E+03  0.00000000000E+00 0. -1.
<mgrwt>
<rscale>  2 0.10346009E+03</rscale>
<asrwt>0</asrwt>
<pdfrwt beam="1">  1       21 0.10741591E-01 0.10346009E+03</pdfrwt>
<pdfrwt beam="2">  1       21 0.10077357E+00 0.10346009E+03</pdfrwt>
<totfact> 0.60445949E+04</totfact>
</mgrwt>
</event>
<event>
 4    1  0.6052129E+003  0.1030920E+03  0.7546771E-02  0.1273925E+00
         21   -1    0    0  503  501  0.00000000000E+00  0.00000000000E+00  0.30415523223E+03  0.30415523223E+03  0.00000000000E+00 0. -1.
         21   -1    0    0  501  502 -0.00000000000E+00 -0.00000000000E+00 -0.78802737366E+02  0.78802737366E+02  0.00000000000E+00 0. -1.
         21    1    1    2  503  504  0.50302911608E+02  0.89986581048E+02  0.25552799936E+03  0.27554042560E+03  0.00000000000E+00 0. -1.
         21    1    1    2  504  502 -0.50302911608E+02 -0.89986581048E+02 -0.30175504500E+02  0.10741754399E+03  0.00000000000E+00 0. -1.
<mgrwt>
<rscale>  2 0.10309204E+03</rscale>
<asrwt>0</asrwt>
<pdfrwt beam="1">  1       21 0.46793112E-01 0.10309204E+03</pdfrwt>
<pdfrwt beam="2">  1       21 0.12123498E-01 0.10309204E+03</pdfrwt>
<totfact> 0.25727789E+05</totfact>
</mgrwt>
</event>
<event>
 4    1  0.6052129E+003  0.1065837E+03  0.7546771E-02  0.1267030E+00
         21   -1    0    0  503  501  0.00000000000E+00  0.00000000000E+00  0.10443957001E+03  0.10443957001E+03  0.00000000000E+00 0.  1.
         21   -1    0    0  501  502 -0.00000000000E+00 -0.00000000000E+00 -0.14276503005E+03  0.14276503005E+03  0.00000000000E+00 0.  1.
         21    1    1    2  503  504 -0.98731796370E+02  0.40151269925E+02  0.41150294866E+02  0.11425164707E+03  0.00000000000E+00 0.  1.
         21    1    1    2  504  502  0.98731796370E+02 -0.40151269925E+02 -0.79475754909E+02  0.13295295299E+03  0.00000000000E+00 0.  1.
<mgrwt>
<rscale>  2 0.10658373E+03</rscale>
<asrwt>0</asrwt>
<pdfrwt beam="1">  1       21 0.16067626E-01 0.10658373E+03</pdfrwt>
<pdfrwt beam="2">  1       21 0.21963851E-01 0.10658373E+03</pdfrwt>
<totfact> 0.67318594E+05</totfact>
</mgrwt>
</event>
<event>
 4    1  0.6052129E+003  0.1005899E+03  0.7546771E-02  0.1279060E+00
         21   -1    0    0  503  501  0.00000000000E+00  0.00000000000E+00  0.47817450811E+03  0.47817450811E+03  0.00000000000E+00 0. -1.
         21   -1    0    0  501  502 -0.00000000000E+00 -0.00000000000E+00 -0.84189475768E+02  0.84189475768E+02  0.00000000000E+00 0. -1.
         21    1    1    2  503  504  0.90196186594E+02 -0.44530657918E+02  0.44028534197E+03  0.45162984171E+03  0.00000000000E+00 0. -1.
         21    1    1    2  504  502 -0.90196186594E+02  0.44530657918E+02 -0.46300309625E+02  0.11073414217E+03  0.00000000000E+00 0. -1.
<mgrwt>
<rscale>  2 0.10058992E+03</rscale>
<asrwt>0</asrwt>
<pdfrwt beam="1">  1       21 0.73565307E-01 0.10058992E+03</pdfrwt>
<pdfrwt beam="2">  1       21 0.12952227E-01 0.10058992E+03</pdfrwt>
<totfact> 0.88487302E+04</totfact>
</mgrwt>
</event>
<event>
 4    1  0.6052129E+003  0.1382436E+03  0.7546771E-02  0.1215712E+00
         21   -1    0    0  502  501  0.00000000000E+00  0.00000000000E+00  0.27842459111E+02  0.27842459111E+02  0.00000000000E+00 0. -1.
         21   -1    0    0  503  502 -0.00000000000E+00 -0.00000000000E+00 -0.89288190220E+03  0.89288190220E+03  0.00000000000E+00 0. -1.
         21    1    1    2  503  504  0.13821197653E+03  0.29561046159E+01 -0.65389805972E+03  0.66835167503E+03  0.00000000000E+00 0. -1.
         21    1    1    2  504  501 -0.13821197653E+03 -0.29561046159E+01 -0.21114138337E+03  0.25237268628E+03  0.00000000000E+00 0. -1.
<mgrwt>
<rscale>  2 0.13824359E+03</rscale>
<asrwt>0</asrwt>
<pdfrwt beam="1">  1       21 0.42834558E-02 0.13824359E+03</pdfrwt>
<pdfrwt beam="2">  1       21 0.13736643E+00 0.13824359E+03</pdfrwt>
<totfact> 0.13436836E+05</totfact>
</mgrwt>
</event>
<event>
 4    1  0.6052129E+003  0.1329930E+03  0.7546771E-02  0.1223081E+00
         21   -1    0    0  504  501  0.00000000000E+00  0.00000000000E+00  0.14822023878E+03  0.14822023878E+03  0.00000000000E+00 0.  1.
         21   -1    0    0  503  502 -0.00000000000E+00 -0.00000000000E+00 -0.74690553036E+03  0.74690553036E+03  0.00000000000E+00 0.  1.
         21    1    1    2  503  501 -0.11857097667E+03 -0.60233438380E+02  0.11091263030E+03  0.17317261668E+03  0.00000000000E+00 0.  1.
         21    1    1    2  504  502  0.11857097667E+03  0.60233438380E+02 -0.70959792188E+03  0.72195315246E+03  0.00000000000E+00 0.  1.
<mgrwt>
<rscale>  2 0.13299302E+03</rscale>
<asrwt>0</asrwt>
<pdfrwt beam="1">  1       21 0.22803113E-01 0.13299302E+03</pdfrwt>
<pdfrwt beam="2">  1       21 0.11490854E+00 0.13299302E+03</pdfrwt>
<totfact> 0.11100056E+04</totfact>
</mgrwt>
</event>
<event>
 4    1  0.6052129E+003  0.1031363E+03  0.7546771E-02  0.1273836E+00
         21   -1    0    0  504  501  0.00000000000E+00  0.00000000000E+00  0.49232453402E+03  0.49232453402E+03  0.00000000000E+00 0. -1.
         21   -1    0    0  501  502 -0.00000000000E+00 -0.00000000000E+00 -0.10811002714E+03  0.10811002714E+03  0.00000000000E+00 0. -1.
         21    1    1    2  503  502 -0.97375354949E+02 -0.33987247371E+02 -0.76440315006E+02  0.12837528771E+03  0.00000000000E+00 0. -1.
         21    1    1    2  504  503  0.97375354949E+02  0.33987247371E+02  0.46065482188E+03  0.47205927345E+03  0.00000000000E+00 0. -1.
<mgrwt>
<rscale>  2 0.10313628E+03</rscale>
<asrwt>0</asrwt>
<pdfrwt beam="1">  1       21 0.75742234E-01 0.10313628E+03</pdfrwt>
<pdfrwt beam="2">  1       21 0.16632312E-01 0.10313628E+03</pdfrwt>
<totfact> 0.52994963E+04</totfact>
</mgrwt>
</event>
<event>
 4    1  0.6052129E+003  0.1374745E+03  0.7546771E-02  0.1216768E+00
         21   -1    0    0  504  501  0.00000000000E+00  0.00000000000E+00  0.28409229030E+03  0.28409229030E+03  0.00000000000E+00 0. -1.
         21   -1    0    0  503  502 -0.00000000000E+00 -0.00000000000E+00 -0.12088888466E+03  0.12088888466E+03  0.00000000000E+00 0.  1.
         21    1    1    2  503  501 -0.12319243126E+03 -0.61015353023E+02  0.21739138515E+03  0.25721248562E+03  0.00000000000E+00 0. -1.
         21    1    1    2  504  502  0.12319243126E+03  0.61015353023E+02 -0.54187979506E+02  0.14776868933E+03  0.00000000000E+00 0.  1.
<mgrwt>
<rscale>  2 0.13747454E+03</rscale>
<asrwt>0</asrwt>
<pdfrwt beam="1">  1       21 0.43706506E-01 0.13747454E+03</pdfrwt>
<pdfrwt beam="2">  1       21 0.18598290E-01 0.13747454E+03</pdfrwt>
<totfact> 0.13543964E+05</totfact>
</mgrwt>
</event>
<event>
 4    1  0.6052129E+003  0.1671614E+03  0.7546771E-02  0.1180841E+00
         21   -1    0    0  504  501  0.00000000000E+00  0.00000000000E+00  0.37207932283E+02  0.37207932283E+02  0.00000000000E+00 0.  1.
         21   -1    0    0  503  502 -0.00000000000E+00 -0.00000000000E+00 -0.86544789924E+03  0.86544789924E+03  0.00000000000E+00 0.  1.
         21    1    1    2  503  501  0.14645478151E+03  0.80584831302E+02 -0.57824993313E+03  0.60192682548E+03  0.00000000000E+00 0.  1.
         21    1    1    2  504  502 -0.14645478151E+03 -0.80584831302E+02 -0.24999003382E+03  0.30072900604E+03  0.00000000000E+00 0.  1.
<mgrwt>
<rscale>  2 0.16716135E+03</rscale>
<asrwt>0</asrwt>
<pdfrwt beam="1">  1       21 0.57242971E-02 0.16716135E+03</pdfrwt>
<pdfrwt beam="2">  1       21 0.13314583E+00 0.16716135E+03</pdfrwt>
<totfact> 0.88014138E+04</totfact>
</mgrwt>
</event>
<event>
 4    1  0.6052129E+003  0.1214585E+03  0.7546771E-02  0.1240710E+00
         21   -1    0    0  504  501  0.00000000000E+00  0.00000000000E+00  0.44772381339E+02  0.44772381339E+02  0.00000000000E+00 0.  1.
         21   -1    0    0  503  502 -0.00000000000E+00 -0.00000000000E+00 -0.34183294847E+03  0.34183294847E+03  0.00000000000E+00 0.  1.
         21    1    1    2  503  501  0.10330828510E+03  0.63871402111E+02 -0.18525840725E+03  0.22152389315E+03  0.00000000000E+00 0.  1.
         21    1    1    2  504  502 -0.10330828510E+03 -0.63871402111E+02 -0.11180215987E+03  0.16508143666E+03  0.00000000000E+00 0.  1.
<mgrwt>
<rscale>  2 0.12145846E+03</rscale>
<asrwt>0</asrwt>
<pdfrwt beam="1">  1       21 0.68880592E-02 0.12145846E+03</pdfrwt>
<pdfrwt beam="2">  1       21 0.52589680E-01 0.12145846E+03</pdfrwt>
<totfact> 0.53788506E+05</totfact>
</mgrwt>
</event>
<event>
 4    1  0.6052129E+003  0.1100579E+03  0.7546771E-02  0.1260463E+00
         21   -1    0    0  504  501  0.00000000000E+00  0.00000000000E+00  0.25499023909E+02  0.25499023909E+02  0.00000000000E+00 0.  1.
         21   -1    0    0  503  502 -0.00000000000E+00 -0.00000000000E+00 -0.50172502707E+03  0.50172502707E+03  0.00000000000E+00 0.  1.
         21    1    1    2  503  501 -0.10969550629E+03  0.89241754733E+01 -0.17730433450E+03  0.20868534218E+03  0.00000000000E+00 0.  1.
         21    1    1    2  504  502  0.10969550629E+03 -0.89241754733E+01 -0.29892166866E+03  0.31853870879E+03  0.00000000000E+00 0.  1.
<mgrwt>
<rscale>  2 0.11005792E+03</rscale>
<asrwt>0</asrwt>
<pdfrwt beam="1">  1       21 0.39229267E-02 0.11005792E+03</pdfrwt>
<pdfrwt beam="2">  1       21 0.77188466E-01 0.11005792E+03</pdfrwt>
<totfact> 0.60943343E+05</totfact>
</mgrwt>
</event>
<event>
 4    1  0.6052129E+003  0.1223217E+03  0.7546771E-02  0.1239315E+00
         21   -1    0    0  503  501  0.00000000000E+00  0.00000000000E+00  0.57901786063E+03  0.57901786063E+03  0.00000000000E+00 0.  1.
         21   -1    0    0  504  502 -0.00000000000E+00 -0.00000000000E+00 -0.30761099479E+02  0.30761099479E+02  0.00000000000E+00 0. -1.
         21    1    1    2  503  502 -0.12185393963E+03 -0.10686674226E+02  0.39605939714E+03  0.41451855649E+03  0.00000000000E+00 0.  1.
         21    1    1    2  504  501  0.12185393963E+03  0.10686674226E+02  0.15219736401E+03  0.19526040362E+03  0.00000000000E+00 0. -1.
<mgrwt>
<rscale>  2 0.12232166E+03</rscale>
<asrwt>0</asrwt>
<pdfrwt beam="1">  1       21 0.89079663E-01 0.12232166E+03</pdfrwt>
<pdfrwt beam="2">  1       21 0.47324773E-02 0.12232166E+03</pdfrwt>
<totfact> 0.32292757E+05</totfact>
</mgrwt>
</event>
<event>
 4    1  0.6052129E+003  0.1037658E+03  0.7546771E-02  0.1272571E+00
         21   -1    0    0  503  501  0.00000000000E+00  0.00000000000E+00  0.25161240343E+03  0.25161240343E+03  0.00000000000E+00 0. -1.
         21   -1    0    0  504  502 -0.00000000000E+00 -0.00000000000E+00 -0.42875596410E+02  0.42875596410E+02  0.00000000000E+00 0.  1.
         21    1    1    2  503  502 -0.65772896339E+02 -0.80257517561E+02  0.11081654563E+03  0.15181452435E+03  0.00000000000E+00 0. -1.
         21    1    1    2  504  501  0.65772896339E+02  0.80257517561E+02  0.97920261385E+02  0.14267347549E+03  0.00000000000E+00 0.  1.
<mgrwt>
<rscale>  2 0.10376581E+03</rscale>
<asrwt>0</asrwt>
<pdfrwt beam="1">  1       21 0.38709600E-01 0.10376581E+03</pdfrwt>
<pdfrwt beam="2">  1       21 0.65962458E-02 0.10376581E+03</pdfrwt>
<totfact> 0.10764697E+06</totfact>
</mgrwt>
</event>
<event>
 4    1  0.6052129E+003  0.1235575E+03  0.7546771E-02  0.1237341E+00
         21   -1    0    0  504  501  0.00000000000E+00  0.00000000000E+00  0.16975218042E+02  0.16975218042E+02  0.00000000000E+00 0.  1.
         21   -1    0    0  503  502 -0.00000000000E+00 -0.00000000000E+00 -0.92239148276E+03  0.92239148276E+03  0.00000000000E+00 0.  1.
         21    1    1    2  503  501 -0.13357141469E+02 -0.12283336056E+03 -0.52696247729E+03  0.54125400707E+03  0.00000000000E+00 0.  1.
         21    1    1    2  504  502  0.13357141469E+02  0.12283336056E+03 -0.37845378743E+03  0.39811269374E+03  0.00000000000E+00 0.  1.
<mgrwt>
<rscale>  2 0.12355747E+03</rscale>
<asrwt>0</asrwt>
<pdfrwt beam="1">  1       21 0.26115723E-02 0.12355747E+03</pdfrwt>
<pdfrwt beam="2">  1       21 0.14190636E+00 0.12355747E+03</pdfrwt>
<totfact> 0.28128927E+05</totfact>
</mgrwt>
</event>
<event>
 4    1  0.6052129E+003  0.1131675E+03  0.7546771E-02  0.1254814E+00
         21   -1    0    0  504  501  0.00000000000E+00  0.00000000000E+00  0.22624590204E+02  0.22624590204E+02  0.00000000000E+00 0.  1.
         21   -1    0    0  501  502 -0.00000000000E+00 -0.00000000000E+00 -0.74749069791E+03  0.74749069791E+03  0.00000000000E+00 0.  1.
         21    1    1    2  503  502 -0.73357730704E+02  0.86171450162E+02 -0.55213781967E+03  0.56361604607E+03  0.00000000000E+00 0.  1.
         21    1    1    2  504  503  0.73357730704E+02 -0.86171450162E+02 -0.17272828804E+03  0.20649924205E+03  0.00000000000E+00 0.  1.
<mgrwt>
<rscale>  2 0.11316747E+03</rscale>
<asrwt>0</asrwt>
<pdfrwt beam="1">  1       21 0.34807056E-02 0.11316747E+03</pdfrwt>
<pdfrwt beam="2">  1       21 0.11499859E+00 0.11316747E+03</pdfrwt>
<totfact> 0.29642497E+05</totfact>
</mgrwt>
</event>
<event>
 4    1  0.6052129E+003  0.1345291E+03  0.7546771E-02  0.1220886E+00
         21   -1    0    0  504  501  0.00000000000E+00  0.00000000000E+00  0.52910786442E+02  0.52910786442E+02  0.00000000000E+00 0.  1.
         21   -1    0    0  503  502 -0.00000000000E+00 -0.00000000000E+00 -0.55978781113E+03  0.55978781113E+03  0.00000000000E+00 0. -1.
         21    1    1    2  503  501  0.32781680930E+01  0.13448914810E+03 -0.44450000900E+03  0.46441181654E+03  0.00000000000E+00 0. -1.
         21    1    1    2  504  502 -0.32781680930E+01 -0.13448914810E+03 -0.62377015683E+02  0.14828678103E+03  0.00000000000E+00 0.  1.
<mgrwt>
<rscale>  2 0.13452909E+03</rscale>
<asrwt>0</asrwt>
<pdfrwt beam="1">  1       21 0.81401208E-02 0.13452909E+03</pdfrwt>
<pdfrwt beam="2">  1       21 0.86121204E-01 0.13452909E+03</pdfrwt>
<totfact> 0.13825251E+05</totfact>
</mgrwt>
</event>
<event>
 4    1  0.6052129E+003  0.1172293E+03  0.7546771E-02  0.1247739E+00
         21   -1    0    0  502  501  0.00000000000E+00  0.00000000000E+00  0.28989736377E+03  0.28989736377E+03  0.00000000000E+00 0. -1.
         21   -1    0    0  504  502 -0.00000000000E+00 -0.00000000000E+00 -0.52165356496E+03  0.52165356496E+03  0.00000000000E+00 0. -1.
         21    1    1    2  503  501 -0.11264210890E+03 -0.32472544310E+02  0.27102080995E+03  0.29528797852E+03  0.00000000000E+00 0. -1.
         21    1    1    2  504  503  0.11264210890E+03  0.32472544310E+02 -0.50277701114E+03  0.51626295021E+03  0.00000000000E+00 0. -1.
<mgrwt>
<rscale>  2 0.11722931E+03</rscale>
<asrwt>0</asrwt>
<pdfrwt beam="1">  1       21 0.44599595E-01 0.11722931E+03</pdfrwt>
<pdfrwt beam="2">  1       21 0.80254394E-01 0.11722931E+03</pdfrwt>
<totfact> 0.70352150E+03</totfact>
</mgrwt>
</event>
<event>
 4    1  0.6052129E+003  0.1508207E+03  0.7546771E-02  0.1199468E+00
         21   -1    0    0  503  501  0.00000000000E+00  0.00000000000E+00  0.10110963763E+03  0.10110963763E+03  0.00000000000E+00 0.  1.
         21   -1    0    0  504  502 -0.00000000000E+00 -0.00000000000E+00 -0.17081623130E+04  0.17081623130E+04  0.00000000000E+00 0.  1.
         21    1    1    2  503  502 -0.31489206593E+02  0.14749686889E+03 -0.16464876465E+04  0.16533809200E+04  0.00000000000E+00 0.  1.
         21    1    1    2  504  501  0.31489206593E+02 -0.14749686889E+03  0.39434971204E+02  0.15589103059E+03  0.00000000000E+00 0.  1.
<mgrwt>
<rscale>  2 0.15082074E+03</rscale>
<asrwt>0</asrwt>
<pdfrwt beam="1">  1       21 0.15555330E-01 0.15082074E+03</pdfrwt>
<pdfrwt beam="2">  1       21 0.26279418E+00 0.15082074E+03</pdfrwt>
<totfact> 0.21693947E+03</totfact>
</mgrwt>
</event>
<event>
 4    1  0.6052129E+003  0.1398504E+03  0.7546771E-02  0.1213530E+00
         21   -1    0    0  504  501  0.00000000000E+00  0.00000000000E+00  0.54297916461E+02  0.54297916461E+02  0.00000000000E+00 0.  1.
         21   -1    0    0  503  502 -0.00000000000E+00 -0.00000000000E+00 -0.40953726512E+03  0.40953726512E+03  0.00000000000E+00 0.  1.
         21    1    1    2  503  501 -0.24698424586E+02  0.13765220598E+03 -0.25811522601E+03  0.29356704837E+03  0.00000000000E+00 0.  1.
         21    1    1    2  504  502  0.24698424586E+02 -0.13765220598E+03 -0.97124122644E+02  0.17026813321E+03  0.00000000000E+00 0.  1.
<mgrwt>
<rscale>  2 0.13985043E+03</rscale>
<asrwt>0</asrwt>
<pdfrwt beam="1">  1       21 0.83535256E-02 0.13985043E+03</pdfrwt>
<pdfrwt beam="2">  1       21 0.63005733E-01 0.13985043E+03</pdfrwt>
<totfact> 0.26295935E+05</totfact>
</mgrwt>
</event>
<event>
 4    1  0.6052129E+003  0.1352987E+03  0.7546771E-02  0.1219799E+00
         21   -1    0    0  503  501  0.00000000000E+00  0.00000000000E+00  0.16627522176E+03  0.16627522176E+03  0.00000000000E+00 0.  1.
         21   -1    0    0  504  502 -0.00000000000E+00 -0.00000000000E+00 -0.11338199211E+03  0.11338199211E+03  0.00000000000E+00 0.  1.
         21    1    1    2  503  502 -0.57048711500E+02 -0.12268321990E+03  0.26311314983E+01  0.13532424314E+03  0.00000000000E+00 0.  1.
         21    1    1    2  504  501  0.57048711500E+02  0.12268321990E+03  0.50262098157E+02  0.14433297073E+03  0.00000000000E+00 0.  1.
<mgrwt>
<rscale>  2 0.13529866E+03</rscale>
<asrwt>0</asrwt>
<pdfrwt beam="1">  1       21 0.25580803E-01 0.13529866E+03</pdfrwt>
<pdfrwt beam="2">  1       21 0.17443383E-01 0.13529866E+03</pdfrwt>
<totfact> 0.43508254E+05</totfact>
</mgrwt>
</event>
<event>
 4    1  0.6052129E+003  0.1290039E+03  0.7546771E-02  0.1228941E+00
         21   -1    0    0  503  501  0.00000000000E+00  0.00000000000E+00  0.10038481716E+02  0.10038481716E+02  0.00000000000E+00 0. -1.
         21   -1    0    0  504  502 -0.00000000000E+00 -0.00000000000E+00 -0.18568909597E+04  0.18568909597E+04  0.00000000000E+00 0.  1.
         21    1    1    2  503  502  0.81512993820E+02 -0.99988202225E+02 -0.61778830741E+03  0.63111362013E+03  0.00000000000E+00 0. -1.
         21    1    1    2  504  501 -0.81512993820E+02  0.99988202225E+02 -0.12290641706E+04  0.12358158213E+04  0.00000000000E+00 0.  1.
<mgrwt>
<rscale>  2 0.12900391E+03</rscale>
<asrwt>0</asrwt>
<pdfrwt beam="1">  1       21 0.15443810E-02 0.12900391E+03</pdfrwt>
<pdfrwt beam="2">  1       21 0.28567568E+00 0.12900391E+03</pdfrwt>
<totfact> 0.81855627E+04</totfact>
</mgrwt>
</event>
<event>
 4    1  0.6052129E+003  0.1098912E+03  0.7546771E-02  0.1260771E+00
         21   -1    0    0  504  501  0.00000000000E+00  0.00000000000E+00  0.91565460734E+02  0.91565460734E+02  0.00000000000E+00 0.  1.
         21   -1    0    0  503  502 -0.00000000000E+00 -0.00000000000E+00 -0.19664537449E+03  0.19664537449E+03  0.00000000000E+00 0.  1.
         21    1    1    2  503  501 -0.80536323416E+02  0.74766211157E+02 -0.13523777176E+03  0.17425653684E+03  0.00000000000E+00 0.  1.
         21    1    1    2  504  502  0.80536323416E+02 -0.74766211157E+02  0.30157858008E+02  0.11395429838E+03  0.00000000000E+00 0.  1.
<mgrwt>
<rscale>  2 0.10989124E+03</rscale>
<asrwt>0</asrwt>
<pdfrwt beam="1">  1       21 0.14086994E-01 0.10989124E+03</pdfrwt>
<pdfrwt beam="2">  1       21 0.30253134E-01 0.10989124E+03</pdfrwt>
<totfact> 0.46576279E+05</totfact>
</mgrwt>
</event>
<event>
 4    1  0.6052129E+003  0.1125629E+03  0.7546771E-02  0.1255896E+00
         21   -1    0    0  503  501  0.00000000000E+00  0.00000000000E+00  0.12096913493E+03  0.12096913493E+03  0.00000000000E+00 0. -1.
         21   -1    0    0  504  502 -0.00000000000E+00 -0.00000000000E+00 -0.10493443587E+03  0.10493443587E+03  0.00000000000E+00 0. -1.
         21    1    1    2  503  502  0.25630609511E+02  0.10960597497E+03  0.12870047822E+02  0.11329623129E+03  0.00000000000E+00 0. -1.
         21    1    1    2  504  501 -0.25630609511E+02 -0.10960597497E+03  0.31646512347E+01  0.11260733951E+03  0.00000000000E+00 0. -1.
<mgrwt>
<rscale>  2 0.11256286E+03</rscale>
<asrwt>0</asrwt>
<pdfrwt beam="1">  1       21 0.18610636E-01 0.11256286E+03</pdfrwt>
<pdfrwt beam="2">  1       21 0.16143759E-01 0.11256286E+03</pdfrwt>
<totfact> 0.90609398E+05</totfact>
</mgrwt>
</event>
<event>
 4    1  0.6052129E+003  0.1001151E+03  0.7546771E-02  0.1280054E+00
         21   -1    0    0  504  501  0.00000000000E+00  0.00000000000E+00  0.15757723669E+04  0.15757723669E+04  0.00000000000E+00 0.  1.
         21   -1    0    0  503  502 -0.00000000000E+00 -0.00000000000E+00 -0.15245897497E+02  0.15245897497E+02  0.00000000000E+00 0.  1.
         21    1    1    2  503  501  0.59480756036E+02 -0.80529955640E+02  0.17296513380E+03  0.19984987267E+03  0.00000000000E+00 0.  1.
         21    1    1    2  504  502 -0.59480756036E+02  0.80529955640E+02  0.13875613356E+04  0.13911683917E+04  0.00000000000E+00 0.  1.
<mgrwt>
<rscale>  2 0.10011510E+03</rscale>
<asrwt>0</asrwt>
<pdfrwt beam="1">  1       21 0.24242639E+00 0.10011510E+03</pdfrwt>
<pdfrwt beam="2">  1       21 0.23455239E-02 0.10011510E+03</pdfrwt>
<totfact> 0.75749440E+04</totfact>
</mgrwt>
</event>
<event>
 4    1  0.6052129E+003  0.1227478E+03  0.7546771E-02  0.1238632E+00
         21   -1    0    0  504  501  0.00000000000E+00  0.00000000000E+00  0.16112298816E+03  0.16112298816E+03  0.00000000000E+00 0. -1.
         21   -1    0    0  501  502 -0.00000000000E+00 -0.00000000000E+00 -0.99839072272E+02  0.99839072272E+02  0.00000000000E+00 0. -1.
         21    1    1    2  503  502 -0.86423701877E+02 -0.87166264893E+02 -0.22039467224E+01  0.12276755012E+03  0.00000000000E+00 0. -1.
         21    1    1    2  504  503  0.86423701877E+02  0.87166264893E+02  0.63487862613E+02  0.13819451031E+03  0.00000000000E+00 0. -1.
<mgrwt>
<rscale>  2 0.12274777E+03</rscale>
<asrwt>0</asrwt>
<pdfrwt beam="1">  1       21 0.24788152E-01 0.12274777E+03</pdfrwt>
<pdfrwt beam="2">  1       21 0.15359857E-01 0.12274777E+03</pdfrwt>
<totfact> 0.58223039E+05</totfact>
</mgrwt>
</event>
<event>
 4    1  0.6052129E+003  0.1836435E+03  0.7546771E-02  0.1164323E+00
         21   -1    0    0  503  501  0.00000000000E+00  0.00000000000E+00  0.14663278538E+03  0.14663278538E+03  0.00000000000E+00 0.  1.
         21   -1    0    0  504  502 -0.00000000000E+00 -0.00000000000E+00 -0.29179193345E+03  0.29179193345E+03  0.00000000000E+00 0. -1.
         21    1    1    2  503  502  0.16573746744E+03  0.79094988268E+02 -0.17346049416E+03  0.25261327819E+03  0.00000000000E+00 0. -1.
         21    1    1    2  504  501 -0.16573746744E+03 -0.79094988268E+02  0.28301346085E+02  0.18581144064E+03  0.00000000000E+00 0.  1.
<mgrwt>
<rscale>  2 0.18364347E+03</rscale>
<asrwt>0</asrwt>
<pdfrwt beam="1">  1       21 0.22558890E-01 0.18364347E+03</pdfrwt>
<pdfrwt beam="2">  1       21 0.44891067E-01 0.18364347E+03</pdfrwt>
<totfact> 0.87987055E+04</totfact>
</mgrwt>
</event>
<event>
 4    1  0.6052129E+003  0.1343566E+03  0.7546771E-02  0.1221131E+00
         21   -1    0    0  503  501  0.00000000000E+00  0.00000000000E+00  0.33402127036E+03  0.33402127036E+03  0.00000000000E+00 0. -1.
         21   -1    0    0  504  502 -0.00000000000E+00 -0.00000000000E+00 -0.66498795794E+02  0.66498795794E+02  0.00000000000E+00 0. -1.
         21    1    1    2  503  502 -0.87652644975E+02 -0.10182682100E+03  0.47092206492E+02  0.14237051506E+03  0.00000000000E+00 0. -1.
         21    1    1    2  504  501  0.87652644975E+02  0.10182682100E+03  0.22043026807E+03  0.25814955109E+03  0.00000000000E+00 0. -1.
<mgrwt>
<rscale>  2 0.13435657E+03</rscale>
<asrwt>0</asrwt>
<pdfrwt beam="1">  1       21 0.51387887E-01 0.13435657E+03</pdfrwt>
<pdfrwt beam="2">  1       21 0.10230584E-01 0.13435657E+03</pdfrwt>
<totfact> 0.28422269E+05</totfact>
</mgrwt>
</event>
<event>
 4    1  0.6052129E+003  0.1083357E+03  0.7546771E-02  0.1263683E+00
         21   -1    0    0  503  501  0.00000000000E+00  0.00000000000E+00  0.81869436433E+03  0.81869436433E+03  0.00000000000E+00 0.  1.
         21   -1    0    0  504  502 -0.00000000000E+00 -0.00000000000E+00 -0.19890763913E+02  0.19890763913E+02  0.00000000000E+00 0. -1.
         21    1    1    2  503  502 -0.26651355267E+02 -0.10500630908E+03  0.17782057642E+03  0.20822290240E+03  0.00000000000E+00 0. -1.
         21    1    1    2  504  501  0.26651355267E+02  0.10500630908E+03  0.62098302400E+03  0.63036222585E+03  0.00000000000E+00 0.  1.
<mgrwt>
<rscale>  2 0.10833568E+03</rscale>
<asrwt>0</asrwt>
<pdfrwt beam="1">  1       21 0.12595295E+00 0.10833568E+03</pdfrwt>
<pdfrwt beam="2">  1       21 0.30601181E-02 0.10833568E+03</pdfrwt>
<totfact> 0.29399484E+05</totfact>
</mgrwt>
</event>
<event>
 4    1  0.6052129E+003  0.1569172E+03  0.7546771E-02  0.1192222E+00
         21   -1    0    0  503  501  0.00000000000E+00  0.00000000000E+00  0.31421041207E+03  0.31421041207E+03  0.00000000000E+00 0.  1.
         21   -1    0    0  504  502 -0.00000000000E+00 -0.00000000000E+00 -0.14763698041E+03  0.14763698041E+03  0.00000000000E+00 0.  1.
         21    1    1    2  503  502  0.10192552025E+03  0.11930709424E+03  0.24146642329E+03  0.28797400576E+03  0.00000000000E+00 0.  1.
         21    1    1    2  504  501 -0.10192552025E+03 -0.11930709424E+03 -0.74892991645E+02  0.17387338672E+03  0.00000000000E+00 0.  1.
<mgrwt>
<rscale>  2 0.15691716E+03</rscale>
<asrwt>0</asrwt>
<pdfrwt beam="1">  1       21 0.48340063E-01 0.15691716E+03</pdfrwt>
<pdfrwt beam="2">  1       21 0.22713382E-01 0.15691716E+03</pdfrwt>
<totfact> 0.75450110E+04</totfact>
</mgrwt>
</event>
<event>
 4    1  0.6052129E+003  0.1182912E+03  0.7546771E-02  0.1245943E+00
         21   -1    0    0  503  501  0.00000000000E+00  0.00000000000E+00  0.22295979101E+04  0.22295979101E+04  0.00000000000E+00 0. -1.
         21   -1    0    0  504  502 -0.00000000000E+00 -0.00000000000E+00 -0.78299498459E+01  0.78299498459E+01  0.00000000000E+00 0.  1.
         21    1    1    2  503  502  0.11802276254E+03  0.79649906695E+01  0.61249662802E+03  0.62381482260E+03  0.00000000000E+00 0.  1.
         21    1    1    2  504  501 -0.11802276254E+03 -0.79649906695E+01  0.16092713323E+04  0.16136130374E+04  0.00000000000E+00 0. -1.
<mgrwt>
<rscale>  2 0.11829122E+03</rscale>
<asrwt>0</asrwt>
<pdfrwt beam="1">  1       21 0.34301456E+00 0.11829122E+03</pdfrwt>
<pdfrwt beam="2">  1       21 0.12046094E-02 0.11829122E+03</pdfrwt>
<totfact> 0.58565106E+04</totfact>
</mgrwt>
</event>
<event>
 4    1  0.6052129E+003  0.1274850E+03  0.7546771E-02  0.1231236E+00
         21   -1    0    0  504  501  0.00000000000E+00  0.00000000000E+00  0.79433332655E+02  0.79433332655E+02  0.00000000000E+00 0. -1.
         21   -1    0    0  503  502 -0.00000000000E+00 -0.00000000000E+00 -0.20497856078E+03  0.20497856078E+03  0.00000000000E+00 0. -1.
         21    1    1    2  503  501  0.55707687357E+02 -0.11466947902E+03 -0.68845555574E+02  0.14488666734E+03  0.00000000000E+00 0. -1.
         21    1    1    2  504  502 -0.55707687357E+02  0.11466947902E+03 -0.56699672554E+02  0.13952522610E+03  0.00000000000E+00 0. -1.
<mgrwt>
<rscale>  2 0.12748504E+03</rscale>
<asrwt>0</asrwt>
<pdfrwt beam="1">  1       21 0.12220513E-01 0.12748504E+03</pdfrwt>
<pdfrwt beam="2">  1       21 0.31535163E-01 0.12748504E+03</pdfrwt>
<totfact> 0.55297908E+05</totfact>
</mgrwt>
</event>
<event>
 4    1  0.6052129E+003  0.1077351E+03  0.7546771E-02  0.1264823E+00
         21   -1    0    0  503  501  0.00000000000E+00  0.00000000000E+00  0.43103900808E+03  0.43103900808E+03  0.00000000000E+00 0.  1.
         21   -1    0    0  504  502 -0.00000000000E+00 -0.00000000000E+00 -0.52072539795E+02  0.52072539795E+02  0.00000000000E+00 0.  1.
         21    1    1    2  503  502 -0.73536929023E+02  0.78734818618E+02  0.21626708164E+02  0.10988433054E+03  0.00000000000E+00 0.  1.
         21    1    1    2  504  501  0.73536929023E+02 -0.78734818618E+02  0.35733976012E+03  0.37322721733E+03  0.00000000000E+00 0.  1.
<mgrwt>
<rscale>  2 0.10773510E+03</rscale>
<asrwt>0</asrwt>
<pdfrwt beam="1">  1       21 0.66313691E-01 0.10773510E+03</pdfrwt>
<pdfrwt beam="2">  1       21 0.80111602E-02 0.10773510E+03</pdfrwt>
<totfact> 0.25513831E+05</totfact>
</mgrwt>
</event>
<event>
 4    1  0.6052129E+003  0.1127498E+03  0.7546771E-02  0.1255561E+00
         21   -1    0    0  502  501  0.00000000000E+00  0.00000000000E+00  0.17076801521E+03  0.17076801521E+03  0.00000000000E+00 0. -1.
         21   -1    0    0  503  502 -0.00000000000E+00 -0.00000000000E+00 -0.40946763537E+03  0.40946763537E+03  0.00000000000E+00 0. -1.
         21    1    1    2  503  504  0.31170184975E+02  0.10835562888E+03 -0.38177338364E+03  0.39807466535E+03  0.00000000000E+00 0. -1.
         21    1    1    2  504  501 -0.31170184975E+02 -0.10835562888E+03  0.14307376348E+03  0.18216098522E+03  0.00000000000E+00 0. -1.
<mgrwt>
<rscale>  2 0.11274982E+03</rscale>
<asrwt>0</asrwt>
<pdfrwt beam="1">  1       21 0.26272002E-01 0.11274982E+03</pdfrwt>
<pdfrwt beam="2">  1       21 0.62995020E-01 0.11274982E+03</pdfrwt>
<totfact> 0.33694045E+04</totfact>
</mgrwt>
</event>
<event>
 4    1  0.6052129E+003  0.1085052E+03  0.7546771E-02  0.1263363E+00
         21   -1    0    0  503  501  0.00000000000E+00  0.00000000000E+00  0.92042430420E+02  0.92042430420E+02  0.00000000000E+00 0.  1.
         21   -1    0    0  501  502 -0.00000000000E+00 -0.00000000000E+00 -0.20616366517E+03  0.20616366517E+03  0.00000000000E+00 0.  1.
         21    1    1    2  503  504  0.50870984631E+02  0.95841164452E+02  0.34799206390E+02  0.11394898265E+03  0.00000000000E+00 0.  1.
         21    1    1    2  504  502 -0.50870984631E+02 -0.95841164452E+02 -0.14892044114E+03  0.18425711295E+03  0.00000000000E+00 0.  1.
<mgrwt>
<rscale>  2 0.10850523E+03</rscale>
<asrwt>0</asrwt>
<pdfrwt beam="1">  1       21 0.14160374E-01 0.10850523E+03</pdfrwt>
<pdfrwt beam="2">  1       21 0.31717487E-01 0.10850523E+03</pdfrwt>
<totfact> 0.42131903E+05</totfact>
</mgrwt>
</event>
<event>
 4    1  0.6052129E+003  0.1632876E+03  0.7546771E-02  0.1185034E+00
         21   -1    0    0  504  501  0.00000000000E+00  0.00000000000E+00  0.61067390097E+02  0.61067390097E+02  0.00000000000E+00 0. -1.
         21   -1    0    0  501  502 -0.00000000000E+00 -0.00000000000E+00 -0.60104130655E+03  0.60104130655E+03  0.00000000000E+00 0.  1.
         21    1    1    2  503  502 -0.25063764520E+02 -0.16135257360E+03 -0.44314186526E+03  0.47226852324E+03  0.00000000000E+00 0.  1.
         21    1    1    2  504  503  0.25063764520E+02  0.16135257360E+03 -0.96832051199E+02  0.18984017341E+03  0.00000000000E+00 0. -1.
<mgrwt>
<rscale>  2 0.16328762E+03</rscale>
<asrwt>0</asrwt>
<pdfrwt beam="1">  1       21 0.93949827E-02 0.16328762E+03</pdfrwt>
<pdfrwt beam="2">  1       21 0.92467897E-01 0.16328762E+03</pdfrwt>
<totfact> 0.90516463E+04</totfact>
</mgrwt>
</event>
<event>
 4    1  0.6052129E+003  0.1763247E+03  0.7546771E-02  0.1171408E+00
         21   -1    0    0  504  501  0.00000000000E+00  0.00000000000E+00  0.41355382475E+03  0.41355382475E+03  0.00000000000E+00 0. -1.
         21   -1    0    0  503  502 -0.00000000000E+00 -0.00000000000E+00 -0.12121958348E+03  0.12121958348E+03  0.00000000000E+00 0. -1.
         21    1    1    2  503  501 -0.17318411341E+03  0.33130995826E+02 -0.18620917132E+02  0.17730521306E+03  0.00000000000E+00 0. -1.
         21    1    1    2  504  502  0.17318411341E+03 -0.33130995826E+02  0.31095515840E+03  0.35746819517E+03  0.00000000000E+00 0. -1.
<mgrwt>
<rscale>  2 0.17632470E+03</rscale>
<asrwt>0</asrwt>
<pdfrwt beam="1">  1       21 0.63623665E-01 0.17632470E+03</pdfrwt>
<pdfrwt beam="2">  1       21 0.18649167E-01 0.17632470E+03</pdfrwt>
<totfact> 0.60478793E+04</totfact>
</mgrwt>
</event>
<event>
 4    1  0.6052129E+003  0.1347516E+03  0.7546771E-02  0.1220571E+00
         21   -1    0    0  504  501  0.00000000000E+00  0.00000000000E+00  0.18180812260E+03  0.18180812260E+03  0.00000000000E+00 0.  1.
         21   -1    0    0  503  502 -0.00000000000E+00 -0.00000000000E+00 -0.56979372994E+03  0.56979372994E+03  0.00000000000E+00 0. -1.
         21    1    1    2  503  501  0.13436032168E+03 -0.10261818405E+02  0.14728701529E+03  0.19962831921E+03  0.00000000000E+00 0.  1.
         21    1    1    2  504  502 -0.13436032168E+03  0.10261818405E+02 -0.53527262263E+03  0.55197353333E+03  0.00000000000E+00 0. -1.
<mgrwt>
<rscale>  2 0.13475163E+03</rscale>
<asrwt>0</asrwt>
<pdfrwt beam="1">  1       21 0.27970480E-01 0.13475163E+03</pdfrwt>
<pdfrwt beam="2">  1       21 0.87660575E-01 0.13475163E+03</pdfrwt>
<totfact> 0.14203365E+04</totfact>
</mgrwt>
</event>
<event>
 4    1  0.6052129E+003  0.1331636E+03  0.7546771E-02  0.1222836E+00
         21   -1    0    0  503  501  0.00000000000E+00  0.00000000000E+00  0.30845639998E+02  0.30845639998E+02  0.00000000000E+00 0. -1.
         21   -1    0    0  504  502 -0.00000000000E+00 -0.00000000000E+00 -0.10253100402E+04  0.10253100402E+04  0.00000000000E+00 0. -1.
         21    1    1    2  503  502  0.61259094714E+02 -0.11823645798E+03 -0.84724512962E+03  0.85764610787E+03  0.00000000000E+00 0. -1.
         21    1    1    2  504  501 -0.61259094714E+02  0.11823645798E+03 -0.14721927062E+03  0.19850957237E+03  0.00000000000E+00 0. -1.
<mgrwt>
<rscale>  2 0.13316357E+03</rscale>
<asrwt>0</asrwt>
<pdfrwt beam="1">  1       21 0.47454824E-02 0.13316357E+03</pdfrwt>
<pdfrwt beam="2">  1       21 0.15774003E+00 0.13316357E+03</pdfrwt>
<totfact> 0.79391064E+04</totfact>
</mgrwt>
</event>
<event>
 4    1  0.6052129E+003  0.1399796E+03  0.7546771E-02  0.1213356E+00
         21   -1    0    0  504  501  0.00000000000E+00  0.00000000000E+00  0.66045830097E+03  0.66045830097E+03  0.00000000000E+00 0.  1.
         21   -1    0    0  503  502 -0.00000000000E+00 -0.00000000000E+00 -0.30433302158E+02  0.30433302158E+02  0.00000000000E+00 0.  1.
         21    1    1    2  503  501 -0.13169149800E+03 -0.47451302538E+02  0.36980331989E+03  0.39540962578E+03  0.00000000000E+00 0.  1.
         21    1    1    2  504  502  0.13169149800E+03  0.47451302538E+02  0.26022167892E+03  0.29548197735E+03  0.00000000000E+00 0.  1.
<mgrwt>
<rscale>  2 0.13997956E+03</rscale>
<asrwt>0</asrwt>
<pdfrwt beam="1">  1       21 0.10160896E+00 0.13997956E+03</pdfrwt>
<pdfrwt beam="2">  1       21 0.46820470E-02 0.13997956E+03</pdfrwt>
<totfact> 0.24134821E+05</totfact>
</mgrwt>
</event>
<event>
 4    1  0.6052129E+003  0.1380133E+03  0.7546771E-02  0.1216027E+00
         21   -1    0    0  503  501  0.00000000000E+00  0.00000000000E+00  0.59371081929E+03  0.59371081929E+03  0.00000000000E+00 0.  1.
         21   -1    0    0  504  502 -0.00000000000E+00 -0.00000000000E+00 -0.44037774863E+02  0.44037774863E+02  0.00000000000E+00 0.  1.
         21    1    1    2  503  502  0.93698770241E+02  0.10133222386E+03  0.10869121130E+03  0.17567429679E+03  0.00000000000E+00 0.  1.
         21    1    1    2  504  501 -0.93698770241E+02 -0.10133222386E+03  0.44098183312E+03  0.46207429736E+03  0.00000000000E+00 0.  1.
<mgrwt>
<rscale>  2 0.13801333E+03</rscale>
<asrwt>0</asrwt>
<pdfrwt beam="1">  1       21 0.91340120E-01 0.13801333E+03</pdfrwt>
<pdfrwt beam="2">  1       21 0.67750427E-02 0.13801333E+03</pdfrwt>
<totfact> 0.16550805E+05</totfact>
</mgrwt>
</event>
<event>
 4    1  0.6052129E+003  0.1469271E+03  0.7546771E-02  0.1204301E+00
         21   -1    0    0  503  501  0.00000000000E+00  0.00000000000E+00  0.98950286700E+02  0.98950286700E+02  0.00000000000E+00 0.  1.
         21   -1    0    0  501  502 -0.00000000000E+00 -0.00000000000E+00 -0.21853167718E+03  0.21853167718E+03  0.00000000000E+00 0. -1.
         21    1    1    2  503  504  0.84587586158E+02 -0.12013539973E+03 -0.66285502762E+02  0.16118728820E+03  0.00000000000E+00 0. -1.
         21    1    1    2  504  502 -0.84587586158E+02  0.12013539973E+03 -0.53295887719E+02  0.15629467568E+03  0.00000000000E+00 0.  1.
<mgrwt>
<rscale>  2 0.14692710E+03</rscale>
<asrwt>0</asrwt>
<pdfrwt beam="1">  1       21 0.15223121E-01 0.14692710E+03</pdfrwt>
<pdfrwt beam="2">  1       21 0.33620257E-01 0.14692710E+03</pdfrwt>
<totfact> 0.32849876E+05</totfact>
</mgrwt>
</event>
<event>
 4    1  0.6052129E+003  0.1083381E+03  0.7546771E-02  0.1263679E+00
         21   -1    0    0  504  501  0.00000000000E+00  0.00000000000E+00  0.31672212964E+03  0.31672212964E+03  0.00000000000E+00 0.  1.
         21   -1    0    0  501  502 -0.00000000000E+00 -0.00000000000E+00 -0.45093780320E+02  0.45093780320E+02  0.00000000000E+00 0.  1.
         21    1    1    2  503  502 -0.25460965187E+02 -0.10530377024E+03  0.59446672879E+02  0.12357609676E+03  0.00000000000E+00 0.  1.
         21    1    1    2  504  503  0.25460965187E+02  0.10530377024E+03  0.21218167644E+03  0.23823981320E+03  0.00000000000E+00 0.  1.
<mgrwt>
<rscale>  2 0.10833810E+03</rscale>
<asrwt>0</asrwt>
<pdfrwt beam="1">  1       21 0.48726480E-01 0.10833810E+03</pdfrwt>
<pdfrwt beam="2">  1       21 0.69375049E-02 0.10833810E+03</pdfrwt>
<totfact> 0.62221260E+05</totfact>
</mgrwt>
</event>
<event>
 4    1  0.6052129E+003  0.1133253E+03  0.7546771E-02  0.1254533E+00
         21   -1    0    0  503  501  0.00000000000E+00  0.00000000000E+00  0.22521365371E+03  0.22521365371E+03  0.00000000000E+00 0. -1.
         21   -1    0    0  504  502 -0.00000000000E+00 -0.00000000000E+00 -0.69938437410E+02  0.69938437410E+02  0.00000000000E+00 0. -1.
         21    1    1    2  503  502 -0.10995446919E+03  0.27434444186E+02  0.14105258993E+03  0.18093774385E+03  0.00000000000E+00 0. -1.
         21    1    1    2  504  501  0.10995446919E+03 -0.27434444186E+02  0.14222626367E+02  0.11421434727E+03  0.00000000000E+00 0. -1.
<mgrwt>
<rscale>  2 0.11332535E+03</rscale>
<asrwt>0</asrwt>
<pdfrwt beam="1">  1       21 0.34648254E-01 0.11332535E+03</pdfrwt>
<pdfrwt beam="2">  1       21 0.10759760E-01 0.11332535E+03</pdfrwt>
<totfact> 0.57652723E+05</totfact>
</mgrwt>
</event>
<event>
 4    1  0.6052129E+003  0.2380722E+03  0.7546771E-02  0.1121084E+00
         21   -1    0    0  503  501  0.00000000000E+00  0.00000000000E+00  0.55209626916E+03  0.55209626916E+03  0.00000000000E+00 0. -1.
         21   -1    0    0  504  502 -0.00000000000E+00 -0.00000000000E+00 -0.84767681802E+03  0.84767681802E+03  0.00000000000E+00 0. -1.
         21    1    1    2  503  502 -0.19977811966E+03 -0.12948779444E+03 -0.80392863947E+03  0.83843881313E+03  0.00000000000E+00 0. -1.
         21    1    1    2  504  501  0.19977811966E+03  0.12948779444E+03  0.50834809061E+03  0.56133427406E+03  0.00000000000E+00 0. -1.
<mgrwt>
<rscale>  2 0.23807223E+03</rscale>
<asrwt>0</asrwt>
<pdfrwt beam="1">  1       21 0.84937888E-01 0.23807223E+03</pdfrwt>
<pdfrwt beam="2">  1       21 0.13041182E+00 0.23807223E+03</pdfrwt>
<totfact> 0.49117489E+02</totfact>
</mgrwt>
</event>
<event>
 4    1  0.6052129E+003  0.1165721E+03  0.7546771E-02  0.1248862E+00
         21   -1    0    0  503  501  0.00000000000E+00  0.00000000000E+00  0.13430725856E+03  0.13430725856E+03  0.00000000000E+00 0. -1.
         21   -1    0    0  501  502 -0.00000000000E+00 -0.00000000000E+00 -0.26371794241E+03  0.26371794241E+03  0.00000000000E+00 0.  1.
         21    1    1    2  503  504 -0.50079791467E+02 -0.10526667986E+03  0.91533710549E+02  0.14821430285E+03  0.00000000000E+00 0. -1.
         21    1    1    2  504  502  0.50079791467E+02  0.10526667986E+03 -0.22094439440E+03  0.24981089812E+03  0.00000000000E+00 0.  1.
<mgrwt>
<rscale>  2 0.11657212E+03</rscale>
<asrwt>0</asrwt>
<pdfrwt beam="1">  1       21 0.20662655E-01 0.11657212E+03</pdfrwt>
<pdfrwt beam="2">  1       21 0.40571991E-01 0.11657212E+03</pdfrwt>
<totfact> 0.13051777E+05</totfact>
</mgrwt>
</event>
<event>
 4    1  0.6052129E+003  0.1057454E+03  0.7546771E-02  0.1268658E+00
         21   -1    0    0  502  501  0.00000000000E+00  0.00000000000E+00  0.63672435812E+02  0.63672435812E+02  0.00000000000E+00 0.  1.
         21   -1    0    0  503  502 -0.00000000000E+00 -0.00000000000E+00 -0.21817979686E+04  0.21817979686E+04  0.00000000000E+00 0.  1.
         21    1    1    2  503  504  0.10547121310E+03  0.76107105742E+01 -0.21356640480E+04  0.21382803898E+04  0.00000000000E+00 0.  1.
         21    1    1    2  504  501 -0.10547121310E+03 -0.76107105742E+01  0.17538515204E+02  0.10719001457E+03  0.00000000000E+00 0.  1.
<mgrwt>
<rscale>  2 0.10574545E+03</rscale>
<asrwt>0</asrwt>
<pdfrwt beam="1">  1       21 0.97957618E-02 0.10574545E+03</pdfrwt>
<pdfrwt beam="2">  1       21 0.33566114E+00 0.10574545E+03</pdfrwt>
<totfact> 0.20832965E+03</totfact>
</mgrwt>
</event>
<event>
 4    1  0.6052129E+003  0.1067537E+03  0.7546771E-02  0.1266702E+00
         21   -1    0    0  503  501  0.00000000000E+00  0.00000000000E+00  0.10811405628E+02  0.10811405628E+02  0.00000000000E+00 0.  1.
         21   -1    0    0  504  502 -0.00000000000E+00 -0.00000000000E+00 -0.10604972065E+04  0.10604972065E+04  0.00000000000E+00 0.  1.
         21    1    1    2  503  502 -0.68782851947E+02 -0.81641119868E+02 -0.48325505699E+03  0.49490585295E+03  0.00000000000E+00 0.  1.
         21    1    1    2  504  501  0.68782851947E+02  0.81641119868E+02 -0.56643074386E+03  0.57640275916E+03  0.00000000000E+00 0.  1.
<mgrwt>
<rscale>  2 0.10675370E+03</rscale>
<asrwt>0</asrwt>
<pdfrwt beam="1">  1       21 0.16632932E-02 0.10675370E+03</pdfrwt>
<pdfrwt beam="2">  1       21 0.16315341E+00 0.10675370E+03</pdfrwt>
<totfact> 0.40782352E+05</totfact>
</mgrwt>
</event>
<event>
 4    1  0.6052129E+003  0.1105795E+03  0.7546771E-02  0.1259501E+00
         21   -1    0    0  503  501  0.00000000000E+00  0.00000000000E+00  0.18436114555E+03  0.18436114555E+03  0.00000000000E+00 0.  1.
         21   -1    0    0  504  502 -0.00000000000E+00 -0.00000000000E+00 -0.12468874103E+03  0.12468874103E+03  0.00000000000E+00 0.  1.
         21    1    1    2  503  502  0.96326883723E+02 -0.54304209742E+02  0.13555574293E+03  0.17493763222E+03  0.00000000000E+00 0.  1.
         21    1    1    2  504  501 -0.96326883723E+02  0.54304209742E+02 -0.75883338407E+02  0.13411225437E+03  0.00000000000E+00 0.  1.
<mgrwt>
<rscale>  2 0.11057945E+03</rscale>
<asrwt>0</asrwt>
<pdfrwt beam="1">  1       21 0.28363253E-01 0.11057945E+03</pdfrwt>
<pdfrwt beam="2">  1       21 0.19182883E-01 0.11057945E+03</pdfrwt>
<totfact> 0.30143126E+05</totfact>
</mgrwt>
</event>
<event>
 4    1  0.6052129E+003  0.1032575E+03  0.7546771E-02  0.1273591E+00
         21   -1    0    0  503  501  0.00000000000E+00  0.00000000000E+00  0.10696541469E+03  0.10696541469E+03  0.00000000000E+00 0.  1.
         21   -1    0    0  504  502 -0.00000000000E+00 -0.00000000000E+00 -0.14454399950E+03  0.14454399950E+03  0.00000000000E+00 0. -1.
         21    1    1    2  503  502 -0.94357623239E+02  0.41937470631E+02  0.51272664092E+02  0.11528659328E+03  0.00000000000E+00 0.  1.
         21    1    1    2  504  501  0.94357623239E+02 -0.41937470631E+02 -0.88851248898E+02  0.13622282091E+03  0.00000000000E+00 0. -1.
<mgrwt>
<rscale>  2 0.10325751E+03</rscale>
<asrwt>0</asrwt>
<pdfrwt beam="1">  1       21 0.16456218E-01 0.10325751E+03</pdfrwt>
<pdfrwt beam="2">  1       21 0.22237538E-01 0.10325751E+03</pdfrwt>
<totfact> 0.63003913E+05</totfact>
</mgrwt>
</event>
<event>
 4    1  0.6052129E+003  0.1152979E+03  0.7546771E-02  0.1251062E+00
         21   -1    0    0  504  501  0.00000000000E+00  0.00000000000E+00  0.12834125972E+03  0.12834125972E+03  0.00000000000E+00 0. -1.
         21   -1    0    0  501  502 -0.00000000000E+00 -0.00000000000E+00 -0.24070226421E+03  0.24070226421E+03  0.00000000000E+00 0.  1.
         21    1    1    2  503  502 -0.32802771176E+02 -0.11053313636E+03 -0.19545172549E+03  0.22692503834E+03  0.00000000000E+00 0.  1.
         21    1    1    2  504  503  0.32802771176E+02  0.11053313636E+03  0.83090720994E+02  0.14211848559E+03  0.00000000000E+00 0. -1.
<mgrwt>
<rscale>  2 0.11529786E+03</rscale>
<asrwt>0</asrwt>
<pdfrwt beam="1">  1       21 0.19744809E-01 0.11529786E+03</pdfrwt>
<pdfrwt beam="2">  1       21 0.37031117E-01 0.11529786E+03</pdfrwt>
<totfact> 0.17020957E+05</totfact>
</mgrwt>
</event>
<event>
 4    1  0.6052129E+003  0.1217389E+03  0.7546771E-02  0.1240256E+00
         21   -1    0    0  504  501  0.00000000000E+00  0.00000000000E+00  0.20293449485E+03  0.20293449485E+03  0.00000000000E+00 0. -1.
         21   -1    0    0  503  502 -0.00000000000E+00 -0.00000000000E+00 -0.85536130559E+02  0.85536130559E+02  0.00000000000E+00 0.  1.
         21    1    1    2  503  501  0.10553584843E+03  0.60684064604E+02  0.35482659567E+01  0.12179064493E+03  0.00000000000E+00 0.  1.
         21    1    1    2  504  502 -0.10553584843E+03 -0.60684064604E+02  0.11385009833E+03  0.16667998048E+03  0.00000000000E+00 0. -1.
<mgrwt>
<rscale>  2 0.12173895E+03</rscale>
<asrwt>0</asrwt>
<pdfrwt beam="1">  1       21 0.31220691E-01 0.12173895E+03</pdfrwt>
<pdfrwt beam="2">  1       21 0.13159405E-01 0.12173895E+03</pdfrwt>
<totfact> 0.49448439E+05</totfact>
</mgrwt>
</event>
<event>
 4    1  0.6052129E+003  0.1434049E+03  0.7546771E-02  0.1208820E+00
         21   -1    0    0  504  501  0.00000000000E+00  0.00000000000E+00  0.14158533822E+03  0.14158533822E+03  0.00000000000E+00 0.  1.
         21   -1    0    0  503  502 -0.00000000000E+00 -0.00000000000E+00 -0.16590696655E+03  0.16590696655E+03  0.00000000000E+00 0.  1.
         21    1    1    2  503  501 -0.93112309619E+02 -0.10906445072E+03 -0.66414408036E+02  0.15803743293E+03  0.00000000000E+00 0.  1.
         21    1    1    2  504  502  0.93112309619E+02  0.10906445072E+03  0.42092779704E+02  0.14945487184E+03  0.00000000000E+00 0.  1.
<mgrwt>
<rscale>  2 0.14340487E+03</rscale>
<asrwt>0</asrwt>
<pdfrwt beam="1">  1       21 0.21782360E-01 0.14340487E+03</pdfrwt>
<pdfrwt beam="2">  1       21 0.25524149E-01 0.14340487E+03</pdfrwt>
<totfact> 0.28944495E+05</totfact>
</mgrwt>
</event>
<event>
 4    1  0.6052129E+003  0.1114871E+03  0.7546771E-02  0.1257841E+00
         21   -1    0    0  502  501  0.00000000000E+00  0.00000000000E+00  0.14243454643E+02  0.14243454643E+02  0.00000000000E+00 0. -1.
         21   -1    0    0  504  502 -0.00000000000E+00 -0.00000000000E+00 -0.14586098950E+04  0.14586098950E+04  0.00000000000E+00 0. -1.
         21    1    1    2  503  501 -0.51565270547E+02  0.98845299905E+02 -0.25541791272E+03  0.27868921863E+03  0.00000000000E+00 0. -1.
         21    1    1    2  504  503  0.51565270547E+02 -0.98845299905E+02 -0.11889485276E+04  0.11941641310E+04  0.00000000000E+00 0. -1.
<mgrwt>
<rscale>  2 0.11148709E+03</rscale>
<asrwt>0</asrwt>
<pdfrwt beam="1">  1       21 0.21913011E-02 0.11148709E+03</pdfrwt>
<pdfrwt beam="2">  1       21 0.22440149E+00 0.11148709E+03</pdfrwt>
<totfact> 0.10625736E+05</totfact>
</mgrwt>
</event>
<event>
 4    1  0.6052129E+003  0.1002803E+03  0.7546771E-02  0.1279708E+00
         21   -1    0    0  504  501  0.00000000000E+00  0.00000000000E+00  0.43877097122E+02  0.43877097122E+02  0.00000000000E+00 0.  1.
         21   -1    0    0  503  502 -0.00000000000E+00 -0.00000000000E+00 -0.22969649702E+03  0.22969649702E+03  0.00000000000E+00 0.  1.
         21    1    1    2  503  501  0.10022362571E+03 -0.33708539106E+01 -0.86478629732E+02  0.13241862107E+03  0.00000000000E+00 0.  1.
         21    1    1    2  504  502 -0.10022362571E+03  0.33708539106E+01 -0.99340770162E+02  0.14115497307E+03  0.00000000000E+00 0.  1.
<mgrwt>
<rscale>  2 0.10028030E+03</rscale>
<asrwt>0</asrwt>
<pdfrwt beam="1">  1       21 0.67503227E-02 0.10028030E+03</pdfrwt>
<pdfrwt beam="2">  1       21 0.35337922E-01 0.10028030E+03</pdfrwt>
<totfact> 0.12373630E+06</totfact>
</mgrwt>
</event>
<event>
 4    1  0.6052129E+003  0.1037815E+03  0.7546771E-02  0.1272539E+00
         21   -1    0    0  503  501  0.00000000000E+00  0.00000000000E+00  0.18341182361E+02  0.18341182361E+02  0.00000000000E+00 0.  1.
         21   -1    0    0  501  502 -0.00000000000E+00 -0.00000000000E+00 -0.13890340751E+04  0.13890340751E+04  0.00000000000E+00 0. -1.
         21    1    1    2  503  504  0.33570499065E+02 -0.98201950214E+02 -0.15071316876E+03  0.18298923649E+03  0.00000000000E+00 0.  1.
         21    1    1    2  504  502 -0.33570499065E+02  0.98201950214E+02 -0.12199797240E+04  0.12243860210E+04  0.00000000000E+00 0. -1.
<mgrwt>
<rscale>  2 0.10378151E+03</rscale>
<asrwt>0</asrwt>
<pdfrwt beam="1">  1       21 0.28217210E-02 0.10378151E+03</pdfrwt>
<pdfrwt beam="2">  1       21 0.21369750E+00 0.10378151E+03</pdfrwt>
<totfact> 0.82266602E+04</totfact>
</mgrwt>
</event>
<event>
 4    1  0.6052129E+003  0.1019289E+03  0.7546771E-02  0.1276291E+00
         21   -1    0    0  503  501  0.00000000000E+00  0.00000000000E+00  0.25192769274E+02  0.25192769274E+02  0.00000000000E+00 0. -1.
         21   -1    0    0  504  502 -0.00000000000E+00 -0.00000000000E+00 -0.42224174635E+03  0.42224174635E+03  0.00000000000E+00 0. -1.
         21    1    1    2  503  502  0.97902012118E+02  0.28367059296E+02 -0.16436915690E+03  0.19340815332E+03  0.00000000000E+00 0. -1.
         21    1    1    2  504  501 -0.97902012118E+02 -0.28367059296E+02 -0.23267982018E+03  0.25402636231E+03  0.00000000000E+00 0. -1.
<mgrwt>
<rscale>  2 0.10192887E+03</rscale>
<asrwt>0</asrwt>
<pdfrwt beam="1">  1       21 0.38758105E-02 0.10192887E+03</pdfrwt>
<pdfrwt beam="2">  1       21 0.64960271E-01 0.10192887E+03</pdfrwt>
<totfact> 0.90418466E+05</totfact>
</mgrwt>
</event>
<event>
 4    1  0.6052129E+003  0.1063076E+03  0.7546771E-02  0.1267565E+00
         21   -1    0    0  504  501  0.00000000000E+00  0.00000000000E+00  0.39925586872E+03  0.39925586872E+03  0.00000000000E+00 0. -1.
         21   -1    0    0  503  502 -0.00000000000E+00 -0.00000000000E+00 -0.30063477339E+02  0.30063477339E+02  0.00000000000E+00 0. -1.
         21    1    1    2  503  501  0.82943773169E+02 -0.66495388449E+02  0.13269407058E+03  0.17002653487E+03  0.00000000000E+00 0. -1.
         21    1    1    2  504  502 -0.82943773169E+02  0.66495388449E+02  0.23649832080E+03  0.25929281119E+03  0.00000000000E+00 0. -1.
<mgrwt>
<rscale>  2 0.10630760E+03</rscale>
<asrwt>0</asrwt>
<pdfrwt beam="1">  1       21 0.61423976E-01 0.10630760E+03</pdfrwt>
<pdfrwt beam="2">  1       21 0.46251506E-02 0.10630760E+03</pdfrwt>
<totfact> 0.76019202E+05</totfact>
</mgrwt>
</event>
<event>
 4    1  0.6052129E+003  0.1401510E+03  0.7546771E-02  0.1213126E+00
         21   -1    0    0  504  501  0.00000000000E+00  0.00000000000E+00  0.44863548325E+02  0.44863548325E+02  0.00000000000E+00 0.  1.
         21   -1    0    0  503  502 -0.00000000000E+00 -0.00000000000E+00 -0.57092656071E+03  0.57092656071E+03  0.00000000000E+00 0.  1.
         21    1    1    2  503  501 -0.53455118771E+02  0.12955636954E+03 -0.41169594242E+03  0.43489751852E+03  0.00000000000E+00 0.  1.
         21    1    1    2  504  502  0.53455118771E+02 -0.12955636954E+03 -0.11436706997E+03  0.18089259051E+03  0.00000000000E+00 0.  1.
<mgrwt>
<rscale>  2 0.14015100E+03</rscale>
<asrwt>0</asrwt>
<pdfrwt beam="1">  1       21 0.69020846E-02 0.14015100E+03</pdfrwt>
<pdfrwt beam="2">  1       21 0.87834852E-01 0.14015100E+03</pdfrwt>
<totfact> 0.17523491E+05</totfact>
</mgrwt>
</event>
<event>
 4    1  0.6052129E+003  0.1746656E+03  0.7546771E-02  0.1173068E+00
         21   -1    0    0  502  501  0.00000000000E+00  0.00000000000E+00  0.10847738046E+03  0.10847738046E+03  0.00000000000E+00 0.  1.
         21   -1    0    0  504  502 -0.00000000000E+00 -0.00000000000E+00 -0.16592814965E+04  0.16592814965E+04  0.00000000000E+00 0.  1.
         21    1    1    2  503  501 -0.95744333660E+02 -0.14608590348E+03  0.30095639527E+02  0.17723943168E+03  0.00000000000E+00 0.  1.
         21    1    1    2  504  503  0.95744333660E+02  0.14608590348E+03 -0.15808997556E+04  0.15905194453E+04  0.00000000000E+00 0.  1.
<mgrwt>
<rscale>  2 0.17466559E+03</rscale>
<asrwt>0</asrwt>
<pdfrwt beam="1">  1       21 0.16688829E-01 0.17466559E+03</pdfrwt>
<pdfrwt beam="2">  1       21 0.25527405E+00 0.17466559E+03</pdfrwt>
<totfact> 0.20425381E+03</totfact>
</mgrwt>
</event>
<event>
 4    1  0.6052129E+003  0.1194135E+03  0.7546771E-02  0.1244068E+00
         21   -1    0    0  503  501  0.00000000000E+00  0.00000000000E+00  0.13170404207E+04  0.13170404207E+04  0.00000000000E+00 0.  1.
         21   -1    0    0  501  502 -0.00000000000E+00 -0.00000000000E+00 -0.12968931637E+02  0.12968931637E+02  0.00000000000E+00 0.  1.
         21    1    1    2  503  504 -0.74251236980E+02 -0.93521849426E+02  0.92229245637E+03  0.92999083737E+03  0.00000000000E+00 0.  1.
         21    1    1    2  504  502  0.74251236980E+02  0.93521849426E+02  0.38177903268E+03  0.40001851496E+03  0.00000000000E+00 0.  1.
<mgrwt>
<rscale>  2 0.11941349E+03</rscale>
<asrwt>0</asrwt>
<pdfrwt beam="1">  1       21 0.20262150E+00 0.11941349E+03</pdfrwt>
<pdfrwt beam="2">  1       21 0.19952213E-02 0.11941349E+03</pdfrwt>
<totfact> 0.16638300E+05</totfact>
</mgrwt>
</event>
<event>
 4    1  0.6052129E+003  0.1027412E+03  0.7546771E-02  0.1274635E+00
         21   -1    0    0  503  501  0.00000000000E+00  0.00000000000E+00  0.50923103522E+03  0.50923103522E+03  0.00000000000E+00 0. -1.
         21   -1    0    0  504  502 -0.00000000000E+00 -0.00000000000E+00 -0.25747371860E+02  0.25747371860E+02  0.00000000000E+00 0. -1.
         21    1    1    2  503  502 -0.10076484890E+03  0.20054788337E+02  0.12364729920E+03  0.16076194795E+03  0.00000000000E+00 0. -1.
         21    1    1    2  504  501  0.10076484890E+03 -0.20054788337E+02  0.35983636417E+03  0.37421645913E+03  0.00000000000E+00 0. -1.
<mgrwt>
<rscale>  2 0.10274118E+03</rscale>
<asrwt>0</asrwt>
<pdfrwt beam="1">  1       21 0.78343229E-01 0.10274118E+03</pdfrwt>
<pdfrwt beam="2">  1       21 0.39611345E-02 0.10274118E+03</pdfrwt>
<totfact> 0.58060924E+05</totfact>
</mgrwt>
</event>
<event>
 4    1  0.6052129E+003  0.1058642E+03  0.7546771E-02  0.1268426E+00
         21   -1    0    0  503  501  0.00000000000E+00  0.00000000000E+00  0.28147765534E+03  0.28147765534E+03  0.00000000000E+00 0.  1.
         21   -1    0    0  504  502 -0.00000000000E+00 -0.00000000000E+00 -0.44230880011E+02  0.44230880011E+02  0.00000000000E+00 0.  1.
         21    1    1    2  503  502  0.50860309576E+02  0.92846372750E+02  0.17007657512E+03  0.20033287655E+03  0.00000000000E+00 0.  1.
         21    1    1    2  504  501 -0.50860309576E+02 -0.92846372750E+02  0.67170200208E+02  0.12537565880E+03  0.00000000000E+00 0.  1.
<mgrwt>
<rscale>  2 0.10586416E+03</rscale>
<asrwt>0</asrwt>
<pdfrwt beam="1">  1       21 0.43304254E-01 0.10586416E+03</pdfrwt>
<pdfrwt beam="2">  1       21 0.68047509E-02 0.10586416E+03</pdfrwt>
<totfact> 0.81665305E+05</totfact>
</mgrwt>
</event>
<event>
 4    1  0.6052129E+003  0.1050243E+03  0.7546771E-02  0.1270072E+00
         21   -1    0    0  503  501  0.00000000000E+00  0.00000000000E+00  0.77836484975E+02  0.77836484975E+02  0.00000000000E+00 0.  1.
         21   -1    0    0  504  502 -0.00000000000E+00 -0.00000000000E+00 -0.14194628160E+03  0.14194628160E+03  0.00000000000E+00 0.  1.
         21    1    1    2  503  502  0.60638511172E+02 -0.85750115331E+02 -0.27559600240E+02  0.10858012195E+03  0.00000000000E+00 0.  1.
         21    1    1    2  504  501 -0.60638511172E+02  0.85750115331E+02 -0.36550196385E+02  0.11120264463E+03  0.00000000000E+00 0.  1.
<mgrwt>
<rscale>  2 0.10502434E+03</rscale>
<asrwt>0</asrwt>
<pdfrwt beam="1">  1       21 0.11974844E-01 0.10502434E+03</pdfrwt>
<pdfrwt beam="2">  1       21 0.21837889E-01 0.10502434E+03</pdfrwt>
<totfact> 0.11488265E+06</totfact>
</mgrwt>
</event>
<event>
 4    1  0.6052129E+003  0.1145593E+03  0.7546771E-02  0.1252352E+00
         21   -1    0    0  504  501  0.00000000000E+00  0.00000000000E+00  0.13678457390E+02  0.13678457390E+02  0.00000000000E+00 0.  1.
         21   -1    0    0  503  502 -0.00000000000E+00 -0.00000000000E+00 -0.21874491844E+04  0.21874491844E+04  0.00000000000E+00 0.  1.
         21    1    1    2  503  501 -0.56109520042E+02 -0.99877684810E+02 -0.26228249280E+03  0.28620960185E+03  0.00000000000E+00 0.  1.
         21    1    1    2  504  502  0.56109520042E+02  0.99877684810E+02 -0.19114882342E+04  0.19149180400E+04  0.00000000000E+00 0.  1.
<mgrwt>
<rscale>  2 0.11455929E+03</rscale>
<asrwt>0</asrwt>
<pdfrwt beam="1">  1       21 0.21043786E-02 0.11455929E+03</pdfrwt>
<pdfrwt beam="2">  1       21 0.33653056E+00 0.11455929E+03</pdfrwt>
<totfact> 0.26314652E+04</totfact>
</mgrwt>
</event>
<event>
 4    1  0.6052129E+003  0.1099581E+03  0.7546771E-02  0.1260647E+00
         21   -1    0    0  502  501  0.00000000000E+00  0.00000000000E+00  0.20871379518E+03  0.20871379518E+03  0.00000000000E+00 0. -1.
         21   -1    0    0  504  502 -0.00000000000E+00 -0.00000000000E+00 -0.78646144107E+03  0.78646144107E+03  0.00000000000E+00 0. -1.
         21    1    1    2  503  501 -0.10914500084E+03 -0.13347482335E+02  0.19003738662E+03  0.21955635907E+03  0.00000000000E+00 0. -1.
         21    1    1    2  504  503  0.10914500084E+03  0.13347482335E+02 -0.76778503251E+03  0.77561887718E+03  0.00000000000E+00 0. -1.
<mgrwt>
<rscale>  2 0.10995811E+03</rscale>
<asrwt>0</asrwt>
<pdfrwt beam="1">  1       21 0.32109814E-01 0.10995811E+03</pdfrwt>
<pdfrwt beam="2">  1       21 0.12099407E+00 0.10995811E+03</pdfrwt>
<totfact> 0.52335882E+03</totfact>
</mgrwt>
</event>
<event>
 4    1  0.6052129E+003  0.1205742E+03  0.7546771E-02  0.1242153E+00
         21   -1    0    0  503  501  0.00000000000E+00  0.00000000000E+00  0.15112567353E+03  0.15112567353E+03  0.00000000000E+00 0.  1.
         21   -1    0    0  504  502 -0.00000000000E+00 -0.00000000000E+00 -0.11530482103E+03  0.11530482103E+03  0.00000000000E+00 0. -1.
         21    1    1    2  503  502  0.10528466340E+03 -0.58764536716E+02 -0.36316329484E+02  0.12592460804E+03  0.00000000000E+00 0. -1.
         21    1    1    2  504  501 -0.10528466340E+03  0.58764536716E+02  0.72137181978E+02  0.14050588652E+03  0.00000000000E+00 0.  1.
<mgrwt>
<rscale>  2 0.12057417E+03</rscale>
<asrwt>0</asrwt>
<pdfrwt beam="1">  1       21 0.23250104E-01 0.12057417E+03</pdfrwt>
<pdfrwt beam="2">  1       21 0.17739203E-01 0.12057417E+03</pdfrwt>
<totfact> 0.50575827E+05</totfact>
</mgrwt>
</event>
<event>
 4    1  0.6052129E+003  0.1022478E+03  0.7546771E-02  0.1275639E+00
         21   -1    0    0  503  501  0.00000000000E+00  0.00000000000E+00  0.92607460011E+02  0.92607460011E+02  0.00000000000E+00 0. -1.
         21   -1    0    0  504  502 -0.00000000000E+00 -0.00000000000E+00 -0.82624956370E+03  0.82624956370E+03  0.00000000000E+00 0.  1.
         21    1    1    2  503  502  0.45913965771E+02  0.91359289775E+02 -0.79371112280E+03  0.80026992855E+03  0.00000000000E+00 0.  1.
         21    1    1    2  504  501 -0.45913965771E+02 -0.91359289775E+02  0.60069019114E+02  0.11858709516E+03  0.00000000000E+00 0. -1.
<mgrwt>
<rscale>  2 0.10224780E+03</rscale>
<asrwt>0</asrwt>
<pdfrwt beam="1">  1       21 0.14247301E-01 0.10224780E+03</pdfrwt>
<pdfrwt beam="2">  1       21 0.12711532E+00 0.10224780E+03</pdfrwt>
<totfact> 0.21106799E+04</totfact>
</mgrwt>
</event>
<event>
 4    1  0.6052129E+003  0.1104083E+03  0.7546771E-02  0.1259816E+00
         21   -1    0    0  502  501  0.00000000000E+00  0.00000000000E+00  0.11036222061E+04  0.11036222061E+04  0.00000000000E+00 0. -1.
         21   -1    0    0  503  502 -0.00000000000E+00 -0.00000000000E+00 -0.45566947233E+02  0.45566947233E+02  0.00000000000E+00 0.  1.
         21    1    1    2  503  504 -0.34838312052E+01 -0.11035330761E+03  0.28899307742E+02  0.11412782118E+03  0.00000000000E+00 0.  1.
         21    1    1    2  504  501  0.34838312052E+01  0.11035330761E+03  0.10291559511E+04  0.10350613321E+04  0.00000000000E+00 0. -1.
<mgrwt>
<rscale>  2 0.11040829E+03</rscale>
<asrwt>0</asrwt>
<pdfrwt beam="1">  1       21 0.16978801E+00 0.11040829E+03</pdfrwt>
<pdfrwt beam="2">  1       21 0.70103004E-02 0.11040829E+03</pdfrwt>
<totfact> 0.34335809E+04</totfact>
</mgrwt>
</event>
<event>
 4    1  0.6052129E+003  0.1058513E+03  0.7546771E-02  0.1268451E+00
         21   -1    0    0  502  501  0.00000000000E+00  0.00000000000E+00  0.23602863273E+03  0.23602863273E+03  0.00000000000E+00 0.  1.
         21   -1    0    0  503  502 -0.00000000000E+00 -0.00000000000E+00 -0.55228233773E+03  0.55228233773E+03  0.00000000000E+00 0. -1.
         21    1    1    2  503  504  0.76756220112E+01 -0.10557262962E+03 -0.53496215725E+03  0.54533384728E+03  0.00000000000E+00 0. -1.
         21    1    1    2  504  501 -0.76756220112E+01  0.10557262962E+03  0.21870845225E+03  0.24297712317E+03  0.00000000000E+00 0.  1.
<mgrwt>
<rscale>  2 0.10585129E+03</rscale>
<asrwt>0</asrwt>
<pdfrwt beam="1">  1       21 0.36312098E-01 0.10585129E+03</pdfrwt>
<pdfrwt beam="2">  1       21 0.84966513E-01 0.10585129E+03</pdfrwt>
<totfact> 0.94444036E+03</totfact>
</mgrwt>
</event>
<event>
 4    1  0.6052129E+003  0.1282995E+03  0.7546771E-02  0.1230001E+00
         21   -1    0    0  502  501  0.00000000000E+00  0.00000000000E+00  0.16019043195E+04  0.16019043195E+04  0.00000000000E+00 0.  1.
         21   -1    0    0  503  502 -0.00000000000E+00 -0.00000000000E+00 -0.13017085654E+03  0.13017085654E+03  0.00000000000E+00 0.  1.
         21    1    1    2  503  504 -0.91650163538E+02  0.89783090227E+02 -0.95285554477E+02  0.15981267991E+03  0.00000000000E+00 0.  1.
         21    1    1    2  504  501  0.91650163538E+02 -0.89783090227E+02  0.15670190175E+04  0.15722624962E+04  0.00000000000E+00 0.  1.
<mgrwt>
<rscale>  2 0.12829948E+03</rscale>
<asrwt>0</asrwt>
<pdfrwt beam="1">  1       21 0.24644680E+00 0.12829948E+03</pdfrwt>
<pdfrwt beam="2">  1       21 0.20026287E-01 0.12829948E+03</pdfrwt>
<totfact> 0.17547092E+03</totfact>
</mgrwt>
</event>
<event>
 4    1  0.6052129E+003  0.1370776E+03  0.7546771E-02  0.1217316E+00
         21   -1    0    0  503  501  0.00000000000E+00  0.00000000000E+00  0.12213311484E+03  0.12213311484E+03  0.00000000000E+00 0. -1.
         21   -1    0    0  504  502 -0.00000000000E+00 -0.00000000000E+00 -0.20882380696E+03  0.20882380696E+03  0.00000000000E+00 0. -1.
         21    1    1    2  503  502  0.12872141579E+03 -0.47128041503E+02 -0.12824910818E+03  0.18771811028E+03  0.00000000000E+00 0. -1.
         21    1    1    2  504  501 -0.12872141579E+03  0.47128041503E+02  0.41558416060E+02  0.14323881152E+03  0.00000000000E+00 0. -1.
<mgrwt>
<rscale>  2 0.13707755E+03</rscale>
<asrwt>0</asrwt>
<pdfrwt beam="1">  1       21 0.18789710E-01 0.13707755E+03</pdfrwt>
<pdfrwt beam="2">  1       21 0.32126739E-01 0.13707755E+03</pdfrwt>
<totfact> 0.24493997E+05</totfact>
</mgrwt>
</event>
<event>
 4    1  0.6052129E+003  0.1138466E+03  0.7546771E-02  0.1253608E+00
         21   -1    0    0  503  501  0.00000000000E+00  0.00000000000E+00  0.13617786231E+03  0.13617786231E+03  0.00000000000E+00 0. -1.
         21   -1    0    0  501  502 -0.00000000000E+00 -0.00000000000E+00 -0.86128944378E+03  0.86128944378E+03  0.00000000000E+00 0.  1.
         21    1    1    2  503  504 -0.17891216245E+01 -0.11383251883E+03  0.10781493062E+03  0.15679637293E+03  0.00000000000E+00 0. -1.
         21    1    1    2  504  502  0.17891216245E+01  0.11383251883E+03 -0.83292651210E+03  0.84067093316E+03  0.00000000000E+00 0.  1.
<mgrwt>
<rscale>  2 0.11384658E+03</rscale>
<asrwt>0</asrwt>
<pdfrwt beam="1">  1       21 0.20950440E-01 0.11384658E+03</pdfrwt>
<pdfrwt beam="2">  1       21 0.13250607E+00 0.11384658E+03</pdfrwt>
<totfact> 0.93413340E+03</totfact>
</mgrwt>
</event>
<event>
 4    1  0.6052129E+003  0.1160429E+03  0.7546771E-02  0.1249772E+00
         21   -1    0    0  503  501  0.00000000000E+00  0.00000000000E+00  0.54578706871E+03  0.54578706871E+03  0.00000000000E+00 0.  1.
         21   -1    0    0  504  502 -0.00000000000E+00 -0.00000000000E+00 -0.25335721100E+02  0.25335721100E+02  0.00000000000E+00 0.  1.
         21    1    1    2  503  502 -0.62468677793E+02  0.97793727533E+02  0.30642669667E+03  0.32766334748E+03  0.00000000000E+00 0.  1.
         21    1    1    2  504  501  0.62468677793E+02 -0.97793727533E+02  0.21402465094E+03  0.24345944233E+03  0.00000000000E+00 0.  1.
<mgrwt>
<rscale>  2 0.11604288E+03</rscale>
<asrwt>0</asrwt>
<pdfrwt beam="1">  1       21 0.83967233E-01 0.11604288E+03</pdfrwt>
<pdfrwt beam="2">  1       21 0.38978036E-02 0.11604288E+03</pdfrwt>
<totfact> 0.51032331E+05</totfact>
</mgrwt>
</event>
<event>
 4    1  0.6052129E+003  0.1095790E+03  0.7546771E-02  0.1261352E+00
         21   -1    0    0  504  501  0.00000000000E+00  0.00000000000E+00  0.91994322748E+03  0.91994322748E+03  0.00000000000E+00 0.  1.
         21   -1    0    0  501  502 -0.00000000000E+00 -0.00000000000E+00 -0.91155646752E+02  0.91155646752E+02  0.00000000000E+00 0.  1.
         21    1    1    2  503  502  0.10470755663E+02  0.10907754043E+03 -0.53563423150E+02  0.12196961445E+03  0.00000000000E+00 0.  1.
         21    1    1    2  504  503 -0.10470755663E+02 -0.10907754043E+03  0.88235100388E+03  0.88912925978E+03  0.00000000000E+00 0.  1.
<mgrwt>
<rscale>  2 0.10957895E+03</rscale>
<asrwt>0</asrwt>
<pdfrwt beam="1">  1       21 0.14152972E+00 0.10957895E+03</pdfrwt>
<pdfrwt beam="2">  1       21 0.14023946E-01 0.10957895E+03</pdfrwt>
<totfact> 0.16492545E+04</totfact>
</mgrwt>
</event>
<event>
 4    1  0.6052129E+003  0.1028356E+03  0.7546771E-02  0.1274444E+00
         21   -1    0    0  504  501  0.00000000000E+00  0.00000000000E+00  0.33913687018E+03  0.33913687018E+03  0.00000000000E+00 0. -1.
         21   -1    0    0  503  502 -0.00000000000E+00 -0.00000000000E+00 -0.42590017427E+02  0.42590017427E+02  0.00000000000E+00 0. -1.
         21    1    1    2  503  501  0.50880828637E+02 -0.89366060001E+02  0.24705217547E+03  0.26760031541E+03  0.00000000000E+00 0. -1.
         21    1    1    2  504  502 -0.50880828637E+02  0.89366060001E+02  0.49494677288E+02  0.11412657220E+03  0.00000000000E+00 0. -1.
<mgrwt>
<rscale>  2 0.10283556E+03</rscale>
<asrwt>0</asrwt>
<pdfrwt beam="1">  1       21 0.52174901E-01 0.10283556E+03</pdfrwt>
<pdfrwt beam="2">  1       21 0.65523106E-02 0.10283556E+03</pdfrwt>
<totfact> 0.59578389E+05</totfact>
</mgrwt>
</event>
<event>
 4    1  0.6052129E+003  0.1110698E+03  0.7546771E-02  0.1258602E+00
         21   -1    0    0  504  501  0.00000000000E+00  0.00000000000E+00  0.57337439627E+02  0.57337439627E+02  0.00000000000E+00 0. -1.
         21   -1    0    0  503  502 -0.00000000000E+00 -0.00000000000E+00 -0.24279887220E+03  0.24279887220E+03  0.00000000000E+00 0.  1.
         21    1    1    2  503  501 -0.58548916133E+02  0.94384927301E+02 -0.42094953697E+02  0.11877910258E+03  0.00000000000E+00 0. -1.
         21    1    1    2  504  502  0.58548916133E+02 -0.94384927301E+02 -0.14336647888E+03  0.18135720925E+03  0.00000000000E+00 0.  1.
<mgrwt>
<rscale>  2 0.11106975E+03</rscale>
<asrwt>0</asrwt>
<pdfrwt beam="1">  1       21 0.88211447E-02 0.11106975E+03</pdfrwt>
<pdfrwt beam="2">  1       21 0.37353672E-01 0.11106975E+03</pdfrwt>
<totfact> 0.70284446E+05</totfact>
</mgrwt>
</event>
<event>
 4    1  0.6052129E+003  0.1190750E+03  0.7546771E-02  0.1244631E+00
         21   -1    0    0  504  501  0.00000000000E+00  0.00000000000E+00  0.90988276723E+03  0.90988276723E+03  0.00000000000E+00 0. -1.
         21   -1    0    0  503  502 -0.00000000000E+00 -0.00000000000E+00 -0.47239848762E+02  0.47239848762E+02  0.00000000000E+00 0. -1.
         21    1    1    2  503  501  0.35607848383E+02  0.11362628503E+03  0.82307781917E+03  0.83164652823E+03  0.00000000000E+00 0. -1.
         21    1    1    2  504  502 -0.35607848383E+02 -0.11362628503E+03  0.39565099296E+02  0.12547608776E+03  0.00000000000E+00 0. -1.
<mgrwt>
<rscale>  2 0.11907498E+03</rscale>
<asrwt>0</asrwt>
<pdfrwt beam="1">  1       21 0.13998195E+00 0.11907498E+03</pdfrwt>
<pdfrwt beam="2">  1       21 0.72676697E-02 0.11907498E+03</pdfrwt>
<totfact> 0.53000316E+04</totfact>
</mgrwt>
</event>
<event>
 4    1  0.6052129E+003  0.1138635E+03  0.7546771E-02  0.1253578E+00
         21   -1    0    0  503  501  0.00000000000E+00  0.00000000000E+00  0.70266876623E+03  0.70266876623E+03  0.00000000000E+00 0. -1.
         21   -1    0    0  504  502 -0.00000000000E+00 -0.00000000000E+00 -0.79136220709E+02  0.79136220709E+02  0.00000000000E+00 0. -1.
         21    1    1    2  503  502  0.10472902336E+03 -0.44684767378E+02 -0.30546010219E+02  0.11788959034E+03  0.00000000000E+00 0. -1.
         21    1    1    2  504  501 -0.10472902336E+03  0.44684767378E+02  0.65407855574E+03  0.66391539660E+03  0.00000000000E+00 0. -1.
<mgrwt>
<rscale>  2 0.11386350E+03</rscale>
<asrwt>0</asrwt>
<pdfrwt beam="1">  1       21 0.10810288E+00 0.11386350E+03</pdfrwt>
<pdfrwt beam="2">  1       21 0.12174804E-01 0.11386350E+03</pdfrwt>
<totfact> 0.40819620E+04</totfact>
</mgrwt>
</event>
<event>
 4    1  0.6052129E+003  0.1299896E+03  0.7546771E-02  0.1227471E+00
         21   -1    0    0  503  501  0.00000000000E+00  0.00000000000E+00  0.41776936842E+03  0.41776936842E+03  0.00000000000E+00 0.  1.
         21   -1    0    0  504  502 -0.00000000000E+00 -0.00000000000E+00 -0.63434205436E+03  0.63434205436E+03  0.00000000000E+00 0. -1.
         21    1    1    2  503  502 -0.98421008341E+02  0.84915252097E+02  0.40072215993E+03  0.42127846418E+03  0.00000000000E+00 0.  1.
         21    1    1    2  504  501  0.98421008341E+02 -0.84915252097E+02 -0.61729484587E+03  0.63083295861E+03  0.00000000000E+00 0. -1.
<mgrwt>
<rscale>  2 0.12998960E+03</rscale>
<asrwt>0</asrwt>
<pdfrwt beam="1">  1       21 0.64272211E-01 0.12998960E+03</pdfrwt>
<pdfrwt beam="2">  1       21 0.97591085E-01 0.12998960E+03</pdfrwt>
<totfact> 0.20739971E+03</totfact>
</mgrwt>
</event>
<event>
 4    1  0.6052129E+003  0.2156701E+03  0.7546771E-02  0.1137153E+00
         21   -1    0    0  504  501  0.00000000000E+00  0.00000000000E+00  0.79204742593E+02  0.79204742593E+02  0.00000000000E+00 0. -1.
         21   -1    0    0  503  502 -0.00000000000E+00 -0.00000000000E+00 -0.87025100849E+03  0.87025100849E+03  0.00000000000E+00 0. -1.
         21    1    1    2  503  501  0.21020408792E+03  0.48247447846E+02 -0.66623715093E+03  0.70027531449E+03  0.00000000000E+00 0. -1.
         21    1    1    2  504  502 -0.21020408792E+03 -0.48247447846E+02 -0.12480911497E+03  0.24918043659E+03  0.00000000000E+00 0. -1.
<mgrwt>
<rscale>  2 0.21567006E+03</rscale>
<asrwt>0</asrwt>
<pdfrwt beam="1">  1       21 0.12185344E-01 0.21567006E+03</pdfrwt>
<pdfrwt beam="2">  1       21 0.13388478E+00 0.21567006E+03</pdfrwt>
<totfact> 0.22579440E+04</totfact>
</mgrwt>
</event>
<event>
 4    1  0.6052129E+003  0.1147145E+03  0.7546771E-02  0.1252080E+00
         21   -1    0    0  502  501  0.00000000000E+00  0.00000000000E+00  0.62488725768E+03  0.62488725768E+03  0.00000000000E+00 0. -1.
         21   -1    0    0  503  502 -0.00000000000E+00 -0.00000000000E+00 -0.23389172021E+02  0.23389172021E+02  0.00000000000E+00 0.  1.
         21    1    1    2  503  504 -0.84000698369E+02 -0.78123617953E+02  0.19843640237E+03  0.22920825202E+03  0.00000000000E+00 0.  1.
         21    1    1    2  504  501  0.84000698369E+02  0.78123617953E+02  0.40306168329E+03  0.41906817768E+03  0.00000000000E+00 0. -1.
<mgrwt>
<rscale>  2 0.11471450E+03</rscale>
<asrwt>0</asrwt>
<pdfrwt beam="1">  1       21 0.96136489E-01 0.11471450E+03</pdfrwt>
<pdfrwt beam="2">  1       21 0.35983346E-02 0.11471450E+03</pdfrwt>
<totfact> 0.42793309E+05</totfact>
</mgrwt>
</event>
<event>
 4    1  0.6052129E+003  0.2285386E+03  0.7546771E-02  0.1127673E+00
         21   -1    0    0  503  501  0.00000000000E+00  0.00000000000E+00  0.63353255043E+03  0.63353255043E+03  0.00000000000E+00 0. -1.
         21   -1    0    0  504  502 -0.00000000000E+00 -0.00000000000E+00 -0.13950008065E+03  0.13950008065E+03  0.00000000000E+00 0. -1.
         21    1    1    2  503  502  0.22080403528E+03  0.58953030231E+02  0.49421029574E+03  0.54449398361E+03  0.00000000000E+00 0. -1.
         21    1    1    2  504  501 -0.22080403528E+03 -0.58953030231E+02 -0.17782595885E+00  0.22853864747E+03  0.00000000000E+00 0. -1.
<mgrwt>
<rscale>  2 0.22853858E+03</rscale>
<asrwt>0</asrwt>
<pdfrwt beam="1">  1       21 0.97466545E-01 0.22853858E+03</pdfrwt>
<pdfrwt beam="2">  1       21 0.21461551E-01 0.22853858E+03</pdfrwt>
<totfact> 0.17261239E+04</totfact>
</mgrwt>
</event>
<event>
 4    1  0.6052129E+003  0.1999915E+03  0.7546771E-02  0.1149746E+00
         21   -1    0    0  503  501  0.00000000000E+00  0.00000000000E+00  0.28838063106E+03  0.28838063106E+03  0.00000000000E+00 0. -1.
         21   -1    0    0  501  502 -0.00000000000E+00 -0.00000000000E+00 -0.18676228327E+03  0.18676228327E+03  0.00000000000E+00 0. -1.
         21    1    1    2  503  504 -0.41559761851E+02  0.19562565658E+03  0.17133491022E+03  0.26334817786E+03  0.00000000000E+00 0. -1.
         21    1    1    2  504  502  0.41559761851E+02 -0.19562565658E+03 -0.69716562428E+02  0.21179473647E+03  0.00000000000E+00 0. -1.
<mgrwt>
<rscale>  2 0.19999153E+03</rscale>
<asrwt>0</asrwt>
<pdfrwt beam="1">  1       21 0.44366251E-01 0.19999153E+03</pdfrwt>
<pdfrwt beam="2">  1       21 0.28732659E-01 0.19999153E+03</pdfrwt>
<totfact> 0.56341802E+04</totfact>
</mgrwt>
</event>
<event>
 4    1  0.6052129E+003  0.1078650E+03  0.7546771E-02  0.1264575E+00
         21   -1    0    0  502  501  0.00000000000E+00  0.00000000000E+00  0.37812134626E+02  0.37812134626E+02  0.00000000000E+00 0. -1.
         21   -1    0    0  503  502 -0.00000000000E+00 -0.00000000000E+00 -0.55457105029E+03  0.55457105029E+03  0.00000000000E+00 0. -1.
         21    1    1    2  503  504  0.83646509219E+02  0.68103720839E+02 -0.45599804118E+03  0.46858197666E+03  0.00000000000E+00 0. -1.
         21    1    1    2  504  501 -0.83646509219E+02 -0.68103720839E+02 -0.60760874490E+02  0.12380120826E+03  0.00000000000E+00 0. -1.
<mgrwt>
<rscale>  2 0.10786499E+03</rscale>
<asrwt>0</asrwt>
<pdfrwt beam="1">  1       21 0.58172514E-02 0.10786499E+03</pdfrwt>
<pdfrwt beam="2">  1       21 0.85318625E-01 0.10786499E+03</pdfrwt>
<totfact> 0.25269194E+05</totfact>
</mgrwt>
</event>
<event>
 4    1  0.6052129E+003  0.1375935E+03  0.7546771E-02  0.1216604E+00
         21   -1    0    0  503  501  0.00000000000E+00  0.00000000000E+00  0.18041638244E+03  0.18041638244E+03  0.00000000000E+00 0. -1.
         21   -1    0    0  501  502 -0.00000000000E+00 -0.00000000000E+00 -0.10496189849E+03  0.10496189849E+03  0.00000000000E+00 0. -1.
         21    1    1    2  503  504 -0.13676917699E+03  0.15039105361E+02  0.40013967781E+02  0.14329375451E+03  0.00000000000E+00 0. -1.
         21    1    1    2  504  502  0.13676917699E+03 -0.15039105361E+02  0.35440516162E+02  0.14208452642E+03  0.00000000000E+00 0. -1.
<mgrwt>
<rscale>  2 0.13759354E+03</rscale>
<asrwt>0</asrwt>
<pdfrwt beam="1">  1       21 0.27756367E-01 0.13759354E+03</pdfrwt>
<pdfrwt beam="2">  1       21 0.16147984E-01 0.13759354E+03</pdfrwt>
<totfact> 0.42851474E+05</totfact>
</mgrwt>
</event>
<event>
 4    1  0.6052129E+003  0.1049461E+03  0.7546771E-02  0.1270226E+00
         21   -1    0    0  502  501  0.00000000000E+00  0.00000000000E+00  0.11718794943E+03  0.11718794943E+03  0.00000000000E+00 0.  1.
         21   -1    0    0  503  502 -0.00000000000E+00 -0.00000000000E+00 -0.11439468248E+03  0.11439468248E+03  0.00000000000E+00 0.  1.
         21    1    1    2  503  504  0.10094390977E+03  0.28705418668E+02 -0.47515045425E+02  0.11520136076E+03  0.00000000000E+00 0.  1.
         21    1    1    2  504  501 -0.10094390977E+03 -0.28705418668E+02  0.50308312377E+02  0.11638127115E+03  0.00000000000E+00 0.  1.
<mgrwt>
<rscale>  2 0.10494605E+03</rscale>
<asrwt>0</asrwt>
<pdfrwt beam="1">  1       21 0.18028915E-01 0.10494605E+03</pdfrwt>
<pdfrwt beam="2">  1       21 0.17599182E-01 0.10494605E+03</pdfrwt>
<totfact> 0.82056365E+05</totfact>
</mgrwt>
</event>
<event>
 4    1  0.6052129E+003  0.1001229E+03  0.7546771E-02  0.1280038E+00
         21   -1    0    0  502  501  0.00000000000E+00  0.00000000000E+00  0.55076099530E+02  0.55076099530E+02  0.00000000000E+00 0.  1.
         21   -1    0    0  503  502 -0.00000000000E+00 -0.00000000000E+00 -0.18603794708E+03  0.18603794708E+03  0.00000000000E+00 0.  1.
         21    1    1    2  503  504  0.66095884946E+02  0.75205949749E+02 -0.83212108811E+02  0.13018777184E+03  0.00000000000E+00 0.  1.
         21    1    1    2  504  501 -0.66095884946E+02 -0.75205949749E+02 -0.47749738740E+02  0.11092627477E+03  0.00000000000E+00 0.  1.
<mgrwt>
<rscale>  2 0.10012293E+03</rscale>
<asrwt>0</asrwt>
<pdfrwt beam="1">  1       21 0.84732460E-02 0.10012293E+03</pdfrwt>
<pdfrwt beam="2">  1       21 0.28621223E-01 0.10012293E+03</pdfrwt>
<totfact> 0.12603901E+06</totfact>
</mgrwt>
</event>
<event>
 4    1  0.6052129E+003  0.1422070E+03  0.7546771E-02  0.1210390E+00
         21   -1    0    0  504  501  0.00000000000E+00  0.00000000000E+00  0.13589429429E+03  0.13589429429E+03  0.00000000000E+00 0.  1.
         21   -1    0    0  503  502 -0.00000000000E+00 -0.00000000000E+00 -0.16104402200E+03  0.16104402200E+03  0.00000000000E+00 0.  1.
         21    1    1    2  503  501 -0.35359409999E+02 -0.13774081182E+03  0.28341565974E+02  0.14500366712E+03  0.00000000000E+00 0.  1.
         21    1    1    2  504  502  0.35359409999E+02  0.13774081182E+03 -0.53491293689E+02  0.15193464917E+03  0.00000000000E+00 0.  1.
<mgrwt>
<rscale>  2 0.14220696E+03</rscale>
<asrwt>0</asrwt>
<pdfrwt beam="1">  1       21 0.20906814E-01 0.14220696E+03</pdfrwt>
<pdfrwt beam="2">  1       21 0.24776003E-01 0.14220696E+03</pdfrwt>
<totfact> 0.33066211E+05</totfact>
</mgrwt>
</event>
<event>
 4    1  0.6052129E+003  0.1088341E+03  0.7546771E-02  0.1262744E+00
         21   -1    0    0  504  501  0.00000000000E+00  0.00000000000E+00  0.58773106362E+03  0.58773106362E+03  0.00000000000E+00 0. -1.
         21   -1    0    0  503  502 -0.00000000000E+00 -0.00000000000E+00 -0.20608483444E+02  0.20608483444E+02  0.00000000000E+00 0. -1.
         21    1    1    2  503  501 -0.10681037959E+03 -0.20890336250E+02  0.32875419426E+03  0.34630071265E+03  0.00000000000E+00 0. -1.
         21    1    1    2  504  502  0.10681037959E+03  0.20890336250E+02  0.23836838592E+03  0.26203883442E+03  0.00000000000E+00 0. -1.
<mgrwt>
<rscale>  2 0.10883411E+03</rscale>
<asrwt>0</asrwt>
<pdfrwt beam="1">  1       21 0.90420151E-01 0.10883411E+03</pdfrwt>
<pdfrwt beam="2">  1       21 0.31705364E-02 0.10883411E+03</pdfrwt>
<totfact> 0.60680501E+05</totfact>
</mgrwt>
</event>
<event>
 4    1  0.6052129E+003  0.1035477E+03  0.7546771E-02  0.1273008E+00
         21   -1    0    0  503  501  0.00000000000E+00  0.00000000000E+00  0.11535059185E+03  0.11535059185E+03  0.00000000000E+00 0.  1.
         21   -1    0    0  504  502 -0.00000000000E+00 -0.00000000000E+00 -0.95118894606E+02  0.95118894606E+02  0.00000000000E+00 0.  1.
         21    1    1    2  503  502  0.10564979491E+02  0.10300731699E+03 -0.57657534025E+01  0.10370810025E+03  0.00000000000E+00 0.  1.
         21    1    1    2  504  501 -0.10564979491E+02 -0.10300731699E+03  0.25997450648E+02  0.10676138621E+03  0.00000000000E+00 0.  1.
<mgrwt>
<rscale>  2 0.10354770E+03</rscale>
<asrwt>0</asrwt>
<pdfrwt beam="1">  1       21 0.17746245E-01 0.10354770E+03</pdfrwt>
<pdfrwt beam="2">  1       21 0.14633676E-01 0.10354770E+03</pdfrwt>
<totfact> 0.11774680E+06</totfact>
</mgrwt>
</event>
<event>
 4    1  0.6052129E+003  0.1431219E+03  0.7546771E-02  0.1209189E+00
         21   -1    0    0  504  501  0.00000000000E+00  0.00000000000E+00  0.21957964147E+04  0.21957964147E+04  0.00000000000E+00 0. -1.
         21   -1    0    0  503  502 -0.00000000000E+00 -0.00000000000E+00 -0.22991469462E+02  0.22991469462E+02  0.00000000000E+00 0. -1.
         21    1    1    2  503  501  0.23353503293E+02 -0.14120374509E+03  0.23119378992E+03  0.27190890431E+03  0.00000000000E+00 0. -1.
         21    1    1    2  504  502 -0.23353503293E+02  0.14120374509E+03  0.19416111553E+04  0.19468789798E+04  0.00000000000E+00 0. -1.
<mgrwt>
<rscale>  2 0.14312192E+03</rscale>
<asrwt>0</asrwt>
<pdfrwt beam="1">  1       21 0.33781467E+00 0.14312192E+03</pdfrwt>
<pdfrwt beam="2">  1       21 0.35371509E-02 0.14312192E+03</pdfrwt>
<totfact> 0.10590242E+04</totfact>
</mgrwt>
</event>
<event>
 4    1  0.6052129E+003  0.1032544E+03  0.7546771E-02  0.1273598E+00
         21   -1    0    0  503  501  0.00000000000E+00  0.00000000000E+00  0.91633134291E+02  0.91633134291E+02  0.00000000000E+00 0. -1.
         21   -1    0    0  504  502 -0.00000000000E+00 -0.00000000000E+00 -0.11676786788E+03  0.11676786788E+03  0.00000000000E+00 0. -1.
         21    1    1    2  503  502 -0.81087341082E+02  0.63924236163E+02 -0.63298343592E+01  0.10344820760E+03  0.00000000000E+00 0. -1.
         21    1    1    2  504  501  0.81087341082E+02 -0.63924236163E+02 -0.18804899230E+02  0.10495279457E+03  0.00000000000E+00 0. -1.
<mgrwt>
<rscale>  2 0.10325437E+03</rscale>
<asrwt>0</asrwt>
<pdfrwt beam="1">  1       21 0.14097405E-01 0.10325437E+03</pdfrwt>
<pdfrwt beam="2">  1       21 0.17964287E-01 0.10325437E+03</pdfrwt>
<totfact> 0.12309434E+06</totfact>
</mgrwt>
</event>
<event>
 4    1  0.6052129E+003  0.1306006E+03  0.7546771E-02  0.1226567E+00
         21   -1    0    0  503  501  0.00000000000E+00  0.00000000000E+00  0.17376788742E+03  0.17376788742E+03  0.00000000000E+00 0. -1.
         21   -1    0    0  504  502 -0.00000000000E+00 -0.00000000000E+00 -0.15814828124E+03  0.15814828124E+03  0.00000000000E+00 0. -1.
         21    1    1    2  503  502 -0.23495599355E+02 -0.12846977269E+03 -0.94404207176E+02  0.16114800656E+03  0.00000000000E+00 0. -1.
         21    1    1    2  504  501  0.23495599355E+02  0.12846977269E+03  0.11002381335E+03  0.17076816211E+03  0.00000000000E+00 0. -1.
<mgrwt>
<rscale>  2 0.13060063E+03</rscale>
<asrwt>0</asrwt>
<pdfrwt beam="1">  1       21 0.26733521E-01 0.13060063E+03</pdfrwt>
<pdfrwt beam="2">  1       21 0.24330505E-01 0.13060063E+03</pdfrwt>
<totfact> 0.21595146E+05</totfact>
</mgrwt>
</event>
<event>
 4    1  0.6052129E+003  0.2290345E+03  0.7546771E-02  0.1127321E+00
         21   -1    0    0  502  501  0.00000000000E+00  0.00000000000E+00  0.92367622475E+03  0.92367622475E+03  0.00000000000E+00 0. -1.
         21   -1    0    0  504  502 -0.00000000000E+00 -0.00000000000E+00 -0.30142342131E+03  0.30142342131E+03  0.00000000000E+00 0. -1.
         21    1    1    2  503  501 -0.88150150735E+01 -0.22886480104E+03  0.86296190092E+03  0.89283819591E+03  0.00000000000E+00 0. -1.
         21    1    1    2  504  503  0.88150150735E+01  0.22886480104E+03 -0.24070909748E+03  0.33226145015E+03  0.00000000000E+00 0. -1.
<mgrwt>
<rscale>  2 0.22903450E+03</rscale>
<asrwt>0</asrwt>
<pdfrwt beam="1">  1       21 0.14210403E+00 0.22903450E+03</pdfrwt>
<pdfrwt beam="2">  1       21 0.46372835E-01 0.22903450E+03</pdfrwt>
<totfact> 0.14827012E+03</totfact>
</mgrwt>
</event>
<event>
 4    1  0.6052129E+003  0.1183059E+03  0.7546771E-02  0.1245918E+00
         21   -1    0    0  502  501  0.00000000000E+00  0.00000000000E+00  0.70146613751E+03  0.70146613751E+03  0.00000000000E+00 0.  1.
         21   -1    0    0  504  502 -0.00000000000E+00 -0.00000000000E+00 -0.19995657498E+02  0.19995657498E+02  0.00000000000E+00 0. -1.
         21    1    1    2  503  501  0.76312604651E+02 -0.90402799090E+02  0.32405314946E+03  0.34497351114E+03  0.00000000000E+00 0.  1.
         21    1    1    2  504  503 -0.76312604651E+02  0.90402799090E+02  0.35741733055E+03  0.37648828387E+03  0.00000000000E+00 0. -1.
<mgrwt>
<rscale>  2 0.11830587E+03</rscale>
<asrwt>0</asrwt>
<pdfrwt beam="1">  1       21 0.10791785E+00 0.11830587E+03</pdfrwt>
<pdfrwt beam="2">  1       21 0.30762555E-02 0.11830587E+03</pdfrwt>
<totfact> 0.42195112E+05</totfact>
</mgrwt>
</event>
<event>
 4    1  0.6052129E+003  0.1110145E+03  0.7546771E-02  0.1258703E+00
         21   -1    0    0  504  501  0.00000000000E+00  0.00000000000E+00  0.40237352360E+03  0.40237352360E+03  0.00000000000E+00 0.  1.
         21   -1    0    0  503  502 -0.00000000000E+00 -0.00000000000E+00 -0.41738407908E+03  0.41738407908E+03  0.00000000000E+00 0.  1.
         21    1    1    2  503  501 -0.10855482782E+03  0.23239380542E+02 -0.40205854252E+03  0.41710345367E+03  0.00000000000E+00 0.  1.
         21    1    1    2  504  502  0.10855482782E+03 -0.23239380542E+02  0.38704798703E+03  0.40265414901E+03  0.00000000000E+00 0.  1.
<mgrwt>
<rscale>  2 0.11101450E+03</rscale>
<asrwt>0</asrwt>
<pdfrwt beam="1">  1       21 0.61903619E-01 0.11101450E+03</pdfrwt>
<pdfrwt beam="2">  1       21 0.64212936E-01 0.11101450E+03</pdfrwt>
<totfact> 0.58425440E+03</totfact>
</mgrwt>
</event>
<event>
 4    1  0.6052129E+003  0.1097084E+03  0.7546771E-02  0.1261111E+00
         21   -1    0    0  502  501  0.00000000000E+00  0.00000000000E+00  0.24536582003E+02  0.24536582003E+02  0.00000000000E+00 0.  1.
         21   -1    0    0  504  502 -0.00000000000E+00 -0.00000000000E+00 -0.16957831124E+04  0.16957831124E+04  0.00000000000E+00 0. -1.
         21    1    1    2  503  501  0.40617082903E+01 -0.10963319548E+03 -0.11046449575E+03  0.15568667203E+03  0.00000000000E+00 0.  1.
         21    1    1    2  504  503 -0.40617082903E+01  0.10963319548E+03 -0.15607820347E+04  0.15646330224E+04  0.00000000000E+00 0. -1.
<mgrwt>
<rscale>  2 0.10970841E+03</rscale>
<asrwt>0</asrwt>
<pdfrwt beam="1">  1       21 0.37748577E-02 0.10970841E+03</pdfrwt>
<pdfrwt beam="2">  1       21 0.26088978E+00 0.10970841E+03</pdfrwt>
<totfact> 0.27065450E+04</totfact>
</mgrwt>
</event>
<event>
 4    1  0.6052129E+003  0.1183067E+03  0.7546771E-02  0.1245917E+00
         21   -1    0    0  502  501  0.00000000000E+00  0.00000000000E+00  0.26735555776E+03  0.26735555776E+03  0.00000000000E+00 0. -1.
         21   -1    0    0  503  502 -0.00000000000E+00 -0.00000000000E+00 -0.54641434170E+02  0.54641434170E+02  0.00000000000E+00 0.  1.
         21    1    1    2  503  504  0.50984832168E+02 -0.10675686246E+03  0.73398633918E+02  0.13922586058E+03  0.00000000000E+00 0.  1.
         21    1    1    2  504  501 -0.50984832168E+02  0.10675686246E+03  0.13931548967E+03  0.18277113135E+03  0.00000000000E+00 0. -1.
<mgrwt>
<rscale>  2 0.11830672E+03</rscale>
<asrwt>0</asrwt>
<pdfrwt beam="1">  1       21 0.41131624E-01 0.11830672E+03</pdfrwt>
<pdfrwt beam="2">  1       21 0.84063746E-02 0.11830672E+03</pdfrwt>
<totfact> 0.63065777E+05</totfact>
</mgrwt>
</event>
<event>
 4    1  0.6052129E+003  0.1026214E+03  0.7546771E-02  0.1274878E+00
         21   -1    0    0  504  501  0.00000000000E+00  0.00000000000E+00  0.42037306162E+03  0.42037306162E+03  0.00000000000E+00 0.  1.
         21   -1    0    0  503  502 -0.00000000000E+00 -0.00000000000E+00 -0.61258841173E+02  0.61258841173E+02  0.00000000000E+00 0. -1.
         21    1    1    2  503  501  0.10225503994E+03 -0.86637048032E+01 -0.55813515175E+01  0.10277307264E+03  0.00000000000E+00 0. -1.
         21    1    1    2  504  502 -0.10225503994E+03  0.86637048032E+01  0.36469557196E+03  0.37885883015E+03  0.00000000000E+00 0.  1.
<mgrwt>
<rscale>  2 0.10262141E+03</rscale>
<asrwt>0</asrwt>
<pdfrwt beam="1">  1       21 0.64672777E-01 0.10262141E+03</pdfrwt>
<pdfrwt beam="2">  1       21 0.94244374E-02 0.10262141E+03</pdfrwt>
<totfact> 0.20372483E+05</totfact>
</mgrwt>
</event>
<event>
 4    1  0.6052129E+003  0.1159923E+03  0.7546771E-02  0.1249859E+00
         21   -1    0    0  503  501  0.00000000000E+00  0.00000000000E+00  0.14155096970E+04  0.14155096970E+04  0.00000000000E+00 0. -1.
         21   -1    0    0  501  502 -0.00000000000E+00 -0.00000000000E+00 -0.11496227880E+02  0.11496227880E+02  0.00000000000E+00 0. -1.
         21    1    1    2  503  504 -0.49068477997E+02  0.10510230201E+03  0.99896456263E+03  0.10056760944E+04  0.00000000000E+00 0. -1.
         21    1    1    2  504  502  0.49068477997E+02 -0.10510230201E+03  0.40504890651E+03  0.42132983052E+03  0.00000000000E+00 0. -1.
<mgrwt>
<rscale>  2 0.11599228E+03</rscale>
<asrwt>0</asrwt>
<pdfrwt beam="1">  1       21 0.21777058E+00 0.11599228E+03</pdfrwt>
<pdfrwt beam="2">  1       21 0.17686516E-02 0.11599228E+03</pdfrwt>
<totfact> 0.16362014E+05</totfact>
</mgrwt>
</event>
<event>
 4    1  0.6052129E+003  0.1178162E+03  0.7546771E-02  0.1246744E+00
         21   -1    0    0  503  501  0.00000000000E+00  0.00000000000E+00  0.34339133868E+02  0.34339133868E+02  0.00000000000E+00 0. -1.
         21   -1    0    0  504  502 -0.00000000000E+00 -0.00000000000E+00 -0.41454074926E+03  0.41454074926E+03  0.00000000000E+00 0. -1.
         21    1    1    2  503  502 -0.62827199006E+02  0.99666396436E+02 -0.15469117717E+03  0.19444795656E+03  0.00000000000E+00 0. -1.
         21    1    1    2  504  501  0.62827199006E+02 -0.99666396436E+02 -0.22551043822E+03  0.25443192657E+03  0.00000000000E+00 0. -1.
<mgrwt>
<rscale>  2 0.11781616E+03</rscale>
<asrwt>0</asrwt>
<pdfrwt beam="1">  1       21 0.52829435E-02 0.11781616E+03</pdfrwt>
<pdfrwt beam="2">  1       21 0.63775502E-01 0.11781616E+03</pdfrwt>
<totfact> 0.56160462E+05</totfact>
</mgrwt>
</event>
<event>
 4    1  0.6052129E+003  0.1021428E+03  0.7546771E-02  0.1275853E+00
         21   -1    0    0  503  501  0.00000000000E+00  0.00000000000E+00  0.32360013501E+03  0.32360013501E+03  0.00000000000E+00 0.  1.
         21   -1    0    0  504  502 -0.00000000000E+00 -0.00000000000E+00 -0.34197742553E+02  0.34197742553E+02  0.00000000000E+00 0.  1.
         21    1    1    2  503  502  0.73985207368E+02 -0.70422554036E+02  0.18749602532E+03  0.21351324674E+03  0.00000000000E+00 0.  1.
         21    1    1    2  504  501 -0.73985207368E+02  0.70422554036E+02  0.10190636714E+03  0.14428463081E+03  0.00000000000E+00 0.  1.
<mgrwt>
<rscale>  2 0.10214278E+03</rscale>
<asrwt>0</asrwt>
<pdfrwt beam="1">  1       21 0.49784634E-01 0.10214278E+03</pdfrwt>
<pdfrwt beam="2">  1       21 0.52611914E-02 0.10214278E+03</pdfrwt>
<totfact> 0.94934817E+05</totfact>
</mgrwt>
</event>
<event>
 4    1  0.6052129E+003  0.1016430E+03  0.7546771E-02  0.1276878E+00
         21   -1    0    0  503  501  0.00000000000E+00  0.00000000000E+00  0.66378054689E+02  0.66378054689E+02  0.00000000000E+00 0.  1.
         21   -1    0    0  504  502 -0.00000000000E+00 -0.00000000000E+00 -0.21492175943E+03  0.21492175943E+03  0.00000000000E+00 0.  1.
         21    1    1    2  503  502 -0.38436008738E+02 -0.94095541793E+02 -0.40530407782E+00  0.10164379973E+03  0.00000000000E+00 0.  1.
         21    1    1    2  504  501  0.38436008738E+02  0.94095541793E+02 -0.14813840066E+03  0.17965601438E+03  0.00000000000E+00 0.  1.
<mgrwt>
<rscale>  2 0.10164299E+03</rscale>
<asrwt>0</asrwt>
<pdfrwt beam="1">  1       21 0.10212009E-01 0.10164299E+03</pdfrwt>
<pdfrwt beam="2">  1       21 0.33064886E-01 0.10164299E+03</pdfrwt>
<totfact> 0.69173727E+05</totfact>
</mgrwt>
</event>
<event>
 4    1  0.6052129E+003  0.1125546E+03  0.7546771E-02  0.1255911E+00
         21   -1    0    0  503  501  0.00000000000E+00  0.00000000000E+00  0.43387350522E+03  0.43387350522E+03  0.00000000000E+00 0. -1.
         21   -1    0    0  501  502 -0.00000000000E+00 -0.00000000000E+00 -0.13145426796E+03  0.13145426796E+03  0.00000000000E+00 0. -1.
         21    1    1    2  503  504 -0.20237739689E+02  0.11072022374E+03  0.40051204406E+03  0.41602696005E+03  0.00000000000E+00 0. -1.
         21    1    1    2  504  502  0.20237739689E+02 -0.11072022374E+03 -0.98092806799E+02  0.14930081312E+03  0.00000000000E+00 0. -1.
<mgrwt>
<rscale>  2 0.11255458E+03</rscale>
<asrwt>0</asrwt>
<pdfrwt beam="1">  1       21 0.66749769E-01 0.11255458E+03</pdfrwt>
<pdfrwt beam="2">  1       21 0.20223734E-01 0.11255458E+03</pdfrwt>
<totfact> 0.48524462E+04</totfact>
</mgrwt>
</event>
<event>
 4    1  0.6052129E+003  0.1251154E+03  0.7546771E-02  0.1234889E+00
         21   -1    0    0  503  501  0.00000000000E+00  0.00000000000E+00  0.18172250541E+03  0.18172250541E+03  0.00000000000E+00 0. -1.
         21   -1    0    0  504  502 -0.00000000000E+00 -0.00000000000E+00 -0.11551096537E+03  0.11551096537E+03  0.00000000000E+00 0. -1.
         21    1    1    2  503  502 -0.11114093794E+03  0.57459135684E+02  0.10804404242E+03  0.16530993757E+03  0.00000000000E+00 0. -1.
         21    1    1    2  504  501  0.11114093794E+03 -0.57459135684E+02 -0.41832502380E+02  0.13192353321E+03  0.00000000000E+00 0. -1.
<mgrwt>
<rscale>  2 0.12511539E+03</rscale>
<asrwt>0</asrwt>
<pdfrwt beam="1">  1       21 0.27957309E-01 0.12511539E+03</pdfrwt>
<pdfrwt beam="2">  1       21 0.17770918E-01 0.12511539E+03</pdfrwt>
<totfact> 0.35553143E+05</totfact>
</mgrwt>
</event>
<event>
 4    1  0.6052129E+003  0.1153509E+03  0.7546771E-02  0.1250970E+00
         21   -1    0    0  503  501  0.00000000000E+00  0.00000000000E+00  0.44262741604E+03  0.44262741604E+03  0.00000000000E+00 0.  1.
         21   -1    0    0  504  502 -0.00000000000E+00 -0.00000000000E+00 -0.13257631945E+03  0.13257631945E+03  0.00000000000E+00 0.  1.
         21    1    1    2  503  502 -0.11501684623E+03 -0.87720823960E+01  0.40792803529E+03  0.42392346753E+03  0.00000000000E+00 0.  1.
         21    1    1    2  504  501  0.11501684623E+03  0.87720823960E+01 -0.97876938703E+02  0.15128026797E+03  0.00000000000E+00 0.  1.
<mgrwt>
<rscale>  2 0.11535087E+03</rscale>
<asrwt>0</asrwt>
<pdfrwt beam="1">  1       21 0.68096525E-01 0.11535087E+03</pdfrwt>
<pdfrwt beam="2">  1       21 0.20396357E-01 0.11535087E+03</pdfrwt>
<totfact> 0.45671334E+04</totfact>
</mgrwt>
</event>
<event>
 4    1  0.6052129E+003  0.1037443E+03  0.7546771E-02  0.1272614E+00
         21   -1    0    0  504  501  0.00000000000E+00  0.00000000000E+00  0.16166300582E+04  0.16166300582E+04  0.00000000000E+00 0. -1.
         21   -1    0    0  503  502 -0.00000000000E+00 -0.00000000000E+00 -0.13383659030E+02  0.13383659030E+02  0.00000000000E+00 0. -1.
         21    1    1    2  503  501  0.41630865197E+02  0.95024983267E+02  0.22385429198E+03  0.24672580007E+03  0.00000000000E+00 0. -1.
         21    1    1    2  504  502 -0.41630865197E+02 -0.95024983267E+02  0.13793921072E+04  0.13832879172E+04  0.00000000000E+00 0. -1.
<mgrwt>
<rscale>  2 0.10374428E+03</rscale>
<asrwt>0</asrwt>
<pdfrwt beam="1">  1       21 0.24871216E+00 0.10374428E+03</pdfrwt>
<pdfrwt beam="2">  1       21 0.20590257E-02 0.10374428E+03</pdfrwt>
<totfact> 0.85702834E+04</totfact>
</mgrwt>
</event>
<event>
 4    1  0.6052129E+003  0.1234011E+03  0.7546771E-02  0.1237589E+00
         21   -1    0    0  503  501  0.00000000000E+00  0.00000000000E+00  0.18753918727E+03  0.18753918727E+03  0.00000000000E+00 0. -1.
         21   -1    0    0  501  502 -0.00000000000E+00 -0.00000000000E+00 -0.12020810792E+03  0.12020810792E+03  0.00000000000E+00 0.  1.
         21    1    1    2  503  504 -0.95670738335E+02  0.77941963217E+02  0.12132220970E+03  0.17305177945E+03  0.00000000000E+00 0. -1.
         21    1    1    2  504  502  0.95670738335E+02 -0.77941963217E+02 -0.53991130354E+02  0.13469551574E+03  0.00000000000E+00 0.  1.
<mgrwt>
<rscale>  2 0.12340113E+03</rscale>
<asrwt>0</asrwt>
<pdfrwt beam="1">  1       21 0.28852183E-01 0.12340113E+03</pdfrwt>
<pdfrwt beam="2">  1       21 0.18493555E-01 0.12340113E+03</pdfrwt>
<totfact> 0.31125342E+05</totfact>
</mgrwt>
</event>
<event>
 4    1  0.6052129E+003  0.1308530E+03  0.7546771E-02  0.1226196E+00
         21   -1    0    0  504  501  0.00000000000E+00  0.00000000000E+00  0.13432995170E+02  0.13432995170E+02  0.00000000000E+00 0. -1.
         21   -1    0    0  503  502 -0.00000000000E+00 -0.00000000000E+00 -0.12754562781E+04  0.12754562781E+04  0.00000000000E+00 0. -1.
         21    1    1    2  503  501 -0.11727355096E+03 -0.58046687640E+02 -0.64711227876E+03  0.66020966747E+03  0.00000000000E+00 0. -1.
         21    1    1    2  504  502  0.11727355096E+03  0.58046687640E+02 -0.61491100421E+03  0.62867960584E+03  0.00000000000E+00 0. -1.
<mgrwt>
<rscale>  2 0.13085299E+03</rscale>
<asrwt>0</asrwt>
<pdfrwt beam="1">  1       21 0.20666139E-02 0.13085299E+03</pdfrwt>
<pdfrwt beam="2">  1       21 0.19622411E+00 0.13085299E+03</pdfrwt>
<totfact> 0.17123726E+05</totfact>
</mgrwt>
</event>
<event>
 4    1  0.6052129E+003  0.1254319E+03  0.7546771E-02  0.1234396E+00
         21   -1    0    0  502  501  0.00000000000E+00  0.00000000000E+00  0.11281149379E+04  0.11281149379E+04  0.00000000000E+00 0.  1.
         21   -1    0    0  504  502 -0.00000000000E+00 -0.00000000000E+00 -0.29477063916E+02  0.29477063916E+02  0.00000000000E+00 0. -1.
         21    1    1    2  503  501 -0.11426564366E+03  0.51735203806E+02  0.96944351863E+03  0.97752437538E+03  0.00000000000E+00 0.  1.
         21    1    1    2  504  503  0.11426564366E+03 -0.51735203806E+02  0.12919435531E+03  0.18006762640E+03  0.00000000000E+00 0. -1.
<mgrwt>
<rscale>  2 0.12543193E+03</rscale>
<asrwt>0</asrwt>
<pdfrwt beam="1">  1       21 0.17355611E+00 0.12543193E+03</pdfrwt>
<pdfrwt beam="2">  1       21 0.45349338E-02 0.12543193E+03</pdfrwt>
<totfact> 0.66644684E+04</totfact>
</mgrwt>
</event>
<event>
 4    1  0.6052129E+003  0.1137249E+03  0.7546771E-02  0.1253823E+00
         21   -1    0    0  502  501  0.00000000000E+00  0.00000000000E+00  0.23131652621E+02  0.23131652621E+02  0.00000000000E+00 0. -1.
         21   -1    0    0  504  502 -0.00000000000E+00 -0.00000000000E+00 -0.68393744214E+03  0.68393744214E+03  0.00000000000E+00 0.  1.
         21    1    1    2  503  501  0.39287359943E+02 -0.10672325881E+03 -0.17937306354E+03  0.21238654982E+03  0.00000000000E+00 0. -1.
         21    1    1    2  504  503 -0.39287359943E+02  0.10672325881E+03 -0.48143272598E+03  0.49468254494E+03  0.00000000000E+00 0.  1.
<mgrwt>
<rscale>  2 0.11372489E+03</rscale>
<asrwt>0</asrwt>
<pdfrwt beam="1">  1       21 0.35587158E-02 0.11372489E+03</pdfrwt>
<pdfrwt beam="2">  1       21 0.10522115E+00 0.11372489E+03</pdfrwt>
<totfact> 0.35299100E+05</totfact>
</mgrwt>
</event>
<event>
 4    1  0.6052129E+003  0.1457074E+03  0.7546771E-02  0.1205849E+00
         21   -1    0    0  503  501  0.00000000000E+00  0.00000000000E+00  0.13529990988E+03  0.13529990988E+03  0.00000000000E+00 0. -1.
         21   -1    0    0  504  502 -0.00000000000E+00 -0.00000000000E+00 -0.19215637959E+03  0.19215637959E+03  0.00000000000E+00 0. -1.
         21    1    1    2  503  502 -0.27336323921E+02  0.14312017692E+03  0.41688067388E+02  0.15155380104E+03  0.00000000000E+00 0. -1.
         21    1    1    2  504  501  0.27336323921E+02 -0.14312017692E+03 -0.98544537101E+02  0.17590248844E+03  0.00000000000E+00 0. -1.
<mgrwt>
<rscale>  2 0.14570745E+03</rscale>
<asrwt>0</asrwt>
<pdfrwt beam="1">  1       21 0.20815371E-01 0.14570745E+03</pdfrwt>
<pdfrwt beam="2">  1       21 0.29562520E-01 0.14570745E+03</pdfrwt>
<totfact> 0.23767159E+05</totfact>
</mgrwt>
</event>
<event>
 4    1  0.6052129E+003  0.1059569E+03  0.7546771E-02  0.1268246E+00
         21   -1    0    0  503  501  0.00000000000E+00  0.00000000000E+00  0.37996326846E+03  0.37996326846E+03  0.00000000000E+00 0.  1.
         21   -1    0    0  504  502 -0.00000000000E+00 -0.00000000000E+00 -0.29909315214E+03  0.29909315214E+03  0.00000000000E+00 0.  1.
         21    1    1    2  503  502  0.10565620032E+03 -0.79765371167E+01 -0.28188625325E+03  0.30114235435E+03  0.00000000000E+00 0.  1.
         21    1    1    2  504  501 -0.10565620032E+03  0.79765371167E+01  0.36275636957E+03  0.37791406625E+03  0.00000000000E+00 0.  1.
<mgrwt>
<rscale>  2 0.10595687E+03</rscale>
<asrwt>0</asrwt>
<pdfrwt beam="1">  1       21 0.58455887E-01 0.10595687E+03</pdfrwt>
<pdfrwt beam="2">  1       21 0.46014331E-01 0.10595687E+03</pdfrwt>
<totfact> 0.13266546E+04</totfact>
</mgrwt>
</event>
<event>
 4    1  0.6052129E+003  0.1182817E+03  0.7546771E-02  0.1245959E+00
         21   -1    0    0  503  501  0.00000000000E+00  0.00000000000E+00  0.14678401727E+02  0.14678401727E+02  0.00000000000E+00 0. -1.
         21   -1    0    0  501  502 -0.00000000000E+00 -0.00000000000E+00 -0.97249039517E+03  0.97249039517E+03  0.00000000000E+00 0. -1.
         21    1    1    2  503  504  0.10478875416E+03  0.54862268177E+02 -0.40927874674E+03  0.42602775027E+03  0.00000000000E+00 0. -1.
         21    1    1    2  504  502 -0.10478875416E+03 -0.54862268177E+02 -0.54853324670E+03  0.56114104662E+03  0.00000000000E+00 0. -1.
<mgrwt>
<rscale>  2 0.11828166E+03</rscale>
<asrwt>0</asrwt>
<pdfrwt beam="1">  1       21 0.22582154E-02 0.11828166E+03</pdfrwt>
<pdfrwt beam="2">  1       21 0.14961392E+00 0.11828166E+03</pdfrwt>
<totfact> 0.31158171E+05</totfact>
</mgrwt>
</event>
<event>
 4    1  0.6052129E+003  0.1117848E+03  0.7546771E-02  0.1257300E+00
         21   -1    0    0  502  501  0.00000000000E+00  0.00000000000E+00  0.67199460996E+02  0.67199460996E+02  0.00000000000E+00 0.  1.
         21   -1    0    0  504  502 -0.00000000000E+00 -0.00000000000E+00 -0.29427516417E+03  0.29427516417E+03  0.00000000000E+00 0.  1.
         21    1    1    2  503  501  0.12129789512E+02 -0.11112471787E+03 -0.38817351810E+01  0.11185214608E+03  0.00000000000E+00 0.  1.
         21    1    1    2  504  503 -0.12129789512E+02  0.11112471787E+03 -0.22319396799E+03  0.24962247908E+03  0.00000000000E+00 0.  1.
<mgrwt>
<rscale>  2 0.11178477E+03</rscale>
<asrwt>0</asrwt>
<pdfrwt beam="1">  1       21 0.10338379E-01 0.11178477E+03</pdfrwt>
<pdfrwt beam="2">  1       21 0.45273102E-01 0.11178477E+03</pdfrwt>
<totfact> 0.36322161E+05</totfact>
</mgrwt>
</event>
<event>
 4    1  0.6052129E+003  0.1200564E+03  0.7546771E-02  0.1243004E+00
         21   -1    0    0  504  501  0.00000000000E+00  0.00000000000E+00  0.61456866356E+03  0.61456866356E+03  0.00000000000E+00 0. -1.
         21   -1    0    0  503  502 -0.00000000000E+00 -0.00000000000E+00 -0.10080365919E+03  0.10080365919E+03  0.00000000000E+00 0. -1.
         21    1    1    2  503  501  0.11584782208E+03  0.31508905591E+02  0.57020802266E+03  0.58270980609E+03  0.00000000000E+00 0. -1.
         21    1    1    2  504  502 -0.11584782208E+03 -0.31508905591E+02 -0.56443018291E+02  0.13266251666E+03  0.00000000000E+00 0. -1.
<mgrwt>
<rscale>  2 0.12005636E+03</rscale>
<asrwt>0</asrwt>
<pdfrwt beam="1">  1       21 0.94549023E-01 0.12005636E+03</pdfrwt>
<pdfrwt beam="2">  1       21 0.15508256E-01 0.12005636E+03</pdfrwt>
<totfact> 0.36095352E+04</totfact>
</mgrwt>
</event>
<event>
 4    1  0.6052129E+003  0.1052085E+03  0.7546771E-02  0.1269709E+00
         21   -1    0    0  504  501  0.00000000000E+00  0.00000000000E+00  0.11882364695E+04  0.11882364695E+04  0.00000000000E+00 0. -1.
         21   -1    0    0  503  502 -0.00000000000E+00 -0.00000000000E+00 -0.16146733775E+02  0.16146733775E+02  0.00000000000E+00 0. -1.
         21    1    1    2  503  501 -0.16435624051E+01  0.10519571024E+03  0.97773866116E+03  0.98338279845E+03  0.00000000000E+00 0. -1.
         21    1    1    2  504  502  0.16435624051E+01 -0.10519571024E+03  0.19435107458E+03  0.22100040484E+03  0.00000000000E+00 0. -1.
<mgrwt>
<rscale>  2 0.10520855E+03</rscale>
<asrwt>0</asrwt>
<pdfrwt beam="1">  1       21 0.18280554E+00 0.10520855E+03</pdfrwt>
<pdfrwt beam="2">  1       21 0.24841138E-02 0.10520855E+03</pdfrwt>
<totfact> 0.15764000E+05</totfact>
</mgrwt>
</event>
<event>
 4    1  0.6052129E+003  0.1099982E+03  0.7546771E-02  0.1260573E+00
         21   -1    0    0  504  501  0.00000000000E+00  0.00000000000E+00  0.52979933342E+03  0.52979933342E+03  0.00000000000E+00 0. -1.
         21   -1    0    0  503  502 -0.00000000000E+00 -0.00000000000E+00 -0.39250122637E+02  0.39250122637E+02  0.00000000000E+00 0. -1.
         21    1    1    2  503  501 -0.34145808450E+02  0.10456422463E+03  0.61290424833E+02  0.12592112406E+03  0.00000000000E+00 0. -1.
         21    1    1    2  504  502  0.34145808450E+02 -0.10456422463E+03  0.42925878595E+03  0.44312833200E+03  0.00000000000E+00 0. -1.
<mgrwt>
<rscale>  2 0.10999824E+03</rscale>
<asrwt>0</asrwt>
<pdfrwt beam="1">  1       21 0.81507585E-01 0.10999824E+03</pdfrwt>
<pdfrwt beam="2">  1       21 0.60384808E-02 0.10999824E+03</pdfrwt>
<totfact> 0.26270365E+05</totfact>
</mgrwt>
</event>
<event>
 4    1  0.6052129E+003  0.1130625E+03  0.7546771E-02  0.1255002E+00
         21   -1    0    0  504  501  0.00000000000E+00  0.00000000000E+00  0.16393529385E+03  0.16393529385E+03  0.00000000000E+00 0. -1.
         21   -1    0    0  503  502 -0.00000000000E+00 -0.00000000000E+00 -0.78327896135E+02  0.78327896135E+02  0.00000000000E+00 0. -1.
         21    1    1    2  503  501  0.11246056983E+03  0.11650848974E+02  0.50915480141E+02  0.12399801678E+03  0.00000000000E+00 0. -1.
         21    1    1    2  504  502 -0.11246056983E+03 -0.11650848974E+02  0.34691917570E+02  0.11826517320E+03  0.00000000000E+00 0. -1.
<mgrwt>
<rscale>  2 0.11306247E+03</rscale>
<asrwt>0</asrwt>
<pdfrwt beam="1">  1       21 0.25220814E-01 0.11306247E+03</pdfrwt>
<pdfrwt beam="2">  1       21 0.12050446E-01 0.11306247E+03</pdfrwt>
<totfact> 0.86887746E+05</totfact>
</mgrwt>
</event>
<event>
 4    1  0.6052129E+003  0.1030392E+03  0.7546771E-02  0.1274032E+00
         21   -1    0    0  504  501  0.00000000000E+00  0.00000000000E+00  0.18311401511E+03  0.18311401511E+03  0.00000000000E+00 0.  1.
         21   -1    0    0  503  502 -0.00000000000E+00 -0.00000000000E+00 -0.60683035742E+02  0.60683035742E+02  0.00000000000E+00 0.  1.
         21    1    1    2  503  501 -0.88549333043E+02  0.52688638182E+02  0.35491682517E+02  0.10898044092E+03  0.00000000000E+00 0.  1.
         21    1    1    2  504  502  0.88549333043E+02 -0.52688638182E+02  0.86939296855E+02  0.13481660993E+03  0.00000000000E+00 0.  1.
<mgrwt>
<rscale>  2 0.10303920E+03</rscale>
<asrwt>0</asrwt>
<pdfrwt beam="1">  1       21 0.28171387E-01 0.10303920E+03</pdfrwt>
<pdfrwt beam="2">  1       21 0.93358517E-02 0.10303920E+03</pdfrwt>
<totfact> 0.10995814E+06</totfact>
</mgrwt>
</event>
<event>
 4    1  0.6052129E+003  0.1004338E+03  0.7546771E-02  0.1279386E+00
         21   -1    0    0  504  501  0.00000000000E+00  0.00000000000E+00  0.39610511539E+02  0.39610511539E+02  0.00000000000E+00 0.  1.
         21   -1    0    0  503  502 -0.00000000000E+00 -0.00000000000E+00 -0.42874314942E+03  0.42874314942E+03  0.00000000000E+00 0.  1.
         21    1    1    2  503  501  0.92338737235E+02  0.39503226670E+02 -0.45344593707E+02  0.11019564188E+03  0.00000000000E+00 0.  1.
         21    1    1    2  504  502 -0.92338737235E+02 -0.39503226670E+02 -0.34378804418E+03  0.35815801908E+03  0.00000000000E+00 0.  1.
<mgrwt>
<rscale>  2 0.10043380E+03</rscale>
<asrwt>0</asrwt>
<pdfrwt beam="1">  1       21 0.60939248E-02 0.10043380E+03</pdfrwt>
<pdfrwt beam="2">  1       21 0.65960485E-01 0.10043380E+03</pdfrwt>
<totfact> 0.41155440E+05</totfact>
</mgrwt>
</event>
<event>
 4    1  0.6052129E+003  0.1167105E+03  0.7546771E-02  0.1248625E+00
         21   -1    0    0  504  501  0.00000000000E+00  0.00000000000E+00  0.54966204183E+03  0.54966204183E+03  0.00000000000E+00 0.  1.
         21   -1    0    0  503  502 -0.00000000000E+00 -0.00000000000E+00 -0.86510859329E+02  0.86510859329E+02  0.00000000000E+00 0.  1.
         21    1    1    2  503  501 -0.47688810985E+02 -0.10652282238E+03  0.50026867088E+03  0.51370232377E+03  0.00000000000E+00 0.  1.
         21    1    1    2  504  502  0.47688810985E+02  0.10652282238E+03 -0.37117488382E+02  0.12247057739E+03  0.00000000000E+00 0.  1.
<mgrwt>
<rscale>  2 0.11671047E+03</rscale>
<asrwt>0</asrwt>
<pdfrwt beam="1">  1       21 0.84563389E-01 0.11671047E+03</pdfrwt>
<pdfrwt beam="2">  1       21 0.13309363E-01 0.11671047E+03</pdfrwt>
<totfact> 0.61350775E+04</totfact>
</mgrwt>
</event>
<event>
 4    1  0.6052129E+003  0.1133315E+03  0.7546771E-02  0.1254522E+00
         21   -1    0    0  502  501  0.00000000000E+00  0.00000000000E+00  0.48872874555E+02  0.48872874555E+02  0.00000000000E+00 0.  1.
         21   -1    0    0  504  502 -0.00000000000E+00 -0.00000000000E+00 -0.30014272314E+03  0.30014272314E+03  0.00000000000E+00 0.  1.
         21    1    1    2  503  501 -0.62860989229E+02 -0.94300137202E+02 -0.64085110215E+02  0.13019570344E+03  0.00000000000E+00 0.  1.
         21    1    1    2  504  503  0.62860989229E+02  0.94300137202E+02 -0.18718473837E+03  0.21881989426E+03  0.00000000000E+00 0.  1.
<mgrwt>
<rscale>  2 0.11333146E+03</rscale>
<asrwt>0</asrwt>
<pdfrwt beam="1">  1       21 0.75189037E-02 0.11333146E+03</pdfrwt>
<pdfrwt beam="2">  1       21 0.46175804E-01 0.11333146E+03</pdfrwt>
<totfact> 0.60508461E+05</totfact>
</mgrwt>
</event>
<event>
 4    1  0.6052129E+003  0.1083459E+03  0.7546771E-02  0.1263664E+00
         21   -1    0    0  504  501  0.00000000000E+00  0.00000000000E+00  0.10783069201E+04  0.10783069201E+04  0.00000000000E+00 0. -1.
         21   -1    0    0  501  502 -0.00000000000E+00 -0.00000000000E+00 -0.94613731133E+02  0.94613731133E+02  0.00000000000E+00 0.  1.
         21    1    1    2  503  502 -0.43214805348E+01 -0.10825969693E+03 -0.59843619696E+02  0.12377437535E+03  0.00000000000E+00 0.  1.
         21    1    1    2  504  503  0.43214805348E+01  0.10825969693E+03  0.10435368086E+04  0.10491462759E+04  0.00000000000E+00 0. -1.
<mgrwt>
<rscale>  2 0.10834591E+03</rscale>
<asrwt>0</asrwt>
<pdfrwt beam="1">  1       21 0.16589336E+00 0.10834591E+03</pdfrwt>
<pdfrwt beam="2">  1       21 0.14555959E-01 0.10834591E+03</pdfrwt>
<totfact> 0.10236994E+04</totfact>
</mgrwt>
</event>
<event>
 4    1  0.6052129E+003  0.1358742E+03  0.7546771E-02  0.1218991E+00
         21   -1    0    0  504  501  0.00000000000E+00  0.00000000000E+00  0.14489047903E+04  0.14489047903E+04  0.00000000000E+00 0.  1.
         21   -1    0    0  503  502 -0.00000000000E+00 -0.00000000000E+00 -0.35215782951E+02  0.35215782951E+02  0.00000000000E+00 0.  1.
         21    1    1    2  503  501  0.10165682169E+03 -0.90153627665E+02  0.11404249576E+03  0.17739074614E+03  0.00000000000E+00 0.  1.
         21    1    1    2  504  502 -0.10165682169E+03  0.90153627665E+02  0.12996465116E+04  0.13067298271E+04  0.00000000000E+00 0.  1.
<mgrwt>
<rscale>  2 0.13587415E+03</rscale>
<asrwt>0</asrwt>
<pdfrwt beam="1">  1       21 0.22290838E+00 0.13587415E+03</pdfrwt>
<pdfrwt beam="2">  1       21 0.54178139E-02 0.13587415E+03</pdfrwt>
<totfact> 0.23817904E+04</totfact>
</mgrwt>
</event>
<event>
 4    1  0.6052129E+003  0.1063577E+03  0.7546771E-02  0.1267467E+00
         21   -1    0    0  502  501  0.00000000000E+00  0.00000000000E+00  0.16885885575E+03  0.16885885575E+03  0.00000000000E+00 0.  1.
         21   -1    0    0  504  502 -0.00000000000E+00 -0.00000000000E+00 -0.85044879741E+02  0.85044879741E+02  0.00000000000E+00 0.  1.
         21    1    1    2  503  501 -0.17252899666E+02 -0.10494905530E+03  0.10040004659E+03  0.14626050769E+03  0.00000000000E+00 0.  1.
         21    1    1    2  504  503  0.17252899666E+02  0.10494905530E+03 -0.16586070579E+02  0.10764322780E+03  0.00000000000E+00 0.  1.
<mgrwt>
<rscale>  2 0.10635773E+03</rscale>
<asrwt>0</asrwt>
<pdfrwt beam="1">  1       21 0.25978285E-01 0.10635773E+03</pdfrwt>
<pdfrwt beam="2">  1       21 0.13083828E-01 0.10635773E+03</pdfrwt>
<totfact> 0.71007328E+05</totfact>
</mgrwt>
</event>
<event>
 4    1  0.6052129E+003  0.1034921E+03  0.7546771E-02  0.1273119E+00
         21   -1    0    0  502  501  0.00000000000E+00  0.00000000000E+00  0.17711842139E+02  0.17711842139E+02  0.00000000000E+00 0. -1.
         21   -1    0    0  503  502 -0.00000000000E+00 -0.00000000000E+00 -0.10246435796E+04  0.10246435796E+04  0.00000000000E+00 0. -1.
         21    1    1    2  503  504 -0.26811105118E+02 -0.99958877937E+02 -0.83711289260E+03  0.84348598542E+03  0.00000000000E+00 0. -1.
         21    1    1    2  504  501  0.26811105118E+02  0.99958877937E+02 -0.16981884490E+03  0.19886943636E+03  0.00000000000E+00 0. -1.
<mgrwt>
<rscale>  2 0.10349209E+03</rscale>
<asrwt>0</asrwt>
<pdfrwt beam="1">  1       21 0.27248980E-02 0.10349209E+03</pdfrwt>
<pdfrwt beam="2">  1       21 0.15763752E+00 0.10349209E+03</pdfrwt>
<totfact> 0.20195062E+05</totfact>
</mgrwt>
</event>
<event>
 4    1  0.6052129E+003  0.1145305E+03  0.7546771E-02  0.1252403E+00
         21   -1    0    0  502  501  0.00000000000E+00  0.00000000000E+00  0.64559384392E+02  0.64559384392E+02  0.00000000000E+00 0.  1.
         21   -1    0    0  503  502 -0.00000000000E+00 -0.00000000000E+00 -0.31852647140E+03  0.31852647140E+03  0.00000000000E+00 0.  1.
         21    1    1    2  503  504  0.10829969832E+03 -0.37261265597E+02 -0.24224763468E+03  0.26795735309E+03  0.00000000000E+00 0.  1.
         21    1    1    2  504  501 -0.10829969832E+03  0.37261265597E+02 -0.11719452328E+02  0.11512850270E+03  0.00000000000E+00 0.  1.
<mgrwt>
<rscale>  2 0.11453046E+03</rscale>
<asrwt>0</asrwt>
<pdfrwt beam="1">  1       21 0.99322131E-02 0.11453046E+03</pdfrwt>
<pdfrwt beam="2">  1       21 0.49004072E-01 0.11453046E+03</pdfrwt>
<totfact> 0.33133210E+05</totfact>
</mgrwt>
</event>
<event>
 4    1  0.6052129E+003  0.1145734E+03  0.7546771E-02  0.1252328E+00
         21   -1    0    0  504  501  0.00000000000E+00  0.00000000000E+00  0.21973427393E+03  0.21973427393E+03  0.00000000000E+00 0. -1.
         21   -1    0    0  503  502 -0.00000000000E+00 -0.00000000000E+00 -0.68901477958E+02  0.68901477958E+02  0.00000000000E+00 0. -1.
         21    1    1    2  503  501 -0.10565764139E+03  0.44311667686E+02  0.22793591309E+02  0.11681870091E+03  0.00000000000E+00 0. -1.
         21    1    1    2  504  502  0.10565764139E+03 -0.44311667686E+02  0.12803920466E+03  0.17181705098E+03  0.00000000000E+00 0. -1.
<mgrwt>
<rscale>  2 0.11457339E+03</rscale>
<asrwt>0</asrwt>
<pdfrwt beam="1">  1       21 0.33805273E-01 0.11457339E+03</pdfrwt>
<pdfrwt beam="2">  1       21 0.10600227E-01 0.11457339E+03</pdfrwt>
<totfact> 0.62093757E+05</totfact>
</mgrwt>
</event>
<event>
 4    1  0.6052129E+003  0.1169380E+03  0.7546771E-02  0.1248236E+00
         21   -1    0    0  504  501  0.00000000000E+00  0.00000000000E+00  0.17442916308E+03  0.17442916308E+03  0.00000000000E+00 0. -1.
         21   -1    0    0  503  502 -0.00000000000E+00 -0.00000000000E+00 -0.19871777138E+03  0.19871777138E+03  0.00000000000E+00 0. -1.
         21    1    1    2  503  501  0.35804865814E+02 -0.11132158837E+03 -0.15732347154E+03  0.19602336379E+03  0.00000000000E+00 0. -1.
         21    1    1    2  504  502 -0.35804865814E+02  0.11132158837E+03  0.13303486324E+03  0.17712357068E+03  0.00000000000E+00 0. -1.
<mgrwt>
<rscale>  2 0.11693795E+03</rscale>
<asrwt>0</asrwt>
<pdfrwt beam="1">  1       21 0.26835256E-01 0.11693795E+03</pdfrwt>
<pdfrwt beam="2">  1       21 0.30571965E-01 0.11693795E+03</pdfrwt>
<totfact> 0.13930211E+05</totfact>
</mgrwt>
</event>
<event>
 4    1  0.6052129E+003  0.1255020E+03  0.7546771E-02  0.1234287E+00
         21   -1    0    0  504  501  0.00000000000E+00  0.00000000000E+00  0.18599648999E+03  0.18599648999E+03  0.00000000000E+00 0. -1.
         21   -1    0    0  503  502 -0.00000000000E+00 -0.00000000000E+00 -0.85632252605E+02  0.85632252605E+02  0.00000000000E+00 0. -1.
         21    1    1    2  503  501 -0.12306536721E+03  0.24610308339E+02  0.35883164866E+02  0.13053104383E+03  0.00000000000E+00 0. -1.
         21    1    1    2  504  502  0.12306536721E+03 -0.24610308339E+02  0.64481072521E+02  0.14109769876E+03  0.00000000000E+00 0. -1.
<mgrwt>
<rscale>  2 0.12550200E+03</rscale>
<asrwt>0</asrwt>
<pdfrwt beam="1">  1       21 0.28614844E-01 0.12550200E+03</pdfrwt>
<pdfrwt beam="2">  1       21 0.13174193E-01 0.12550200E+03</pdfrwt>
<totfact> 0.58357317E+05</totfact>
</mgrwt>
</event>
<event>
 4    1  0.6052129E+003  0.1579690E+03  0.7546771E-02  0.1191009E+00
         21   -1    0    0  503  501  0.00000000000E+00  0.00000000000E+00  0.46785927096E+02  0.46785927096E+02  0.00000000000E+00 0.  1.
         21   -1    0    0  504  502 -0.00000000000E+00 -0.00000000000E+00 -0.53381967217E+03  0.53381967217E+03  0.00000000000E+00 0. -1.
         21    1    1    2  503  502  0.13948678757E+03  0.74146018727E+02 -0.25194528387E+03  0.29737286706E+03  0.00000000000E+00 0.  1.
         21    1    1    2  504  501 -0.13948678757E+03 -0.74146018727E+02 -0.23508846120E+03  0.28323273220E+03  0.00000000000E+00 0. -1.
<mgrwt>
<rscale>  2 0.15796897E+03</rscale>
<asrwt>0</asrwt>
<pdfrwt beam="1">  1       21 0.71978349E-02 0.15796897E+03</pdfrwt>
<pdfrwt beam="2">  1       21 0.82126104E-01 0.15796897E+03</pdfrwt>
<totfact> 0.18894091E+05</totfact>
</mgrwt>
</event>
<event>
 4    1  0.6052129E+003  0.1091372E+03  0.7546771E-02  0.1262176E+00
         21   -1    0    0  503  501  0.00000000000E+00  0.00000000000E+00  0.41134424012E+03  0.41134424012E+03  0.00000000000E+00 0. -1.
         21   -1    0    0  504  502 -0.00000000000E+00 -0.00000000000E+00 -0.14486522468E+03  0.14486522468E+03  0.00000000000E+00 0.  1.
         21    1    1    2  503  502  0.84810928060E+02  0.68687958104E+02 -0.11552310020E+03  0.15892298697E+03  0.00000000000E+00 0.  1.
         21    1    1    2  504  501 -0.84810928060E+02 -0.68687958104E+02  0.38200211565E+03  0.39728647783E+03  0.00000000000E+00 0. -1.
<mgrwt>
<rscale>  2 0.10913720E+03</rscale>
<asrwt>0</asrwt>
<pdfrwt beam="1">  1       21 0.63283729E-01 0.10913720E+03</pdfrwt>
<pdfrwt beam="2">  1       21 0.22286958E-01 0.10913720E+03</pdfrwt>
<totfact> 0.45544468E+04</totfact>
</mgrwt>
</event>
<event>
 4    1  0.6052129E+003  0.1087774E+03  0.7546771E-02  0.1262851E+00
         21   -1    0    0  504  501  0.00000000000E+00  0.00000000000E+00  0.28543215112E+02  0.28543215112E+02  0.00000000000E+00 0. -1.
         21   -1    0    0  503  502 -0.00000000000E+00 -0.00000000000E+00 -0.42330483334E+03  0.42330483334E+03  0.00000000000E+00 0. -1.
         21    1    1    2  503  501 -0.74762137145E+02  0.79013643503E+02 -0.22987525289E+03  0.25431312373E+03  0.00000000000E+00 0. -1.
         21    1    1    2  504  502  0.74762137145E+02 -0.79013643503E+02 -0.16488636533E+03  0.19753492472E+03  0.00000000000E+00 0. -1.
<mgrwt>
<rscale>  2 0.10877745E+03</rscale>
<asrwt>0</asrwt>
<pdfrwt beam="1">  1       21 0.43912642E-02 0.10877745E+03</pdfrwt>
<pdfrwt beam="2">  1       21 0.65123816E-01 0.10877745E+03</pdfrwt>
<totfact> 0.73164535E+05</totfact>
</mgrwt>
</event>
<event>
 4    1  0.6052129E+003  0.1809978E+03  0.7546771E-02  0.1166841E+00
         21   -1    0    0  504  501  0.00000000000E+00  0.00000000000E+00  0.20348010156E+03  0.20348010156E+03  0.00000000000E+00 0.  1.
         21   -1    0    0  501  502 -0.00000000000E+00 -0.00000000000E+00 -0.21053463196E+03  0.21053463196E+03  0.00000000000E+00 0.  1.
         21    1    1    2  503  502 -0.19526340348E+02 -0.17994140551E+03 -0.10393816204E+03  0.20871830038E+03  0.00000000000E+00 0.  1.
         21    1    1    2  504  503  0.19526340348E+02  0.17994140551E+03  0.96883631640E+02  0.20529643315E+03  0.00000000000E+00 0.  1.
<mgrwt>
<rscale>  2 0.18099776E+03</rscale>
<asrwt>0</asrwt>
<pdfrwt beam="1">  1       21 0.31304631E-01 0.18099776E+03</pdfrwt>
<pdfrwt beam="2">  1       21 0.32389943E-01 0.18099776E+03</pdfrwt>
<totfact> 0.90340657E+04</totfact>
</mgrwt>
</event>
<event>
 4    1  0.6052129E+003  0.1064748E+03  0.7546771E-02  0.1267241E+00
         21   -1    0    0  503  501  0.00000000000E+00  0.00000000000E+00  0.70034968220E+03  0.70034968220E+03  0.00000000000E+00 0.  1.
         21   -1    0    0  501  502 -0.00000000000E+00 -0.00000000000E+00 -0.37343738864E+02  0.37343738864E+02  0.00000000000E+00 0. -1.
         21    1    1    2  503  504 -0.75261026470E+02 -0.75317086681E+02  0.60912671818E+03  0.61836255098E+03  0.00000000000E+00 0.  1.
         21    1    1    2  504  502  0.75261026470E+02  0.75317086681E+02  0.53879225149E+02  0.11933087008E+03  0.00000000000E+00 0. -1.
<mgrwt>
<rscale>  2 0.10647481E+03</rscale>
<asrwt>0</asrwt>
<pdfrwt beam="1">  1       21 0.10774609E+00 0.10647481E+03</pdfrwt>
<pdfrwt beam="2">  1       21 0.57451911E-02 0.10647481E+03</pdfrwt>
<totfact> 0.15072210E+05</totfact>
</mgrwt>
</event>
<event>
 4    1  0.6052129E+003  0.1101296E+03  0.7546771E-02  0.1260330E+00
         21   -1    0    0  502  501  0.00000000000E+00  0.00000000000E+00  0.12190371675E+03  0.12190371675E+03  0.00000000000E+00 0. -1.
         21   -1    0    0  504  502 -0.00000000000E+00 -0.00000000000E+00 -0.21946033233E+03  0.21946033233E+03  0.00000000000E+00 0. -1.
         21    1    1    2  503  501 -0.43429422840E+02  0.10120483885E+03  0.77416576569E+02  0.13461745987E+03  0.00000000000E+00 0. -1.
         21    1    1    2  504  503  0.43429422840E+02 -0.10120483885E+03 -0.17497319215E+03  0.20674658920E+03  0.00000000000E+00 0. -1.
<mgrwt>
<rscale>  2 0.11012962E+03</rscale>
<asrwt>0</asrwt>
<pdfrwt beam="1">  1       21 0.18754418E-01 0.11012962E+03</pdfrwt>
<pdfrwt beam="2">  1       21 0.33763128E-01 0.11012962E+03</pdfrwt>
<totfact> 0.22454711E+05</totfact>
</mgrwt>
</event>
<event>
 4    1  0.6052129E+003  0.1057634E+03  0.7546771E-02  0.1268623E+00
         21   -1    0    0  504  501  0.00000000000E+00  0.00000000000E+00  0.40087878532E+02  0.40087878532E+02  0.00000000000E+00 0.  1.
         21   -1    0    0  503  502 -0.00000000000E+00 -0.00000000000E+00 -0.28516230768E+03  0.28516230768E+03  0.00000000000E+00 0.  1.
         21    1    1    2  503  501 -0.12513341554E+02  0.10502057182E+03 -0.98698033136E+02  0.14466238615E+03  0.00000000000E+00 0.  1.
         21    1    1    2  504  502  0.12513341554E+02 -0.10502057182E+03 -0.14637639602E+03  0.18058780007E+03  0.00000000000E+00 0.  1.
<mgrwt>
<rscale>  2 0.10576344E+03</rscale>
<asrwt>0</asrwt>
<pdfrwt beam="1">  1       21 0.61673661E-02 0.10576344E+03</pdfrwt>
<pdfrwt beam="2">  1       21 0.43871123E-01 0.10576344E+03</pdfrwt>
<totfact> 0.93984024E+05</totfact>
</mgrwt>
</event>
<event>
 4    1  0.6052129E+003  0.1145241E+03  0.7546771E-02  0.1252414E+00
         21   -1    0    0  504  501  0.00000000000E+00  0.00000000000E+00  0.31500829741E+02  0.31500829741E+02  0.00000000000E+00 0. -1.
         21   -1    0    0  503  502 -0.00000000000E+00 -0.00000000000E+00 -0.70817982511E+03  0.70817982511E+03  0.00000000000E+00 0.  1.
         21    1    1    2  503  501  0.11171292414E+03 -0.25218721628E+02 -0.10092999735E+03  0.15265197577E+03  0.00000000000E+00 0. -1.
         21    1    1    2  504  502 -0.11171292414E+03  0.25218721628E+02 -0.57574899802E+03  0.58702867908E+03  0.00000000000E+00 0.  1.
<mgrwt>
<rscale>  2 0.11452406E+03</rscale>
<asrwt>0</asrwt>
<pdfrwt beam="1">  1       21 0.48462811E-02 0.11452406E+03</pdfrwt>
<pdfrwt beam="2">  1       21 0.10895075E+00 0.11452406E+03</pdfrwt>
<totfact> 0.19466988E+05</totfact>
</mgrwt>
</event>
<event>
 4    1  0.6052129E+003  0.1120253E+03  0.7546771E-02  0.1256865E+00
         21   -1    0    0  504  501  0.00000000000E+00  0.00000000000E+00  0.25131255330E+03  0.25131255330E+03  0.00000000000E+00 0. -1.
         21   -1    0    0  503  502 -0.00000000000E+00 -0.00000000000E+00 -0.72848877981E+03  0.72848877981E+03  0.00000000000E+00 0.  1.
         21    1    1    2  503  501  0.24713308957E+02  0.10926534029E+03 -0.71139986543E+03  0.72016625217E+03  0.00000000000E+00 0.  1.
         21    1    1    2  504  502 -0.24713308957E+02 -0.10926534029E+03  0.23422363892E+03  0.25963508094E+03  0.00000000000E+00 0. -1.
<mgrwt>
<rscale>  2 0.11202527E+03</rscale>
<asrwt>0</asrwt>
<pdfrwt beam="1">  1       21 0.38663470E-01 0.11202527E+03</pdfrwt>
<pdfrwt beam="2">  1       21 0.11207520E+00 0.11202527E+03</pdfrwt>
<totfact> 0.43619327E+03</totfact>
</mgrwt>
</event>
<event>
 4    1  0.6052129E+003  0.1288036E+03  0.7546771E-02  0.1229242E+00
         21   -1    0    0  502  501  0.00000000000E+00  0.00000000000E+00  0.67363160364E+02  0.67363160364E+02  0.00000000000E+00 0. -1.
         21   -1    0    0  503  502 -0.00000000000E+00 -0.00000000000E+00 -0.38341688341E+03  0.38341688341E+03  0.00000000000E+00 0.  1.
         21    1    1    2  503  504  0.46833285477E+02  0.11998756304E+03 -0.29282135334E+03  0.31989797887E+03  0.00000000000E+00 0.  1.
         21    1    1    2  504  501 -0.46833285477E+02 -0.11998756304E+03 -0.23232369707E+02  0.13088206491E+03  0.00000000000E+00 0. -1.
<mgrwt>
<rscale>  2 0.12880362E+03</rscale>
<asrwt>0</asrwt>
<pdfrwt beam="1">  1       21 0.10363563E-01 0.12880362E+03</pdfrwt>
<pdfrwt beam="2">  1       21 0.58987211E-01 0.12880362E+03</pdfrwt>
<totfact> 0.20839734E+05</totfact>
</mgrwt>
</event>
<event>
 4    1  0.6052129E+003  0.1002272E+03  0.7546771E-02  0.1279819E+00
         21   -1    0    0  502  501  0.00000000000E+00  0.00000000000E+00  0.17530358940E+03  0.17530358940E+03  0.00000000000E+00 0.  1.
         21   -1    0    0  503  502 -0.00000000000E+00 -0.00000000000E+00 -0.60407666412E+02  0.60407666412E+02  0.00000000000E+00 0.  1.
         21    1    1    2  503  504  0.19049798939E+02  0.98400139239E+02  0.30730969188E+02  0.10483260327E+03  0.00000000000E+00 0.  1.
         21    1    1    2  504  501 -0.19049798939E+02 -0.98400139239E+02  0.84164953795E+02  0.13087865253E+03  0.00000000000E+00 0.  1.
<mgrwt>
<rscale>  2 0.10022715E+03</rscale>
<asrwt>0</asrwt>
<pdfrwt beam="1">  1       21 0.26969783E-01 0.10022715E+03</pdfrwt>
<pdfrwt beam="2">  1       21 0.92934872E-02 0.10022715E+03</pdfrwt>
<totfact> 0.12032126E+06</totfact>
</mgrwt>
</event>
<event>
 4    1  0.6052129E+003  0.1063990E+03  0.7546771E-02  0.1267387E+00
         21   -1    0    0  502  501  0.00000000000E+00  0.00000000000E+00  0.14451887897E+03  0.14451887897E+03  0.00000000000E+00 0. -1.
         21   -1    0    0  503  502 -0.00000000000E+00 -0.00000000000E+00 -0.79319926063E+02  0.79319926063E+02  0.00000000000E+00 0. -1.
         21    1    1    2  503  504  0.72045698162E+02 -0.78295380308E+02  0.20122044049E+02  0.10828502139E+03  0.00000000000E+00 0. -1.
         21    1    1    2  504  501 -0.72045698162E+02  0.78295380308E+02  0.45076908856E+02  0.11555378364E+03  0.00000000000E+00 0. -1.
<mgrwt>
<rscale>  2 0.10639901E+03</rscale>
<asrwt>0</asrwt>
<pdfrwt beam="1">  1       21 0.22233674E-01 0.10639901E+03</pdfrwt>
<pdfrwt beam="2">  1       21 0.12203066E-01 0.10639901E+03</pdfrwt>
<totfact> 0.10750457E+06</totfact>
</mgrwt>
</event>
<event>
 4    1  0.6052129E+003  0.1109290E+03  0.7546771E-02  0.1258859E+00
         21   -1    0    0  502  501  0.00000000000E+00  0.00000000000E+00  0.46788194478E+03  0.46788194478E+03  0.00000000000E+00 0.  1.
         21   -1    0    0  504  502 -0.00000000000E+00 -0.00000000000E+00 -0.55966172549E+02  0.55966172549E+02  0.00000000000E+00 0.  1.
         21    1    1    2  503  501  0.84896979283E+02 -0.71398500014E+02  0.39665501959E+03  0.41187431027E+03  0.00000000000E+00 0.  1.
         21    1    1    2  504  503 -0.84896979283E+02  0.71398500014E+02  0.15260752641E+02  0.11197380706E+03  0.00000000000E+00 0.  1.
<mgrwt>
<rscale>  2 0.11092900E+03</rscale>
<asrwt>0</asrwt>
<pdfrwt beam="1">  1       21 0.71981835E-01 0.11092900E+03</pdfrwt>
<pdfrwt beam="2">  1       21 0.86101807E-02 0.11092900E+03</pdfrwt>
<totfact> 0.18853328E+05</totfact>
</mgrwt>
</event>
<event>
 4    1  0.6052129E+003  0.1937575E+03  0.7546771E-02  0.1155115E+00
         21   -1    0    0  502  501  0.00000000000E+00  0.00000000000E+00  0.45752191988E+03  0.45752191988E+03  0.00000000000E+00 0. -1.
         21   -1    0    0  504  502 -0.00000000000E+00 -0.00000000000E+00 -0.22263052110E+03  0.22263052110E+03  0.00000000000E+00 0. -1.
         21    1    1    2  503  501 -0.88460604612E+02  0.17238533318E+03  0.38767889420E+03  0.43340155361E+03  0.00000000000E+00 0. -1.
         21    1    1    2  504  503  0.88460604612E+02 -0.17238533318E+03 -0.15278749541E+03  0.24675088737E+03  0.00000000000E+00 0. -1.
<mgrwt>
<rscale>  2 0.19375753E+03</rscale>
<asrwt>0</asrwt>
<pdfrwt beam="1">  1       21 0.70387987E-01 0.19375753E+03</pdfrwt>
<pdfrwt beam="2">  1       21 0.34250850E-01 0.19375753E+03</pdfrwt>
<totfact> 0.15026069E+04</totfact>
</mgrwt>
</event>
<event>
 4    1  0.6052129E+003  0.1011787E+03  0.7546771E-02  0.1277837E+00
         21   -1    0    0  504  501  0.00000000000E+00  0.00000000000E+00  0.21059870606E+03  0.21059870606E+03  0.00000000000E+00 0.  1.
         21   -1    0    0  501  502 -0.00000000000E+00 -0.00000000000E+00 -0.66586734499E+02  0.66586734499E+02  0.00000000000E+00 0. -1.
         21    1    1    2  503  502  0.24305494164E+02  0.98215990142E+02 -0.61530662211E-02  0.10117874186E+03  0.00000000000E+00 0. -1.
         21    1    1    2  504  503 -0.24305494164E+02 -0.98215990142E+02  0.14401812462E+03  0.17600669870E+03  0.00000000000E+00 0.  1.
<mgrwt>
<rscale>  2 0.10117874E+03</rscale>
<asrwt>0</asrwt>
<pdfrwt beam="1">  1       21 0.32399800E-01 0.10117874E+03</pdfrwt>
<pdfrwt beam="2">  1       21 0.10244113E-01 0.10117874E+03</pdfrwt>
<totfact> 0.71554602E+05</totfact>
</mgrwt>
</event>
<event>
 4    1  0.6052129E+003  0.1087566E+03  0.7546771E-02  0.1262890E+00
         21   -1    0    0  504  501  0.00000000000E+00  0.00000000000E+00  0.21960109878E+02  0.21960109878E+02  0.00000000000E+00 0. -1.
         21   -1    0    0  503  502 -0.00000000000E+00 -0.00000000000E+00 -0.69908992705E+03  0.69908992705E+03  0.00000000000E+00 0. -1.
         21    1    1    2  503  501  0.73400246877E+02 -0.80252121219E+02 -0.16583192475E+03  0.19831345509E+03  0.00000000000E+00 0. -1.
         21    1    1    2  504  502 -0.73400246877E+02  0.80252121219E+02 -0.51129789242E+03  0.52273658184E+03  0.00000000000E+00 0. -1.
<mgrwt>
<rscale>  2 0.10875661E+03</rscale>
<asrwt>0</asrwt>
<pdfrwt beam="1">  1       21 0.33784789E-02 0.10875661E+03</pdfrwt>
<pdfrwt beam="2">  1       21 0.10755228E+00 0.10875661E+03</pdfrwt>
<totfact> 0.36550161E+05</totfact>
</mgrwt>
</event>
<event>
 4    1  0.6052129E+003  0.1214107E+03  0.7546771E-02  0.1240788E+00
         21   -1    0    0  502  501  0.00000000000E+00  0.00000000000E+00  0.17083733389E+03  0.17083733389E+03  0.00000000000E+00 0. -1.
         21   -1    0    0  503  502 -0.00000000000E+00 -0.00000000000E+00 -0.86598874524E+02  0.86598874524E+02  0.00000000000E+00 0. -1.
         21    1    1    2  503  504  0.59615774784E+02  0.10576637870E+03  0.34360422054E+02  0.12617926165E+03  0.00000000000E+00 0. -1.
         21    1    1    2  504  501 -0.59615774784E+02 -0.10576637870E+03  0.49878037311E+02  0.13125694676E+03  0.00000000000E+00 0. -1.
<mgrwt>
<rscale>  2 0.12141074E+03</rscale>
<asrwt>0</asrwt>
<pdfrwt beam="1">  1       21 0.26282667E-01 0.12141074E+03</pdfrwt>
<pdfrwt beam="2">  1       21 0.13322904E-01 0.12141074E+03</pdfrwt>
<totfact> 0.67272918E+05</totfact>
</mgrwt>
</event>
<event>
 4    1  0.6052129E+003  0.1062403E+03  0.7546771E-02  0.1267695E+00
         21   -1    0    0  504  501  0.00000000000E+00  0.00000000000E+00  0.22705787715E+03  0.22705787715E+03  0.00000000000E+00 0. -1.
         21   -1    0    0  503  502 -0.00000000000E+00 -0.00000000000E+00 -0.50935515730E+02  0.50935515730E+02  0.00000000000E+00 0. -1.
         21    1    1    2  503  501  0.62078483870E+02  0.86216359957E+02  0.10962328646E+03  0.15265734118E+03  0.00000000000E+00 0. -1.
         21    1    1    2  504  502 -0.62078483870E+02 -0.86216359957E+02  0.66499074966E+02  0.12533605170E+03  0.00000000000E+00 0. -1.
<mgrwt>
<rscale>  2 0.10624029E+03</rscale>
<asrwt>0</asrwt>
<pdfrwt beam="1">  1       21 0.34931981E-01 0.10624029E+03</pdfrwt>
<pdfrwt beam="2">  1       21 0.78362333E-02 0.10624029E+03</pdfrwt>
<totfact> 0.98242262E+05</totfact>
</mgrwt>
</event>
<event>
 4    1  0.6052129E+003  0.1175286E+03  0.7546771E-02  0.1247231E+00
         21   -1    0    0  503  501  0.00000000000E+00  0.00000000000E+00  0.55774464672E+03  0.55774464672E+03  0.00000000000E+00 0. -1.
         21   -1    0    0  504  502 -0.00000000000E+00 -0.00000000000E+00 -0.15065827958E+03  0.15065827958E+03  0.00000000000E+00 0. -1.
         21    1    1    2  503  502  0.11358068033E+03  0.30205882374E+02 -0.12023965297E+03  0.16813845610E+03  0.00000000000E+00 0. -1.
         21    1    1    2  504  501 -0.11358068033E+03 -0.30205882374E+02  0.52732602011E+03  0.54026447020E+03  0.00000000000E+00 0. -1.
<mgrwt>
<rscale>  2 0.11752858E+03</rscale>
<asrwt>0</asrwt>
<pdfrwt beam="1">  1       21 0.85806868E-01 0.11752858E+03</pdfrwt>
<pdfrwt beam="2">  1       21 0.23178197E-01 0.11752858E+03</pdfrwt>
<totfact> 0.21575767E+04</totfact>
</mgrwt>
</event>
<event>
 4    1  0.6052129E+003  0.1785837E+03  0.7546771E-02  0.1169181E+00
         21   -1    0    0  503  501  0.00000000000E+00  0.00000000000E+00  0.42472791899E+03  0.42472791899E+03  0.00000000000E+00 0.  1.
         21   -1    0    0  504  502 -0.00000000000E+00 -0.00000000000E+00 -0.76461263083E+02  0.76461263083E+02  0.00000000000E+00 0.  1.
         21    1    1    2  503  502  0.17472580669E+03  0.36919188267E+02  0.20771225109E+03  0.27392793439E+03  0.00000000000E+00 0.  1.
         21    1    1    2  504  501 -0.17472580669E+03 -0.36919188267E+02  0.14055440482E+03  0.22726124768E+03  0.00000000000E+00 0.  1.
<mgrwt>
<rscale>  2 0.17858369E+03</rscale>
<asrwt>0</asrwt>
<pdfrwt beam="1">  1       21 0.65342755E-01 0.17858369E+03</pdfrwt>
<pdfrwt beam="2">  1       21 0.11763271E-01 0.17858369E+03</pdfrwt>
<totfact> 0.13167370E+05</totfact>
</mgrwt>
</event>
<event>
 4    1  0.6052129E+003  0.1022782E+03  0.7546771E-02  0.1275577E+00
         21   -1    0    0  502  501  0.00000000000E+00  0.00000000000E+00  0.11541339293E+03  0.11541339293E+03  0.00000000000E+00 0. -1.
         21   -1    0    0  504  502 -0.00000000000E+00 -0.00000000000E+00 -0.12994761033E+03  0.12994761033E+03  0.00000000000E+00 0. -1.
         21    1    1    2  503  501 -0.30692105345E+02  0.97564492998E+02  0.60207586353E+02  0.11868356701E+03  0.00000000000E+00 0. -1.
         21    1    1    2  504  503  0.30692105345E+02 -0.97564492998E+02 -0.74741803754E+02  0.12667743624E+03  0.00000000000E+00 0. -1.
<mgrwt>
<rscale>  2 0.10227823E+03</rscale>
<asrwt>0</asrwt>
<pdfrwt beam="1">  1       21 0.17755907E-01 0.10227823E+03</pdfrwt>
<pdfrwt beam="2">  1       21 0.19991940E-01 0.10227823E+03</pdfrwt>
<totfact> 0.66824957E+05</totfact>
</mgrwt>
</event>
<event>
 4    1  0.6052129E+003  0.1040669E+03  0.7546771E-02  0.1271969E+00
         21   -1    0    0  504  501  0.00000000000E+00  0.00000000000E+00  0.23923144574E+02  0.23923144574E+02  0.00000000000E+00 0.  1.
         21   -1    0    0  503  502 -0.00000000000E+00 -0.00000000000E+00 -0.67649071425E+03  0.67649071425E+03  0.00000000000E+00 0.  1.
         21    1    1    2  503  501 -0.85082200133E+02 -0.59924515944E+02 -0.52771095760E+03  0.53787431912E+03  0.00000000000E+00 0.  1.
         21    1    1    2  504  502  0.85082200133E+02  0.59924515944E+02 -0.12485661208E+03  0.16253953971E+03  0.00000000000E+00 0.  1.
<mgrwt>
<rscale>  2 0.10406694E+03</rscale>
<asrwt>0</asrwt>
<pdfrwt beam="1">  1       21 0.36804842E-02 0.10406694E+03</pdfrwt>
<pdfrwt beam="2">  1       21 0.10407548E+00 0.10406694E+03</pdfrwt>
<totfact> 0.34345629E+05</totfact>
</mgrwt>
</event>
<event>
 4    1  0.6052129E+003  0.1361426E+03  0.7546771E-02  0.1218616E+00
         21   -1    0    0  503  501  0.00000000000E+00  0.00000000000E+00  0.99300006526E+02  0.99300006526E+02  0.00000000000E+00 0.  1.
         21   -1    0    0  504  502 -0.00000000000E+00 -0.00000000000E+00 -0.19894469086E+03  0.19894469086E+03  0.00000000000E+00 0.  1.
         21    1    1    2  503  502  0.12998793546E+03 -0.40471364480E+02 -0.12758061142E+02  0.13673903185E+03  0.00000000000E+00 0.  1.
         21    1    1    2  504  501 -0.12998793546E+03  0.40471364480E+02 -0.86886623189E+02  0.16150566553E+03  0.00000000000E+00 0.  1.
<mgrwt>
<rscale>  2 0.13614255E+03</rscale>
<asrwt>0</asrwt>
<pdfrwt beam="1">  1       21 0.15276924E-01 0.13614255E+03</pdfrwt>
<pdfrwt beam="2">  1       21 0.30606875E-01 0.13614255E+03</pdfrwt>
<totfact> 0.39258202E+05</totfact>
</mgrwt>
</event>
<event>
 4    1  0.6052129E+003  0.1075497E+03  0.7546771E-02  0.1265176E+00
         21   -1    0    0  502  501  0.00000000000E+00  0.00000000000E+00  0.23989227902E+02  0.23989227902E+02  0.00000000000E+00 0.  1.
         21   -1    0    0  503  502 -0.00000000000E+00 -0.00000000000E+00 -0.10562877123E+04  0.10562877123E+04  0.00000000000E+00 0. -1.
         21    1    1    2  503  504  0.17251494355E+02 -0.10615712246E+03 -0.91436045123E+03  0.92066388193E+03  0.00000000000E+00 0. -1.
         21    1    1    2  504  501 -0.17251494355E+02  0.10615712246E+03 -0.11793803320E+03  0.15961305831E+03  0.00000000000E+00 0.  1.
<mgrwt>
<rscale>  2 0.10754975E+03</rscale>
<asrwt>0</asrwt>
<pdfrwt beam="1">  1       21 0.36906507E-02 0.10754975E+03</pdfrwt>
<pdfrwt beam="2">  1       21 0.16250579E+00 0.10754975E+03</pdfrwt>
<totfact> 0.11323346E+05</totfact>
</mgrwt>
</event>
<event>
 4    1  0.6052129E+003  0.1564926E+03  0.7546771E-02  0.1192714E+00
         21   -1    0    0  502  501  0.00000000000E+00  0.00000000000E+00  0.17270192895E+03  0.17270192895E+03  0.00000000000E+00 0.  1.
         21   -1    0    0  503  502 -0.00000000000E+00 -0.00000000000E+00 -0.41767856138E+03  0.41767856138E+03  0.00000000000E+00 0. -1.
         21    1    1    2  503  504 -0.25599761303E+02 -0.15438453780E+03 -0.36239162662E+03  0.39473741187E+03  0.00000000000E+00 0. -1.
         21    1    1    2  504  501  0.25599761303E+02  0.15438453780E+03  0.11741499419E+03  0.19564307846E+03  0.00000000000E+00 0.  1.
<mgrwt>
<rscale>  2 0.15649260E+03</rscale>
<asrwt>0</asrwt>
<pdfrwt beam="1">  1       21 0.26569528E-01 0.15649260E+03</pdfrwt>
<pdfrwt beam="2">  1       21 0.64258239E-01 0.15649260E+03</pdfrwt>
<totfact> 0.30744852E+04</totfact>
</mgrwt>
</event>
<event>
 4    1  0.6052129E+003  0.1210899E+03  0.7546771E-02  0.1241310E+00
         21   -1    0    0  504  501  0.00000000000E+00  0.00000000000E+00  0.46106238177E+02  0.46106238177E+02  0.00000000000E+00 0. -1.
         21   -1    0    0  501  502 -0.00000000000E+00 -0.00000000000E+00 -0.42308548766E+03  0.42308548766E+03  0.00000000000E+00 0.  1.
         21    1    1    2  503  502 -0.10684136256E+03  0.56988513447E+02 -0.30539475383E+03  0.32852507223E+03  0.00000000000E+00 0.  1.
         21    1    1    2  504  503  0.10684136256E+03 -0.56988513447E+02 -0.71584495657E+02  0.14066665361E+03  0.00000000000E+00 0. -1.
<mgrwt>
<rscale>  2 0.12108991E+03</rscale>
<asrwt>0</asrwt>
<pdfrwt beam="1">  1       21 0.70932671E-02 0.12108991E+03</pdfrwt>
<pdfrwt beam="2">  1       21 0.65090078E-01 0.12108991E+03</pdfrwt>
<totfact> 0.32613529E+05</totfact>
</mgrwt>
</event>
<event>
 4    1  0.6052129E+003  0.1109165E+03  0.7546771E-02  0.1258882E+00
         21   -1    0    0  503  501  0.00000000000E+00  0.00000000000E+00  0.32567778830E+02  0.32567778830E+02  0.00000000000E+00 0.  1.
         21   -1    0    0  504  502 -0.00000000000E+00 -0.00000000000E+00 -0.16803136188E+04  0.16803136188E+04  0.00000000000E+00 0.  1.
         21    1    1    2  503  502  0.35411673465E+02  0.10511173317E+03 -0.69820263567E+02  0.13106232209E+03  0.00000000000E+00 0.  1.
         21    1    1    2  504  501 -0.35411673465E+02 -0.10511173317E+03 -0.15779255764E+04  0.15818190756E+04  0.00000000000E+00 0.  1.
<mgrwt>
<rscale>  2 0.11091647E+03</rscale>
<asrwt>0</asrwt>
<pdfrwt beam="1">  1       21 0.50104271E-02 0.11091647E+03</pdfrwt>
<pdfrwt beam="2">  1       21 0.25850981E+00 0.11091647E+03</pdfrwt>
<totfact> 0.17408216E+04</totfact>
</mgrwt>
</event>
<event>
 4    1  0.6052129E+003  0.1272265E+03  0.7546771E-02  0.1231630E+00
         21   -1    0    0  504  501  0.00000000000E+00  0.00000000000E+00  0.39326014708E+03  0.39326014708E+03  0.00000000000E+00 0. -1.
         21   -1    0    0  503  502 -0.00000000000E+00 -0.00000000000E+00 -0.46704112232E+03  0.46704112232E+03  0.00000000000E+00 0. -1.
         21    1    1    2  503  501 -0.12157306447E+03  0.37504261730E+02  0.37386863046E+03  0.39492319822E+03  0.00000000000E+00 0. -1.
         21    1    1    2  504  502  0.12157306447E+03 -0.37504261730E+02 -0.44764960570E+03  0.46537807118E+03  0.00000000000E+00 0. -1.
<mgrwt>
<rscale>  2 0.12722649E+03</rscale>
<asrwt>0</asrwt>
<pdfrwt beam="1">  1       21 0.60501561E-01 0.12722649E+03</pdfrwt>
<pdfrwt beam="2">  1       21 0.71852480E-01 0.12722649E+03</pdfrwt>
<totfact> 0.47226109E+03</totfact>
</mgrwt>
</event>
<event>
 4    1  0.6052129E+003  0.1002148E+03  0.7546771E-02  0.1279845E+00
         21   -1    0    0  503  501  0.00000000000E+00  0.00000000000E+00  0.89845729616E+02  0.89845729616E+02  0.00000000000E+00 0. -1.
         21   -1    0    0  504  502 -0.00000000000E+00 -0.00000000000E+00 -0.12731382172E+03  0.12731382172E+03  0.00000000000E+00 0. -1.
         21    1    1    2  503  502 -0.93125063087E+02  0.37023382298E+02  0.19192399576E+02  0.10203605448E+03  0.00000000000E+00 0. -1.
         21    1    1    2  504  501  0.93125063087E+02 -0.37023382298E+02 -0.56660491683E+02  0.11512349686E+03  0.00000000000E+00 0. -1.
<mgrwt>
<rscale>  2 0.10021481E+03</rscale>
<asrwt>0</asrwt>
<pdfrwt beam="1">  1       21 0.13822420E-01 0.10021481E+03</pdfrwt>
<pdfrwt beam="2">  1       21 0.19586742E-01 0.10021481E+03</pdfrwt>
<totfact> 0.10880511E+06</totfact>
</mgrwt>
</event>
<event>
 4    1  0.6052129E+003  0.1457638E+03  0.7546771E-02  0.1205777E+00
         21   -1    0    0  504  501  0.00000000000E+00  0.00000000000E+00  0.22399296338E+03  0.22399296338E+03  0.00000000000E+00 0.  1.
         21   -1    0    0  501  502 -0.00000000000E+00 -0.00000000000E+00 -0.95847433740E+02  0.95847433740E+02  0.00000000000E+00 0.  1.
         21    1    1    2  503  502 -0.14207561925E+03  0.32582300015E+02  0.47808522058E+02  0.15340385472E+03  0.00000000000E+00 0.  1.
         21    1    1    2  504  503  0.14207561925E+03 -0.32582300015E+02  0.80337007582E+02  0.16643654240E+03  0.00000000000E+00 0.  1.
<mgrwt>
<rscale>  2 0.14576381E+03</rscale>
<asrwt>0</asrwt>
<pdfrwt beam="1">  1       21 0.34460456E-01 0.14576381E+03</pdfrwt>
<pdfrwt beam="2">  1       21 0.14745759E-01 0.14576381E+03</pdfrwt>
<totfact> 0.33157326E+05</totfact>
</mgrwt>
</event>
<event>
 4    1  0.6052129E+003  0.1419523E+03  0.7546771E-02  0.1210726E+00
         21   -1    0    0  503  501  0.00000000000E+00  0.00000000000E+00  0.16327933327E+04  0.16327933327E+04  0.00000000000E+00 0.  1.
         21   -1    0    0  504  502 -0.00000000000E+00 -0.00000000000E+00 -0.16994406010E+02  0.16994406010E+02  0.00000000000E+00 0.  1.
         21    1    1    2  503  502 -0.31727702600E+02  0.13836110918E+03  0.12395442709E+04  0.12476459606E+04  0.00000000000E+00 0.  1.
         21    1    1    2  504  501  0.31727702600E+02 -0.13836110918E+03  0.37625465585E+03  0.40214177810E+03  0.00000000000E+00 0.  1.
<mgrwt>
<rscale>  2 0.14195226E+03</rscale>
<asrwt>0</asrwt>
<pdfrwt beam="1">  1       21 0.25119885E+00 0.14195226E+03</pdfrwt>
<pdfrwt beam="2">  1       21 0.26145253E-02 0.14195226E+03</pdfrwt>
<totfact> 0.54184447E+04</totfact>
</mgrwt>
</event>
<event>
 4    1  0.6052129E+003  0.1671489E+03  0.7546771E-02  0.1180854E+00
         21   -1    0    0  502  501  0.00000000000E+00  0.00000000000E+00  0.41808491667E+02  0.41808491667E+02  0.00000000000E+00 0.  1.
         21   -1    0    0  504  502 -0.00000000000E+00 -0.00000000000E+00 -0.85531903801E+03  0.85531903801E+03  0.00000000000E+00 0. -1.
         21    1    1    2  503  501 -0.97156667222E+02 -0.13601225358E+03 -0.19697976344E+03  0.25834043104E+03  0.00000000000E+00 0.  1.
         21    1    1    2  504  503  0.97156667222E+02  0.13601225358E+03 -0.61653078291E+03  0.63878709863E+03  0.00000000000E+00 0. -1.
<mgrwt>
<rscale>  2 0.16714889E+03</rscale>
<asrwt>0</asrwt>
<pdfrwt beam="1">  1       21 0.64320750E-02 0.16714889E+03</pdfrwt>
<pdfrwt beam="2">  1       21 0.13158756E+00 0.16714889E+03</pdfrwt>
<totfact> 0.74301542E+04</totfact>
</mgrwt>
</event>
<event>
 4    1  0.6052129E+003  0.1003200E+03  0.7546771E-02  0.1279625E+00
         21   -1    0    0  504  501  0.00000000000E+00  0.00000000000E+00  0.15522168731E+03  0.15522168731E+03  0.00000000000E+00 0. -1.
         21   -1    0    0  503  502 -0.00000000000E+00 -0.00000000000E+00 -0.15452750223E+03  0.15452750223E+03  0.00000000000E+00 0. -1.
         21    1    1    2  503  501  0.41363745883E+02  0.91395483530E+02 -0.11764441425E+03  0.15461016166E+03  0.00000000000E+00 0. -1.
         21    1    1    2  504  502 -0.41363745883E+02 -0.91395483530E+02  0.11833859932E+03  0.15513902788E+03  0.00000000000E+00 0. -1.
<mgrwt>
<rscale>  2 0.10031996E+03</rscale>
<asrwt>0</asrwt>
<pdfrwt beam="1">  1       21 0.23880260E-01 0.10031996E+03</pdfrwt>
<pdfrwt beam="2">  1       21 0.23773462E-01 0.10031996E+03</pdfrwt>
<totfact> 0.28093483E+05</totfact>
</mgrwt>
</event>
<event>
 4    1  0.6052129E+003  0.1156670E+03  0.7546771E-02  0.1250421E+00
         21   -1    0    0  504  501  0.00000000000E+00  0.00000000000E+00  0.35342659473E+02  0.35342659473E+02  0.00000000000E+00 0. -1.
         21   -1    0    0  501  502 -0.00000000000E+00 -0.00000000000E+00 -0.95661603239E+03  0.95661603239E+03  0.00000000000E+00 0.  1.
         21    1    1    2  503  502 -0.72316522609E+02 -0.90272795001E+02 -0.84619016366E+03  0.85405892656E+03  0.00000000000E+00 0.  1.
         21    1    1    2  504  503  0.72316522609E+02  0.90272795001E+02 -0.75083209265E+02  0.13789976531E+03  0.00000000000E+00 0. -1.
<mgrwt>
<rscale>  2 0.11566701E+03</rscale>
<asrwt>0</asrwt>
<pdfrwt beam="1">  1       21 0.54373326E-02 0.11566701E+03</pdfrwt>
<pdfrwt beam="2">  1       21 0.14717169E+00 0.11566701E+03</pdfrwt>
<totfact> 0.76478958E+04</totfact>
</mgrwt>
</event>
<event>
 4    1  0.6052129E+003  0.1005445E+03  0.7546771E-02  0.1279155E+00
         21   -1    0    0  504  501  0.00000000000E+00  0.00000000000E+00  0.49815089924E+03  0.49815089924E+03  0.00000000000E+00 0.  1.
         21   -1    0    0  501  502 -0.00000000000E+00 -0.00000000000E+00 -0.38190199155E+02  0.38190199155E+02  0.00000000000E+00 0.  1.
         21    1    1    2  503  502  0.58605918261E+02 -0.81697821952E+02  0.46401560393E+02  0.11073523637E+03  0.00000000000E+00 0.  1.
         21    1    1    2  504  503 -0.58605918261E+02  0.81697821952E+02  0.41355913969E+03  0.42560586203E+03  0.00000000000E+00 0.  1.
<mgrwt>
<rscale>  2 0.10054446E+03</rscale>
<asrwt>0</asrwt>
<pdfrwt beam="1">  1       21 0.76638595E-01 0.10054446E+03</pdfrwt>
<pdfrwt beam="2">  1       21 0.58754156E-02 0.10054446E+03</pdfrwt>
<totfact> 0.31601617E+05</totfact>
</mgrwt>
</event>
<event>
 4    1  0.6052129E+003  0.1357665E+03  0.7546771E-02  0.1219142E+00
         21   -1    0    0  503  501  0.00000000000E+00  0.00000000000E+00  0.26127604323E+02  0.26127604323E+02  0.00000000000E+00 0.  1.
         21   -1    0    0  504  502 -0.00000000000E+00 -0.00000000000E+00 -0.32581804863E+04  0.32581804863E+04  0.00000000000E+00 0. -1.
         21    1    1    2  503  502  0.93337818225E+02 -0.98593126794E+02 -0.16248944209E+03  0.21174364631E+03  0.00000000000E+00 0.  1.
         21    1    1    2  504  501 -0.93337818225E+02  0.98593126794E+02 -0.30695634399E+04  0.30725644443E+04  0.00000000000E+00 0. -1.
<mgrwt>
<rscale>  2 0.13576654E+03</rscale>
<asrwt>0</asrwt>
<pdfrwt beam="1">  1       21 0.40196349E-02 0.13576654E+03</pdfrwt>
<pdfrwt beam="2">  1       21 0.50125811E+00 0.13576654E+03</pdfrwt>
<totfact> 0.80459124E+02</totfact>
</mgrwt>
</event>
<event>
 4    1  0.6052129E+003  0.1128866E+03  0.7546771E-02  0.1255316E+00
         21   -1    0    0  503  501  0.00000000000E+00  0.00000000000E+00  0.75085117006E+02  0.75085117006E+02  0.00000000000E+00 0. -1.
         21   -1    0    0  504  502 -0.00000000000E+00 -0.00000000000E+00 -0.17323265093E+03  0.17323265093E+03  0.00000000000E+00 0. -1.
         21    1    1    2  503  502  0.66509877596E+02 -0.91213066486E+02 -0.66755660849E+02  0.13114764798E+03  0.00000000000E+00 0. -1.
         21    1    1    2  504  501 -0.66509877596E+02  0.91213066486E+02 -0.31391873079E+02  0.11717011996E+03  0.00000000000E+00 0. -1.
<mgrwt>
<rscale>  2 0.11288661E+03</rscale>
<asrwt>0</asrwt>
<pdfrwt beam="1">  1       21 0.11551556E-01 0.11288661E+03</pdfrwt>
<pdfrwt beam="2">  1       21 0.26651177E-01 0.11288661E+03</pdfrwt>
<totfact> 0.84343190E+05</totfact>
</mgrwt>
</event>
<event>
 4    1  0.6052129E+003  0.1078675E+03  0.7546771E-02  0.1264571E+00
         21   -1    0    0  502  501  0.00000000000E+00  0.00000000000E+00  0.68317677833E+02  0.68317677833E+02  0.00000000000E+00 0. -1.
         21   -1    0    0  504  502 -0.00000000000E+00 -0.00000000000E+00 -0.27345819258E+03  0.27345819258E+03  0.00000000000E+00 0.  1.
         21    1    1    2  503  501  0.36181897108E+02  0.10161825168E+03  0.23815972519E+01  0.10789379388E+03  0.00000000000E+00 0. -1.
         21    1    1    2  504  503 -0.36181897108E+02 -0.10161825168E+03 -0.20752211200E+03  0.23388207653E+03  0.00000000000E+00 0.  1.
<mgrwt>
<rscale>  2 0.10786751E+03</rscale>
<asrwt>0</asrwt>
<pdfrwt beam="1">  1       21 0.10510412E-01 0.10786751E+03</pdfrwt>
<pdfrwt beam="2">  1       21 0.42070491E-01 0.10786751E+03</pdfrwt>
<totfact> 0.40930471E+05</totfact>
</mgrwt>
</event>
<event>
 4    1  0.6052129E+003  0.1079200E+03  0.7546771E-02  0.1264471E+00
         21   -1    0    0  503  501  0.00000000000E+00  0.00000000000E+00  0.70046333657E+02  0.70046333657E+02  0.00000000000E+00 0.  1.
         21   -1    0    0  501  502 -0.00000000000E+00 -0.00000000000E+00 -0.16909109406E+03  0.16909109406E+03  0.00000000000E+00 0.  1.
         21    1    1    2  503  504 -0.46895482178E+02 -0.97198507543E+02 -0.34083328164E+02  0.11317424343E+03  0.00000000000E+00 0.  1.
         21    1    1    2  504  502  0.46895482178E+02  0.97198507543E+02 -0.64961432240E+02  0.12596318429E+03  0.00000000000E+00 0.  1.
<mgrwt>
<rscale>  2 0.10792005E+03</rscale>
<asrwt>0</asrwt>
<pdfrwt beam="1">  1       21 0.10776359E-01 0.10792005E+03</pdfrwt>
<pdfrwt beam="2">  1       21 0.26014014E-01 0.10792005E+03</pdfrwt>
<totfact> 0.99698990E+05</totfact>
</mgrwt>
</event>
<event>
 4    1  0.6052129E+003  0.1862423E+03  0.7546771E-02  0.1161895E+00
         21   -1    0    0  502  501  0.00000000000E+00  0.00000000000E+00  0.78271008045E+02  0.78271008045E+02  0.00000000000E+00 0. -1.
         21   -1    0    0  504  502 -0.00000000000E+00 -0.00000000000E+00 -0.73301428372E+03  0.73301428372E+03  0.00000000000E+00 0.  1.
         21    1    1    2  503  501  0.36326111956E+01 -0.18620685585E+03 -0.72288946205E+02  0.19977958047E+03  0.00000000000E+00 0. -1.
         21    1    1    2  504  503 -0.36326111956E+01  0.18620685585E+03 -0.58245432947E+03  0.61150571130E+03  0.00000000000E+00 0.  1.
<mgrwt>
<rscale>  2 0.18624229E+03</rscale>
<asrwt>0</asrwt>
<pdfrwt beam="1">  1       21 0.12041693E-01 0.18624229E+03</pdfrwt>
<pdfrwt beam="2">  1       21 0.11277143E+00 0.18624229E+03</pdfrwt>
<totfact> 0.35984676E+04</totfact>
</mgrwt>
</event>
<event>
 4    1  0.6052129E+003  0.1410184E+03  0.7546771E-02  0.1211965E+00
         21   -1    0    0  502  501  0.00000000000E+00  0.00000000000E+00  0.11945676117E+03  0.11945676117E+03  0.00000000000E+00 0.  1.
         21   -1    0    0  504  502 -0.00000000000E+00 -0.00000000000E+00 -0.27568166810E+03  0.27568166810E+03  0.00000000000E+00 0.  1.
         21    1    1    2  503  501  0.59064707501E+02 -0.12805287923E+03  0.46237696234E+02  0.14840520241E+03  0.00000000000E+00 0.  1.
         21    1    1    2  504  503 -0.59064707501E+02  0.12805287923E+03 -0.20246260317E+03  0.24673322685E+03  0.00000000000E+00 0.  1.
<mgrwt>
<rscale>  2 0.14101837E+03</rscale>
<asrwt>0</asrwt>
<pdfrwt beam="1">  1       21 0.18377963E-01 0.14101837E+03</pdfrwt>
<pdfrwt beam="2">  1       21 0.42412564E-01 0.14101837E+03</pdfrwt>
<totfact> 0.14695087E+05</totfact>
</mgrwt>
</event>
<event>
 4    1  0.6052129E+003  0.1390201E+03  0.7546771E-02  0.1214654E+00
         21   -1    0    0  503  501  0.00000000000E+00  0.00000000000E+00  0.56692086747E+03  0.56692086747E+03  0.00000000000E+00 0. -1.
         21   -1    0    0  504  502 -0.00000000000E+00 -0.00000000000E+00 -0.45790117391E+02  0.45790117391E+02  0.00000000000E+00 0.  1.
         21    1    1    2  503  502 -0.35100636898E+02 -0.13451587861E+03  0.10570977474E+03  0.17464573509E+03  0.00000000000E+00 0.  1.
         21    1    1    2  504  501  0.35100636898E+02  0.13451587861E+03  0.41542097533E+03  0.43806524977E+03  0.00000000000E+00 0. -1.
<mgrwt>
<rscale>  2 0.13902006E+03</rscale>
<asrwt>0</asrwt>
<pdfrwt beam="1">  1       21 0.87218590E-01 0.13902006E+03</pdfrwt>
<pdfrwt beam="2">  1       21 0.70446338E-02 0.13902006E+03</pdfrwt>
<totfact> 0.17200158E+05</totfact>
</mgrwt>
</event>
<event>
 4    1  0.6052129E+003  0.1156169E+03  0.7546771E-02  0.1250508E+00
         21   -1    0    0  504  501  0.00000000000E+00  0.00000000000E+00  0.66506718299E+03  0.66506718299E+03  0.00000000000E+00 0. -1.
         21   -1    0    0  503  502 -0.00000000000E+00 -0.00000000000E+00 -0.22029926340E+02  0.22029926340E+02  0.00000000000E+00 0. -1.
         21    1    1    2  503  501 -0.11312642126E+03 -0.23868032238E+02  0.42322545650E+03  0.43873346940E+03  0.00000000000E+00 0. -1.
         21    1    1    2  504  502  0.11312642126E+03  0.23868032238E+02  0.21981180015E+03  0.24836363992E+03  0.00000000000E+00 0. -1.
<mgrwt>
<rscale>  2 0.11561691E+03</rscale>
<asrwt>0</asrwt>
<pdfrwt beam="1">  1       21 0.10231801E+00 0.11561691E+03</pdfrwt>
<pdfrwt beam="2">  1       21 0.33892200E-02 0.11561691E+03</pdfrwt>
<totfact> 0.40840465E+05</totfact>
</mgrwt>
</event>
<event>
 4    1  0.6052129E+003  0.1362316E+03  0.7546771E-02  0.1218492E+00
         21   -1    0    0  502  501  0.00000000000E+00  0.00000000000E+00  0.53121462266E+03  0.53121462266E+03  0.00000000000E+00 0.  1.
         21   -1    0    0  504  502 -0.00000000000E+00 -0.00000000000E+00 -0.93883794652E+02  0.93883794652E+02  0.00000000000E+00 0.  1.
         21    1    1    2  503  501 -0.49946315009E+02 -0.12674542268E+03  0.46632391727E+03  0.48581584203E+03  0.00000000000E+00 0.  1.
         21    1    1    2  504  503  0.49946315009E+02  0.12674542268E+03 -0.28993089258E+02  0.13928257528E+03  0.00000000000E+00 0.  1.
<mgrwt>
<rscale>  2 0.13623155E+03</rscale>
<asrwt>0</asrwt>
<pdfrwt beam="1">  1       21 0.81725325E-01 0.13623155E+03</pdfrwt>
<pdfrwt beam="2">  1       21 0.14443661E-01 0.13623155E+03</pdfrwt>
<totfact> 0.56610833E+04</totfact>
</mgrwt>
</event>
<event>
 4    1  0.6052129E+003  0.1100155E+03  0.7546771E-02  0.1260541E+00
         21   -1    0    0  502  501  0.00000000000E+00  0.00000000000E+00  0.91886288742E+02  0.91886288742E+02  0.00000000000E+00 0. -1.
         21   -1    0    0  504  502 -0.00000000000E+00 -0.00000000000E+00 -0.14150773005E+04  0.14150773005E+04  0.00000000000E+00 0. -1.
         21    1    1    2  503  501 -0.43221247753E+02 -0.10116987310E+03  0.55961128093E+02  0.12343041496E+03  0.00000000000E+00 0. -1.
         21    1    1    2  504  503  0.43221247753E+02  0.10116987310E+03 -0.13791521398E+04  0.13835331743E+04  0.00000000000E+00 0. -1.
<mgrwt>
<rscale>  2 0.11001554E+03</rscale>
<asrwt>0</asrwt>
<pdfrwt beam="1">  1       21 0.14136353E-01 0.11001554E+03</pdfrwt>
<pdfrwt beam="2">  1       21 0.21770419E+00 0.11001554E+03</pdfrwt>
<totfact> 0.50121025E+03</totfact>
</mgrwt>
</event>
<event>
 4    1  0.6052129E+003  0.1030528E+03  0.7546771E-02  0.1274004E+00
         21   -1    0    0  504  501  0.00000000000E+00  0.00000000000E+00  0.17606901219E+04  0.17606901219E+04  0.00000000000E+00 0. -1.
         21   -1    0    0  501  502 -0.00000000000E+00 -0.00000000000E+00 -0.10849949341E+02  0.10849949341E+02  0.00000000000E+00 0. -1.
         21    1    1    2  503  502  0.69735069643E+02 -0.75874239662E+02  0.28464606503E+03  0.30272638227E+03  0.00000000000E+00 0. -1.
         21    1    1    2  504  503 -0.69735069643E+02  0.75874239662E+02  0.14651941075E+04  0.14688136890E+04  0.00000000000E+00 0. -1.
<mgrwt>
<rscale>  2 0.10305280E+03</rscale>
<asrwt>0</asrwt>
<pdfrwt beam="1">  1       21 0.27087518E+00 0.10305280E+03</pdfrwt>
<pdfrwt beam="2">  1       21 0.16692244E-02 0.10305280E+03</pdfrwt>
<totfact> 0.90144061E+04</totfact>
</mgrwt>
</event>
<event>
 4    1  0.6052129E+003  0.1067508E+03  0.7546771E-02  0.1266708E+00
         21   -1    0    0  504  501  0.00000000000E+00  0.00000000000E+00  0.53378304185E+03  0.53378304185E+03  0.00000000000E+00 0.  1.
         21   -1    0    0  503  502 -0.00000000000E+00 -0.00000000000E+00 -0.66333240637E+02  0.66333240637E+02  0.00000000000E+00 0. -1.
         21    1    1    2  503  501  0.18417190540E+02 -0.10515005573E+03  0.48082337708E+03  0.49253106204E+03  0.00000000000E+00 0.  1.
         21    1    1    2  504  502 -0.18417190540E+02  0.10515005573E+03 -0.13373575867E+02  0.10758522045E+03  0.00000000000E+00 0. -1.
<mgrwt>
<rscale>  2 0.10675077E+03</rscale>
<asrwt>0</asrwt>
<pdfrwt beam="1">  1       21 0.82120465E-01 0.10675077E+03</pdfrwt>
<pdfrwt beam="2">  1       21 0.10205114E-01 0.10675077E+03</pdfrwt>
<totfact> 0.10515893E+05</totfact>
</mgrwt>
</event>
<event>
 4    1  0.6052129E+003  0.1054875E+03  0.7546771E-02  0.1269162E+00
         21   -1    0    0  503  501  0.00000000000E+00  0.00000000000E+00  0.16647162134E+03  0.16647162134E+03  0.00000000000E+00 0. -1.
         21   -1    0    0  504  502 -0.00000000000E+00 -0.00000000000E+00 -0.20883210061E+03  0.20883210061E+03  0.00000000000E+00 0.  1.
         21    1    1    2  503  502  0.92835801685E+01 -0.10507822568E+03 -0.17591230416E+03  0.20511644773E+03  0.00000000000E+00 0.  1.
         21    1    1    2  504  501 -0.92835801685E+01  0.10507822568E+03  0.13355182490E+03  0.17018727422E+03  0.00000000000E+00 0. -1.
<mgrwt>
<rscale>  2 0.10548753E+03</rscale>
<asrwt>0</asrwt>
<pdfrwt beam="1">  1       21 0.25611019E-01 0.10548753E+03</pdfrwt>
<pdfrwt beam="2">  1       21 0.32128015E-01 0.10548753E+03</pdfrwt>
<totfact> 0.13884777E+05</totfact>
</mgrwt>
</event>
<event>
 4    1  0.6052129E+003  0.1078086E+03  0.7546771E-02  0.1264683E+00
         21   -1    0    0  502  501  0.00000000000E+00  0.00000000000E+00  0.14465232489E+03  0.14465232489E+03  0.00000000000E+00 0. -1.
         21   -1    0    0  503  502 -0.00000000000E+00 -0.00000000000E+00 -0.82221100061E+02  0.82221100061E+02  0.00000000000E+00 0. -1.
         21    1    1    2  503  504 -0.10287975158E+03 -0.32224917959E+02  0.48331968266E+02  0.11814680605E+03  0.00000000000E+00 0. -1.
         21    1    1    2  504  501  0.10287975158E+03  0.32224917959E+02  0.14099256565E+02  0.10872661891E+03  0.00000000000E+00 0. -1.
<mgrwt>
<rscale>  2 0.10780857E+03</rscale>
<asrwt>0</asrwt>
<pdfrwt beam="1">  1       21 0.22254204E-01 0.10780857E+03</pdfrwt>
<pdfrwt beam="2">  1       21 0.12649400E-01 0.10780857E+03</pdfrwt>
<totfact> 0.10074139E+06</totfact>
</mgrwt>
</event>
<event>
 4    1  0.6052129E+003  0.1208269E+03  0.7546771E-02  0.1241739E+00
         21   -1    0    0  504  501  0.00000000000E+00  0.00000000000E+00  0.20739135305E+03  0.20739135305E+03  0.00000000000E+00 0. -1.
         21   -1    0    0  503  502 -0.00000000000E+00 -0.00000000000E+00 -0.86633451384E+02  0.86633451384E+02  0.00000000000E+00 0. -1.
         21    1    1    2  503  501  0.16018374151E+01 -0.12081627402E+03 -0.32705263846E+01  0.12087114748E+03  0.00000000000E+00 0. -1.
         21    1    1    2  504  502 -0.16018374151E+01  0.12081627402E+03  0.12402842805E+03  0.17315365695E+03  0.00000000000E+00 0. -1.
<mgrwt>
<rscale>  2 0.12082689E+03</rscale>
<asrwt>0</asrwt>
<pdfrwt beam="1">  1       21 0.31906362E-01 0.12082689E+03</pdfrwt>
<pdfrwt beam="2">  1       21 0.13328223E-01 0.12082689E+03</pdfrwt>
<totfact> 0.46349115E+05</totfact>
</mgrwt>
</event>
<event>
 4    1  0.6052129E+003  0.1773933E+03  0.7546771E-02  0.1170350E+00
         21   -1    0    0  503  501  0.00000000000E+00  0.00000000000E+00  0.23914301049E+02  0.23914301049E+02  0.00000000000E+00 0. -1.
         21   -1    0    0  504  502 -0.00000000000E+00 -0.00000000000E+00 -0.15577203059E+04  0.15577203059E+04  0.00000000000E+00 0. -1.
         21    1    1    2  503  502  0.46272352978E+01  0.17733294583E+03 -0.10785008639E+04  0.10929924512E+04  0.00000000000E+00 0. -1.
         21    1    1    2  504  501 -0.46272352978E+01 -0.17733294583E+03 -0.45530514102E+03  0.48864215580E+03  0.00000000000E+00 0. -1.
<mgrwt>
<rscale>  2 0.17739331E+03</rscale>
<asrwt>0</asrwt>
<pdfrwt beam="1">  1       21 0.36791233E-02 0.17739331E+03</pdfrwt>
<pdfrwt beam="2">  1       21 0.23964927E+00 0.17739331E+03</pdfrwt>
<totfact> 0.34929421E+04</totfact>
</mgrwt>
</event>
<event>
 4    1  0.6052129E+003  0.1103577E+03  0.7546771E-02  0.1259909E+00
         21   -1    0    0  504  501  0.00000000000E+00  0.00000000000E+00  0.32796231349E+03  0.32796231349E+03  0.00000000000E+00 0. -1.
         21   -1    0    0  503  502 -0.00000000000E+00 -0.00000000000E+00 -0.41280093477E+02  0.41280093477E+02  0.00000000000E+00 0. -1.
         21    1    1    2  503  501 -0.10390067081E+03  0.37195132352E+02  0.20184529197E+03  0.23004423304E+03  0.00000000000E+00 0. -1.
         21    1    1    2  504  502  0.10390067081E+03 -0.37195132352E+02  0.84836928045E+02  0.13919817393E+03  0.00000000000E+00 0. -1.
<mgrwt>
<rscale>  2 0.11035772E+03</rscale>
<asrwt>0</asrwt>
<pdfrwt beam="1">  1       21 0.50455739E-01 0.11035772E+03</pdfrwt>
<pdfrwt beam="2">  1       21 0.63507838E-02 0.11035772E+03</pdfrwt>
<totfact> 0.67306182E+05</totfact>
</mgrwt>
</event>
<event>
 4    1  0.6052129E+003  0.1004814E+03  0.7546771E-02  0.1279287E+00
         21   -1    0    0  502  501  0.00000000000E+00  0.00000000000E+00  0.36434955744E+03  0.36434955744E+03  0.00000000000E+00 0. -1.
         21   -1    0    0  504  502 -0.00000000000E+00 -0.00000000000E+00 -0.43574124840E+02  0.43574124840E+02  0.00000000000E+00 0. -1.
         21    1    1    2  503  501 -0.10034412045E+03  0.52504463309E+01  0.28345092656E+03  0.30073399785E+03  0.00000000000E+00 0. -1.
         21    1    1    2  504  503  0.10034412045E+03 -0.52504463309E+01  0.37324506036E+02  0.10718968442E+03  0.00000000000E+00 0. -1.
<mgrwt>
<rscale>  2 0.10048139E+03</rscale>
<asrwt>0</asrwt>
<pdfrwt beam="1">  1       21 0.56053776E-01 0.10048139E+03</pdfrwt>
<pdfrwt beam="2">  1       21 0.67037118E-02 0.10048139E+03</pdfrwt>
<totfact> 0.49401337E+05</totfact>
</mgrwt>
</event>
<event>
 4    1  0.6052129E+003  0.1045301E+03  0.7546771E-02  0.1271048E+00
         21   -1    0    0  502  501  0.00000000000E+00  0.00000000000E+00  0.21424644788E+02  0.21424644788E+02  0.00000000000E+00 0. -1.
         21   -1    0    0  503  502 -0.00000000000E+00 -0.00000000000E+00 -0.10892891612E+04  0.10892891612E+04  0.00000000000E+00 0. -1.
         21    1    1    2  503  504 -0.21135044601E+02  0.10237115632E+03 -0.93892638354E+03  0.94472710211E+03  0.00000000000E+00 0. -1.
         21    1    1    2  504  501  0.21135044601E+02 -0.10237115632E+03 -0.12893813288E+03  0.16598670389E+03  0.00000000000E+00 0. -1.
<mgrwt>
<rscale>  2 0.10453011E+03</rscale>
<asrwt>0</asrwt>
<pdfrwt beam="1">  1       21 0.32960989E-02 0.10453011E+03</pdfrwt>
<pdfrwt beam="2">  1       21 0.16758296E+00 0.10453011E+03</pdfrwt>
<totfact> 0.12591522E+05</totfact>
</mgrwt>
</event>
<event>
 4    1  0.6052129E+003  0.1253111E+03  0.7546771E-02  0.1234584E+00
         21   -1    0    0  504  501  0.00000000000E+00  0.00000000000E+00  0.39925105025E+03  0.39925105025E+03  0.00000000000E+00 0.  1.
         21   -1    0    0  503  502 -0.00000000000E+00 -0.00000000000E+00 -0.39640442458E+02  0.39640442458E+02  0.00000000000E+00 0.  1.
         21    1    1    2  503  501  0.70666535206E+02  0.10348481384E+03  0.16041058657E+03  0.20355446980E+03  0.00000000000E+00 0.  1.
         21    1    1    2  504  502 -0.70666535206E+02 -0.10348481384E+03  0.19920002122E+03  0.23533702290E+03  0.00000000000E+00 0.  1.
<mgrwt>
<rscale>  2 0.12531108E+03</rscale>
<asrwt>0</asrwt>
<pdfrwt beam="1">  1       21 0.61423236E-01 0.12531108E+03</pdfrwt>
<pdfrwt beam="2">  1       21 0.60985299E-02 0.12531108E+03</pdfrwt>
<totfact> 0.47725141E+05</totfact>
</mgrwt>
</event>
<event>
 4    1  0.6052129E+003  0.1162269E+03  0.7546771E-02  0.1249455E+00
         21   -1    0    0  502  501  0.00000000000E+00  0.00000000000E+00  0.13075730422E+03  0.13075730422E+03  0.00000000000E+00 0.  1.
         21   -1    0    0  504  502 -0.00000000000E+00 -0.00000000000E+00 -0.21423793661E+03  0.21423793661E+03  0.00000000000E+00 0.  1.
         21    1    1    2  503  501 -0.36229025853E+02 -0.11043618018E+03  0.82382912859E+02  0.14246275492E+03  0.00000000000E+00 0.  1.
         21    1    1    2  504  503  0.36229025853E+02  0.11043618018E+03 -0.16586354525E+03  0.20253248591E+03  0.00000000000E+00 0.  1.
<mgrwt>
<rscale>  2 0.11622690E+03</rscale>
<asrwt>0</asrwt>
<pdfrwt beam="1">  1       21 0.20116509E-01 0.11622690E+03</pdfrwt>
<pdfrwt beam="2">  1       21 0.32959682E-01 0.11622690E+03</pdfrwt>
<totfact> 0.20653186E+05</totfact>
</mgrwt>
</event>
<event>
 4    1  0.6052129E+003  0.1089639E+03  0.7546771E-02  0.1262501E+00
         21   -1    0    0  503  501  0.00000000000E+00  0.00000000000E+00  0.92142924324E+02  0.92142924324E+02  0.00000000000E+00 0.  1.
         21   -1    0    0  504  502 -0.00000000000E+00 -0.00000000000E+00 -0.13907041727E+03  0.13907041727E+03  0.00000000000E+00 0.  1.
         21    1    1    2  503  502 -0.34870731877E+02 -0.10323349662E+03 -0.54795370121E+02  0.12196579583E+03  0.00000000000E+00 0.  1.
         21    1    1    2  504  501  0.34870731877E+02  0.10323349662E+03  0.78678771744E+01  0.10924754577E+03  0.00000000000E+00 0.  1.
<mgrwt>
<rscale>  2 0.10896386E+03</rscale>
<asrwt>0</asrwt>
<pdfrwt beam="1">  1       21 0.14175835E-01 0.10896386E+03</pdfrwt>
<pdfrwt beam="2">  1       21 0.21395449E-01 0.10896386E+03</pdfrwt>
<totfact> 0.88509285E+05</totfact>
</mgrwt>
</event>
<event>
 4    1  0.6052129E+003  0.1548455E+03  0.7546771E-02  0.1194642E+00
         21   -1    0    0  504  501  0.00000000000E+00  0.00000000000E+00  0.55921855481E+03  0.55921855481E+03  0.00000000000E+00 0. -1.
         21   -1    0    0  501  502 -0.00000000000E+00 -0.00000000000E+00 -0.84123130186E+03  0.84123130186E+03  0.00000000000E+00 0. -1.
         21    1    1    2  503  502 -0.12706341509E+03 -0.88498634302E+02 -0.82315330671E+03  0.83759088228E+03  0.00000000000E+00 0. -1.
         21    1    1    2  504  503  0.12706341509E+03  0.88498634302E+02  0.54114055966E+03  0.56285897438E+03  0.00000000000E+00 0. -1.
<mgrwt>
<rscale>  2 0.15484547E+03</rscale>
<asrwt>0</asrwt>
<pdfrwt beam="1">  1       21 0.86033624E-01 0.15484547E+03</pdfrwt>
<pdfrwt beam="2">  1       21 0.12942020E+00 0.15484547E+03</pdfrwt>
<totfact> 0.53367434E+02</totfact>
</mgrwt>
</event>
<event>
 4    1  0.6052129E+003  0.1180244E+03  0.7546771E-02  0.1246392E+00
         21   -1    0    0  503  501  0.00000000000E+00  0.00000000000E+00  0.83613303560E+03  0.83613303560E+03  0.00000000000E+00 0.  1.
         21   -1    0    0  504  502 -0.00000000000E+00 -0.00000000000E+00 -0.92569821797E+02  0.92569821797E+02  0.00000000000E+00 0.  1.
         21    1    1    2  503  502 -0.30066954806E+02  0.11413039052E+03 -0.48714299033E+02  0.12768261723E+03  0.00000000000E+00 0.  1.
         21    1    1    2  504  501  0.30066954806E+02 -0.11413039052E+03  0.79227751284E+03  0.80102024017E+03  0.00000000000E+00 0.  1.
<mgrwt>
<rscale>  2 0.11802444E+03</rscale>
<asrwt>0</asrwt>
<pdfrwt beam="1">  1       21 0.12863585E+00 0.11802444E+03</pdfrwt>
<pdfrwt beam="2">  1       21 0.14241512E-01 0.11802444E+03</pdfrwt>
<totfact> 0.20208906E+04</totfact>
</mgrwt>
</event>
<event>
 4    1  0.6052129E+003  0.1038632E+03  0.7546771E-02  0.1272376E+00
         21   -1    0    0  503  501  0.00000000000E+00  0.00000000000E+00  0.38068300353E+02  0.38068300353E+02  0.00000000000E+00 0.  1.
         21   -1    0    0  504  502 -0.00000000000E+00 -0.00000000000E+00 -0.44232283396E+03  0.44232283396E+03  0.00000000000E+00 0. -1.
         21    1    1    2  503  502  0.88889125793E+02 -0.53724260845E+02 -0.58140110725E+02  0.11902875855E+03  0.00000000000E+00 0.  1.
         21    1    1    2  504  501 -0.88889125793E+02  0.53724260845E+02 -0.34611442288E+03  0.36136237576E+03  0.00000000000E+00 0. -1.
<mgrwt>
<rscale>  2 0.10386324E+03</rscale>
<asrwt>0</asrwt>
<pdfrwt beam="1">  1       21 0.58566616E-02 0.10386324E+03</pdfrwt>
<pdfrwt beam="2">  1       21 0.68049667E-01 0.10386324E+03</pdfrwt>
<totfact> 0.41134269E+05</totfact>
</mgrwt>
</event>
<event>
 4    1  0.6052129E+003  0.1293700E+03  0.7546771E-02  0.1228394E+00
         21   -1    0    0  503  501  0.00000000000E+00  0.00000000000E+00  0.96171327161E+02  0.96171327161E+02  0.00000000000E+00 0. -1.
         21   -1    0    0  504  502 -0.00000000000E+00 -0.00000000000E+00 -0.23896343804E+03  0.23896343804E+03  0.00000000000E+00 0. -1.
         21    1    1    2  503  502  0.12935954164E+03  0.16459386656E+01  0.15953619303E+02  0.13034998311E+03  0.00000000000E+00 0. -1.
         21    1    1    2  504  501 -0.12935954164E+03 -0.16459386656E+01 -0.15874573018E+03  0.20478478209E+03  0.00000000000E+00 0. -1.
<mgrwt>
<rscale>  2 0.12937001E+03</rscale>
<asrwt>0</asrwt>
<pdfrwt beam="1">  1       21 0.14795589E-01 0.12937001E+03</pdfrwt>
<pdfrwt beam="2">  1       21 0.36763606E-01 0.12937001E+03</pdfrwt>
<totfact> 0.29092961E+05</totfact>
</mgrwt>
</event>
<event>
 4    1  0.6052129E+003  0.1061865E+03  0.7546771E-02  0.1267799E+00
         21   -1    0    0  504  501  0.00000000000E+00  0.00000000000E+00  0.15380469886E+03  0.15380469886E+03  0.00000000000E+00 0. -1.
         21   -1    0    0  503  502 -0.00000000000E+00 -0.00000000000E+00 -0.15668120894E+03  0.15668120894E+03  0.00000000000E+00 0. -1.
         21    1    1    2  503  501 -0.94952648203E+02  0.47534874084E+02 -0.11468063755E+03  0.15629209283E+03  0.00000000000E+00 0. -1.
         21    1    1    2  504  502  0.94952648203E+02 -0.47534874084E+02  0.11180412747E+03  0.15419381497E+03  0.00000000000E+00 0. -1.
<mgrwt>
<rscale>  2 0.10618649E+03</rscale>
<asrwt>0</asrwt>
<pdfrwt beam="1">  1       21 0.23662261E-01 0.10618649E+03</pdfrwt>
<pdfrwt beam="2">  1       21 0.24104801E-01 0.10618649E+03</pdfrwt>
<totfact> 0.27817798E+05</totfact>
</mgrwt>
</event>
<event>
 4    1  0.6052129E+003  0.1812153E+03  0.7546771E-02  0.1166632E+00
         21   -1    0    0  503  501  0.00000000000E+00  0.00000000000E+00  0.54858242335E+03  0.54858242335E+03  0.00000000000E+00 0. -1.
         21   -1    0    0  504  502 -0.00000000000E+00 -0.00000000000E+00 -0.78400840091E+02  0.78400840091E+02  0.00000000000E+00 0.  1.
         21    1    1    2  503  502  0.14057109570E+02 -0.18066931226E+03  0.38753536229E+03  0.42781147688E+03  0.00000000000E+00 0. -1.
         21    1    1    2  504  501 -0.14057109570E+02  0.18066931226E+03  0.82646220972E+02  0.19917178657E+03  0.00000000000E+00 0.  1.
<mgrwt>
<rscale>  2 0.18121535E+03</rscale>
<asrwt>0</asrwt>
<pdfrwt beam="1">  1       21 0.84397293E-01 0.18121535E+03</pdfrwt>
<pdfrwt beam="2">  1       21 0.12061668E-01 0.18121535E+03</pdfrwt>
<totfact> 0.71174069E+04</totfact>
</mgrwt>
</event>
<event>
 4    1  0.6052129E+003  0.1109792E+03  0.7546771E-02  0.1258767E+00
         21   -1    0    0  504  501  0.00000000000E+00  0.00000000000E+00  0.31050992356E+02  0.31050992356E+02  0.00000000000E+00 0.  1.
         21   -1    0    0  503  502 -0.00000000000E+00 -0.00000000000E+00 -0.56724373183E+03  0.56724373183E+03  0.00000000000E+00 0.  1.
         21    1    1    2  503  501  0.43208214170E+02 -0.10222244335E+03 -0.10404426940E+03  0.15212359347E+03  0.00000000000E+00 0.  1.
         21    1    1    2  504  502 -0.43208214170E+02  0.10222244335E+03 -0.43214847008E+03  0.44617113072E+03  0.00000000000E+00 0.  1.
<mgrwt>
<rscale>  2 0.11097918E+03</rscale>
<asrwt>0</asrwt>
<pdfrwt beam="1">  1       21 0.47770760E-02 0.11097918E+03</pdfrwt>
<pdfrwt beam="2">  1       21 0.87268262E-01 0.11097918E+03</pdfrwt>
<totfact> 0.33390627E+05</totfact>
</mgrwt>
</event>
<event>
 4    1  0.6052129E+003  0.1068822E+03  0.7546771E-02  0.1266455E+00
         21   -1    0    0  504  501  0.00000000000E+00  0.00000000000E+00  0.39962040484E+02  0.39962040484E+02  0.00000000000E+00 0.  1.
         21   -1    0    0  503  502 -0.00000000000E+00 -0.00000000000E+00 -0.11659660794E+04  0.11659660794E+04  0.00000000000E+00 0.  1.
         21    1    1    2  503  501 -0.71050894277E+02 -0.79847238317E+02 -0.39143078740E+02  0.11382438956E+03  0.00000000000E+00 0.  1.
         21    1    1    2  504  502  0.71050894277E+02  0.79847238317E+02 -0.10868609602E+04  0.10921037303E+04  0.00000000000E+00 0.  1.
<mgrwt>
<rscale>  2 0.10688223E+03</rscale>
<asrwt>0</asrwt>
<pdfrwt beam="1">  1       21 0.61480066E-02 0.10688223E+03</pdfrwt>
<pdfrwt beam="2">  1       21 0.17937938E+00 0.10688223E+03</pdfrwt>
<totfact> 0.37092767E+04</totfact>
</mgrwt>
</event>
<event>
 4    1  0.6052129E+003  0.2160304E+03  0.7546771E-02  0.1136878E+00
         21   -1    0    0  504  501  0.00000000000E+00  0.00000000000E+00  0.18314461856E+04  0.18314461856E+04  0.00000000000E+00 0.  1.
         21   -1    0    0  501  502 -0.00000000000E+00 -0.00000000000E+00 -0.66131030675E+02  0.66131030675E+02  0.00000000000E+00 0.  1.
         21    1    1    2  503  502  0.15813548624E+03  0.14718122435E+03  0.13879753109E+03  0.25677597132E+03  0.00000000000E+00 0.  1.
         21    1    1    2  504  503 -0.15813548624E+03 -0.14718122435E+03  0.16265176238E+04  0.16408012449E+04  0.00000000000E+00 0.  1.
<mgrwt>
<rscale>  2 0.21603043E+03</rscale>
<asrwt>0</asrwt>
<pdfrwt beam="1">  1       21 0.28176091E+00 0.21603043E+03</pdfrwt>
<pdfrwt beam="2">  1       21 0.10174006E-01 0.21603043E+03</pdfrwt>
<totfact> 0.33341069E+03</totfact>
</mgrwt>
</event>
<event>
 4    1  0.6052129E+003  0.1042101E+03  0.7546771E-02  0.1271684E+00
         21   -1    0    0  503  501  0.00000000000E+00  0.00000000000E+00  0.15640420113E+03  0.15640420113E+03  0.00000000000E+00 0.  1.
         21   -1    0    0  504  502 -0.00000000000E+00 -0.00000000000E+00 -0.75587668894E+02  0.75587668894E+02  0.00000000000E+00 0.  1.
         21    1    1    2  503  502 -0.77552104586E+02  0.69609074626E+02  0.73505234547E+02  0.12752557274E+03  0.00000000000E+00 0.  1.
         21    1    1    2  504  501  0.77552104586E+02 -0.69609074626E+02  0.73112976934E+01  0.10446629729E+03  0.00000000000E+00 0.  1.
<mgrwt>
<rscale>  2 0.10421013E+03</rscale>
<asrwt>0</asrwt>
<pdfrwt beam="1">  1       21 0.24062185E-01 0.10421013E+03</pdfrwt>
<pdfrwt beam="2">  1       21 0.11628872E-01 0.10421013E+03</pdfrwt>
<totfact> 0.10095674E+06</totfact>
</mgrwt>
</event>
<event>
 4    1  0.6052129E+003  0.1051874E+03  0.7546771E-02  0.1269751E+00
         21   -1    0    0  504  501  0.00000000000E+00  0.00000000000E+00  0.23701351581E+03  0.23701351581E+03  0.00000000000E+00 0.  1.
         21   -1    0    0  501  502 -0.00000000000E+00 -0.00000000000E+00 -0.42086152955E+03  0.42086152955E+03  0.00000000000E+00 0.  1.
         21    1    1    2  503  502  0.54001058954E+01  0.10504872826E+03 -0.40208236786E+03  0.41561355487E+03  0.00000000000E+00 0.  1.
         21    1    1    2  504  503 -0.54001058954E+01 -0.10504872826E+03  0.21823435412E+03  0.24226149048E+03  0.00000000000E+00 0.  1.
<mgrwt>
<rscale>  2 0.10518743E+03</rscale>
<asrwt>0</asrwt>
<pdfrwt beam="1">  1       21 0.36463618E-01 0.10518743E+03</pdfrwt>
<pdfrwt beam="2">  1       21 0.64747927E-01 0.10518743E+03</pdfrwt>
<totfact> 0.17000620E+04</totfact>
</mgrwt>
</event>
<event>
 4    1  0.6052129E+003  0.1006082E+03  0.7546771E-02  0.1279022E+00
         21   -1    0    0  504  501  0.00000000000E+00  0.00000000000E+00  0.26003899254E+02  0.26003899254E+02  0.00000000000E+00 0. -1.
         21   -1    0    0  503  502 -0.00000000000E+00 -0.00000000000E+00 -0.41572307592E+03  0.41572307592E+03  0.00000000000E+00 0. -1.
         21    1    1    2  503  501 -0.82845677650E+02  0.57084139759E+02 -0.13912458968E+03  0.17169058440E+03  0.00000000000E+00 0. -1.
         21    1    1    2  504  502  0.82845677650E+02 -0.57084139759E+02 -0.25059458698E+03  0.27003639077E+03  0.00000000000E+00 0. -1.
<mgrwt>
<rscale>  2 0.10060818E+03</rscale>
<asrwt>0</asrwt>
<pdfrwt beam="1">  1       21 0.40005998E-02 0.10060818E+03</pdfrwt>
<pdfrwt beam="2">  1       21 0.63957397E-01 0.10060818E+03</pdfrwt>
<totfact> 0.88700610E+05</totfact>
</mgrwt>
</event>
<event>
 4    1  0.6052129E+003  0.1040131E+03  0.7546771E-02  0.1272076E+00
         21   -1    0    0  504  501  0.00000000000E+00  0.00000000000E+00  0.18343048533E+03  0.18343048533E+03  0.00000000000E+00 0.  1.
         21   -1    0    0  503  502 -0.00000000000E+00 -0.00000000000E+00 -0.82514982644E+02  0.82514982644E+02  0.00000000000E+00 0.  1.
         21    1    1    2  503  501 -0.74245300914E+02  0.72844815173E+02 -0.20557731375E+02  0.10602524287E+03  0.00000000000E+00 0.  1.
         21    1    1    2  504  502  0.74245300914E+02 -0.72844815173E+02  0.12147323406E+03  0.15992022511E+03  0.00000000000E+00 0.  1.
<mgrwt>
<rscale>  2 0.10401313E+03</rscale>
<asrwt>0</asrwt>
<pdfrwt beam="1">  1       21 0.28220075E-01 0.10401313E+03</pdfrwt>
<pdfrwt beam="2">  1       21 0.12694613E-01 0.10401313E+03</pdfrwt>
<totfact> 0.64024444E+05</totfact>
</mgrwt>
</event>
<event>
 4    1  0.6052129E+003  0.1762471E+03  0.7546771E-02  0.1171485E+00
         21   -1    0    0  504  501  0.00000000000E+00  0.00000000000E+00  0.18913362418E+02  0.18913362418E+02  0.00000000000E+00 0.  1.
         21   -1    0    0  503  502 -0.00000000000E+00 -0.00000000000E+00 -0.20711380668E+04  0.20711380668E+04  0.00000000000E+00 0.  1.
         21    1    1    2  503  501  0.17446237598E+03  0.25018114661E+02 -0.15015854672E+04  0.15118934956E+04  0.00000000000E+00 0.  1.
         21    1    1    2  504  502 -0.17446237598E+03 -0.25018114661E+02 -0.55063923715E+03  0.57815793360E+03  0.00000000000E+00 0.  1.
<mgrwt>
<rscale>  2 0.17624706E+03</rscale>
<asrwt>0</asrwt>
<pdfrwt beam="1">  1       21 0.29097502E-02 0.17624706E+03</pdfrwt>
<pdfrwt beam="2">  1       21 0.31863640E+00 0.17624706E+03</pdfrwt>
<totfact> 0.18061058E+04</totfact>
</mgrwt>
</event>
<event>
 4    1  0.6052129E+003  0.1160786E+03  0.7546771E-02  0.1249710E+00
         21   -1    0    0  504  501  0.00000000000E+00  0.00000000000E+00  0.75435643311E+02  0.75435643311E+02  0.00000000000E+00 0. -1.
         21   -1    0    0  503  502 -0.00000000000E+00 -0.00000000000E+00 -0.87086810704E+03  0.87086810704E+03  0.00000000000E+00 0. -1.
         21    1    1    2  503  501  0.38333178731E+02 -0.10956650179E+03 -0.81956377673E+03  0.82774333886E+03  0.00000000000E+00 0. -1.
         21    1    1    2  504  502 -0.38333178731E+02  0.10956650179E+03  0.24131312996E+02  0.11856041149E+03  0.00000000000E+00 0. -1.
<mgrwt>
<rscale>  2 0.11607864E+03</rscale>
<asrwt>0</asrwt>
<pdfrwt beam="1">  1       21 0.11605483E-01 0.11607864E+03</pdfrwt>
<pdfrwt beam="2">  1       21 0.13397971E+00 0.11607864E+03</pdfrwt>
<totfact> 0.26321956E+04</totfact>
</mgrwt>
</event>
<event>
 4    1  0.6052129E+003  0.1420345E+03  0.7546771E-02  0.1210617E+00
         21   -1    0    0  504  501  0.00000000000E+00  0.00000000000E+00  0.56712138353E+02  0.56712138353E+02  0.00000000000E+00 0. -1.
         21   -1    0    0  503  502 -0.00000000000E+00 -0.00000000000E+00 -0.35660583457E+03  0.35660583457E+03  0.00000000000E+00 0.  1.
         21    1    1    2  503  501  0.10574872151E+03  0.94820930803E+02 -0.13966319739E+03  0.19919741395E+03  0.00000000000E+00 0.  1.
         21    1    1    2  504  502 -0.10574872151E+03 -0.94820930803E+02 -0.16023049883E+03  0.21412055898E+03  0.00000000000E+00 0. -1.
<mgrwt>
<rscale>  2 0.14203451E+03</rscale>
<asrwt>0</asrwt>
<pdfrwt beam="1">  1       21 0.87249441E-02 0.14203451E+03</pdfrwt>
<pdfrwt beam="2">  1       21 0.54862438E-01 0.14203451E+03</pdfrwt>
<totfact> 0.32693194E+05</totfact>
</mgrwt>
</event>
